2160
Time=31000.00000001 pbc="T T T" Lattice="20.53694731 0.00000000 0.00000000 0.00000000 28.92473287 0.00000000 -4.73817522 0.00000000 35.69721456" energy=-13795.96228635 virial="-39.80617799 -48.13004960 49.36029207 -48.13004960 -40.91805226 15.43293982 49.36029207 15.43293982 -31.11590619" stress="0.00075176 -0.00221827 0.00231512 -0.00221827 0.00037820 0.00076486 0.00231512 0.00076486 0.00092467" Properties=species:S:1:pos:R:3:vel:R:3
O 0.72407435 8.62475440 1.93862518 -0.00045178 -0.00290688 0.00228901
O 1.80963036 3.65817973 3.33683159 0.00047761 -0.00410221 -0.00310834
O 4.59412785 1.24150215 9.20084049 -0.00029159 0.00085394 0.00279137
O 3.16656598 5.99900676 8.21448303 0.00515254 -0.00247093 -0.00326551
O 1.32317630 5.01374742 9.71325994 -0.00817625 0.00070650 0.00129413
O -0.24462078 9.57911549 8.29754962 -0.00180017 0.00165905 0.00431515
O 3.71677784 4.96920724 2.07381410 -0.00068795 -0.00354488 0.00544765
O 5.51837424 28.89887947 3.27756344 -0.00343758 0.00331498 0.00160894
O -0.87227428 8.55360479 14.38198042 -0.00423326 -0.00295742 0.00481158
O 0.28040592 3.92903668 15.43770845 0.00464604 -0.00180062 -0.00233332
O 2.84274558 1.06185299 21.48491236 0.00765647 0.00222246 0.00364270
O 1.71611267 6.21583986 20.45254224 -0.00334018 0.00662717 0.00227733
O -0.31960869 4.48964022 21.47879265 0.00216640 0.00080057 0.00848977
O -1.72008559 9.45942901 19.91224154 -0.00119740 0.00536099 0.00219172
O 2.25521499 4.82652021 14.07802281 -0.00673633 0.00372069 0.00452642
O 3.79002640 28.40374011 15.40395919 -0.00372401 -0.00272428 0.00096348
O -2.53341187 8.06706731 26.25266498 0.00338058 0.00065879 0.00370938
O -1.30860904 3.66019835 27.23811450 0.00251606 0.00029358 -0.00138414
O 1.44658209 1.20542929 33.18224507 -0.00237133 0.00654978 0.00013809
O -0.09255786 5.83222693 32.10196444 0.00558915 -0.00793308 0.00264163
O -2.05900306 4.61338565 33.21820579 -0.00395931 -0.00098795 -0.00315390
O -3.45204645 9.34990764 32.07815585 0.00381272 0.00059590 -0.00191452
O 0.80542667 4.68314020 26.14933062 -0.00147526 0.00093279 0.00231160
O 2.18130230 0.04827633 27.21019168 0.00118492 -0.00384279 -0.00062135
O 0.91245836 18.25393346 2.28249974 -0.01054141 0.00281739 0.00190357
O 2.11033687 13.39720672 3.62080125 -0.00412923 0.00309742 0.00242669
O 4.37831809 10.62477773 9.67133376 0.00814104 -0.00356796 -0.00381223
O 3.56732032 15.60340466 8.17802525 0.00929766 0.00198062 0.00262047
O 1.58746579 14.78491746 9.73459626 0.00034298 0.00382837 0.00102349
O -0.26293418 19.07237556 8.19519170 0.00377103 0.00677068 -0.00282956
O 3.91928516 14.48112022 2.05133875 0.00084459 -0.01042589 0.00234910
O 5.44400657 9.72788125 3.38036392 0.00196338 -0.00394739 -0.00836834
O -1.02235970 17.85178604 14.77284235 0.00237940 -0.00132629 0.00606328
O 0.28240665 13.43224478 15.49318383 0.01009330 0.00226317 0.00529903
O 2.79329606 11.05811605 21.23321875 -0.00029327 -0.00502597 -0.00247626
O 2.13881879 15.74192488 20.56387473 -0.00315726 0.00501537 -0.00311157
O -0.25896348 14.88558239 21.32174701 0.00318296 0.00466064 -0.00649304
O -1.81523930 19.38491214 20.22706898 0.00403710 0.00429513 -0.00136007
O 2.55027136 14.21253018 14.50902705 0.00549110 -0.00515576 -0.00132667
O 3.99534683 9.55734798 15.54015159 0.00222162 0.00134125 0.00452037
O -2.45763798 18.09777169 26.39343260 0.00538311 -0.00881536 0.00238371
O -1.44479438 13.28247644 27.27588156 -0.00325826 0.00594675 0.00167182
O 1.52452694 10.92859879 32.74369695 0.00658759 -0.00384117 -0.00187364
O 0.30763056 15.62432891 32.11433355 0.00378294 -0.00393750 -0.00400176
O -1.82047726 14.53668291 33.17074722 0.00643254 0.00134654 -0.00057819
O -3.36154306 19.44913641 32.24369565 -0.00591620 -0.00073880 0.00118924
O 0.64059383 14.46301961 26.32502581 0.00337555 -0.00327671 0.00012378
O 2.24941012 9.64383655 27.21121905 -0.00654655 0.00908835 -0.00486812
O 0.77669384 28.00816358 2.44118240 0.00084921 -0.00072328 -0.00367441
O 1.83991236 23.28545187 3.80654035 -0.00083595 -0.00377536 -0.00656221
O 4.58651007 20.17590992 9.53687636 -0.00372996 -0.00263637 -0.00001924
O 3.39223518 25.51111027 8.52379752 -0.00360087 -0.00090291 0.00884243
O 1.33444524 24.12692390 9.33555207 0.00051934 -0.00431798 -0.00603478
O -0.36253646 28.79483190 8.07849050 0.00299767 -0.00362479 -0.00035615
O 3.69774626 24.07227603 2.30046100 0.00483432 -0.00157629 0.00003932
O 5.35609117 19.11101130 3.41959756 0.00866890 -0.00478532 -0.00348615
O -1.06321909 27.52559237 14.15858744 0.00092248 -0.00423099 0.00104057
O 0.37219661 23.14159516 15.66030486 -0.00744134 0.00156305 -0.00041792
O 3.25667470 20.62651935 21.50839699 0.00191452 0.00108396 0.00112621
O 1.63859570 25.00104180 20.37319800 -0.00443632 0.00191717 0.00032709
O -0.23933804 23.89205956 21.91693322 0.00079393 -0.00081079 -0.00341933
O -1.60114990 0.04881035 19.99022603 0.00415690 0.00987902 -0.00588496
O 2.37321591 23.72807899 14.29677203 0.00092161 0.00263802 -0.00193154
O 3.76252479 19.19472148 15.70926805 0.00857890 0.00058751 0.00381723
O -2.62251326 27.69190892 26.39014336 -0.00196743 -0.00005967 0.00329096
O -1.21708771 22.87101786 27.34143787 -0.00571604 -0.00207711 0.00703169
O 1.31983954 20.40185894 33.45579479 -0.00298518 0.00113675 0.00138351
O 0.05540107 24.98318018 31.91653497 -0.00096598 0.00162657 -0.00200714
O -1.86831210 24.32297888 33.51717704 0.00721147 0.00523295 0.00622582
O -3.38704237 28.80243086 31.95946506 0.00811945 -0.00147584 -0.00451145
O 0.87218130 24.42597897 25.99096270 0.00647229 0.00255357 -0.00675159
O 2.33103311 19.53910732 27.48060926 -0.00004630 -0.00023170 -0.00419963
O 7.40708368 8.52685805 2.10594287 -0.00332302 0.00255894 -0.00296514
O 8.83169586 3.88803058 3.54451011 0.00504856 0.00085713 0.00188653
O 11.28118588 1.25639300 9.66519326 -0.00031170 -0.00320021 0.00237161
O 10.07928215 5.84708355 8.04093460 -0.00209309 -0.00234323 0.00287406
O 7.94881587 5.15781204 9.29039424 -0.00317733 -0.00314732 0.00034038
O 6.49669944 9.91549121 7.81980104 0.00601432 0.00235417 -0.00339412
O 10.81714128 4.89475696 2.22984664 0.00021119 0.00446353 -0.00706650
O 12.36813196 28.90652679 3.81899536 0.00051949 0.00091978 0.00079807
O 5.86635096 8.56615777 14.12155770 0.00134125 -0.00174189 -0.00023422
O 7.19250762 4.55106023 16.00259929 -0.00003746 -0.00413455 -0.00090894
O 9.75144515 1.26767001 21.07203036 0.00190154 -0.00426131 -0.00485124
O 8.66452426 6.12718535 20.27897196 0.00126516 0.00197840 0.00511844
O 6.65829074 4.90363897 21.40342325 -0.00259531 0.00380136 -0.00395059
O 4.96057689 10.03228737 20.32811209 -0.00118055 0.00046404 0.00068561
O 9.12709459 4.98367327 14.15266446 -0.00168441 -0.00226188 0.00028808
O 10.46502867 0.16290079 15.21621740 -0.00155516 -0.00084960 0.00414921
O 4.46731220 8.60175901 26.06999058 -0.00169579 -0.00232347 -0.00016931
O 5.57909388 3.46624442 27.32627152 0.00427866 -0.00134163 -0.00452710
O 8.27754563 1.14912122 33.32313575 -0.00158662 0.00122110 -0.00027438
O 7.06031906 5.78036048 32.11395026 -0.00222055 0.00197525 -0.00045752
O 4.90499941 4.58731579 33.20984008 -0.00315559 -0.00471039 0.00032576
O 3.45480673 9.39461885 31.69705365 0.00558295 0.00317658 -0.00334218
O 7.47239294 4.59867796 25.93615325 -0.00520318 -0.00390753 -0.00117240
O 9.00801400 28.39865323 27.67222778 0.00374354 -0.00457326 -0.00289757
O 7.66817687 18.31962926 2.34905406 0.00272129 -0.00220302 -0.00101038
O 8.68135283 13.54524526 3.22390093 0.00028121 0.00225805 -0.00465542
O 11.16934522 10.89195954 9.20822926 -0.00502645 0.00877767 -0.00424924
O 10.27870215 15.58215386 8.44925940 -0.00025554 -0.00254075 -0.00393617
O 8.08440567 14.55211841 9.84713661 0.00121189 0.00602821 0.00422533
O 6.51366957 19.21667448 7.92167418 -0.00092998 -0.00443067 0.00130972
O 10.83250343 14.80908953 2.28294526 0.00009491 -0.00355461 0.00545269
O 12.11261006 9.51978689 3.30452238 -0.00209813 -0.00086185 0.00315953
O 5.94579324 18.31182816 14.37210247 -0.00312264 0.00064359 -0.00221010
O 7.15427201 13.37477391 15.38122478 0.00190963 0.00689884 0.00014384
O 9.63636233 10.58885316 21.46469792 -0.00058356 -0.00206998 -0.00003067
O 8.70347056 15.52365285 20.26170894 -0.00169313 -0.00074462 0.00076126
O 6.52867524 14.75382442 21.43436766 -0.00157611 -0.00530546 -0.00482360
O 5.31879907 19.69990392 20.42456527 -0.00546728 0.00453765 0.00334924
O 9.24537164 14.47285377 13.92559766 -0.00391430 -0.00595117 0.00223164
O 10.77991264 9.64054440 15.70755569 -0.00020927 0.00354525 0.00407424
O 4.63675204 18.18716773 26.40227643 -0.00079882 -0.00149683 -0.00454858
O 5.75792381 13.80293479 27.79258624 0.00089386 0.00123801 0.00374964
O 8.33052886 10.60610596 33.54998601 0.00006505 0.00839274 -0.00640230
O 7.31490299 15.14424501 32.03973652 0.00434344 -0.00216511 -0.00145130
O 5.11853554 14.44162508 33.34175950 0.00424407 0.00417447 -0.00329727
O 3.46285566 19.66234774 32.11251113 0.00052302 0.00755336 0.01102495
O 7.74836689 14.33689541 26.09239101 -0.00448327 -0.00419322 0.00554962
O 9.18830118 9.34410512 27.41343568 0.00191078 -0.00498089 -0.00258288
O 7.71054163 28.17507711 2.22935562 -0.00220334 0.00471937 -0.00022565
O 8.92583576 23.46130019 3.82406382 -0.00389219 0.00248480 0.00477265
O 11.17086891 20.21063415 9.51034886 -0.00257962 0.00451311 -0.00154283
O 10.16651918 25.34205777 8.39576874 0.00133242 0.00165209 -0.00614765
O 7.99961712 24.46831381 9.36006221 -0.00219450 0.00383098 0.00138708
O 6.71853578 0.08707127 8.09827736 0.00094890 0.00564760 0.00627127
O 10.61730211 24.20461889 2.14347605 -0.00740810 0.00025941 -0.00723112
O 12.42062821 19.29921045 3.79410724 -0.00001547 0.00716607 0.00573284
O 5.79209398 27.75212422 14.12585232 0.00358697 0.00309913 -0.00524851
O 7.20663987 22.91250255 15.36584350 0.00154574 -0.00229620 0.00098423
O 10.01007805 20.60402467 21.34714938 0.00043645 0.00190734 0.00202571
O 8.71815609 25.61086910 20.49844065 -0.00326349 0.00059332 -0.00527965
O 6.64880727 24.52805749 21.56649817 -0.00452213 0.00521777 -0.00728432
O 4.92512010 0.33159235 20.03503683 -0.00124951 0.00147263 -0.00727702
O 9.22430483 23.90792504 14.19106520 0.00343896 -0.00021105 -0.00325318
O 10.98426522 19.30226908 15.71969984 -0.00102315 0.00739779 0.00275671
O 4.35248149 27.71384019 26.68156042 -0.00382571 -0.00360014 -0.00126811
O 5.76500643 23.33031120 27.43719760 0.00384129 -0.00202959 -0.00203721
O 8.38586395 20.41269814 33.33650108 0.00092764 -0.00345706 -0.00261308
O 6.97533472 25.04020807 32.43552848 0.00146039 0.00565379 0.00205743
O 4.80485426 23.91340778 33.52910285 0.00156602 0.00176546 -0.00395061
O 3.46335297 28.88180284 32.09716908 -0.00711775 -0.00773108 -0.00354445
O 7.74428960 24.32859284 26.08332405 -0.00287326 -0.00049645 -0.00443714
O 9.41333073 19.07926670 27.62296624 -0.00377485 0.00246821 0.00715076
O 14.37242965 8.73197868 2.31960906 0.00166767 -0.00166367 -0.00293709
O 15.52810013 3.64455156 3.47513463 0.00010825 0.00235701 0.00098046
O 18.40046257 0.88277977 9.85342492 0.00322759 0.00094892 0.00126217
O 17.12016876 6.15660542 8.62112560 -0.00113116 -0.00700249 -0.00120450
O 14.99746524 5.04446318 9.57467252 -0.00350273 0.00011205 -0.00261679
O 13.18848588 9.76245058 7.87642979 -0.00253999 0.00017882 -0.00432646
O 17.32951031 4.73028984 2.09632809 0.00239358 0.00170346 -0.00342707
O 19.18541543 28.91501019 3.90242990 -0.00180137 0.00095357 -0.00101405
O 12.76809708 8.58469006 14.36827727 0.00340422 0.00045021 0.00117621
O 14.09357149 3.66441076 15.60399787 -0.00890396 0.00200350 -0.00196933
O 16.81580581 1.10662530 21.18661827 -0.00777538 0.00037028 -0.00192573
O 15.59728381 6.01986819 20.44154643 0.00124203 -0.00925315 0.00223338
O 13.29429385 4.72176515 21.32220568 -0.00811943 0.00405005 0.00117299
O 12.01000148 10.16797821 20.26593664 -0.00195642 0.00131472 -0.00419761
O 16.07443601 4.60105514 14.35559613 0.00767314 0.00400820 0.00345575
O 17.70680200 28.85265049 15.55929107 0.00353143 -0.00020962 -0.00523673
O 11.20202143 8.57972623 26.17391637 -0.00693355 0.00327953 0.00233468
O 12.41910152 3.38487924 27.10634763 -0.00225284 0.00530061 -0.00509776
O 15.02124050 0.79997096 33.39387120 0.00546261 0.00827023 -0.00365971
O 13.91525023 5.55599543 31.70225921 -0.00488738 0.00422142 -0.00180029
O 11.59246292 5.41402603 33.11005279 0.00319548 -0.00165707 -0.00301497
O 10.28861676 9.94941866 31.92116466 0.00994713 0.00198120 -0.00270623
O 14.44274244 4.52247789 25.88380368 0.00434920 -0.00558748 -0.00055221
O 15.98911957 28.74910437 27.48721472 -0.00326971 0.00108175 -0.00505774
O 14.27214089 18.19869918 2.36900681 -0.00037992 0.00068096 0.00719512
O 15.70069476 13.35555367 3.27811911 0.00228056 0.00400261 -0.00224812
O 18.07355254 10.73689696 9.17117848 0.00140454 -0.00031694 0.00059751
O 17.09972629 15.57172419 8.45297116 -0.00472871 -0.00248538 0.00162623
O 15.17165136 14.22184070 9.62641262 0.00136651 -0.00102268 0.00098563
O 13.45872046 19.33644241 8.70294574 0.00060058 -0.00301495 0.00616798
O 17.83886066 14.06369210 2.30231014 0.00251898 0.00291682 -0.00010090
O 19.40998493 9.54388741 3.81057236 -0.00382976 0.00108037 0.00429509
O 12.83296365 18.00035435 14.28083111 0.00066059 -0.00402818 -0.00322092
O 13.99588475 13.39343220 15.42070166 0.00128373 0.00252109 0.00200449
O 16.83480742 10.49398739 21.31397530 0.00288654 -0.00129642 -0.00225599
O 15.78306513 15.65061987 20.03370354 0.00321424 0.00533322 -0.00167007
O 13.67597491 14.77508093 21.47416063 -0.00419604 0.00185183 -0.00406977
O 12.21044536 19.56300104 20.27011564 -0.00038664 -0.00151104 -0.00142893
O 16.25454219 14.20697670 13.98448635 0.00182495 0.00314826 -0.00274506
O 17.62249467 9.54986779 15.47575473 0.00512400 0.00061772 0.00306717
O 11.37988196 18.17050843 26.29539164 -0.00099820 -0.00167556 -0.00535237
O 12.63834863 13.31340750 27.08000110 0.00288806 0.00102985 0.00286621
O 15.09957318 10.72536430 32.90631000 0.00058506 0.00200414 -0.00254407
O 14.00542172 15.26459892 31.99150988 0.00118318 -0.00254781 -0.01055978
O 12.04964330 14.49649143 33.46476916 0.00154306 -0.00611933 -0.00028869
O 10.21641352 19.14023744 32.10294842 0.00015328 -0.00147770 0.00789459
O 14.49522101 14.27809084 25.78682229 0.00066766 0.00017060 -0.00230654
O 15.94986711 9.21560980 27.17809777 -0.00488343 -0.00138053 0.00406384
O 14.52146721 27.89699544 2.58444440 -0.00303678 0.00379292 -0.00425546
O 15.24208153 23.15880333 3.90808283 -0.00500792 0.00037901 -0.00531074
O 18.41477584 20.13286403 9.48718229 0.00425120 0.00109644 -0.00541246
O 16.63854683 25.34216332 8.65520457 0.00432097 -0.00040563 -0.00519450
O 14.96090295 24.10736031 10.08604771 -0.00703029 -0.00055067 -0.00131399
O 13.40525888 0.28339506 8.48752416 0.00215738 0.00000634 -0.00100433
O 17.45524446 23.89257126 2.44476481 -0.00177732 0.00545173 -0.00355124
O 19.15736070 18.96124797 3.63623750 0.00489260 0.00088833 0.00142586
O 12.52055320 27.88047035 14.58504088 0.00249915 0.00172729 -0.00343426
O 13.98038646 22.86637302 15.07480582 0.00341915 -0.00183861 0.00426022
O 16.66443470 20.67897093 21.21417124 0.00608808 -0.00228272 -0.00010597
O 15.69345581 25.21400609 20.28466080 -0.00080432 -0.00521821 -0.00338128
O 13.42430313 24.60683054 21.46528127 0.00311233 -0.00520029 0.00543888
O 11.86982781 0.15127332 20.15407115 0.00592548 -0.00244363 -0.00085474
O 16.15836318 23.95446425 14.10602638 -0.00132272 -0.00192511 0.00423651
O 17.58083567 19.34624008 15.33728085 0.00072309 -0.00062915 -0.00009511
O 11.19901544 27.79111667 26.40585456 0.00108522 -0.00094627 -0.00174171
O 12.44294785 23.00958308 27.61905298 0.00194244 -0.00085785 0.00104415
O 15.08697225 20.13713266 33.75032035 -0.00439898 -0.00389889 -0.00133356
O 13.96105327 25.04579257 32.38577932 0.00277469 -0.00111798 -0.00185448
O 12.03192603 23.90647452 33.63861847 -0.00146281 0.00224773 0.00046359
O 10.24325929 0.07678587 31.91316852 -0.00191068 -0.00193342 0.00747750
O 14.43301772 23.94996859 26.17115805 -0.00275858 -0.00110397 0.00214835
O 16.14706017 19.39355939 27.57842351 0.00144919 0.00399605 -0.00513219
H -0.13291744 8.90792907 2.45179040 -0.02667465 -0.00661664 0.00704258
H 2.52868786 4.17876065 3.05412924 -0.00071345 0.00987203 0.00824394
H 5.41428793 0.90526095 8.73939257 0.00872274 0.00605056 -0.00339426
H 2.22705136 5.77341476 8.53022216 0.03146162 -0.00124523 -0.00913336
H 5.44831769 8.03926511 0.24709666 -0.01862681 0.00872467 0.01226513
H 3.87981665 3.49616341 5.09987666 0.02511852 0.01978906 0.03218057
H -0.08569618 1.73575404 11.31265051 0.02406086 0.01837466 0.02414465
H 1.31118603 6.41289066 6.56820987 -0.00694454 0.01958324 -0.00879658
H 3.83550274 6.64771137 10.61597187 -0.00900617 0.01129477 -0.00382987
H 3.84312210 2.15807795 7.03963215 0.02059433 0.00626850 -0.01708548
H 0.87338017 3.14292059 1.30158971 0.01646774 -0.00425795 0.00121113
H 1.29070499 7.84142321 4.60559062 -0.01922346 -0.01048543 -0.00515538
H -2.29946112 5.09024728 35.45948082 0.02740424 -0.00815537 0.01739374
H -0.11498494 0.66444833 6.18259061 0.00036119 -0.02082998 -0.00175572
H 2.47868628 4.30263410 11.81154198 0.02648772 0.01090311 0.01112787
H 5.33385055 9.09680691 5.52209257 0.00084866 0.01190507 -0.00790326
H 2.80667626 7.11008721 1.14128666 0.02658700 -0.00574548 -0.01261141
H -0.14269671 2.06311542 4.26476803 0.00002644 0.01003247 -0.01323136
H 2.46185469 2.68418596 10.12236328 0.00520033 0.02177469 -0.00936886
H 5.24908677 7.44140101 7.50832301 0.00573505 -0.01041141 -0.01451216
H 4.89847873 4.92127378 9.38876751 -0.00624420 0.01677921 0.02455391
H 2.80176823 0.13409453 8.35466533 0.01580494 0.00815746 0.01892001
H -0.10232689 4.73315727 2.08858921 0.03087380 0.00716168 -0.00068668
H 2.26268960 9.71615552 3.45031005 -0.00381634 -0.00548161 -0.00823299
H 5.53424951 3.50025835 7.67605209 -0.00263202 -0.02019673 -0.01805650
H 0.81506882 7.47409665 9.45608676 -0.00514746 0.00856880 -0.00672278
H 19.34798550 6.87508712 2.93083741 -0.00124726 -0.00013390 0.01424587
H 4.18140333 0.68661934 1.12213827 0.02362445 -0.03473128 -0.00743607
H -0.40897861 3.98278701 7.50448984 -0.00982164 0.00145757 -0.00634144
H 0.71320599 8.77152048 10.58939433 -0.00272189 0.00853654 -0.00856230
H 5.99348978 6.64376634 3.43661666 0.01345436 -0.00431426 -0.03693359
H 2.95459331 1.50739671 2.00723648 0.01368362 0.01687280 0.02452322
H -0.72573158 2.86916799 8.71268879 -0.02791937 0.01729144 0.00155248
H 2.40107297 8.46599130 9.80188822 -0.00437948 -0.00064577 -0.01471651
H 4.42445774 6.41015639 4.17163616 -0.00246977 0.01893855 0.00419500
H 4.56083956 2.16157650 2.10691019 -0.02062378 0.01202281 0.00836485
H -1.79789930 8.97393544 14.80044644 -0.01723145 -0.00346529 0.00065360
H 1.04117256 4.36320332 15.00328893 -0.01245938 0.01414415 -0.01755955
H 3.67984455 0.82877978 20.99180121 0.01924519 -0.01398097 -0.01446540
H 0.98591488 5.58717853 20.64384068 0.00166460 -0.01283204 0.00290310
H 3.88887375 8.27285999 12.27357003 -0.01289805 0.04368347 -0.01383016
H 2.36712303 3.57729767 16.93701295 -0.02219587 0.03022778 0.01961524
H -1.82772128 1.42264886 22.91851987 -0.01723058 -0.00530246 -0.01912375
H -0.23210672 6.36826124 18.55483212 -0.01232082 -0.00048590 -0.01335200
H 2.52124992 6.81417553 22.47606840 -0.03737493 -0.02043713 -0.01225150
H 2.48493490 1.98212086 18.84288119 -0.01267688 -0.02239915 -0.00606080
H -0.09382371 3.39870092 12.90532906 0.00921791 0.02237481 0.01312199
H -0.12994606 7.63964085 16.57258533 -0.00924763 -0.00770556 -0.02810688
H 1.13848723 5.64135938 11.64984317 -0.00577011 -0.01045269 0.00628132
H -1.40236470 0.49664643 17.76811780 -0.00872485 -0.01669227 -0.00290380
H 0.95483769 4.39288051 23.96671475 -0.02014507 0.01337530 0.02481952
H 3.82311918 8.93487021 17.50410309 -0.00271902 -0.03055415 -0.00999561
H 1.14387994 7.05813166 13.60576911 0.00110280 -0.00703622 0.00095704
H -1.46152399 2.23497506 15.86591609 0.01586969 0.01340020 0.04065345
H 1.02665123 2.77120325 22.04202106 0.00861323 0.01120555 0.00851359
H 3.74893522 7.71501775 19.62402744 0.03559402 -0.02731136 -0.02501424
H 3.44294957 4.88570137 21.36333948 0.01541040 0.02108942 0.02143159
H 1.53368827 0.31013488 20.06567657 -0.01405681 -0.00112240 0.00385513
H -1.39212866 4.97349424 14.19215705 -0.00837871 0.01384770 0.02423117
H 0.83501250 9.51010096 15.43687801 -0.00985142 -0.00471311 0.00767625
H 4.26128571 4.58756004 19.19039889 -0.00973079 -0.00559554 0.02404409
H -0.77793329 8.76168542 22.39223988 0.01759029 -0.01517117 0.03738310
H 17.33862834 5.64516810 16.48130587 0.00000858 0.00626576 0.00114329
H 3.11169378 1.46181108 13.96046873 0.01386822 -0.00955263 0.01085472
H 17.76295965 3.30709814 19.89474150 -0.02003359 -0.04297989 0.00869761
H 0.83918679 8.30923858 21.67132395 -0.01249697 -0.01516918 0.01259106
H 4.43895955 6.87617297 15.48176425 -0.00107448 -0.01038705 -0.00235933
H 2.38298070 0.14960893 13.14669558 -0.01579335 -0.00032431 -0.00329079
H -1.04482103 3.37888420 19.35189109 -0.01126792 0.00239859 0.00700770
H -0.76469648 7.36905430 21.36492006 0.01097968 -0.01171305 0.00079822
H 2.70154296 6.92109642 15.14555594 -0.02517925 0.03379612 0.01291039
H 1.32974863 1.25116886 14.03435398 0.01389002 -0.00141247 0.01373797
H -3.31013283 8.70940539 26.50900365 -0.01325589 0.01623288 -0.01996754
H -0.44192248 3.92256759 26.87802860 0.01885544 0.02690937 -0.02214170
H 2.22508535 0.67402776 32.86886918 -0.02532333 0.01248237 0.00365931
H -1.03084940 5.48044481 32.43823075 -0.00029489 0.01755326 -0.00371930
H 2.45997096 8.17017100 24.41347514 -0.00467583 -0.00233941 -0.00030967
H 0.69600773 3.15048433 28.98613933 0.01067481 0.01009175 -0.00833128
H -3.59031136 1.38136503 35.29206866 0.00074182 0.00208248 -0.00421848
H -2.11877791 6.38370705 30.24907008 -0.00647581 -0.00558517 0.00777390
H 0.91005521 6.45964888 34.08181901 0.02337237 -0.00879371 -0.03435809
H 0.71281919 1.61919754 30.78961623 0.01528241 -0.00880278 0.02072125
H -2.04472316 2.94331340 24.92916211 0.00624805 0.00888336 -0.02048911
H -1.88915720 7.91394958 28.33935344 0.00121297 -0.01492963 0.01361566
H -0.49249943 5.21988516 23.43738368 -0.00634945 0.01058837 0.02033658
H -3.32229640 0.47841370 29.92152358 0.01054483 0.01615764 -0.00054094
H -0.60558670 4.39664894 35.60843692 0.00109774 -0.01572862 0.00468133
H 2.05206195 8.93925953 29.60257993 0.01832002 0.00321552 -0.01714826
H -0.41621971 6.81904025 25.33623332 0.01788734 0.01744081 -0.02089949
H -3.23242211 2.18127675 27.92119950 -0.02015416 -0.02382547 -0.03490804
H -0.63168883 2.74707272 33.69460733 -0.01916567 -0.02450412 0.01615786
H 2.03897796 7.20666019 31.04259818 -0.00718997 0.00720467 0.00609725
H 1.79272257 4.69872738 33.26568868 -0.00682401 -0.01279625 0.01924479
H -0.18828720 28.64762252 31.70806904 0.02159915 0.00325404 -0.00820880
H -2.92510267 4.64220636 25.84836774 -0.00351981 0.01494464 -0.01675458
H -0.99953609 9.62658013 27.33362849 0.04177451 0.01200495 0.01172011
H 3.01400640 2.71962732 31.88412979 -0.00449635 -0.00453283 -0.01785971
H -0.75371545 8.18219026 33.10679123 0.00364945 -0.01761564 0.01015545
H 14.99377513 5.91186949 27.94820535 -0.00502617 0.00602684 -0.01665263
H -0.58534468 1.18193999 25.93708894 -0.01336205 -0.00844860 -0.00783480
H -2.85892321 3.70193909 30.98293681 0.01757697 0.02098348 0.00075929
H -2.17185797 7.96545350 34.03370239 -0.00008903 -0.00986579 0.01043938
H 3.13161928 6.64519071 27.41570515 -0.01105578 -0.00452500 -0.01939552
H 1.11904853 1.71739996 25.56279234 0.05791379 0.00293594 0.00330128
H 15.95095848 3.29828023 31.64090254 -0.00278210 -0.00316022 0.03726871
H -1.22767026 9.41958062 34.31098185 -0.02194408 0.02452568 -0.00482978
H 1.31421687 6.43900811 27.75797677 -0.00509888 -0.02198505 -0.01923345
H 0.53014433 0.18156432 25.14486714 -0.00272318 0.00749720 -0.01451574
H 0.06137387 18.65700878 2.57941109 0.01608591 0.00839572 0.01717901
H 2.92926232 13.84330233 3.10939848 -0.03936261 -0.01170281 -0.01536758
H 5.24861533 10.29771822 9.36798262 -0.01477759 0.00722277 -0.00204149
H 2.74280488 15.29269944 8.65513870 0.03063134 0.00671154 -0.00674715
H 5.55156846 17.82955906 0.64156499 -0.01574863 0.01634547 -0.04423792
H 3.96119103 13.00544217 5.37672449 -0.02088441 0.00540035 0.01956306
H -0.46024625 10.82900568 10.75239805 0.01367980 0.01873391 0.00913429
H 1.56408637 15.81969890 6.54693927 0.01825677 0.00569578 0.00296245
H 3.97102726 16.22042244 10.81011784 0.01561132 0.02032142 0.01891544
H 3.81993191 11.52398308 7.24219617 0.00243285 -0.01018515 0.00315812
H 1.23183945 12.02530830 1.08527038 -0.01875441 0.00523475 -0.00700670
H 1.35563030 17.41434699 4.83789011 0.02174659 -0.00839902 0.01438737
H -2.02883884 15.04489359 35.29962165 0.02072179 -0.00244407 0.01423825
H -0.08078296 10.21769018 6.06488483 -0.00484076 0.02331048 0.01351489
H 2.59081071 13.85311838 12.22701370 0.01649141 0.00984753 0.00546981
H 5.18682381 19.08220509 5.80525647 -0.00645815 -0.01995351 -0.01361492
H 2.90853062 16.66665591 1.63387060 0.02876942 -0.01088072 0.00372070
H 0.10764290 11.70887822 4.24575087 -0.00139413 -0.02416738 -0.01547084
H 2.58340509 12.19512352 10.31726861 0.03606456 0.00842752 0.00358071
H 5.60588502 16.83018671 7.33660295 0.02606010 -0.00302151 0.00637694
H 4.94246949 14.35922862 9.76002969 -0.01145172 -0.00802513 0.00656238
H 2.92111844 9.58929055 8.21038829 0.00523877 0.01464349 0.00618543
H 0.58248133 14.17188995 2.07401136 0.01029318 0.00290349 -0.01303409
H 2.14222995 19.36493147 3.92854130 0.07045764 0.00499483 -0.01226153
H 5.68290180 13.05907407 8.28074678 -0.01344771 -0.00576458 0.00652075
H 0.60245175 18.16507868 10.52065287 0.01003891 -0.00169359 -0.00223985
H 18.95023887 14.93306135 4.53805323 -0.02228971 -0.01180305 0.01244916
H 4.28394953 10.75722270 1.21078159 -0.00234009 -0.00073681 -0.02251876
H 0.88607287 13.55309632 7.55781732 0.01852757 -0.00440913 0.00988267
H 2.28372824 18.09524627 10.00072826 0.02795529 0.00184886 0.00216799
H 5.56239981 16.55425820 3.42761264 0.01547719 0.00608506 0.01169750
H 2.76365317 11.24585522 2.17760250 0.03005410 0.01738425 0.00106598
H -0.74792493 13.15689086 8.30219311 0.01812892 -0.00811017 -0.01393864
H 1.08997467 17.03803460 9.32713665 -0.02652954 -0.01642318 0.00380353
H 4.62232352 15.41127596 4.15875544 0.00985797 -0.00617197 -0.01916699
H 4.49723155 11.98187685 2.41335513 -0.01667557 -0.01592830 0.02055409
H -1.80738623 18.45485932 14.85434749 0.00834884 0.01265178 0.01641232
H 1.20180545 13.88395036 15.20922227 -0.02726193 0.00065778 0.00654630
H 3.68435905 10.69853334 21.00492627 -0.00052913 -0.00249040 -0.02165930
H 1.22661688 15.35915395 20.89319855 0.00805408 -0.01263607 -0.01416747
H 3.92658526 17.87602993 12.79377845 -0.01066543 0.01481089 -0.01419401
H 2.46316102 12.80332699 16.99553444 -0.02821907 0.02259537 0.01157939
H -1.70010026 10.92714788 23.04064313 -0.00117635 0.02005438 0.01034308
H 0.08477959 15.69163649 18.84859808 -0.00523714 -0.00615487 0.02711062
H 2.65447512 16.39055307 22.70258287 0.00986015 0.00179857 -0.01018349
H 2.39041927 11.42448122 18.90179208 0.01295401 0.00959012 -0.00844059
H -0.19408939 12.50342995 12.65762793 0.00664594 -0.00467381 0.03680713
H -0.22777762 17.23110014 17.16416590 0.00254463 -0.00188867 0.01027513
H 1.20816337 14.77369331 12.23356317 -0.00189849 -0.00548528 -0.00095436
H -1.57879642 10.05938655 17.98475987 0.01438268 0.00759478 -0.00940021
H 0.86945382 14.07752729 24.08197736 -0.01077598 -0.00056685 -0.02575066
H 3.74605044 18.93292025 17.87516482 0.00353656 -0.00528812 0.01530357
H 0.96979302 16.46699084 14.09589332 -0.02364349 -0.01143278 -0.00413356
H -1.65139216 11.85086913 16.25612105 0.01249601 0.00353028 -0.00114800
H 0.79943076 12.54580280 22.10272464 0.00371206 0.00654413 -0.01351053
H 4.04427335 17.44952100 19.72183833 0.00515759 -0.00022751 -0.00895116
H 3.51453780 14.63268106 21.81953058 0.01036477 0.00199960 -0.02023492
H 1.50751818 9.71666276 20.25359141 0.00640563 -0.01159065 0.01676046
H -1.13866464 13.94398818 14.09311339 -0.01698829 0.01074880 -0.01686691
H 0.67894355 18.92977828 15.75651849 0.04100555 0.01664198 -0.00632279
H 5.75350151 12.47730962 20.31017337 0.00143180 0.00319950 -0.00528191
H -0.89490453 17.18777841 21.46151429 -0.00642450 -0.01392216 -0.00832999
H -1.61242439 15.30748961 15.79244553 -0.01066387 0.00092288 0.00612894
H 1.99480859 9.94294533 13.18578808 0.03210822 0.00003180 0.00368334
H -1.04754694 13.71526021 19.19846253 -0.00998611 -0.02248137 0.01675863
H -1.01917334 18.59676386 22.58055758 0.01944639 -0.00374438 -0.02175885
H 4.13045202 14.91148380 16.89694458 0.01896185 -0.01673274 0.02670039
H 1.98722923 11.50870261 14.09176266 -0.01602770 0.00675558 0.02416937
H 17.80835184 13.29595336 19.84208309 -0.00436000 -0.01063222 -0.00289351
H 0.66593726 17.96562253 22.07027470 0.03869412 -0.00007201 0.01337158
H 4.89615823 16.03781287 15.71739089 0.01762556 -0.00236986 0.00210050
H 3.58298741 10.63679110 13.42598771 -0.00859079 -0.00430652 0.03197261
H -3.37679400 18.32003611 26.70011211 0.00253361 0.02431742 -0.00377399
H -0.51432432 13.79304517 27.00951821 0.00521415 0.00515212 -0.01247467
H 2.19576365 10.21410751 32.76120624 0.00354099 -0.01434282 -0.04160615
H -0.52597361 15.05666198 32.33278644 0.02366143 -0.00683229 -0.00381900
H 2.69070024 17.99863185 24.65772343 -0.00211094 -0.01682149 -0.01607204
H 0.72839181 12.57019232 28.59566348 -0.00624258 0.01422625 0.00479022
H -3.61491876 10.50704458 34.84402228 -0.01697554 0.00674388 -0.02013616
H -1.55836243 15.79901596 30.38829737 -0.02454634 0.00672543 0.03607908
H 1.00720125 16.49137248 34.38738022 -0.01160405 -0.01302125 -0.00362875
H 0.52450174 11.27148000 30.75468907 0.00159875 -0.00473313 -0.00116320
H -1.79371879 12.72976044 24.83462338 0.01300587 -0.00857652 -0.01382164
H -1.65583852 17.47536229 28.59176531 -0.00612645 0.00248300 0.00375409
H -0.43625861 14.98115111 23.58550283 -0.00171225 -0.02376436 -0.00693701
H -3.50992827 10.16353375 29.78351858 0.00874990 -0.00175301 -0.00106639
H -0.58353072 13.88650552 35.49675900 0.00489310 0.01708919 0.00503812
H 2.31826268 18.78351258 29.61630227 0.00616163 -0.00849809 -0.00134875
H -0.28378954 16.92719497 25.31526176 -0.02264786 -0.02863183 0.02858848
H -3.28885747 11.65315776 27.84571330 0.00174090 -0.00075234 -0.00893580
H -0.51178010 12.42888779 33.50939149 -0.03510893 -0.00901531 -0.00810367