2160
Time=47000.00000003 pbc="T T T" Lattice="20.66246562 0.00000000 0.00000000 0.00000000 29.21475645 0.00000000 -4.71834574 0.00000000 35.39905093" energy=-13796.25577271 virial="-86.01256111 -1.32453417 70.11389496 -1.32453417 -68.91386147 0.87835060 70.11389496 0.87835060 -56.64778127" stress="-0.00160708 0.00003070 0.00334937 0.00003070 -0.00071963 0.00003329 0.00334937 0.00003329 -0.00022219" Properties=species:S:1:pos:R:3:vel:R:3
O 0.71705839 8.77288850 2.39408697 0.00383594 0.00033989 -0.00403586
O 2.05310614 3.73240197 3.56442368 -0.00419215 -0.00047711 -0.00660040
O 4.49063245 1.06604044 9.46123310 -0.00066733 -0.00743814 0.00259622
O 3.44523729 6.07676925 8.10550150 0.00436932 0.00064760 0.00117090
O 1.27468169 5.52485683 9.16726417 0.00289825 0.00228379 -0.00240588
O -0.26918904 10.03658502 8.31899036 0.00398499 0.00002539 0.00051715
O 4.15860599 4.45892004 2.26241338 -0.00154985 0.00051206 0.00082401
O 5.38353186 28.66318273 3.72973945 0.00219319 0.00475133 0.00122763
O -0.80916214 8.88024869 14.09519104 0.00250724 -0.00080248 0.00084154
O 0.45809646 3.27436701 14.97222141 -0.00019787 -0.00048931 0.00206478
O 3.12579792 1.30229344 21.16131567 0.00085406 0.00408157 -0.00177673
O 1.87230161 5.81609687 20.20611626 -0.00049811 -0.00323664 0.00295710
O -0.25673215 4.77282284 21.36861909 -0.00097494 0.00486206 0.00339540
O -1.63878740 9.87712544 20.00333698 0.00105500 0.00074607 -0.00155344
O 2.52516914 4.63244253 14.42877320 -0.00015097 -0.00247031 0.00074442
O 3.93461248 29.21035593 15.43653172 -0.00169434 -0.00425774 0.00176165
O -2.26389364 8.54426544 26.05596604 0.00012123 0.00045717 -0.00143073
O -1.07956462 3.68664413 27.13848214 -0.00507524 -0.00735652 0.00322446
O 1.66473392 1.36245374 32.77033389 -0.00235306 0.00422897 0.00526159
O 0.18708862 6.07230151 32.08956129 0.00544258 -0.00254895 0.00323318
O -1.70065139 4.82451714 33.41895999 -0.00860903 -0.00342979 0.00103414
O -3.22589012 9.61239603 31.82062033 -0.01136619 0.00226297 -0.00322352
O 0.91762178 4.72880829 25.93535134 0.00549845 0.00306073 0.00949263
O 2.51884533 29.09319497 27.44463416 0.00165897 -0.00414248 0.00368659
O 0.74451328 18.37279896 2.28233989 0.00233308 -0.00110314 0.00015300
O 1.92420402 13.59423918 3.33832567 0.00256043 0.00783758 0.00739077
O 4.41661024 10.83231616 9.70562223 -0.00528363 0.00722064 0.00422142
O 3.48003450 15.83981734 8.25974548 -0.00437831 -0.00048917 0.00644977
O 1.54798520 14.90081231 9.84548214 0.00148219 0.00397693 -0.00236661
O -0.28210833 19.34832344 7.86862378 -0.00272534 0.00729117 -0.00209714
O 3.95441034 14.53496942 2.01893288 -0.00192098 0.00716301 -0.00049325
O 5.66831342 9.97558422 3.46356952 -0.00192673 0.00198379 -0.00793669
O -0.77580347 18.57048664 14.25482440 -0.00211153 0.00214681 -0.00316607
O 0.24868284 13.35214901 15.34749277 0.00218017 0.00011258 0.00259382
O 2.89287512 10.61533778 21.69671179 0.00667541 -0.00181869 -0.00019433
O 1.94305060 15.56372954 20.10898364 -0.00230524 -0.00262111 -0.00164469
O -0.09883749 14.35515605 21.32703059 0.00161325 -0.00222086 -0.00323342
O -1.83738017 19.48094602 20.13954386 0.00203367 0.00284215 -0.00013302
O 2.25943763 14.70256894 14.11709307 -0.00564722 -0.00223022 0.00360550
O 4.07229926 9.70333295 15.66451218 0.00441769 -0.00060775 0.00178592
O -2.51692080 18.17665206 25.91472790 -0.00155892 0.00935102 -0.00790219
O -1.35751268 13.37218380 27.01089135 0.00357628 -0.00765644 0.00745622
O 1.76149110 10.69551309 33.11159211 0.00404943 0.00888927 0.00062050
O 0.36001191 15.36868268 31.50324847 0.00672814 0.00328625 0.00161325
O -1.67698658 14.66887377 32.80172402 -0.00002659 -0.00429553 0.00179175
O -3.50058012 19.58270435 31.43105227 -0.00647222 -0.00314253 0.00318811
O 0.92130034 14.68188662 26.40278062 0.00033655 0.00080978 0.00462649
O 2.45385656 9.77747803 27.38840797 -0.00197891 0.00171721 -0.00261546
O 0.42946175 27.84169786 2.37435119 -0.00789243 -0.00411610 0.00249288
O 1.66346965 23.70627098 3.74436945 0.00846632 0.00728796 -0.00388345
O 4.52809325 20.46586060 8.96293856 0.00056444 0.00369393 0.00096529
O 2.96736758 25.71770065 8.56846395 0.00004999 0.00051662 0.00028865
O 1.14018473 24.05916812 9.38634555 0.00197412 -0.00122818 -0.00125390
O -0.38353496 29.09002813 8.06121181 0.00337443 -0.00123831 0.00087029
O 3.84305044 24.19873206 2.21284524 0.00797711 -0.00153200 0.00086918
O 5.28810812 18.92900325 2.98680967 -0.00455554 -0.00238052 -0.00050634
O -0.82489139 27.65924794 14.07836693 0.00016010 0.00570213 -0.00177009
O 0.17216038 23.11610490 15.20878405 0.00145424 0.00065007 0.00154340
O 2.77589080 20.61195958 21.46894423 0.01139515 -0.00382339 0.00105873
O 1.76752975 25.40618023 20.05870181 -0.00925517 0.00054602 0.00385941
O -0.17074635 24.46154208 21.38621417 0.00390046 -0.00125667 0.00008200
O -1.71816338 0.23953387 20.11690613 -0.00093318 -0.00140307 0.00431319
O 2.27116118 24.16104026 13.59735529 -0.00084653 0.00168739 -0.00343211
O 3.78452977 19.19616990 15.31935801 -0.00103919 0.00034636 0.00125821
O -2.34656787 28.19385511 26.14510294 0.00004706 0.00183567 -0.00136749
O -1.10266684 23.61158398 26.99404654 -0.00335650 0.00053624 0.00658353
O 1.46477279 20.69518024 32.57934580 0.00034564 -0.00719294 -0.00372424
O 0.20029818 25.63617595 32.07303970 -0.00401643 -0.00305717 0.00258292
O -1.77112370 24.12966404 33.28417315 0.00427324 -0.00291178 0.00187125
O -3.59201462 0.15322229 31.95106139 -0.00068051 -0.00319664 -0.00272049
O 0.89681895 24.66439058 25.64651710 -0.00155563 -0.00197224 -0.00115335
O 2.36828881 19.34043930 27.23657335 -0.00106455 0.00079409 0.00587125
O 7.81964697 8.69033537 2.57282030 0.00068255 0.00134848 -0.00013000
O 8.81299163 3.78335691 3.53249193 -0.00575376 0.00049330 -0.00426662
O 11.24506281 1.21336608 9.59442227 0.00070779 0.00422677 -0.00509111
O 10.44084518 5.87266662 8.33460109 0.00030119 -0.00340753 0.00394844
O 8.18861452 4.92567344 9.32063520 -0.00220843 -0.00361534 -0.00272230
O 6.51458212 9.94283624 8.24687220 0.00801672 0.00091149 -0.00529748
O 11.07635040 4.58661737 2.60885204 -0.00168447 0.00265310 0.00010579
O 12.13091719 29.09102389 3.73041556 0.00208095 0.00204805 0.00254594
O 6.05925221 8.49164993 14.30758706 -0.00405540 0.00517187 0.00028545
O 7.30699707 3.55651546 14.96594728 -0.00173691 -0.00324740 0.00159789
O 10.19025816 1.50475183 20.75600184 -0.00309529 0.00216922 0.00826507
O 8.58192908 6.15537052 20.49650591 0.00148402 -0.00058203 -0.00632456
O 6.54695782 4.76163352 21.74738962 -0.00318435 0.00111998 -0.00051653
O 5.06389816 10.22535572 20.18400133 0.00996466 0.00416492 0.00161494
O 9.46055485 4.85108562 14.39253591 0.00006253 -0.00050386 0.00452161
O 10.67358503 28.83729794 15.01822051 -0.00457880 -0.00400513 -0.00287859
O 4.34013952 8.70132121 26.06424167 0.00101771 0.00246314 -0.00642168
O 5.81189934 3.91682016 27.26358687 0.00596358 0.00302141 0.00458563
O 8.33136037 1.18674047 33.34733375 -0.00259053 -0.00125723 0.00226028
O 7.22511899 5.96753676 31.62130144 -0.00662427 0.00123208 0.00683066
O 5.04337408 5.33858958 33.02848083 -0.00243553 -0.00020590 -0.00301448
O 3.76477054 9.43954290 31.64798735 -0.00315054 0.00238419 -0.00139505
O 7.94592933 4.82951952 25.92490770 -0.00898279 -0.00933548 -0.00104780
O 9.37124711 0.09305464 27.23757144 -0.00439420 -0.00761791 -0.00318166
O 7.69772880 18.30510241 2.17992490 0.00563685 0.00731372 -0.00550828
O 8.77312695 13.59759927 3.77789487 0.00062854 0.00204064 0.00326007
O 11.61510086 10.75620338 9.52150895 0.00299280 0.00924403 0.00069164
O 10.14084845 15.93850477 8.53190630 0.00146034 -0.00490585 -0.00616111
O 7.97718596 14.74911567 9.21604124 0.00382539 -0.00004266 0.00272944
O 6.51809033 19.39341451 7.89727252 0.00480218 -0.00151921 -0.00100605
O 11.09543026 14.52912469 2.59344575 0.00009135 0.00065767 -0.00380942
O 12.60802052 9.70557775 3.68643722 -0.00017978 -0.00151823 -0.00396234
O 5.87091764 18.40976503 14.12925677 -0.00318254 0.00248945 0.00450664
O 7.22211395 13.36755387 15.06554057 -0.00202750 -0.00058707 -0.00062415
O 9.94333263 10.47274875 21.27662477 -0.00500905 -0.00139986 -0.00427250
O 8.74608026 15.41307224 20.08408455 -0.00217308 -0.00498564 -0.00406482
O 6.43997536 14.69533386 21.17058778 0.00031513 0.00027354 -0.01094889
O 4.97775441 19.74743676 20.19688455 0.00528401 0.00279713 -0.00563537
O 9.33546298 14.67787772 14.18573632 -0.00446940 -0.00138424 0.00533356
O 10.96685377 9.66624390 15.61897794 -0.00220472 0.00903556 -0.00143933
O 4.46206904 18.63524402 25.69296460 -0.00211474 -0.00163373 0.00501152
O 5.74560794 13.54908794 27.21305817 0.00252567 0.00072165 -0.00041790
O 8.50344382 10.92244480 33.02617196 -0.00294986 0.00939283 -0.00240312
O 7.16768065 15.92208061 31.82135066 0.00536008 -0.00429819 -0.00017950
O 5.27158191 14.68739110 32.82359443 0.00474151 0.00170048 -0.00439434
O 3.46155384 19.29495937 31.62767319 0.00034317 0.00008126 0.00293087
O 7.87234934 14.60123799 25.62516897 -0.00127444 0.00198804 -0.00181992
O 9.26542553 9.74037957 26.67712483 -0.00109467 0.00096725 -0.00174542
O 7.58550467 28.46331979 2.01079431 0.00525492 -0.00455005 -0.00534544
O 8.89349743 22.46510838 3.03206442 0.00058012 0.00125162 -0.00505117
O 11.45980299 20.30895510 9.45637858 0.00241135 -0.00446464 0.00087247
O 10.01229071 25.52224213 8.29074461 -0.00366322 0.00213383 0.00437750
O 7.84369838 23.97668025 9.58554181 0.00544010 -0.00267050 -0.00540762
O 6.47868052 29.18158469 8.09535320 -0.00173939 -0.00865176 0.00225212
O 10.82590459 24.09916615 2.52701031 -0.00717983 -0.00631277 -0.00240677
O 12.56704743 19.42115750 3.52153942 0.00337423 0.00705346 -0.00183030
O 5.90777484 28.30794893 13.83199177 -0.00025467 -0.00193843 0.00210814
O 7.31778588 22.97079822 15.24433739 -0.00025820 -0.01002761 -0.00113531
O 9.75225709 20.61176925 21.29626974 0.00423640 -0.00384606 -0.00059659
O 8.75211823 25.64923355 20.18092601 -0.00408465 0.00090748 0.00097463
O 6.62479048 24.37732299 21.31091633 -0.00123430 0.00284180 -0.00004077
O 5.15920129 0.52256933 19.94583757 -0.00497541 0.00177190 0.00271419
O 9.51582616 24.70791025 13.81974519 -0.00258174 0.00141176 -0.00215932
O 10.84536014 19.20900790 15.39441589 0.00454456 -0.00497065 0.00062237
O 4.54509786 28.56526409 25.76490081 0.00510268 0.00178143 -0.00132712
O 5.70472688 23.53883487 27.18261773 0.00535232 -0.00477195 0.00061512
O 8.07585850 20.53112078 33.10313945 -0.00062014 -0.00506447 0.00174126
O 6.96803755 25.60091123 31.81915409 0.00135455 0.00232773 -0.00115187
O 5.11191559 24.64047146 33.12575293 -0.00016648 -0.00096106 0.00458738
O 3.57270824 29.21368319 31.60820126 -0.00277458 -0.00032519 0.00719669
O 7.63610833 24.52114361 25.84127637 -0.00103959 -0.00250001 -0.00032632
O 8.99050537 19.39293457 26.81737353 0.00153099 0.00334539 -0.00298373
O 14.43133028 8.79475549 2.39387589 0.00732002 -0.00207517 0.00790428
O 15.71642533 4.00588655 3.88689745 0.00386725 -0.00242180 -0.00245048
O 18.25786418 0.98620954 9.45440912 -0.00181204 -0.00174182 0.00012688
O 17.10496009 5.80319530 7.92043998 -0.00089078 -0.00331333 -0.00173519
O 15.09488226 5.20609168 9.35306171 0.00119344 0.00215142 0.00732560
O 13.61015857 9.72651831 8.12873728 0.00113778 0.00488275 0.01036402
O 17.99548647 4.75987860 2.71726108 0.00024924 0.00036933 -0.00191418
O 19.09646446 28.93258973 3.42346510 -0.00079969 -0.00003802 -0.01073216
O 12.75727860 8.55836111 14.21950368 -0.00701041 -0.00296864 -0.00284662
O 14.29873942 3.47971264 15.15430304 -0.00010047 -0.00241243 -0.00654756
O 16.86163793 1.16648086 21.28926680 0.00398789 0.00008756 0.00130239
O 15.78765722 5.80734408 20.13793560 0.00577642 -0.00781347 -0.00722794
O 13.66213985 4.84925059 21.42860793 -0.00564103 -0.00104812 -0.01495752
O 12.25365210 9.76124133 20.41207212 -0.00279913 -0.00130610 -0.00699060
O 16.25622598 4.76046573 13.96613466 0.00086582 0.00364649 0.00275782
O 17.55754697 28.45200010 15.07171780 -0.00724953 0.00288244 -0.00128265
O 11.56016427 8.65912963 26.07043894 0.00239473 0.00082416 -0.00069313
O 12.85747775 3.99854514 27.51917706 -0.00151035 0.00147516 0.00072876
O 15.09004998 0.88813683 33.58865765 -0.00100458 0.00419269 0.00225089
O 14.23657225 5.97682640 31.85719335 -0.00032298 -0.00565830 0.00007355
O 12.29827974 5.08344211 33.44563211 0.00493476 0.00688428 -0.00270778
O 10.49124012 9.74412269 31.67219770 0.00222832 0.00064319 -0.00009830
O 14.66223789 5.02541163 25.97490367 -0.00215232 0.00164880 0.00288215
O 16.06951977 29.13315844 27.21150788 -0.00298436 0.00413684 0.00283032
O 14.63391819 18.17009708 2.53900585 -0.00087988 0.00085239 -0.00199804
O 15.65600188 13.55523152 3.57850967 0.00095642 -0.00205380 -0.00149961
O 18.26434151 10.70358967 9.43819641 0.00501889 0.00123763 0.00090534
O 16.86028657 15.93781956 8.68737068 0.00107318 -0.00129895 0.00520338
O 14.92192155 14.28514375 9.69797101 -0.00453836 -0.00054938 0.00421855
O 13.39265760 19.62435127 8.05042864 0.00254038 -0.00516146 0.00187354
O 17.75230282 14.47651599 2.39401925 0.01220583 0.00521748 0.00300697
O 19.28170992 9.73501259 3.48954611 -0.00066933 0.00010751 0.00593125
O 13.04187988 18.01590196 14.36006177 -0.00737049 0.00717272 -0.00240496
O 14.10038997 13.32402095 15.31588707 0.00544093 0.00201168 -0.00242603
O 16.93373669 10.83461165 21.18231126 -0.00604652 0.00598732 -0.00066110
O 15.48717917 15.65254097 20.45913841 -0.00311665 -0.00088025 -0.00247120
O 13.51422757 14.38127652 21.67990756 0.00029394 -0.00315735 0.00495102
O 11.87263319 19.65403819 20.01349945 -0.00080872 -0.00152224 -0.00052371
O 16.18688046 14.54467374 14.05395881 0.00172840 -0.00259441 0.00237463
O 17.73401893 9.67389246 15.50369703 -0.00357531 0.00616554 0.00347743
O 11.29993763 18.48720038 25.85823450 -0.00139959 -0.00201296 0.00492444
O 12.74122850 13.29837674 26.83170992 -0.00300851 -0.00131960 0.00552414
O 15.59900581 11.11947369 32.80456371 -0.00642441 -0.00505800 -0.00490565
O 14.16177076 15.71193980 31.75875271 -0.00161896 -0.00363952 0.00166235
O 12.11637465 14.52262592 33.19781428 -0.00041597 -0.00501913 -0.00303163
O 10.34611672 19.85625969 31.71112604 0.00434489 0.00363100 0.00590439
O 14.77756579 14.92586413 25.76838505 -0.00078301 -0.00301826 0.00222649
O 16.35392010 9.69050534 27.18387525 -0.00056284 -0.00467048 -0.00218708
O 14.22709760 28.29514500 2.23871530 0.00361488 0.00128372 -0.00603846
O 15.78028839 23.17534397 3.51045801 0.00730125 0.00391242 0.00207162
O 18.38383677 20.43579934 9.34133127 0.00356722 0.00142350 -0.00156312
O 16.87500643 25.41039546 8.13442461 0.00152449 -0.00702857 -0.00064582
O 14.86534166 24.36646337 9.35730385 -0.00193770 -0.00099326 0.00112405
O 13.46371132 0.24488678 8.61714532 0.00180345 0.00396179 -0.00076742
O 17.85188287 24.15140767 2.15800832 0.00794103 0.00302287 -0.00679154
O 19.27518161 19.39832068 3.74521833 0.00199975 0.00537035 0.00237817
O 12.82065063 28.00372138 13.85644694 -0.00444221 0.00069919 -0.00391470
O 14.08176922 22.88076388 15.01073492 0.00306924 -0.00318508 0.00389874
O 16.55049997 20.19851196 21.42689089 -0.00126929 -0.00281651 -0.00095186
O 15.40295896 25.47732683 20.28166764 0.00189925 -0.00092055 -0.00053977
O 13.44610900 24.24945098 21.30457120 -0.00257775 0.00393777 0.00471338
O 12.17334290 0.12727586 20.19174007 0.00346567 0.00166547 0.00412261
O 15.92855001 24.41329093 13.97351320 0.00034898 0.00300967 0.00250027
O 17.73406107 19.19633596 15.65461756 -0.00293550 0.00333778 -0.00523404
O 11.30398820 28.23375645 25.83622875 0.00319868 0.00472457 -0.00491082
O 12.49341922 23.51980624 27.01584624 0.00311991 -0.00123407 0.00118842
O 15.23279904 20.69731741 32.70552576 -0.00234520 0.00061401 0.00397360
O 13.85117923 25.41636050 31.73563351 -0.00124464 -0.00884372 0.00294478
O 11.77204136 24.36675578 33.03544665 -0.00138805 0.00336597 -0.00374910
O 10.58855500 0.16363082 32.32860234 -0.00443791 0.00739806 -0.00005021
O 14.70917583 24.42043317 25.68973303 -0.00047436 0.00035083 0.00041583
O 16.11423542 19.57033288 27.04664340 0.00239284 0.00259779 0.00076835
H -0.17111222 9.27918797 2.63203656 0.00373890 0.01012997 0.00503657
H 3.03006101 4.19820655 3.32201868 0.02754911 -0.00372580 0.02225052
H 5.42041979 0.83321467 9.30442186 -0.00905844 0.00040839 -0.00916680
H 2.58105706 5.84948309 8.54667888 0.00001949 -0.03854075 0.00708923
H 5.82460346 8.44282763 0.98382718 -0.00899352 -0.01367187 0.01428501
H 3.69154218 3.46572445 5.45370613 -0.00392040 -0.01951263 0.00456814
H -0.28895214 1.50528271 10.88920170 0.00079914 0.01206303 0.00266969
H 1.49091661 6.58457113 6.53873149 -0.00984620 -0.00354971 -0.01717888
H 3.99657577 6.74029837 10.77094677 0.01164388 -0.00701853 0.00997064
H 3.52375572 2.16232801 7.54795136 -0.00572718 0.00826137 0.00757387
H 1.43890187 3.18028060 1.44286253 -0.02130615 0.00031374 0.00040406
H 1.61073972 7.87858827 4.37752089 0.00504341 0.00682657 0.02133373
H -1.87693066 5.80308025 35.28830754 -0.02475452 0.00877438 0.01106868
H -0.16530919 0.65585537 6.20670620 0.01284803 -0.00707356 -0.02021234
H 2.36860987 4.14953392 11.95290749 -0.02712441 0.00084869 -0.01223369
H 5.24742806 9.52457816 5.85597627 -0.02040929 -0.01859133 -0.00445994
H 2.76911553 7.56767335 1.52407355 0.01835621 0.02434531 -0.00624678
H -0.03661626 1.89687180 4.08599840 0.02013907 -0.00163007 0.00089997
H 2.56392595 2.70447965 9.99732645 -0.01942680 0.00378913 0.00246836
H 5.35615272 7.79063375 7.46323346 0.00329902 -0.01807851 -0.01503205
H 5.08595699 5.06784117 9.42648769 -0.01870567 -0.00499468 -0.00278241
H 2.80143242 0.24049798 8.48100878 -0.00131543 -0.01380292 0.00581744
H 0.53116504 4.85288236 2.57580077 -0.01699370 -0.01202646 -0.01575278
H 2.55116774 9.87385601 3.53828636 -0.01442101 -0.02428534 -0.02265709
H 7.00247916 4.36107217 7.06035713 0.02848862 0.00191317 -0.01215688
H 1.13200883 9.43581889 10.51761432 0.02680687 -0.00049836 0.00533778
H 19.65087248 7.06713406 3.48225141 -0.01741199 -0.01021939 -0.00544632
H 3.68945608 1.68131900 2.42756509 -0.01349792 0.00689788 0.00548637
H 0.72200174 2.95474750 8.21698335 -0.02476278 -0.01180893 0.02209846
H 2.27339642 8.47560821 9.62988592 -0.01328870 -0.00514302 0.01222417
H 6.43162530 6.14250117 3.92308472 -0.04064284 0.01427917 -0.02158586
H 5.08889436 0.97517232 1.62796431 -0.00196400 0.00690295 -0.00999059
H 0.06597968 4.12371008 7.20015278 -0.01591648 -0.01691957 0.00039846
H 0.66862991 7.90452607 9.51584450 -0.01020422 0.00806359 0.01332383
H 5.00817016 6.95312974 3.38610431 0.00339334 0.02550727 0.00635435
H 3.54663248 0.20011626 1.34734082 -0.00018618 -0.00041048 -0.02066260
H -1.76826009 9.06697491 14.48364518 -0.01038154 0.01820463 0.00349021
H 1.21275317 3.90730555 14.78598116 -0.00939971 -0.00393641 -0.00604188
H 4.07792139 1.05617294 20.81503294 0.01680462 -0.03563845 -0.00713867
H 0.95233349 5.49816388 20.45539385 0.02131718 0.01455831 0.01364366
H 4.21858241 8.57930426 12.45941031 -0.01043400 0.01711542 0.01947961
H 2.11822121 3.46567288 16.91314384 0.01754904 -0.02124615 -0.02510995
H -1.80436887 1.50200208 23.04147199 -0.02067053 0.00377222 0.00124554
H -0.37480235 6.35109582 18.61221165 -0.00282467 -0.00878776 0.00473781
H 2.46612729 6.86843068 22.29460057 -0.01931517 -0.00016923 0.00540365
H 2.32619704 1.94308238 18.68743746 -0.00134991 0.00825624 0.01250677
H -0.30409302 3.20273464 12.73982927 -0.01930930 0.00691112 -0.02067042
H -0.18959687 7.83380107 16.73158042 -0.01880830 -0.02238222 0.01632081
H 1.30639304 5.88869088 11.31885451 -0.01868357 -0.00128648 -0.00505600
H -1.68722777 0.41273075 17.84475921 0.01658951 -0.00339930 -0.00156542
H 1.12835299 4.62549501 23.49405297 -0.01359678 -0.01194585 -0.00907384
H 3.82227584 9.12663171 17.88829570 -0.01751139 -0.00344704 -0.02329082
H 1.12673627 7.03962591 13.49561089 -0.02391406 -0.01246146 0.01319841
H -1.59780540 1.73238640 15.66330226 -0.01265722 -0.01521998 0.00929878
H 1.16495574 2.77585899 21.85005922 -0.01341132 0.01137874 -0.00240568
H 3.60309483 7.54499353 19.81631505 0.00835877 -0.00613231 -0.01844525
H 3.37148812 5.16793256 21.29220435 0.01787555 0.02061622 0.03119783
H 1.39015839 0.06942508 19.86807387 0.01463506 -0.04366135 0.00194647
H -1.27323799 4.91859886 13.74164824 0.00902006 0.00369191 0.01497704
H 0.98338022 9.20848826 15.40862703 -0.00035946 0.01193335 -0.00731350
H 4.49989538 3.32639049 19.72384402 -0.01285566 0.00805032 -0.02580060
H -1.04465930 7.58343138 21.58307956 0.00654767 0.02083187 -0.01089028
H -1.90615282 6.65550970 14.83313853 -0.01341692 0.00367189 -0.00232530
H 1.38785282 1.36842948 13.91315712 -0.01623031 0.01841007 0.03094263
H 17.82521608 3.78213581 19.68847387 -0.01522836 0.02152329 -0.02506894
H -0.07082792 8.83294720 22.37629055 0.00602203 0.02786900 0.02360755
H 3.13998019 6.15979570 16.33750582 -0.01453950 -0.01289682 0.00987866
H 2.74375203 2.23310932 14.75446626 0.00804833 -0.00056170 0.00359155
H -2.02147911 2.49597428 20.54970845 -0.02381235 -0.00441025 -0.00639587
H 0.64165905 7.84796341 21.09030880 -0.01950097 0.01771203 -0.01319031
H 4.68026093 5.26440358 16.35884150 -0.02157980 -0.00608992 0.00048716
H 3.03568806 1.41869813 13.29901296 0.01862706 -0.00892715 0.00111044
H -3.04906892 9.13831696 26.21215707 -0.00944077 0.01668338 0.00274931
H -0.26314854 4.15719769 26.80287707 0.01022657 -0.00885277 0.00466800
H 2.51438910 0.93758381 32.50723054 0.00162625 0.01506613 -0.02148808
H -0.68719334 5.53193496 32.37016840 -0.00573702 0.00260801 -0.01003910
H 2.39840212 8.47221656 24.32433810 0.01948162 0.02688840 0.01582811
H 0.78088216 3.38968473 28.81065201 -0.00969758 0.01619917 0.00453814
H -3.43360721 1.38693161 35.26735703 -0.00197981 0.02036679 0.01437550
H -1.87110404 6.58157284 30.61912740 0.00571018 0.00964192 -0.00782011
H 0.98301738 6.85246903 34.40620007 -0.00705532 -0.01597962 -0.00155103
H 0.65037673 1.91695728 30.76408661 0.00885897 0.00882863 0.00103471
H -1.93792653 3.16152599 24.90900738 -0.01722717 -0.01977414 -0.02132837
H -1.87738248 7.84983032 28.54617416 -0.00094246 -0.01040367 0.00521638
H -0.28251985 5.57325738 23.26740905 0.02094616 -0.00605776 0.02022339
H -3.40372368 0.72073674 29.73863928 -0.00813327 -0.02127843 0.00036584
H 4.19759876 4.03259980 0.20027463 -0.02620179 -0.00990190 -0.02527999
H 2.22017109 8.86839295 29.35536893 0.00896868 -0.01328010 -0.01156961
H -0.22267881 7.25841036 25.17750336 0.02614405 -0.00513872 -0.04177389
H -3.18959135 2.29048290 27.70765841 0.01091588 0.00063096 -0.01725675
H -0.49605957 2.72356185 33.68386792 0.02097851 0.01577910 0.01576317
H 2.31387756 7.23575478 31.13142500 -0.00616270 -0.03719441 0.00773359
H 1.92062894 4.85752647 33.29086945 0.00729018 -0.02252034 0.01292463
H -0.43423598 0.29416995 31.91591203 0.01974386 -0.00401585 -0.02090679
H -2.86392131 4.91508735 25.90067278 -0.02580807 -0.02187717 0.01918666
H -0.70993388 9.43094597 27.20632081 0.03386879 0.00074876 0.02021754
H 2.82489537 3.99821824 31.07872851 0.00861084 -0.02301810 0.01962168
H -0.78773945 8.00004229 33.05987354 0.00422186 -0.01818627 0.00036951
H 16.75028875 6.69699688 27.43031931 -0.00258322 0.00758303 0.01975458
H 1.73196246 0.78133153 25.17917031 0.00857856 -0.00111702 -0.04708585
H -3.31553855 2.58882971 32.16371078 0.00794880 0.03669685 0.00432813
H -2.38517611 8.14594683 33.69043113 0.01459400 -0.02095688 -0.00357499
H 2.65273640 7.10517853 26.86216066 -0.04090687 -0.00522620 -0.01052701
H 0.16100324 1.44331155 25.74494389 -0.00278213 0.02730773 0.01797477
H -2.16901097 3.71422220 31.14855975 0.00481691 0.05082291 -0.00380804
H -1.16835895 9.39790088 34.10191457 -0.01603840 -0.00250134 -0.02569640
H 1.55407462 6.16429356 28.00123412 0.02779844 -0.03249492 0.01174268
H 1.72952895 2.15990909 26.14281889 -0.00792204 0.00696190 -0.03004900
H -0.10646025 18.76651360 2.51342228 -0.00983471 0.00962529 -0.03273873
H 2.76504328 14.10938538 3.14337386 -0.00703365 -0.00746920 -0.00598109
H 5.21649768 10.61769110 9.19229269 -0.00648905 0.00491560 0.00519426
H 2.63344452 15.45442430 8.47738090 0.03017141 -0.01477472 -0.00897833
H 5.91314738 18.07404864 0.28609917 0.00558529 -0.00900585 0.01990477
H 3.99247325 13.03234786 4.92240152 -0.01617614 0.00795235 -0.01176210
H -0.32980017 11.02156552 11.10545839 -0.00608677 -0.00645598 0.00045965
H 1.41660649 16.09190346 6.54915051 0.01951610 0.01060329 0.01122032
H 4.04993778 16.47517761 10.53366228 0.00327400 -0.00584390 -0.01630175
H 3.81986581 11.58534381 6.98644401 -0.00422322 0.01445779 -0.02996106
H 1.21018934 12.96781785 1.29439675 -0.01059162 -0.00213438 0.01012986
H 1.48168571 17.37715125 4.54407373 -0.00124315 0.03407837 -0.02187336
H -1.92199705 15.16339159 35.04848347 -0.00619125 -0.00189844 0.00464557
H -0.03999882 10.40170460 5.81989783 0.02289108 0.00082278 0.01026209
H 2.46451340 13.97062542 12.14558793 -0.00279451 -0.02124798 0.00523329
H 5.29141311 18.95486785 5.54476869 -0.03815823 -0.01901491 -0.01578480
H 2.66517359 16.74636075 1.58613971 -0.00638372 0.02875726 -0.00945500
H -0.06991882 12.06463798 3.92719891 0.00869572 -0.01111378 0.01235615
H 2.59371769 12.45641894 10.25834837 -0.02581383 -0.01100629 -0.02197858
H 5.61341223 17.24828206 7.22753104 0.00214092 -0.03791201 0.00598510
H 4.93900819 14.67728074 9.54310089 0.00245755 0.00246648 -0.00253115
H 2.84139467 9.99010440 7.84408973 -0.01411134 -0.00060011 0.02221157
H 0.19688387 14.96177283 2.04469194 -0.00439266 -0.00689509 0.02949613
H 2.32741655 19.38869263 3.42524437 0.05009189 0.00535186 -0.00700407
H 7.01322130 12.58514676 8.06528846 0.00863505 0.01184443 0.01651252
H 2.27092420 17.88256941 9.26453645 -0.02416508 0.00839661 0.00813612
H 18.59500260 17.14575628 3.06133345 0.02272545 -0.00000408 -0.01878656
H 4.20856053 12.09083792 2.32430787 0.00187384 -0.01252167 -0.00208785
H 0.65700702 13.66985092 7.53009496 -0.01151926 0.01311477 -0.00248389
H 0.82683751 16.97851090 8.98937407 -0.01987227 -0.02437005 0.01402761
H 6.07027621 14.90292628 4.25727518 -0.00748778 -0.00100235 0.01787407
H 4.72154449 10.87987073 1.11901076 -0.00476982 0.01253455 0.00049101
H -0.96419558 13.82431603 8.05445871 -0.00026229 0.00400606 -0.00334576
H 0.86265824 18.31908419 10.24119812 0.02573487 -0.01206752 0.00139557
H 5.67583808 16.46783813 3.44628466 -0.01564702 0.01580392 -0.01670475
H 3.06905284 10.70651375 1.93675412 0.00779586 -0.00014956 -0.02028208
H -1.62702237 18.91852913 14.62710148 -0.00082946 -0.01662674 -0.01186052
H 1.03421274 13.86945496 15.02672879 0.02303994 0.00479432 -0.00509904
H 3.77212172 10.39285689 21.27154482 0.02473403 0.01272057 0.00029161
H 1.15075656 15.02790825 20.32752622 -0.00591941 0.00708476 0.01690118
H 3.94258373 18.17244596 12.47349358 -0.00934497 0.02529657 -0.02092051
H 2.34168200 12.98453289 17.01825939 -0.02110295 0.00440603 0.00480407
H -2.15126193 10.73026110 23.14411435 -0.00831864 -0.00192874 -0.00387329
H -0.17308672 16.08967018 18.55101700 -0.00906788 0.00155561 -0.00439832
H 2.34598663 16.23912484 22.66721968 0.01680348 0.00535427 -0.00142513
H 2.37285898 11.44496906 18.85031692 0.00504066 -0.03350268 0.00201552
H -0.42197992 12.77973145 12.91978582 0.00342044 0.01007560 0.01479162
H -0.20128162 17.35009857 16.67379266 0.00494669 0.02021064 0.01922352
H 1.22630320 15.24019922 11.95653045 0.01042776 -0.01098630 -0.00706642
H -1.62579974 10.17201238 17.96353821 -0.01047314 0.01302943 0.00121516
H 1.11688842 14.22978002 24.22563255 0.00013155 0.01947324 -0.01051969
H 3.77023919 18.85532443 17.70071078 0.00222122 0.01322036 -0.00826889
H 1.13741488 16.70456311 14.03124969 0.01005747 -0.01320048 -0.00686780
H -1.54877725 11.75270635 15.98517501 -0.02976330 -0.00304423 0.01260377
H 0.90949174 12.25435583 22.36434927 -0.03500239 -0.00798602 0.02620693
H 3.84943640 17.33930619 19.49045578 -0.01223473 -0.00261630 -0.01155367
H 3.25615688 14.56437117 21.55852956 -0.00675490 -0.00914253 0.02282430
H 1.50408327 9.92440428 20.05706904 -0.00623762 -0.01249253 0.01372658
H -1.31477681 14.32003702 14.13330714 0.00244322 -0.00101598 0.00472131
H 0.71838493 19.02929628 15.35525603 -0.01087614 0.00497706 0.01005635
H 4.76815719 13.55336134 19.14426315 0.02888639 0.00765039 0.00537866
H -0.99143367 18.01423365 22.14062398 -0.02476861 0.02672482 0.01654017
H 17.03848614 15.22749744 16.54842411 -0.04222322 0.02647593 -0.00843231
H 1.48758627 11.29183782 14.38656034 0.00438752 -0.02411969 0.00580027
H -0.88498480 12.17880316 20.10033969 0.02249636 -0.01174249 -0.00235466
H 0.52259410 18.82046398 22.00599881 -0.01256302 -0.02417550 -0.00195120
H 3.19502383 16.74940763 15.57188211 -0.00894566 -0.01404269 0.00904917
H 2.95650191 12.06720256 14.79557109 0.00958202 0.01197313 -0.01835856
H -1.16673748 13.53578513 18.95521440 -0.03492615 -0.00238950 -0.01030545
H 0.08543083 17.29025266 20.99863172 0.00930129 -0.01416601 0.00362294
H 2.83058350 15.28066868 16.55030587 0.01227910 0.00765337 0.01275455
H 2.90374732 10.89473051 13.45413637 0.01819639 -0.00937891 -0.00044211
H -3.34733909 18.77222046 26.11730772 0.00522858 -0.01177312 -0.00579427
H -0.57675179 13.99581573 26.89061173 0.01642473 -0.03065734 -0.01331834
H 2.57733972 10.28071642 32.66377951 -0.00316486 -0.03422389 -0.01874571
H -0.48439371 15.15016239 31.96140049 0.02342948 -0.01039097 0.00682814
H 2.46750616 17.88258158 24.56340398 0.01003508 0.00176071 -0.02153750
H 0.68764955 13.13446363 28.49257195 -0.00186747 -0.02955656 -0.00069448
H -3.17340247 11.39533592 34.67376631 -0.02860420 -0.01501598 0.00230435
H -1.67042245 15.82125013 29.86267163 0.00173717 -0.00823590 0.02716936
H 1.25542490 16.36452698 33.98943131 0.00645327 0.03025469 -0.00950761
H 0.89570004 11.53742173 30.49756898 -0.01448411 -0.00626283 -0.01263180
H -1.79040103 12.52337165 24.80517347 -0.02327320 0.00858848 0.01453064
H -1.61074049 17.49479060 28.05500838 -0.00477155 -0.01580803 0.01111091
H -0.31448316 14.96445869 23.57944396 0.01033051 -0.00862558 0.02282096
H -3.10329781 10.14652760 29.94993744 -0.02747067 -0.00476986 -0.00141259
H -0.35966686 14.02092030 35.14423511 0.00670006 -0.01233922 -0.01724685
H 2.02709797 19.20916144 29.63978355 -0.00040367 -0.00086320 0.01160131
H -0.48396119 16.49783591 25.46020417 -0.00009837 0.03179210 -0.02196778
H -3.23906817 11.75280319 27.84882144 -0.01697994 -0.02746301 0.00389255
H -0.26063639 12.31417935 33.44495128 0.00568446 0.00966096 0.01150860