2160
Time=33000.00000001 pbc="T T T" Lattice="20.57557286 0.00000000 0.00000000 0.00000000 29.06491579 0.00000000 -4.72193934 0.00000000 35.45299287" energy=-13795.96008039 virial="20.33096738 16.13876995 59.59102973 16.13876995 -25.09810087 -21.71675139 59.59102973 -21.71675139 -27.10872912" stress="0.00348060 0.00076646 0.00279828 0.00076646 0.00112193 -0.00106508 0.00279828 -0.00106508 0.00108107" Properties=species:S:1:pos:R:3:vel:R:3
O 0.41006541 8.90056576 2.78154570 -0.00285362 -0.00429802 -0.00089735
O 2.09504796 3.55574284 3.34323117 -0.00303404 -0.00000306 -0.00497913
O 4.44040240 1.25692092 9.22815285 0.00188560 -0.00337325 -0.00457006
O 3.58165704 5.84645563 8.38649038 -0.00266690 -0.00152982 -0.00069445
O 1.41821688 4.79966288 9.53459494 0.00261337 -0.00126016 0.00119671
O -0.13006953 9.97163837 8.69714418 0.00277208 0.00020299 0.00055273
O 3.98549567 4.94030375 2.45237846 0.00299972 0.00413183 0.00155482
O 5.41437602 28.82201549 3.02244929 0.00442550 -0.00535537 -0.00357127
O -0.95824901 8.61323585 14.15314567 0.00492070 -0.00196515 0.00029457
O 0.35009290 3.46656836 15.13450403 0.00321080 0.00678155 0.00421928
O 2.81725693 0.95103712 21.51367754 -0.00046020 0.00012338 0.00360362
O 1.89922293 5.89137101 20.02381660 0.00844755 -0.00128785 0.00169462
O -0.34776921 4.95229971 21.30580405 -0.00297408 -0.00250409 -0.01056473
O -1.90692705 9.74154158 19.97419599 0.00012759 0.00537769 0.00239287
O 2.36521532 4.73948566 14.38762732 0.00083724 0.00091601 0.00280542
O 3.81843358 29.06302068 15.88822171 -0.00550937 0.00322317 -0.00602825
O -2.39673954 8.79832961 25.94372447 0.00063865 0.00403699 0.00098870
O -1.37751126 3.91842434 27.30642149 -0.00592092 0.00092453 0.00349236
O 1.43811905 1.11078698 33.23707296 -0.00452196 -0.00489308 0.00367455
O 0.40860061 5.94972614 32.00373871 -0.00205888 -0.00065396 0.00175072
O -1.66784352 5.40334313 33.49010027 0.00161268 -0.00064019 -0.00207221
O -3.29170050 9.99674001 31.66482455 0.00481207 -0.00068667 -0.00491049
O 0.81648316 4.87467953 26.16314375 -0.00091739 0.00253350 -0.00206096
O 2.49506038 28.98505322 27.32378080 0.00475968 0.00269286 0.00414858
O 0.76794512 17.99199827 2.21174995 0.00258983 -0.00549868 -0.00291132
O 1.94649835 13.26661177 3.32721288 -0.00465946 -0.00048759 -0.00691218
O 4.56325059 10.47887181 9.65846845 0.00199906 -0.00454622 0.00429029
O 2.92238327 15.95602106 8.34114836 0.00215149 -0.00731200 -0.00313219
O 1.31442506 14.33547978 9.57132302 0.00136950 0.00136331 -0.00084621
O -0.35112419 19.60830386 7.94684697 -0.00239901 0.00062249 -0.00248744
O 3.82631411 14.42335310 2.01722988 -0.00389180 -0.00410469 0.00235266
O 5.27832033 9.42922266 3.46001822 -0.00181410 0.00266468 0.00117203
O -0.96516941 18.61923254 13.72057235 -0.00156505 -0.00022919 0.00047315
O 0.23336013 13.29238915 15.07533556 -0.00857620 -0.00222250 -0.00317332
O 2.93339870 11.01825855 21.02119844 -0.00272655 -0.00523161 -0.00384191
O 1.71964903 15.73879935 19.92060338 -0.00443947 -0.00584395 -0.00120928
O -0.43481568 15.27394055 21.15741342 0.00242224 -0.00021199 0.00352605
O -1.79400627 19.68209250 20.44491595 -0.00305065 -0.00180689 0.00040768
O 2.11872183 14.45352258 14.07549834 -0.00095398 -0.00432748 -0.00472147
O 3.76214101 9.59209566 15.36063682 0.00380499 0.00052233 -0.00803563
O -2.27864077 18.35131513 26.22058860 0.00537635 -0.00268988 -0.00002505
O -1.14971095 13.58764347 26.86279023 0.00165954 0.00520621 0.00278138
O 1.41220567 10.68576238 32.93443013 0.00230874 0.00561465 0.00587447
O 0.47641096 15.61234202 31.75996249 0.00074863 0.00172849 0.00171634
O -1.67601932 14.79875923 32.82001862 -0.00101776 0.00190868 0.00305754
O -3.32973155 19.31807647 31.84971490 -0.00305725 0.00156038 0.00193502
O 1.13786790 14.34179911 25.83759548 0.00136129 -0.00236171 -0.00207961
O 2.45921387 9.60122041 27.01013098 0.00368728 0.00345889 0.00272342
O 0.82207248 27.92341841 2.31627260 -0.00614623 0.00209220 -0.00311698
O 1.83352271 23.14482087 3.26702166 0.00579219 -0.00044407 0.00236614
O 4.49267823 20.82993927 9.14842598 0.00084184 0.00368137 -0.00064435
O 3.50233741 25.71737872 8.51848555 -0.00771207 -0.00077864 0.00117467
O 1.16028149 24.80167914 9.40658900 -0.00355762 0.00328614 -0.00643786
O -0.26838813 0.19769799 8.11764746 -0.00333592 -0.00038548 -0.00260794
O 4.35374168 23.88977525 2.68008428 0.00557459 -0.00493131 -0.00156179
O 5.74713485 19.48078248 3.92681396 -0.00430764 0.00133338 -0.00081207
O -1.18790568 27.63808174 14.63164876 0.00016132 0.00457412 0.00181792
O 0.44692084 22.92455825 15.52100036 0.00062524 -0.00180330 -0.00270310
O 3.18211219 20.51497507 21.36862666 -0.00325968 0.00391301 0.00297910
O 1.65555979 24.96039042 20.24622651 0.00262296 -0.00436749 0.00185302
O -0.35656976 24.12301699 21.69055921 -0.00297905 0.00122821 0.00070851
O -1.83103353 0.22847096 20.24449384 -0.00598899 -0.00012237 -0.00007327
O 2.12167744 24.10146899 14.13714055 0.00162480 -0.00145428 -0.00037771
O 3.74731497 19.37962868 15.24674761 -0.00115205 0.00067263 -0.00590370
O -2.46467234 28.30595706 26.07412708 -0.00198529 -0.00147631 -0.00208421
O -1.04674925 23.37466058 27.45629574 -0.00713001 -0.00473729 -0.00049870
O 1.48179059 20.24141903 33.19653448 0.00306392 -0.00456100 0.00433909
O 0.00899230 25.48396567 32.08020390 -0.00035759 0.01028688 0.00967520
O -1.50526336 23.96671538 33.26660204 -0.00170293 -0.00211208 -0.00591890
O -3.30607367 0.01338849 31.89748190 -0.00431924 0.00121912 0.00195273
O 0.66475442 24.41122758 25.70389689 -0.00283916 0.00215767 0.00334098
O 2.58777978 19.43011429 27.36629689 0.00275653 -0.00418684 -0.00265603
O 7.37074828 9.04014719 2.06593274 0.00140370 -0.00415756 0.00251451
O 8.90860250 3.91371471 3.33552754 -0.00213818 0.00305114 -0.00166827
O 11.21338145 1.13147766 9.09718090 0.00120759 0.00340803 -0.00091252
O 10.30887617 5.91184015 8.31818395 -0.00341960 -0.00261322 0.00077354
O 8.20205261 4.87955210 9.51215477 0.00387047 -0.00118962 0.00246305
O 6.64651667 9.92545156 8.37443779 0.00593308 0.00073650 -0.00005521
O 10.91049662 5.25298951 2.14968256 0.00154207 -0.00439950 -0.00278134
O 12.40987964 28.75649291 3.25942163 -0.00877194 0.00163611 0.00191927
O 5.88335429 8.31213119 14.41087416 -0.00162338 0.00012106 -0.00374920
O 7.40666881 3.41610979 15.17690366 -0.00106307 0.00159069 -0.00611110
O 9.70088629 1.04197692 21.26459305 -0.00372135 0.00038700 -0.00195251
O 8.70325988 5.87724124 20.09565641 -0.00523755 0.00073140 0.00120699
O 6.49992653 4.83670047 21.27116529 0.00301683 -0.00118553 -0.00694575
O 5.13827513 9.68477240 20.00399957 0.00039970 0.00307295 -0.00115330
O 9.18335922 4.68171516 13.96606277 0.00161641 0.00473908 -0.00151828
O 10.54872241 28.82211642 15.24513599 -0.00096958 -0.00488687 -0.00076496
O 4.66607770 8.89184304 25.85280745 0.00060911 -0.00133006 0.00126123
O 5.74115954 3.57580515 27.11809763 0.00475518 0.00199392 -0.00363243
O 8.03479877 0.99213336 33.12772416 0.00114779 -0.00713756 -0.00020281
O 7.27002115 5.72383263 31.91058767 -0.00140217 0.00273311 -0.00435606
O 5.05729034 4.63413675 33.32389652 -0.00013336 -0.00599088 0.00485761
O 3.40827564 9.66828567 31.70168789 0.00103128 -0.00254478 0.00239909
O 7.68087673 5.03339585 25.78480299 0.00504759 -0.00067830 -0.00130545
O 9.27114513 28.94041055 27.21676882 0.00701402 -0.00577490 0.00241402
O 7.45772489 17.70724370 2.80326201 0.00460521 0.00959058 0.00565168
O 8.55490420 13.50695636 3.62545758 0.00298875 0.00001287 -0.00471605
O 11.51634786 11.22300774 9.44953715 -0.00610503 0.00372361 -0.00624889
O 10.24758236 15.55118406 8.40106141 -0.00498674 -0.00715333 0.00168812
O 8.16380675 14.36754295 9.56007403 0.00207040 -0.00297916 0.00271518
O 6.35474330 19.51914275 7.98087505 -0.00890513 -0.00030426 0.00277959
O 10.84170100 14.35460861 2.59933759 -0.00421818 0.00535696 -0.00114386
O 12.50127974 9.53374469 3.67518649 0.00293691 0.00388506 0.00389296
O 5.88825997 18.22606371 14.17579188 -0.00796483 0.00407166 0.00052836
O 7.08824438 13.59854869 15.25440152 0.00525070 0.00480829 -0.00570256
O 9.88622598 10.84587468 21.03833013 0.00357217 -0.00650989 0.00617869
O 8.74869941 15.60500667 19.77239176 -0.00115125 -0.00020777 -0.00165645
O 6.64268977 14.71415283 21.09343611 -0.00102930 -0.00045723 -0.00202899
O 5.17650516 19.39491683 20.06517381 -0.00267605 -0.00065591 -0.00214109
O 9.05611855 14.62072444 14.02043591 0.00120500 0.00190982 0.00088634
O 10.59374343 9.88565576 15.21352928 -0.00093950 -0.00110633 0.00056484
O 4.30422979 18.02089819 26.14544555 -0.00185929 -0.00041782 -0.00718653
O 5.72637767 13.45546359 27.12375116 0.00029149 0.00076396 0.00611290
O 8.32048227 11.04156449 33.09149042 -0.00672374 0.00489768 -0.00223756
O 6.81247049 15.60999018 32.06511804 0.00447189 -0.00285809 0.00397508
O 4.90699660 14.37751835 33.14716610 0.00480381 -0.00615566 -0.00345949
O 3.65522417 19.35187073 31.89295657 -0.00916483 -0.00168921 -0.00008494
O 7.83504897 14.02427235 25.97503536 -0.00752687 -0.00158383 0.00011331
O 9.24968256 9.64252151 27.28266452 0.00878721 0.00103515 0.00033175
O 7.68465441 27.92995416 2.30308566 -0.00323998 -0.00238814 -0.00067544
O 9.01083737 23.40399799 3.54849669 -0.00364529 0.00022075 -0.00796059
O 11.44514620 20.57524686 9.42183907 -0.00517356 -0.00457453 -0.00729162
O 9.96487229 25.00365298 8.01549680 -0.00128649 0.00153824 0.00016426
O 8.05072571 24.04736411 9.66880498 0.00280580 -0.00009545 0.00385268
O 6.61870629 0.32178414 7.99702847 0.00502521 0.00295502 0.00239081
O 11.08751255 23.85764021 2.24865520 -0.00523246 -0.00287626 0.00251632
O 12.29910284 19.48172625 3.86788377 -0.00666320 -0.00331561 0.00844362
O 5.66548481 27.69418467 14.46108284 -0.00160472 0.00414996 0.00020839
O 7.07288933 23.00998284 15.21271317 -0.00058050 0.00381198 -0.00375277
O 9.72928408 20.61546749 21.16454022 0.00436131 0.00104971 0.00217961
O 8.60718012 25.32949659 20.06817181 0.00050518 -0.00224287 -0.00281806
O 6.42904579 24.61497863 21.15636519 -0.00070404 0.00599856 0.00596023
O 4.78355414 0.13319623 19.90270116 0.00207485 0.00176670 0.00123843
O 9.40012055 23.69510525 14.23263219 0.00467116 0.00222299 0.00621993
O 10.71549646 19.23540488 15.10647838 0.00236111 -0.00374833 -0.00481713
O 4.52880886 28.00335630 25.97347835 -0.00078848 -0.00103961 -0.00262475
O 5.64107230 23.05383942 27.04579165 -0.00202558 -0.00398481 0.00185923
O 8.76304902 20.74021167 32.74800354 -0.00169888 -0.00291115 0.00585647
O 7.15898236 25.39958749 32.08512007 0.00274381 0.00063985 -0.00719644
O 5.12432216 24.22444850 32.88201041 -0.00215576 -0.00067628 -0.00153932
O 3.37529452 28.92437210 31.68299776 0.00105272 -0.00128952 -0.00188165
O 7.77482349 24.15861169 26.07056252 0.00064903 0.00469891 0.00145109
O 9.30561037 19.45166411 27.25132068 -0.00066270 -0.00058431 -0.00714136
O 14.51707760 8.64289747 2.26162953 -0.00010000 0.00305228 -0.00376722
O 15.43971124 3.62887721 3.28479447 -0.00210393 0.00683988 0.00197969
O 18.29414771 0.93657225 9.54947394 0.00341212 -0.00101767 0.00079316
O 17.21258501 5.81900437 8.43811802 0.00534163 -0.00008317 0.00373705
O 15.13867907 4.97261534 9.78614106 -0.00152891 -0.00176409 -0.00379176
O 13.66440257 9.98162498 8.49930822 0.00156616 -0.00069015 -0.00010450
O 17.72309147 4.54774379 2.23380294 0.00267600 0.00028327 0.00032340
O 19.12450733 0.04410028 3.45773681 0.00199206 -0.00163108 -0.00385484
O 12.55668498 8.51764696 14.44117823 -0.00253206 -0.00226167 -0.00417148
O 13.92271490 3.68769728 15.20627749 -0.00079937 0.00302483 0.00211744
O 16.70122203 1.14535384 21.44511137 0.00321454 -0.00227369 0.00175904
O 15.40188716 5.73645796 19.83628164 -0.00129552 -0.00145535 0.00562697
O 13.45293804 4.79837332 21.56262521 -0.00076015 -0.00654899 -0.00332424
O 11.91438669 9.55215512 19.86712523 -0.00015643 -0.00106693 -0.01154348
O 16.06335093 4.68222975 14.16459361 -0.00144337 -0.00203651 0.00269703
O 17.46817762 0.03782266 15.41830480 -0.00563850 0.00074059 -0.00110640
O 11.44370150 8.52214986 26.12852269 -0.00067339 -0.00201823 -0.00131899
O 12.51164946 3.73610751 27.25277189 -0.00443016 0.00478452 -0.01053520
O 15.12419140 1.01950932 32.98094357 0.00268512 0.00114490 0.00102380
O 14.29846343 5.74851063 32.12006777 0.00270297 0.00600773 -0.00332001
O 12.06938380 4.78617652 33.33892560 0.00098045 0.00339149 -0.00081331
O 10.50455422 9.95930454 32.08616468 -0.00350501 0.00448126 0.00358583
O 14.51691062 4.86486190 26.13699294 -0.00519332 0.00242617 0.00208183
O 16.06278540 28.88475658 27.35380699 0.00138302 0.00310338 -0.00412888
O 14.24355969 18.36526373 2.36970753 -0.00010717 0.00126568 0.00010147
O 15.59140613 13.18992407 3.42104763 -0.00422098 0.00556879 -0.00218449
O 18.12948577 10.61262725 9.57914697 0.00197263 -0.00452266 0.00213621
O 17.20163489 15.19442854 7.77392191 -0.00146641 0.00104050 -0.00004534
O 15.32257902 14.75728175 9.65989535 0.00316821 -0.00243260 -0.00336132
O 13.63202607 19.69969649 8.36364370 0.00097383 0.00176998 0.00335624
O 17.81642171 14.06417668 2.58151380 -0.00361895 -0.00852534 0.00118928
O 18.96243570 10.18765265 4.00288244 -0.00688422 0.00146264 -0.00340244
O 13.12274654 18.47750912 14.56874180 -0.00164527 0.00576663 -0.00219729
O 13.80901753 13.39638810 15.42730252 0.00354200 0.00116482 0.00438389
O 16.64037944 10.95809573 21.08754789 -0.00173957 -0.00144745 0.00172260
O 15.39896060 15.56789103 20.23711682 0.00255148 0.00479905 0.00288183
O 13.53041941 14.40391032 21.55441389 0.00150445 0.00460979 0.00381523
O 11.80722942 19.39887974 20.20947193 0.00120109 -0.00377285 -0.00051056
O 16.08718151 14.49789214 14.02925083 -0.00381563 -0.00261612 -0.00113826
O 17.59382633 9.82382458 15.21775610 0.00052155 -0.00067218 0.00576398
O 11.16864776 18.20414035 26.18011127 0.00044592 0.00156577 -0.00051847
O 12.39008092 13.68657992 27.21260430 0.00659183 0.00109418 -0.00076342
O 15.22813438 10.77555928 32.96930835 -0.00444998 -0.00439365 0.00175743
O 13.42794153 15.64309479 32.19204491 -0.00232686 -0.00176461 0.00148914
O 11.67868941 14.40759911 33.34669468 -0.00026668 0.00220905 -0.00563345
O 10.40023534 18.97542827 31.65844228 0.00778980 -0.00317542 -0.00112531
O 14.47696256 14.29929953 26.08441674 -0.00061128 0.00245164 0.00452246
O 16.14684435 9.53475636 27.11251010 -0.00149074 0.00581433 -0.00507967
O 14.62343823 27.74468787 2.32551549 -0.00287256 -0.00035959 -0.00190567
O 16.09328580 23.29332960 3.78984248 -0.00310918 0.00541052 -0.00356081
O 18.41924826 20.54801149 9.40342815 -0.00428306 -0.00582085 -0.00005811
O 17.24238881 25.47717491 8.45706938 -0.00002522 -0.00663491 -0.00832648
O 14.83468528 24.42046799 9.09106994 0.00146877 -0.00219951 -0.00139041
O 13.34110417 28.93571357 7.91432850 -0.00184629 0.00385558 -0.00518041
O 17.89276463 24.29049265 1.90597970 -0.00164575 -0.00287444 0.00456246
O 19.40391445 19.28277817 3.45449911 -0.00497303 -0.00386746 0.01166919
O 12.67356505 27.89009569 14.13761211 0.00253335 -0.00048664 0.00258575
O 14.01872320 22.93621541 15.28130177 -0.00123735 -0.00083691 -0.00363807
O 16.43301060 20.73003140 21.39357008 0.00303019 0.00069592 0.00138324
O 15.44554090 25.49669413 20.11212091 -0.00261680 0.00223497 0.00436357
O 13.45247764 24.42245568 21.12818238 0.00063246 0.00123503 -0.00092997
O 11.80468835 0.24702106 20.10879035 -0.00100416 0.00594829 -0.00199480
O 16.15922705 23.97666189 14.35479531 0.00398279 -0.00344156 0.00310367
O 17.88257411 18.88864004 15.57658531 0.00271663 -0.00270863 -0.00703481
O 11.22357749 27.84753563 25.99380900 -0.00230770 -0.00046714 0.00019530
O 12.63338495 22.78004048 27.06997822 -0.00631953 -0.00485998 0.00753132
O 15.02186037 20.16046004 32.97560529 -0.00275462 0.00327837 -0.00039062
O 14.24729142 25.16372787 31.82045351 -0.00348052 0.00275408 -0.00179582
O 12.16325055 24.31670016 33.08658428 0.00016632 0.00037937 0.00098598
O 10.49050856 0.36365115 32.17923314 0.00106178 0.00658658 -0.00695672
O 14.62311386 24.45885016 26.27238651 -0.00877346 -0.00000212 0.00148904
O 16.28033388 19.14351783 27.62600404 -0.00121404 -0.00092235 0.00159939
H 20.09221418 9.16984038 3.15248812 0.03740530 -0.02134508 0.00663109
H 2.73616617 4.25228203 3.22132879 0.02235308 -0.00847331 0.01787076
H 5.29153330 0.84528769 8.90363026 -0.00056455 0.01321577 -0.00001118
H 2.72728144 5.56139129 8.73457590 0.00788632 -0.01290873 0.01774583
H 5.42182362 7.94281344 1.00584521 0.03592792 0.01161580 -0.00173178
H 4.10736676 3.26844740 5.04274913 0.01611845 0.01128549 -0.01368099
H -0.39267602 1.33129941 11.25246652 -0.02019604 0.01148277 -0.01362922
H 1.40406497 6.35014707 6.76283596 -0.01326186 0.00422158 -0.01069912
H 3.97075191 6.83574938 10.59447230 0.01077245 0.01457595 0.00446956
H 3.97572769 1.48792426 6.90433470 0.00240488 -0.01740467 0.01246167
H 1.51087321 3.25132888 0.74522090 -0.00274767 -0.03128749 -0.00707603
H 1.37076090 7.98872440 5.04130202 0.01138155 -0.00172560 -0.03815399
H 2.80550324 5.94288054 0.17730067 -0.01408493 0.01059280 0.02255072
H 0.00960631 0.48518360 5.89387503 0.05010823 0.01671709 0.00199977
H 2.32953494 4.15899363 12.01300583 0.01532144 -0.01775037 -0.01840858
H 5.43676135 9.08425430 5.71432697 -0.01541585 -0.00981817 0.00419160
H 2.63274263 7.46621892 2.16508492 -0.00313046 0.02336575 0.02020380
H 0.03679305 2.12717561 4.04153592 0.00285006 -0.01763696 0.00972055
H 2.47301657 2.68677438 10.04793454 -0.01231745 0.02133138 -0.01687517
H 5.43837857 7.65275371 7.62888379 0.01625039 -0.01316133 0.00845602
H 5.13671120 5.27498147 9.16216433 0.00014845 0.01170939 -0.02114126
H 2.91777003 28.92449445 7.97884651 -0.01771496 0.00231581 -0.03003094
H 0.26379848 4.70394618 2.16533575 -0.01245334 0.00727411 -0.00355216
H 2.20437062 9.27657801 3.62328456 0.01009282 0.00318153 0.01280560
H 7.08469094 4.10092303 6.98308336 0.01103007 0.00178611 -0.01748695
H 2.38354143 8.17923319 9.44378369 0.00783782 0.03266465 0.00881555
H -0.41255859 6.33219767 3.70304942 0.01535086 -0.01447342 0.00042924
H 4.31477582 1.02668393 1.00856506 0.01402058 -0.00033377 0.01492612
H -0.15787852 4.24303064 7.18642566 -0.03123817 -0.01039570 0.01270916
H 0.64576048 7.76519653 9.72145672 -0.01082356 -0.01356753 0.03131483
H 5.22369936 5.58987655 4.67671953 -0.02088739 -0.01470790 0.03602509
H 2.71994323 0.19688257 1.42119842 -0.02093582 0.00242289 -0.00543057
H 19.36125675 3.45033063 8.23070809 -0.00655641 -0.01121125 -0.00779468
H 1.51538662 8.97575217 10.72010552 -0.00862651 -0.01071279 -0.00589729
H 6.60134897 6.33840200 3.75918636 0.02806582 -0.00384800 -0.02059008
H 3.24748846 1.81678773 2.16884262 0.01212508 -0.02738921 -0.01323173
H -1.75212556 9.11981757 14.44261190 0.00325750 0.00203981 -0.02547837
H 1.19014182 3.97724509 14.87527675 0.01124771 0.01280805 -0.00898619
H 3.67875167 0.67298898 21.01770092 0.00222380 -0.00161067 0.03312726
H 1.00076558 5.60231179 20.39185122 -0.01293698 0.00485767 0.02133964
H 3.94940617 8.08455416 12.57264409 -0.02188110 -0.00845139 -0.00034312
H 2.29652768 3.38162759 16.96868156 -0.03164097 -0.00167820 -0.00967045
H -1.81756844 1.68454989 23.21726170 -0.00286769 0.01119333 0.00667988
H -0.27093630 6.36158739 18.43709891 0.01123011 -0.03041030 0.00335547
H 2.41704756 6.60247111 22.61894955 0.00243417 0.00814045 0.03009005
H 2.34719612 1.59206935 18.83022236 -0.00255486 0.00513189 0.02694814
H -0.44720023 3.02469804 13.15212573 0.00033116 0.00541909 0.00648079
H -0.27684566 7.84186820 16.59594227 -0.00312386 0.00168979 -0.00424101
H 1.01609757 5.35221409 11.73282677 -0.00893110 -0.00223874 -0.00218944
H -1.63806543 0.72865679 18.09831472 -0.00005628 -0.01380072 0.00131186
H 0.73786964 4.01975864 24.19536711 -0.01439979 -0.02614357 -0.01854959
H 3.62754351 9.20852625 17.43705407 0.02537351 -0.00554572 0.00248504
H 1.21042791 7.19106574 13.38151097 -0.00456710 -0.01152496 -0.01369911
H -1.76592959 2.12707336 16.17723450 0.02234225 -0.00889067 0.01270026
H 0.72975058 2.52261738 22.21357453 -0.01830007 0.00995535 0.03273496
H 3.88735692 7.47244159 19.22573839 0.01175970 0.01481354 0.00792236
H 3.28482612 4.71595045 21.70764565 0.00744040 0.02818407 -0.03231181
H 1.42100978 0.28880192 20.06811013 -0.01113569 0.02254700 0.01327211
H -1.30915481 4.94299843 14.14913735 -0.00697481 0.01348617 0.00360641
H 0.67675435 9.77446414 15.53235124 0.00425930 0.00728643 0.00209152
H 5.24400401 2.41822287 20.51397877 0.01314639 -0.02577154 -0.00885956
H -0.87064837 9.17298489 22.41104650 0.01147484 0.02672745 0.01110873
H 16.55046960 5.91730840 16.22876633 0.00150811 -0.01686868 -0.00431842
H 2.97021777 0.77410660 13.31474969 0.00774261 -0.00193990 0.00124687
H -1.64318479 2.66035787 20.33594514 0.01985930 -0.00498965 0.00943924
H 0.72665414 8.87065358 21.54229940 -0.01046715 0.03043867 -0.00754676
H 3.49655064 5.84836135 16.52772262 -0.00852775 0.02038887 0.01984225
H 1.28544852 0.90798184 13.94912417 -0.00264586 -0.00861620 0.02018683
H -1.40217614 3.83809788 19.01156946 0.02160093 -0.00460558 -0.02574207
H -0.76817473 7.68654981 21.41131890 -0.00861319 -0.00303469 0.00422625
H 4.99894412 6.12412013 15.79984001 0.00797576 -0.00517307 -0.01969415
H 2.60520006 2.00436762 14.54691220 -0.00595690 -0.00216050 0.00089506
H -3.26784062 9.22998928 26.31010080 -0.01688166 0.01505505 0.00988118
H -0.47969145 4.26369755 27.17251895 -0.03452902 -0.02138763 -0.00141982
H 2.33477057 0.70201638 33.17113773 -0.00345806 0.01073555 0.00899064
H -0.51328280 5.69136173 32.27278274 0.02071102 0.00640420 -0.00072653
H 2.76669566 8.56471519 24.20874300 0.00386146 -0.00202709 0.02889028
H 0.70751941 3.43801579 28.77946825 -0.00715611 -0.00230829 -0.01846137
H -3.28635109 1.50864416 34.53589023 0.02066663 -0.00719863 0.00560773
H -1.56867151 6.34141785 30.40200192 0.01279066 -0.00012884 0.01977227
H 0.78898194 6.26900389 34.48957049 0.00151660 -0.00328830 -0.02840890
H 0.78850574 1.99958097 30.87965394 0.02999278 -0.01300103 0.00786852
H -1.89529630 3.28828480 24.89656003 -0.01522245 0.00010077 -0.01028270
H -1.59142865 7.68411418 28.40217251 -0.00869935 -0.01481715 0.00438743
H -0.44047008 5.57316500 23.34729304 -0.02113193 -0.02218264 0.01303198
H -3.05096261 0.42164377 29.58293761 -0.02623063 -0.00605667 0.01321570
H 4.07585781 3.99374846 0.68083394 -0.00785937 -0.00046208 -0.00251114
H 2.37115833 8.98944823 29.36400880 -0.00650524 -0.00716157 -0.00641591
H -0.27355225 7.30887563 25.12752590 -0.01725748 -0.00493838 0.00852761
H -3.17131450 2.04393216 27.94975720 0.01108549 -0.00721965 0.00172227
H -0.60765450 2.61730107 33.97579591 -0.00700372 0.01712803 -0.01060543
H 2.37143628 7.61601897 31.40796391 0.02581851 -0.00333813 -0.00577293
H 1.95867603 4.86463564 33.39176357 0.03256298 -0.00661974 0.01691211
H -0.22243320 0.03207149 31.81006489 0.00798085 -0.00879743 0.01228126
H -2.96145700 5.02336756 25.93105456 0.01561780 0.00878267 -0.00775778
H -0.67967275 9.62712619 27.27978235 -0.02224747 0.00847419 -0.01177256
H 4.39523474 3.97031885 30.96493593 -0.00833716 0.01440375 0.00320700
H -0.87825161 9.35379064 33.73316780 -0.00716693 -0.00908254 0.02527236
H 15.08504116 6.64877624 27.74776144 -0.01626957 -0.01481550 -0.00568895
H -0.08723070 1.45376291 25.99874202 0.02574038 0.01542329 -0.02020353
H -3.12645180 4.50620775 31.20455654 0.01667131 -0.00646265 -0.02397551
H -1.41646934 7.88300136 32.91780235 -0.02169454 -0.01500816 -0.01028354
H 2.18089428 5.48602335 28.52125590 0.02143714 -0.02267359 0.00725113
H 1.60331811 2.06068036 25.96949327 0.01004628 0.01490513 0.00686192
H -4.06396673 3.62888449 32.35158771 0.03485342 -0.00831746 0.00774127
H -2.59560649 8.95276134 33.81215852 0.00944735 0.00670006 0.00282573
H 3.37189346 6.36674054 27.44272192 0.00630640 -0.01261404 0.00327857
H 1.22929767 0.71575445 24.98985510 0.04722367 -0.01069744 0.01522785
H -0.08099208 18.51867514 2.30429617 0.00393728 0.00903123 -0.00304197
H 2.80067330 13.73381124 3.06703945 0.00680545 0.02716832 -0.00954392
H 5.47628979 10.22471214 9.28997226 0.00258946 0.02522432 -0.01958934
H 2.22789046 15.32419219 8.47048264 -0.00957101 -0.02283582 0.00874103
H 5.55029431 17.83645366 0.86531985 0.00475555 0.00349073 0.00743127
H 4.07123055 12.61837412 4.90004391 0.01387687 0.00423995 0.01764862
H -0.54465563 10.94625198 11.25209739 0.01659167 0.00735708 0.02252647
H 1.22012243 16.04334397 6.39274760 -0.00730282 0.00386187 -0.00250319
H 4.03379289 16.37906250 10.54091918 -0.02079640 0.02898715 -0.01165164
H 3.95293821 11.48433129 6.97514074 0.00094072 0.01748240 0.00823773
H 1.24058290 12.81696152 1.10565724 -0.01970671 0.01042227 -0.01044564
H 1.50730951 17.47700233 4.39584036 -0.00730756 -0.02020398 -0.00735886
H -1.95955045 14.82873057 35.06700766 -0.01116587 0.00237886 -0.00195854
H -0.09283862 10.17162765 6.11945175 -0.00193504 0.00367447 -0.00353004
H 2.40194328 13.62451497 11.98626762 0.00434826 0.00280327 0.02264490
H 5.54074892 18.21606747 5.73565886 0.01538709 0.02372734 0.01136558
H 2.76245102 16.71744789 1.49930921 0.00968442 -0.00101846 -0.01532821
H -0.09004221 12.00816755 4.31981988 -0.03896821 -0.01547070 -0.00138303
H 2.60769330 11.93132668 10.18288283 -0.01155222 -0.00437618 -0.00760964
H 5.26229241 16.82246596 7.51835693 -0.00098594 -0.02212208 0.00983795
H 5.01001172 14.43430968 9.69586219 0.03683505 -0.03043191 -0.02532943
H 2.92627881 9.85710083 8.21074610 -0.01043997 0.00596979 -0.00407553
H 0.27443754 14.50022777 2.12960139 -0.00675316 -0.02276754 -0.01439882
H 2.61972350 19.20048900 3.56004312 0.01359641 -0.03853072 0.05588998
H 7.24136682 13.66740388 7.23029627 0.01072057 -0.02947652 0.00079912
H 1.18717332 17.29308549 9.23839298 -0.02089250 0.02035424 0.00156294
H 19.64935414 15.23865815 4.62289584 0.01150440 -0.01894469 -0.00098090
H 4.00568686 11.72496780 2.32733598 0.00747483 -0.00956674 0.01374947
H -0.12872963 12.35031495 7.96580321 0.00221659 0.01976202 -0.00310104
H 0.15406171 18.29799876 10.08056661 -0.00705442 -0.01468271 0.01612196
H 6.11386536 15.49895838 4.02358019 0.00823399 -0.01267866 0.01602919
H 4.45945433 10.38374239 1.18117669 -0.02875423 -0.01953781 0.00737775
H 0.71253388 13.76814302 7.24004492 -0.01774175 0.01505145 -0.01410080
H 1.70797710 18.73715555 10.20670728 0.01120788 -0.00839185 0.01170074
H 5.29626249 16.67526429 3.04667493 0.02104833 -0.00070573 0.01207017
H 2.77219218 10.42569703 1.78389494 0.04570551 -0.00591113 0.00973130
H -1.73238241 18.74668434 14.28695722 -0.01417745 -0.00220088 0.00624158
H 1.16918590 13.78023805 14.66942323 -0.00633865 -0.01004592 -0.03200374
H 3.75927152 10.51845494 20.62521389 -0.01110751 -0.00414138 0.02722071
H 0.83157625 15.57926486 20.33812885 -0.00988493 -0.00551078 0.00650425
H 3.84272327 17.80734040 12.52527307 0.01366917 0.02748325 -0.00630470
H 2.29890523 12.86730949 16.90154118 0.00119002 0.01012480 0.02516228
H -1.87373231 11.27862834 22.84659747 0.01426442 -0.01345808 -0.00212954
H -0.36736105 16.14357245 18.42728257 0.01550806 0.00193546 0.00526099
H 2.59300747 16.77027510 22.07913980 0.01459609 -0.00186534 0.01043811
H 2.09558427 11.50277794 18.92765485 -0.00678862 0.00253875 0.01349396
H -0.41743803 12.68898573 13.08947530 0.01481553 0.01175960 0.00101286
H -0.39644933 17.53148376 16.41201457 -0.02490094 -0.01171044 -0.00327227
H 0.90597315 15.17738925 11.64631814 -0.01595485 0.01290278 0.02928225
H -1.94545921 10.54938718 18.00974216 0.00742808 0.01211624 -0.01760479
H 1.22931735 14.10622520 23.75027402 -0.00987378 0.02262905 0.01507601
H 3.65173370 18.76458794 17.30225454 -0.00671135 0.01912739 0.02140778
H 1.04375472 17.01876841 13.22378290 -0.02503707 0.00080408 -0.00878024
H -1.89263300 12.08683553 16.19917322 -0.02597910 0.00491247 0.00465685
H 1.16851976 12.85548811 21.57987472 -0.02011408 0.00341073 -0.00073957
H 3.86431590 17.23479085 19.09689929 -0.00173709 -0.02560731 -0.00009547
H 3.46955369 14.81313230 21.16930056 -0.00281619 -0.00446598 0.00206637
H 1.26134781 9.36194972 19.67404045 0.02049611 0.01018463 0.00676345
H -1.33303839 14.55128774 13.99212618 0.00761334 0.00004126 -0.00213304
H 0.58279532 19.37439100 15.36426248 -0.03123755 0.02629423 0.01543536
H 3.92695746 13.80227366 19.59481797 0.01822090 0.01069439 -0.01230863
H -0.07009876 18.91749646 22.87049176 0.00489995 0.03083259 0.00546911
H -2.11055035 15.62011710 15.96266027 -0.00668804 0.00690480 0.02075924
H 2.86030792 10.67130159 13.23803521 -0.01380199 0.01045945 -0.01283266
H -1.40906561 13.67229004 19.29190032 0.01143068 -0.01174403 0.00913138
H 0.07619264 17.49689268 21.78909898 0.03542527 -0.01514724 -0.00155644
H 2.53410356 16.12466782 15.76243854 -0.01282576 0.00953149 0.00179352
H 1.21644142 10.71237769 13.90515135 0.02421866 -0.00263922 0.01271801
H 17.79778693 13.21069109 20.24812417 -0.00534039 0.02471074 -0.00071657
H -1.55972986 18.21700863 22.33469134 -0.00698382 -0.00443572 -0.00070133
H 4.10586372 15.36751106 16.18694773 -0.01763714 0.01891649 -0.01411200
H 2.59481750 11.96241973 14.45516892 0.01920506 0.00114245 -0.00237909
H -3.18073739 18.67615078 26.57809035 0.01370943 0.00084582 0.01203919
H -0.21943292 13.80501814 26.52445454 -0.01298230 -0.00360324 0.02628305
H 2.22803669 10.25831446 32.63557581 0.01422528 0.01838872 0.02106329
H -0.44885232 15.26609399 31.95579150 -0.00188543 0.00374549 0.00233218
H 2.59104786 18.14535573 24.29656427 -0.01065744 -0.01283000 -0.00498894
H 0.59643038 13.38007355 28.63669642 0.00657423 -0.01891441 -0.00795070
H -3.43787232 11.18801755 34.80599245 -0.01262009 -0.01235500 0.00666997
H -1.38506949 15.79443649 30.02734147 -0.00519410 0.01275397 -0.03043542
H 0.72709405 16.22517766 34.39960097 -0.02351668 0.00374848 -0.00748160
H 0.58084220 11.77707168 30.63218700 0.03098151 -0.00693390 -0.01227771
H -2.05450135 12.46853878 24.85980120 -0.00578459 0.01052396 0.00026473
H -1.43949019 17.60403844 28.24100595 0.01082255 -0.00690567 -0.00684691
H -0.42353432 15.01860693 23.73937557 -0.00383352 -0.00487543 -0.01337130
H -3.19843686 10.32538325 29.43286064 -0.00890503 -0.00222599 0.01222803
H -0.60504773 13.79261791 35.42633978 0.02151516 -0.00687308 -0.00229175
H 2.62863387 18.61254077 29.28141608 0.00914592 0.02420199 -0.01287749
H -0.39756669 16.63382231 25.71758592 0.01822402 -0.00129142 0.02148235
H -3.26800651 11.87651785 27.60675016 -0.00038236 0.00565219 -0.00585303
H -0.53027684 12.29513388 33.46969093 0.00044791 0.01073276 0.00320187