2160
Time=32000.00000001 pbc="T T T" Lattice="20.61468756 0.00000000 0.00000000 0.00000000 29.20059042 0.00000000 -4.71413290 0.00000000 35.33586606" energy=-13794.32694119 virial="-103.71526643 -6.39161237 66.30371965 -6.39161237 -69.73753471 13.48121307 66.30371965 13.48121307 -40.56153359" stress="-0.00233243 -0.00026379 0.00304280 -0.00026379 -0.00079267 0.00060531 0.00304280 0.00060531 0.00054890" Properties=species:S:1:pos:R:3:vel:R:3
O 0.88282183 8.77748534 2.17296062 0.00154325 0.00413380 -0.00315561
O 1.86481424 3.45429373 2.99611495 0.00783383 0.00067002 0.00190436
O 4.65086513 1.27097624 9.08218367 -0.00064552 0.00195268 -0.00767566
O 3.15356328 6.11821529 8.64092875 -0.00201007 0.00091567 0.00296077
O 1.33287730 4.50274007 9.21303020 0.00399658 0.00373789 -0.00249793
O -0.41202848 9.60165697 8.18502765 0.00012911 0.00073979 -0.00429339
O 4.14359499 4.77534347 2.28188030 -0.00618043 -0.00347746 0.00160839
O 5.60923773 0.05641576 3.61136358 -0.00833312 -0.00061598 0.00444012
O -0.54201719 8.44316421 13.88294474 0.00774559 0.00252245 0.00353435
O 0.34897881 3.81920971 15.23325369 -0.00544871 -0.00140981 -0.00217845
O 2.99151000 0.92503201 21.18042874 -0.00291736 -0.00514632 0.00712272
O 1.91184275 6.04709278 20.04408978 -0.00125869 -0.00538365 0.00217755
O -0.10068586 5.21507997 21.36640893 0.00007852 -0.00502916 0.00113152
O -1.51092261 10.18841017 20.12420281 0.00016030 -0.00585561 -0.00167834
O 2.69808484 4.59336093 14.15146528 0.00461377 -0.00510020 -0.01033924
O 3.84607322 29.06588644 15.28526242 -0.00583040 -0.00353047 -0.00065029
O -2.41004479 8.65462278 26.18669037 0.00073523 0.00227954 0.00571254
O -1.05339007 3.53601994 26.72019539 0.00399527 0.00441377 -0.00286769
O 1.36654294 1.02170672 32.90971863 0.00124750 -0.00194868 0.00215325
O 0.08811024 6.53732469 32.31968239 0.00175376 -0.00345767 0.00584472
O -1.86511163 4.97162244 32.97694425 -0.00555192 -0.00564098 -0.00436405
O -3.34379381 10.00488452 31.73515053 -0.00199778 0.00080143 0.00088091
O 0.76591213 4.99280261 25.56490643 0.00015161 0.00001646 -0.00019661
O 2.24162234 0.29090243 27.02566606 0.00165511 0.00814561 -0.00518802
O 0.47383325 18.25465723 2.51738230 -0.00248425 -0.00054813 0.00187474
O 1.83330858 13.30996562 3.46774895 -0.00168904 -0.00438734 -0.00488760
O 4.55530463 10.51170468 9.56799358 0.00061486 0.00412092 -0.00053926
O 3.16963181 15.68809226 8.46465231 -0.00352138 -0.00786519 -0.00225096
O 1.03021936 14.65835974 9.36520103 -0.00248601 -0.00062302 -0.00324075
O -0.21624394 19.46902550 8.47131345 0.00270792 -0.00249389 -0.00590614
O 3.84192370 14.91103879 2.30131015 -0.00002601 0.00118374 -0.00843965
O 5.74270350 9.59990603 3.71645504 -0.00332800 0.00285097 0.00290457
O -1.00928788 18.32891933 14.15583033 -0.00098057 -0.00109654 0.00353464
O 0.64208023 13.39507050 15.01353030 0.00026970 0.00410711 0.00361898
O 3.10011305 10.83176547 21.25748416 -0.00414589 -0.00029626 -0.00606285
O 1.95738278 15.62938651 20.37457208 0.00283462 -0.00138833 -0.00168022
O -0.33857228 14.89132133 21.39328305 -0.00514499 0.00194026 -0.00088824
O -1.87032575 19.61741438 20.19003798 0.00265456 0.00027733 -0.00345057
O 2.43309445 14.94420943 13.78871442 0.00647560 -0.00466952 -0.00755045
O 4.11272504 9.52395527 15.49323231 -0.00047381 -0.00796541 0.00155634
O -2.31616317 18.39712921 26.07732845 0.00325363 -0.00950541 -0.00370356
O -1.29288785 13.48755104 27.03779073 0.00268413 0.00430343 0.00604358
O 1.45753202 10.98374824 32.86832282 0.00529008 0.00167035 -0.00462090
O 0.24478178 15.62804575 31.83047347 0.00010943 0.00154633 -0.00202805
O -1.87387411 14.64813722 33.05642145 -0.00482731 -0.00202216 0.00420860
O -3.48020668 19.56907624 31.44443432 -0.00325660 -0.00351791 0.00794051
O 0.93571291 14.43745941 25.84822676 -0.00423779 0.00708854 0.00106588
O 2.50033278 9.82316968 27.33945304 -0.00202764 0.00289240 -0.00379419
O 0.51492209 27.90808058 2.27196204 -0.00368454 0.00277420 0.00527540
O 1.61526689 23.11959740 3.63076631 0.00195392 0.00343836 0.00013884
O 4.48463790 20.36947125 9.53918465 0.00356636 0.00091179 0.00221090
O 3.06653102 25.37990463 8.18336944 -0.00616180 -0.00968868 -0.00023802
O 1.11113440 24.18939193 9.53611901 0.00045125 -0.00443564 -0.00141656
O -0.30539048 29.01970135 8.18410282 -0.00214661 -0.00682100 -0.00209068
O 3.60657102 24.17870045 2.43002520 0.00226597 0.00000921 -0.00216448
O 5.34654702 19.67734770 4.04087044 0.00045105 0.00263933 -0.00303731
O -0.70672816 27.97394608 14.21625071 0.00235884 -0.00784802 0.00269696
O 0.25388165 23.02762159 15.28673556 0.00139083 0.00199413 -0.00044341
O 2.78573572 20.16052344 21.67920263 0.00443887 0.00184486 -0.00193428
O 2.07004885 25.32134587 19.96531822 -0.00009792 -0.00160492 -0.00042085
O -0.02004050 24.25543758 21.43486340 -0.00413679 -0.00213141 0.00697416
O -1.75508173 0.19124859 20.05227716 -0.00110673 0.00375488 -0.00211873
O 2.48225872 23.87994676 14.25445748 -0.00289175 -0.00322393 -0.00082423
O 3.77434022 19.22981679 15.35601826 -0.00032049 -0.00190307 -0.00861878
O -2.43471463 27.89126770 26.13616181 0.00196025 -0.00047287 -0.00247827
O -1.07672551 23.09604549 26.86698119 0.00691428 0.00714513 -0.00501774
O 1.31849550 20.81333330 32.67990706 -0.00131870 -0.00130176 0.00004978
O 0.33485495 25.43846884 31.83560576 0.00274477 -0.00581769 0.00165761
O -1.89553688 24.19998472 32.79587402 0.00303012 -0.00327967 -0.00259637
O -3.22652011 0.26109161 31.81639264 0.00021711 -0.00167724 -0.00047767
O 0.82870637 24.58265553 25.64383029 0.00704573 -0.00529926 -0.00060515
O 2.54146257 19.50036597 27.22211218 -0.00293746 0.00028040 -0.00306850
O 7.88920271 9.10872889 2.25171587 0.00546044 0.00307423 -0.00103938
O 8.86366462 3.89413888 3.31874630 -0.00196205 0.00203365 -0.00424350
O 11.29180774 1.38329237 9.21717472 -0.00492499 0.00004170 -0.00069192
O 10.22222009 6.02807938 8.10274277 -0.00550874 -0.00219556 -0.00087850
O 7.95020902 4.90857213 9.18341154 0.00159811 -0.00270060 0.00108213
O 6.76278753 9.79279181 8.35229378 0.00008349 -0.00312790 -0.00000590
O 10.85866325 5.03101301 2.09932786 -0.00317977 0.00313031 0.00192380
O 12.34624460 28.91876390 3.44550440 0.00157040 -0.00353015 -0.00186678
O 6.26286395 8.73869864 13.96642778 0.00229120 0.00268688 0.00222627
O 7.46843745 3.44045404 15.03400353 0.00030121 0.00003716 -0.00213204
O 9.62820844 1.01826016 21.34425818 -0.00138011 -0.00376523 -0.00061705
O 9.03095492 6.12825010 20.01336873 0.00426727 0.00726819 0.00405670
O 6.83887238 5.06382837 21.39900209 0.00008265 -0.00076489 0.00025939
O 5.07108303 9.84685414 19.96462391 -0.00288123 -0.00252020 0.00242825
O 9.51246400 4.82288771 14.18177049 0.00775185 0.00444977 0.00174250
O 10.87090100 29.13135070 15.31879731 -0.00282966 -0.00413027 0.00344648
O 4.34365615 8.45226902 26.14239835 0.00120136 -0.00234010 -0.00422828
O 5.54326719 3.89398759 27.02037930 0.00301567 -0.00242863 0.00635518
O 8.33967016 1.05041728 33.00592461 0.00398905 0.00843946 -0.00428733
O 7.18926256 5.92875797 31.95793289 0.00022786 0.00175464 -0.00221097
O 5.10442914 4.81506976 33.28580896 -0.00186562 0.00130603 0.00089960
O 3.64274994 9.98247269 31.92452864 -0.00152580 0.00450202 -0.00166825
O 7.88022463 4.87921036 25.95524623 -0.00639800 0.00048699 0.00090903
O 9.45601598 29.18905281 27.26630742 0.00096132 0.00241034 -0.00369419
O 7.31813150 18.46133252 2.41214164 -0.00092477 -0.00047190 0.00099299
O 8.55213258 13.94711236 3.59471250 -0.00268461 -0.00255829 -0.00643165
O 11.39467475 10.74259162 9.69412849 -0.00350501 0.00245118 -0.00229204
O 10.06843209 15.94100259 8.28882475 -0.00318381 0.00142905 0.00118253
O 8.14060584 14.55637889 9.29025842 0.00358023 -0.00293464 -0.00268777
O 6.58032053 19.44841959 8.08109629 0.00308442 0.00270400 0.00035746
O 10.83166694 14.85125297 2.26838403 0.00788639 -0.00437559 -0.00222721
O 12.71164423 9.77605267 3.63937979 -0.00295933 -0.00645871 0.00341587
O 6.02650928 18.50368522 13.98888697 -0.00362776 0.00065943 0.00138553
O 7.31915671 13.34627501 15.27154444 -0.00213501 -0.00367238 -0.00653086
O 9.82640581 10.89521753 21.19819181 0.00214805 0.00126576 -0.00233725
O 8.78807527 15.69279484 20.01132811 -0.00652526 0.00185360 -0.00126620
O 6.87063037 14.75532326 21.42529432 -0.00358973 -0.00049666 -0.00159062
O 4.62834281 19.55971482 19.70878836 -0.00284231 0.00428270 0.00202717
O 9.23430418 14.87492391 13.97380832 -0.00268822 0.00028821 0.00125680
O 10.93823721 9.67730305 15.11758609 0.00449286 0.00568402 -0.00424870
O 4.72010806 18.49657452 26.07824032 0.00401397 -0.00054311 -0.00010465
O 5.68854272 13.37562327 26.90658810 0.00355365 0.00300960 -0.00191940
O 7.97583796 10.38721370 33.43856483 -0.00432306 0.00443286 0.00453978
O 7.36325916 15.60211488 32.02350572 -0.00265958 0.00004257 -0.00483612
O 5.04780000 14.91695503 33.06958480 -0.00246702 -0.00168661 0.00363832
O 3.44855998 19.44636975 31.88531240 -0.00143918 0.00721593 -0.00435157
O 7.88479056 14.58207017 25.88895214 -0.00163870 -0.00160305 -0.00216271
O 9.16409856 9.91661874 27.11661448 0.00352463 -0.00665164 -0.00461557
O 7.92499675 28.33045282 2.36131407 -0.00087634 -0.00322538 -0.00131048
O 8.79832772 23.40156264 3.36454551 -0.00167484 0.00125370 -0.00325478
O 11.21531412 20.45374347 9.41379066 0.00386393 0.00483904 0.00081652
O 10.29936840 25.39366210 8.07061361 0.00042116 0.00381846 0.00559030
O 8.32342690 24.44975921 9.39423400 0.00431996 -0.00314843 -0.00636391
O 6.68631591 0.23914009 8.01699037 -0.00025724 0.00644259 -0.00515445
O 10.84359460 24.46888941 2.42533789 -0.00021298 0.00418503 -0.00048938
O 12.38219872 19.37283575 3.46208669 0.00198870 -0.01009783 -0.00298422
O 6.00951366 28.46394558 13.73720053 -0.00428310 0.00509712 0.00403969
O 6.90996202 23.66216725 15.38916153 -0.00002544 0.00245276 0.00209281
O 9.50873677 20.38990538 21.25906097 0.00380370 -0.00511792 0.00549217
O 8.80206141 25.54775636 19.84202040 -0.00005125 0.00265869 -0.00417790
O 6.81714726 24.71274963 21.62424199 -0.00317742 -0.00425475 0.00497082
O 5.11767553 0.10094413 20.20360016 0.00261663 0.00479927 -0.00394104
O 9.09936353 24.48057805 13.81337932 0.00366509 -0.00036225 -0.00206312
O 10.82470785 19.53284270 15.31471760 -0.00705611 0.00196228 -0.00268602
O 4.37803075 28.52100201 26.05307966 -0.00309427 0.00338316 0.00341326
O 5.41368181 23.22152552 27.09996592 -0.00237446 -0.00165911 0.00349459
O 8.33234654 20.54858291 33.14955659 0.00026333 0.00107313 0.00299685
O 7.09734512 25.70542011 31.90609300 -0.00375404 -0.00332048 0.00370824
O 4.89229615 24.76591594 32.90167363 0.00094179 -0.00483243 0.00420238
O 3.52405930 29.11538614 31.53463811 -0.00517161 -0.00155020 0.00083998
O 7.57140339 24.13039732 26.11960360 -0.00510285 -0.00114085 0.00199623
O 9.44731645 19.37736396 27.29809231 -0.00487052 -0.00564607 0.00242568
O 14.70164433 8.62233825 2.29113073 0.00204025 -0.00275564 -0.00369193
O 15.52774874 3.88181949 3.49848723 0.00767322 -0.00036083 -0.00628673
O 18.40822864 1.04308899 9.42739536 0.00574867 0.00148932 -0.00002003
O 17.34079924 5.50148490 8.10631225 0.00661132 -0.00242689 -0.00054906
O 15.00271765 5.15653519 9.14731487 0.00251714 0.00274622 -0.00016942
O 13.37410111 9.96648344 8.24151934 -0.00812777 0.00539294 0.00172028
O 17.80808736 4.61952998 2.39381452 -0.00017020 -0.00590476 0.00415530
O 19.02759484 28.97982429 3.43061123 -0.00127368 -0.00280067 0.00015630
O 13.09351324 8.70922716 13.89872256 -0.00017395 0.00202484 -0.00398840
O 14.07909880 3.58989475 15.26835475 0.00388505 0.00034012 -0.00157156
O 16.73576992 1.41915281 21.10672836 -0.00539004 0.00681296 -0.00448488
O 15.40834047 6.37067174 20.24791314 0.00155204 -0.00250475 0.00578022
O 13.62152771 4.94494508 21.57188668 0.00492396 -0.00432040 0.00256078
O 12.11360369 10.32696413 20.00255802 -0.00350610 0.00425952 0.00406964
O 16.24629863 4.68074211 14.08786858 -0.00250217 0.00596708 -0.00125418
O 17.78781002 0.01509871 15.35047165 0.00150127 0.00023218 -0.00594227
O 11.04825229 8.59185598 26.12509627 0.00105678 -0.00896214 -0.00008689
O 12.52155303 3.41296545 26.99925960 -0.00592386 0.00489009 0.00451262
O 15.01792444 0.72689365 32.95655839 -0.00325296 -0.00051410 -0.00193457
O 14.05410194 6.07453440 32.10613492 0.00654668 -0.00024568 0.00324373
O 12.19709055 4.52468523 33.34790263 -0.00205220 -0.00113045 -0.00650311
O 10.18345567 9.87165438 31.89846499 -0.00541885 0.00242848 -0.00337442
O 14.63317552 5.10027019 25.99686216 -0.00452822 0.00425290 -0.00326163
O 15.73381725 28.42560848 26.92037111 0.00522169 0.00428363 -0.00575880
O 14.57580224 18.73126687 2.40313881 0.00000036 0.00302097 0.00577858
O 15.72708972 13.44940715 3.35225414 -0.00170390 -0.00310304 -0.00183743
O 18.39731821 11.05608225 9.20733245 -0.00561409 0.00103179 -0.00618651
O 16.97312487 15.76857440 8.75804674 0.00303378 0.00123971 -0.00046387
O 14.67175207 14.24393629 9.55273486 -0.00497687 0.00476813 -0.00083576
O 13.17482958 19.39625522 8.13870233 0.00057986 0.00207640 -0.00527200
O 17.68637625 14.74495284 2.22774307 -0.00239498 -0.00029430 0.00104204
O 19.29853261 9.47697183 3.59786511 -0.00354113 -0.00487664 -0.00163382
O 12.79189308 18.38160612 14.15366399 -0.00654343 0.00063678 0.00023013
O 13.92034100 13.53926292 15.14008766 0.00248158 0.00046889 -0.00462492
O 16.66745132 10.67839857 21.03968861 -0.00147763 -0.00285014 0.00552650
O 15.48279346 15.51238141 19.97936021 0.00324049 0.00413203 0.00504753
O 13.45312764 14.43354157 21.27720020 0.00373955 0.00288039 -0.00574588
O 11.79020112 19.69070237 20.18424981 -0.00111648 0.00042692 0.00000512
O 16.10293069 14.41730173 14.13287371 0.00311323 0.00433230 0.00408920
O 18.08364519 9.51285167 15.24717083 0.00117122 0.00460482 -0.00510497
O 11.39464984 18.49258368 25.86604660 0.00146717 -0.00084814 -0.00228256
O 12.47468715 13.50092250 27.16738506 0.00296812 0.00488685 -0.00147465
O 15.11434046 10.65989921 33.02938928 0.00352535 0.00006511 -0.00159386
O 14.24930692 15.49194240 31.49713570 -0.00048857 0.00055654 0.00508192
O 12.23502753 14.50292368 33.26607813 0.00326740 0.00061657 -0.00256260
O 10.37739527 19.63371480 31.67350594 0.00062141 0.00946963 -0.00162544
O 14.32788524 14.20089730 25.65034240 0.00044218 -0.00137582 0.00715633
O 16.16497020 9.86916343 27.46998784 0.00325034 0.00047407 -0.00495898
O 14.44018194 28.15628018 2.20485660 -0.00561651 -0.00023914 0.00194718
O 15.49463399 23.20300919 3.50191713 -0.00047460 -0.01042232 -0.00076973
O 18.12234149 20.27556983 9.62224149 0.00412136 0.00358287 0.00332417
O 16.98285214 25.45535686 8.36478302 -0.00211466 0.00228082 -0.00028435
O 14.97991913 24.26110688 9.62082418 -0.00438999 -0.00708262 0.00616645
O 13.57938420 0.51935541 8.38099357 0.00489106 0.00744593 -0.00172878
O 17.54629427 24.16900088 2.33513573 0.00411404 0.00039544 -0.00866293
O 19.20677565 19.20761460 3.87994144 0.00364880 -0.00470172 0.00790174
O 13.07888501 28.22905771 14.18677267 0.00195890 -0.00204866 0.00118619
O 13.91158310 23.54064315 15.55711103 0.00601576 0.00170450 0.00274660
O 16.48018716 20.46335860 21.33226969 0.00040916 -0.00408203 -0.00202151
O 15.73843421 25.55721181 20.17747034 -0.00219822 0.00762701 -0.00482061
O 13.47438486 24.59955677 21.23937460 -0.00168914 -0.00135911 0.00495171
O 12.01269882 0.21567475 20.07901472 -0.00349425 -0.00200476 -0.00043183
O 16.05769356 24.11488138 14.15693107 -0.00503640 -0.00534552 0.00460919
O 17.67786164 19.30432278 15.50055180 -0.00307882 0.00016744 0.00638855
O 11.35651459 28.32477978 25.75569448 -0.00332522 0.00022771 0.00208938
O 12.40351472 23.22095070 26.85081997 0.00105315 0.00186068 0.00246979
O 15.11711490 20.42994542 32.84245968 0.00083338 -0.00273940 -0.00219407
O 14.31182078 25.05362394 31.83684793 -0.00064212 -0.00657910 -0.00008212
O 12.09438590 24.26246113 33.13007404 -0.00013452 0.00453785 -0.00149283
O 10.39220715 29.18985366 31.95447448 0.00106235 -0.00370821 -0.00494564
O 14.73575432 24.27797928 25.98116021 -0.00116832 -0.00697428 -0.00584496
O 16.26310554 19.66823345 26.89807894 -0.00292980 0.00152594 -0.00046445
H -0.03998096 9.05736474 2.60026995 -0.03058348 0.03099653 0.00354419
H 2.60896146 4.07494317 2.82199768 0.01005525 -0.02403140 0.01113574
H 5.49447988 0.77631017 8.82090793 0.01565081 -0.02425488 0.01425651
H 2.40089361 5.46482386 8.59841590 0.02150018 0.00609683 0.00384530
H 5.63862693 8.24939078 0.71280584 -0.03770131 -0.00326235 0.00789697
H 3.69530226 3.39596438 4.68042859 -0.01020217 0.01491095 0.01404428
H -0.33747697 1.20761476 11.41847685 0.01695208 -0.00019060 -0.00346447
H 1.53909954 6.24683066 6.57635977 0.00140598 -0.01691937 -0.00517038
H 3.81080815 6.40692957 10.93735314 -0.00869267 -0.01905763 -0.01330924
H 3.72552568 1.85496735 6.87941225 -0.01897777 -0.01523796 0.02219177
H 1.44976750 2.72468736 0.90372112 -0.01005587 0.00005896 0.02584691
H 1.60733314 7.67769945 4.72585974 0.01774185 -0.00702578 -0.00024646
H -2.05187273 5.43965603 35.14380302 -0.00739185 -0.00411487 -0.01221100
H -0.15802773 0.43660889 5.78955517 -0.02227370 -0.01302375 -0.00174573
H 2.75771741 4.33128413 11.93915418 -0.01699987 -0.00737293 0.00762413
H 5.55788656 8.92468327 5.97579237 -0.02178618 -0.00420833 0.02307702
H 2.71645201 6.98736330 1.65448379 -0.01149862 0.02238538 0.00307824
H -0.26851923 2.05279550 3.82766868 -0.00086867 0.00043079 -0.01165214
H 2.60840293 2.60392714 10.11202612 -0.01419260 -0.03057059 -0.00175996
H 5.21948359 7.67490411 8.04344905 0.00437351 -0.02699339 -0.00626404
H 4.82130870 5.17234875 9.33474244 0.00586512 0.01155135 -0.02363501
H 2.81607790 29.15207608 7.91477486 0.01507754 -0.01163660 0.03274071
H 0.32161608 4.63057331 2.17808586 0.02077691 0.00605365 0.00155690
H 2.54370011 9.58097384 3.91594690 -0.00738616 0.01473000 -0.01714788
H 5.43025620 4.97045440 7.19971044 -0.00584839 0.01037666 0.00582913
H 2.01918377 8.69472208 10.03495359 0.00463633 -0.01819529 0.00667302
H 19.22926980 5.68058714 4.56321162 0.01241875 0.00348574 -0.00315390
H 3.27215195 0.98728807 1.73713889 0.01391106 0.00217699 0.00706731
H -0.62759724 2.76238797 7.61964598 0.01193077 0.00048293 -0.02418086
H 0.72205670 7.60649592 9.86951269 0.01032227 0.00819216 0.01039789
H 6.23229561 5.74546553 4.51890563 -0.01307066 -0.01753209 0.00658241
H 4.16933881 2.26032823 2.54803494 -0.03492786 -0.01194245 0.00132135
H 0.69776313 3.53404875 7.09100006 -0.01681608 -0.02273276 -0.00945400
H 0.31272137 9.06326678 10.59710404 -0.00038148 -0.01856908 -0.00982813
H 6.07804263 7.08103096 3.11624842 0.01105412 0.03824875 -0.01475944
H 5.03245400 1.33265396 1.42426665 -0.00568129 -0.01559415 -0.00622003
H -1.35776438 8.91421661 14.29617166 -0.01952593 -0.00382462 0.01773921
H 1.23810051 4.17970582 14.93103033 -0.01497502 0.00257084 0.00019791
H 3.89400887 0.52853411 20.89663195 -0.00074687 0.02519614 0.02070827
H 1.05842170 5.62974082 20.31225340 0.01172277 0.00585252 -0.00768447
H 4.10547691 8.08215438 12.84346927 -0.01646919 -0.00244927 0.01089604
H 2.33154986 3.49344598 16.90751116 0.00707934 -0.00228996 0.00871413
H -1.77147020 1.90684145 22.68788412 0.00035100 0.02278584 -0.01118800
H 0.09342558 6.03565781 18.16936447 -0.00891168 -0.00709569 -0.00532793
H 2.49441739 6.78744328 22.44618212 -0.00836968 0.01494154 0.01982009
H 2.39142493 1.94734336 18.76905367 0.00220367 0.00695319 -0.00227770
H -0.31973469 2.89703112 13.19941207 0.00748929 -0.00849374 -0.03640374
H -0.02029612 7.87968126 16.36573756 -0.01486037 -0.01668777 -0.00089096
H 1.21691621 4.95825548 11.49249352 0.00632454 -0.00814991 0.00894600
H -1.62176390 0.77232533 17.94899336 -0.00631474 -0.02023732 0.01931408
H 0.96311538 4.14793496 23.59223427 -0.00280802 -0.00400174 -0.00291611
H 3.96019253 9.10499730 17.50449423 0.00687779 0.00250144 0.00790302
H 1.16522685 6.79767347 13.38668612 -0.01914877 -0.00317464 -0.03102434
H -1.56181624 2.09177024 15.90065782 0.00485762 0.00630330 -0.01620978
H 0.90246392 2.71633965 21.97761182 0.02483450 0.01594093 0.00109613
H 3.85263508 7.59767264 19.40388149 -0.02138410 -0.00020099 -0.00185803
H 3.71255923 4.91320856 21.21676429 0.01584513 0.00567977 -0.00200481
H 1.42382592 0.27708401 19.93214883 0.01291518 0.01672580 -0.03954601
H -1.22256759 4.77112602 14.16157764 0.01923210 0.00735962 -0.02675779
H 1.02429633 9.53145480 15.28047351 0.01055856 0.00630962 0.00317248
H 5.24405318 2.85238890 20.01954235 0.00805872 0.00387685 0.00113030
H -0.79606535 8.53270005 22.06825069 -0.01010460 0.00648319 -0.01133905
H 16.64918699 5.85412418 16.17987729 0.00689181 -0.00147126 -0.01319489
H 2.33770445 2.14054884 14.15261476 0.00659666 -0.00370428 0.02431891
H -1.51847117 2.89725361 20.30802018 -0.00282489 -0.00522095 -0.01938122
H 0.71387397 7.96090578 21.04191612 0.01130274 -0.02100440 0.00084684
H 5.07340533 6.32071296 15.37958307 0.02682769 0.02942581 0.00847481
H 2.71250376 0.91080852 13.07054776 -0.00398941 -0.00616911 0.00309498
H -1.12963451 4.08777522 18.98594231 -0.05435639 -0.01308842 0.03058644
H -0.85246444 7.54761865 20.49766089 0.01563010 0.02907577 0.01615018
H 3.30021098 6.64327052 15.52462717 0.00151518 -0.00698865 -0.00030418
H 1.06451308 0.94281000 13.80581923 0.01029967 0.00244827 0.00635767
H -3.19581968 9.24849898 26.47148991 -0.01919022 -0.00581284 -0.00340450
H -0.36420719 4.25894087 26.62251931 0.00865533 -0.02613090 -0.00006866
H 2.27215268 0.59616748 32.74410511 -0.01625284 -0.01324814 -0.01786046
H -0.58839614 5.81325168 32.32596894 0.01965520 0.00181543 -0.01115761
H 2.52608101 8.12576359 24.33836593 0.00723572 0.00546684 0.00512980
H 0.93776510 3.27932834 28.32170918 0.05429304 -0.00035708 0.00778089
H -3.50195382 1.14828254 34.41881657 0.01497831 -0.01266919 0.00821168
H -1.62872603 6.37498451 30.34136576 -0.00267863 0.01128585 -0.01750660
H 1.10552138 6.94817359 34.22053744 -0.00076500 0.01721252 0.02827179
H 0.71332851 2.24413838 30.54561072 -0.01324679 0.01190512 0.00450968
H -1.81209006 3.40855729 24.70667796 -0.00648406 0.01821760 -0.00546366
H -1.61616935 7.65822908 28.27673674 -0.02031107 0.00771362 -0.00399862
H -0.30692265 5.92371987 23.26278467 0.01970374 0.00483792 -0.00807745
H -3.22554647 1.11648502 29.75152132 -0.00225284 0.00480525 0.01108321
H 4.25231427 4.33411616 0.07521239 -0.01546310 0.00221645 -0.01034311
H 2.17761604 9.40716047 29.36050079 0.00172461 -0.01415437 0.01157009
H -0.39011053 7.23255853 25.37456293 -0.00076367 -0.01411003 0.01198507
H -3.25350037 2.58877935 27.76187645 0.00861738 0.00012725 -0.02635017
H -0.50150635 2.94179561 33.49191745 0.00862968 -0.01220710 -0.03977499
H 2.15084278 8.07555409 31.42435111 0.00251904 -0.00580557 0.00905066
H 2.00574010 5.03075543 33.20292424 0.02921681 0.01105067 0.00670769
H -0.08359880 0.05253871 31.47908436 -0.01694820 -0.00759468 0.01168608
H -2.80745418 4.86391535 25.87727118 0.00572790 0.00768504 -0.00081955
H -0.70991877 9.75881831 27.16127548 -0.02126982 -0.01165937 -0.03021757
H 3.10787531 4.49609413 31.03478118 -0.02608673 -0.02228879 -0.01564066
H -0.95484927 8.72811630 33.54592899 0.00631085 0.00777631 -0.00024578
H 15.82297502 5.85327534 28.34187432 -0.00271440 -0.00146595 -0.00834940
H 0.48635079 28.81876627 24.87333321 -0.04656062 -0.01158578 -0.02750207
H -2.44613021 4.21729719 30.80940712 0.01785132 0.02427147 -0.00852916
H -2.21681518 7.63127157 32.66129366 0.00003738 -0.02260045 0.00736459
H 1.52433382 5.90522394 27.98052821 -0.00062387 0.00480465 -0.00292085
H -0.38818746 1.19245224 25.33700728 0.04030555 -0.02404686 0.00476182
H 16.45635216 4.44421906 30.87741171 -0.01741833 -0.00923937 -0.01604717
H -2.67254724 8.89171588 33.84112327 0.01474815 0.01596129 -0.00950244
H 3.16208017 5.81719652 27.55370105 0.01769420 -0.00047799 -0.01430627
H 1.28069668 1.11263469 24.72737565 0.00122983 -0.00878920 0.00152591
H 20.17772602 18.59471016 2.92915640 0.01687640 -0.03854292 -0.00700262
H 2.61187213 13.87509450 3.22333726 0.00718880 -0.01232683 -0.00772499
H 5.40781008 10.09794757 9.21465478 0.00177839 0.02419294 -0.01548183
H 2.28692405 15.33554763 8.63084326 0.02396730 0.00887450 0.01885185
H 5.43962881 18.10599581 0.62226682 -0.00233051 0.00324878 0.00407056
H 3.80435374 13.09116545 5.33462368 -0.00175246 0.01897880 -0.01389450
H -0.05165943 11.41588962 10.93606566 -0.03022403 -0.00952470 0.00039103
H 1.16267176 16.05634830 6.74171511 -0.00533551 -0.02682048 -0.01597805
H 4.14590252 16.32395599 10.50494108 0.00785973 -0.02794111 0.02661562
H 3.81313812 11.23453008 7.08229656 0.01798007 0.01507270 0.01716570
H 1.14887262 12.71350842 1.26591976 -0.01259609 -0.02640618 -0.00478263
H 1.45880390 17.18864599 4.57262749 0.01154100 -0.00046369 0.00998419
H 2.77394768 15.33809458 0.09785530 0.03033219 -0.00657173 -0.01478426
H -0.09268811 10.10428675 6.06035367 0.00359266 -0.01393033 0.01615179
H 2.56188875 13.95745604 11.63825634 -0.03707712 -0.00362629 -0.02413648
H 5.03549335 18.87726250 5.77221197 0.01073622 0.02371764 -0.02351825
H 2.57622146 16.82969714 1.69573277 -0.01904229 0.02457687 0.01403107
H -0.08731526 11.63122800 4.21604477 -0.01260840 -0.01229975 0.00139429
H 2.47242330 12.21884667 10.09100093 -0.02344437 -0.01404200 0.00572956
H 5.37605379 17.14534722 7.59148765 0.01599761 0.00868714 0.00223567
H 5.08093291 14.68355387 9.51572426 -0.01352389 0.00094112 -0.01795153
H 2.73346658 9.64962458 8.47701940 0.00011371 0.01099414 0.02096944
H 0.17814463 14.45448632 2.43231814 -0.02013045 -0.00054635 -0.00228991
H 2.28012588 19.05892949 3.59904511 -0.05722103 0.00438113 -0.03829109
H 5.52774995 13.34878542 7.80463479 -0.01815257 0.01403651 0.03845951
H 0.42095162 18.37615208 10.50221114 -0.00560860 -0.00411076 0.00102298
H 18.30327933 15.29326316 4.73256877 -0.01944090 0.01286145 0.01309456
H 3.03508739 10.75838584 2.19001197 0.01479059 -0.00530776 0.00253748
H -0.45738553 12.28777570 8.55617194 0.01496286 0.00863683 0.00351564
H 2.26391316 18.31849959 10.03545611 0.01329038 0.01079278 0.01613250
H 5.40380974 17.15669373 3.13777037 0.01272769 0.01679327 -0.00994719
H 4.33914492 11.98520865 2.88395882 0.00620637 -0.02810674 0.01271676
H 0.27310972 13.12931037 7.25763335 0.01107404 0.00688999 0.02733179
H 1.11264102 17.23068533 9.31081619 -0.00494657 0.00832234 0.02947240
H 5.01326976 15.96242947 4.38741037 0.01986940 0.00095201 0.00880240
H 4.71272012 10.61695937 1.56539120 0.00906737 -0.00588777 0.00620289
H -1.86836218 18.68458411 14.55213550 0.01644228 -0.01090931 -0.01621764
H 1.54429863 13.90392038 14.65918352 0.01746091 -0.00258512 -0.02544920
H 4.01153309 10.59439086 20.88973233 -0.00959181 0.03302459 -0.00859668
H 1.07498801 15.42162658 20.82911357 0.01183968 -0.00821483 -0.01316287
H 4.09407296 18.16933190 12.44032594 0.00859788 -0.02450581 0.00571016
H 2.59752770 13.17318483 16.97296164 0.01235382 -0.00807803 0.00104625
H -1.95031504 11.02768409 22.67172747 -0.00269396 -0.00118270 0.00898143
H -0.07442084 15.65201507 18.68417948 -0.00100247 -0.01722501 -0.02131356
H 2.73362136 16.27552844 22.55541487 -0.00509251 0.01656528 0.00193564
H 2.62972159 11.49728364 18.69323142 -0.01347898 0.01305228 -0.01885382
H -0.12918334 12.89443405 12.78236010 -0.00735790 -0.00217038 -0.01209516
H -0.27935011 17.07874668 16.63418464 -0.00265347 -0.00640121 0.00573146
H 1.00155420 15.14155054 11.72688109 -0.00556014 0.02215289 -0.00513323
H -1.28901476 10.26211152 17.63974241 0.01227928 0.01078792 -0.00146516
H 0.89465498 13.82361980 23.83394242 -0.00087581 -0.00475560 0.00087694
H 3.64412841 18.72973511 17.36876550 -0.00753256 0.00628524 0.00451115
H 1.10762523 17.04713829 13.18245299 -0.02778570 -0.01660579 0.01021927
H -1.31688262 12.06883478 15.96600075 -0.01433105 0.00462345 0.01584949
H 1.11223718 12.17600049 21.90494384 -0.00139790 -0.01695671 -0.00911198
H 3.82066044 17.09120012 19.42817913 0.02436144 -0.00218048 -0.00632452
H 3.73106289 14.61164198 21.73074701 -0.00146446 -0.00205574 -0.01638897
H 1.59063145 9.80449446 19.97956157 -0.03671102 -0.00086327 -0.02884915
H -1.28705856 14.59908242 14.06840630 0.01218479 -0.01701004 0.01002061
H 0.65118740 19.17117454 15.68558514 -0.01363237 -0.02058572 0.02771145
H 5.24505420 12.50065938 20.37779189 0.00381103 0.00439725 -0.00955649
H -0.68939097 17.20114761 21.46489851 -0.00359048 -0.00346622 -0.02508290
H 18.28547122 15.07435026 16.45214566 0.00756089 0.02026796 0.01412016
H 3.81941350 11.12141337 13.55162691 -0.02172857 -0.02236641 0.00376332
H 17.71926388 13.64751766 19.82772164 -0.01693262 0.00068674 0.01558517
H -1.18974740 18.73180455 22.34420886 -0.00207846 0.00724186 0.01562711
H 3.57696591 14.86902259 16.29757727 -0.00434492 0.02861346 -0.01792328
H 2.00625980 10.90223282 13.55601716 -0.01410560 0.02610781 -0.02490413
H -1.15168018 12.93266305 19.78745788 0.00084544 -0.01127976 0.02229038
H 0.62815592 18.42405988 21.87984327 -0.01058628 -0.02026474 -0.00444004
H 5.00114482 15.51737648 15.64204564 0.00389972 -0.00190324 0.00733833
H 2.75311078 11.99711032 14.54791812 0.01479237 -0.00161608 -0.02227908
H -3.19804531 18.77010305 26.44516224 0.00395860 -0.01537019 -0.01158145
H -0.33098196 13.69821740 26.52046646 -0.02887358 -0.00385442 -0.00881923
H 2.41050750 10.71772032 32.57457926 0.01068162 -0.00685667 -0.00959454
H -0.65295888 15.49219160 32.20168636 0.01671734 -0.01140195 -0.00602379
H 2.55455408 17.79563268 24.66835270 0.00821272 -0.01049491 -0.00542095
H 0.74717934 13.17914041 28.62440490 0.01420901 0.01456550 -0.00542375
H -3.48130829 11.21127125 34.50851615 0.00892358 0.01872735 -0.00604237
H -1.68732755 15.97479445 30.00959233 -0.00913198 -0.00614743 -0.01012763
H 0.91577269 16.26644460 34.15222416 0.00822967 -0.02896743 0.01257127
H 0.87658766 11.42357388 30.39263636 -0.01120197 -0.00796696 -0.00954678
H -1.94420053 12.67939502 24.55822682 0.00949059 0.01419615 0.02539798
H -1.62570758 17.45924407 28.21948264 -0.00163509 -0.02317501 -0.02480699
H -0.43043339 15.21485181 23.49537390 0.01466276 0.01238270 -0.00743691
H -3.14917094 10.39291731 29.68894496 -0.00441507 0.01243778 -0.00004123
H 3.94948421 13.86398513 0.21651328 -0.01438661 0.01292375 0.00668198
H 2.12936744 19.01704629 29.33692832 -0.02331124 0.00952218 0.00424622
H -0.29491022 16.93072778 25.10320512 0.01423262 0.02487079 0.00100624
H -3.29241215 12.19524323 27.83668802 -0.01653152 0.00299424 -0.02009456