2160
Time=28000.00000000 pbc="T T T" Lattice="20.57532637 0.00000000 0.00000000 0.00000000 28.94460124 0.00000000 -4.74276358 0.00000000 35.76638509" energy=-13796.76282942 virial="-66.33917124 0.67807915 58.88257327 0.67807915 -68.53259069 -26.08244831 58.88257327 -26.08244831 -77.51356797" stress="-0.00049095 0.00000894 0.00283503 0.00000894 -0.00082775 -0.00114470 0.00283503 -0.00114470 -0.00114060" Properties=species:S:1:pos:R:3:vel:R:3
O 0.51926159 8.47969410 2.37620672 -0.00147553 -0.00105726 0.00323439
O 1.84689897 3.66575945 3.40013052 0.00150262 0.00701349 -0.00358775
O 4.44878575 0.73351544 9.39658977 -0.00089313 0.00748110 -0.00539361
O 3.33861217 5.97153442 8.19248994 0.00098360 0.00197236 -0.00341341
O 1.32918888 4.99363839 9.57538824 0.00635969 0.00075581 -0.00260959
O -0.13053573 9.76990144 8.40778029 -0.00420964 -0.00045330 0.00201619
O 3.63795189 4.89454272 2.16940747 0.00137157 -0.00241918 -0.00173311
O 5.38586100 28.86859597 3.50032734 -0.00730581 0.00654494 0.00228171
O -0.79248833 8.62310223 14.21033322 0.00046728 0.00480968 -0.00349142
O 0.41549991 3.74560578 15.56939464 -0.00243397 0.00153967 0.00301476
O 3.23701899 0.81417813 21.72753041 -0.00239265 0.00190618 0.00213442
O 1.89415369 5.79442253 20.22979001 0.00212232 -0.00529150 -0.00070821
O -0.47412454 4.93270090 21.52719025 0.00287476 0.00462085 -0.00165853
O -1.65401689 9.57379342 20.47275773 -0.00015464 -0.00155030 0.00125139
O 2.28529633 4.45908927 14.06738693 -0.00141968 0.00324535 -0.00421438
O 4.04876159 0.21359315 15.96363215 0.00930350 -0.00204913 -0.00896538
O -2.73627392 8.70687299 25.84823334 -0.00092918 -0.00008672 -0.00036230
O -1.29181942 3.28965607 27.09127310 0.00456808 -0.00609350 -0.00145912
O 1.37975775 1.24147751 33.27609673 0.00253920 0.00181511 0.00737227
O 0.12110868 5.59633559 31.71203561 0.00273787 -0.00399927 -0.00803909
O -1.83169648 4.95260474 33.27961982 -0.00196324 0.00231892 0.00082308
O -3.67855035 9.77694380 32.22679141 0.00308292 -0.00563298 -0.00153289
O 0.64163861 4.72186756 26.20758018 -0.00012339 0.00059642 0.00573843
O 2.28579429 28.70982429 27.20882349 -0.01223322 0.00057432 0.00033078
O 0.91875119 18.27224616 2.49314453 -0.00000934 0.00137860 -0.00489996
O 1.65121469 13.37876604 3.46156453 -0.00366082 0.00088054 0.00197005
O 4.48634967 10.67567525 9.39386345 -0.00510155 0.00057787 0.00140481
O 3.43019420 15.56467971 8.53329633 -0.00023215 0.00571552 0.00097529
O 1.46594251 14.45133959 10.01420945 -0.00089839 -0.00274850 0.00763925
O -0.09679743 19.65808084 8.28107811 -0.00109024 -0.00039464 0.00710974
O 3.76938917 14.39512484 2.37921404 -0.00140156 -0.00254006 -0.00398208
O 5.40251645 9.90787401 3.57620376 -0.00587676 -0.00359129 -0.00771394
O -0.76218446 18.06557411 14.66983917 -0.00467146 0.00264196 -0.00042815
O 0.17796721 13.38405814 15.68698467 0.00494038 0.00149989 0.00084157
O 3.21267612 10.98846222 21.08644473 -0.00557881 0.00069515 -0.00207164
O 2.02517270 15.47796780 20.70554532 0.00232449 -0.00038564 -0.00817065
O -0.18390599 14.26751083 21.55790251 0.00423518 0.00196596 0.00147242
O -1.79585899 19.16038992 20.22710353 -0.00610612 0.00041406 -0.00098897
O 2.26142412 14.10728068 14.29269130 0.00381759 -0.00291867 0.00072592
O 3.92109791 9.12928654 15.37782445 0.00249380 -0.00074641 0.00141316
O -2.16401162 17.99642890 26.51443115 0.00139884 0.00014421 -0.00141204
O -1.34626834 13.18815832 27.21591743 -0.00104613 0.00178055 -0.00733132
O 1.01607917 10.51207204 33.50150329 0.00952132 -0.00042773 -0.00375259
O 0.32983959 15.60741671 32.19482566 -0.00139282 -0.00317264 -0.00399197
O -1.69875982 14.61367128 33.39285195 0.00287048 -0.00487318 0.00168735
O -3.34262650 19.42696341 31.97809254 -0.00211976 0.00426090 0.00537067
O 0.97287729 14.16676685 26.20785453 0.00000300 0.00126228 0.00197803
O 2.19257065 9.55478429 27.41642146 -0.00766794 -0.00149030 0.00393984
O 0.70036063 28.13705851 2.30278490 -0.00076990 0.00243169 0.00639987
O 2.31244676 22.96830695 3.39515879 -0.00179488 -0.00577313 -0.00390422
O 4.58786004 20.46035064 9.50045222 0.00012096 -0.00584573 -0.00246777
O 3.13334084 25.32628374 8.40123133 -0.00113380 0.00163700 0.00103573
O 1.47682725 24.05046683 9.87930355 0.00935850 -0.00140792 0.00419202
O -0.32305919 0.22403470 8.24677720 -0.00415200 0.00157235 -0.00110429
O 3.87145181 24.23816414 1.82461782 -0.00160870 -0.00181035 0.00154162
O 5.63959220 19.21655729 3.87769773 -0.00379207 0.00149843 -0.00501781
O -0.98757606 28.12952805 14.13344670 -0.00005210 0.00360641 -0.00051803
O 0.41582175 22.64863223 15.54693780 0.00187837 0.00435577 0.00436756
O 3.10592125 20.21530672 21.58316993 -0.00428792 -0.00087413 0.00575723
O 1.59024052 25.05012040 20.10124614 0.00059591 0.00465473 -0.00504511
O -0.31261918 23.70474482 21.42854032 0.00452979 0.00235799 0.00101806
O -1.59041533 0.13846481 20.43216841 0.00649155 0.00009529 0.00949996
O 2.30518240 23.91822734 14.39284722 0.00029860 -0.00400734 -0.00190667
O 3.92692116 18.97521002 15.48178788 -0.00139877 0.00107602 0.00644110
O -2.38812530 27.83253719 25.90946363 0.00412888 0.00534424 0.00135853
O -1.00979787 22.80776369 27.18583158 -0.00131459 0.00150283 0.00698569
O 1.63624765 20.24717494 33.43065907 -0.00250731 -0.00091431 0.00098721
O 0.35216009 25.05569500 31.95128975 0.00000858 -0.00985720 -0.00523691
O -1.73254346 24.48906546 33.67406558 0.00338912 0.00299592 -0.00668877
O -3.32847889 0.25382792 32.04714002 0.00458750 -0.00200782 0.00057879
O 1.00569869 23.93763018 26.19442568 -0.00162975 0.00704430 -0.00066700
O 2.55840381 19.23748420 27.67011390 -0.00260111 0.00619674 -0.00305858
O 7.44574081 8.71603540 2.48165313 -0.00315697 -0.00301717 -0.00054597
O 8.81498037 3.89407747 3.64278582 0.00371377 0.00325501 0.00372772
O 11.08922489 0.97905628 9.27118763 -0.00588594 0.00434267 0.00169200
O 10.16819735 5.75560115 8.18419061 0.00004460 -0.00197708 0.00099912
O 8.17854439 4.68144332 9.46599991 -0.00220042 -0.00072525 -0.00269902
O 6.52938828 9.66794008 8.41751894 0.00680477 0.00128544 -0.00077569
O 10.69850417 4.92804960 2.24105988 -0.00418468 -0.00184512 -0.00115562
O 12.24979165 0.09564678 3.81576631 0.00145438 0.00020017 -0.00557037
O 6.00888381 8.44661334 14.00569959 -0.00490777 -0.00250522 -0.00141448
O 7.41717821 3.75848505 15.33380157 0.00231568 0.00005745 0.00518037
O 9.97272684 1.15127031 21.32345332 -0.00453011 -0.00615422 -0.00040602
O 8.50040386 5.60714847 19.95249244 -0.00274657 0.00394523 0.00044552
O 6.84408667 5.04246325 21.74830360 0.00125690 0.00100626 -0.00139879
O 5.03570067 9.48414627 19.92257923 -0.00448356 -0.00029314 0.00253752
O 9.45176267 4.69802862 14.12979511 0.00130800 0.00028770 -0.00015819
O 10.78928784 28.90263735 15.54580808 0.00148775 -0.00974096 -0.00143266
O 4.48929282 8.76281862 26.07807007 0.00377716 0.00192538 -0.00161951
O 5.53941251 3.61380525 27.35217313 -0.00261694 -0.00248682 0.00083338
O 8.22259111 1.26707479 33.45836938 0.00305754 -0.00176676 -0.00102917
O 6.78388094 6.04461660 32.25589296 0.00426775 -0.00956928 -0.00155722
O 4.88005391 5.02249871 33.56431019 -0.00033504 0.00143871 0.00093687
O 3.22533079 9.96499960 32.30901410 -0.00116796 0.00123220 0.00232359
O 7.52323065 4.60072058 26.15563741 0.00046394 0.00259560 -0.00174035
O 9.17567212 28.71030211 27.24591440 0.00114000 0.00501518 0.00878651
O 7.60735534 18.47681970 2.29283523 -0.00073456 -0.00771031 -0.00421986
O 8.63501491 13.62449899 3.79477708 -0.00126687 0.00009597 -0.00259213
O 11.51625196 10.76762125 9.50242675 0.00086579 0.00126930 0.00193038
O 9.97659832 15.56729911 8.37451651 0.00333081 -0.00045331 0.00116641
O 8.04901764 14.00562493 9.86531006 -0.00309277 -0.00043780 -0.00390216
O 6.48726585 19.35783067 8.17555056 -0.00271778 0.00048065 0.00695695
O 10.80730345 14.46089611 2.38125008 0.00522875 -0.00518135 0.00556577
O 12.38756762 9.75913275 3.58800211 0.00215665 -0.00332962 0.00071435
O 6.18839492 18.22076441 14.43584749 0.00286789 -0.00356530 -0.00434178
O 7.05476272 13.40510594 15.51955493 0.00058139 0.00185765 -0.00341282
O 9.97528020 10.77474912 21.50176233 -0.00622826 0.00144351 0.00470153
O 8.70571596 15.67228971 20.45344109 -0.00238023 -0.00119847 0.00150932
O 6.85505766 14.60105072 21.81583635 -0.00109980 0.00188145 -0.00331882
O 4.94878539 19.07309743 20.03368708 -0.00071276 0.00371178 0.00044189
O 9.22895252 14.31911538 14.25728521 -0.00027472 -0.00730553 0.00308783
O 10.87211430 9.73712482 15.60442379 0.00048550 0.00044099 0.00007356
O 4.66227787 18.18070465 26.60226821 0.00345082 0.00464504 -0.00111731
O 5.61079834 13.18973663 27.24479205 -0.00786969 -0.00474584 -0.00694500
O 8.03352982 10.73639274 33.55676822 0.00135823 0.00421880 -0.00973911
O 6.95838564 15.36322158 32.63158209 0.00182397 0.00346740 -0.00322887
O 4.85188375 14.50731901 33.45008524 0.00295283 0.00311796 0.00600190
O 3.67839951 19.42655850 32.18988525 0.00679021 0.00122509 0.00566120
O 7.84334943 14.19692981 26.28114964 -0.00389082 0.00569611 0.00409775
O 9.29452730 9.63324554 27.82168170 0.00573100 -0.00418402 0.00055275
O 7.71781729 27.88376179 2.49503442 0.00292008 -0.00118928 -0.00381982
O 8.64690349 23.08337799 3.60363182 0.00299136 0.00387714 -0.00161636
O 11.52168933 20.46768642 9.60373272 0.00110311 -0.00097257 0.00278600
O 10.15815025 25.28606501 8.38637902 0.00022719 -0.00227174 -0.00143161
O 8.03783112 24.20785346 9.61516958 0.00089716 0.00227044 0.00798945
O 6.44937627 28.74877818 7.95664501 0.00750863 0.00375979 -0.00171974
O 10.73068986 24.06350603 1.98435840 0.00192167 0.00144895 0.00826604
O 12.41339341 19.54383768 3.85888187 0.00111727 0.00496424 0.00410792
O 5.69589944 27.95097336 14.37741692 0.00253451 -0.00044795 -0.00021177
O 7.07900801 22.74689570 15.45152402 0.00427978 0.00281107 0.00681428
O 9.97727397 20.22783278 21.33550327 -0.00612622 0.00382010 0.00182649
O 8.61083534 25.27747739 20.43604137 -0.00017743 -0.00429760 -0.00163415
O 6.63609387 24.11654940 21.62411857 -0.00194651 0.00168669 0.00331541
O 5.04061478 0.05552075 20.04979657 -0.00284649 0.00392407 0.00757446
O 8.96535948 23.91041568 14.22397585 -0.00846061 0.00114817 0.00596189
O 11.06683570 19.31210350 15.87527883 -0.00113211 -0.00519021 0.00109756
O 4.40085238 27.75953077 26.04176605 -0.00783294 -0.00703810 0.00204339
O 5.83730494 23.06880546 27.52047942 -0.00116890 0.00128527 0.00408330
O 8.31474964 20.46624303 33.22151456 0.00295053 0.00707010 -0.01008471
O 7.32303280 25.05141187 32.22660775 0.00481613 -0.00070825 -0.00245390
O 5.22553097 24.43173405 33.48252059 -0.00044976 -0.00077479 0.00122913
O 3.52929039 0.18285772 32.35552828 0.00857684 -0.00292326 0.00461536
O 7.66768066 23.88359839 26.13538853 0.00176970 0.00553989 0.00303340
O 9.49743491 19.03477928 27.92309962 -0.00482923 -0.00153371 0.00760004
O 14.43232916 8.63275142 2.48787952 0.00165612 0.00338818 -0.00280602
O 15.65813322 3.74905949 3.59110884 -0.00379428 -0.00194933 -0.00243210
O 17.97146704 0.78451293 9.66089093 0.00521466 0.00047225 -0.00324205
O 17.03767262 5.72039034 8.09290060 -0.00734330 0.01018694 -0.00059873
O 15.02448217 5.13798851 9.49257956 0.00160917 -0.00084796 0.00551283
O 13.39294780 9.43602447 8.10851072 -0.00009235 0.00373042 -0.00251671
O 17.58813080 4.60169188 2.12036657 -0.00002017 0.00424965 -0.00064159
O 19.00181926 28.74631177 3.50068289 -0.00432135 -0.00136451 -0.00300243
O 12.99777739 8.71249665 14.36464730 0.00317815 -0.00198068 -0.00378240
O 14.13302474 3.79045102 15.37130178 -0.00241040 0.00326300 0.00253267
O 16.74917485 0.75741472 21.34249047 -0.00619254 0.00071879 0.00673273
O 15.16486103 5.88728981 19.99856300 -0.00058349 0.00587730 -0.00064033
O 13.33959747 5.12114990 21.54573045 0.00158588 -0.00100185 -0.00037664
O 11.67397546 9.84030339 19.99428939 -0.00048345 -0.00744848 0.00425005
O 16.31886893 4.82581951 14.20808272 0.00157937 0.00343158 0.00443671
O 17.70836918 28.88831042 15.65953765 0.00378371 0.00186165 -0.00639750
O 11.10752794 8.21865874 26.62434642 -0.00166759 0.00137408 0.00377112
O 12.45159485 3.57470740 27.37257849 -0.00474062 -0.00403906 -0.00087460
O 15.17999152 1.21570632 33.15627011 0.00246783 0.00102535 -0.00555840
O 13.70304328 5.65819239 32.38206679 0.00518372 0.00314486 -0.00678224
O 11.56298859 4.76277658 33.62151397 0.00093567 -0.00491631 -0.00191659
O 9.95439000 9.92305680 32.05007650 -0.00398054 0.00072416 0.00454032
O 14.46506205 4.43674356 25.92067254 0.00087318 0.00438677 -0.00815036
O 16.13337667 28.51675689 27.32001026 -0.00336904 -0.00548203 -0.00467215
O 14.35474517 18.21387921 2.78336294 0.00306343 -0.00361737 -0.00627906
O 15.58191601 13.58787591 3.48886252 -0.01064554 0.00118398 -0.00519034
O 18.37851869 10.91116185 9.35107617 0.00199026 0.00050126 -0.00426810
O 17.02287533 16.03462612 8.52534085 0.00550939 0.00346419 -0.00347452
O 14.94007407 14.78645170 9.60707820 0.00164636 0.00174036 -0.00022080
O 13.48886754 19.41011900 8.37483775 0.00230639 -0.00521717 -0.00272218
O 17.66159347 14.80104270 2.46838743 0.00135458 -0.00109262 -0.00091419
O 19.16671149 9.57587771 3.51818057 -0.00097867 -0.00342542 -0.00014581
O 12.98183789 18.31564463 14.50558671 0.00244412 -0.00480997 -0.00054488
O 14.01411605 13.44748834 15.22781618 -0.00292858 -0.00056840 0.00058244
O 16.63555595 10.64581313 21.22689807 -0.00009878 -0.00050113 0.00176875
O 15.46553722 15.60513269 20.50120052 0.00032357 0.00695586 -0.00647447
O 13.49291421 14.34123077 21.64328235 -0.00576116 0.00012634 0.00051137
O 11.97294760 19.27192450 20.24617824 -0.00339255 0.00213034 -0.00355978
O 15.93644697 14.69315030 14.10209805 0.00424537 -0.00050328 -0.00016028
O 17.74318211 9.62485701 15.59419911 -0.00056235 -0.00378476 -0.00016995
O 11.36482209 18.29860603 26.18204595 -0.00508165 0.00009423 -0.00204247
O 12.54359548 13.72237855 27.78345305 0.00088055 -0.00370032 0.00307462
O 14.75298886 11.04004460 33.47157404 -0.00835014 -0.00107356 -0.00147613
O 14.12126397 15.76018005 32.38139114 0.00150775 -0.00060352 0.00142005
O 11.86113253 15.22001267 33.35596255 0.00806031 -0.00117083 0.00424462
O 10.69692469 19.96105223 32.16084166 -0.00305254 -0.00050330 -0.00376658
O 14.63286652 14.34781079 26.14143164 0.00114081 0.00583962 -0.00140732
O 15.99722825 9.10314250 27.73027882 -0.00095958 0.00214359 0.00528448
O 14.38559967 28.22353004 2.34749772 0.00051931 0.00871199 0.00184784
O 15.58414213 23.08546532 3.57194059 -0.00472183 -0.00412716 0.00064703
O 18.46111136 20.50045565 9.64017331 -0.00012629 -0.00118331 0.00200918
O 17.00384009 24.93357832 8.10120538 0.00273895 0.00139176 -0.00515050
O 14.86409041 24.66392544 9.69060164 -0.00851632 0.00143643 -0.00236097
O 13.47351981 0.23890693 8.53922596 0.00664077 0.00325863 0.00017214
O 17.56954257 23.93327528 2.07483875 0.00335903 0.00312971 0.00472317
O 19.32893530 19.53540912 3.52675238 0.00053135 -0.00332556 0.00118735
O 12.88841651 28.08935222 14.51928142 0.00021672 0.00639680 -0.00257834
O 13.96020223 23.29758345 15.63053146 0.00038755 0.00616390 0.00487717
O 16.66947089 20.33186738 21.27428064 0.00215205 0.00065641 -0.00335328
O 15.52399733 24.99983653 19.96796014 -0.00383023 0.00576434 0.00324626
O 13.47606527 24.35051941 21.61216747 -0.00205979 -0.00052420 0.00101496
O 11.99185761 0.04862960 20.02812157 0.00275948 -0.00317428 0.00437035
O 16.10364242 24.17176576 14.24640530 -0.00107365 -0.00269003 -0.00578468
O 17.76736043 19.12468517 15.87731296 -0.00117941 -0.00057432 -0.00394077
O 11.37856389 27.79368783 26.44348446 -0.00274413 0.00180890 -0.00037893
O 12.62721085 23.00113734 27.11923531 -0.00260074 -0.00109992 -0.00010493
O 15.41749516 20.50327793 33.29301211 -0.00072122 -0.00523354 0.00191795
O 14.00517298 25.04203067 32.01631661 -0.00364037 0.00308055 0.00152580
O 12.01020517 24.19133967 33.80738988 0.00197913 0.00103797 0.00101707
O 10.36229292 0.14770462 32.07522278 0.00106907 0.00134938 0.00035044
O 14.84040408 24.07807677 26.09333169 0.00140271 0.00077238 0.00280959
O 16.23821512 18.98741484 27.33084380 0.00481761 -0.00417172 0.00174239
H 20.19909149 8.83598688 2.61688764 0.01033392 0.00680823 0.01330585
H 2.74910975 4.08700224 3.06554004 0.03602102 -0.00095182 -0.03165710
H 5.26115960 0.42961487 8.82361515 -0.00549884 0.00952589 0.00701842
H 2.38672341 5.77216501 8.44353774 -0.01009683 0.01782549 0.01469797
H 5.34588598 8.19552204 0.99517777 0.03400510 0.00507535 -0.00883100
H 3.77996298 3.41831957 5.19548242 -0.00366785 -0.01705072 0.00403235
H -0.48439250 1.37288187 10.92295012 -0.00340998 -0.00141397 -0.00189773
H 1.37273337 6.00889124 6.35860797 -0.01493721 -0.01462082 0.00177391
H 4.19389715 6.67285562 10.31152570 0.01570324 0.01758124 0.02699347
H 3.85704502 1.76219671 6.98259596 -0.01497251 0.02827671 0.01099957
H 1.13663399 3.06372897 1.06738204 0.00948969 0.02031889 0.00714348
H 1.19845175 7.75982965 4.52321552 0.01234810 0.00988269 0.02656445
H -2.21715226 5.46994768 35.49971652 -0.03335674 0.03563876 0.05688934
H -0.09244400 0.42988657 5.87675001 -0.03186392 0.00491899 0.00167267
H 2.53084265 4.20097649 11.80161660 -0.01051137 -0.00912389 0.00861333
H 5.32472306 9.02479074 5.60532672 0.00626154 -0.00373389 0.00256624
H 2.50511666 7.00318282 1.73237410 0.01305717 0.00540794 0.01028187
H -0.17675322 2.16437532 4.01503908 -0.02281883 -0.02998108 -0.00137770
H 2.38350108 2.32284305 10.10218747 0.01031309 0.00490711 -0.02124056
H 5.49326062 7.27082539 7.13959265 0.00610494 -0.01276161 -0.00946349
H 5.03096802 4.75511944 9.38992974 -0.01157784 -0.03311101 0.01224147
H 2.85027712 0.03762665 8.05522779 -0.01010116 0.00971019 0.02778719
H 0.04565272 5.02454717 2.15442314 0.02128645 0.00950368 0.02984522
H 2.21604727 9.50266241 3.50925967 0.01022007 0.02294874 0.00842761
H 7.48140838 3.67357638 7.25620374 0.00099737 0.02141814 -0.01110688
H 0.90521815 8.82831134 10.43974774 -0.00165612 0.02156049 0.00543848
H 20.01685789 6.20455877 3.55564879 0.01978132 -0.00193902 0.01116025
H 3.99313288 1.84573343 2.14787557 -0.00206595 0.02547224 0.01888458
H 19.30206505 3.43743885 8.46861424 -0.00853017 0.02356830 0.03049175
H 2.38271617 8.26548311 9.68950547 -0.00278950 0.01560850 0.00597539
H 5.97700106 6.54535117 3.71559079 -0.00586225 -0.02061780 0.01417886
H 4.54543559 0.40468923 1.03015721 -0.00748677 -0.02390918 -0.01021065
H 0.41474676 2.71827625 8.37538387 -0.02474552 0.00424992 -0.00941474
H 0.86252482 7.40718353 9.44292448 0.00995928 0.00803080 -0.01999848
H 4.27942659 6.26716185 4.31876401 -0.02520990 -0.00594076 0.02123707
H 2.90300595 0.71134232 1.56780116 0.00731109 -0.03161759 0.00636267
H -1.59768537 8.90382001 14.63079442 0.00917485 -0.01020677 -0.01012299
H 1.25891595 4.11201538 15.22542599 0.02164088 0.03276638 0.02486539
H 4.06720158 0.65574888 21.17771703 0.01308445 0.01261956 0.00949755
H 1.06955930 5.39925563 20.62173152 -0.00319449 -0.02009479 0.01123030
H 4.22881958 8.23499635 12.24808492 0.03645870 0.01818884 0.00383836
H 2.31091411 3.58747403 17.44277802 -0.00250024 0.01451339 -0.00962055
H -2.01827123 1.20178831 23.07740316 0.01835877 -0.00727102 0.00622818
H -0.13612487 6.24558721 18.61908455 0.00074835 -0.00716334 0.00480492
H 2.72507086 6.34024898 22.48126120 -0.00432340 0.01434559 0.01558664
H 2.51059279 1.87967931 19.15061598 -0.01303611 -0.00188346 -0.00418078
H -0.24991267 2.91510048 12.78517025 -0.00576769 0.00737006 0.00997000
H -0.14590468 7.77696310 16.60765709 0.00602993 0.03060989 0.01014566
H 1.29099507 5.49165726 11.57313726 -0.01089934 0.00313266 0.00803911
H -1.57060603 0.50879400 18.22059812 0.00191485 -0.03336098 -0.00148150
H 1.07638977 4.23717306 23.88440370 -0.00170161 -0.01127926 0.00842394
H 3.85158961 8.79374903 17.50468832 -0.00206729 0.02138506 -0.00483330
H 1.20172879 6.94319147 13.64921228 -0.01152870 0.00455043 0.01188898
H -1.64289033 2.31436965 16.37603769 0.00474944 -0.00204351 -0.00282270
H 1.28908733 2.50766737 22.07399484 -0.01011162 0.01286255 -0.00067891
H 3.98914344 7.10150150 19.33186047 -0.01000511 -0.01862494 0.02620976
H 3.81205827 4.28830133 21.86473401 0.00095820 0.00273026 -0.00529462
H 1.56754630 28.77425908 19.90943072 -0.00961283 0.01084533 0.01459008
H -1.10500849 4.79203338 13.93034066 -0.00054727 -0.00274717 -0.03880005
H 0.89967640 9.53080441 15.60004867 -0.01365164 0.00969862 0.01041138
H 6.12795266 2.47698602 20.94015855 0.00718561 -0.02074653 -0.00761094
H -0.23135056 9.22084971 22.76503080 -0.01752342 0.00941582 0.00350046
H 18.27837322 5.11901454 16.43327064 -0.00466129 -0.00284775 0.02615420
H 1.81839649 0.74483698 13.75032412 0.01660886 -0.00773415 0.00925766
H -1.53620258 2.48199484 20.28969759 0.00385649 -0.02002676 0.00410064
H 1.26551309 8.91548654 21.78532883 -0.01564923 -0.00412886 0.02832402
H 4.30175108 5.29490784 16.25916905 -0.03125788 -0.00645991 -0.01471908
H 2.08217151 2.14487056 14.69025547 0.02818300 0.00202755 -0.00417029
H -0.88254950 3.84280793 19.32356953 0.02628402 0.02188008 -0.01341762
H -0.18054464 7.71473095 21.92113428 0.02932638 -0.00922172 0.01670202
H 4.32016305 6.62197845 15.21238478 0.02720537 0.00340336 0.00672849
H 3.49489143 1.46465044 13.76511898 -0.00456564 -0.00994836 -0.01772733
H 16.96016870 8.81468864 26.34782311 0.00879061 0.02200206 0.01422772
H -0.49438805 3.84260023 26.92628370 -0.01386384 0.02564985 -0.00911589
H 2.25674471 0.80901516 33.12678240 0.01144122 0.00074476 -0.01477357
H -0.62660219 5.35573307 32.38720393 -0.01157115 -0.01629747 0.00620124
H 2.38804461 7.92089028 24.51840673 0.00729755 -0.01239631 -0.01008306
H 0.61835347 3.14831442 28.86283213 0.00728255 0.00568941 -0.04480306
H -3.41518985 1.69387179 34.93545536 0.00057836 0.00222725 -0.03426470
H -1.98032762 6.09088334 30.17623813 0.02790361 0.00840277 0.00022389
H 0.86854042 7.02336394 34.55611229 0.02469326 0.00376314 0.01555588
H 0.63363866 1.74767438 30.89161691 -0.00732482 -0.00858499 0.01958890
H -1.97534081 3.02198946 24.81360368 -0.01752435 -0.01301950 -0.01109858
H -2.08579410 7.97128468 28.51369951 -0.00652945 0.01288162 0.00851145
H -0.61501236 5.37049595 23.66075866 -0.02500052 -0.00044642 -0.02027624
H -3.22842652 0.41203978 29.87736282 0.01578780 -0.00497720 0.00477383
H 3.95336307 4.21009359 0.16133409 -0.00398819 0.02814616 0.00384493
H 1.93050287 9.06648805 29.72766593 0.01676130 -0.00908481 0.01912791
H -0.64282486 7.08664410 25.25345955 -0.00096489 0.02262229 0.01167339
H -3.35096773 2.03483836 27.96796468 0.02481439 -0.00304519 -0.01954739
H -0.92547965 2.52358159 34.16483581 0.00800157 0.00920660 0.00810810
H 1.94037998 7.47534058 31.43638797 -0.00458123 0.01404371 -0.00496848
H 1.71727681 4.95799818 33.58861596 -0.01903742 0.01080905 -0.03004989
H -0.27187755 28.91085293 31.92873931 0.00430254 0.02368989 0.02477036
H -2.94766216 4.50290077 25.81723836 0.01776306 -0.00813673 -0.00557357
H -0.96651581 9.48370538 27.48256613 0.02770757 0.03410968 0.01491650
H 3.98057155 4.22991481 31.15011458 -0.00096940 -0.01186828 0.00926040
H -1.58765049 9.27536464 34.24838255 -0.01455892 0.00353637 0.01714721
H 15.26231896 5.46863433 28.28629299 0.00498792 -0.01259692 -0.00169212
H 1.60894169 0.78408483 24.94535183 0.00621361 0.01801580 0.03031793
H -2.42095722 3.24439530 31.31163138 -0.02415205 0.00964739 -0.01483799
H -1.59138512 7.72990076 33.27934334 0.00831885 -0.00696341 0.01816776
H 1.28123203 6.05977835 28.20738511 0.01697975 -0.00034782 0.03074780
H -0.08340041 0.19167454 25.08241423 0.00701836 0.03730754 0.01016297
H -3.93200848 4.18983808 31.15779828 0.02049668 -0.01895187 -0.01930913
H -3.09215454 8.23600579 34.06107544 -0.01530461 0.00775133 0.01974490
H 2.91341649 5.57503536 28.15539249 0.01365339 -0.01685048 -0.00778742
H 0.40660096 1.68772901 25.96736819 0.01417501 -0.02299968 0.01593285
H 0.05149298 18.72577818 2.92667804 -0.02200441 0.00522686 0.01170744
H 2.51273025 13.89279412 3.21413384 -0.02031630 -0.00087340 0.01674893
H 5.31079877 10.10531767 9.34238685 0.00110307 0.00380554 -0.01166018
H 2.59927635 15.07174372 8.83557583 -0.00480933 0.00344697 0.03785437
H 5.29945704 17.69861456 0.94274004 -0.01247953 -0.00661473 0.00573897
H 3.62825934 13.19858395 5.12535385 -0.00267735 0.00377272 0.01816869
H -0.41220987 11.11828637 11.18836873 -0.02591315 -0.01333626 -0.03365923
H 1.34128327 15.89993779 6.77749001 0.00558238 -0.01143066 0.02792568
H 3.87919093 15.94849683 11.29690340 -0.01305283 0.00681585 0.00894777
H 3.86492115 11.53261204 6.85743476 0.00875910 0.00617689 -0.00342922
H 0.98747309 12.82065118 1.48218710 0.02566031 -0.00256800 0.01409555
H 1.41834057 17.31531032 4.86083392 0.00349965 0.00758300 -0.00822739
H -1.77320254 15.13948051 35.70727573 0.02549893 -0.00497685 -0.00802943
H -0.21841217 10.18525378 6.22322515 0.00138559 -0.00761336 0.00002141
H 2.53845157 13.74129360 12.27446370 0.00260880 0.02410557 -0.00770005
H 5.49360283 18.38994372 5.79914266 -0.00895406 0.00251192 -0.02625815
H 2.85116045 16.70471391 1.81651337 0.01152147 -0.02210847 0.00070135
H -0.20219655 11.46731235 4.15251964 -0.01335473 -0.00492256 0.00502763
H 2.45264270 12.07257481 10.35581915 -0.01741994 0.00061050 -0.01022008
H 5.44752872 16.66489683 7.58206032 0.03019438 -0.00433345 0.00581540
H 4.93005843 14.33527654 9.90009460 0.02225909 -0.01333513 -0.02040648
H 3.02557158 9.54580375 7.87755469 0.00397064 -0.01587118 -0.01106312
H 0.21985048 14.71240295 2.32310757 -0.01251797 0.02280323 -0.00516198
H 2.42546870 18.89699429 3.75040813 0.06701366 0.01520386 -0.01538683
H 6.64638662 12.15230657 8.52396954 -0.03498110 0.00777730 -0.00212936
H 2.16903219 18.87519175 10.28331218 0.00468880 0.00424168 0.01220179
H 19.25523922 16.84418083 3.55515029 0.01085285 -0.01574193 0.00645868
H 4.14262488 11.92354536 2.10587873 -0.00492235 -0.00081204 -0.00914448
H -0.87783398 13.66524906 7.92030547 0.00095227 0.00460379 -0.00061103
H 1.73691069 17.27341840 9.48074102 0.00794041 -0.00955235 -0.01140702
H 4.86667530 16.64890127 3.20839214 0.01208245 0.02906652 -0.00224325
H 4.46493194 10.40341287 1.34222447 -0.00195152 -0.00247120 0.02362856
H 0.15358272 12.36701170 8.62869547 -0.00050491 -0.01594081 -0.01085630
H 0.40321316 18.27384659 10.29608119 0.01514143 0.00547652 -0.01240701
H 4.67672810 15.48668449 4.54594555 0.00097311 -0.00903288 -0.01446040
H 2.78829551 10.80269362 1.89693919 0.03328080 0.00073054 0.00029911
H -1.58054696 18.51035103 14.88626862 -0.00691594 0.02856965 -0.02892474
H 1.08822356 13.64970582 15.34747549 0.06207956 0.00235115 -0.02090683
H 4.12525889 10.61042632 20.87451678 -0.00760988 -0.00194873 0.01225492
H 1.17301353 15.17914335 21.07365408 -0.00249995 -0.01250535 0.02508737
H 4.13649462 17.72042210 12.92389725 -0.02457192 0.00874736 -0.00743935
H 2.40687212 12.97012194 17.05366949 -0.00492634 0.00147126 -0.00629867
H -1.97393836 10.89204398 22.89337377 0.01675321 -0.00863993 -0.00704518
H 0.01228507 16.01736877 19.21623092 -0.00613684 0.00919455 0.00170006
H 2.70152540 16.34433393 22.95381022 0.01675749 -0.01144321 -0.02426576
H 2.45725679 11.45276584 19.05301416 -0.02358599 0.00079372 -0.03021996
H -0.47103231 12.52446398 13.18134824 -0.02327034 -0.00918321 -0.00864815
H 0.08154731 17.29626611 17.11931163 0.00267182 0.01410303 0.02168824
H 0.97938446 14.80014840 12.02004482 -0.03837309 -0.00519799 0.00702536
H -1.59677664 10.18399423 18.25039649 0.01771651 -0.00374980 -0.03642579
H 0.95482084 13.57822571 23.85362255 0.03018210 -0.00610580 0.01186116
H 4.03932951 18.45430242 17.81814598 -0.00607755 0.01037416 -0.01717436
H 1.17242519 16.56952263 13.84198120 0.00536496 0.00599365 -0.01464359
H -1.61475481 11.88955911 16.30931253 0.01048093 -0.00488003 -0.01849048
H 1.20951690 12.31460809 21.83562330 0.00681363 0.03106616 0.01785131
H 4.13982213 16.78740351 19.58367454 -0.02477041 0.01594848 0.02700494
H 3.68292481 14.84639709 21.74865047 -0.00794227 -0.02187410 0.00091191
H 1.47494249 9.75196902 20.19185841 -0.03613851 0.00701882 -0.01168266
H -1.57023355 14.38816631 14.37658295 0.00388173 -0.00530242 -0.00944312
H 0.84569035 18.71463003 15.89089064 -0.04267958 0.00399359 -0.00891958
H 5.85077523 12.56014484 20.34829006 -0.00374879 -0.01549806 -0.01810524
H -0.75454994 17.01405884 21.42738292 0.01886256 0.01312446 0.01547839
H 16.76581383 14.88086031 16.85356315 -0.02129708 -0.01892624 0.01325464
H 1.49006327 10.95916758 14.05628322 0.00303845 0.00087225 0.00899161
H -1.52841073 12.19009232 20.64776520 -0.00888217 -0.00360821 -0.00010806
H -0.95354790 18.34984487 22.58882073 -0.01751654 0.01238877 0.01766151
H 3.02417557 15.35218121 16.42074850 0.02487635 0.01232947 -0.03307796
H 3.08305669 11.78954179 14.63289601 -0.01234855 0.00806138 0.01645979
H -1.56950931 13.40017712 19.30218028 -0.02102782 0.00746942 0.00972763
H 0.73152654 18.00362921 21.84244374 0.02143637 0.01997782 0.02004941
H 4.67281490 15.05066254 16.21042975 0.01991263 -0.03557042 -0.01105620
H 3.12636019 10.72235405 13.38651111 -0.02948187 -0.01771309 0.00077757
H -3.00129099 18.48581144 26.72920303 0.00684271 0.02147221 0.00655679
H -0.49118372 13.48573574 26.95828592 -0.01743229 0.00199768 -0.00387035
H 1.93099808 10.36514730 33.12189207 -0.01302137 0.00526072 -0.01173111
H -0.60826888 15.20968793 32.60883396 0.01049780 -0.01263928 -0.01268243
H 2.62008765 17.77139506 24.82208305 0.01249648 0.01395993 0.00538390
H 0.53821207 12.84669827 29.04608335 -0.00117892 -0.00974366 0.02947738
H -3.63413573 11.23238821 35.38906856 -0.00848232 -0.00068741 -0.00389564
H -1.69835168 16.08315384 30.47246883 -0.01041293 -0.02650288 -0.02877885
H 0.72990428 16.00013553 34.83381998 0.01293243 -0.00662405 -0.00100136
H 0.41188342 11.49229562 31.05819807 -0.02833427 -0.00883495 0.02153411
H -1.94754308 12.20226675 24.98899916 -0.03306705 0.02358997 -0.00598754
H -1.59308490 17.47567697 28.67610175 -0.00908366 -0.00131144 -0.01707604
H -0.35754826 14.69507932 23.76052782 0.01681296 -0.01288550 -0.00043207
H -3.45966945 10.35439779 29.91360380 0.02029932 0.00785545 0.02538563
H 4.03207776 13.94053574 0.12645889 -0.01936030 -0.00250174 -0.01353950
H 2.32596325 18.76401201 29.75530411 -0.02161856 -0.01131120 0.00668264
H -0.16650495 16.30169038 25.72985762 0.03496824 -0.00591618 0.00799550
H -3.46920824 11.77023092 28.01676455 0.00247604 0.01715313 -0.03320797
H -0.77658385 12.31145347 34.18200291 -0.00581326 0.01850630 0.00849495