2160
Time=63000.00000006 pbc="T T T" Lattice="20.57898454 0.00000000 0.00000000 0.00000000 29.15675692 0.00000000 -4.71431142 0.00000000 35.33854233" energy=-13795.96609521 virial="-12.85813954 7.14602816 89.89047722 7.14602816 -50.68221224 12.60323828 89.89047722 12.60323828 -28.24242238" stress="0.00188801 0.00030464 0.00437463 0.00030464 0.00009271 0.00055496 0.00437463 0.00055496 0.00096297" Properties=species:S:1:pos:R:3:vel:R:3
O 0.88699870 9.03974094 2.13423613 0.00439805 0.00332804 0.00404535
O 2.19623530 3.46990454 3.15751068 -0.00564372 -0.00532714 0.00326716
O 4.85667264 0.99755027 9.30280502 -0.00466196 0.00093246 -0.00089819
O 3.32305851 5.53659772 7.75113793 -0.00091647 0.00297443 0.00329219
O 1.30610238 5.04360248 9.55324707 -0.00697276 -0.00342941 0.00058679
O -0.25806040 10.07923685 8.51835809 -0.00125418 -0.00365431 -0.00287098
O 4.12904259 4.74273677 1.91239278 0.00215176 -0.00137265 0.00174019
O 5.69419692 28.85587035 3.79517151 -0.00243697 0.00257981 -0.00073825
O -0.63775114 8.84067817 14.22684480 0.00821688 0.00465665 0.00404265
O 0.29944850 3.72427976 15.23650249 -0.00469116 -0.00191953 0.00089463
O 3.03101839 0.97679198 21.30830517 -0.00314484 -0.00446775 -0.00448243
O 1.95529657 6.08253383 20.32376349 0.00159317 -0.00293089 -0.00272828
O -0.33531378 4.73422290 20.99710974 0.00158907 -0.00263530 0.00592111
O -1.75009602 9.82605000 20.14325616 -0.00723431 -0.00265834 0.00118034
O 2.69152411 4.53165947 14.20349976 -0.00400084 0.00395894 0.00123373
O 4.38239159 29.00794360 15.39182954 0.00098428 -0.00467658 0.00029967
O -2.42019955 8.29500085 26.09066580 -0.00005677 -0.00023835 -0.00079893
O -1.00360265 3.84590274 27.25176366 0.00095187 0.00137512 0.00022956
O 1.62741481 1.24953866 32.63855334 -0.00091428 0.00280074 -0.00225454
O 0.45841578 5.71804752 31.69387929 0.00383513 0.00256423 0.00663654
O -1.84819690 4.98346155 32.82545604 0.00328450 0.00283853 -0.00079194
O -3.43988552 9.66882105 31.80896443 0.00085898 0.00312901 0.00491737
O 0.91873633 5.00799702 25.92706804 -0.00510437 -0.00087120 0.00294093
O 2.30084472 29.12797662 27.02959662 -0.00731548 0.00129647 -0.00051924
O 0.56028392 18.03390222 2.62691037 0.00136569 0.00045446 0.00193388
O 1.65834711 13.25910895 3.32272881 0.00251210 -0.00220855 -0.00020858
O 4.30221476 10.60461901 9.11774445 0.00083699 0.00056616 0.00496931
O 3.41687382 15.45445509 8.13429506 -0.00300775 0.00391491 -0.00386360
O 1.10530520 14.35339130 9.28031190 0.00301423 0.00076877 0.00439408
O -0.50050483 19.57328929 8.17312510 0.00610489 0.00499213 0.00275465
O 3.81605504 14.37904744 2.46461213 -0.00104778 0.00161195 -0.00088215
O 5.36951453 9.38424625 3.30348216 0.00099891 -0.00085197 -0.00120264
O -0.58255779 18.85906752 13.93683039 0.00028463 -0.00115726 0.00006766
O 0.10014376 13.51625669 15.46258465 -0.00117724 -0.00089055 -0.00300653
O 3.09911529 11.07651088 21.10616231 -0.00915041 0.00236620 0.00038321
O 2.01120512 15.80381739 20.20005140 0.00522080 -0.00201322 0.00112425
O -0.10442909 14.85072017 21.34882954 0.00082658 0.00617142 -0.00094339
O -1.77799499 19.74786403 20.05115949 -0.00654335 0.00552082 0.00352856
O 2.13829580 14.45689064 13.82876336 -0.00145388 0.00470611 -0.00928678
O 3.94684375 9.75702720 15.51603000 0.00561669 0.00202243 -0.00206026
O -2.30582040 18.87024004 25.74718431 0.00312831 0.00018314 -0.00429658
O -1.10427988 13.51258460 27.11938875 0.00031041 -0.00201954 -0.00461309
O 1.49815519 10.96301299 32.97379574 0.00345558 0.00009664 0.00107265
O 0.26078770 15.81012430 32.07503148 -0.00636689 -0.00533508 -0.00102021
O -1.65111310 14.53337648 33.23141293 0.00385626 0.00868571 0.00007056
O -3.40122308 19.46953539 31.55061098 -0.00123216 0.00007243 0.00001052
O 0.82823912 14.89803582 25.93233926 0.00198737 0.00138878 -0.00545877
O 2.59898778 9.55367950 27.36522438 0.00299339 0.00268157 0.00015392
O 0.85369076 28.44771739 2.16211190 -0.00336380 0.00057198 0.00240692
O 1.68957893 23.13709118 3.22767962 -0.00468717 0.00540951 -0.00325408
O 4.39334618 20.22795167 9.08907820 0.00298297 0.00603138 0.00091732
O 3.67316537 25.14815706 8.40300145 0.00251362 -0.00024755 0.00355406
O 1.44178718 24.40499133 9.25997857 -0.01306978 -0.00366176 -0.00322308
O -0.13773207 0.07066359 8.14442776 -0.00503308 -0.00353161 0.00005527
O 3.85250936 24.17494304 2.39721073 0.00119699 0.00483944 0.00065931
O 5.47694661 19.44603431 3.52937549 -0.00240544 -0.00395624 0.00503224
O -0.45623094 28.15799007 13.93831994 0.00322772 -0.00108523 -0.00401220
O 0.53699582 23.15059204 15.08222059 -0.00598568 0.00219177 0.00017588
O 3.04828068 20.67658421 20.96309260 0.00525989 0.00189718 -0.00097475
O 1.62689264 24.82759588 19.44545873 -0.00613186 0.00218110 0.00472532
O -0.16331889 24.12627009 21.53427276 -0.01137491 0.00256407 -0.00493012
O -1.80017472 29.06388400 19.59172023 0.00379805 -0.00121535 -0.00369587
O 2.47552351 24.21853228 13.95357352 -0.00007922 -0.00261635 0.00219064
O 3.94316791 19.26055343 15.31414595 0.00769012 0.00135049 0.00334196
O -2.41747328 28.10639308 25.84535035 0.00141225 0.00208857 -0.00213928
O -1.26091015 23.29884946 27.02219344 -0.00723004 -0.00126798 0.00555155
O 0.99776276 20.22255441 33.31659622 0.00478558 0.00059572 -0.00354425
O 0.14974195 25.36087183 31.82426760 0.00128514 0.00650156 -0.00365629
O -1.94495587 24.27274919 32.98584649 0.00181226 0.00153533 0.00113946
O -3.38179428 29.01140495 31.66588634 -0.00012044 0.00287346 -0.00866594
O 0.92308954 23.95261569 25.99689213 0.00222150 -0.00042336 -0.00114338
O 2.44394365 19.45525847 27.25794506 0.00294278 -0.00126562 -0.00182949
O 7.71227127 8.38642555 2.66287036 0.00167904 -0.00582111 -0.00014061
O 8.94525708 3.87031836 3.07752909 -0.00054758 0.00167510 -0.00236069
O 11.69922707 1.41358371 9.40647775 0.00152127 -0.00662236 0.00875809
O 10.37386216 5.96575282 8.17506717 0.00619183 -0.00039258 -0.00240844
O 8.44863035 5.03802883 9.46056758 -0.00133167 -0.00489542 -0.00292430
O 6.53970516 9.69494935 8.02992394 0.00085500 -0.00878241 0.00536071
O 11.00642687 5.17364414 1.94602397 0.00759030 -0.00778891 -0.00103780
O 12.37410751 0.08166673 3.30389093 0.00357504 0.00138397 0.00600798
O 5.72642788 8.34410030 14.25028163 0.00027349 -0.00460961 -0.00744400
O 7.20321163 3.85953644 15.48129473 -0.00419269 0.00500843 -0.00225071
O 9.91493473 1.26980187 21.41418427 0.00647617 0.00061410 -0.00495137
O 8.68501956 6.30547958 20.44206185 -0.00126916 0.00186214 -0.00251919
O 6.45065459 5.01761361 20.99445527 -0.00002461 -0.00639106 0.00273701
O 5.07782335 9.93763081 19.86561506 -0.00225756 -0.00245877 -0.00574913
O 9.16170659 4.90172552 14.13022478 0.00471721 -0.00015057 0.00553421
O 10.97801809 0.16459489 15.48711483 0.00417983 0.00071777 -0.00064371
O 4.75028764 8.69468515 26.06157663 -0.00281732 0.00089415 -0.00450718
O 5.58625526 3.86079546 27.14702085 0.00414494 -0.00119310 0.00344539
O 8.06044421 0.94680127 33.02918518 -0.00822450 -0.00737857 -0.00242360
O 7.07327660 6.21453483 32.04984538 0.00335582 0.00571653 0.00374057
O 5.18349815 4.91973647 33.16651997 -0.00898291 -0.00062256 0.00265671
O 3.49434602 9.91464546 31.99835911 -0.00533465 -0.00014267 -0.00176685
O 7.78376799 4.84875042 26.31781750 -0.00198376 -0.00320069 -0.00205060
O 9.27443386 0.03620820 27.19193971 -0.00120284 -0.00430242 -0.00566554
O 7.56612968 18.06336723 2.56974375 0.00733620 -0.00058196 -0.00028898
O 8.69780894 13.42254057 3.55154270 0.00531454 0.00073243 0.00108864
O 11.40048973 10.42321164 9.46676362 0.00188430 0.00186227 -0.00150119
O 10.25020077 15.74313394 8.37850554 -0.00096072 -0.00096273 0.00360007
O 8.09088336 14.44568147 9.27183026 0.00888666 0.00001774 0.00280576
O 6.72737094 19.27470987 8.18840373 -0.00611473 0.00251643 -0.00189141
O 10.81574096 14.45884566 2.16826522 0.00389412 -0.00141909 -0.00143830
O 12.29152758 9.80462509 3.40655891 0.00008934 0.00218066 0.00420590
O 6.05820579 18.18900407 13.99008260 0.00436467 0.00347803 -0.00325238
O 7.06669402 13.54029474 15.12500620 -0.00306480 0.00690994 0.00371864
O 9.80342095 11.29870735 20.96745611 0.00414155 0.00831352 -0.00263375
O 8.71759535 15.94524629 20.09762487 0.00494168 -0.00088492 0.00160763
O 6.65781677 14.89922092 21.32372142 0.00265254 -0.00091065 -0.00175055
O 4.77866385 19.49945820 19.44652207 -0.00764651 -0.00360330 -0.00353964
O 9.04056023 14.46761154 13.79335050 0.00052386 -0.00342393 0.00102015
O 10.78509024 9.93819757 15.50075423 -0.00023313 -0.00451054 -0.00171388
O 4.27962073 18.02649377 26.26650142 0.00477883 0.00545240 -0.00459347
O 5.64044993 13.38997245 27.10786740 0.00339646 0.00113640 -0.00263040
O 8.25378379 10.63644409 32.86389922 0.00044904 -0.00914407 -0.00436934
O 7.20532720 15.83902617 31.95730069 -0.00114155 0.00646356 -0.00057032
O 5.10008587 14.77811065 33.14098153 0.00039247 -0.00151012 -0.00053954
O 3.45488691 19.69939555 31.89418121 0.00274203 0.00419731 -0.00615020
O 7.66219174 14.53264345 26.16175915 -0.00596665 -0.00823549 -0.00103000
O 9.28178538 9.86281599 27.20493784 -0.00306584 0.00284225 0.00384985
O 7.47258148 27.98536634 2.36548800 0.00111014 0.00814692 0.00299136
O 8.64712582 23.00557585 3.13776850 0.00615439 -0.00441268 -0.00184298
O 11.22537803 20.40184253 9.43096451 0.00285420 0.00840725 0.00676816
O 10.36792005 25.42046817 8.08227746 0.00139692 0.00094497 -0.00173296
O 8.44750931 24.06345084 9.43523498 0.00271945 -0.00239568 0.00394937
O 6.61129439 0.12164702 7.77466665 -0.00106182 -0.00023216 0.00395113
O 10.81818602 24.16967806 2.28836193 -0.00493474 0.00618065 -0.00307313
O 12.24865157 19.75559997 3.65136091 0.00373209 -0.00253856 0.00386477
O 6.18606433 28.27046120 13.79492487 0.00047158 0.00479892 -0.00213591
O 7.17883604 23.52893356 15.00312670 -0.00262355 0.00101719 -0.00209905
O 9.68033049 20.34139750 21.25261793 0.00063845 -0.00447881 0.00105723
O 8.74988808 25.33261093 19.86433621 0.00455882 0.00162313 -0.00671232
O 6.49239601 24.26455689 21.13304899 0.00222911 0.00009073 -0.00385411
O 5.02980300 29.05342907 19.96074257 0.00172915 0.00201130 -0.00316018
O 9.39369103 24.63147531 13.95341341 -0.00557409 0.00757620 -0.00513083
O 10.87671176 19.22801903 15.15701605 0.00511092 0.00130458 -0.00033454
O 4.42227654 27.98528184 26.01807624 0.00052066 -0.00308438 0.00180865
O 5.87308193 22.99906359 27.15783847 -0.00054027 0.00368911 -0.00068706
O 8.21047766 20.63530093 32.83970817 0.00230727 0.00020824 -0.00736811
O 7.02351376 25.24769988 31.54285395 0.00190048 -0.00501820 0.00605084
O 4.93826803 24.46672374 32.92765055 0.00021847 -0.00044150 0.00028906
O 3.52916230 28.87042252 31.47902517 0.00099577 0.00080137 0.00459008
O 7.78498012 24.27595198 25.84394804 -0.00527536 0.00272365 0.00408746
O 9.15492304 19.41019191 27.06979162 -0.01461021 0.00090085 0.00613186
O 14.53224480 8.54199773 2.31361684 0.00193328 0.00032545 0.00289294
O 15.77356416 3.67344575 3.26234616 -0.00003900 0.00489451 -0.00754482
O 18.41416482 1.16234924 9.46368211 -0.00535878 -0.00238947 -0.00304058
O 16.93910329 6.04186424 8.37498974 -0.00034047 0.00305185 -0.00442933
O 15.01868765 4.84269263 9.83775921 0.00109123 0.00296541 -0.00156906
O 13.59542534 9.63953710 8.28844047 0.00411071 -0.00183114 0.00094564
O 18.07180936 5.16978623 2.03413696 0.00376450 0.00157647 0.00006841
O 19.34736702 28.98057325 3.64087518 0.00062586 -0.00331251 -0.00881390
O 12.57225936 8.52489179 14.61864600 0.00780460 0.00828709 0.00190516
O 13.88427856 4.19455745 15.59133371 0.00256375 -0.00182354 0.00420968
O 16.54894096 1.00803681 21.22347259 -0.00299831 0.00079873 0.00232371
O 15.38195657 5.87282249 20.13367546 -0.00566893 -0.00415568 -0.00643583
O 13.47716258 5.15529050 21.51779704 0.00360591 -0.00031502 0.00232258
O 11.83875473 10.12159067 20.06280265 -0.00300962 0.00043380 -0.00186677
O 16.25324548 4.37819825 14.24720115 0.00314853 -0.00346729 -0.00823116
O 17.85664983 28.74180747 15.31124425 0.00099391 0.00269602 -0.00028956
O 11.38267576 8.81617384 26.12744717 -0.00768178 0.00086428 0.00074172
O 12.50058512 4.07847596 27.61356779 0.00116454 0.00143253 -0.00703801
O 14.98887602 0.84368337 33.06244726 0.00273724 0.00460401 -0.00104241
O 14.13117875 5.80457640 31.91500234 -0.00033116 -0.00058794 0.00481187
O 11.86140263 4.62771602 32.90536141 -0.00417330 0.00147200 -0.00110804
O 10.63958683 9.96556449 32.19758143 0.00002847 0.00850488 -0.00181187
O 14.65804731 4.95336909 25.92417914 -0.00032815 0.00006065 0.00374658
O 16.21874996 0.20104716 27.08514139 -0.00045638 -0.00415076 -0.00731727
O 14.18825504 18.14317691 2.80559996 -0.00118161 -0.00437199 0.00009543
O 15.45059000 13.35828249 3.58359963 0.00140738 0.00288337 -0.00613670
O 18.21098287 10.56723419 9.70332453 -0.00627084 -0.00389995 -0.00139476
O 17.03979495 15.90292784 8.45029282 0.00292380 0.00235290 -0.00382591
O 14.82203989 14.42172583 9.49450556 0.00239030 0.00670012 0.00205332
O 13.27463528 19.23775032 7.98442679 -0.00371199 -0.00681244 -0.00027049
O 17.48445287 14.22573304 2.22634185 0.00299279 -0.00223963 -0.00141370
O 19.15715140 9.64977986 3.68563134 0.00271098 0.00252835 -0.00158578
O 13.12391065 18.59451630 13.77021396 -0.00239194 0.00857196 -0.00182875
O 13.74219881 13.88920195 15.48981807 0.00058256 0.00026222 -0.00100243
O 16.64301484 10.79624016 21.30722777 -0.00077172 -0.00426123 -0.00006781
O 15.59806329 15.96528792 20.04577533 0.00129131 0.00623233 -0.00013953
O 13.12821468 15.36913448 20.96864838 0.01125468 -0.00280352 0.00429252
O 12.06070446 19.73403586 20.07790380 -0.00299212 -0.00310591 -0.00177695
O 15.93380591 14.47214863 14.17797139 0.00713410 -0.00553559 -0.00373736
O 17.64509545 9.53291802 15.40227934 -0.00241948 -0.00347726 0.00468317
O 11.21642099 18.49208805 25.91408364 -0.00367443 -0.00075629 -0.00004843
O 12.23055755 13.60447542 27.33893930 0.00132777 -0.00033424 0.00170584
O 14.94747081 10.36081138 33.11239259 0.00226830 0.00095590 0.00106325
O 13.92089458 15.51151612 31.90620669 -0.00043653 -0.00187861 -0.00402247
O 11.91527315 14.67674223 33.37259446 0.00043766 -0.00186000 0.00405079
O 10.22685936 19.42943540 31.79265857 -0.00153510 0.00491803 -0.00135687
O 14.44318590 14.31615464 26.18871813 -0.00494686 -0.00341616 0.00560121
O 16.01799602 9.16470989 27.29321976 0.00019390 -0.00008879 0.00480561
O 14.26080834 27.82739091 2.46393657 -0.00275327 -0.00883552 0.00072029
O 15.63641680 23.08997486 3.25049228 0.00436202 -0.00481365 -0.00606297
O 17.90173894 20.28353692 9.55008617 0.01140705 -0.00183483 -0.00099301
O 17.38852110 25.13236195 8.26970354 -0.00332343 -0.00359213 -0.00730138
O 15.00236328 24.09232043 9.77417841 0.00293742 -0.00419602 0.00035958
O 13.53288963 0.22025369 8.20452897 0.00115069 -0.00239692 -0.00432982
O 17.70100943 24.55104729 2.30218686 0.00276563 -0.01069963 0.00027313
O 19.22752326 19.28547612 3.57975704 0.00633596 -0.00493566 -0.00128726
O 13.02769670 28.15143794 14.23488764 -0.00139329 0.00641075 0.00063056
O 14.14864680 23.06842439 15.14444634 -0.00091044 0.00834900 -0.00271361
O 16.86165271 21.12549484 20.99899805 -0.00016744 0.00382392 -0.00002516
O 15.47864113 25.57320339 20.12991255 -0.00094961 -0.00074056 -0.00396271
O 13.52926649 24.44768140 21.33255661 -0.00625917 -0.00129143 0.00125589
O 11.90737039 0.13486263 20.08556732 -0.00110600 -0.00056062 -0.00305626
O 16.34021834 24.14262734 13.94294009 0.00316561 0.00870933 -0.00816928
O 17.80331969 19.35780499 15.28044426 -0.00048269 0.00240330 0.00418302
O 11.23997729 28.15236998 26.02131497 -0.00462212 -0.00011385 0.00026116
O 12.42102226 23.09226367 26.99103654 -0.00010287 0.00800295 -0.00144557
O 15.02340958 20.66796543 32.83771461 -0.00148329 -0.00138756 0.00742315
O 13.90941829 25.26561179 31.55540307 0.00138758 -0.00618532 0.00297603
O 11.61318675 24.46906620 32.78753401 -0.00100819 -0.00445498 -0.00299285
O 10.27612126 29.14292111 31.76382479 -0.00401593 -0.00312585 -0.00318529
O 14.73387122 24.13884148 26.05016898 -0.00156397 0.00178731 -0.00168692
O 16.31226083 19.33721717 27.28956363 0.00389023 -0.00026376 -0.00000456
H -0.02311139 9.12255374 2.62404498 -0.00951313 0.02970380 0.01248751
H 3.00207076 4.01222485 2.92124747 0.01482638 -0.01742912 0.00201828
H 5.95858253 0.51113218 8.48433625 0.03548748 -0.00266639 0.01914144
H 2.51591571 5.48498142 8.35534432 0.00657577 -0.00480148 0.02576985
H 5.76416808 8.30198921 0.92157582 -0.00517850 0.01209811 -0.02574239
H 4.01001161 3.33888054 5.16114867 -0.01465941 -0.00671484 -0.01892845
H -0.14177583 1.70513674 11.07655829 -0.00024755 0.00057695 -0.02666886
H 1.23663544 6.64496000 6.60260356 0.00010627 -0.00464260 -0.03184754
H 4.06031785 6.36155078 10.53110274 0.04045652 0.00762020 -0.00666946
H 3.78992324 2.09341479 7.15248348 0.04485482 0.00627490 -0.01589758
H 1.27673143 2.62131534 1.21492145 0.01265569 0.01515456 -0.01875171
H 1.32050944 8.16375965 4.78522450 -0.01933498 -0.01930799 -0.00532503
H -1.67474609 5.92822466 35.13013873 -0.00063466 -0.02412253 0.02934530
H 0.12350835 0.26950139 5.61139981 0.00897904 -0.00127745 0.01413168
H 2.99586642 4.29868419 11.86485675 -0.02051325 -0.00185652 -0.01226346
H 5.49233175 8.95680276 5.74857286 -0.00992203 0.02010153 -0.01122998
H 2.96391090 7.34882792 1.55539590 0.03550248 -0.02592704 -0.00252879
H 0.15920707 1.89047158 3.67053092 0.02349372 -0.02125149 0.01341688
H 2.68179357 2.44461565 10.21567150 -0.00627134 -0.01837219 -0.00570425
H 5.34438159 7.22099049 7.40008632 0.02216335 -0.00250462 0.01157796
H 5.25273434 4.58379696 9.49886645 -0.00761204 -0.00373214 0.02494317
H 2.96089341 28.92927661 7.98695817 0.00567053 -0.00665248 -0.00946131
H 0.60643834 4.46026619 2.24480323 -0.00514264 0.00318651 -0.01582247
H 2.30464294 9.77537310 3.66773492 0.01105941 0.00388233 0.00091299
H 8.12894163 3.85143753 7.46948620 -0.01849030 -0.00714756 0.00877586
H 0.84244588 7.72423994 9.35169238 -0.00578651 0.01333655 -0.00854967
H 19.37138653 7.12432142 3.26656141 0.00574565 0.00815335 0.00438699
H 4.92892885 0.63959707 1.44594390 0.00507892 0.02632489 -0.01945758
H 0.08436979 4.60397998 7.21274398 0.00194053 -0.00417590 -0.00299237
H 0.79712974 8.98566149 10.57081319 -0.00897185 0.00092476 -0.00777749
H 6.56513836 6.14786483 3.67278447 0.00264229 0.00032584 0.00902543
H 3.26319471 1.12481162 2.17864499 0.00703583 0.00631071 0.00736598
H 19.18013630 3.97892387 8.00705549 0.01828213 -0.00265960 0.02235639
H 2.41210695 8.64885025 9.80493195 0.00083430 0.01341731 0.00704991
H 5.01275716 6.94717450 3.28788758 0.01002800 0.00312942 -0.01271329
H 4.79604319 1.97438680 2.61583320 0.00644936 -0.00109368 0.00964131
H -1.55759092 9.01177402 14.65367998 0.03325613 0.01603723 -0.01818461
H 1.21019239 4.22105238 15.17524425 -0.01039819 -0.00528468 0.01448450
H 3.96547860 0.72660254 20.97045013 0.00427226 -0.02743587 -0.02230881
H 1.15787495 5.54411158 20.42426384 0.00808601 -0.02169419 0.01241486
H 3.85969236 7.92619000 12.31969714 -0.02066056 0.00346023 -0.01360173
H 2.20197165 3.44053508 16.94014606 0.01106667 0.00999764 -0.00830224
H -1.98676594 1.33883148 22.90951378 0.01119293 0.03352443 -0.02556048
H 0.02904846 6.20643819 18.56522790 -0.00371486 -0.02141107 0.00652648
H 2.83365353 7.30503462 22.40546561 0.02125001 -0.00362947 0.00657179
H 2.16002869 1.83585840 18.93390702 -0.01633397 -0.00148540 -0.00959302
H -0.17822776 3.24963970 13.00249772 -0.02223479 0.00001018 0.00556153
H -0.07402667 7.72140108 16.61760887 -0.00362606 -0.00780333 -0.03510539
H 1.04594179 5.52518363 11.71397531 0.00219222 0.02751177 -0.00981754
H -1.75398024 0.59913516 17.61710402 -0.01280401 -0.02461457 0.00561154
H 1.04064692 4.35754580 23.71231570 -0.00552405 0.00314867 -0.00631428
H 3.91326267 9.14795571 17.54546229 -0.00059249 0.00149082 0.00356378
H 1.34284358 7.17752491 13.45343494 0.01872916 0.00451690 0.02642516
H -1.52461652 2.03934208 15.63414677 0.00874575 -0.00000221 0.01512306
H 0.99705839 2.67566955 21.79541878 0.00371514 -0.03341889 0.02272596
H 4.08410953 7.61312351 19.46939300 0.00366630 -0.01462500 0.00502876
H 3.36857401 5.33470702 21.43468694 0.01573924 -0.01837289 0.00584802
H 1.30997935 29.13615870 19.89834098 0.03500600 0.00660415 0.02026100
H -1.21452189 4.86955436 13.99256063 -0.00163717 -0.00993217 0.01483913
H 0.80422395 9.71543448 15.59061393 -0.00659643 0.00939399 -0.01092107
H 4.89552535 4.10015635 18.98449183 -0.00121115 0.00073128 -0.00053190
H -1.26423076 8.26130618 21.94237275 0.01692893 0.00668156 -0.00592944
H 18.41762959 5.61271627 15.93233735 -0.00731486 0.02383708 -0.00936967
H 3.30004439 2.12454889 14.13046144 -0.01976995 0.00922849 0.02228233
H -1.92586015 2.56953003 19.75494369 0.01108558 -0.00939534 -0.02400570
H 0.49996633 8.69826842 22.27829434 -0.03505986 -0.01361578 -0.00186227
H 3.79014507 5.62178546 16.52390797 0.01765214 0.00783728 0.00719636
H 3.23907777 0.71010622 13.04991954 0.00214801 0.01709594 -0.00738930
H -1.09353400 3.90941017 18.97261176 0.02693874 -0.01215427 0.01491152
H 0.19942909 7.54094519 21.01884464 -0.00323945 -0.00422525 0.02229087
H 5.31351897 5.84397840 15.56790282 -0.01095715 -0.01463685 -0.01199542
H 1.74564926 1.24050529 13.97926417 0.02769473 0.02590828 0.02175974
H -3.34975694 8.50654579 26.39796355 -0.00017237 0.00240976 0.01122901
H -0.09388278 4.23898580 27.26043628 -0.02150069 -0.01022171 0.00075718
H 2.44854432 0.66357070 32.36795692 -0.00129449 0.00633018 0.00483098
H -0.38794956 5.39830991 32.08839035 -0.02667963 -0.02408062 -0.03105723
H 2.81013140 8.56672488 24.42933174 -0.01078886 0.01429818 -0.00737877
H 0.81892988 3.42498714 29.10541678 -0.00819492 0.03433101 -0.00668449
H -3.45675741 1.17999871 34.72510083 0.00571005 -0.02239233 0.01744105
H -1.61844965 6.38231388 30.31535689 -0.01073734 -0.00016702 -0.00231393
H 1.21525133 7.21455068 34.01642596 -0.01660682 -0.01150981 0.03571020
H 0.78756293 1.69577452 30.86823605 -0.01404170 0.00669422 -0.00589472
H -1.81842979 2.83305358 24.67480812 0.02523478 0.00105360 -0.01532835
H -1.74914201 8.07877158 28.62456247 -0.03545215 -0.00703243 0.00040595
H -0.39543548 5.19562284 23.40937990 -0.02199251 0.00986135 -0.00496469
H -3.18203860 0.57938151 29.50518935 0.00825598 -0.02025619 0.00852831
H 4.24291547 4.15670967 0.01501676 0.00891222 -0.00672522 -0.00908145
H 2.36110648 9.21641206 29.65262271 -0.01892613 -0.01712489 -0.03960651
H -0.54342243 6.71830374 25.40519003 -0.02157107 0.00690488 0.02231588
H -3.22933857 2.45799440 28.05760269 -0.00193211 0.00368548 0.00802169
H -0.40346892 2.75455809 33.39437308 -0.01053996 -0.02388098 0.00754905
H 2.39588008 7.38599992 31.14943697 0.00777915 -0.00994570 0.01075073
H 2.16677194 5.23223293 32.77366397 0.01963228 0.00882403 0.02463990
H -0.26742930 0.06450994 31.89958220 0.00709848 0.00387872 0.01707124
H -2.77506452 4.62340255 25.97905255 0.00615549 -0.01681774 -0.01351738
H -0.45358177 9.75180481 27.28763462 0.02048769 0.00907949 0.01608309
H 4.83686607 3.72724027 31.08394182 0.01255745 0.01355482 0.00393200
H -2.71003752 8.75957123 33.96664720 -0.00143789 -0.01009286 -0.03216552
H 15.87352820 5.02693783 28.33706693 0.03243588 -0.02040304 -0.00562515
H 0.37534589 2.16541764 26.04869014 -0.01020024 0.02118740 -0.00488568
H -2.84489161 3.75495257 30.91401202 0.00167008 0.01827519 0.00203031
H -0.93593568 8.98450314 33.64273689 0.00475984 0.00073517 -0.02669584
H 3.49643218 6.24239708 27.21480913 -0.02583513 0.01114944 0.01383622
H 1.74038423 1.31388145 25.19775239 0.00110118 -0.00996019 0.00403503
H 16.09445806 3.33971205 31.73525925 -0.00130400 0.02970134 -0.00609234
H -1.77344854 7.57187500 32.99232761 0.00992533 0.00794450 -0.00017011
H 1.82712911 6.84524510 27.58338267 0.00662778 0.02535143 0.00844676
H 0.17284789 0.72956062 25.06531961 -0.00572697 0.00350981 -0.00886457
H -0.37072819 18.28590096 2.95386638 0.00733016 -0.01181813 -0.00955860
H 2.46559824 13.81588554 3.04665841 -0.01723790 -0.00650961 0.00323730
H 5.21828395 10.26215126 8.85412348 -0.01626226 0.00449381 -0.02097094
H 2.62103345 15.12026335 8.59203439 0.00625132 -0.00635698 0.00148152
H 5.54081342 17.73350281 0.96958752 0.00072505 0.01455207 -0.04385934
H 3.71728315 13.13077848 5.10208013 0.01222978 -0.00344939 0.00352580
H -0.41845668 11.29483236 11.47210897 0.01712592 0.01024798 0.01135538
H 1.34665869 16.04166255 6.61148796 0.02827642 -0.00811529 0.00853671
H 4.25150495 16.43970857 10.28894476 0.01072261 -0.00812613 -0.01981535
H 3.72170129 11.72584519 7.02052861 0.00586779 -0.00730605 -0.01304662
H 0.82759321 12.83251779 1.17830723 -0.00349944 0.00871093 -0.00128781
H 1.33057310 17.53123360 4.79940845 -0.00161313 0.01485649 -0.01146155
H -1.86507807 15.04790254 35.30528182 0.00751398 0.00318553 0.00031975
H -0.31043697 10.47854280 6.19489961 0.01581094 -0.01945392 0.03127065
H 2.38205681 14.00111445 11.43059971 0.00444809 -0.00127714 0.00975165
H 5.28120899 18.76561332 5.66896619 0.00202198 -0.02230506 0.00174049
H 2.40249289 16.25910665 2.23892707 -0.01606563 0.01828552 -0.02212371
H -0.39340918 12.11154456 4.37280911 0.01560551 -0.01855138 0.00079860
H 2.39214978 12.27351241 9.61668551 -0.01451484 0.01285964 -0.03000250
H 5.35711486 17.19814854 7.55535161 -0.00951200 0.00565739 -0.00716900
H 4.94857267 14.39449118 9.48730756 0.00357407 -0.02893613 0.02279928
H 2.87818066 9.75913166 8.02318408 -0.00699613 0.00002243 0.00004188
H -0.06502934 14.35164556 1.95144176 0.02275001 -0.01936886 -0.02256342
H 2.35593751 19.32103375 3.58037501 0.00513032 -0.00262756 0.00637240
H 7.25200832 13.44465191 7.16876552 -0.00416472 0.01692998 0.00094615
H 0.72100757 18.22776112 10.19969508 0.02995381 -0.00123587 0.00241853
H 20.04970760 15.04943109 3.79816375 0.00946746 -0.03367279 -0.00100743
H 3.06018466 11.53381570 2.30934405 -0.00189095 -0.01907946 -0.00868425
H -0.71632833 12.60042053 8.00875205 -0.00122860 -0.00075817 0.00250059
H 2.22435994 18.12170384 9.11829547 0.02328151 0.00499853 -0.00827860
H 6.34549051 15.25719889 4.30738651 -0.03041455 0.02917574 0.01487182
H 4.88662814 11.93254902 2.32866623 0.01945775 0.00321468 0.01558298
H 0.25193655 13.69807003 7.15927348 0.00702362 -0.00788754 0.00349182
H 0.59748530 17.23219209 8.90646154 0.01222905 -0.00172617 0.00224698
H 5.58102827 16.64240401 3.53379785 0.01423162 0.01272577 -0.00693273
H 4.23369782 10.60640388 1.37252967 0.01796220 -0.00866027 0.01803176
H -1.52021595 18.94156018 14.46917311 0.01366539 0.01531399 0.01510901
H 0.98900343 13.86242224 15.05855470 -0.00631129 -0.00257864 -0.02892484
H 3.94521683 10.68001297 20.79630703 -0.00237398 -0.00755341 -0.00475171
H 1.09646603 15.56424482 20.53479736 0.00234620 0.00553385 0.02693327
H 4.14680309 17.95947942 12.25253763 0.00841528 0.01269819 0.00036424
H 2.30938663 13.01783346 16.98977625 -0.00097193 0.00468153 0.00783304
H -2.04215056 11.04425414 23.04884242 0.01739125 -0.01745295 0.01816945
H -0.00327146 15.89206342 18.46268554 -0.00829304 0.03533507 -0.00090064
H 2.47569197 16.45099065 22.43179136 -0.01159939 -0.02076692 0.02131174
H 2.32219700 11.51819352 18.90137047 0.04169034 -0.00017547 0.00731354
H -0.65635327 12.89210309 13.38210098 0.02137977 0.01219637 0.00435215
H -0.11922067 17.24521715 16.48686653 -0.01513993 0.01332514 -0.01529169
H 1.23109269 15.30077469 11.50941682 0.01513784 -0.00591781 0.01144769
H -1.66738096 10.17304950 18.06955095 -0.01293968 -0.00360628 -0.00507888
H 0.92538248 13.91984825 23.82651366 -0.00008877 0.00383262 0.00296565
H 3.78829919 18.83390151 17.24968405 0.01123430 -0.01800602 0.00009069
H 1.40903553 17.04561188 13.10843470 -0.01894074 -0.01426970 -0.00049272
H -1.65941923 11.84479851 16.11542586 0.00382180 -0.02001799 0.00941703
H 1.20903550 12.57193261 21.66954149 0.00461090 -0.00479734 -0.00594745
H 4.04995066 17.07642563 19.14845903 -0.00050362 -0.00465220 -0.00867147
H 3.54488973 14.77897315 21.26752967 0.02730210 -0.00794573 -0.02807466
H 1.45610835 9.66218695 19.97311075 0.00420425 0.01592842 -0.00317693
H -1.37418624 14.80249986 13.80620972 -0.00527806 0.00753461 0.01548263
H 0.81131472 19.11524987 15.22744637 0.01354416 -0.01654978 -0.00483142
H 5.66061410 12.47396844 20.32018515 0.01857240 0.01174698 0.01216554
H -1.10994353 17.32064999 21.02600627 -0.02469572 0.01744848 -0.00922536
H 18.00031879 15.22520289 16.36675407 0.01568111 -0.02301873 -0.00466322
H 2.66453748 11.97801949 14.25101418 -0.02957536 0.02761894 -0.01207081
H -2.62998598 13.80788999 19.76769017 0.04498973 -0.00417149 0.01166654
H -0.89800592 18.61208026 22.14092793 -0.01809594 -0.00504188 0.00486887
H 3.03760609 15.23527343 16.10921396 -0.00524558 0.00582051 0.01343339
H 3.29120320 10.70266281 13.18703284 0.00744266 -0.01448718 0.00421228
H -2.07900435 12.50982697 20.62318637 0.01299666 -0.01438564 -0.01713583
H 0.57371331 17.88432115 21.37015647 -0.01578920 0.03124599 -0.01085431
H 4.85201035 15.00694908 15.50187438 0.01596668 -0.03689472 0.00440024
H 1.46445044 10.80989118 13.65600390 0.00442532 0.01197762 0.00682287
H -3.16270319 19.04985401 26.25562079 -0.01622672 -0.01691683 -0.00657414
H -0.21742592 13.99379569 26.91102321 0.00400101 0.00438127 -0.00120144
H 2.30196487 10.36311982 32.85988458 -0.01389362 0.01331737 -0.00022600
H -0.54872811 15.33578950 32.35107280 -0.03918648 -0.01985249 0.01848684
H 2.43603799 17.99444590 24.36429019 0.02231520 -0.00054892 -0.00394216
H 0.91524967 12.86412172 28.73318777 0.02991940 -0.00444446 -0.01449658
H -3.57926210 11.16268894 34.51017122 0.01196947 -0.00409216 0.00871604
H -1.59707207 16.10743191 30.43799508 -0.01727988 -0.00118865 0.00254009
H 0.77116688 15.99161638 34.41367398 -0.00276614 -0.02254305 0.01461240
H 0.84030725 11.61655793 30.67802667 -0.00268182 0.00928250 0.00366272
H -2.04948056 12.84866048 24.95544641 0.01041500 -0.00925178 0.01207561
H -1.55502041 17.42248759 28.53746137 -0.00062583 -0.01925887 -0.00871111
H -0.31101883 15.35438572 23.66195186 0.01943847 -0.04267491 -0.02185368
H -3.19643609 10.38456033 29.73948716 0.01359968 -0.00033527 -0.00803203
H 3.96440536 13.81464773 0.25383410 0.00043846 0.01585732 0.00223481
H 2.33309004 18.85214744 29.28014046 0.00983518 0.00008675 0.02027608
H -0.21367459 17.29819508 25.29643130 0.00373860 0.01303526 0.00821817
H -3.04481928 11.97700006 27.70504624 -0.02260949 -0.02044716 -0.01011776
H -0.44376040 12.37375601 33.54393626 -0.01148041 0.01186624 0.00050879