2160
Time=39000.00000002 pbc="T T T" Lattice="20.64232202 0.00000000 0.00000000 0.00000000 29.01854961 0.00000000 -4.73511967 0.00000000 35.65118877" energy=-13796.33629942 virial="-84.08334480 25.67780560 51.16516722 25.67780560 -55.91334820 14.09621438 51.16516722 14.09621438 -75.49775251" stress="-0.00143931 0.00121188 0.00247157 0.00121188 -0.00021887 0.00069225 0.00247157 0.00069225 -0.00111246" Properties=species:S:1:pos:R:3:vel:R:3
O 0.48299323 8.63323101 2.40924845 0.00620030 0.00246598 -0.00004929
O 1.82583529 3.87299273 3.82138618 0.00549527 -0.00155259 0.00495541
O 4.49453494 0.93074841 9.44581545 -0.00658562 -0.00162083 0.00168771
O 3.44317256 6.13130124 8.53442743 -0.00828018 -0.00076972 -0.00094852
O 1.44628411 4.93775224 9.47204514 0.00322480 -0.00157902 0.00112680
O -0.22323684 9.59103435 8.29981729 0.00189772 0.00141741 0.00189754
O 4.04736517 4.64884632 2.54162717 0.00008521 -0.00128005 -0.00233436
O 5.54037099 28.86575737 3.57977375 -0.00023672 0.00163449 -0.00173776
O -0.74521714 8.75135639 14.14294884 -0.00610561 0.00146277 0.00056976
O 0.37371607 3.84597608 15.30948288 0.00444954 -0.00579398 -0.00172560
O 3.04392667 0.88416451 21.52877157 0.00123211 0.00352924 0.00213126
O 1.69178972 5.86210269 20.27471336 0.00339159 0.00506548 0.00545663
O -0.31391352 4.68565753 21.45838350 0.00302838 -0.00257857 0.00273347
O -2.05909016 9.79614214 20.06466557 0.00431221 -0.00298613 -0.00626047
O 2.40973462 4.72543039 14.04589721 -0.00323750 0.00199977 0.00043170
O 3.71942335 0.40043896 15.50211387 -0.00275745 0.00195743 -0.00152414
O -2.38422021 8.65610917 26.00163556 -0.00431573 -0.00273296 -0.00315532
O -1.12637089 3.45937080 27.50691488 -0.00185490 0.00524075 0.00202274
O 1.43677439 0.96794304 33.35969576 0.00016357 -0.00286426 -0.00057626
O 0.12051718 5.98118143 32.29087738 -0.00025548 -0.00624124 0.00407059
O -1.89218858 4.93652801 33.35628089 0.00153760 -0.00636189 0.00588285
O -3.26884201 9.76517323 31.82547161 0.00490105 0.00193966 -0.00170684
O 0.70796630 4.50004884 26.14454373 -0.00113534 -0.00118624 0.00784132
O 2.28751390 28.58334922 27.20811555 -0.00119171 0.00607988 0.00226425
O 0.51804650 18.28992151 2.38571671 0.00042621 0.00196910 -0.00275562
O 2.03484609 13.71231251 3.94551353 0.00122044 0.00489903 -0.00168672
O 4.81536133 10.89527835 9.54574241 -0.00600717 0.00480705 -0.00203274
O 3.60034606 15.30840281 8.22123937 -0.00037815 0.00165065 -0.00531909
O 1.61468214 14.44550834 9.77439176 0.00323242 0.00264600 0.00398156
O -0.22901902 19.37644333 8.14107801 -0.00309873 -0.00384674 0.00217206
O 3.96280550 14.45945092 2.26430052 -0.00035028 -0.00070658 0.00233104
O 5.38284905 9.21816468 3.31293377 0.00232849 -0.00199997 0.00457870
O -0.66086733 18.47654788 14.20149104 0.00179307 0.00240789 0.00078356
O 0.65426463 13.57873402 15.58520636 -0.00446581 -0.00195281 -0.00462633
O 3.05314861 11.02694255 21.23964251 -0.00261268 0.00511120 0.00315936
O 1.97990261 15.50516234 20.25021721 0.00157919 0.00103794 0.00229226
O -0.21039014 14.78513444 21.61957505 -0.00822049 0.00020718 0.00165916
O -1.81600314 19.39999641 19.84845761 0.00002074 -0.00164836 -0.00073601
O 2.72224954 14.58757113 14.40247807 0.00161659 0.00189030 -0.00082171
O 4.05802535 9.15079434 15.58153781 0.00165905 0.00391988 0.00312099
O -2.56737455 18.30567621 26.19212765 -0.00682399 -0.00511653 -0.00000058
O -1.15721998 13.41407517 27.26468447 -0.00021364 -0.00188532 -0.00127562
O 1.23871264 10.76513847 33.25061870 0.00408611 0.00144768 0.00279994
O 0.26763667 15.63492928 32.05443374 -0.00070779 -0.00054815 0.00863454
O -1.80805512 14.66156287 33.40613451 -0.01076853 -0.00308340 0.01048563
O -3.38911039 19.52272568 31.83840203 -0.01446775 0.00550213 -0.00001974
O 0.57952458 14.74266342 25.95063872 0.00627081 -0.00171572 -0.00599400
O 2.39581643 9.41828186 27.34783643 0.00588379 0.00182713 -0.00285397
O 0.75191034 27.95681293 2.38161894 0.00974639 -0.00413911 0.00229960
O 1.73932860 23.25692125 3.58155212 0.00532544 0.00765960 0.00052597
O 4.37328040 20.31109535 9.49175927 -0.00557092 0.00635049 -0.00421040
O 3.26681005 24.84135441 7.78732891 0.00219043 0.00348645 -0.00672578
O 1.18411340 24.18619875 9.81973749 -0.00000826 0.00520921 -0.00202065
O -0.31255997 28.88820650 8.19316529 -0.00127817 -0.00404981 -0.00233620
O 3.89257101 24.25265852 2.33956237 0.00209363 -0.00217263 -0.00198501
O 5.39441641 19.53393958 3.51443934 0.00099473 -0.00146741 -0.00356454
O -0.76223989 28.23840842 14.02801858 0.00507843 -0.00102248 0.00436583
O 0.19094235 23.16558737 15.28428819 -0.00171365 -0.00087217 -0.00464479
O 2.95414838 20.56541968 20.93834593 -0.00288858 0.00124305 -0.00402122
O 1.81434460 25.01430273 19.80635142 0.00479182 0.00380027 0.00615679
O -0.48184218 24.44903586 20.94250961 -0.00417704 0.00290489 -0.00462941
O -1.72389216 28.90506006 19.86452462 -0.00441698 -0.00007539 0.00184101
O 2.24840500 24.03967344 14.16129534 0.00024652 0.00278119 -0.00869165
O 3.93417110 18.98894857 15.07608474 -0.00173052 0.00400010 0.00733087
O -2.48927619 27.66172227 26.02679874 0.00512220 0.00012428 -0.00267549
O -1.19494433 23.06306801 27.03158766 -0.00035931 0.00483156 -0.00194197
O 1.44622233 20.44358268 33.16481512 -0.00316697 0.00359335 -0.00319581
O 0.18858902 25.11267787 32.27468351 -0.00413598 0.00169991 -0.00438358
O -1.88921278 23.82319229 33.47152930 -0.00211027 -0.00234772 -0.00098004
O -3.16933583 0.11932031 32.25364374 -0.00375159 -0.00313496 0.00616810
O 0.84871193 24.14228427 25.89011393 0.00072294 -0.00455425 0.00774612
O 2.52160356 19.28747408 27.56050955 0.00015761 0.00429969 -0.00162117
O 7.61566341 8.55661700 2.25170503 0.00145706 -0.00054445 -0.00128448
O 9.00676720 3.56954254 3.53976669 0.00271028 0.00442982 -0.00320109
O 11.40023676 0.77132583 9.54493407 0.00471263 0.00057494 0.00153933
O 10.37094285 6.02225425 8.37679225 0.00245978 0.00455167 -0.00327251
O 8.05949305 5.03942331 9.39153814 -0.00044694 0.00232727 0.00123803
O 6.70699034 9.56844443 8.23535928 -0.00095723 -0.00541150 -0.00486744
O 10.85539459 5.07339426 2.43160625 -0.00136521 -0.00714545 -0.00788880
O 12.26554755 28.70141108 3.55579392 -0.00719977 0.00648529 -0.00154585
O 6.26379407 8.70506503 14.30997114 0.00278197 0.00332432 -0.00252768
O 7.14231536 4.15962847 15.82951977 -0.00406862 -0.00340202 0.00029571
O 10.03970664 1.16127586 21.13375066 -0.00139874 -0.00112605 -0.00453389
O 8.37149921 5.63844650 20.49400232 -0.00443703 0.00588674 0.00397633
O 6.48329953 4.47771265 21.80524403 0.00161972 -0.00147279 -0.00440461
O 4.86684243 9.46438159 20.23411851 -0.00092748 -0.00426725 -0.00153910
O 9.19226065 4.69675627 13.98042534 0.00595810 0.00224956 -0.00047973
O 10.73181678 0.00583376 15.44850824 0.00497888 0.00775618 0.00178155
O 4.71879550 8.66732167 26.25455886 0.00175805 -0.00039958 0.00109325
O 5.60269921 3.99260851 27.40651227 -0.00153880 -0.00086236 -0.00071149
O 8.30571153 1.14289920 33.25945685 0.00063543 -0.00143868 0.00290339
O 7.11837880 6.02619765 32.11825821 -0.00198088 -0.00301274 -0.00230306
O 5.05342735 4.90298320 33.35129807 -0.00477334 -0.00217988 -0.00200009
O 3.42616792 9.96344714 32.09637124 0.00403052 0.00287315 0.00281047
O 7.80306695 4.31466272 26.04794710 0.00301048 -0.00163308 0.00003492
O 9.48660942 0.03172459 27.39816586 0.00142682 -0.00163646 -0.00347903
O 7.56227421 18.26867789 2.44678079 -0.00985480 0.00031310 0.00442857
O 8.67036277 13.32844837 3.52682909 -0.00568971 -0.00566705 0.00622729
O 11.33795898 10.85080704 9.26852288 -0.00197087 -0.00027737 0.00301345
O 10.52161412 15.32543544 8.27606195 -0.00722314 0.00147682 -0.00558178
O 8.23840508 14.59244313 9.38776050 0.00246097 -0.00091941 -0.00018769
O 6.73026324 19.64619985 8.53314366 -0.00478491 0.00063932 -0.00469573
O 10.91911462 14.31449660 2.29948032 0.00462470 0.00901180 -0.00260712
O 12.21493301 9.90166148 3.88660625 -0.00243189 -0.00509463 0.00389613
O 6.26059185 18.19120837 14.39530129 -0.00481111 0.00683199 0.00011990
O 7.58852106 13.17929389 15.61296918 -0.00192558 -0.00299301 0.00265705
O 9.95851179 10.59751728 21.49940273 0.00517124 0.00633356 0.00919174
O 8.59993916 15.33362505 20.35133172 0.00565914 0.00531526 0.00301013
O 6.60288082 14.18583640 21.53194604 -0.00157091 0.00312854 0.00355312
O 5.14451603 19.26532310 20.38229302 -0.00329722 0.00246949 0.00576771
O 9.52758352 14.53779294 14.18076721 0.00044677 0.00261184 -0.00442414
O 10.87780658 8.91630328 15.73995481 -0.00262249 -0.00127305 0.00349594
O 4.70825721 18.26300084 26.20802919 0.00854509 -0.00199677 -0.00019413
O 5.75798233 13.84838657 27.74374363 0.00078066 -0.00010902 0.00263071
O 8.28448890 10.88118127 33.17579524 -0.00207659 0.00447168 -0.00127431
O 6.92845355 16.16945020 32.28425752 0.00366382 -0.00711865 0.00473805
O 5.04373955 14.66663339 33.08431410 0.00048096 0.00118370 -0.00127657
O 3.52003770 19.73342907 31.72816982 0.00221002 0.00166283 -0.00456628
O 7.65057518 14.14047095 26.11865772 0.00339414 -0.00383050 -0.00475208
O 9.30534936 9.88887600 27.36470044 -0.00166930 0.00222740 -0.00009678
O 7.57488724 27.95782679 2.32981529 -0.00578943 -0.00225638 0.00177198
O 8.59152974 23.07271025 3.52991563 0.00503278 0.00313750 -0.00574549
O 11.36616280 20.67761603 9.12190907 -0.00122400 0.00091164 0.00004284
O 10.38543962 24.95661125 8.26512562 0.00492995 -0.00846362 -0.00183605
O 8.21041830 24.49287341 9.49813268 -0.00307235 -0.00312490 0.00175737
O 6.50225027 0.04387103 8.21540250 0.00568332 0.00005905 0.00053432
O 10.70540820 24.04067581 2.36301721 -0.00132029 -0.00621320 0.00001967
O 12.07945822 18.95690865 3.36898082 0.00301140 0.00441383 -0.00187840
O 5.78377740 27.94104228 14.28019753 0.00613693 -0.00723011 -0.00128150
O 7.27964020 22.90366410 15.28561661 -0.00343110 0.00590323 -0.00743451
O 9.73745191 20.51822667 21.17635806 -0.00398332 0.00175796 0.00770204
O 8.57362382 25.55853624 20.30478851 -0.00099712 -0.00035187 -0.00496112
O 6.36857629 24.66316693 21.36671315 -0.00082361 0.00169831 0.00272734
O 4.95823519 0.02531202 19.99869085 0.00155535 0.00185020 0.00441014
O 9.31944871 24.27004420 13.91547420 -0.00091190 0.00239242 0.00266799
O 10.95780908 18.63835009 15.44641082 0.00446985 -0.00270210 -0.00032575
O 4.58956625 28.03565826 26.29843633 -0.00498624 0.00141155 0.00234475
O 5.90818530 23.21498354 27.01682168 -0.00356154 0.00120798 0.00698341
O 8.26627549 20.58844397 33.27352398 -0.00438255 0.00116749 0.00043288
O 7.07103286 25.53373439 32.20416541 -0.00012294 0.00137125 0.00344476
O 4.90789029 24.67065544 33.17762774 -0.00213885 -0.00035221 -0.00584890
O 3.43831445 28.82117798 31.93346838 0.00046677 -0.00006955 -0.00493131
O 7.79629610 24.32253543 25.69792006 -0.00365737 0.00650578 -0.00255996
O 9.45203218 19.40284812 27.37296589 0.00258007 -0.00311405 0.00497386
O 14.21323524 8.66737899 2.63418030 0.00813002 0.00149813 0.00227028
O 15.57465763 3.34919501 3.45636279 -0.00198319 -0.00027641 0.00408096
O 18.30270844 1.27835423 9.36812427 0.00234193 0.00639687 0.00339592
O 17.35496450 6.00839553 8.52681281 0.00037490 0.00389835 -0.00035618
O 15.16282924 4.87122236 9.38588607 -0.00880839 0.00234743 -0.00134335
O 13.43392685 9.63987477 8.53611930 0.00013926 -0.00481705 -0.00277476
O 17.79470988 4.36893940 2.57897464 0.00671815 0.00423244 0.00029924
O 19.22484043 28.72391402 3.79246638 0.00247888 -0.00247595 0.00284919
O 12.88105332 8.68666422 14.20860111 0.00153648 0.00601563 -0.00313462
O 14.13418931 3.70444671 15.31211455 0.00321609 -0.00151012 0.00113382
O 16.95133645 1.24608382 21.13687065 -0.00358653 -0.00168971 -0.00346420
O 15.33470101 6.18461767 20.19833704 -0.00311296 -0.00455181 0.00048352
O 13.51710733 4.97201400 21.20719694 -0.00719897 -0.00238353 0.00097678
O 11.99713306 9.81497338 20.00499793 -0.00203120 0.00616312 0.00270155
O 16.13691759 4.80123247 14.15952856 0.00140474 0.00304312 0.00275748
O 17.79184973 28.79884433 15.71723291 -0.00199274 0.00693904 0.00032049
O 11.06637631 8.22691792 26.18484233 0.00390252 0.00096432 -0.00526697
O 12.83035213 3.71530469 27.31374807 0.00310964 0.00514104 -0.00033783
O 15.34707130 1.11102182 33.34382943 -0.00092485 -0.00282094 -0.00737701
O 13.95586606 6.03150693 31.96885400 0.00014408 -0.00022637 0.00333270
O 11.86086400 5.19215829 33.38457598 0.00143913 0.00205299 0.00431243
O 10.49191620 9.68666540 32.02153135 0.00085061 0.00104839 -0.00876357
O 14.70972178 4.56464322 26.01869475 0.00626452 0.00292377 -0.00031699
O 16.26297306 28.79691462 27.52401254 0.00108520 0.00408413 -0.00185350
O 14.32419188 18.25591016 2.63825322 0.00307324 -0.00170956 0.00237260
O 15.78163716 13.86369994 4.07014822 0.00301298 0.00363210 0.00283851
O 18.50440612 10.72224835 9.70058846 -0.00438469 -0.00639555 0.00308751
O 17.10013313 15.73020419 8.83997330 0.00016940 -0.00092350 0.00174291
O 15.31073209 14.28635420 9.85942153 0.00607710 -0.00393041 0.00282409
O 13.66323189 19.52895326 8.76984789 0.00070151 0.00496447 -0.00506180
O 17.56845772 14.48391802 2.45747413 0.00366549 -0.00267680 -0.00040170
O 19.15228885 9.95365577 3.99985487 0.00046038 0.00816416 -0.00242421
O 13.06924648 18.34353682 14.10648411 0.00065676 -0.00581148 0.00509041
O 14.39353403 13.19868078 15.12482063 0.00048059 -0.00001757 0.00051754
O 16.69697994 10.79926567 21.46347750 -0.00317449 -0.00568829 -0.00043960
O 15.71893213 15.59692194 20.28417357 -0.00421204 0.00109924 -0.00393583
O 13.55154641 14.72955488 21.70585884 -0.00232610 0.00427697 0.00354604
O 11.80243890 19.17259604 20.13957127 -0.00031800 -0.00586437 0.00117085
O 16.16353700 14.59122437 13.92628599 0.00868198 0.00200865 -0.00132473
O 17.82334080 9.38465961 15.59608142 -0.00488398 0.00000234 -0.00240076
O 11.42025777 18.99589962 25.57999105 -0.00150279 0.00306596 -0.00594465
O 12.72758207 13.52791715 27.40931913 0.00478438 0.00242779 0.00423624
O 15.18489585 10.81298450 33.30601996 0.00210588 -0.00513929 0.00452917
O 13.79608166 16.25182385 32.25395455 -0.00620674 -0.00088482 0.00187998
O 11.79118238 15.02695663 33.26818227 -0.00579319 -0.00576608 0.00393688
O 10.33567064 20.01837882 31.72539893 0.00294180 0.00388171 0.00033720
O 14.81964426 14.53994378 26.09920730 -0.00658747 -0.00264150 0.00229117
O 16.10766709 9.69135986 27.25599740 0.00720252 0.00335065 0.00128912
O 14.48042976 27.69293458 2.75895832 0.00322894 -0.00538564 -0.00422650
O 15.51673464 23.00553869 3.70539054 -0.00272440 -0.00126095 -0.00305411
O 18.27863539 20.04777041 9.45472413 0.00462698 -0.00538402 -0.00291659
O 17.19411044 24.98250588 8.57432107 -0.00553165 0.00743018 -0.00299794
O 15.31758989 24.31699210 9.97069526 -0.00198839 -0.00787039 0.00309587
O 13.45418229 28.82821467 8.27882131 0.00278700 0.00609081 -0.00586701
O 17.70076804 24.03946721 2.43649978 0.00940110 -0.00293572 -0.00823161
O 19.25227690 19.11426449 3.93388632 -0.00269768 -0.00190177 -0.00311538
O 12.95768482 28.06925918 14.40844963 -0.00239501 0.00111945 0.00017452
O 13.91897502 23.50858258 15.47311548 -0.00272817 -0.00305013 0.00069461
O 16.79385918 20.47376152 21.03307215 0.00511290 0.00039112 -0.00357772
O 15.30883144 25.05748548 19.91112944 -0.00350218 0.00180612 0.00311978
O 13.43231841 24.05302218 21.13981489 0.00089498 0.00100491 -0.00098706
O 12.15355305 28.95165551 20.19668389 0.00077648 -0.00142578 0.00089102
O 16.16896241 24.11280556 14.07021027 0.00098089 0.00197789 0.00381749
O 17.73446416 19.35981590 15.45735010 0.00182448 0.00748828 0.00220268
O 11.47527320 28.18976033 25.79572055 0.00314774 -0.00012620 0.00311595
O 12.62462136 23.41997665 27.02075327 0.00052281 0.00284227 -0.00295055
O 15.22328459 20.54348693 33.12365539 0.00374880 -0.00105363 0.00050706
O 14.08514022 25.26287973 32.18779374 0.00284058 -0.00521423 -0.00605457
O 11.93807701 24.31044553 33.45372779 -0.01098602 -0.00096296 -0.00484008
O 10.23720277 28.91669213 31.89385432 -0.00185010 -0.00304351 0.00089756
O 14.58335481 24.19457516 25.63850171 -0.00161271 -0.00275684 -0.00544858
O 16.06611301 19.58950790 27.14958384 0.00128601 0.00054521 -0.00373583
H 20.20502171 8.90771510 2.82469479 -0.00582714 0.01549483 0.00276964
H 2.63711085 4.28916288 3.44389339 0.00957427 0.01019413 0.00982114
H 5.26159023 0.45829679 9.07599462 0.01265679 -0.00431004 -0.00491241
H 2.55731162 5.74522270 8.83039627 0.01676613 0.01498398 0.01891422
H 5.50019927 8.07312790 0.78048427 0.04128470 -0.01829354 0.01247733
H 3.88605302 3.49176338 5.39098285 -0.00049845 0.00003894 0.01762358
H -0.29383148 1.69726232 11.13725611 0.01102656 0.00567937 0.01097467
H 1.44012661 6.49257639 6.88907058 0.01023862 -0.00785987 0.00545755
H 4.02446800 6.81670953 10.82601806 0.00201264 -0.00714490 -0.02219880
H 3.75369901 1.79457448 7.42587008 0.00813331 0.00839848 0.00969992
H 1.28553302 3.21586546 1.27475299 0.00937066 0.01378688 -0.00135331
H 1.43539478 8.06425965 4.95318126 0.00406208 -0.01652746 -0.00115870
H -2.05310101 5.54117769 35.49258978 0.01947687 -0.02115765 -0.01500496
H 0.03527686 0.30324099 6.14839955 -0.00584040 0.01184420 -0.02122403
H 2.61165872 4.37476237 11.76777810 0.00071858 -0.01971739 -0.00461479
H 5.40425423 9.21201409 5.73127749 0.00974102 0.03772591 0.01605917
H 2.56823964 7.20819918 1.85207882 0.02784453 0.01165361 0.00063846
H -0.07722288 2.20740990 4.34778606 -0.02653276 0.03173226 -0.00479069
H 2.55264496 2.64561890 9.98400277 -0.00686111 0.01318484 0.01247486
H 5.40173903 7.70992313 7.88511701 -0.00594543 -0.01048340 -0.00291774
H 4.93196380 5.27112212 9.63938440 0.00959270 -0.02684175 0.00876237
H 2.90771547 28.74537584 8.11517881 0.00624758 0.00589181 -0.00419887
H 0.17579555 4.98567644 2.32108071 -0.00846624 -0.01008836 -0.00287068
H 2.42976418 9.96163065 3.87084267 0.01378869 0.00437748 0.00856244
H 6.47772628 2.60620128 8.77890977 -0.02562247 -0.02705101 0.02392419
H 0.65336764 8.83824976 10.67019892 -0.02140381 -0.01810820 0.00436391
H 19.36488364 5.18619722 4.85072835 0.00430093 0.02753931 0.01461064
H 4.03676598 2.19133568 2.57715559 0.00842637 0.03310943 -0.01121975
H 19.56447228 3.56359187 8.05330732 0.01360830 -0.00369685 0.01444664
H 2.10826052 9.74018661 10.40288432 -0.00985283 0.01744613 0.02151229
H 4.65000760 5.71549435 4.80767728 -0.02886643 -0.00449458 -0.00961708
H 5.08219680 1.20982728 1.66476997 -0.00225162 0.01865543 0.00511606
H 0.34530061 2.59130637 8.60502883 -0.00986274 -0.01078571 0.00863774
H 1.93116477 8.02026860 9.93098869 -0.00785521 -0.01501296 0.02167056
H 6.44748856 5.90022525 4.45166440 -0.00313294 -0.01562104 0.01023510
H 3.28874740 0.76957708 1.73748829 0.01835283 -0.02491162 0.02078717
H -1.57881387 9.22459099 14.28529875 0.01125783 0.00481417 -0.01142735
H 1.31705004 4.17141374 15.00513770 -0.01202005 -0.00976464 0.00806186
H 3.97840743 0.51346773 21.30519360 0.01261113 0.00205464 0.01560240
H 0.88419037 5.37757701 20.61790725 -0.00153517 -0.02272997 0.00849673
H 4.19033151 8.31920859 12.82116011 0.01818003 0.00035071 -0.00979945
H 2.29922528 3.52313842 17.03950578 -0.00021754 -0.00015266 -0.00008904
H -1.86853614 1.27168201 22.98175845 0.00650192 0.01003857 0.00705317
H -0.19341590 6.15020144 18.44066634 0.01523747 0.00763487 0.01421578
H 2.37190391 6.72419906 22.90170559 0.00032206 -0.00464354 -0.02999831
H 2.32816706 1.84912478 18.92674004 -0.01067686 0.01800525 -0.00294194
H -0.29120228 3.21231162 12.96220641 -0.01706605 -0.00613449 0.01364598
H -0.14423515 8.03623017 16.76593519 -0.02538475 0.00319510 -0.00337978
H 1.22821214 5.53475770 11.68807282 0.00168099 0.00626713 0.00623075
H -1.58254038 0.57064541 17.80705641 -0.00156307 0.00694310 0.00624172
H 0.88409480 4.02813417 23.86926371 0.00874472 0.00015807 -0.01549071
H 3.99399910 8.73530656 17.70315390 -0.01630315 -0.00566631 -0.02107632
H 1.23181597 7.00768284 13.38464335 -0.00060017 -0.00327259 0.02832780
H -1.70568766 2.38780694 15.98106845 -0.00759826 -0.00672681 -0.01568978
H 0.88263109 2.30602083 22.25770912 -0.00576923 0.01503933 -0.00090444
H 3.66386125 7.35292198 19.71712889 -0.00870436 0.02850236 -0.01943987
H 3.23766853 4.75339586 21.73014614 0.01105329 -0.00099737 0.01207630
H 1.40861906 0.15464459 19.86744275 0.01773176 -0.00632507 -0.03164212
H -1.43175055 4.99654493 13.90583923 0.00347766 -0.02219615 -0.01248623
H 1.02676290 9.82401631 15.60424991 -0.00707703 0.01445596 -0.01205159
H 5.85620000 3.22156386 19.67316105 -0.01286537 0.00569899 0.01028851
H -0.53656912 7.53116776 21.05201505 0.02646091 0.00065852 -0.02148861
H 18.22081500 6.95513187 15.27651889 -0.02764785 0.00039448 0.00757642
H 2.30963328 2.06100084 13.90664260 -0.01014741 -0.00278748 0.02645016
H -0.99119069 3.64778082 19.29055358 -0.00465694 -0.02102519 -0.00803906
H -1.74935046 8.43043622 22.15690307 -0.00849073 -0.00998901 0.00730251
H 4.58766426 6.74420508 15.05125319 0.01239070 0.02540489 -0.01189710
H 2.73944060 0.76277237 12.84193323 0.00192413 -0.00349745 -0.00941331
H -2.27963225 4.94264004 19.21897497 -0.01596277 0.00505905 -0.00672443
H -0.03958815 8.88681563 22.25594018 -0.00101898 -0.01164400 -0.00196426
H 2.95209204 6.52162432 15.68107822 0.00166076 0.00399676 0.00595637
H 1.09087532 0.84093882 13.49834409 0.01309903 0.01833622 -0.01288118
H -3.25881211 8.96355078 26.31518348 0.02242111 0.01546804 -0.01771056
H -0.22792218 3.83799469 27.32394248 -0.00541896 -0.00829675 0.01459148
H 2.36918440 0.57458083 33.08485788 -0.01635188 -0.01535358 -0.03409868
H -0.75763432 5.47566441 32.28618058 0.01223343 -0.01237593 0.00855064
H 2.52329945 8.07625248 24.96987130 0.02279418 0.02705179 0.00744776
H 0.84613570 3.18526280 29.25556467 -0.00140547 0.01656414 -0.00969939
H -3.57751896 1.35340087 35.21828090 -0.00424894 -0.01466387 0.01845955
H -1.98354217 6.58350257 30.82753782 -0.00154550 0.00136281 0.01315419
H 0.77056646 6.54787565 34.47581909 0.00913838 0.00260177 0.02189329
H 0.94099948 1.57293085 31.01795295 0.02007960 0.01781248 -0.02982926
H -2.01533387 2.66933258 25.03565855 -0.00396512 0.02354664 0.01463648
H -1.80312286 7.64002941 28.68352937 0.00266916 -0.00681096 0.00815389
H -0.50907125 5.14743893 23.76579079 -0.01467690 0.00404551 0.02522546
H -2.95047822 0.14502194 30.08131982 0.01245174 0.00405901 0.00378449
H 4.24645495 4.24867758 0.32483867 -0.03766866 0.01035982 0.00636735
H 2.17019131 8.99415658 29.57573598 -0.02162809 -0.00762838 0.01473548
H -0.41072303 6.81996039 25.42115978 0.00989802 0.00190197 -0.02635865
H -3.16090329 1.90824641 28.19399759 0.00778675 0.00406472 0.00799468
H -0.59596591 2.47121602 34.12819693 -0.00860265 0.01210815 0.00262149
H 2.16289462 7.32596577 31.43838528 0.00281594 -0.00410024 0.01160393
H 1.85841586 4.58569261 33.48763890 -0.03205009 -0.01532563 -0.02043847
H 0.06034139 28.86286786 32.01272089 0.00926453 -0.00011712 0.02242784
H -2.94230603 4.07778004 26.19998777 -0.00803306 0.00076569 0.00199186
H -0.77500490 9.32697414 27.44333596 0.01300430 0.01131248 0.02722617
H 3.80931745 4.24702436 30.82143450 0.00639153 -0.00281642 0.00225107
H -1.14662645 8.00504383 33.38375901 -0.00281890 0.00766189 -0.01384658
H 16.97026327 6.65814929 27.20516921 -0.01580777 0.01895274 0.02756179
H 1.56879568 1.37385712 25.69614686 0.02283345 0.00535318 0.00432676
H 16.21508784 3.44047375 32.12225751 -0.01271958 0.00887341 -0.02233101
H -2.93319146 7.89587382 33.45624820 0.00175380 0.01039034 -0.01153941
H 2.79720536 5.29430291 28.18818216 -0.00781357 -0.02024743 -0.00387086
H 0.41261469 29.00421296 25.07300764 0.01074078 -0.03751140 -0.01193229
H -2.89161659 2.62403272 32.55022743 0.01400956 -0.00693090 -0.02487434
H -2.15754218 9.13517671 34.44564128 -0.01232295 0.00050261 0.02367278
H 2.32061543 6.76934626 27.43435230 -0.00823799 0.00998378 0.00846786
H -0.16473970 1.32291556 26.07330148 0.00125009 -0.01531376 0.00652323
H -0.32322462 18.48393702 2.90421504 -0.00465522 -0.01459760 -0.00941977
H 2.93236740 13.90147381 3.53217129 -0.02143691 -0.00729127 -0.00970348
H 5.55321866 10.24597140 9.50680748 -0.00251421 0.01099102 -0.01234769
H 2.74110422 15.10611230 8.73928300 -0.02552671 0.01003579 -0.00300464
H 5.65787642 17.97436529 0.70738935 0.01087039 0.00916589 0.02880837
H 3.93760206 13.33646551 5.57070998 0.00985175 0.01714185 0.02503536
H -0.41599121 10.61311742 11.57746073 -0.02412235 0.00434802 0.00748041
H 1.45397817 15.74612544 6.75471349 0.01085463 0.01064216 0.03238206
H 4.37463721 16.82610041 10.60866584 0.00332797 -0.01652022 -0.02107529
H 3.94308108 11.37601953 7.24870255 0.00437169 -0.00102587 -0.00008677
H 1.07892020 12.79041186 1.33087973 -0.01070866 -0.00953516 0.03762120
H 1.39694845 17.32371101 4.71226375 -0.01477184 0.01917249 -0.01941622
H -1.97508231 15.30389901 35.52874074 -0.01658772 0.01081275 -0.00879975
H 0.02605781 10.41825372 6.20356522 0.01685527 -0.02477710 0.01421069
H 2.80189469 14.05846693 12.23464570 -0.00631357 0.01181721 0.00708709
H 5.15874567 18.94973238 5.93411305 -0.00274283 -0.03830140 0.00252394
H 2.60746264 17.00257390 1.71508022 0.01704281 -0.01143679 0.01013832
H 0.07664309 12.13550106 4.45614434 -0.01186892 0.00562306 0.00486124
H 2.64384309 12.41508932 10.41091958 -0.01385078 0.02559623 0.00236733
H 5.51978676 17.11477763 7.67837473 0.00494424 0.02606165 0.02344857
H 5.23571270 14.73508735 9.70365503 0.00860244 0.02738274 -0.01182280
H 2.92926173 10.01007012 8.39688252 -0.00424910 -0.01834548 0.02356904
H 0.02952960 14.79988750 2.29447476 0.00997055 0.00873795 0.01224894
H 2.32779259 19.25492055 3.83690567 -0.03569370 -0.00910774 -0.02096627
H 6.05837471 13.69425124 7.53587992 -0.01713679 0.00628971 -0.00817602
H 0.77720120 16.98172352 9.19034199 -0.01903156 0.00499250 -0.00814719
H 18.81607301 16.34393473 4.20247670 -0.00141163 -0.01569579 -0.00808570
H 3.48634890 10.69730697 1.45804613 -0.02899805 -0.02327174 -0.01036756
H -0.58883995 13.90975076 7.76027788 -0.00365507 -0.01635049 0.00562212
H 0.82627783 18.35716758 10.39575686 -0.01235089 0.01623538 0.02456734
H 6.37360794 16.17938904 3.63165161 0.01849137 0.01996239 0.00352239
H 3.92877052 11.93481985 2.57309162 -0.00845035 -0.02283296 0.00205526
H -0.47387736 12.47653715 8.52735509 -0.00348413 0.00780643 -0.00149984
H 2.33867780 17.94084428 9.43057439 -0.02685652 -0.00158052 0.01943193
H 4.79577479 16.90291817 3.22798774 0.02758633 -0.00512911 -0.02748576
H 5.24231900 11.10049840 1.68205820 -0.00700502 0.00251154 0.02810283
H -1.58350364 18.71575226 14.57948795 -0.00870986 -0.02676023 0.03238776
H 1.51264263 13.87520160 15.14694463 -0.00375772 0.00171525 0.00830547
H 3.87833890 10.44501662 20.92597779 0.01798547 0.00600163 0.02253934
H 1.07753443 15.42286102 20.72790967 0.01212160 0.00799954 0.02204645
H 4.30109479 18.14172331 12.73660175 -0.00844544 -0.00322651 0.00864530
H 2.63357963 13.03583415 17.13031532 -0.00248439 0.01071327 -0.01142406
H -1.79964815 11.18394376 23.09889080 -0.03251413 0.00954370 0.02702965
H -0.00107221 15.79164206 18.64261978 0.00340956 -0.02533181 -0.02744158
H 2.36608795 16.18695607 23.00453866 0.00279416 0.01843417 0.02314774
H 2.48076014 11.10971632 18.88628968 -0.01342431 0.02005848 -0.03161558
H -0.31756446 12.21776054 13.41995939 0.01817934 0.00423921 0.02811813
H 0.06976900 17.42172837 16.61401956 -0.00279399 0.00991469 -0.00145202
H 1.37535493 15.03647382 12.27729726 0.01570425 -0.02370301 0.00013307
H -1.64318465 10.42835892 17.81993815 0.02750642 -0.01278729 0.00047163
H 0.98329348 14.02289069 23.83475264 0.00337357 -0.01357289 0.01015492
H 3.93366465 18.76391919 17.72889092 0.00364624 -0.01468222 -0.00123056
H 1.29603973 16.87677187 13.86610427 -0.01198249 0.00149719 0.01081767
H -1.46519472 12.48278064 16.15875271 -0.01124065 0.00901030 0.01371511
H 1.02329620 12.53499944 21.73069044 -0.01683787 -0.00695612 -0.00098721
H 3.88659603 17.29317145 19.65784282 0.01859949 0.00372582 0.01775407
H 3.50687106 14.86350032 21.36277880 0.00527360 -0.00185515 -0.02967992
H 1.13153407 9.56736083 19.86139811 -0.01893750 0.01553752 -0.01366216
H -1.26696980 14.09377746 14.39088357 0.01579172 0.01133165 -0.00783087
H 0.76778189 19.24892739 15.58490657 0.01796068 0.00668034 -0.00446106
H 5.62595998 13.18366834 19.16029701 0.02687830 -0.01528046 0.01726784
H -0.25840322 17.17860624 21.02974342 0.00582659 0.04169867 0.01505203
H -1.99072154 15.70679035 15.75428109 -0.00802906 -0.01106695 -0.00916916
H 2.19638171 11.66305137 14.62149492 -0.00191950 -0.02124393 -0.02411899
H -2.00835657 13.94502939 19.50269953 0.00879341 0.00098028 -0.00023543
H -1.12114219 18.22731223 22.15248209 0.00361882 -0.00917516 -0.00911878
H 5.07451340 15.20660393 16.62943785 0.04023524 0.01495241 0.00521783
H 3.76116438 11.93939089 15.38168930 -0.00774593 0.01214601 -0.00088036
H -2.23721182 12.50636170 20.61181007 -0.00367455 0.01362703 -0.00113990
H 0.61440269 18.51816245 21.89664915 -0.02173670 0.02063715 0.00741062
H 4.30769401 16.58666427 15.99601302 0.00336560 -0.01989203 0.00543008
H 3.73212638 10.98887412 13.83805312 -0.00826105 -0.00024957 0.00783401
H -3.41495514 18.80848978 26.31304488 -0.01852690 -0.02185334 0.01592186
H -0.32076261 13.79266352 26.93163759 0.00681647 0.01184091 0.00656247
H 2.18734353 10.48195919 32.97072276 -0.02920851 0.01284107 -0.00797549
H -0.54812408 15.29243729 32.68847181 0.00892141 0.00678972 -0.00391445
H 2.51646124 17.67286275 24.77908711 -0.01601533 0.03968834 0.01442349
H 0.96230289 12.79262678 29.03680428 0.00291116 -0.01998083 -0.01373733
H -3.58955695 11.34107565 35.19717953 0.00310150 -0.00337713 -0.00600197
H -1.75010723 16.13773173 30.55578954 0.00699481 0.00439649 0.01103491
H 0.99138350 16.44888137 34.25456520 0.03238929 -0.00034760 0.00089755
H 0.71974262 11.38610013 30.91296117 0.01874025 -0.03596693 0.00640841
H -1.64631723 12.66689292 24.82702029 0.01054327 0.01244981 0.01850230
H -1.72171151 17.64803926 28.51666012 -0.00705971 -0.01686076 -0.00719846
H -0.36495353 15.34862228 23.58631344 -0.01083610 -0.00977803 -0.01689933
H -3.10306108 10.14174132 29.75822456 -0.01162898 -0.01527278 0.01346691
H 4.01117122 13.87186978 0.27112829 0.00513215 0.01677837 0.01167350
H 2.17523554 18.84240674 29.68117269 0.01339653 -0.01701843 0.00586327
H -0.69316146 16.73282633 25.71894030 0.01366646 0.01289754 0.01395443
H -3.13881929 11.80141821 27.88289131 -0.01133782 0.02539537 -0.01302813
H -0.78316223 12.30142857 34.03207893 -0.00377963 0.00952906 -0.01879571