2160
Time=50000.00000004 pbc="T T T" Lattice="20.62369395 0.00000000 0.00000000 0.00000000 28.98263569 0.00000000 -4.72627901 0.00000000 35.51818850" energy=-13799.65929317 virial="-78.21048936 21.14810618 53.84074495 21.14810618 -52.42106188 -10.89953722 53.84074495 -10.89953722 -33.20011710" stress="-0.00114676 0.00102428 0.00258565 0.00102428 -0.00005563 -0.00055295 0.00258565 -0.00055295 0.00092695" Properties=species:S:1:pos:R:3:vel:R:3
O 0.86873997 8.78674037 2.50754052 -0.00390456 -0.00125127 0.00354156
O 1.89406895 3.95051601 3.57523459 0.00271155 -0.00145982 -0.00401049
O 4.62312280 1.02155156 9.36064981 0.00110505 0.00357967 -0.00040396
O 3.27148010 6.06682905 8.44548619 0.00208628 0.00185664 -0.00158272
O 1.37505356 4.87160821 9.65500285 -0.00513155 0.00194966 0.00166592
O -0.53970089 10.06583880 8.05502194 -0.00108388 -0.00179952 -0.00610696
O 4.12308200 5.06996478 2.43139666 -0.00692085 0.00573469 -0.00305516
O 5.52417995 0.09776993 3.53902496 0.00163279 0.00303672 -0.00052840
O -0.88999105 8.46958410 14.32764589 0.00604825 -0.00266236 0.00610978
O 0.46635921 3.73319519 15.45572414 -0.00075674 -0.00385503 0.00584369
O 3.07591365 1.04281918 21.33386342 0.00483508 0.00331022 0.00180343
O 1.86020539 5.84063654 20.26076928 0.00140981 -0.00287295 -0.00450882
O -0.31735181 4.72848929 21.51915638 -0.00034433 0.00109513 -0.00569203
O -2.02360315 9.71400143 20.30779390 0.00047788 0.00677030 -0.00272141
O 2.44045960 4.57214328 14.14950004 0.00123847 -0.00288498 -0.00347165
O 4.18020142 28.70289911 15.62218639 -0.00496919 -0.00334195 0.00404530
O -2.33842641 8.56326364 26.05183433 0.00872501 -0.00198281 -0.00067421
O -1.31564302 3.60856010 26.99253782 0.00482537 -0.00584109 -0.00217072
O 1.54786525 1.11327703 33.29439944 -0.00201659 0.00396158 0.00608112
O 0.35906334 5.97250231 32.26817229 -0.00144332 0.00320821 -0.00023857
O -1.67812140 5.00442438 33.35263194 0.00418555 -0.00353530 0.01210436
O -3.48358232 9.69467008 31.81135194 -0.00322568 0.00568214 0.00140605
O 0.79084932 4.87838085 26.18948899 0.00319285 0.00669834 -0.00342189
O 2.28264927 28.95289349 27.53492361 -0.00215521 0.00265256 0.00069798
O 0.57369618 18.15449300 2.31081898 0.00225230 -0.00214014 0.01074296
O 2.07694322 13.53370193 3.27763590 0.00153690 -0.00298733 0.00352257
O 4.38560524 10.76823376 9.33508741 0.00998890 0.00122118 0.00019280
O 3.42651913 15.56136243 8.28944152 -0.00132297 0.00055325 -0.00114909
O 1.56455798 14.65212359 9.99288870 0.00264833 -0.00254224 0.00061900
O -0.22729122 19.43728595 7.97306555 0.00265054 -0.00534199 0.00289263
O 4.02732959 14.74327468 1.99971984 0.00807935 -0.01118757 -0.00099396
O 5.84142568 9.69973022 3.83754716 -0.00550099 0.00285613 -0.00294839
O -0.89719310 18.11432501 14.48569896 -0.00067335 0.00348161 0.00144893
O 0.43993160 13.27027545 15.49270785 -0.00111100 -0.00243800 0.00144255
O 2.88497969 10.62811194 21.33891797 0.00038100 0.00365124 -0.00537420
O 1.91439811 15.69278194 20.44771257 0.00760001 -0.00453655 0.00021800
O -0.37084084 14.68441244 21.06663239 -0.00598989 -0.00106132 -0.00496670
O -1.91411474 19.57709639 20.12974384 0.00070409 0.00219438 -0.00583065
O 2.66324574 13.86860228 14.47253661 -0.00474362 -0.00026042 -0.00145048
O 3.73462064 9.12377206 15.43121947 0.00555243 0.00741377 0.00176440
O -2.59353585 18.64800228 25.71621417 0.00104876 -0.00317971 0.00440603
O -1.14952618 13.09574395 27.03506213 0.00032827 0.00143009 -0.00406737
O 1.36530235 10.65563521 33.10794010 -0.00148650 -0.00270684 -0.00090711
O 0.40277908 15.29621608 31.77846218 -0.00215339 -0.00093147 0.00036079
O -1.75587428 14.65175122 33.21623877 0.00245089 -0.00118854 -0.00113517
O -3.45652559 19.13932318 31.72985509 -0.00060317 0.00094528 0.00568278
O 1.06594188 14.41117955 26.13906884 0.00031843 -0.00298687 -0.00095643
O 2.47919436 9.46325898 27.33622284 0.00076009 0.00115697 0.00153883
O 0.77989630 27.93037709 2.46532632 0.00592198 -0.00436019 0.00024142
O 1.86234486 22.95095173 3.04896844 0.00351803 0.00299428 0.00009124
O 4.58124968 20.21476188 9.47481033 -0.00125141 -0.00041874 0.00535526
O 3.37277881 25.10612591 8.11964535 -0.00173927 0.00310024 0.00055022
O 1.27543185 24.09930272 9.27752618 -0.00647305 0.00253410 0.00280756
O -0.41498861 0.16586113 8.10200356 0.00003525 -0.00298084 -0.00375378
O 3.97959524 24.32380324 2.19402501 0.00828876 -0.00103133 -0.00416822
O 5.31806037 18.85727418 3.28342275 -0.00334133 -0.00254758 0.00015389
O -0.54260898 27.69553767 14.19364434 0.00201958 0.00032234 -0.00182463
O 0.52538442 22.72422850 15.16782305 -0.00359617 -0.00174499 -0.00247460
O 2.93168362 20.07276615 21.46786682 0.00062269 -0.00229295 0.00199263
O 1.48588630 25.06691982 20.08049114 -0.00135558 -0.00409294 0.00228440
O -0.40957570 24.08106789 21.46377099 -0.00594311 -0.00109075 0.00242133
O -1.80828893 0.03252289 20.02754703 -0.00171421 -0.00242115 0.00179855
O 2.50382541 23.78615005 13.97765507 0.00176198 -0.00191575 -0.00274045
O 4.02931726 19.17476457 15.60291194 -0.00143361 0.00048636 0.00192777
O -2.45401811 27.62101615 26.21857755 -0.00375091 -0.00228916 0.00515426
O -1.39966411 23.30581124 27.40713072 -0.00407490 0.00131954 0.00049499
O 1.23030751 20.53156832 33.01116043 0.00000891 0.00367766 -0.00470578
O -0.07524398 25.57708144 32.34601760 0.00278775 0.00778809 0.00026098
O -1.81753462 24.01022595 33.45293264 0.00037695 -0.00198057 -0.00458941
O -3.35719587 0.00644035 31.76176954 -0.01050481 0.00644598 0.00045376
O 0.81143735 23.87645483 25.93037928 0.00801167 0.00055996 0.00327034
O 2.28199437 18.99377315 27.16068618 -0.00327848 0.00435442 0.00231881
O 7.80720040 8.62694185 2.48862080 -0.00392738 0.00055298 0.00397977
O 8.69971293 3.83628214 3.57472143 -0.00472689 -0.00100185 0.00081923
O 11.30834457 0.92577473 9.50170736 0.00183794 -0.00365379 0.00634811
O 10.36021591 5.75382923 8.49791261 -0.00083129 0.00048146 -0.00150312
O 8.13277851 5.05525100 9.46245384 0.00183061 -0.00746999 0.00320823
O 6.67881537 9.89522775 8.44526433 0.00048935 0.00233506 0.00110253
O 10.88881606 4.91526930 2.55840519 -0.00556608 -0.00409435 0.00478487
O 12.27527109 0.38354742 3.72647866 0.00363086 0.00051644 -0.00417671
O 5.98464586 8.40047500 14.22338356 -0.00049350 -0.00289103 -0.00142135
O 7.38941388 3.69492912 15.26255275 0.00008184 0.00413859 -0.00018489
O 9.97600949 1.15584437 21.19908322 0.00114220 -0.00257610 0.00204254
O 8.46314866 6.03308697 20.12686420 -0.00010327 -0.00172346 0.00327233
O 6.61982823 4.80259168 21.39477542 0.00719438 0.00124185 -0.00591324
O 4.96499041 9.73148807 19.99720826 -0.00703541 0.00128543 -0.00326230
O 9.42520951 4.97027237 14.08979542 -0.00059465 0.00219488 0.00082247
O 10.94100563 0.00677197 15.80454563 0.00226542 0.00077368 -0.00464269
O 4.52814544 8.40706252 26.18272450 -0.00020666 -0.00178186 0.00308929
O 5.60865065 4.04744228 27.56766421 -0.00547907 -0.00039239 -0.00401196
O 8.52956529 1.13497799 33.22266358 -0.00442729 0.00176993 0.00872114
O 7.27714469 6.00602134 32.32421996 0.00136051 0.00343009 0.00066780
O 5.11696949 4.72342223 33.29726337 0.00071951 0.00778762 -0.00059696
O 3.66947648 10.10102261 32.08711363 -0.00211137 -0.00409782 0.00119836
O 7.78338830 4.69287381 25.90191450 -0.00249238 0.00118496 -0.00150353
O 9.33347035 0.06023594 27.53358949 -0.00214102 0.00075485 0.00498622
O 7.56341761 18.09998484 2.22028278 -0.00749774 0.00114075 -0.00253351
O 8.99454423 13.34786678 3.55769522 -0.00293892 -0.00344710 -0.00384103
O 11.60436147 10.59465646 9.69715291 -0.00204821 -0.00941935 -0.00143108
O 10.30438628 15.53734100 7.94302507 -0.00095702 0.00256313 -0.00821343
O 8.28597734 14.74898295 9.14953380 -0.00215581 -0.00089678 -0.00626693
O 6.62698175 19.54554700 8.16087701 -0.00464384 0.00595835 0.00001123
O 11.00468752 14.37146643 2.24739393 0.00434770 -0.00345651 -0.00280120
O 12.55363755 9.54709507 3.96068556 -0.00187320 -0.00285100 -0.00087355
O 5.96952803 17.91282314 14.30458133 0.00194912 -0.00269200 -0.00348907
O 7.06509639 13.36361331 15.17113848 0.00250486 -0.00473364 -0.00218021
O 9.85259608 10.86416082 21.43824762 0.00014940 -0.00828071 -0.00395413
O 8.53787368 15.84903828 20.41515508 0.00109139 -0.00383694 0.00318181
O 6.52826065 14.38435969 21.65432904 -0.00208395 0.00244468 -0.00051991
O 5.23518343 19.72762352 20.19127657 0.00207870 -0.00166975 0.00254624
O 9.21093784 14.52454830 13.94484779 0.00437619 0.00262140 0.00039848
O 10.88221795 9.86902440 15.64790213 0.00628126 -0.00244260 0.00101071
O 4.48648019 17.93551825 26.49213059 0.00030496 -0.00061764 -0.00033784
O 5.69376494 13.25582409 27.12986115 -0.00054226 -0.00195402 0.00208074
O 8.61078481 10.78487378 33.01557589 -0.00250060 -0.00478775 -0.00286432
O 7.06000180 15.42464446 32.30888726 0.00443843 -0.00131520 -0.00121901
O 5.02585237 13.96301075 33.39264859 -0.00041143 0.00258506 -0.00027266
O 3.32779847 19.37375469 31.76332618 0.00432769 0.00031811 0.00392529
O 7.68632269 14.49920254 25.93437558 0.00377551 -0.00296736 0.00161237
O 9.38480725 9.49778044 27.65470550 0.00445042 0.00281793 0.00310602
O 7.47872244 28.22402585 2.32198860 0.00526471 -0.00694090 -0.00430673
O 8.61313444 22.95123587 3.25335901 0.00549251 -0.00022721 -0.00349937
O 11.42001303 20.37509412 9.23188345 -0.00074503 -0.00174836 0.00454005
O 10.26688738 24.99739288 7.93167189 0.00030373 -0.00046500 0.00328605
O 8.36142458 24.08508919 9.53523858 -0.00609422 -0.00199630 0.00244047
O 6.50353969 0.02591121 8.09798847 -0.00099889 0.00983885 -0.00330534
O 10.88337732 24.15308207 2.33947422 -0.00207810 0.00082459 -0.00358150
O 12.51065626 19.34112448 3.41592804 0.00230211 -0.00026681 -0.00590669
O 6.13819936 27.90336908 14.13100608 0.00473419 0.00207975 -0.00118623
O 7.14174274 23.14516000 15.16795578 0.00333890 0.00464911 0.00132370
O 9.86940415 20.41120920 21.11882052 -0.00350681 0.00235064 -0.00204523
O 8.66510865 24.58333201 19.85304519 -0.00195525 0.00155815 -0.00472383
O 6.65394800 24.30454943 21.47103723 0.00429545 -0.00175431 -0.00506355
O 4.93668117 28.68649535 19.71392843 -0.00095714 0.00180071 0.00188180
O 9.37014041 24.12949974 13.96176322 0.00109387 0.00676594 0.00378651
O 10.90233247 19.42567652 15.63950911 -0.00324990 -0.00616638 -0.00083905
O 4.45760306 27.92539290 26.18529989 0.00388744 -0.00260846 0.00149724
O 5.53342400 23.05612386 26.96724987 0.00321170 -0.00213820 0.00296058
O 7.98174628 20.28896147 32.99586912 0.00143876 0.00078966 -0.00118095
O 6.97199921 25.07524871 31.85822735 0.00455443 -0.00300430 -0.00473192
O 4.84183060 24.09772692 33.22267129 0.00240074 -0.00610693 -0.00587253
O 3.62607757 0.02136179 31.99740311 0.00409499 -0.00122703 -0.00139381
O 7.57105220 24.24062945 25.88232444 0.00162327 0.00114052 -0.00236624
O 9.51194730 18.99423485 27.60757040 -0.00131119 -0.00331158 0.00615398
O 14.48851033 8.47788107 2.58137314 0.00077107 0.00195740 0.00161465
O 15.70463160 3.82300723 3.45298872 0.01208108 0.00582329 -0.00772011
O 18.11715384 0.65256836 9.80497758 -0.00061981 0.00205335 0.00377857
O 17.17443667 6.28063477 8.64096817 -0.00487603 -0.00297461 -0.01022961
O 15.02603938 4.92778026 9.47865432 -0.00200819 0.00297336 0.00231473
O 13.59012131 9.78715687 8.38287582 -0.00238190 -0.00503653 -0.00022016
O 18.01011080 4.65626472 2.52287571 0.00211211 -0.00820081 -0.00239362
O 19.31413006 28.79695825 3.68778282 -0.00759659 0.00018155 0.00047846
O 12.78664143 8.81666517 13.94344764 -0.00453253 -0.00209222 0.00004304
O 14.32038442 3.50413749 15.27465847 -0.00738673 -0.00019968 -0.00079905
O 16.64181290 0.89636934 21.39939228 0.00046766 -0.00173825 0.01285548
O 15.60457640 5.66934134 19.96022421 0.00226338 0.00113833 -0.00457030
O 13.58210540 4.90849546 21.18771138 0.00398924 -0.00251468 -0.00101880
O 11.65537988 9.82235935 19.99272908 -0.00368161 -0.00360853 -0.00850454
O 16.09639303 4.61033365 13.96693371 0.00061392 0.00300418 -0.00696855
O 17.79495177 28.33017364 15.25042315 0.00092905 0.00428923 0.00215600
O 11.40961470 8.95014784 25.23546788 0.01089999 0.00111236 -0.00077472
O 12.72047574 3.58794353 26.87149135 0.00095821 -0.00118634 0.00210016
O 15.43420449 1.20976470 33.24131993 -0.00056798 -0.00372943 0.00254729
O 14.17013268 5.87399646 32.04895165 -0.00048545 -0.00312245 0.00536817
O 12.12295967 5.17926575 33.33622147 -0.00110432 -0.00564241 0.00337160
O 10.41378991 9.37006081 31.64504876 0.00090131 -0.00179821 -0.00166454
O 14.56853468 4.85651358 25.93325838 0.00285807 -0.00319889 0.00456018
O 16.08229966 28.55079622 27.48126496 -0.00541181 0.00226540 0.00496193
O 14.62475555 18.01573418 2.43381461 0.00445087 -0.00191778 0.00159381
O 15.65584482 13.38160985 3.55399281 0.00069779 0.00044985 -0.00491316
O 18.36856219 10.69109285 9.87740762 -0.00708889 -0.00064394 -0.00488916
O 17.38465435 15.53872954 8.37949635 -0.00221232 -0.00145748 -0.00157175
O 14.98977419 14.44458787 9.69101737 0.00593253 -0.00441133 -0.00251498
O 13.42673811 19.18857298 8.20441013 0.00145902 0.00397416 -0.00103089
O 17.79388603 14.13413257 2.27306050 -0.00152133 -0.00224220 -0.00230422
O 19.26704142 9.35916616 3.54033965 0.00006981 0.00063393 -0.00207153
O 12.89103695 18.24175891 14.22837018 0.00337075 0.00334586 0.00178623
O 13.93862536 13.51918779 15.35595387 -0.00067096 -0.00972673 0.00175794
O 16.49833011 10.78511618 21.41992943 -0.00472387 0.00084247 -0.00353628
O 15.44378610 15.56847336 20.00857022 -0.00378896 0.00525245 -0.00473706
O 13.19346881 15.00065212 20.91676166 -0.00121051 0.00374763 -0.00042994
O 12.10423811 19.56121696 19.73008473 0.00154731 -0.00237253 0.00291346
O 16.24297211 14.44780668 14.34169782 0.00388335 -0.00158132 0.00343675
O 17.61807687 9.51298920 15.46448827 0.00511027 0.00151542 -0.00210591
O 11.46179573 18.28170263 25.99570200 0.00144050 -0.00016427 0.00303232
O 12.62799186 13.46080373 27.22178188 -0.00292749 -0.00320545 -0.00456098
O 15.20898313 10.73462552 33.08054052 -0.00003297 -0.00090767 -0.00196994
O 13.94473059 15.77171766 31.87856351 0.00578267 0.00353469 -0.00786185
O 11.87595847 14.57483146 32.70510608 0.00414220 0.00333988 -0.00123001
O 10.36529347 19.44988743 31.76721979 0.00092716 -0.00249668 -0.00043124
O 14.68061430 14.90133507 26.18816613 -0.00494738 -0.00105464 -0.00163803
O 15.97198877 9.38449580 27.18994268 -0.00238119 -0.00577543 -0.00330355
O 14.41055429 27.68739330 2.49936161 -0.00643914 0.00189092 -0.01115660
O 15.64541296 22.54397715 3.19039707 0.00264064 0.00261183 0.00480899
O 18.43760347 20.22544998 9.30105738 0.00276570 0.00170295 0.00123917
O 16.96405062 25.55661312 8.58206527 0.00237139 0.00650152 -0.00208071
O 15.05487459 24.46302646 9.79893385 0.00682971 0.00084821 0.00239803
O 13.54255461 0.09413628 8.06954755 0.00202933 0.00485013 0.00301674
O 17.37297490 23.99436884 1.97648854 -0.00501973 0.00297481 -0.00094932
O 19.16774115 19.03279251 3.43429538 -0.00237278 0.00268908 0.00357973
O 12.61816995 28.06488914 14.22310971 0.00134056 -0.00397823 -0.00034254
O 13.82729570 23.20783378 15.09298168 0.00429868 -0.00161398 -0.00290078
O 16.61122897 20.32583853 21.56902540 -0.00427287 0.00280780 -0.00454050
O 15.47966662 25.42496024 20.18105695 -0.00752740 0.00098595 -0.00093850
O 13.42671940 24.42012557 21.50627981 -0.00857532 -0.00131598 -0.00530418
O 12.01631613 28.96134116 20.17717586 -0.00550369 -0.00351611 0.00591230
O 16.22963988 23.99420250 13.90628465 -0.00045164 0.00363948 -0.00388260
O 17.77137274 19.35365975 15.50186377 -0.00654131 -0.00198781 -0.00444081
O 11.19603812 27.50041519 26.51682581 -0.00880570 0.00433590 0.00456120
O 12.34198328 22.95255954 27.02769706 -0.00100624 -0.00408767 0.00189851
O 15.06662487 20.48065798 32.78512581 -0.00567434 0.00585308 0.00089298
O 13.94739462 25.56385925 32.43600727 -0.00002139 -0.00172445 -0.00280093
O 11.96505276 23.99361290 33.26523996 0.00045652 0.00382200 -0.00196565
O 10.25340674 0.05771935 31.58700940 -0.00318390 0.01035245 -0.00134994
O 14.42763905 24.09534872 26.08802768 0.00131752 0.00065287 0.00329296
O 16.15390171 19.14019715 27.34722349 0.00120855 0.00385450 -0.00201691
H -0.03187101 9.08793360 2.84783620 0.00110542 0.00231646 -0.00313924
H 2.83007077 4.29646685 3.36726416 0.01998140 0.00730343 -0.01075213
H 5.44471622 0.59995381 9.06092290 -0.00221057 0.01328049 -0.02060470
H 2.33527642 5.73123675 8.72892574 0.00256803 0.01545116 -0.00678946
H 5.77470049 8.30850001 0.88093937 0.00817756 0.00727453 -0.00524854
H 3.80167490 3.54385024 5.33691054 -0.02678754 0.01391725 0.00817880
H -0.21175401 1.31158533 11.10990934 -0.01816051 0.00916428 -0.00050007
H 1.42821478 6.47222318 6.61257776 0.00941148 -0.01989021 0.00293311
H 3.88456788 6.45592415 10.74607740 0.01679882 -0.02104712 -0.00353202
H 3.72482188 1.79793322 7.20795116 -0.01814232 -0.00940666 0.00532466
H 1.46007002 3.20414218 1.24609155 0.01949899 -0.01605362 -0.01407597
H 1.41242427 8.01108509 4.86870819 0.01076003 -0.00765254 0.02764711
H 2.83981116 5.45422159 0.02128408 0.00514998 0.00134420 -0.01438766
H -0.23570028 0.73811876 6.07693789 -0.01228871 -0.00381070 -0.03462495
H 2.53777693 4.11138406 12.03126831 -0.00503733 -0.00614258 -0.02447183
H 5.27917058 9.51028520 6.23554738 0.00554091 -0.01514072 -0.00322870
H 2.83552277 7.14714246 1.84814477 0.00577482 -0.02674639 -0.01823946
H -0.08914038 2.30143220 4.00803815 -0.00505290 0.00375331 0.00121877
H 2.58825194 2.50170631 10.16686007 -0.01209762 -0.00356909 -0.01239427
H 5.20412162 7.98684321 8.01184641 -0.01441334 -0.00499567 0.01678775
H 4.90824491 4.70875740 9.46155767 0.00141576 0.01922663 -0.01004121
H 2.71230885 0.10841577 8.09000345 -0.02042014 0.01204488 0.00089450
H 0.45734880 4.85254694 2.47167207 -0.01675131 -0.00029203 0.00982884
H 2.63940039 9.88959439 3.86166934 0.00202218 0.01301045 0.00001512
H 6.66192998 4.58412555 7.01766238 -0.01325177 -0.00377221 -0.00744837
H 2.00905351 9.50702114 10.00262622 0.02910714 -0.01138570 -0.00851432
H 19.11001104 7.20820215 3.50921155 0.00709769 -0.01612025 -0.01542054
H 4.68369722 1.37696486 1.64198318 0.00019124 0.00436566 -0.00961083
H 0.48546053 3.88954360 7.27664666 -0.01724241 0.01664764 -0.00479948
H 0.93095891 8.15754640 9.52592138 0.01372514 0.00153283 -0.00399023
H 5.14553884 7.15183016 3.59997598 0.02942310 -0.02354120 0.01220671
H 2.96680294 1.31600598 2.09493945 0.01668291 -0.00533159 0.00712246
H 19.36963646 3.93403909 7.88118085 0.01557528 -0.00608522 -0.01354806
H 0.17061504 9.48822501 10.54910491 -0.00582658 0.00515153 0.00463276
H 5.52368200 5.71435814 4.69439110 0.00548288 -0.01490527 -0.01085178
H 4.11134785 2.46411620 2.79291582 0.00785274 0.01016511 -0.00099118
H -1.76376380 8.79182525 14.57610230 0.01223352 0.00732566 0.00710182
H 1.36558871 3.95466974 14.98835095 -0.01728736 -0.03217827 0.00565473
H 3.93353972 0.82753206 20.89638785 -0.01101569 -0.01468633 0.01972483
H 1.10841873 5.25520982 20.64103849 0.01471468 0.00605644 -0.00482592
H 3.82660229 7.83895680 12.77884396 0.02355552 -0.02945276 -0.00802688
H 2.27687588 3.35426563 17.26966342 0.00412127 0.00634380 0.01771007
H -2.01649980 1.28022847 23.02127795 -0.02129790 0.00353855 -0.02163012
H 0.00118589 5.64066917 18.22933482 -0.00753055 -0.00652652 -0.00590871
H 2.61786590 6.63966189 22.53129960 0.00244839 -0.01431487 -0.01466719
H 2.31078139 1.72477303 19.02001710 0.00576512 0.00006234 -0.01303113
H -0.24841740 2.98089835 13.03009917 0.00338494 0.00302133 0.01302341
H -0.21663652 7.33541370 16.45127507 -0.00284420 0.00438621 -0.00833918
H 1.07733942 5.31461145 11.70731512 0.02702121 0.00023841 -0.03852511
H -1.66766568 0.55049221 17.87407734 0.00258097 -0.00744334 0.00546576
H 1.04244385 4.30336024 23.86110068 -0.03699665 0.01656494 0.01078637
H 3.47544164 9.08157441 17.65474293 0.00900664 0.01180522 0.00138206
H 0.97840275 6.80933357 13.74883672 0.01129333 0.01344462 0.02189756
H -1.64761078 2.26903669 16.04445378 -0.01689247 0.00997861 -0.00453866
H 1.04481665 2.73896450 22.00990511 0.01354729 0.02633804 -0.01728759
H 3.63250273 7.56582603 19.69937503 0.00979531 -0.02129330 -0.02258671
H 3.41573010 5.00291696 21.38752812 0.01274319 0.00268871 -0.00985623
H 1.36291635 28.88778172 19.94180439 -0.00216679 0.01376726 0.00414661
H -1.36827308 4.61104383 14.06094256 -0.01748233 -0.00736266 0.00782832
H 0.59057405 9.54027384 15.54276731 -0.01294142 0.00866357 0.00871443
H 5.76207688 3.89953586 19.02616598 -0.00714220 0.02753698 -0.01503220
H 0.28112333 8.38059991 22.20482278 0.01561997 0.00228859 0.00911617
H 16.85128359 5.83948031 16.29362855 -0.00725762 -0.00858273 0.01394637
H 3.01653211 2.22926131 15.15479829 -0.01203584 0.02116153 0.01025889
H -1.90925863 2.51363338 20.38118700 -0.00443437 0.01547086 0.00099193
H -0.86925073 7.23613343 21.14706594 -0.01299333 0.01050474 -0.01883610
H 3.25851752 5.49387576 16.51021332 0.01832910 0.01477507 0.00040596
H 3.27679193 1.31652939 13.61454879 -0.01553495 -0.03420416 0.01399966
H -0.99981792 3.62205935 19.25680518 -0.01357542 0.01494993 -0.00314311
H -1.47804331 8.32072262 22.44581615 -0.00666344 0.01585089 -0.00176511
H 4.80376347 6.06552348 15.86931077 -0.00398952 -0.02036998 -0.00268657
H 1.68822178 1.27915606 14.20613312 -0.01430625 0.00535733 0.02583945
H -3.31988277 8.69216515 26.30535476 0.01447132 0.00352636 -0.01382856
H -0.41911803 4.03466886 26.74926679 -0.01004610 -0.01119468 -0.00062746
H 2.49347156 0.86368712 33.02395592 -0.01187164 0.00621832 0.03911246
H -0.44994956 5.60915453 32.76557038 -0.00575262 -0.01630954 -0.00883109
H 2.62481653 8.35372175 24.51073783 0.00875411 -0.00151265 -0.00587658
H 0.42692515 3.73439511 28.83795084 0.01076583 0.00430158 -0.01318008
H -3.18296021 1.81346155 34.78485557 0.02548903 0.00329619 0.01329483
H -1.58843668 6.01064747 30.48286072 -0.00737676 0.01133110 -0.01874299
H 0.95395807 6.57450017 34.37073826 -0.01785032 0.00642573 -0.03075701
H 0.56671274 2.24443038 30.78919875 -0.00963393 -0.02536205 -0.00470985
H -1.88153874 2.96420632 24.76816735 0.00072731 -0.00047460 0.00609426
H -1.66316307 7.54361631 28.45902092 0.00147972 0.01071098 -0.00366704
H -0.47819232 5.28213676 23.43466627 0.00695262 0.01294914 -0.01455622
H -3.26923228 0.70683612 29.72360182 0.02281627 -0.01083706 0.00622550
H 4.30968420 4.34163942 0.22082233 0.01194607 -0.01716113 0.00524437
H 2.16971588 9.11624509 29.63443481 -0.01548743 0.01473791 -0.00883305
H -0.51480383 6.68584498 25.53868251 -0.00019332 -0.02320267 -0.02544637
H -3.33014592 1.99314620 27.73481262 -0.00140062 -0.00615655 -0.00837762
H -0.57143149 2.66587294 34.03682625 -0.01061607 -0.00147794 0.01859756
H 2.12626188 7.95942280 31.76651571 -0.00554698 -0.01436326 0.03442116
H 1.99787766 5.14236976 33.34868022 0.00135860 -0.00980728 -0.02100666
H -0.22776863 0.53412506 31.91659601 0.00740837 0.01611063 0.00493943
H -2.93933347 4.49771872 26.20577331 0.03332541 0.01224613 0.01045965
H -0.66582337 9.21079859 27.19876588 0.05771379 0.01304197 0.00395629
H 3.97450041 2.64322679 31.99761225 0.02984628 -0.00559028 -0.00414793
H -2.97412353 8.61950528 34.07187759 -0.03468584 0.00533808 -0.00624804
H 15.97497960 7.07214424 27.16060226 -0.01628603 0.00163719 -0.01744916
H 1.74383313 1.00353916 25.27558237 0.00638179 0.00725667 0.00029164
H -2.82030878 2.89339068 32.13836880 0.01979097 0.00781614 0.00490841
H -1.40232396 9.12334116 33.97459037 0.01531582 0.00907692 0.01369627
H 3.32970740 5.65302707 27.95297126 -0.00844484 0.00169675 0.00881384
H 0.32318377 28.88794731 25.12248225 0.00678540 -0.00588373 -0.02880796
H -2.04901410 4.18375299 31.08896572 -0.01551781 0.01804876 0.02404882
H -1.79907697 7.60565320 33.19565865 0.01438423 -0.00563951 -0.03143221
H 2.57080677 7.00880079 27.22547301 0.02814344 -0.00375629 -0.01257813
H -0.08068381 1.42933020 25.85041664 0.01098607 -0.01581197 0.01038604
H -0.27640076 18.48362301 2.70019476 0.00387640 -0.02545609 0.03060710
H 2.91826514 13.94110282 2.87818306 0.00632882 -0.01049784 0.00322046
H 5.27271217 10.45746227 8.98828882 -0.00415567 -0.02490100 -0.01911579
H 2.62400285 15.13135798 8.70314283 0.03673033 0.04193115 0.00292690
H 5.75117060 18.02475634 0.39488938 -0.01101685 0.02126020 0.00126590
H 3.78109822 13.46873657 5.21027112 0.00526921 0.01729705 0.00322225
H -0.15492492 11.31321627 11.43059193 0.01029597 0.00415799 -0.01910347
H 1.28517559 16.19055428 7.01148907 -0.00459754 0.00416398 -0.01118900
H 4.23952142 16.37300300 10.51829750 0.01029196 0.03294910 -0.00653576
H 3.79826840 11.79578774 7.08631447 0.00333384 -0.00764454 0.00959855
H 1.30495867 12.60419783 1.11932176 0.01064612 0.00750207 -0.00839578
H 1.25237808 17.32319100 4.78833177 -0.00187713 -0.01558382 0.00843599
H -1.81161545 15.41269882 35.22945798 -0.02858644 0.01652644 0.02080928
H -0.24293693 10.67846808 5.93217218 -0.01422651 0.02819274 -0.01288351
H 2.76607694 14.11139767 11.97135604 0.01907470 -0.02722653 0.01761492
H 5.44448856 18.40862799 5.64662384 0.03527101 -0.01771747 0.00165986
H 2.72404563 16.84345040 1.53725341 -0.00557936 0.01262636 -0.03046403
H -0.03590756 11.81164664 3.82709959 -0.00352315 0.00365741 0.01116397
H 2.53453707 12.43342851 9.99446567 0.00520811 0.00129617 0.00525202
H 5.37331288 17.01673136 7.52856460 -0.02061343 -0.00165849 0.00128647
H 5.12899418 14.55732558 9.43604397 0.01319586 0.00230691 -0.00995415
H 2.61722299 10.16344351 8.24943053 -0.02334377 -0.03692131 0.01166508
H 0.33153507 14.41599028 2.03909464 0.00802703 0.02423382 -0.00383443
H 2.22160753 18.72750300 3.42377005 0.00479704 -0.02927952 0.00817483
H 7.48905506 12.36240189 8.32041726 0.00434754 -0.01181714 0.00374982
H 2.16755507 17.77329569 9.17643361 -0.02426583 0.00354803 -0.01148286
H 18.26000669 16.31625244 3.44943022 -0.00977851 -0.00397627 -0.02601648
H 5.12070566 10.23090925 1.44492872 -0.01843998 -0.00301847 0.00232509
H 0.02543843 12.56645084 8.67615411 0.00926313 0.00347951 -0.00937362
H 0.51870341 17.96174707 9.93705464 0.01994004 -0.00291501 0.00260108
H 6.61302100 15.56840662 3.80398392 -0.02054397 0.01037655 0.01328859
H 3.33953967 10.41835722 1.86813899 -0.01352518 0.01629678 -0.01264209
H 1.39203869 13.28681099 7.88520025 0.00060149 -0.00637131 -0.00978457
H 1.80131197 19.32461683 10.07479923 0.01558558 0.01720059 0.00170517
H 5.21988021 16.75610547 3.46971136 0.00026376 -0.00727357 0.00106651
H 4.56863333 11.68871727 2.35053836 0.00443046 0.01317874 -0.00940486
H -1.80343774 18.59235539 14.83795615 -0.00240685 -0.01520552 -0.02034468
H 1.36046478 13.52159932 15.12153310 -0.02386223 0.02830290 0.01581288
H 3.67600194 10.22218546 20.89779199 -0.00258341 -0.01985779 -0.00935593
H 1.14084892 15.06666469 20.57619212 -0.00158571 -0.00275012 -0.00617371
H 4.07011152 17.72005670 12.49822824 0.00449403 -0.03012337 -0.02713953
H 2.40994135 12.65203922 17.17993717 0.00094790 -0.00143247 -0.01234680
H -2.13225674 11.15229914 22.92356414 0.01759954 -0.02817931 0.00000184
H -0.14888389 16.21065804 19.06635455 0.01080039 0.01061398 0.02761623
H 2.40441275 16.28925880 22.76136135 -0.00432451 0.00198036 -0.00293673
H 2.14382257 11.28219588 19.19676468 -0.01488070 -0.01780947 -0.01043751
H -0.30348631 13.00297422 13.19361324 0.00186779 0.00598711 0.01788139
H -0.06267380 17.57470110 16.83937765 0.00186619 -0.00677319 -0.01365585
H 1.23096333 15.15602272 11.86881892 -0.01868951 -0.00771802 -0.00988940
H -1.82912201 10.18073232 18.04224314 0.01826071 0.01613308 -0.00775510
H 1.30121074 14.05717976 24.02444380 0.00369196 -0.00193200 -0.00585493
H 3.88522014 18.88887232 17.94812777 0.02142742 0.00336569 0.01523010
H 1.19227698 16.78509720 13.81228968 0.00642628 -0.00165002 -0.02848717
H -1.75561907 11.85980908 16.23110132 0.00646177 0.02936911 0.02727200
H 1.03592527 12.47872968 22.16727820 0.00796842 0.00565339 0.01091670
H 3.87312155 17.23311156 19.77945004 0.00717592 -0.03181479 -0.00332063
H 3.39671067 14.82368574 21.35835664 -0.02059074 -0.02124940 0.00090670
H 1.05154165 9.50326281 20.18633467 0.02046071 0.01828290 -0.00205768
H -1.29963650 14.68957960 14.11948133 0.01259513 -0.00112275 -0.01514930
H 0.93501617 19.06508774 15.67351239 -0.00329344 -0.02024839 -0.02144120
H 5.73404570 12.24527890 20.23134690 -0.00650744 -0.00654239 -0.00733829
H 0.60685113 18.36425594 21.74514860 -0.02592760 0.00040359 -0.01812578
H -1.87556951 16.05687075 15.67966269 0.00782458 -0.00264091 0.00846293
H 2.78257864 11.53247092 14.36302547 0.01342101 0.01132891 0.01721984
H 17.72091206 13.06422940 19.73937717 0.01079414 0.01249217 -0.00605291
H -0.57500804 17.02532282 21.17184578 -0.00615635 0.02213542 -0.00927946
H 4.48730603 16.33868616 15.36761654 0.02519853 0.00610164 0.00565957
H 2.69948095 10.20814735 13.23576875 0.02563013 0.02172071 0.00615192
H -1.10301512 12.51935714 19.87797630 0.01106205 0.01003607 -0.01416984
H -1.17445084 18.42018540 22.21289040 -0.02126664 -0.02397585 0.00074987
H 3.06697401 15.77340504 16.07810591 -0.00504262 -0.00810078 -0.01511528
H 1.24928150 10.67033376 14.00702596 0.01388959 -0.01638737 0.00117903
H -3.41948278 18.74518767 26.25569115 0.00859557 0.00789150 0.00193204
H -0.28830036 13.64334037 26.94423566 0.01095994 0.02500707 0.01648350
H 2.18727563 10.51388706 32.60007105 0.01271227 0.00250917 -0.01788665
H -0.41613714 15.13637947 32.28620145 0.00074653 0.00618671 -0.02459356
H 2.40449313 17.74482424 24.79813201 0.01178272 0.01468259 0.00280039
H 0.90647050 12.65967228 28.55414842 -0.00901757 -0.00855536 0.00785179
H -3.43966638 10.88070917 34.88716958 0.01898205 -0.00891719 0.00882898
H -1.70570180 15.66890757 30.26368310 0.00078153 -0.00210377 0.02354922
H 1.03377121 16.29397387 34.14115106 0.00269560 0.00316928 0.01370201
H 0.60892364 11.23134170 30.81490955 -0.03377316 0.02941901 0.00983319
H -1.89376437 12.72828394 24.74706346 -0.01393960 0.00196651 -0.00395706
H -1.68019165 17.13781794 28.16826957 -0.00999654 -0.00545678 0.01868137
H -0.28738628 15.39929401 23.37032822 -0.01226082 0.01857294 -0.02994468
H -3.22847207 10.02761541 29.59037465 -0.00101371 0.01617600 -0.02321687
H -0.43795946 14.25628854 35.35099457 -0.00049571 0.01398391 0.01702574
H 2.17675886 18.65762744 29.29354072 0.01609756 -0.00723035 -0.00915970
H -0.48954196 16.96890695 25.26266947 0.01239544 -0.01526498 -0.01591752
H -3.24787126 11.82089210 27.85623809 -0.03078446 0.00708402 0.01851424
H -0.70217570 12.08432479 34.00536780 0.02016064 -0.01555271 -0.04082994