2160
Time=55000.00000004 pbc="T T T" Lattice="20.57351701 0.00000000 0.00000000 0.00000000 29.08239718 0.00000000 -4.73000653 0.00000000 35.57423558" energy=-13795.18247879 virial="-79.86452580 -6.67311040 61.30184153 -6.67311040 -71.55127572 -19.08227040 61.30184153 -19.08227040 -70.74033021" stress="-0.00124529 -0.00033843 0.00291451 -0.00033843 -0.00080802 -0.00091532 0.00291451 -0.00091532 -0.00088862" Properties=species:S:1:pos:R:3:vel:R:3
O 0.92193756 8.76027569 2.21107847 0.00285024 -0.00132254 -0.00037050
O 2.03907366 3.73700445 3.57498835 0.00240092 0.00178328 -0.00440031
O 4.76841819 0.91320664 9.73441416 0.00009295 0.00047655 -0.00144138
O 3.50631270 5.63701119 8.30702534 -0.00295305 -0.00513352 0.00169865
O 1.36273247 4.57177968 9.61295939 0.00218726 -0.00009001 0.00153161
O -0.23932036 9.95722827 8.17631909 0.00458291 0.00158874 0.00329156
O 3.95032869 4.94983365 2.19657596 0.00050344 0.00412181 -0.00080197
O 5.52395652 0.23669770 3.46438535 -0.00182906 0.00301744 0.00606085
O -0.90833246 8.47899117 14.26893285 -0.00455728 0.00320868 -0.00156365
O 0.31470092 3.78777141 15.30636069 -0.00254679 -0.00286708 0.00361205
O 2.99157171 1.39820313 21.04555926 -0.00444415 -0.00017517 0.00165500
O 1.56252126 5.79563451 19.89828880 -0.00099982 0.00181695 -0.00553318
O -0.27134239 5.07200048 21.63521192 0.00411226 -0.00048469 -0.00099180
O -2.04213262 9.65119156 19.67390682 0.00590046 0.00119796 -0.00243230
O 2.67247433 4.38648460 14.34802899 0.00294216 -0.00406121 0.00316632
O 4.04721143 0.21500143 15.55168427 -0.00021812 -0.00060412 0.00587736
O -2.60645195 8.36122709 26.65666326 -0.00945128 0.00242095 -0.00200854
O -1.14726095 3.51835821 27.03743255 0.00043700 0.00163429 0.00262661
O 1.65107860 1.19844809 33.13088308 0.00325787 0.00231873 -0.01097102
O 0.35656303 5.45409822 31.84029036 0.00063025 0.00107286 -0.00505363
O -1.87689414 4.82386459 33.00475533 -0.00031868 0.00352130 0.00841640
O -3.05088271 10.01884104 32.30138305 -0.00041253 0.00516476 -0.00090923
O 0.83847823 4.66148813 26.05494345 0.00561751 -0.00085871 -0.00166362
O 2.51155984 28.85164772 27.28628735 -0.00130845 -0.00438147 0.00377633
O 0.78767307 18.43886538 2.64779155 0.00290588 -0.00639330 -0.00222448
O 1.67348318 13.76701355 3.48159306 0.00034891 -0.00277168 0.00290025
O 4.33206832 11.10937807 8.99392596 0.00141930 -0.00518335 0.00658830
O 3.30670988 15.67860682 8.21458262 0.00330048 0.00217625 0.00187305
O 1.14534502 15.18461443 9.48972657 0.00248340 -0.00761276 -0.00287131
O -0.24768010 19.45672905 8.32570135 0.00583219 -0.00297120 -0.00384617
O 4.00475372 14.34804508 2.30362612 -0.00671242 0.00772406 -0.00644872
O 5.67625840 9.58145365 3.69659813 -0.00845800 -0.00256422 0.00304255
O -0.75658895 18.32831592 14.49871228 0.00309524 -0.00126794 0.00166841
O 0.12171697 13.51235110 15.16488634 -0.00316206 0.00070465 0.00275554
O 2.71227335 10.74847309 21.35792793 -0.00268169 -0.00528408 -0.00389236
O 1.57511344 15.69584307 20.35786156 0.00901802 0.00741137 -0.00311611
O -0.33788819 14.53814702 21.30602168 -0.00443316 -0.00254486 0.00361699
O -1.89623891 19.37959058 20.15174827 0.00393269 -0.00728496 -0.00020523
O 2.30230778 14.11808912 14.17386120 -0.00229173 0.00202702 -0.00455919
O 3.95665050 9.60870409 15.34631562 -0.00501791 0.00059551 0.00330492
O -2.29653677 18.30284073 25.99819555 0.00163985 -0.00013110 0.00271124
O -1.32482726 13.54562484 27.33050840 -0.00722934 -0.00151920 -0.00526542
O 1.42428042 10.45716456 33.25078526 -0.00056340 0.00094810 -0.00169891
O 0.26955422 15.98690119 32.38026866 0.00294136 0.00033326 -0.00571460
O -1.63022043 14.77970555 33.46544467 0.00170971 0.00208783 0.00360299
O -3.42348679 19.54375898 32.08690655 -0.00172651 0.00249034 0.00135618
O 0.94296402 14.40664604 26.21332766 -0.00173217 -0.00456544 -0.00087081
O 2.44610829 9.62758206 27.54442031 -0.00094719 -0.00095251 -0.00124383
O 0.56070848 27.74472722 2.53243370 -0.00175665 0.00669447 -0.00406443
O 1.78646501 23.07730909 3.56240020 0.00084925 -0.00519510 -0.00413597
O 4.43825462 20.71418142 9.25352810 0.00181670 0.00153975 0.00200063
O 3.34275680 25.43611941 8.06772387 -0.00543740 0.00205487 -0.00099655
O 1.16800532 24.25219758 9.54472763 0.00674529 0.00243762 0.00691442
O -0.16528536 0.14022200 8.42756380 -0.00070570 -0.00079113 -0.00514322
O 3.76453124 24.04560135 2.24924956 0.00066697 -0.00454219 0.00371101
O 5.53121303 19.40995947 3.56720937 0.00745289 0.00230559 -0.00183988
O -0.60158414 28.37466663 13.95084785 -0.00285236 0.00402384 0.00176534
O 0.32224113 23.00732653 15.37920603 -0.00444930 -0.00845401 -0.00030521
O 3.03322755 20.38189407 21.17110038 0.00195827 0.00100189 0.00056345
O 1.83094003 25.39108736 19.86774752 0.00072238 0.00122560 0.00176104
O -0.17278181 24.28734558 21.38518009 -0.00109217 0.00304199 -0.00842643
O -1.91629235 0.22458711 19.99210377 0.00247499 0.00143226 -0.00159322
O 2.19683916 24.18607179 14.18151080 0.00667212 -0.00178614 -0.00010625
O 3.85033562 19.44696286 15.76791807 0.00271646 -0.01022254 0.00303686
O -2.24416912 28.00295936 26.09553460 0.00345500 0.00243151 -0.00517917
O -1.26720232 22.97632418 27.25530937 -0.00042457 -0.00314823 0.00600971
O 1.34885994 20.40776289 33.26866279 0.00435124 -0.00177956 -0.00088538
O 0.30322013 25.34921350 32.40186291 0.01032164 0.00097038 -0.00417339
O -2.16130318 24.47370470 33.10093301 0.00152816 0.00136618 -0.00054925
O -3.23573140 0.06804316 32.07941208 -0.00589682 0.00831987 0.00243816
O 0.71673280 24.04813310 25.98472129 -0.00015353 -0.00376805 -0.00491159
O 2.34786358 19.18242291 27.35682486 0.00149829 0.00584822 -0.00564761
O 7.65597456 8.35265953 2.37211776 0.00182631 -0.00025533 -0.00022059
O 8.76331362 3.64706959 3.46143429 0.00030877 -0.00573938 -0.00658693
O 11.44584583 1.09475514 9.31089443 -0.00485542 0.00107994 -0.00243231
O 10.36942665 5.94436951 8.43785403 -0.00209933 0.01010114 -0.00242965
O 8.19484313 5.02899390 9.34990150 -0.00110046 -0.00333679 -0.00141183
O 6.44964025 9.86858665 8.40005283 0.00253353 0.00370187 -0.00658091
O 10.88941044 4.66419321 2.31480773 -0.00372007 -0.00102999 0.00258440
O 12.46092949 0.32048206 3.79089906 0.00588242 0.00841723 -0.00577477
O 6.16772336 8.77150356 14.20160102 0.00088777 0.00242480 -0.00002343
O 7.54744413 3.70488706 15.10779234 0.00038669 -0.00753431 0.00308957
O 10.03455097 0.83116213 21.38246287 0.00191913 0.00624665 0.00236203
O 8.24344825 5.92706390 20.06513333 -0.00410661 -0.00505019 -0.00046041
O 6.31611023 4.86101500 21.52391664 -0.00018301 -0.00140380 -0.00707838
O 4.95214727 9.82867704 20.12001093 0.00324636 -0.00171617 -0.00131145
O 9.37552550 5.12893396 13.83010556 0.00049792 0.00285080 0.00045005
O 10.80403383 0.09449725 15.74557750 -0.00269435 0.00025754 0.00628910
O 4.29869146 8.46044354 26.21674843 0.00975393 0.00394858 0.00071511
O 5.67392478 3.68700576 27.14684036 -0.00261603 0.00357192 0.00670723
O 8.31711524 1.10498700 33.14355692 0.00151214 -0.00300326 -0.00149155
O 6.92279703 6.33809228 32.15582060 -0.00458850 0.00236732 -0.00368897
O 5.18187182 4.78001102 33.32220915 0.00038762 -0.00117819 -0.00536191
O 3.74742275 9.72861062 32.11557927 -0.00224172 -0.00115647 0.00013518
O 7.68887870 4.81887836 26.02811942 0.00551833 0.00309413 0.00094494
O 9.13840294 28.61343917 26.97789278 0.00349419 0.00186065 0.00149399
O 7.56052275 18.03719363 2.67635188 0.00461841 0.00024975 -0.00373335
O 8.89816477 13.26356159 3.57756133 0.00683118 -0.00152340 -0.00271223
O 11.13849495 10.67308547 9.52428677 0.00006009 0.00051789 0.00312117
O 10.29165201 15.29614854 8.05038006 0.00158335 -0.00122815 0.00357624
O 8.06320958 14.73513895 9.43028015 0.01132410 -0.00291673 -0.00828795
O 6.55308599 19.61164873 8.14448077 0.00116249 0.00013314 0.00737444
O 10.99710897 14.25455404 2.70372776 -0.00120831 -0.00053187 -0.00473104
O 12.49882878 9.50192856 3.67680841 0.00714299 0.01169858 -0.00409104
O 5.75926711 18.34535041 14.19478645 0.00314464 0.00140174 0.00366185
O 7.00651390 13.52300819 15.31754150 0.00224298 -0.00586346 0.00798235
O 9.58952055 10.79872278 21.38831326 -0.00082664 -0.00289559 -0.00302128
O 8.51643915 15.54748140 20.16448438 0.00022125 -0.00209195 -0.00183509
O 6.39666134 14.63539054 21.68134422 -0.00483767 0.00866568 -0.00293830
O 5.04703780 19.38210346 19.90021823 0.00230005 0.00302664 -0.00055609
O 9.24378614 14.55959536 14.39964762 -0.00283227 0.00007078 -0.00469008
O 10.82564616 9.71640710 15.63778697 -0.00117212 -0.01066000 0.00045763
O 4.35993911 18.22242127 26.25506665 0.00321513 -0.00241369 -0.00306466
O 5.53472760 13.40544749 27.34424315 0.00746148 0.00114046 -0.00209058
O 8.34453387 11.11537807 33.09502668 -0.00159563 -0.00606523 -0.00288353
O 7.31222081 15.46859870 31.83537116 0.00061830 -0.00333361 -0.00469554
O 5.01478658 14.70309208 33.22032483 0.00179291 0.00801149 -0.00266450
O 3.56789091 19.33490608 32.12553426 -0.00497748 -0.00067295 -0.00267767
O 7.62306950 14.38842556 26.25412510 -0.00522162 -0.00147599 0.00078507
O 9.29943373 9.60781448 27.33778717 0.00070382 0.00218119 0.00168044
O 7.60957490 28.19541697 2.47324427 -0.00188070 -0.00237731 -0.00253101
O 8.64754945 22.85070689 3.29548946 -0.00122680 0.00146338 -0.00304248
O 11.54021810 20.99736252 9.10133266 0.00316342 0.00001438 0.00265332
O 10.35953555 25.51559897 8.39352636 -0.00159439 -0.00329378 0.00304101
O 8.08319371 24.40792053 9.70859525 -0.00105008 0.00189675 0.00414036
O 6.58643390 0.19784800 8.10074266 -0.00073571 0.00048823 0.00704176
O 10.92919138 23.93498707 2.78204238 0.00053829 -0.00030457 0.00214342
O 12.35327607 19.58891322 3.94495183 -0.00137740 0.00657556 -0.00419164
O 5.83378108 28.45561030 14.01146633 -0.00540367 -0.00321459 0.00002694
O 7.35316484 23.45243884 15.49052012 0.00319476 0.00419167 0.00146007
O 9.80119005 20.27857765 21.13482857 -0.00632391 0.00354673 -0.00809740
O 8.82375397 25.05702071 20.06750733 0.00021524 0.00261025 -0.00166655
O 6.78390568 24.25522763 21.16383036 -0.00281303 -0.00351361 -0.00257151
O 4.98197929 0.13413133 19.91891450 -0.00289627 0.00053767 0.00102341
O 9.11615010 24.46197340 13.93866143 -0.00323289 0.00301696 -0.00227734
O 10.62584082 19.48900420 15.50149031 0.00102187 -0.00071809 0.00186230
O 4.56060457 27.99241093 25.99873476 0.00073031 -0.00771605 -0.00084777
O 5.69805069 23.04431090 27.21071437 0.00160073 0.00115799 0.00024538
O 8.34711767 20.70934167 32.93132547 -0.00272014 0.00219600 -0.00153611
O 6.99053556 25.31454589 32.00308379 -0.00158946 -0.00129034 0.00093256
O 5.12120337 24.31150645 33.59998014 -0.00088662 -0.00128414 0.00240750
O 3.38305663 0.01379118 31.75523661 -0.00182998 0.00293814 0.00267128
O 7.84312082 24.02994352 25.97396521 -0.00150390 -0.00054913 0.00015824
O 9.08173419 19.23417093 26.98266083 -0.00281578 -0.00112848 0.00196062
O 14.61417799 8.70423857 2.29539595 -0.00501444 0.00563078 0.00304718
O 15.88969813 3.68282759 3.35466850 0.00459668 -0.00064669 0.00347226
O 18.25909695 1.37257182 9.06143985 0.00367211 0.00094072 -0.00150350
O 17.31977623 6.15070053 8.42088061 0.00833828 0.00074553 -0.01360270
O 15.15387133 4.85764757 9.52183158 -0.00338232 -0.00407126 -0.00610449
O 13.50548269 10.03643555 8.42458240 -0.00258803 0.00411590 -0.00850992
O 17.71329373 4.94418667 2.04623962 0.00275382 -0.00219605 0.00072764
O 19.28564416 0.17831516 3.72019991 -0.00033539 0.00125139 -0.00404480
O 12.64694849 8.60299511 14.24056710 0.00414358 0.00104442 0.00325770
O 14.08469514 3.72352976 15.38023111 0.00406970 0.00660501 -0.00397571
O 16.49018113 1.07105896 21.37605382 -0.00188778 -0.00170378 -0.00380425
O 15.53138679 5.70956727 20.30731242 -0.00295019 0.00162882 0.00593310
O 13.46466830 4.59597371 21.55547114 -0.00571141 0.00282980 0.00581125
O 11.65246900 10.08766120 20.22734936 0.00122628 -0.00401247 0.00052931
O 16.26761780 4.72812209 14.39213682 0.00104385 0.00091381 0.00562736
O 17.60772350 28.93705244 15.37982667 0.00122699 0.00233131 -0.00127901
O 11.21827753 8.41523381 26.05909024 -0.00229606 -0.00046698 -0.00279871
O 12.40385927 3.48770743 27.24568257 0.00028981 0.00783539 0.00195923
O 15.19892446 0.99773641 33.08906121 -0.00259596 -0.00299879 0.00956616
O 13.76057333 6.12279785 32.31402760 -0.00040486 -0.00243591 0.00156899
O 11.74914302 4.64565589 33.36087540 0.00024571 0.00242182 0.00306396
O 10.49732294 9.97460616 32.11430225 0.00042414 -0.00753886 -0.00064249
O 14.61986289 4.87843903 26.25252949 -0.00146752 0.00405748 -0.00107325
O 16.23533157 28.83782013 27.24067187 0.00425052 0.00402741 0.00324151
O 14.46674503 18.58929478 2.40110523 -0.00105860 -0.00186057 -0.00537972
O 15.46641907 13.95280451 4.06171665 -0.00182183 -0.00062200 -0.00152524
O 18.19649650 10.90822820 9.39264908 -0.00047318 0.00089337 -0.00203097
O 17.14831038 15.56433077 8.31571754 -0.00639926 -0.00255941 -0.00021375
O 15.04876838 14.54480685 9.63007205 -0.00030991 0.00047072 0.00209157
O 13.31849179 19.25387507 8.12484594 0.00298429 -0.00661365 -0.00092279
O 17.43601569 14.61111600 2.30908026 -0.00568916 0.00008187 0.00141132
O 19.23028862 9.29935254 3.34969422 0.00268710 -0.00478908 0.00264612
O 12.67700771 18.40471194 14.12364896 0.00511320 0.00184995 -0.00230346
O 13.75010977 13.39183495 15.45083027 -0.00110485 -0.00806198 0.00313699
O 16.48568634 10.45246202 21.36227526 0.00153332 0.00240730 0.00051994
O 15.60806978 15.42184426 20.12660897 -0.00025928 0.00211851 0.00074333
O 13.61572844 14.40685990 21.54687078 -0.00524660 -0.00666448 0.00730998
O 11.97209476 19.53472443 20.00384849 -0.00304990 0.00119727 0.00656173
O 15.78306393 14.34854299 14.34062091 -0.00531299 -0.00195280 0.00063734
O 17.50869837 9.67894951 15.44528472 0.00317346 -0.00093528 0.00798811
O 11.43504593 18.72154269 25.86847380 0.00267484 0.00189877 0.00572700
O 12.55154632 13.32412244 27.13557590 0.00167367 0.00546253 -0.00515837
O 15.17740811 11.04956794 33.11954323 -0.00029831 0.00338637 0.00163433
O 14.05882103 15.78498393 32.25877551 -0.00444946 0.00257740 -0.00353458
O 11.88862953 14.82684945 33.46478788 -0.00065559 0.00280097 -0.00030420
O 10.37804536 19.49940281 31.83200622 0.00083478 0.00074325 -0.00057714
O 14.67032653 14.23865330 26.15987844 -0.00225128 0.00352312 -0.00304759
O 15.93492026 9.65204785 27.48857998 0.00885289 -0.00737197 0.00397516
O 14.32456742 28.02711934 2.41554706 -0.00602064 -0.00229865 0.00331404
O 15.68462938 23.11887274 3.65210266 0.00095978 -0.00414517 -0.00445016
O 18.19404490 20.33678299 9.52893043 -0.00195351 0.00089110 0.00418214
O 17.10280916 25.54371531 8.47940954 -0.00490352 -0.00198232 0.00678695
O 14.83816158 24.74533016 9.45028996 0.00813629 -0.00310803 -0.00767682
O 13.69500907 0.34303720 8.29562471 0.00593212 0.00019473 -0.00648237
O 17.53365520 24.24194553 2.28354922 0.00418055 0.01079571 -0.00122919
O 19.33345603 19.52008870 4.00394030 -0.00450287 0.00081157 -0.00545431
O 12.90294194 27.94624471 14.54274213 -0.00304040 0.00145066 -0.00277587
O 13.95687717 23.11504113 15.38266217 -0.00116310 0.00050179 -0.00061963
O 16.72940260 20.74212980 21.07025859 -0.00199395 0.00222264 -0.00021887
O 15.66232996 25.35549923 20.43499645 -0.00742995 -0.00338431 -0.00167701
O 13.71967190 24.10955391 21.41837139 0.00323246 -0.00839045 0.00362431
O 11.82911101 28.84237126 19.82184342 -0.00045139 0.00069616 0.00241571
O 16.04001034 24.25230987 14.24512470 -0.00200271 -0.00498543 -0.00086841
O 17.34863374 19.01257970 15.25972765 0.00886055 -0.00316702 0.01134390
O 11.46568574 27.88813812 26.04975498 0.00087141 0.00594466 0.00679269
O 12.42854380 23.10143880 27.23049446 -0.00411498 -0.00660279 -0.00322841
O 15.01457271 20.26865489 33.42277893 0.00560428 0.00229238 -0.00009176
O 13.89693783 25.11137290 31.71126556 0.00035692 0.00292690 -0.00216612
O 11.72373529 24.47651844 33.17580341 -0.00799345 0.00277780 0.00273020
O 10.44706554 0.03978226 32.25175896 -0.00360136 0.00255356 0.00902567
O 14.75856671 23.67821454 26.30649455 0.00225069 0.00208870 -0.00191746
O 16.24686760 19.09650532 27.29746400 -0.00038507 0.00875504 -0.00695532
H 0.02962534 9.04489410 2.49135658 -0.00794961 -0.00259435 -0.00676037
H 2.91672782 4.03427868 3.17649226 0.01052105 -0.00498142 0.03236434
H 5.88126640 0.47452902 8.81593391 0.00687356 0.00076063 0.01704805
H 2.58044272 5.32522609 8.51866670 -0.02883179 -0.01970336 0.00225982
H 5.67732690 8.09809902 0.67762353 -0.01769656 -0.00847618 0.00787105
H 4.10049857 3.17008463 5.12718403 -0.00657135 0.00759986 0.01755962
H -0.59591050 1.13631431 11.05313600 0.00928156 -0.00244115 -0.02113336
H 1.32554789 6.68782006 6.88439210 -0.01592026 0.00328343 -0.02098629
H 4.13424311 6.80686562 10.85142465 0.01206952 0.00328576 -0.00541879
H 4.16168134 1.60185091 6.93534544 -0.00583255 0.00201946 0.00519963
H 1.16951055 2.80123015 1.22654942 -0.00162573 0.00696418 -0.01805059
H 1.49363627 7.66329590 4.81784978 0.00716409 -0.02090878 0.00554338
H -1.73227725 5.59265679 35.44780951 -0.01205004 -0.00783384 0.00834724
H 0.14262813 0.45180152 6.15783871 -0.00586211 -0.01822141 0.00858636
H 2.76281200 4.15850958 12.06216084 0.03717369 -0.00362318 -0.00213950
H 5.50757811 8.86591500 5.80100026 -0.00613030 0.01370897 -0.00027089
H 2.80049838 7.17216804 1.54750930 0.00851813 0.01848061 0.00606559
H 0.08084719 2.04763594 4.07610196 0.00244001 -0.03076604 -0.03154293
H 2.78708206 2.55480484 10.23008021 0.01846243 -0.01036021 -0.00533870
H 5.66709878 7.19604342 7.45043946 0.01959567 -0.00646100 -0.02038052
H 5.10555900 5.08486830 9.58202938 0.01572387 -0.02940563 0.01855921
H 2.87558119 29.08013925 8.32471843 -0.01965777 -0.01068110 -0.00368254
H 0.28666724 4.85827063 2.09537720 0.02140707 -0.00731963 -0.00454557
H 2.53215521 9.87213935 3.92428872 -0.02063240 -0.00434019 -0.00337277
H 7.27959505 3.69154416 7.46370925 0.00484117 0.01390563 0.00287115
H 1.94857813 9.06599634 10.08104137 -0.03401372 0.00693536 -0.01011080
H 18.96378089 6.97549329 3.38231129 0.02520045 -0.01774826 0.00765857
H 3.08718445 1.26077375 1.75636825 0.00074193 -0.01291596 -0.01484121
H -0.82932684 5.14110546 7.59631529 0.00763471 0.00550649 0.00313747
H 1.82360849 7.73016795 9.06071850 0.01398577 0.02372309 -0.00784300
H 4.76251806 6.12155075 4.32704384 0.01480051 0.02966928 -0.02836566
H 4.37955523 2.30452024 2.33259570 -0.00019164 0.01932604 -0.01323107
H -0.86260942 3.35602325 7.72404542 0.00079965 0.01002510 0.01408680
H 0.43857854 8.43981921 9.99455045 -0.02340821 -0.00013252 -0.01118711
H 6.51595012 6.02319583 3.77044776 -0.01411312 -0.00158511 -0.01390182
H 4.81456102 1.07808355 1.13127393 0.01139457 0.01133758 0.00393090
H -1.73374207 8.88905243 14.50405021 0.03235802 0.01067175 -0.01368539
H 1.22873773 4.05477732 15.00415840 0.01329218 0.00141486 -0.01887671
H 3.83962844 1.07551389 20.70500753 -0.00279605 0.00314070 -0.01309643
H 0.66357270 5.44899862 20.32976699 0.02865053 0.00857107 0.02713783
H 4.06289791 8.11808379 13.00083734 0.02621299 -0.01849499 -0.01904429
H 2.37943000 3.23422988 16.83885132 0.00952456 0.00361090 -0.01515669
H -2.02661904 1.35558551 22.96830603 -0.02364045 -0.00166538 -0.01501137
H -0.28361778 6.13401392 18.08382539 0.00008834 0.00360281 -0.00596140
H 2.15540163 6.71874817 22.58821075 -0.01114246 -0.00886381 0.00251682
H 2.41198744 1.74112049 18.73380595 0.00897454 -0.00425415 0.00753035
H -0.39546715 2.58380817 13.09066697 0.01424318 -0.01828256 0.01132672
H -0.21718861 7.63926995 16.14659697 0.00422382 -0.00130013 0.00163471
H 1.15587959 5.17047115 11.78663223 0.00561256 0.01994196 0.00250961
H -1.68802700 0.61816167 17.90114540 0.00892765 0.01284427 0.00057144
H 1.05262617 4.33351113 23.80918777 0.01356257 -0.01786515 -0.00411077
H 3.75937835 8.82218234 17.32906613 -0.00149692 0.01340542 -0.01229372
H 1.20932716 7.03293926 13.60324302 0.01581734 0.01366225 0.03876995
H -1.76342085 2.39778804 16.09962082 -0.00239102 -0.01426240 0.01424301
H 0.93811751 2.81671883 21.90828172 -0.01747629 -0.02247953 0.00363096
H 3.51574003 7.40702943 19.30877096 -0.00422165 -0.00424005 0.01772833
H 3.20486784 5.36414130 21.11319299 -0.03064301 -0.01294861 -0.02753043
H 1.25552122 0.04320050 19.87556792 -0.02073034 0.01411496 -0.01011150
H -1.15131378 4.39799483 14.16693232 0.00508906 0.01818853 0.00027200
H 0.70796740 9.66955999 15.32660377 -0.00885702 0.01898652 0.00026387
H 4.54733981 2.94959759 20.08239978 0.01268543 0.01079711 -0.01306758
H -1.31127396 8.72977836 21.98131650 0.02858098 0.03902326 -0.02735334
H 17.08467849 6.56773933 15.73380147 -0.01273920 0.01012885 0.00107489
H 2.13299295 0.61835581 13.06535232 -0.00679142 0.00692780 0.02653118
H -1.75712072 2.54757742 20.75368885 -0.00419363 -0.01472597 -0.00230355
H 0.24665796 9.64871581 21.85561793 -0.01165686 0.00812259 0.00157496
H 4.54583209 6.71759555 15.29447667 -0.01482640 -0.00856790 0.00715669
H 2.34069362 2.27096226 13.88078117 -0.00357213 -0.00348308 0.00177022
H -0.99469386 3.64353801 19.60107810 0.01982352 0.00470499 -0.00615191
H 0.14173828 7.97844761 21.20807064 0.00004651 -0.01997421 -0.01074198
H 3.03053740 6.12958458 16.11770448 0.02884319 0.00184136 0.01918917
H 3.79687562 1.40594458 13.35889156 0.02484339 -0.01603015 -0.01027725
H -3.41461982 8.87785959 26.88025939 -0.00083923 -0.02015931 0.00143453
H -0.21990343 3.94381881 26.74926406 0.01388806 -0.00089962 0.01265146
H 2.51493614 0.86578987 32.77974585 -0.00152613 0.00542663 -0.01602085
H -0.58841551 5.05899734 32.02233691 0.02164506 0.02075708 0.01071703
H 2.26598285 8.26284447 24.48436563 -0.00628954 -0.02758338 -0.00154436
H 0.67948756 3.49399192 28.81907607 0.01660337 -0.00828672 0.02100018
H -3.42971666 1.29287407 34.84249481 -0.00496084 0.02279598 0.00961349
H -1.77351664 6.16683121 30.37173844 0.02261888 -0.00881169 -0.00059880
H 0.84773683 6.57543738 34.38621577 -0.01522109 0.02257632 0.01302420
H 0.87428205 1.91498197 30.56873947 -0.01091149 0.02131783 -0.00580918
H -1.86696683 2.86895295 24.91527725 -0.00283578 0.04233454 -0.00723148
H -1.66657216 7.95742040 28.76145304 -0.00079699 -0.01627252 0.03343004
H -0.47030518 5.43377508 23.96143001 -0.01430419 -0.00925820 -0.00096813
H -3.24899766 0.64237898 29.80769361 -0.00718316 -0.01192843 -0.01082496
H -0.48514843 4.43278481 35.55403747 0.03021169 0.01446090 0.01839418
H 2.41085594 8.89287416 29.80488766 -0.00498899 -0.00763056 -0.00982731
H -0.50493735 6.76927027 25.88543885 -0.01500345 -0.00683903 -0.01440774
H -3.21954030 1.84790304 27.93724635 0.00915981 0.01566559 0.00347858
H -0.42122117 2.56383743 33.86185213 -0.01911964 0.02890320 -0.02162713
H 2.12670724 7.42281546 31.80080188 0.01255486 -0.02058207 -0.00049801
H 2.02125198 4.83452674 33.06393466 -0.00570236 -0.00409072 -0.02959608
H -0.10414716 0.18654673 31.83887812 0.00214655 0.00836013 0.01500667
H -2.82889098 4.75190680 25.95902507 -0.02313528 0.00807932 0.00269724
H -0.59296904 9.91716953 27.86044854 -0.02693394 0.00951939 0.03047354
H 3.22149780 4.19182460 30.95361397 -0.00272405 0.01153218 -0.00041948
H -1.75231601 7.42763077 32.96374662 0.00193301 -0.01392619 0.02089863
H 16.10391138 5.48404305 28.47801758 -0.00877844 0.00535638 0.01256563
H 1.00745482 2.07094723 26.36242937 0.02648374 0.02574527 0.02889308
H -4.14938377 2.78106367 31.64711804 -0.00834890 0.00921620 -0.03109866
H -2.50616835 8.59900512 34.15281072 0.02738598 0.00471012 -0.00751605
H 1.69618169 5.42204770 28.31958305 -0.00152571 -0.01735375 -0.00243995
H 1.57238465 0.78834449 25.22786500 -0.01374470 0.00853230 0.00136232
H -2.74491541 3.55924155 30.90581488 -0.00225478 -0.00966029 -0.00488708
H -0.74609811 8.73251601 33.82996036 -0.00327218 -0.00072256 -0.00288709
H 3.42723676 5.59682233 27.75565705 0.00141520 -0.01582684 -0.00411949
H -0.12070131 0.71443542 25.72741628 0.01073941 0.01285632 0.02211252
H -0.12226102 18.73498850 2.84944967 0.00410391 -0.00234061 0.00625385
H 2.53939266 14.04516020 2.96473044 0.03755066 0.01553615 -0.00913064
H 5.11689733 10.55513122 8.75759507 -0.00580636 -0.02425610 -0.01079326
H 2.39264190 15.38000703 8.50897761 -0.00215859 -0.02298356 0.01410016
H 5.54788629 17.67688942 1.02928403 0.00786572 -0.00659717 -0.01474746
H 3.88053149 13.11334132 4.88305497 0.01712879 0.00589841 -0.00417494
H -0.50584710 11.10644258 11.13311900 -0.00115444 0.02242088 0.00417605
H 1.35045977 15.98797935 6.43999157 -0.00225385 -0.00052699 0.02437390
H 3.77165181 16.32146870 10.66045994 -0.00911441 0.01254783 0.00353842
H 3.89287482 11.53138940 6.77321816 0.00464384 0.00620738 -0.01319975
H 0.90218139 12.53317112 1.64522842 0.00234009 -0.01052341 -0.00416678
H 1.35536816 17.64991348 4.65488494 0.00122571 -0.01209103 0.01678294
H 2.93145000 15.28976775 0.14517844 0.01597957 0.01572861 -0.00435509
H -0.22307305 10.67648460 6.20906871 -0.00304514 -0.01204788 0.00166866
H 2.52364411 14.11394232 11.76582272 -0.00139059 -0.01710018 -0.00914679
H 5.23126406 18.98090857 5.55017075 0.00481313 0.01817970 -0.02032185
H 2.73725802 16.69964249 2.06738857 0.00785541 -0.00206560 0.02077477
H -0.33097468 12.09191254 4.31977287 -0.00379030 -0.02390827 0.01669352
H 2.37838410 12.53693728 9.90800299 -0.01289142 -0.01361654 0.00878381
H 5.25606429 17.28620572 7.50110766 -0.02011384 -0.00142794 -0.00771579
H 4.95450243 14.96434157 9.37087829 0.00118281 -0.00942921 -0.02191436
H 2.88984735 9.65938619 7.86613059 -0.00303062 0.00612888 0.01571422
H -0.02855101 14.69004354 2.46214239 -0.01169183 0.00716575 0.02005028
H 2.33617994 19.37303302 3.47134827 0.00690685 -0.00993457 -0.00366341
H 5.66237687 14.16630896 7.51172690 0.00124751 0.02184874 -0.00347194
H 2.16287536 18.74323316 10.32913892 0.00668775 -0.00878681 -0.00238285
H 19.39942111 15.14716914 4.75786634 -0.02767480 -0.00707950 0.00280958
H 4.92137672 11.09917769 1.75871952 0.01883380 -0.00681188 0.00364144
H 0.79804830 13.13121787 8.04555008 0.00425882 0.00109449 -0.01769660
H 1.21119095 17.40692969 9.54340648 -0.00706129 -0.01318194 -0.00187058
H 5.43153723 16.53767665 3.44025974 -0.00775880 -0.01272522 -0.00475265
H 3.44866152 10.15624253 1.63628942 0.00150672 0.02745385 -0.02963899
H -0.59922496 14.05159181 7.46004054 -0.01600764 0.01082658 -0.00218573
H 0.36371149 18.65022781 10.53326912 0.00007980 -0.00381309 0.00877426
H 4.81487088 15.45983503 4.49840082 -0.00141543 0.00391783 -0.02360495
H 3.52818661 11.64564266 2.54655216 -0.00331794 -0.00206137 0.00447755
H -1.63759722 18.81596104 14.69143205 -0.00296956 0.01731221 -0.01282705
H 0.96770239 13.86455208 14.98694834 -0.01230410 -0.02048678 0.01592978
H 3.49194890 10.58193766 20.79270529 -0.00838452 0.01895187 0.00916695
H 0.71719861 15.27985134 20.57276971 -0.00852595 0.03139906 -0.00365836
H 3.88081909 18.06683250 12.37476527 -0.00075216 0.03358153 -0.00874299
H 2.10908946 12.90663305 16.53691812 0.00489974 -0.00127148 -0.01930886
H -2.16028507 10.66994232 22.94699739 0.02165513 0.00958113 0.01066722
H -0.12991985 15.84518110 18.55084221 -0.01981491 -0.00580495 0.00599392
H 2.37043634 16.65416235 22.51640783 -0.01410741 0.01006002 -0.01997823
H 2.11261575 11.47852351 18.63395534 -0.01732347 -0.00925698 -0.01306592
H -0.73522401 12.52058562 13.38790742 -0.02121100 -0.01210395 0.01057420
H -0.27168806 17.51441625 16.72137233 0.01678759 0.01404421 -0.00533618
H 0.97246070 15.10977948 11.69395887 0.00078109 -0.02168787 0.01814578
H -1.84053415 10.25918641 17.69366202 0.00307428 -0.02213469 0.00541689
H 0.91703037 13.98724668 24.03415922 0.02549719 -0.00119890 0.00375179
H 3.78704983 18.86655306 17.83718648 -0.02408033 0.00207675 -0.01585208
H 1.20294752 16.72409198 13.61343770 -0.01165333 -0.00626116 0.03406900
H -1.98643239 11.92293990 15.98872613 -0.00839190 -0.00765902 -0.00833309
H 0.79404746 12.48973918 22.01965055 0.00456990 -0.02277129 0.01389336
H 3.76346887 17.19502598 19.71319433 0.01299152 0.02136913 0.01410832
H 3.30177606 14.76167314 21.52802240 -0.00337506 -0.00131227 -0.00851491
H 1.09084463 9.58917376 19.59081066 -0.00957995 -0.02678179 -0.00530414
H -1.51905048 14.23472114 14.36162388 -0.00461466 -0.00956960 0.00795363
H 0.64968118 19.25293445 15.75640464 -0.02360084 -0.00044148 -0.01359993
H 4.77168055 13.90442771 19.23801791 0.00622100 0.00091155 0.00926392
H -0.57576573 18.36237789 22.49551343 0.02247014 0.00199195 -0.00700785
H 16.29716123 15.47481636 16.46772437 0.01463072 0.01358167 0.00435495
H 2.25486432 10.42231984 12.89767502 0.00903090 -0.01460892 -0.00157879
H 18.01555881 13.93273534 19.22702385 -0.01879470 -0.00634507 -0.02770326
H 0.67730963 17.71897138 21.25558186 0.02953038 0.00384408 -0.01766510
H 4.24379622 14.99184124 16.31614253 0.00770287 -0.00117868 0.00882936
H 1.88732072 11.65743401 14.17749073 -0.01991678 -0.01736244 0.00192726
H -2.06939745 12.45235498 19.97425003 -0.01422612 0.00518426 0.04003560
H -0.97574423 17.24030573 21.07011222 0.03699683 -0.00758097 0.01583409
H 4.65862621 16.16430549 15.00777592 0.01932184 -0.01330938 -0.00358798
H 3.53695905 11.28879231 13.64915532 -0.00130060 0.01070957 -0.00956630
H -3.15387280 18.63762085 26.37996296 0.01292190 -0.00182475 0.01382135
H -0.50643910 14.12197315 27.26539130 0.00646257 -0.02583763 -0.01481941
H 2.29637239 10.21998079 32.86720260 0.02338446 -0.01277729 -0.00383152
H -0.57733050 15.42289984 32.74469122 0.02749716 -0.02471362 0.00050477
H 2.42928231 18.14348855 24.56057049 -0.01464750 -0.00913407 -0.00710716
H 0.69721572 13.43551842 28.93488068 -0.02460621 0.02310617 0.00332815
H -3.50029727 11.29260084 34.98910624 0.02655085 0.00789584 0.01364964
H -1.60094291 16.03773704 30.50123328 0.01368392 -0.04694836 -0.02216407
H 0.81844583 16.34140729 34.57177110 -0.01108047 -0.01098948 0.00482510
H 0.96499056 11.53456871 30.71218302 0.02351174 0.01104710 -0.01415354
H -1.87622895 12.25137279 24.80748141 0.00604458 -0.00101476 -0.01676302
H -1.52780630 17.56178903 28.51312669 0.01159672 0.01724752 -0.00482589
H -0.50406535 14.80542950 23.63395720 -0.03247508 0.02996850 0.01990499
H -3.15741539 10.42250275 30.23448082 -0.01015948 -0.01086686 -0.01337912
H -0.54036711 13.89653405 35.51479546 0.01767565 -0.00325620 0.01584111
H 2.21569515 18.97352488 29.68686873 0.00569020 -0.00929145 0.00497103
H -0.43352645 16.56128495 25.57625026 0.00826548 -0.00434456 -0.01580164
H -3.35647077 12.17698915 28.46860864 -0.02032562 0.00167942 -0.01359140
H -0.52605164 12.24787111 33.75819915 0.02470969 -0.01814920 -0.01339148