2160
Time=7000.00000000 pbc="T T T" Lattice="20.59909533 0.00000000 0.00000000 0.00000000 28.83624238 0.00000000 -4.72152659 0.00000000 35.44679526" energy=-13796.75391054 virial="-81.60587401 -14.59518008 70.11261521 -14.59518008 -42.98010232 -12.72170856 70.11261521 -12.72170856 -13.94828519" stress="-0.00065299 -0.00067394 0.00375007 -0.00067394 0.00011527 -0.00070746 0.00375007 -0.00070746 0.00156733" Properties=species:S:1:pos:R:3:vel:R:3
O 0.80452375 8.74474440 2.43220632 -0.00135281 -0.00023072 -0.00120089
O 1.76624882 3.59882486 3.44684437 -0.00134723 -0.00227795 0.00043919
O 4.55091883 1.17314114 9.19233690 -0.00093723 -0.00145893 0.00450851
O 3.28811840 5.95658320 8.42129047 -0.00210472 0.00341126 0.00055720
O 1.18713373 4.89956661 9.45498987 -0.00151747 -0.00245716 -0.00289720
O -0.17853727 9.55205801 8.06493171 -0.00426512 -0.00152720 0.00485763
O 3.96609776 4.51368851 2.37050359 0.00125693 -0.00018672 0.00283136
O 5.62192195 28.65912782 3.70742371 0.00026570 -0.00169422 0.00499118
O -0.66764093 8.52606907 14.39310263 -0.00268059 -0.00015655 0.00217488
O 0.21859828 3.67861037 15.34005315 0.00016418 0.00345673 -0.00226840
O 2.97469004 1.04171187 21.17239536 0.00056630 0.00245905 -0.00099499
O 1.98091016 6.04665633 20.30806884 -0.00534198 -0.00172165 0.00237391
O -0.17259064 4.79747040 21.30844329 -0.00497529 -0.00248723 0.00081382
O -1.93922855 9.57353620 19.80778349 -0.00041542 -0.00443923 -0.00183871
O 2.45570210 4.65082783 14.15017635 -0.00121260 -0.00249068 -0.00023157
O 4.03378195 0.18765333 15.68924564 -0.00222925 0.00198962 -0.00485865
O -2.30069784 8.55257668 25.87610855 0.00112644 0.00257616 0.00162526
O -1.16605166 3.37231182 26.81138707 0.00418183 0.00123929 0.00445736
O 1.10663925 0.67173982 33.21126410 -0.00207882 0.00005367 -0.00180313
O 0.07045103 5.80032654 31.86294172 -0.00032814 -0.00193945 -0.00229184
O -1.77538726 4.95776472 33.37353231 0.00308579 0.00100007 0.00083483
O -3.35392350 9.62523622 31.68931177 0.00248663 0.00109157 0.00244205
O 0.97723620 4.77741463 26.06555374 -0.00027557 0.00738421 0.00040151
O 2.33992220 28.52381281 27.25664667 0.00252717 0.00320956 -0.00215703
O 0.66602669 17.83729954 2.66655473 0.00205047 -0.00020036 0.00087574
O 1.69383124 13.34060308 3.45940570 -0.00116934 -0.00060126 -0.00032550
O 4.56349636 10.62620064 9.13697954 -0.00432543 0.00056919 0.00087544
O 3.55478978 15.32207277 8.16209369 0.00028228 -0.00189477 0.00457075
O 1.36250619 14.52266424 9.50132072 0.00151463 0.00227192 0.00228673
O -0.22112130 19.16441135 8.23146193 -0.00032935 0.00302613 -0.00080655
O 3.92906544 14.15391270 2.35853648 0.00207764 0.00194071 0.00041248
O 5.56031776 9.49584548 3.55589933 -0.00303843 0.00177633 -0.00147654
O -0.89005938 17.88084264 14.26545206 -0.00423741 0.00083054 -0.00508148
O 0.41505205 13.36075483 15.07002233 -0.00411349 -0.00099700 0.00156623
O 2.96316804 10.89103518 20.94877929 0.00080699 0.00371386 -0.00546008
O 1.70132944 15.63241352 20.22624183 -0.00277519 -0.00192558 -0.00316650
O -0.20919047 14.52790509 21.34406918 0.00588135 -0.00035414 0.00237190
O -1.82662667 19.45828893 20.23594359 0.00650737 0.00100055 0.00302746
O 2.55450677 14.42396032 13.88954373 0.00351346 -0.00649366 0.00020502
O 4.07372879 9.56932070 15.54166316 0.00025052 -0.00234738 -0.00011040
O -2.35623257 18.26114781 25.83719545 -0.00033091 0.00209820 -0.00063728
O -1.09329742 13.27671570 26.94408970 0.00024782 -0.00491057 -0.00149261
O 1.44210323 10.54499439 32.99398155 0.00117453 -0.00237386 0.00296465
O 0.19377891 15.31242013 31.65601905 0.00140966 0.00142510 0.00391545
O -1.82628635 14.75463517 33.14684955 -0.00035440 0.00087126 0.00137763
O -3.44825988 19.39658680 31.67923993 0.00237585 0.00377836 0.00261787
O 0.94479362 14.25758177 25.84209525 -0.00096489 -0.00274919 -0.00148054
O 2.21829547 9.54905762 27.26403743 -0.00956908 0.00169115 0.00148739
O 0.67263623 27.60183977 2.52508844 0.00075775 0.00336402 0.00183686
O 1.97320356 22.82791403 3.51190145 0.00348578 -0.00064403 -0.00481084
O 4.58654965 20.52729908 9.26394299 0.00249063 0.00145786 0.00091126
O 3.46623905 25.04431354 8.46124850 0.00196427 -0.00238507 -0.00069806
O 1.42304269 24.13687477 9.65979236 -0.00130683 0.00378398 0.00143744
O -0.23387213 0.15891262 8.37358878 -0.00219164 -0.00424368 -0.00267242
O 4.06562235 23.96351354 2.42850127 0.00270817 0.00123138 -0.00013761
O 5.59970842 19.02039346 3.49237093 -0.00128483 0.00112677 -0.00254378
O -0.77529163 27.74363713 14.45548511 0.00168155 -0.00347791 0.00062466
O 0.42526238 22.73554536 15.29583447 -0.00140492 -0.00266912 -0.00077119
O 2.91346949 20.42941617 21.20364180 -0.00815891 0.00391885 0.00042963
O 1.81993637 25.01657552 20.20411486 0.00381749 -0.00072383 0.00127266
O -0.26627973 23.99769444 21.36915836 -0.00078501 0.00096017 -0.00312364
O -1.66269460 28.78826712 20.04323814 -0.00137971 0.00059590 0.00156847
O 2.49628738 23.90499046 14.13964995 -0.00012685 -0.00046823 0.00494173
O 4.00812613 19.14250272 15.59492444 0.00468233 -0.00072937 0.00507755
O -2.24412637 27.77688752 26.14744485 -0.00134251 0.00097922 0.00153843
O -1.37170780 22.97450420 26.96252135 0.00100844 -0.00261809 -0.00018396
O 1.24234576 20.40337806 32.76368569 0.00207933 -0.00372350 0.00180320
O 0.27225507 24.88522826 32.05476213 -0.00489540 -0.00190916 0.00376491
O -1.93935984 24.30668816 33.11240251 0.00159798 0.00401067 -0.00113199
O -3.40952561 0.12322571 31.83022856 -0.00025794 -0.00414677 -0.00056458
O 0.69427908 24.07392139 25.91385087 0.00137124 -0.00211895 -0.00036573
O 2.29083966 19.11513777 26.99037436 0.00143438 0.00305755 -0.00372214
O 7.71766328 8.50512610 2.26508408 0.00016504 -0.00063229 0.00097904
O 8.70386324 3.47520749 3.16536607 -0.00799050 0.00063444 -0.01012410
O 11.44231232 1.10917261 9.50848606 0.00014245 0.00113139 -0.00020032
O 10.38359135 5.72931121 8.19628335 -0.00492316 -0.00112939 0.00309532
O 8.38297214 4.90536374 9.50792025 0.00106403 0.00313486 0.00237590
O 6.69699432 9.58962190 8.17354123 0.00111866 0.00389328 -0.00486541
O 10.74792849 4.64749134 2.09189923 0.00041773 0.00264258 -0.00622448
O 12.27946080 28.55309900 3.34624732 -0.00124886 -0.00388133 -0.00312867
O 5.99515221 8.47432743 14.21190307 0.00401852 -0.00116906 0.00000689
O 7.21101324 3.88506755 15.36988647 -0.00132359 0.00589057 -0.00187416
O 9.92721328 1.22956835 21.06137199 -0.00405367 -0.00112082 -0.00511391
O 8.56513377 6.10932754 20.43953327 -0.00158056 -0.00388266 0.00235203
O 6.75341049 4.67776117 21.48565007 0.00649485 -0.00333183 0.00193641
O 5.08376680 9.64406061 20.03672114 -0.00008835 -0.00325935 -0.00347227
O 9.36784941 4.80082024 14.26571815 0.00380548 -0.00328801 0.00071436
O 10.93401204 28.79785907 15.68094067 -0.00100103 0.00105438 -0.00041557
O 4.45278597 8.47598955 26.22655916 -0.00261447 0.00320466 0.00173150
O 5.60856290 3.54874701 27.05458654 0.00408716 0.00017858 -0.00364962
O 8.18879462 1.06567031 33.01412187 0.00303175 -0.00180006 -0.00406483
O 7.30710645 5.72982809 31.93039247 -0.00236523 0.00201753 -0.00218750
O 5.01447194 5.01044821 32.67328284 0.00112961 0.00374646 -0.00213480
O 3.62840258 9.65779689 31.94875240 0.00473961 -0.00074629 -0.00240372
O 7.53355852 4.81484995 25.87640152 -0.00165727 -0.00649528 -0.00480174
O 9.23245599 28.74300346 27.28891405 -0.00123254 -0.00105676 -0.00167531
O 7.60196656 17.88078996 2.40774405 -0.00034273 -0.00234352 -0.00156312
O 8.78266995 13.50042333 3.64786662 0.00521475 -0.00071184 -0.00230737
O 11.53993675 10.45497482 9.50772059 -0.00448346 -0.00047437 -0.00145416
O 10.31342343 15.62043602 8.28876525 -0.00153191 0.00132274 -0.00941840
O 8.18915263 14.34596476 9.52412192 0.00270017 0.00079732 -0.00266572
O 6.70926375 19.23171447 8.24572731 -0.00448036 0.00399542 -0.00544639
O 10.77681135 14.33398944 2.19567748 -0.00290112 0.00041414 -0.00179463
O 12.42361008 9.66650499 3.73327369 -0.00323754 0.00135217 -0.00223508
O 5.87394612 18.03596139 14.30360684 0.00009121 -0.00248840 -0.00311966
O 7.24492903 13.27520406 15.38671932 0.00210586 -0.00099492 -0.00549481
O 9.95546382 10.77378411 21.18516320 -0.00145486 -0.00083605 -0.00193742
O 8.61139171 15.46862799 19.98330651 -0.00126588 -0.00208579 -0.00229793
O 6.53023604 14.40952759 21.33854688 -0.00029632 0.00172727 0.00045905
O 5.01158553 19.36916070 20.08164225 0.00088663 0.00373504 0.00122844
O 9.21592669 14.41874600 14.08715648 0.00216280 0.00318875 -0.00006083
O 10.81132186 9.55977732 15.59270585 -0.00361101 0.00311307 -0.00539049
O 4.47652629 18.37401463 25.89769246 0.00303226 -0.00061884 0.00505654
O 5.64660122 13.23633339 27.05539723 -0.00379920 -0.00491159 -0.00091644
O 8.36296645 10.51832915 33.16697690 -0.00142396 -0.00195501 0.00068586
O 7.25792336 15.25888207 31.86331721 -0.00211464 -0.00421789 -0.00133235
O 5.04414767 14.35373359 33.22275854 -0.00195620 -0.00291841 0.00205253
O 3.30196667 19.36197963 31.73208169 -0.00132156 -0.00323688 0.00114306
O 7.67330435 14.36810767 25.92204228 0.00178382 0.00369686 -0.00027294
O 9.36411335 9.56043354 27.20745902 -0.00051656 -0.00233902 -0.00172054
O 7.60871505 27.41427345 2.73224593 -0.00173539 0.00192319 0.00122363
O 8.77351113 23.00343745 3.52150883 -0.00612625 -0.00541183 -0.00179496
O 11.51138770 20.44595492 9.28155634 -0.00186620 -0.00341007 -0.00340658
O 10.32541162 25.23911404 8.39845220 -0.00140095 0.00134169 -0.00236592
O 8.19139525 24.09383564 9.64614846 0.00158732 0.00193032 -0.00384437
O 6.73448976 28.78806282 8.15236196 0.00109042 0.00137906 -0.00251152
O 10.90072102 23.83933709 2.48717307 0.00220373 0.00477317 -0.00027297
O 12.37711027 19.30541933 3.49382605 -0.00456779 0.00133122 0.00043460
O 6.11062754 27.93191234 14.36144241 -0.00011880 -0.00085387 -0.00228194
O 7.32503230 23.15352478 15.42314804 -0.00536857 0.00328693 -0.00413866
O 9.89081358 20.42897709 21.04342194 -0.00308060 -0.00726233 0.00018145
O 8.68107783 25.12486423 20.22966093 -0.00194838 -0.00050945 0.00539360
O 6.61527470 24.21230599 21.39970080 0.00254643 0.00110720 0.00278999
O 5.00277088 0.09444939 19.94049671 0.00063111 -0.00631055 -0.00090998
O 9.29195581 24.10397817 14.04795309 -0.00063106 0.00231953 0.00730931
O 10.70326812 19.17745719 15.20769010 -0.00380782 -0.00193790 -0.00320995
O 4.40739542 27.94256244 25.92126088 -0.00623002 -0.00230683 0.00483863
O 5.47149004 22.96948720 27.07836633 0.00373409 -0.00005627 -0.00587271
O 8.18442135 20.53594740 32.83786044 0.00298855 -0.00352120 0.00452835
O 7.16110580 25.06645179 31.98338643 -0.00219507 0.00177138 -0.00008875
O 4.95572359 24.02809047 33.13336173 -0.00145971 0.00235871 -0.00220612
O 3.43488329 0.03416420 31.86954947 0.00322611 -0.00096961 -0.00181784
O 7.55404033 23.95042225 25.94092605 -0.00143884 0.00433118 -0.00370357
O 9.21973967 18.97730339 27.27181809 -0.00316408 0.00250342 -0.00145480
O 14.40045995 8.39805978 2.53876734 0.00491411 0.00498849 -0.00490412
O 15.60969282 3.51565242 3.32244007 0.00211473 -0.00407046 -0.00001046
O 18.17548030 1.02869109 9.51168247 0.00316517 -0.00380233 -0.00615454
O 17.07143541 5.87600259 8.52758126 0.00417739 0.00023597 0.00275044
O 15.09221601 4.65139058 9.81555132 -0.00172269 -0.00245186 0.00111562
O 13.56029720 9.48399747 8.21657510 -0.00135137 0.00123280 -0.00049658
O 17.60769017 4.68101047 2.31354130 -0.00148284 0.00330756 0.00698404
O 19.18241956 28.69461117 3.60740796 -0.00472457 0.00219351 0.00614399
O 12.89157543 8.59331021 14.13694669 0.00444115 0.00059713 -0.00090569
O 14.04549323 3.58445980 15.40644817 0.00129282 -0.00272967 -0.00553163
O 16.96935077 0.96765445 21.26307037 -0.00344930 0.00524421 0.00140410
O 15.57239624 5.97811776 20.01671222 -0.00057167 0.00053959 -0.00035730
O 13.37148634 5.00459223 21.23716367 0.00338418 -0.00321851 0.00003343
O 11.98220905 9.60754717 20.15607379 -0.00233125 -0.00305628 0.00154738
O 16.20293031 4.75279272 14.42365624 -0.00195849 0.00217781 -0.00083930
O 17.61047622 28.67672658 15.29433470 -0.00021882 0.00004320 0.00427773
O 11.37293460 8.83846901 25.71732805 -0.00161869 0.00250648 0.00156035
O 12.34961617 3.68066981 27.01456078 0.00011989 0.00041678 0.00086717
O 15.08167231 0.98391646 33.16748470 0.00691485 0.00549257 -0.00182043
O 13.75282450 6.02215641 32.00218379 0.00045487 -0.00307253 -0.00230695
O 11.85544104 4.75438292 33.31443053 0.00431417 -0.00150464 -0.00065656
O 10.36470458 9.88683223 31.77065792 -0.00193054 0.00337767 0.00563022
O 14.49543967 4.76471797 25.84653929 -0.00071313 0.00183858 -0.00037054
O 15.96637318 28.69931089 26.95960149 -0.00205289 0.00112795 0.00458553
O 14.36721079 18.26143629 2.43498622 0.00263264 -0.00755143 -0.00545547
O 15.73535568 13.26322163 3.41803251 -0.00473265 -0.00707433 0.00592465
O 18.38340597 10.53065992 9.32553540 -0.00132661 -0.00453142 0.00139808
O 17.12282131 15.50534539 8.17628620 -0.00386647 -0.00010159 -0.00355779
O 15.09224479 14.57825321 9.52323597 0.00136431 -0.00039380 -0.00169378
O 13.47870074 19.11370432 8.01210258 -0.00383378 -0.00061410 -0.00792929
O 17.71520107 14.41776832 2.15601571 0.00159363 0.00223017 -0.00147475
O 19.10614881 9.50810611 3.56810492 -0.00167220 -0.00311539 -0.00030008
O 12.89305289 18.13031402 14.29680361 0.00969119 0.00473444 0.00111254
O 14.04861085 13.26855661 15.13836526 -0.00205586 -0.00500750 -0.00347648
O 16.92284305 10.91818172 21.08630643 0.00438321 -0.00299813 0.00373264
O 15.41465023 15.69805050 20.17810871 0.00054417 -0.00383327 0.00283740
O 13.52915867 14.65785604 21.48729096 0.00163018 -0.00229686 -0.00563882
O 11.95282916 19.26388480 20.06572343 -0.00024377 -0.00205297 0.00141566
O 16.17669132 14.28900713 13.85511634 -0.00003886 0.00325188 -0.00121934
O 17.75854574 9.72141894 15.47574828 0.00429993 0.00420024 -0.00459192
O 11.46130348 18.31778026 26.00563667 0.00097444 -0.00142071 -0.00298078
O 12.58359118 13.46930767 27.08732072 -0.00322267 0.00196421 -0.00181093
O 15.23380562 10.72412374 32.77363585 -0.00802140 0.00081602 0.00024089
O 13.88752903 15.51647638 32.00845672 -0.00581925 0.00054397 -0.00311264
O 11.95268754 14.46936110 33.36326129 0.00109900 -0.00155413 0.00163509
O 10.31988966 19.30209272 31.83059874 0.00273664 0.00077353 -0.00063053
O 14.47243394 14.60547506 25.68052802 -0.00062434 0.00631751 -0.00210444
O 16.22033795 9.37261872 26.97041628 0.00285881 0.00020687 -0.00253168
O 14.40857601 27.52485139 2.33706138 0.00015376 -0.00239584 -0.00090421
O 15.49819136 23.03626703 3.60102969 -0.00214384 -0.00047546 0.00066816
O 18.27675164 20.19449236 9.56487068 0.00316649 0.00607321 -0.00371640
O 17.22896742 25.06624897 8.48519036 0.00333782 0.00657010 -0.00151125
O 15.12832425 24.21653351 9.58977554 0.00322889 0.00552052 -0.00446440
O 13.58947530 0.18332897 8.49829815 0.00022503 0.00014151 -0.00101839
O 17.66386947 23.98557836 2.32651319 0.00130556 -0.00501229 -0.00413751
O 19.22646972 19.24128641 3.54638258 0.00514698 0.00008201 -0.00650560
O 12.89542241 27.82195589 14.26810762 0.00115247 -0.00070339 -0.00213617
O 14.07695324 22.80817757 15.11109026 -0.00321773 0.00447875 0.00534309
O 16.66246055 20.41651776 21.23723927 0.00004768 0.00386085 0.00237403
O 15.49995009 25.13561245 20.21824135 0.00513275 0.00459749 -0.00736453
O 13.44111135 24.09745010 21.49466527 0.00427071 -0.00119817 -0.00258628
O 12.02355178 0.02720536 20.11837568 0.00374668 0.00279396 -0.00513919
O 16.29983649 23.98305105 14.34112395 -0.00270453 0.00009087 0.00217042
O 17.73350832 19.12468928 15.42352617 0.00052064 0.00496435 -0.00082747
O 11.47855680 27.99089366 26.04633754 0.00254237 -0.00220904 0.00220819
O 12.28082483 23.29724190 27.38369135 -0.00023830 0.00216316 -0.00270615
O 15.17318885 20.18087128 33.16777248 -0.00249049 -0.00566927 -0.00271914
O 13.93881680 25.12736535 31.98852549 -0.00245652 0.00709311 0.00483700
O 11.84205151 24.00081727 32.98680017 -0.00074698 -0.00061811 -0.00050581
O 10.38054526 28.80957945 31.89453905 0.00039659 0.00286127 -0.00556640
O 14.13840056 24.13173085 25.85261037 -0.00570809 0.00028386 0.00212000
O 16.07287549 19.08584487 27.01470625 0.00003523 0.00102609 0.00579654
H -0.13173927 8.98118093 2.77479494 0.03044634 -0.00634937 -0.00730824
H 2.63856419 3.88506978 3.06397509 0.00983694 0.00190830 0.01043495
H 5.49555014 0.74605316 9.03033508 -0.00683221 0.01027294 0.00220120
H 2.38114016 5.66422336 8.72196260 -0.00435310 0.00876256 0.00073362
H 5.56616203 7.88764723 0.81446674 0.00052212 0.02150888 0.01453585
H 3.83467817 3.29681058 5.07184122 0.03247689 -0.00999974 0.01695545
H -0.46181647 1.39792429 11.15428613 -0.00585225 0.01710421 0.01654349
H 1.29491815 6.31191391 6.75938294 -0.02719723 -0.00546212 0.00657373
H 4.12557245 6.51015363 10.63923917 0.00262407 0.00174108 0.01515268
H 3.73081341 1.80662677 6.97715551 -0.00527741 -0.02047672 -0.00858445
H 1.14817643 2.95676936 1.32318821 -0.02985099 0.00367557 -0.01239126
H 1.36363614 7.76144893 4.80738371 -0.02669015 0.01528189 -0.01816005
H 2.78804224 5.49323440 0.09460542 -0.02080163 -0.00380399 -0.00536032
H -0.11021413 0.36356293 6.00728495 0.01980010 0.03198178 -0.00577847
H 2.56126078 4.21945416 12.12951431 0.00522532 0.02659710 0.00182059
H 5.53841910 8.83708043 5.67669766 -0.03078266 -0.00360303 -0.00700609
H 2.77376156 6.94596287 1.97825696 0.00769340 0.02615360 -0.00592441
H -0.34351081 2.00458999 4.35249306 0.01169269 0.00381015 0.01264364
H 2.50521024 2.72294680 10.14739018 -0.02813100 -0.02407405 -0.00566363
H 5.30995205 7.29720091 7.66718882 0.01933425 -0.00741930 0.03118662
H 5.27427790 4.72473645 9.49452346 -0.02517617 -0.00841538 -0.01531873
H 2.98152021 0.00717776 8.15821540 -0.01036634 0.01812908 -0.02366926
H 0.24466890 4.98999992 2.16170276 -0.03070392 0.01475834 -0.01499915
H 2.43254008 9.41071601 3.77614232 -0.02781412 0.00885082 -0.00207937
H 5.82135966 3.57185711 7.87155153 -0.01193343 -0.00344364 -0.00563110
H 0.28180017 8.37224468 10.12424288 0.00811198 -0.00779378 -0.00033848
H -0.47605385 5.36030135 4.35750372 0.02276772 0.01129847 -0.00470375
H 3.04753116 0.94117120 2.03841903 -0.01394807 0.00657709 0.00338164
H 0.03028994 2.62824738 8.48848950 0.00299808 -0.00626772 0.02617677
H 1.88010861 9.18105058 10.30945597 0.01368828 0.00519999 -0.00123708
H 6.08298953 5.45083279 4.43671489 0.02602478 -0.01510828 0.00889381
H 4.48618275 1.99730163 2.53525822 -0.02019107 -0.02179274 -0.00130757
H -0.07724991 3.80259076 7.33660694 0.01513869 -0.00551302 -0.01220785
H 1.78390711 7.64321969 9.40217483 0.02246144 -0.00408436 -0.01367807
H 5.78198315 6.77745986 3.39741211 0.00427874 -0.02322769 0.01314117
H 4.75990149 0.69050286 1.37769419 -0.00824134 0.01078430 0.01829466
H -1.57926793 8.83898987 14.70904357 -0.02916378 0.00704587 0.01774151
H 1.07726707 4.10193832 15.03014018 -0.01592349 -0.01541392 0.02102603
H 3.82700597 0.71042107 20.85023197 -0.03208491 0.00201327 0.03189231
H 1.15501922 5.57559135 20.51670978 0.01328122 -0.00597733 0.00227849
H 3.95341010 7.77215255 12.77240183 0.00691260 -0.00470789 -0.03062759
H 1.97159556 3.80065982 17.21659792 -0.00856594 -0.00297194 -0.00032660
H -1.83517137 1.43273552 23.00417199 0.00091044 0.00410797 -0.00704824
H -0.00879672 6.33346202 18.69951875 0.00730178 -0.00721861 -0.01060261
H 2.71953118 6.84529854 22.33557090 0.00134530 -0.01653502 0.01717807
H 2.20150741 2.11482182 19.03855751 -0.01882772 0.00044078 -0.02520796
H -0.47385500 2.95105681 13.08597442 -0.01863309 0.01358690 -0.02428451
H -0.07276312 7.82122025 16.64578380 -0.00259763 -0.01373147 0.00744157
H 1.25278122 5.40014378 11.73934291 0.01726643 -0.01274810 -0.01265542
H -1.66544086 0.40339467 17.82619693 0.01154508 0.02359246 -0.01568914
H 1.11406704 4.40941122 23.85387576 -0.00992162 0.02017105 0.00651603
H 3.88089685 9.07853247 17.50970957 0.01259307 0.03562874 -0.01550021
H 1.27047245 6.94173051 13.74245670 0.02144241 0.00481365 -0.01373927
H -1.57888481 1.85094615 15.92371451 0.00456494 -0.00072599 0.00609382
H 1.02120168 2.76489744 21.94068381 -0.01417460 0.00200238 -0.03075252
H 3.96743873 7.46656706 19.42855238 -0.00960823 0.01073524 -0.01253242
H 3.55635577 4.97833624 21.39884678 -0.02578268 0.01022758 -0.02789549
H 1.59075366 28.81383942 19.83888079 0.00456218 -0.00121581 0.00642632
H -1.26402964 4.57119516 14.12479748 0.00571199 -0.00414314 0.01524011
H 0.93748161 9.62608797 15.41378830 0.03128961 0.00949281 0.00795754
H 5.65987471 3.66727151 19.12227346 -0.00760795 -0.02137169 -0.00666368
H -0.68196481 8.79834105 22.13785209 -0.01169926 0.00875685 -0.01109247
H 17.64118061 5.36667457 16.57827013 -0.01432308 -0.01709817 0.03288264
H 2.86431016 2.26227664 14.65317739 -0.00425067 -0.01732593 -0.00980202
H -2.39740267 2.80899773 19.97192914 -0.03792882 -0.02210662 -0.01231456
H 0.50997746 8.00326372 21.21391128 -0.01096502 0.00223597 -0.00860288
H 4.02489029 5.25066132 16.39077772 0.02455343 -0.00993638 0.00039221
H 3.08326232 0.97348503 13.40453103 -0.00515563 0.00482551 0.01214248
H -0.61909956 2.66051891 19.92405533 -0.01097495 0.02569198 -0.01087059
H -1.08238546 7.46579384 21.01184934 0.01522324 0.04660985 0.00622410
H 4.91934647 6.38590910 15.31165423 -0.01196151 0.00301885 0.00935469
H 1.44946554 1.45773736 13.97221433 0.07601232 -0.00856606 0.01964409
H -3.30707809 8.76529195 26.26157240 -0.01938958 0.02729610 0.02762083
H -0.46808177 4.01556984 26.81079211 0.02227382 0.01459527 -0.00469736
H 1.99556779 0.52113917 32.74678249 0.01361116 0.01196007 -0.00289856
H -0.70847405 5.27871806 32.32352264 0.00544395 0.00753803 -0.02669314
H 2.67637318 8.36174001 24.44480218 -0.00810570 0.01333419 0.00179672
H 0.73745630 3.25120089 28.48658913 0.01109481 0.01209996 0.00447104
H -3.51087805 1.32807141 34.95025370 -0.00346805 -0.00655598 0.01440638
H -1.78492287 5.88842368 30.16368755 -0.01360663 0.01211788 -0.02415767
H 0.98118088 6.38755089 34.20441217 0.02331919 -0.00404905 0.00033223
H 0.65713848 1.98105262 30.64933817 -0.00043880 -0.00692583 -0.00461461
H -2.05400513 3.01552730 24.90118152 0.01070792 -0.00722045 -0.00582065
H -1.93109382 7.56247247 28.30263919 -0.01912947 0.01461572 -0.00438167
H -0.33790196 5.32422679 23.49537405 -0.02127891 -0.02124173 0.00501072
H -3.39871242 0.77436661 29.68170868 -0.04094185 -0.00112492 0.01277077
H 4.20093467 4.24566153 0.18446367 -0.01641400 -0.01368372 0.01041386
H 2.04287031 8.94376989 29.32642057 -0.00316804 -0.01419771 -0.00153630
H -0.30023475 7.01998945 25.20344845 0.00129741 0.00359899 0.01449952
H -3.26061159 2.15516092 27.72237091 -0.03815557 0.00403613 -0.00547356
H -0.76230597 2.46608965 33.77005204 -0.00867833 0.00097843 0.00851713
H 2.06528905 7.32678478 31.15044593 0.01284883 -0.01874028 0.01355140
H 1.89657511 4.75369763 33.22414415 -0.01184278 -0.01151095 0.00129368
H -0.34699979 0.00864612 31.73625234 0.05020598 -0.02156230 0.03623331
H -2.95437772 4.76650331 25.78158437 -0.05351242 -0.02945522 -0.02039006
H -0.89089089 9.41224558 27.15584523 0.05575332 -0.01580701 0.00859607
H 3.56974864 2.57525354 31.77193233 -0.00690656 0.02092006 0.00859547
H -0.89650341 8.74822942 33.47611760 0.01891062 0.00729230 0.01018664
H 16.56935836 5.25596867 28.11231666 0.00314922 -0.00374529 0.01621995
H 1.18308238 2.07240673 26.23117088 -0.01361679 -0.02736466 -0.01495077
H -2.53949038 3.91733170 31.11070035 -0.01937988 0.00919803 0.00582900
H -1.88722920 7.48164351 33.02286220 0.00493242 0.01851356 0.01554040
H 3.54248354 6.02901166 27.53187604 0.01647663 0.01325546 -0.01869403
H 1.22573119 0.73637432 25.06770914 0.00648052 0.00973791 -0.00086621
H -4.21422497 3.72422479 31.66866388 -0.07048224 0.00201264 -0.00955002
H -2.67417546 8.74714467 34.09484517 0.02131394 -0.00257005 -0.02491564
H 2.33481467 7.20855068 26.83739256 -0.02181511 0.02664924 -0.01498792
H -0.32765188 1.06701126 25.83297175 -0.04044633 -0.00667536 0.01333510
H -0.21164648 18.28604069 2.82473881 0.00482170 -0.01159892 0.01342544
H 2.51389032 13.65166486 3.02463544 -0.03090071 0.01138086 -0.00007053
H 5.38266987 10.23874005 8.75762952 -0.01040875 0.01612415 -0.00407016
H 2.65064261 15.01365018 8.52903001 -0.00531210 -0.00492327 0.00019961
H 5.65071176 17.75186066 0.64461689 0.00180218 -0.01955091 -0.00683545
H 3.50421959 13.24002070 5.30236342 0.00877199 0.01147620 -0.02625334
H -0.38097979 10.80222188 11.04138096 -0.00845940 0.01748177 -0.00543555
H 1.44546056 15.75808954 6.65611278 -0.00449498 -0.00831685 -0.00992411
H 3.99713924 16.08743554 10.66706417 0.02125747 0.00950283 0.03129423
H 3.83432599 11.59335885 7.02386438 -0.00860265 -0.01010244 0.00335825
H 1.17678581 12.42185610 1.16080496 -0.02237120 0.00504388 -0.00852163
H 1.54056625 17.28973892 4.66107084 -0.01255261 -0.00300172 -0.01112581
H -1.98507702 14.97120534 35.25939365 0.00528407 -0.01262950 0.01009897
H -0.09954931 10.07716923 6.04937918 0.00422111 0.00566234 0.00327719
H 2.58655014 13.72126118 11.94046095 0.03464398 -0.01799520 -0.01424504
H 5.48669009 18.57635693 5.70985635 0.00981278 0.02026781 -0.02079567
H 2.60629845 16.36165201 2.00222002 -0.00113286 0.01048891 0.00638727
H -0.21056393 11.67042654 4.19681455 -0.00406390 0.00963551 0.00129006
H 2.56109275 12.11629216 9.95747055 0.01127367 0.00016650 -0.01312219
H 5.47853726 16.89714551 7.63693656 0.02575427 -0.00327373 -0.00856403
H 5.03985574 14.35279857 9.68576285 0.06260776 0.00514369 0.04165831
H 3.06921472 9.56965022 8.22109419 -0.00482331 -0.01255468 -0.01425842
H 0.12457881 13.92921681 2.39042272 -0.01033763 0.00515950 -0.02290581
H 2.49758662 19.35562745 3.81734855 -0.01913750 -0.03506107 0.00105361
H 6.49998475 12.26589692 8.30212409 -0.01040380 0.00746504 -0.00337920
H 1.81562295 17.35420502 9.38861136 0.00262538 0.01931424 -0.00505617
H 18.44028009 16.26855890 3.65694888 -0.00141604 -0.00572476 -0.01715586
H 4.04203067 9.98039920 1.28810230 -0.03676535 0.01324014 0.00115010
H 0.61284323 13.03542695 7.41034605 0.00756438 0.00804286 0.02327493
H 0.52599990 18.00532046 10.30586398 0.00127653 0.00504709 -0.01300705
H 5.27326701 15.30546726 4.74797106 0.01017079 -0.00689884 0.05180498
H 2.87436969 10.90113479 2.39699078 0.07055792 0.01906513 -0.01412643
H 19.51276045 12.97658636 7.98873056 0.01297385 -0.00996858 0.00870965
H 2.09276278 18.84534241 10.24388245 0.04184899 0.04021700 0.00136988
H 6.43176886 15.93191135 3.53818504 -0.06389323 -0.00948660 -0.00838189
H 4.50684561 11.60521186 2.16900455 -0.01433409 -0.04871827 0.00394599
H -1.68447615 18.46434482 14.37622826 0.01108204 0.00696601 -0.00786972
H 1.27342545 13.81798070 14.99935219 0.00374704 0.00953560 -0.01062178
H 3.80267334 10.25363933 20.75152048 -0.01964212 0.00740736 -0.00367627
H 0.84004521 15.10654156 20.33155069 0.01505460 -0.01218353 0.00000349
H 3.92745426 17.71790677 12.60952051 -0.01544610 0.01646555 0.00733460
H 2.34668047 13.03356273 16.82007601 -0.01481088 -0.00196573 0.03131296
H -1.88903357 10.91244231 23.07156923 -0.02332899 -0.00230036 -0.00152303
H -0.24497812 16.15093889 18.54588406 -0.00116573 0.00263414 0.00732048
H 2.31758274 16.23451631 22.48547428 -0.00586366 -0.00972770 -0.01022597
H 2.26829868 11.50133249 18.71203655 0.00135148 0.01388033 0.00152191
H -0.29515515 12.40143637 13.04983925 0.00052931 -0.02270860 0.00939343
H -0.11134767 17.52474052 16.48938847 -0.00284367 0.00202067 -0.00731245
H 1.26768768 15.04061666 11.65995321 -0.00463982 -0.00948821 -0.00419666
H -1.72127979 10.30838717 17.72728741 0.01074226 0.00836392 -0.01805737
H 1.03371192 13.89582718 23.54718871 0.00431333 -0.02096280 -0.00861950
H 3.69545721 18.76811445 17.64927838 0.03651813 0.02073786 -0.00615674
H 1.10485841 16.47471638 13.50185984 0.01588978 -0.00582483 0.03073815
H -1.61008981 11.92481761 15.74564299 0.02047092 0.01444415 -0.01605208
H 0.92955442 12.36635694 21.79431611 -0.01213397 -0.00575799 0.00485099
H 3.86707997 17.13695342 19.35339162 0.03579621 0.00380302 0.01164536
H 3.24684858 14.65467849 21.27347825 -0.00366355 -0.00911026 -0.00010881
H 1.19699936 9.79538175 20.01488989 -0.00207770 -0.02181936 0.01670849
H -1.25950182 14.11816109 14.16929479 0.00396754 -0.02254649 -0.01136305
H 0.84315721 19.14340152 15.44083395 -0.05282577 0.01710326 -0.06581888
H 5.77847385 13.37670003 19.20656538 0.00221953 -0.02389357 -0.00511040
H 0.36287354 18.85735343 22.30868725 -0.01247721 -0.00740439 -0.00881429
H 17.92155451 16.47436543 15.16645329 -0.01497317 -0.01003597 -0.00858527
H 1.57578003 10.67965879 13.75236014 0.01607634 -0.02191397 -0.00812608
H -0.91903082 13.40019366 19.12156109 -0.00992403 -0.00651753 0.00527251
H -0.11989034 17.22378977 21.48480951 -0.03888283 0.04450769 -0.01270825
H 5.10011095 15.36075984 15.68262654 -0.00520474 -0.01841286 0.00186766
H 2.78397198 11.86584858 14.49338014 0.00538954 -0.04280485 -0.03750904
H -2.52355075 14.05668217 19.16783288 -0.00046007 -0.00250209 -0.00420711
H -1.29314120 18.23261211 22.33887017 -0.02984121 -0.01598553 -0.00069787
H 3.69751856 16.36784892 15.38717424 0.01655131 -0.00656338 0.01603141
H 3.37939228 10.63892225 13.26071457 0.01309854 0.02709364 -0.01444174
H -3.33064190 18.63120998 26.06167796 0.00787045 -0.03137632 0.00581816
H -0.31927858 13.75625352 26.46817275 0.00631685 0.01297961 0.02995544
H 2.28661481 10.10153134 32.64925757 -0.02275286 0.00258069 -0.04245402
H -0.65994926 15.16640236 32.14535466 0.00548002 -0.03221836 -0.01425540
H 2.49233586 18.02356410 24.31532778 0.00505702 0.01910142 0.00936035
H 0.71212725 12.95168881 28.79944826 -0.01019176 0.01006739 -0.00755931
H -3.45396988 10.94545387 34.72147382 0.00670355 -0.01122080 -0.02424337
H -1.76853082 15.93198599 30.07323428 -0.03314651 -0.02027471 -0.02148501
H 0.83091397 16.15561612 34.18656920 0.00726385 -0.01023591 0.01719852
H 0.78736638 11.35129452 30.62710659 -0.03389148 0.02012223 0.00015980
H -1.94844090 12.82912071 24.72684032 -0.04624347 -0.01572678 -0.01895677
H -1.71543928 17.45466369 28.18682419 -0.00222261 0.00182549 -0.00965947
H -0.42460345 14.85211290 23.37587220 0.01347369 0.01730106 -0.00009475
H -3.09603086 9.99546357 29.46225929 0.01885898 -0.00063989 0.01268331
H 4.04917045 13.69679252 0.10932939 -0.01074760 -0.00189737 -0.00940604
H 2.25830796 18.68855684 29.29877641 0.01042240 -0.00243085 0.00616222
H -0.40658405 16.41051086 25.33182191 0.01304759 -0.01060069 0.00806651
H -3.11986479 11.73381988 27.65940253 -0.00268193 0.00071927 0.01583841