2160
Time=95000.00000000 pbc="T T T" Lattice="20.63183792 0.00000000 0.00000000 0.00000000 28.91639250 0.00000000 -4.73002721 0.00000000 35.57454662" energy=-13798.55976892 virial="-92.59086384 -33.97359564 28.82387020 -33.97359564 -26.95872057 20.34168593 28.82387020 20.34168593 -47.78024487" stress="-0.00189059 -0.00157728 0.00128226 -0.00157728 0.00112769 0.00097837 0.00128226 0.00097837 0.00011771" Properties=species:S:1:pos:R:3:vel:R:3
O 0.67840931 8.55945879 2.50600109 -0.00142404 0.00752415 0.00289569
O 1.76292677 3.80849991 3.56111838 0.00691890 0.00534498 -0.00574435
O 4.68140492 1.35068413 9.29654639 0.00407382 0.00014848 -0.00235439
O 3.48368666 5.72112577 7.87460108 -0.00014070 -0.00402994 -0.00263594
O 1.46156047 4.85928100 9.72921405 -0.00069654 -0.00222030 -0.00128155
O -0.25104456 9.66452436 8.21575218 0.00130008 -0.00054484 -0.00821075
O 3.89488206 4.49513292 2.21195199 -0.00185860 0.00646585 0.00269894
O 5.57058365 0.03609679 3.52044499 0.00488680 0.00433530 0.00493191
O -0.66938797 8.63968834 14.49204822 -0.00407005 0.00610752 0.00016883
O 0.50833480 3.73001553 15.12892864 -0.00017580 0.00031643 -0.00266361
O 3.08647405 1.05904728 21.34720454 0.00144588 0.00265675 0.00759105
O 1.85410372 5.60450981 20.11199576 0.00052856 -0.00378385 0.00243805
O -0.27231394 5.09943185 21.63998827 0.00220577 0.00358285 -0.00101293
O -1.89393637 9.59850028 20.19619502 -0.00271899 -0.00368204 0.00302013
O 2.68361025 4.79743832 14.09940490 0.00065046 -0.00102389 0.00254888
O 3.99478758 28.90312430 15.53134730 -0.00021947 0.00053295 0.00409521
O -2.39853443 8.69910507 26.41234674 -0.00175961 -0.00002006 0.00297715
O -1.06224931 3.72203016 27.12788195 0.00521590 0.00427349 0.00176392
O 1.51554665 1.29863800 32.83799045 0.00514087 0.00105823 0.00319367
O 0.07940678 6.16908667 32.15493891 0.00303790 0.00345690 0.00567106
O -2.06100209 4.96561623 33.36597480 -0.00182857 -0.00880181 -0.00249877
O -3.50433573 9.61028962 31.84036036 0.00468510 -0.00117516 0.00093385
O 0.93268905 4.83898565 25.92514273 0.00297135 -0.00321457 0.00753905
O 2.52463281 0.08599587 27.43289843 -0.00184684 -0.00392338 -0.00376458
O 0.72064570 18.30167846 2.41116181 0.00139670 -0.00167277 0.00074613
O 1.83473006 13.19375952 3.34278755 0.00193891 0.00160635 0.00133134
O 4.67787041 10.66726216 9.51388757 -0.00936701 0.00391822 0.00134609
O 3.31605486 15.22935469 8.13810515 0.00354624 0.00289971 -0.00295541
O 1.29266723 14.61739077 9.67600687 0.00277526 -0.00208135 -0.00677484
O -0.22183805 19.61981159 8.46514730 0.00434689 -0.00027447 -0.00443396
O 3.69033309 14.55348409 2.14851784 0.00032953 0.00400540 -0.00049787
O 5.40119384 9.69175123 3.35687658 -0.00017066 0.00576762 0.00102639
O -0.93846490 18.04374297 14.40284244 -0.00409965 -0.00286366 0.00557643
O 0.35509519 13.42075619 15.48465697 -0.00216687 0.00338305 -0.00501652
O 2.93572861 10.52080894 21.52735939 -0.00349539 -0.00355516 0.00252993
O 1.84425417 15.24656024 20.03635489 0.00008908 0.00690852 -0.00354581
O -0.22132550 14.49669296 21.49076509 0.00304903 0.00060676 0.00358172
O -1.98852983 19.13966147 19.88278992 0.00241730 0.00091028 -0.00004795
O 2.27547104 14.28362951 14.20069922 0.00328013 0.00370312 -0.00080748
O 4.10661053 9.66105114 15.45798519 -0.00280883 0.00008700 0.00177430
O -2.48804074 18.01016939 26.16331959 0.00073179 -0.00327355 0.00312960
O -1.27612289 12.96908826 26.98324926 0.00224928 -0.00298169 -0.00074535
O 1.30361460 10.91531934 33.15200150 -0.00392967 0.00292891 0.00126593
O 0.21704973 15.38028878 32.05412009 0.00078532 -0.00487082 0.00587355
O -2.02770687 14.71780966 33.27360954 0.00095882 0.00106548 0.00573177
O -3.44025457 19.46917550 32.01854332 0.00074988 -0.00043772 -0.00272386
O 0.77598110 14.50346275 26.04185427 -0.00110827 -0.00006026 -0.00033451
O 2.38531230 9.30424398 27.04388369 -0.00131151 -0.00279015 -0.00357665
O 0.72236479 27.65633563 2.33359287 -0.00569207 0.00290228 -0.00462954
O 1.83872584 23.11601483 3.31616806 0.00258484 0.00258500 -0.00468078
O 4.70958550 20.58997160 9.50503639 -0.00008253 0.00408825 -0.00080217
O 3.29096125 25.51453755 8.56879817 0.00479732 0.00336001 0.00658552
O 1.52070585 24.33680097 9.79033809 0.00535493 0.00197021 -0.00563703
O -0.22444331 28.86968568 8.30708649 -0.00171471 0.00452089 -0.00578629
O 3.93603671 24.01244391 2.21751656 -0.00259949 -0.00117729 0.00206929
O 5.58527590 19.23805136 3.71552459 -0.00048513 0.00019543 -0.00026011
O -0.88376070 28.05368684 13.98357715 0.00118333 0.00212879 -0.00202226
O 0.21098622 23.02875440 15.30792415 -0.00404224 0.00672343 -0.00222348
O 2.91948812 20.30657381 21.21732091 0.00571597 -0.00770076 -0.00471731
O 1.76190014 25.31552421 20.18377692 0.00565597 0.00453764 -0.00273793
O -0.25257589 24.26062907 21.62480008 -0.00719707 -0.00051457 0.00410929
O -1.74292472 0.38663320 19.99791500 0.00149884 0.00424301 0.00230182
O 2.35159708 24.16667980 14.24491605 0.00016889 0.00281925 0.00633062
O 4.04347667 19.27238424 15.46988766 0.00424498 -0.00335796 -0.00355191
O -2.26079659 27.73980207 26.41244354 -0.00028518 0.00075667 0.00134981
O -1.14729329 22.63462098 26.99136213 0.00072752 -0.00462351 0.00581015
O 1.47796480 20.18041138 32.95619293 -0.00429703 0.00381615 0.00409804
O 0.45590563 25.46126547 32.10810824 -0.00126717 -0.00121679 0.00131473
O -1.74961831 24.42937234 33.05437733 0.00016683 0.00684612 0.00204216
O -3.36680490 28.77333544 31.72660420 -0.00178835 -0.00005114 0.00106947
O 0.67274039 24.04757628 25.69295567 -0.00116221 -0.00098917 0.00583314
O 2.41159797 19.16459419 27.46870518 0.00319703 -0.00378355 0.00016789
O 7.45860172 8.56012595 2.40800179 0.00187460 -0.00500564 -0.00055702
O 8.66392569 3.95424817 3.59378587 0.00095251 0.00210708 -0.00251156
O 11.41422834 0.93055649 9.49794271 -0.00167329 -0.00532110 0.00224192
O 10.35248638 6.05431745 8.44907523 -0.00293114 0.00096336 0.00348488
O 8.14482494 4.97015366 9.30022437 -0.00268247 -0.00087727 -0.00270409
O 6.81166329 9.78150485 8.06099791 -0.00329625 -0.00010500 0.00470759
O 10.71291772 4.90250421 2.23567988 0.00672232 0.00350267 -0.00656869
O 12.31355853 28.76343085 3.52525723 0.00095211 0.00635327 0.00207339
O 6.24906668 8.52747343 14.33834563 -0.00032499 -0.00122939 -0.00219424
O 7.34103959 3.58541372 15.26564570 -0.00340701 0.00115936 -0.00042534
O 9.96549860 1.16791622 21.26451517 -0.00414292 0.00047351 0.00409531
O 8.75055853 5.33710413 19.90211354 -0.00351524 -0.00356921 0.00036613
O 6.64022566 4.41330881 21.64022886 0.00493857 -0.00669047 -0.00280827
O 4.72608852 9.43137731 20.15005472 0.00028469 0.00245301 -0.00336201
O 9.25575867 4.67534167 13.87224916 0.00250536 0.00528003 -0.00197399
O 11.09145570 28.66389766 15.60333993 -0.00619346 0.00027690 -0.00335939
O 4.60425948 8.25189995 26.21862211 -0.00297562 0.00188806 0.00350692
O 5.78035281 3.57778163 27.33622133 -0.00210939 -0.00339765 -0.00256666
O 8.22012283 0.99846146 33.18692384 0.00109070 0.00667181 0.00125538
O 7.52976394 5.73413599 31.74754689 0.00243908 -0.00363963 0.00491077
O 5.23420152 5.14809414 32.93486988 0.01067842 0.00411374 -0.00191780
O 3.21698006 9.82101592 31.85632570 0.00205441 0.00014973 -0.00241275
O 7.71384664 4.67698122 25.97302840 0.00245301 0.00074196 0.00438017
O 9.36285392 28.73305085 27.35892736 0.00106067 -0.00724985 0.00499684
O 7.51368823 18.36955234 2.27641264 -0.00142049 -0.00469796 0.00062293
O 8.80537393 13.45157428 3.44415355 -0.00025125 -0.00273536 0.00364148
O 11.45262042 10.72456811 9.78293928 -0.00519587 -0.00232264 -0.00512038
O 10.24326423 15.41754094 8.54566654 0.00276026 0.00594102 0.00949729
O 8.08043778 14.76831426 9.67378458 0.00036649 0.00339530 -0.00215046
O 6.52881008 19.09296337 8.20894704 0.00082464 -0.00007513 0.00277556
O 11.03518664 14.19301064 2.51064977 -0.00012034 0.00729467 0.00294431
O 12.34950809 9.57976747 3.54634037 -0.00572997 0.00451526 0.00370949
O 6.05473261 18.80261352 13.89675976 0.00668289 0.00314322 -0.00145866
O 7.14078169 13.33310839 15.42052877 0.00173747 -0.00301229 -0.00078078
O 9.93991512 10.79633885 20.91930212 -0.00013924 -0.00118518 -0.00260669
O 8.67264745 15.59525072 20.12573009 -0.00849591 0.00102504 0.00023643
O 6.59667295 14.72463124 21.37060401 0.00242883 -0.00918160 -0.00515570
O 5.00369532 19.29884323 20.03673990 -0.00450742 0.00533924 -0.00097128
O 9.31645587 14.37702280 14.41383524 -0.00271322 -0.00384926 -0.00425344
O 10.69983045 9.24424103 15.17632807 0.00399920 -0.00028726 0.00000014
O 4.31147005 18.50322326 25.93513723 -0.00456869 0.00336446 0.00575458
O 5.73593936 13.30081201 27.16099683 -0.00648135 -0.00051923 0.00147979
O 8.20534353 10.69267041 33.12997514 -0.00136375 -0.00051858 0.00092491
O 7.03976346 15.51133454 31.97853306 0.00635611 0.00216301 -0.00087761
O 5.09938249 14.57796458 33.40401653 0.00514961 -0.00776636 -0.00166503
O 3.67810013 19.54441956 32.08417132 -0.00386504 0.00078886 0.00614339
O 7.69812385 14.53194145 25.78993307 0.00301097 0.00295639 -0.00300201
O 9.32945493 9.62762628 27.07392900 0.00285284 0.00571389 -0.00018992
O 7.67015250 27.90398069 2.26302039 0.00549031 -0.00061870 0.00012533
O 8.42978374 23.27591414 3.68683038 0.00382320 0.00017830 -0.00264080
O 11.41830481 20.45462443 9.42215855 0.00258128 -0.00244865 -0.00016832
O 10.55507428 25.46300655 8.58841090 0.00315200 -0.00058067 -0.00109720
O 8.25307384 24.46249645 9.32662031 -0.00574980 -0.00363361 -0.00219241
O 6.69926457 0.04758704 8.25990800 0.00357786 0.00199912 0.00061534
O 10.76220617 23.82072823 2.37351805 0.00288624 -0.00252807 -0.00064157
O 12.22760939 19.21435779 3.44696060 -0.00249353 -0.00003082 0.00471622
O 6.17962920 28.12068894 14.17787797 -0.00266607 -0.00184012 0.00393767
O 7.07907569 23.28812414 15.26771962 -0.00417842 -0.00079324 0.00199403
O 9.68131084 20.10300353 21.45058763 0.00790993 0.00373640 0.00216810
O 8.76771513 25.11561902 20.27377377 -0.00533401 -0.00376689 -0.00159237
O 6.45031134 24.17327803 21.36110125 0.00228573 -0.00065522 0.00123977
O 5.00933164 28.91018312 20.01784950 0.00223094 0.00510726 -0.00508046
O 9.15002796 24.25517125 13.83679223 0.00108179 0.00292323 -0.00597656
O 10.58116476 19.28600322 15.46304273 -0.00187041 -0.00236111 0.00479401
O 4.51237265 27.69939688 26.34671915 -0.00214762 0.00427091 0.00005464
O 5.68223065 23.00297026 27.24964671 -0.00283660 -0.00123262 0.00290380
O 8.50401235 20.31884906 33.25722679 0.00212912 0.00095019 0.00167229
O 7.48923362 24.97491707 32.09737506 -0.00396438 -0.00038794 -0.00694279
O 5.06308333 24.05066437 32.98812363 0.00184492 -0.00168769 -0.00111133
O 3.60887820 0.00079809 32.25399452 0.00794832 0.00045195 0.00572441
O 7.92751597 23.78204001 26.26177870 -0.00835273 -0.00105741 -0.00070126
O 9.33834348 19.49010975 27.44024830 0.00412225 0.00163518 0.00161189
O 14.41801951 8.31826370 2.40244994 0.00573603 0.00674884 0.00702733
O 15.62028201 3.70531448 3.70442792 0.00034185 0.00019971 0.00567944
O 18.43705237 1.07415071 9.16992281 -0.00492867 -0.00324695 -0.00190126
O 17.15053434 6.13519961 8.51745209 0.00352869 0.00079394 -0.00203393
O 15.26559022 5.08071462 9.71607817 0.00933148 -0.00002870 0.00210793
O 13.53988897 10.17382805 8.18760864 -0.00515606 0.00145971 0.00134417
O 17.68180574 4.34855963 2.45902701 0.00578264 0.00715518 0.00415807
O 19.41906325 28.74272898 3.76984978 0.00253090 -0.00265958 0.00325779
O 13.05921390 8.58371457 14.37070190 0.00380646 0.00621789 -0.00190261
O 14.27569813 3.95175084 15.41548803 0.00116630 -0.00182272 0.00446797
O 16.85760978 1.07713061 21.27473485 0.00398057 -0.00333006 0.00027161
O 15.57760736 5.98777638 20.54639730 -0.00490471 -0.00306788 0.00602253
O 13.58963033 4.67888245 21.47046680 0.00533636 -0.00016915 -0.00383876
O 11.80624057 9.45805743 19.95060893 -0.00022127 0.00330406 -0.00445933
O 16.35472294 4.64460314 14.13426481 0.00419391 -0.00255381 -0.00604917
O 17.73525852 28.80137917 15.57122392 -0.00254909 -0.00186783 -0.00080655
O 11.52029479 8.57389470 25.96780626 0.00325862 0.00108396 0.00529804
O 12.73177802 3.80046559 26.99401738 -0.00397860 -0.00234449 0.00413978
O 15.28834921 1.11983261 33.07305824 -0.00096812 -0.00090665 0.00299798
O 13.96197661 5.59900752 31.84345113 0.00519209 0.00499959 -0.00247405
O 11.92166516 4.90731683 33.12972797 0.00109227 0.00381412 0.00014094
O 10.19647525 9.74492653 31.90093822 0.00624148 -0.00889250 -0.00444269
O 14.52682456 5.04109803 25.60856984 0.00062884 -0.00345969 -0.00170397
O 16.23796753 0.08574480 27.47596308 0.00589218 -0.00574312 -0.00191632
O 14.34032892 18.15931267 2.16963330 0.00207182 -0.00154494 -0.00161134
O 15.88770536 13.38626559 3.23184752 -0.00280026 -0.00097834 0.00344643
O 18.42052355 10.92769596 9.38293892 -0.00110135 0.00642092 -0.00614286
O 17.00153211 15.53958673 8.44317676 -0.00558591 -0.00274387 0.00374716
O 14.94147223 14.74588831 9.79027372 -0.00033539 0.00314468 0.00069282
O 13.55093623 19.35454625 8.45747585 -0.00360790 0.00120157 -0.00093772
O 17.76091649 14.71673449 2.02292250 0.00571773 -0.00459862 0.00058109
O 18.96205032 9.22466201 3.29243315 0.00225213 -0.00237312 0.00116466
O 12.78633659 18.12926646 14.54506942 0.00082779 0.00172870 -0.00308248
O 13.93612563 13.71816994 15.56419871 0.00216364 0.00194873 0.00164023
O 16.53316070 10.61561606 21.49112246 -0.00461057 -0.00651469 -0.00028476
O 15.59023285 15.35583736 20.16705245 -0.00026822 -0.00047134 0.00377265
O 13.34246446 14.60734810 20.98194783 -0.00651353 -0.00125733 0.00533897
O 11.78962861 19.46669377 20.34989744 -0.00168522 0.00336001 0.00307942
O 16.04100571 14.46842936 14.16052615 -0.00116128 -0.00097977 0.01117009
O 17.83084174 9.65915967 15.48861621 0.00156669 -0.00164149 0.00139227
O 11.16164367 17.90283223 26.02478302 -0.00653533 0.00836980 -0.00017275
O 12.50015967 13.53491915 27.19315300 0.00496268 -0.00016309 0.00006185
O 14.96055281 10.74696590 33.02381806 -0.00110674 -0.00101239 0.00557775
O 14.05968615 15.48380208 32.05675229 -0.00106705 0.00087921 -0.00639234
O 11.93810617 14.48137237 32.93691343 -0.00391919 -0.00457733 0.00273771
O 10.19147123 19.43228598 31.56935937 -0.00323789 0.00188370 -0.00250106
O 14.48056910 14.55004992 25.63695101 -0.00343175 0.00276560 0.00299508
O 16.03913926 9.51674569 27.33039705 0.00223251 0.00368249 -0.00114161
O 14.57080274 27.88326816 2.47696099 0.00051026 -0.00741405 0.00103037
O 15.64668770 22.71046156 3.60213159 -0.00085685 0.00425879 -0.00057559
O 18.33492893 20.17322596 9.90402830 -0.00389969 -0.00093511 -0.00707737
O 17.00061558 25.17871366 8.54725256 -0.00052819 -0.00379734 0.00430691
O 15.02517732 23.88259609 9.66680588 0.00107766 0.00499759 0.00482805
O 13.61669515 28.85542709 8.38763092 0.00358825 -0.00079821 0.00183198
O 17.82146068 23.94317466 2.57204717 -0.00254513 -0.00014464 0.00143111
O 19.31807178 19.25989342 3.68092308 0.00186015 -0.00036389 0.00010091
O 12.88506937 27.46020120 14.33020049 0.00145449 -0.00452140 -0.00345299
O 13.87135594 22.93769528 15.60193413 0.00364754 0.01024930 -0.00113998
O 16.92354128 20.40009320 21.13207199 -0.00365393 0.00076864 0.00541920
O 15.26866597 25.30472244 20.38843770 0.00677806 0.00153526 0.00031627
O 13.34553250 23.80276085 21.77547627 0.00298212 -0.00450310 -0.00374571
O 11.87650235 0.11624714 19.80192512 -0.00116317 0.00115495 -0.00671796
O 15.98982723 23.95173408 14.43006654 -0.00245036 -0.00420678 0.00288404
O 17.66079687 19.32017765 15.54678116 0.00028923 -0.00098747 0.00362812
O 11.61355890 27.98052615 26.32746407 -0.00031779 -0.00087339 -0.00275429
O 12.72844458 23.28210241 27.18246113 -0.00142865 0.00371271 0.00231753
O 14.92943833 20.23332056 33.32776010 0.00527438 -0.00304016 0.00181071
O 14.42984321 24.70852791 31.96734551 -0.00333994 0.00030128 0.00577301
O 11.97275892 24.32701646 33.21473893 0.00506836 -0.00073987 0.00615329
O 10.52674016 0.24684194 31.90364530 0.00327745 -0.00391610 0.00716784
O 14.64389034 24.25960279 25.58181273 -0.00336123 0.00269509 -0.00166188
O 16.15908754 19.02390771 27.22258904 0.00069139 -0.00424147 0.00367020
H -0.18619964 8.85832055 2.88183298 0.01950347 0.00419772 0.00985700
H 2.58696476 3.99066459 3.10957846 -0.02981951 0.01410830 -0.00892977
H 5.56968952 0.94030177 9.10391598 -0.01394621 -0.01648657 0.02328317
H 2.65245065 5.48339742 8.31020394 -0.02547965 0.01215300 -0.02361635
H 5.60191419 8.25464384 0.77478909 -0.01161240 0.01563003 -0.01268800
H 3.83350682 3.54668142 5.27335489 0.00114796 0.00086342 -0.01127247
H -0.13406379 1.52811805 10.77506183 0.02221764 -0.01457106 -0.00732268
H 1.20004777 6.41134791 6.29640171 -0.02565820 0.00939433 -0.00616154
H 4.21143570 7.08040853 10.63300168 -0.00646633 -0.00751034 -0.00118875
H 3.93803491 1.83736098 7.08768366 -0.00935656 0.01912206 0.00034987
H 0.98244894 2.74576808 1.45326678 0.01195728 0.02007656 0.01928532
H 1.23876230 8.09230318 4.62566353 -0.00931712 -0.00269269 0.00956613
H 2.47787673 5.16399691 0.00040609 -0.02214951 0.00339096 -0.00338386
H -0.22890955 0.93109212 6.37816353 -0.02341285 -0.01556297 0.01474483
H 2.88376680 4.59900057 11.75957128 -0.00223249 0.00383552 -0.01181085
H 5.32956228 9.18015746 5.69492720 0.00471249 -0.01006166 0.03851303
H 2.70967371 6.88004488 1.79409501 -0.03345917 0.00566922 -0.00265827
H -0.10206403 2.23833261 4.37297678 -0.01829904 0.01720177 -0.04467499
H 2.74846232 2.83528193 9.95570976 -0.00236135 -0.00478897 -0.01211803
H 5.26823968 7.44997760 7.30191993 0.02047781 0.02188203 0.00293397
H 5.15228905 5.36826356 9.43344480 0.00736288 0.00863869 0.01067906
H 2.93143230 0.43687413 8.40315803 -0.02714514 -0.01448781 -0.00541651
H 0.13889032 4.80955782 2.25789933 0.00674560 0.00061983 -0.00801098
H 2.36686593 9.47354093 3.25770488 0.00263580 -0.00672351 0.00407770
H 5.52107783 3.42803628 7.90865264 -0.02308213 -0.01051348 -0.00812349
H 1.22921288 8.54122252 10.33037707 0.00638649 -0.00684078 -0.02397511
H 20.01575745 5.19656998 4.32168804 -0.01514937 -0.00449057 -0.02576136
H 4.89720771 1.09014876 1.38845848 0.00074469 0.00864164 -0.01724590
H -0.70404272 4.53228836 7.36559935 -0.00346099 0.00279973 -0.00964690
H 2.22558093 7.77773413 9.13177452 -0.00312260 -0.00511074 0.01871560
H 6.35128831 5.91580579 3.68998373 -0.01005760 -0.00843331 0.01543015
H 3.13347978 0.54597386 1.63617879 -0.01133443 0.00866436 -0.00498605
H -0.70495697 3.05996418 8.27847705 0.04633389 -0.00132966 -0.00383399
H 0.53154308 7.34181037 9.33951475 0.00819003 -0.00434555 -0.01186205
H 5.09027738 7.16777394 3.12087742 0.00730788 0.00614640 -0.02735856
H 3.70151743 2.19965829 2.32156451 0.00917421 0.03005655 -0.00173659
H -1.51546705 8.98113628 14.88532119 0.00559600 0.00844322 0.00290447
H 1.37960026 4.11053945 15.01755170 0.00652985 -0.00197969 0.00507654
H 3.99269367 0.69480026 20.91575522 -0.01023685 0.02183779 0.01850395
H 1.06119091 5.36538292 20.71148859 0.00887047 0.00490127 -0.01216420
H 4.10265940 8.19654907 12.69554939 0.01739622 0.02444373 -0.00439278
H 2.45552790 3.43765799 16.80831178 0.01736727 0.01303858 0.00593081
H -1.90971620 1.46859007 23.01460084 0.01387674 0.00255088 0.01425907
H -0.24025246 6.55570089 18.70470910 0.00615429 -0.00863282 0.02964594
H 2.52307740 6.66842668 22.51441502 -0.03611920 -0.00941383 -0.00502752
H 2.47219863 1.93911911 18.80341911 0.00254395 -0.00085855 -0.01495586
H -0.14552368 2.90231980 12.67304808 -0.01585318 -0.01268037 -0.03183515
H -0.12575757 8.28238577 17.08924495 0.00121564 0.01243314 0.00681584
H 1.36305283 5.56059224 11.83417744 0.02069727 0.01851721 0.01519571
H -1.57014331 0.91525252 17.93067815 0.01249535 0.04783978 0.00204673
H 1.04979706 4.28937365 23.81921835 -0.00628929 0.00561222 0.00674154
H 4.10150783 8.59783368 17.57137844 0.01542884 0.01609859 -0.00043557
H 1.21532295 7.13373816 13.76828749 -0.00731406 0.00956625 0.01017812
H -1.51763202 2.12172590 15.81339355 -0.00446783 -0.01140466 -0.01754520
H 1.11580990 2.62556187 22.10985108 -0.00337460 0.00522434 0.01937412
H 4.07324295 7.05329190 19.23669668 0.02616833 0.00933996 0.00667539
H 3.48134063 4.84474447 21.28458735 -0.01949770 0.00546052 -0.00001015
H 1.42164821 0.30544963 20.07802003 0.05482825 0.00702706 0.01421941
H -1.02350105 4.58884738 13.82748570 -0.01406856 -0.00714065 -0.01009882
H 0.98050410 9.66769016 15.75402266 -0.00382022 0.02194820 0.02251133
H 4.19008049 3.24995160 20.09136873 -0.00760690 -0.02087554 0.01003066
H 0.87911350 8.37988208 21.69766905 0.01361400 -0.01749517 0.01942151
H -1.66768161 6.06845577 15.49975173 0.00152692 -0.03509522 0.00180462
H 1.93774207 1.85636825 14.03888552 0.00952765 -0.02589331 -0.00114263
H -1.50043715 2.69522107 20.65790387 -0.00526194 -0.01244634 -0.01899560
H -0.70440114 7.47514586 21.33130289 0.01343330 0.01437660 -0.00077469
H 4.53682036 6.76573996 15.53039812 0.01541794 -0.01344870 -0.01831340
H 3.46164118 1.18305609 13.42290624 -0.00276725 -0.01388875 0.00023071
H -1.13008947 3.91174438 19.49936002 0.01956113 -0.00572223 -0.00392379
H -0.70978764 8.71444312 22.48311247 0.00278816 -0.00761247 0.00609057
H 3.21622624 5.70230829 16.19273939 -0.00873946 -0.00586537 -0.00533743
H 1.90338831 0.27439594 13.23615897 -0.00967101 0.01407490 0.00076336
H -3.30627432 9.16658964 26.57017754 0.01960555 0.00475396 -0.00488420
H -0.23836388 4.14854829 26.74009806 0.00377700 0.00737967 0.00673307
H 2.37368204 0.93435841 32.62027028 0.01226992 0.01795917 -0.02911359
H -0.83001803 5.86023640 32.40849980 -0.02405769 0.00722904 -0.02527030
H 2.64143900 8.12780964 24.43520215 -0.01604557 -0.01652926 -0.00800706
H 0.96033306 3.24455512 28.79908591 0.00709905 -0.01000871 0.00456941
H -3.48965087 1.39877497 34.87606871 0.02468149 -0.01542116 0.00182564
H -1.85238418 6.32178206 30.27933495 -0.01909332 0.02101662 -0.01806388
H 0.93679924 6.67919617 34.23573272 0.02436671 0.00247370 -0.01400711
H 0.84577286 1.68117426 30.72413019 0.01482596 -0.02033967 0.01334838
H -1.86211056 3.07625636 24.77020523 0.00814570 0.02053729 0.00354265
H -1.76895526 7.72089017 28.30404515 -0.00593674 -0.00386188 0.01105819
H -0.47257315 5.55512130 23.65500184 -0.00840215 -0.01199605 -0.01232245
H -3.00705242 0.36063504 29.54654534 0.00674130 -0.00247012 -0.01329404
H -0.60299264 4.23785837 35.48988131 0.01751258 -0.01504280 -0.01296841
H 2.05352987 9.21330228 29.47595632 -0.01579552 0.02251037 0.02279222
H -0.23767738 7.12815400 25.60456428 0.00293793 -0.00349822 -0.00607785
H -3.00109134 2.04880054 27.62849988 -0.01106558 -0.02127960 0.00346538
H -0.59810487 2.57523804 33.60098323 0.02562946 -0.02790044 -0.01845310
H 1.97647266 7.72793214 31.46098878 -0.00517569 -0.01208514 0.00264990
H 2.03440805 4.94693099 33.24369743 0.01125240 0.01661620 0.02422029
H -0.34617245 0.23091207 31.91478688 -0.00801294 -0.00407262 0.01776491
H -2.87635002 4.88239574 25.84352827 0.01564248 0.02086594 -0.00626425
H -0.80586885 9.53574295 27.34259899 -0.04932179 0.02515872 -0.00500862
H 2.94055646 3.12832178 31.78199414 0.02367964 -0.00706858 -0.01629803
H -0.98389966 8.70382143 33.54196825 -0.00307144 -0.01977879 0.00401161
H 15.35942850 7.19566311 26.73809074 0.01710222 0.00041079 -0.00108137
H 0.65099115 2.02470300 25.86047089 0.00852746 0.01098935 -0.00666198
H 16.27678423 3.14763989 32.22694843 -0.00551641 -0.00635948 -0.02004190
H -2.14521967 7.41451534 32.97147543 0.00453842 0.01215612 0.00344743
H 2.81827208 6.87274169 26.96446461 0.00176114 0.01572277 -0.00228267
H 2.21456535 1.55651988 25.58297683 -0.00443814 -0.00588365 -0.01740154
H -2.64641222 3.30914537 31.57411211 -0.00264501 0.02257291 -0.00457750
H -2.65470060 8.65502699 34.16151022 -0.00258903 0.01700090 -0.01703911
H 1.64282006 6.19447593 28.15699241 -0.00798132 -0.00112646 -0.02410418
H 0.88607675 0.53423766 24.93075870 0.02276017 0.01154590 -0.01272849
H -0.11374492 18.67083055 2.81798304 0.00181626 -0.00963108 0.02169413
H 2.64222495 13.76449505 3.06199041 0.00856754 -0.00919353 -0.00253836
H 5.52536962 10.57685291 9.01171528 -0.00356483 0.02699528 -0.00448421
H 2.42775853 14.95820262 8.59949790 -0.00135898 -0.01030992 0.00966825
H 5.58120545 17.81801579 0.77482674 0.01927904 0.01232382 -0.02396847
H 3.89295631 12.99560769 5.02087953 -0.02764595 -0.00756967 0.01408933
H -0.37373113 10.95425489 11.41510333 -0.01614304 0.00176784 -0.00085208
H 1.19521420 16.00573000 6.67523165 -0.00811148 0.00755363 -0.02697389
H 3.91177312 16.29700833 10.73037398 -0.01500100 -0.02042253 0.01395162
H 4.02229163 11.39805917 6.97480371 0.00435263 -0.00197053 0.02143112
H 1.21452607 12.39292100 1.04880324 -0.01291766 0.01773423 -0.00016003
H 1.51426102 17.43796697 4.61598333 -0.00095653 0.00906115 0.01393533
H 2.76382992 15.18508381 0.09757746 0.02932481 -0.00142158 0.01273624
H -0.02497731 10.25541179 6.24854794 0.00216593 -0.02832070 0.00368723
H 2.40104829 13.85902540 11.88746488 0.00715829 0.01464818 0.02441058
H 5.42233985 18.57491728 5.92513000 -0.02541262 -0.00220135 0.01821682
H 2.67596826 16.85280101 1.78351044 -0.02141019 -0.00521934 -0.01973367
H -0.04271179 11.45566720 4.12116898 -0.00625852 0.00088866 0.02076985
H 2.58555112 12.36348798 9.95171042 0.04186654 0.02759559 0.02437062
H 5.46679973 16.75479735 7.61781582 0.02161686 0.01118860 -0.00713247
H 4.84343435 14.76924294 9.62313959 -0.00461311 -0.00681791 -0.01899208
H 2.95552900 9.50479721 8.04303032 0.00194411 -0.02565523 -0.01067758
H 0.18157404 14.20888628 2.31083946 -0.02794047 0.01417870 -0.01891981
H 2.39467737 19.34608735 3.90710049 0.02903353 0.00123876 -0.01378177
H 6.68815431 12.56879722 8.41941669 0.01656256 -0.00559041 0.02491082
H 2.59301343 18.81516240 9.87623484 0.01422552 -0.01885387 0.00895319
H -0.20135278 15.67246314 3.52938992 -0.00163835 -0.00188166 0.01277452
H 4.49718017 12.09220627 2.11476042 -0.00412189 -0.00200227 -0.00914456
H 19.27508843 13.34864954 8.18261481 -0.00426066 0.01176488 -0.01405868
H 1.30499968 17.60840330 9.87226888 0.01390431 0.02715917 0.01510197
H 6.20343016 15.67567006 3.97888583 0.00358911 0.01266049 -0.01154740
H 4.37806204 10.73564692 1.03169074 -0.01593427 0.00240361 -0.00043868
H -0.00292877 12.25473320 8.55587114 0.00756467 0.01279218 0.00011236
H 0.98127363 19.10820040 10.74560869 -0.01223225 -0.01444018 -0.00895493
H 5.09348090 16.83338686 3.43752065 0.03302302 -0.00876119 0.00172425
H 2.91975819 11.29549081 1.83614480 0.01965465 0.00115832 -0.00074853
H -1.69962586 18.50836498 14.79798451 -0.00332679 -0.00147424 -0.00806520
H 1.21604497 13.80423508 15.33205790 0.00225449 0.02507962 0.00327008
H 3.74906563 10.22878170 21.07979255 -0.03264919 0.03069866 0.02144583
H 0.96871537 15.04576275 20.51407329 -0.02726717 -0.00578136 0.01652082
H 3.81859386 17.94509620 12.86589482 -0.00396105 -0.00613310 0.01125329
H 2.20750272 13.13115929 17.46213926 -0.02980063 0.00792214 0.00862406
H -1.97923657 11.03447045 22.86934279 -0.00351094 -0.00417688 0.01488514
H -0.17045692 15.99098767 18.53797989 0.01332815 0.02394655 0.00315625
H 2.43163687 16.19076163 22.46326277 0.00215972 -0.00800968 -0.00682770
H 2.36520027 11.43297539 18.91064683 0.01185093 0.01099470 -0.00156101
H -0.52408891 12.48014576 13.40552443 0.01192812 -0.00970863 0.00042133
H -0.15503747 17.78718688 16.96381479 -0.01086181 0.00467028 -0.00512419
H 0.97065733 14.86093041 12.13203101 -0.01680410 0.02494910 -0.01160191
H -1.83466218 10.42019940 18.18163256 0.01970377 -0.01055645 -0.02144805
H 0.99518953 13.81305490 24.03459505 -0.02111271 0.01023930 -0.00911047
H 4.02100911 18.50890080 17.73393336 -0.02124027 0.01189653 -0.00641352
H 0.99493927 16.53284864 13.87105590 -0.03174473 -0.01247705 0.02869768
H -1.83066677 11.94204654 16.23761495 0.00540133 -0.00111859 -0.00098399
H 1.04417831 12.39264616 22.00375494 -0.00992090 0.00730346 -0.00263037
H 3.93314436 16.81025157 19.39749683 0.00778185 0.01369202 0.00758503
H 3.45995957 14.23858749 21.69638986 0.01667309 -0.02993406 -0.00323879
H 1.34556317 9.68534045 20.10007830 0.01220071 0.00030159 0.01503747
H -1.46040054 14.28573537 14.38192797 0.01803024 0.01093837 -0.02624324
H 0.94246747 19.42601739 15.65669194 0.00917298 -0.00582859 -0.01531629
H 4.14283278 12.93929045 19.90406289 -0.02892489 -0.00013562 0.00302113
H -1.11462417 18.52085892 22.40944404 0.00689461 -0.00542461 -0.01294055
H 17.63850494 16.74161651 15.34092686 -0.01931868 -0.02535892 -0.01186370
H 2.16173679 11.77185580 14.42822565 0.01013830 -0.01299103 -0.00231886
H -0.77065563 13.52270942 19.32771563 -0.00929659 0.00090117 -0.01423057
H 0.68789974 18.85260873 21.77978278 -0.01593290 0.00681938 0.00968320
H 4.22700415 16.56199492 15.30566867 0.01054746 0.00150363 0.00739095
H 3.34327981 10.83079118 13.44682367 -0.01609508 0.00633717 0.00106902
H -2.59463346 13.18884147 19.62904810 0.01411977 -0.02494905 -0.01909029
H -0.24983652 17.30284706 21.59963320 -0.02059128 -0.00466888 -0.01622827
H 2.82254787 15.89850580 16.06099861 0.02015863 0.00010615 -0.03248370
H 1.73746397 10.32156104 13.53629961 0.04585259 0.02704503 -0.04647815
H -3.37197448 18.41230951 26.42073430 -0.02971597 -0.01193287 -0.01999319
H -0.38204804 13.41377793 26.89279921 0.00559955 -0.02781332 0.01708902
H 2.10966041 10.54756729 32.79676714 0.00288182 0.00084764 -0.00941918
H -0.68065109 15.14338631 32.36598615 -0.01738236 -0.02350684 -0.00489420
H 2.16654348 17.50079221 24.49131990 0.00352348 0.01655501 0.01858227
H 0.71841198 12.68831468 28.72263068 0.01794567 0.00430269 0.02711478
H -3.60923939 10.96161001 34.43735981 0.00970279 0.00434611 -0.01157343
H -1.68427989 15.74573422 30.28464792 0.01248827 0.01217283 -0.01361557
H 1.12716737 16.22120281 34.33515912 0.02439505 0.02154055 -0.00398469
H 0.64182617 11.29475582 30.77705026 -0.01006555 0.01258731 -0.00885790
H -1.89959688 12.67058796 24.87647713 0.02599902 0.02739604 0.00832470
H -1.69164210 17.30868189 28.55574106 -0.01085633 0.00424246 0.01360109
H -0.44259069 15.06801042 23.30513116 0.00061569 0.01662193 0.03089001
H -3.26739849 10.01635933 29.75044298 0.01070133 -0.00850282 -0.03473816
H 4.11484020 14.21822868 0.00898900 -0.00424929 0.00514617 0.00777513
H 2.37911592 18.38308615 29.63098516 0.01655817 -0.01323579 -0.00867511
H -0.45503696 16.56328919 25.43707486 0.02880899 0.01575717 0.00703907
H -3.31764722 11.71377259 27.82623937 -0.01603094 -0.01866792 -0.00972081
H -0.54998891 12.61528275 33.61731994 0.01170603 0.01694405 0.01373620