2160
Time=68000.00000006 pbc="T T T" Lattice="20.58391714 0.00000000 0.00000000 0.00000000 28.99649707 0.00000000 -4.73412459 0.00000000 35.63620610" energy=-13796.69061732 virial="33.19948289 6.04357905 39.02824023 6.04357905 -36.00038364 2.68790463 39.02824023 2.68790463 -37.44218375" stress="0.00397508 0.00033078 0.00180497 0.00033078 0.00081744 0.00022853 0.00180497 0.00022853 0.00073833" Properties=species:S:1:pos:R:3:vel:R:3
O 0.59569835 8.23435576 2.33445687 0.00039758 -0.00230448 -0.01044980
O 1.82662097 3.69448270 3.02832495 0.00459117 0.00608207 0.00358498
O 4.40416433 1.07150410 9.19845390 -0.00645914 -0.00114365 0.00455550
O 3.55235856 5.78461135 8.23365119 0.00783063 0.00280056 0.00160878
O 1.31615351 5.18948240 9.40825635 -0.00376014 -0.00190807 0.00034833
O -0.07069894 10.01200739 8.25142050 -0.00173170 -0.00230713 -0.00632903
O 3.94251869 4.76876161 2.18871998 0.00120362 -0.00262942 -0.00222179
O 5.44298995 0.33832476 3.59092689 0.00175335 -0.00050412 0.00103569
O -1.05591673 8.42419235 14.31223741 -0.00082794 0.00152753 0.00128270
O 0.21649716 3.84167937 15.53363952 -0.00008929 -0.00320955 0.00630623
O 2.85870170 1.23333083 21.35135198 0.00228546 0.00105798 0.00189468
O 1.72295600 5.91877078 20.33145164 -0.00353419 0.00129761 -0.00265217
O -0.34507968 4.76489180 21.38533492 -0.00394757 0.00492749 -0.00376437
O -1.70392267 10.27490375 20.08769892 0.00268547 -0.00001061 0.00124268
O 2.36520389 4.58079837 14.27631152 -0.00108683 -0.00419357 -0.00373310
O 3.84017936 28.72678625 15.36292060 -0.00021341 0.00007084 0.00086545
O -2.37509419 8.39195029 26.23240425 -0.00183322 0.00226637 0.00990343
O -1.32366840 3.62650142 27.06170512 0.00596951 -0.00074503 -0.00552709
O 1.34998851 1.26268260 32.77022293 0.00237582 0.00208720 0.00424635
O 0.09137226 5.92931967 32.18606438 -0.00336653 0.00128909 -0.00054002
O -1.95578454 5.07108597 33.19305281 0.00200435 0.00094023 -0.00325920
O -3.44196849 9.76009063 32.05681933 0.00187206 -0.00582942 0.00414530
O 0.91682050 4.81724945 26.27056798 -0.00564864 -0.00144382 0.00128055
O 2.35076642 28.75640141 27.16499130 -0.00777505 -0.00010359 0.00339391
O 0.81463049 18.20726199 2.48751097 0.00291232 -0.01228899 -0.00308168
O 1.85918926 13.79329124 3.66508959 -0.00268814 -0.00519150 0.00333401
O 4.45867922 10.73720505 9.21991211 0.00198937 0.00838708 0.00182542
O 3.51769400 15.65279284 8.30865432 0.00109563 -0.00812160 -0.00743043
O 1.43309843 14.75256375 9.74808467 0.00009758 0.00020372 -0.00265102
O -0.21353943 19.65218461 8.09219192 0.00027932 -0.00298955 0.00267624
O 3.92310220 14.30473290 2.29777051 0.00274979 -0.00148055 0.00437088
O 5.66979927 9.17762469 3.29095429 -0.00139362 0.00207531 -0.00195671
O -0.86701808 18.19852970 14.66136825 0.00398816 0.00019417 0.00174290
O 0.53529286 13.66711412 15.26059640 0.00935057 -0.00361746 0.00314419
O 2.79307711 10.81999365 21.24204418 0.00090840 -0.00143281 0.00239642
O 1.95512070 15.72564382 20.40913827 -0.00483818 -0.00413229 0.00193987
O -0.26215421 14.89672468 21.65317617 0.00150236 0.00003499 0.00400325
O -1.72970836 19.42427904 20.24969797 0.00622380 0.00134930 0.01146627
O 2.48472691 14.66337142 13.88029639 -0.00224580 -0.00389820 -0.00519955
O 3.84094914 9.75904846 15.88464629 -0.00138294 -0.00492299 -0.00260668
O -2.53629411 17.95321746 26.71939308 0.00301732 0.00072034 0.00685955
O -1.10664940 13.57476079 27.61983641 0.00280995 0.00591889 0.00244623
O 1.41679549 10.51233267 33.26872353 -0.00358052 0.00030508 -0.00186257
O -0.17054179 15.95982128 32.47312686 0.00388402 0.00239103 -0.00143093
O -1.81506173 14.27834659 33.44913770 0.00102506 0.00529966 0.00042703
O -3.51362271 19.33580475 31.95864511 0.00142950 -0.00217765 -0.00462301
O 0.53032292 14.26875604 25.84341448 0.00301707 0.00274796 0.00291508
O 2.33228259 9.67137579 27.55680424 0.00223500 -0.00051691 0.00018756
O 0.84320987 28.03659846 2.47599187 -0.00055125 0.00158708 -0.00026032
O 2.00743761 22.87498222 3.23447928 0.00312988 0.00562547 -0.00132438
O 4.47890457 20.62557699 9.33199736 0.00966468 0.00174520 -0.00121292
O 3.43830238 25.38798351 8.33369088 0.00521509 0.00106594 -0.00604179
O 1.40838913 24.31517447 9.64462010 -0.00326497 -0.00648078 -0.00276110
O -0.18576997 0.10310588 8.05531447 0.00085306 -0.00072222 0.00084621
O 3.99261093 24.22467694 2.32728419 -0.00671071 -0.00218020 -0.00126926
O 5.41934387 19.33398794 3.31234054 -0.00101952 -0.00360803 -0.00140253
O -0.74177670 27.90040866 14.29386307 0.00170284 -0.00593776 -0.00644342
O 0.41558527 23.33604431 15.56312484 0.00412668 -0.00047456 0.00439146
O 3.17764154 20.38892956 21.37204760 -0.00068863 0.00464352 0.00409302
O 1.75470219 25.27023860 20.22790868 -0.00063647 -0.00075406 -0.00171177
O -0.11802892 24.06036427 21.47705640 -0.00334295 -0.00060530 0.00197285
O -1.71708826 0.25841592 20.67318568 0.00037111 0.00149922 -0.00704211
O 2.35918029 24.14372470 14.20193537 -0.01027298 -0.00462161 -0.00048599
O 4.04408359 19.10133965 15.32467721 -0.01111003 -0.00380298 -0.00072273
O -2.33253876 28.31846983 25.97384690 0.00750678 0.00656483 -0.00271385
O -1.30935198 22.84241348 27.47983251 -0.00026093 0.00465165 -0.00352381
O 1.32069620 20.28424814 33.53225376 -0.00038745 0.00338382 -0.00719595
O 0.07666065 25.22013067 31.95710399 -0.00593617 0.00442561 -0.00144338
O -1.95119566 24.02853223 33.31503940 0.00170119 -0.00302316 -0.00588190
O -3.24746843 0.09191331 32.16733085 0.00206941 -0.00085360 -0.00342467
O 0.81618007 24.12665170 26.22983796 0.00134332 -0.00197785 0.00507046
O 2.38449619 18.98141863 27.30873121 -0.00700514 0.00015668 0.00038218
O 7.89003033 8.49732254 2.11214707 0.00064085 -0.00934558 -0.00098948
O 8.86702176 3.77569156 3.16753940 -0.00243652 0.00361881 0.00886638
O 11.11405473 0.95684003 9.35717792 -0.00108131 -0.00875580 -0.00618938
O 10.31913602 5.89569649 8.29585935 0.00280224 0.00263264 0.00305955
O 8.26825500 4.96213277 9.69699210 -0.00354077 0.00599794 0.00132877
O 6.69791252 9.52051644 8.30022126 0.00386617 0.00371605 0.00313643
O 11.01743819 4.74961307 2.16358265 -0.00511159 -0.00406904 0.00251116
O 12.43183097 28.94140043 3.58759981 0.00069482 -0.01283508 0.00268335
O 5.66814574 8.29037327 14.47152250 -0.00288387 0.00000981 0.00030792
O 7.05194164 4.16961785 15.60871468 0.00258651 0.00257417 -0.00093067
O 9.85304902 1.16254952 21.15572644 0.00140965 -0.00544640 0.00105723
O 8.51846064 6.24442840 20.34579968 -0.00474172 -0.00632441 -0.00011807
O 6.32541847 5.43060364 21.40263474 0.00164227 0.00163675 0.00048748
O 4.96310754 9.84949843 20.21906031 -0.00069927 0.00278460 -0.00352730
O 9.19995614 4.59388380 14.18014432 -0.00133616 0.00177117 0.01132803
O 10.72585613 0.12221979 15.87354795 0.00522037 -0.00429505 -0.00256803
O 4.36428673 8.89610869 26.33476020 -0.00331966 -0.00079184 0.00198212
O 5.53190087 3.57225460 27.26736501 0.00189188 -0.01027620 -0.00281497
O 8.19645382 1.10302372 33.00874972 -0.00722792 -0.00442930 0.00066163
O 7.29996493 5.77082138 32.03026003 0.00040161 0.00290805 -0.00421395
O 5.04374317 4.86274619 33.15739262 -0.00496145 0.00251068 0.00072962
O 3.60481236 9.67612529 32.19521598 -0.00080521 0.00095327 0.00662779
O 7.74039425 4.49167619 26.17018646 -0.00443599 0.00289089 0.00457308
O 9.36890630 28.84814385 27.23642152 0.00409694 -0.00210050 0.00794348
O 7.54161929 18.12883661 2.60567480 0.00470581 -0.00450495 0.00087057
O 8.62502258 13.61083628 3.97292871 0.00326379 0.00300806 0.00092666
O 11.36352351 10.47562412 9.60913112 0.00971782 -0.00220295 -0.00623106
O 10.38287707 15.40955191 8.01205731 0.00090324 -0.00021309 0.00283097
O 8.09733710 14.78359639 8.99674100 0.00847464 0.00148410 0.00188337
O 6.52060093 19.41125166 8.11245958 0.00210842 0.00033552 -0.00007553
O 10.84265524 14.39537409 2.47373887 -0.00051620 -0.00216795 0.00394238
O 12.31651994 9.80350804 3.58953311 -0.00496221 -0.00022424 -0.00263968
O 5.97882803 18.36873340 13.82862592 0.00003418 -0.00024395 -0.00183292
O 7.09824898 13.30370585 15.20947413 0.00041960 -0.00207309 0.00130083
O 9.58543921 10.47497884 21.54852580 0.00130314 0.00643478 0.00010464
O 8.53191701 15.61718109 20.27327012 -0.00333746 -0.00266800 0.00016246
O 6.53924691 14.41887326 21.48411446 0.00135030 0.00152080 0.00079614
O 5.15298022 19.56209945 20.03473513 -0.00554419 0.00143463 0.00784157
O 9.23250521 14.66824143 14.04230848 -0.00315729 -0.00174855 -0.00451210
O 10.99585753 9.88905504 15.68944445 0.00007116 -0.00239582 -0.00160519
O 4.60922397 18.17048263 26.32828154 -0.01393375 -0.00003310 -0.00023748
O 5.28454327 13.46611953 27.46507463 -0.00093556 0.00514018 0.00476334
O 8.33017162 10.54189668 33.43277386 -0.00325750 0.00349945 0.00351129
O 7.03495122 15.36782027 32.00791618 0.00419686 -0.00450152 0.00099772
O 4.89618855 14.54772160 33.38144443 0.00245826 0.00001039 0.00635232
O 3.30082734 19.43646664 32.18141317 -0.00440581 -0.00156451 -0.00768829
O 7.82526998 14.01971717 26.28617352 0.00456488 0.00098041 0.00068141
O 9.22615413 9.73149795 27.36879441 0.00332806 0.00168639 0.00329873
O 7.45475302 27.77594057 2.53379766 -0.00210764 -0.00058581 -0.00481498
O 8.72631647 23.21066674 3.51085892 -0.00203638 -0.00530038 -0.00426681
O 11.36779891 20.57600549 9.35837878 -0.00080880 0.00289673 -0.00593385
O 9.94162502 25.54683083 8.62698880 0.00421305 -0.00136215 0.00374941
O 7.99283562 24.09708425 9.19271297 0.00079321 -0.00105301 0.00089999
O 6.48919248 0.16627387 7.87042707 0.00364214 -0.00550565 0.00421056
O 10.88805830 24.18049508 2.54462574 0.00031514 0.00514129 0.00354525
O 12.39305925 19.05016944 3.35261001 -0.00100061 0.00051761 -0.00672959
O 6.12781390 27.53080120 14.51175747 0.00415398 0.00044806 0.00263104
O 7.20717463 23.07107978 15.32611958 0.00131162 -0.00380276 0.00442204
O 10.03970879 20.56263038 21.24444677 -0.00078315 -0.00340307 -0.00072710
O 8.77504881 25.11990780 20.25394675 0.00345684 -0.00544479 -0.00255104
O 6.46346929 24.51791448 21.39350316 0.00362794 0.00962814 -0.00203415
O 4.91675554 0.24876924 20.04516036 0.00490199 -0.00547233 -0.00251232
O 9.09981269 24.23865929 13.90271721 -0.00706836 0.00364370 0.00021636
O 10.89261995 19.23867524 15.62550750 0.00020757 0.00487147 0.00114864
O 4.61856250 27.98599190 26.17452144 0.00236900 -0.00065148 0.00251311
O 5.62965778 23.00491277 27.33467025 0.00254203 0.00275856 0.00002944
O 8.07125698 20.47244108 33.53498691 -0.00287527 0.00852281 0.00239349
O 7.27589442 25.40196877 32.16698673 0.00387621 -0.00394261 -0.00261211
O 5.09456686 24.15226655 33.38200761 -0.00603377 0.00602415 0.00384359
O 3.34961581 28.56180204 31.82459713 -0.00181551 -0.00053319 0.00050262
O 7.71916032 23.92844274 26.10133007 -0.00630530 0.00085680 0.00116734
O 9.32011131 18.94254242 27.44406634 0.00611657 0.00399927 -0.00345130
O 14.37266110 8.51364739 2.32351214 0.00044448 0.00270663 -0.00289674
O 15.51438446 3.84803994 3.41787688 -0.00494847 0.00000934 0.00079447
O 18.40728104 1.21271272 9.46709310 -0.00144495 0.00255966 0.00422342
O 17.22324301 5.81275298 8.32315629 -0.00186377 0.00043968 -0.00151716
O 15.08534304 4.77724675 9.67440019 0.00161063 -0.00461296 0.00436644
O 13.62654022 9.59439088 8.43431440 0.00073222 -0.00291855 -0.00224123
O 17.75984867 4.83794398 2.35183175 -0.00060791 0.00095478 0.00217575
O 19.16133105 28.93960797 3.63794365 0.00337527 0.00014705 -0.00269110
O 12.87508425 8.40644688 14.50303662 0.00068495 -0.00968944 0.00597478
O 13.97036034 3.69038063 15.02931144 0.00561316 -0.00478535 -0.00447290
O 16.40506033 0.77602737 21.51778610 0.00684023 0.00239892 -0.00364767
O 15.68711369 6.14849094 20.08338580 -0.00037954 -0.00152786 0.00399555
O 13.64269727 5.04912661 21.02924410 0.00169743 -0.00274990 -0.00325251
O 12.05050469 10.14430532 20.31980312 -0.00025089 0.00238445 -0.00097752
O 15.97334841 4.97533794 14.10474531 -0.00222947 -0.00172448 0.00710838
O 17.67900278 28.89345094 15.46690470 0.00083877 0.00430263 -0.00288885
O 11.34461772 8.64170436 26.06087008 -0.00199276 -0.00577214 0.00368427
O 12.36663903 3.91403900 27.35180907 0.00939208 -0.00143761 0.00306934
O 15.02190468 0.55456372 33.40386950 -0.00578719 0.00453849 -0.00679208
O 13.99417511 5.65493589 31.96252608 -0.00191278 0.00268465 0.00532955
O 12.18324957 4.69176623 33.61996255 0.00035143 0.00354020 -0.00132024
O 10.38885836 9.64884083 32.35413299 0.00077263 -0.00353288 -0.00160279
O 14.42333090 4.67166562 25.92466826 -0.00479608 -0.00460414 0.00072252
O 16.13229312 0.00525526 27.35740166 0.00400089 -0.00195709 -0.00546962
O 14.59573996 18.65848621 2.07039126 -0.00110600 -0.00096813 0.00054743
O 15.60522780 13.35417956 3.81588456 0.00150614 -0.00214064 -0.00591576
O 18.39520779 10.74168557 9.63997336 -0.00629797 -0.00510978 -0.00199011
O 17.15985430 15.70579579 8.57110795 0.00219282 -0.00084308 0.00380827
O 15.22929419 14.43879161 9.57093968 -0.00085793 0.00075153 -0.00470155
O 13.40946710 19.18582316 8.09862099 0.00314240 -0.00013727 0.00175409
O 17.56374081 14.48237582 2.38787336 -0.00076463 0.00407932 0.00591023
O 19.41982452 9.54343053 3.62211138 0.00123687 0.00132194 -0.00583843
O 13.00806889 18.22630266 14.19434393 -0.00810742 -0.00206767 0.00491127
O 14.19321905 13.39470457 15.06358572 0.00160400 -0.00656571 0.00210908
O 16.56872197 10.67948155 21.30313006 0.00048000 -0.00173989 0.00670283
O 15.46153624 15.63158267 20.42185076 0.00710242 0.00624801 0.00430451
O 13.44834949 14.37699781 21.43240514 -0.00414051 0.00422451 0.00344603
O 11.96620787 19.02747901 19.92678418 -0.00385988 -0.00023344 0.00620518
O 16.20683141 14.81102733 14.08694173 0.00080371 -0.00200723 -0.00774177
O 17.68206872 9.87900621 15.38470388 -0.00280659 -0.00203639 -0.00846049
O 11.35804448 18.20653155 26.09724201 -0.00342909 0.00148100 0.00368808
O 12.69829498 13.13757666 27.25969635 0.00045699 -0.00828943 0.00279259
O 15.14283231 10.72148577 33.38366562 -0.00256734 0.00035593 0.00189204
O 13.72728481 15.50848708 32.31972062 0.00740797 0.00375281 -0.00860435
O 11.74231410 14.39532531 33.40755290 -0.00176161 -0.00344366 -0.00285661
O 10.18827460 19.62988789 32.13510933 -0.00606668 -0.00298866 0.00066012
O 14.55472996 14.44021831 26.09431568 -0.00096781 0.00046333 -0.00200536
O 15.97622115 9.33192214 27.44752650 -0.00281103 0.00311429 -0.00041391
O 14.55699763 28.11631153 2.31427834 -0.00449301 0.00009700 -0.00613743
O 15.67630016 23.36101057 3.67280822 0.00081752 0.00499087 0.00474161
O 18.38572343 20.34799627 9.43908318 -0.00615220 -0.00221029 -0.00203114
O 17.14711216 25.43953647 8.55111735 -0.00525754 -0.00645949 0.00351477
O 14.98296593 24.47826099 9.69067780 -0.00043458 -0.00079275 0.00038216
O 13.29918904 0.14914813 8.29687561 0.00101336 -0.00276137 0.00263281
O 17.59197060 24.13786626 2.23784164 0.00203652 0.00291183 -0.00504119
O 19.38704445 19.12659433 3.90357688 -0.00104012 -0.00690478 0.00361704
O 12.92201220 28.18990859 14.41143796 -0.00466858 0.00392128 -0.00501067
O 14.10885111 23.18473208 15.57888273 0.00068272 0.00594504 -0.00249077
O 16.80636971 20.24289631 21.55967083 0.00304623 -0.00533700 -0.00370162
O 15.38548644 25.51822727 20.47541819 -0.00660379 0.00130702 0.00562677
O 13.58257142 24.05759889 21.55726027 -0.00102040 0.00519047 0.00370520
O 11.87018701 0.08253592 20.05224511 0.00345353 -0.00235388 -0.00667790
O 16.14824316 24.04545977 14.04645207 0.00202140 0.00560862 0.00433779
O 17.82001599 19.47764973 15.69331744 0.00262183 -0.00561954 -0.00076825
O 11.43516749 27.99727001 26.02364659 -0.00403699 0.00131163 0.00402366
O 12.75994055 23.19119095 27.61171397 0.00181441 -0.00234013 0.00486364
O 15.03361402 20.30788130 33.26335765 0.00136477 -0.00197176 -0.00404240
O 14.01758355 25.46333889 32.21094729 0.00180236 -0.00037243 -0.00473785
O 11.80563360 24.24036403 33.20391743 0.00053147 -0.00405795 0.00575436
O 10.48040246 0.30671438 32.22657036 -0.00062936 -0.00253337 -0.00510796
O 14.67740258 24.10843620 26.23796461 0.01008231 0.00497606 -0.00420033
O 15.98679418 19.46953727 27.67536893 0.00513216 -0.00157804 -0.00264361
H -0.18228571 8.84360770 2.55722767 -0.00406833 0.00644644 0.00272670
H 2.61643480 4.24056106 2.83418441 -0.00602622 -0.00359957 0.00391196
H 5.28748769 1.00577321 8.78294513 0.01774690 -0.00883788 0.00052789
H 2.69423902 5.38205225 8.58623457 -0.00662888 0.00369455 0.01038447
H 5.70289678 8.01278777 0.46158986 -0.00737925 -0.00106398 -0.00809125
H 3.79396159 3.53519605 4.82125054 -0.00223971 -0.02741822 0.02270775
H -0.45602263 1.33772137 11.28715763 0.00784104 -0.00014316 -0.00142485
H 1.47590937 6.06023132 6.54418167 -0.00215619 -0.01301374 0.00997994
H 4.03289283 6.68245960 10.66141306 -0.03439513 -0.00357281 0.03637262
H 3.79834036 1.94099971 6.74749225 -0.00461881 0.01823611 -0.00865495
H 1.19337824 2.74782130 1.11556511 -0.01167746 -0.01345697 -0.01866789
H 1.62185926 7.88814210 4.74396837 0.00725588 0.01120481 -0.01173853
H -2.03102611 5.17532067 35.34862913 0.02429684 -0.02799831 0.01166889
H -0.29203008 1.05031107 5.97567631 0.01083839 -0.00241144 0.00493804
H 2.52267036 4.27868879 11.90413106 0.02563368 -0.00992326 -0.00657375
H 5.52739114 8.91993847 5.72777198 0.01418833 0.01294657 -0.01410690
H 2.83234307 6.89332599 1.41495098 -0.00824156 -0.02267447 0.00252822
H -0.18261000 2.19606738 3.89757873 -0.01024055 0.01553892 0.00824110
H 2.38896914 2.56117448 9.98577031 -0.01803581 0.00193693 0.00241376
H 5.39509355 7.23059884 7.67116380 -0.00182056 0.01673859 -0.03036746
H 5.15035069 4.80428418 9.56377761 -0.03244761 -0.00239785 0.01533118
H 2.93972917 0.35982352 7.88890840 0.02558223 0.00700532 -0.02343998
H 0.34629832 4.62549846 2.07430681 0.00880333 -0.01539552 -0.00582947
H 2.60919575 9.55150202 3.67479341 0.00666039 -0.02160910 0.02460304
H 7.34920221 2.60724265 8.83540887 -0.01735804 0.02465782 -0.01381171
H 0.54087385 7.76021172 9.41584471 -0.02917809 0.00209785 -0.00682039
H 19.25500992 5.55680915 4.63591826 -0.00658017 -0.00324806 -0.00562554
H 3.78983863 2.32272165 2.32302291 -0.00086762 0.00955497 0.02353938
H 0.82772512 2.58061737 8.58597165 -0.02102046 0.01289804 0.01249583
H 1.20385172 9.11734729 10.31250393 -0.00956328 0.01324794 0.00795275
H 4.75824388 5.25622543 4.43265727 0.01218726 -0.00810027 -0.02231486
H 4.87583421 1.36971675 1.36384226 -0.01974058 -0.00971719 -0.00527119
H 0.55375214 3.89879122 7.43390153 0.01424772 -0.01544364 0.00317108
H 2.29856295 8.00342517 9.23632758 0.01180726 -0.00272514 -0.00099153
H 6.43838307 5.12315399 3.95687768 -0.01191841 -0.00416864 -0.00703615
H 3.13430167 1.00315194 1.32005337 0.02341396 -0.04027536 -0.01529380
H -1.78522265 9.05008838 14.41376247 -0.03594110 0.01085190 -0.02533529
H 1.11646795 4.12970335 15.25932284 -0.02066689 0.00491910 0.01519031
H 3.71328397 0.95786378 20.86189172 -0.00291425 -0.00412512 -0.01959096
H 0.90144640 5.43006571 20.62605926 -0.00524674 -0.03078815 0.00553607
H 3.71322070 7.98452558 12.75564199 0.02395615 -0.02358346 -0.01383495
H 1.94552942 3.73085181 17.61501283 -0.01388815 -0.02186307 0.04093528
H -2.12670554 1.47244528 22.93546095 0.01984994 -0.02820251 0.02127031
H -0.35011370 6.36402950 18.72116770 -0.00391489 -0.01402160 0.00349878
H 2.31082020 7.11867851 22.66183418 -0.04155972 0.01394104 0.01550722
H 1.90906021 1.98781860 19.33153086 -0.02596544 0.00340000 -0.02318126
H -0.52814647 2.83777833 13.32246902 -0.00350336 -0.00281304 -0.01068289
H -0.34586836 7.88861783 16.89144776 -0.02365880 -0.00763448 -0.02249079
H 1.06537813 5.30657163 11.75902401 0.01993276 0.02197802 -0.01420271
H -1.88304304 0.67192124 18.09002341 -0.00135461 -0.01497852 -0.00007668
H 0.93853317 4.22172352 24.09410588 0.04354866 -0.00078672 0.00703446
H 3.80958457 8.86036112 17.67674592 0.03198802 -0.02129148 -0.00187554
H 1.00348003 6.83379446 13.75276774 0.00872514 -0.00346537 0.01329435
H -1.65300024 2.06233664 15.94231270 -0.00432210 0.03357616 0.03823746
H 0.93025763 2.74339318 22.00297003 0.00776419 -0.01643279 -0.01663921
H 3.78264476 7.41621150 19.50431585 0.01420611 0.00857837 0.02937850
H 3.26842844 5.70620802 21.48534653 -0.00363069 -0.00892502 -0.00300792
H 1.22137073 28.75078980 19.84756502 -0.05169669 -0.00944500 -0.01480589
H -1.51426430 4.74098875 14.06838172 -0.00389278 -0.00796258 -0.00419711
H 0.74659316 9.58671365 15.56484110 -0.01418266 -0.01513817 -0.00773893
H 5.07442244 2.83183524 20.87146999 -0.00168257 -0.02323205 0.00304990
H -1.27337194 8.09979910 21.59344833 0.00072498 0.01553129 -0.02931266
H 18.24520349 5.10900056 16.26213115 -0.00592728 -0.00684068 -0.01243438
H 1.65615441 0.32281251 13.47528225 -0.00765686 -0.01273016 -0.01858333
H -1.14858236 3.85647292 19.25374680 -0.01275772 0.01100924 0.01467926
H -0.04493848 9.09401107 22.31427199 -0.00724611 -0.03337684 -0.01151719
H 3.35976230 6.73120858 15.67666594 -0.00959874 0.00673143 -0.02271711
H 2.04419767 1.95455896 14.28406522 0.01229571 0.00433691 0.02928281
H 17.61315299 3.65347278 19.82353722 -0.00649799 -0.03670214 -0.01285738
H 0.36151962 8.04478368 20.85127578 0.00361975 -0.00475233 -0.01710083
H 3.45606057 5.14103933 16.59583073 -0.01944876 -0.00270013 -0.01792061
H 3.10504568 1.10789476 13.25830182 -0.00118765 -0.00742254 0.00482125
H -3.29741962 8.70980879 26.36859041 -0.02665990 0.00993432 -0.02927291
H -0.48365400 4.07303316 26.87115757 -0.00180064 0.03242999 0.01401126
H 2.04708261 0.52726865 32.68221961 -0.01445818 -0.02073166 -0.01477895
H -0.67582189 5.40031698 32.45798230 0.00203000 0.00486013 0.01104589
H 2.34331364 8.55411558 24.59653705 0.01205017 0.01387068 -0.00129083
H 0.71607950 3.37547320 28.71641927 -0.00147568 -0.01217519 0.01141299
H -3.38546837 1.10817969 34.84869793 0.00900539 -0.00590658 0.01435921
H -1.71647440 5.85012110 30.29621104 -0.00927544 0.01573643 -0.00478671
H 1.04029849 6.57357149 34.24864737 0.02350071 -0.00131345 0.01607719
H 0.60578905 2.02022429 30.95219645 -0.00270135 -0.00843971 0.01715931
H -2.10166529 3.03384583 24.72956183 -0.01009534 -0.03026062 -0.00631548
H -1.77809780 7.54018659 28.43554424 0.00353980 0.01101983 0.02379067
H -0.40109873 5.50496235 23.43314469 0.01853785 -0.02527309 -0.00408187
H -3.18515173 0.33679919 29.72869252 -0.02363923 0.01560201 -0.03356349
H -0.60553113 4.21792948 35.52443608 0.01384232 0.00349721 -0.00301147
H 1.88900432 9.20683006 29.65169552 0.01872548 -0.01355210 0.00990498
H -0.38358857 6.98446059 25.42937906 0.00765373 -0.03391987 0.00061832
H -3.31965697 2.07667760 27.98080227 -0.02719932 -0.01108148 0.00604708
H -0.53733714 2.72513029 33.55450410 -0.00798525 -0.02004791 0.00355792
H 2.10653913 7.49906007 31.46749985 -0.00457214 0.03066447 0.02574959
H 1.90703368 4.87304331 33.07684554 -0.02022034 0.03182284 0.00423574
H -0.20312877 28.99284835 31.62626589 0.01180798 0.00005374 0.00326685
H -3.00867409 4.65806492 25.99314499 -0.01083963 -0.01668085 0.00749729
H -0.81488117 9.61049364 27.50848785 0.02351932 0.00728737 0.03431446
H 3.01724101 2.90855610 31.69261338 0.00069619 -0.00610894 0.01501372
H -1.61556596 9.10032376 34.32129166 0.02019293 0.01773979 -0.01201390
H 16.06010697 4.94624974 28.34599024 0.00492752 -0.00115570 -0.01073727
H 1.44929125 0.96519605 24.96934464 -0.01307459 -0.00286269 0.02424039
H -3.96554380 2.76141836 32.06395936 0.01427508 -0.02491260 0.02286016
H -1.36735400 7.56424747 33.16489532 -0.01271113 -0.01774476 0.01207911
H 3.42697326 6.51606992 27.44365016 0.02717220 -0.01038045 0.02252408
H -0.18137598 1.30946115 25.52879593 0.01746272 -0.01190420 0.00691975
H -2.28420291 2.86446102 31.93904910 -0.01572285 0.01639990 0.00592531
H -2.98757383 8.03566824 33.89384762 -0.02617243 -0.01000015 0.00570306
H 1.82115162 7.07622537 27.31446304 -0.00859814 -0.00745552 -0.00702739
H 1.15394712 2.14661694 26.24041363 0.01384782 -0.00517632 -0.00312959
H 0.00999555 18.70545017 2.62723296 -0.00838628 0.00453766 -0.00499481
H 2.63837919 13.92696620 3.11582577 0.01806119 -0.02253313 0.02593437
H 5.28260923 10.22785773 9.07699887 0.00655641 0.01456916 -0.00229137
H 2.63353926 15.28138729 8.72749093 0.01298947 0.02180445 -0.00502161
H 5.64063221 17.93297747 0.83727255 0.00311492 0.00400574 0.01444420
H 3.83837305 13.15598227 5.05703490 0.01639860 -0.00665939 0.00045559
H -0.30144031 10.93536241 11.49954883 0.00532209 0.00090034 -0.02676272
H 1.49350918 16.00729786 6.80947489 -0.00360231 0.01878506 0.01509614
H 3.93966038 16.06618656 10.65115594 0.00686703 -0.01393491 -0.01265839
H 4.05490897 11.28470794 6.62820715 -0.00441799 0.00496503 -0.01919831
H 1.07676942 12.73945415 1.40908893 -0.02766751 -0.01188294 0.03135231
H 1.38636751 17.45569051 4.91132362 0.00626192 -0.01906792 0.01353227
H 2.59743201 14.89036927 0.11834586 0.01027733 -0.00205136 0.01544187
H -0.14804512 10.45413617 5.92608760 -0.00188326 -0.00934125 0.00535683
H 2.53028084 13.70432555 12.03012920 0.00746860 -0.02450969 0.01588707
H 5.49940986 18.64565940 5.72132957 -0.00462466 0.00132022 -0.00245227
H 2.77556105 16.49736474 1.83646011 0.01305599 -0.01058563 -0.00586170
H -0.12768671 12.01402826 4.22875510 0.01749721 -0.01985172 -0.02070489
H 2.42421446 11.96456352 10.21210269 0.02487177 -0.00243598 0.00778747
H 5.48202106 17.28777678 7.61599871 -0.00721773 0.03872754 -0.00281837
H 5.05743938 14.55670884 9.40358900 0.00524647 0.01923016 -0.01928042
H 2.99506575 9.53206763 7.82273881 0.01054351 0.00373715 0.01198888
H 0.15324337 14.56106240 2.39008011 0.02571290 -0.01007074 -0.01532558
H 2.24962730 19.23943658 3.69653539 -0.00980321 0.01107280 0.01695463
H 7.54742194 12.40760102 8.19214278 0.01177878 0.00812744 -0.01401286
H 1.85625081 17.89448962 9.65368308 0.01401333 0.00114343 0.00796968
H -0.56361873 14.96532327 4.48271197 -0.00360481 0.01486863 0.00691687
H 3.72598173 10.02464758 1.04695347 -0.01906324 0.03118117 0.01031357
H -1.02457134 12.92125172 8.74041073 0.00779243 0.02165152 0.01870029
H 0.23981988 18.36651749 10.20773045 0.00257385 -0.01809566 -0.00822911
H 6.06774919 16.10892102 3.49719005 0.01370875 -0.02210576 0.00250017
H 3.54100774 11.32899315 2.38343400 -0.00771585 0.01171571 -0.02508516
H 0.73181005 12.69114998 8.25643157 0.01591512 0.01821310 -0.00069450
H 1.74404196 19.45066005 10.47150449 0.00465638 0.01719356 0.00163371
H 4.44385974 15.71292326 4.12294637 0.00330447 -0.00970799 0.00349282
H 5.11129874 11.01466535 1.67197081 0.00540803 0.00439279 0.00075647
H -1.77639589 18.66201766 14.86380550 0.00100646 -0.00791473 0.00798146
H 1.31538360 14.08759734 14.89968336 0.02730930 0.00882829 -0.00670876
H 3.68057051 10.45340379 20.79646273 0.01558397 -0.02737309 0.01299586
H 1.08781834 15.27745612 20.73500767 0.01396481 0.01088388 0.00475066
H 4.06129089 17.91614044 12.31876709 0.00926463 -0.00729886 -0.00253528
H 2.35856984 13.44898463 17.14171985 0.01021190 0.00288368 -0.01235389
H -1.85454067 11.29041615 22.77524668 -0.00132039 0.02020221 0.01652881
H 0.06223600 15.74752569 18.37519481 0.02010021 0.00063866 -0.00107283
H 2.57029212 16.26775489 22.62718561 -0.00871450 0.01414135 0.01552589
H 2.27723872 11.84136597 19.07208828 -0.02424236 -0.01156439 -0.03848276
H -0.28602116 12.74491908 13.28827685 -0.01879078 0.01592353 -0.00170962
H 0.03723676 17.54370312 16.64245088 -0.00320157 -0.01151179 0.00243414
H 1.24984428 15.16668462 11.93772879 -0.01571150 -0.00925509 -0.00678621
H -1.66643367 10.66279462 17.88222361 0.01100220 0.02177284 0.01061621
H 0.83521818 13.89761759 23.80646895 0.02470114 0.02344846 -0.01543175
H 4.03329453 18.81013336 17.75254593 -0.01531895 0.00689527 0.01489051
H 1.28127513 16.96815779 13.72810803 -0.02150183 -0.00568965 -0.00553245
H -1.59441762 12.30243735 16.00267931 -0.01682481 0.00160592 0.00403823
H 0.90673360 12.23023784 21.88997347 0.01512372 -0.00864175 0.00365431
H 3.82900636 17.26328948 19.74868552 -0.02193833 0.00709329 0.01723386
H 3.42213215 14.58419238 21.52561459 -0.00984683 0.02311468 -0.00540930
H 1.38956090 9.91660129 19.78052378 -0.02938405 -0.03025107 0.00620225
H -1.20650696 14.68950839 14.32396948 -0.01736426 -0.02130240 -0.00553567
H 0.89086960 19.16384791 15.73201859 -0.00628211 0.02682711 0.00998623
H 4.13249177 12.83352961 20.08041777 -0.00274212 0.00510500 -0.01808849
H -0.86641525 18.18979079 22.48084768 0.00175463 0.00210979 0.00271830
H -1.85524741 15.72297595 16.01445173 0.01353469 -0.01182964 -0.00476296
H 2.90867523 10.07980325 13.42845633 -0.01726996 0.00502486 0.01995652
H 17.78745900 13.30555066 20.41996181 -0.00288045 -0.02191033 0.00138920
H 0.73334777 18.76699594 22.24862782 -0.02330906 -0.00782349 0.00006463
H 4.03299495 16.86487047 14.88475219 -0.00360964 -0.02208289 0.01305112
H 1.34415843 10.56841543 13.89068911 0.02299440 -0.01446373 -0.00180858
H -1.14504721 12.51959893 20.61192873 0.01303404 0.00042176 -0.00680281
H 0.23620159 17.30324175 21.34081097 0.01593181 0.01846247 -0.02503684
H 3.54248538 15.71697680 16.09211118 0.00830845 -0.00264486 0.00014175
H 2.71018985 11.63300927 14.13527523 -0.01478676 0.01743223 0.02371248
H -3.32357494 18.56676423 26.89033160 0.00760925 0.02393931 -0.01963961
H -0.36727266 13.76510108 27.01194836 0.00277380 0.01192950 -0.00271416
H 2.35364134 10.12313152 33.04703594 -0.01056220 0.03052798 -0.00441908
H -0.88498235 15.29371649 32.79720069 -0.01259824 -0.01811727 0.02048789
H 2.59825833 17.94962307 24.74465354 -0.00365262 -0.01443313 -0.00735336
H 0.71966748 12.85366972 29.17819949 0.00479817 0.01004028 0.04220541
H -3.50094171 11.11858309 35.21534767 0.01360617 0.02398035 -0.01082728
H -2.08959007 16.23606934 30.61734057 -0.01150366 -0.01608281 0.02623440
H 0.86675170 16.30005173 34.46104778 -0.01819874 -0.00507754 0.00843450
H 0.60216669 11.30513629 31.00860917 0.01557360 0.02683400 -0.00543946
H -1.88823663 12.68942800 24.72443167 0.00277033 0.02149506 0.00237967
H -1.86350671 17.71957711 28.79526703 0.01318868 -0.00967592 0.01140383
H -0.54943613 15.18520543 23.85961170 0.02293870 -0.00088089 -0.02071830
H -3.46465790 10.55180216 29.85983270 0.01141513 0.01592564 0.01683074
H 4.10329050 13.76129242 0.11228211 0.01078031 -0.00368955 -0.01689953
H 2.35943948 18.50741157 29.66148589 -0.00668735 -0.00839731 -0.00933265
H -0.47664765 16.53692563 25.81500266 0.00687642 0.01168456 0.00597623
H -3.27879775 11.95733882 28.11635747 -0.01942319 -0.00321536 -0.00908078
H -0.61840881 12.05867132 34.02732043 0.00051844 0.03967130 0.03166937