2160
Time=73000.00000007 pbc="T T T" Lattice="20.63409208 0.00000000 0.00000000 0.00000000 29.12618163 0.00000000 -4.73555842 0.00000000 35.65779581" energy=-13795.73144257 virial="-91.83770514 -2.93555308 92.96519113 -2.93555308 -75.17818170 -2.71148176 92.96519113 -2.71148176 -34.75850711" stress="-0.00182586 -0.00006032 0.00437989 -0.00006032 -0.00107241 -0.00013433 0.00437989 -0.00013433 0.00069698" Properties=species:S:1:pos:R:3:vel:R:3
O 1.05824910 8.48918915 2.42850625 -0.00015598 0.00215190 0.00064524
O 1.92557773 3.86353238 3.45681631 -0.00366478 -0.00494777 0.00646932
O 4.36244506 1.01733980 9.45428271 -0.00302438 -0.00503196 -0.00086073
O 3.14717030 6.07219156 8.12747109 -0.00525235 0.00511583 0.00195564
O 1.29890525 5.06957383 9.58465585 -0.00094150 -0.00659190 0.00198142
O -0.17226231 9.79228712 7.96766478 0.00649937 -0.00289835 0.00161204
O 4.02700299 4.90194513 2.14013889 -0.00091659 -0.00070568 -0.00531544
O 5.42746056 0.22483969 3.26126861 -0.00406894 0.00543847 -0.00281982
O -1.08419278 8.29247851 14.46986975 0.00477847 0.00021431 -0.00091796
O 0.19012400 3.61829470 15.29143243 -0.00466599 0.00731549 0.00196790
O 3.05133267 1.36543498 21.12494448 0.00449596 0.00048951 -0.00072389
O 1.75579252 6.01736327 20.35502161 0.00073751 -0.00204660 0.00164021
O -0.29875669 4.60785699 21.37114516 -0.00032603 0.00430241 -0.00454034
O -1.72586014 9.60900213 20.16369296 -0.00313844 -0.00163222 -0.00242790
O 2.30214059 4.36833218 14.17276451 0.00060689 0.00204590 -0.00666715
O 3.97931671 28.98237273 15.34953647 0.00030725 -0.00034327 0.00493980
O -2.46253002 8.39992926 26.26788533 0.00701653 0.00443829 0.00609469
O -1.15145459 3.67508099 27.11264254 0.00532202 0.00187009 0.00010834
O 1.28645812 1.15047757 32.98193485 0.00310439 0.00341640 0.00247002
O 0.33535184 5.99071807 32.08381652 0.00027505 -0.00022762 -0.00189605
O -2.00446050 5.02192790 32.98529035 -0.00372544 0.00357156 -0.00383711
O -3.54902667 9.88732197 32.19676852 0.00079571 0.00096651 0.00037755
O 0.91592582 5.00877365 26.25092756 -0.00323343 0.00008387 -0.00359761
O 2.61020479 29.00198668 27.30798297 -0.00073965 -0.00077727 -0.00023443
O 0.59712114 18.33779837 2.42520047 -0.00055690 0.00189081 -0.00161903
O 1.83449288 13.85959163 3.52138704 0.00004924 -0.00271496 0.00195799
O 4.72833948 11.17828063 9.16336361 -0.00658022 -0.00032135 0.00039924
O 3.23358724 15.90091899 8.32221546 -0.00433658 0.00159527 -0.00452475
O 1.36485840 14.96391606 9.75358496 0.00422109 0.00521530 -0.00492053
O 0.00501456 19.88525878 8.14257662 -0.00511628 -0.00062150 -0.00050338
O 3.99061853 14.73915411 1.99356969 0.00300284 -0.00165059 0.00590624
O 5.64473905 9.82550267 3.57673565 0.00306555 -0.00788838 0.00513816
O -0.92889424 18.30047326 14.51234287 0.00359797 -0.00618547 0.00435458
O 0.39224903 13.64736576 15.47819597 -0.00273349 0.00204419 -0.00700089
O 2.99945278 10.86651558 21.36324547 0.00325529 0.00167272 -0.00015363
O 1.89920359 15.61964703 20.15868713 -0.00095464 -0.00125709 -0.00239339
O -0.21595797 14.70939130 21.53594320 -0.00774088 -0.00918704 0.00023837
O -1.77239842 19.61676737 20.44379327 -0.00423403 -0.00256660 -0.00437754
O 2.39683475 14.62193138 14.02622920 0.00125654 0.00119856 -0.00448325
O 3.81963514 9.39795332 15.46954182 0.00157197 0.00666914 -0.00721452
O -2.40523742 18.32349585 26.41732495 0.00402185 -0.00511545 0.00104907
O -1.09095691 13.70033657 27.46449171 -0.00488807 0.00236781 -0.00221504
O 1.38696380 10.57030630 33.38656675 0.00097425 -0.00039506 0.00309896
O 0.26218258 15.41061715 32.13968606 -0.00110291 0.00603143 -0.00254846
O -2.07825040 14.87221505 33.06065624 0.00403529 -0.00164462 0.00298862
O -3.58723555 19.44554726 31.84745123 -0.00112123 0.00284907 -0.00106272
O 0.98531207 14.51207115 26.08488855 -0.00773469 0.00267756 -0.00288770
O 2.19303273 9.79160611 27.50766903 -0.00239131 0.00204119 -0.00199086
O 0.94231025 27.90834069 2.46169323 0.00014173 0.00767790 -0.00326452
O 1.95337866 23.35086362 3.39118567 -0.00244640 0.00040275 -0.00384785
O 4.58179769 20.76571782 9.40768055 0.00101215 -0.00441370 0.00050247
O 3.55190800 25.33328488 8.20503717 0.00050820 0.00414624 -0.00270504
O 1.51032426 24.58638053 9.79043754 -0.00559331 -0.01274089 0.00638228
O -0.25768450 29.11804848 8.02427630 -0.00160468 -0.00585810 0.00480646
O 4.03991947 24.28961016 2.36878406 -0.00279443 -0.00119797 -0.00025179
O 5.46436102 19.58661183 3.63138534 -0.00219721 0.00293240 0.00274890
O -0.97508447 27.75680313 14.57162869 0.00757878 0.00785670 -0.00899746
O 0.32604774 23.20653125 15.59056450 0.00334717 0.00426869 0.00091600
O 2.79553144 20.28218391 21.52197007 -0.00054555 -0.00442958 -0.00523854
O 1.82614313 25.30637215 20.21103747 -0.00118842 0.00317331 -0.00475131
O -0.24132478 24.10475600 21.53009162 0.00011786 -0.00855271 0.00418033
O -1.86918991 0.07565867 20.03769140 0.00087148 -0.00370538 -0.00706882
O 2.40968934 24.35547766 14.31718504 -0.00202720 -0.00030250 0.00509897
O 4.01613858 19.41254367 15.53790112 -0.00208821 -0.00025119 0.00078860
O -2.48705026 27.98467775 26.20132322 0.00272847 -0.00372312 -0.00356160
O -1.04902446 22.91742026 27.30472286 0.00222949 -0.00028760 -0.00426249
O 1.27705505 20.35266138 33.30596204 0.00431000 0.00336341 -0.00052588
O 0.24188798 25.43267354 32.15087571 -0.00131949 -0.00055337 0.00557332
O -1.79279244 24.20554486 33.15905662 0.00120566 -0.00038723 0.00299582
O -3.27909539 0.36070484 32.10363528 0.00073390 0.00005946 -0.00129391
O 0.93632889 24.15127315 26.11205326 -0.00259128 0.00442128 0.00020123
O 2.23812088 19.02326833 27.55252404 0.00098989 0.00264007 -0.00745549
O 7.58191731 8.38953159 2.46157952 -0.00436859 0.00048154 0.00332391
O 8.59342730 4.00608798 3.41110655 -0.00310855 0.00007081 -0.00097193
O 11.34297076 1.09855008 9.41735508 -0.00151363 0.00076435 0.00209257
O 10.40759103 6.26585266 8.21210361 0.00492189 -0.00405200 0.00172513
O 8.26588960 5.05970168 9.26202435 -0.00807990 -0.00635372 0.00016133
O 6.64945081 9.72157466 8.07117054 -0.00004865 -0.00216450 0.00250029
O 11.08997930 4.36521194 2.77396027 0.00721987 -0.00576019 0.00565619
O 12.54721974 28.89128582 3.52594829 -0.00507872 0.00223119 -0.00368901
O 6.02373007 8.52156476 14.35816712 0.00632616 0.00332100 0.00029005
O 7.04075411 3.75231839 15.25993006 -0.00093397 0.00102091 -0.00118771
O 9.90710115 1.38553174 21.10175515 -0.00621565 0.00121774 0.00363753
O 8.75015962 5.90546550 19.97370469 0.00159006 0.00518817 0.00082711
O 6.61914117 5.06091892 21.21145908 0.00190359 -0.00083285 0.00047833
O 4.91883138 9.88326902 19.98833084 0.00076273 -0.00183902 0.00334546
O 9.16844025 4.94997304 14.09841885 -0.00187066 -0.00190668 0.00046439
O 10.67262479 28.96095687 15.39599674 0.00139375 -0.00314353 -0.00507258
O 4.35684558 8.74181619 26.09149585 0.00361427 0.00348906 -0.00418350
O 5.71182240 3.57778424 27.18204201 0.00299211 0.00444125 0.00408975
O 8.25230900 1.33345779 33.19585535 0.00197552 -0.00303885 -0.00095628
O 7.20376605 5.95127378 31.92461100 -0.00095179 -0.00591539 -0.00421527
O 5.04858901 4.72079917 33.32234013 0.00101143 0.00016695 -0.00182265
O 3.44698827 9.87830487 32.11662407 -0.00162158 -0.00862700 0.00299106
O 7.67369156 4.85109564 25.84036583 0.00334958 0.00238622 -0.00444060
O 9.34090938 28.95127847 27.27666600 -0.00129020 -0.00704453 0.00200183
O 7.70989938 18.37371811 2.28825919 0.00873844 -0.00037673 0.00283258
O 8.92306253 13.24986920 3.24615904 0.00059062 0.00148598 0.00214705
O 11.28469058 11.12315552 9.27751917 0.01001965 0.00301934 -0.00130172
O 10.17395100 15.80362952 8.12527296 0.00294064 -0.00211858 0.00290437
O 8.34350448 14.74431857 9.53525212 -0.00332627 -0.00275583 0.00125751
O 6.80537751 19.71461763 8.34304814 -0.00122851 -0.00364569 -0.00452355
O 11.06070061 14.61640951 2.38704509 0.00248480 0.00294966 0.00374163
O 12.62876159 9.89181017 3.43892781 0.00135449 0.01362641 0.00143005
O 5.99832993 18.16057940 14.44962396 -0.00062460 0.00237486 0.00259502
O 7.11963659 13.29293879 15.14267785 0.00360739 -0.00310420 -0.00286997
O 9.74313390 10.89391161 21.28231016 -0.00283853 -0.00078951 0.00256030
O 8.71697805 15.71879815 20.44693431 0.00285152 0.00229882 0.00487799
O 6.82316059 14.78608662 21.82618698 0.00111385 -0.00216916 -0.00155731
O 4.96744486 19.59878228 20.31284599 0.00369577 0.00123774 -0.00135502
O 9.31444421 14.64045229 14.37639546 0.00419863 -0.00467983 0.00394166
O 10.74925443 9.92088785 15.38790216 0.00012226 -0.00108853 0.00814146
O 4.31279135 18.17709027 26.40700253 0.00217056 -0.00185169 -0.00879296
O 5.64003323 13.43141490 27.17840873 0.00128358 -0.00710571 0.00027596
O 8.51989161 10.95277054 33.15703542 0.00066900 0.00344055 0.00217528
O 7.06739395 15.69822154 32.27119629 0.00149846 0.00127972 0.00014865
O 5.04750764 14.52802726 33.52534549 -0.01092317 -0.00900243 -0.00068002
O 3.37692775 19.56182566 32.01896673 0.00021313 -0.01012419 -0.00230215
O 7.66117568 14.80929331 25.92938623 0.00206319 -0.00119991 -0.00055795
O 9.16645901 9.44471676 27.26996735 -0.00065746 0.01079309 -0.00663048
O 7.66768668 27.99783991 2.78410789 0.00317555 0.00334829 0.00821015
O 8.72475729 23.30112053 3.36329604 0.00242085 0.00205515 0.00016375
O 11.38280710 20.29661264 9.41721572 0.00423213 0.00348121 0.00508205
O 10.32632425 25.28008989 8.44295686 -0.00063212 -0.00369444 -0.00145655
O 8.25055387 24.24324710 9.89440912 0.00429960 0.00353158 0.00113586
O 6.46649109 0.05556116 7.99129485 -0.00058094 -0.00656465 0.00191360
O 11.00140995 24.15880733 2.48342586 -0.00155640 0.00010298 0.00208086
O 12.56197234 19.18030139 3.54803440 0.00127781 0.00005367 0.00006490
O 6.05308408 27.91593120 14.35861489 0.00106767 0.00278327 0.00294203
O 7.22486359 23.14173647 15.78160768 0.00548063 -0.00335387 -0.00076673
O 10.29032361 20.75261001 21.44881237 0.00330039 0.00384916 0.00466635
O 8.84837020 25.67610017 20.45192341 0.00155446 0.00345914 0.00183293
O 6.66975632 24.47697311 21.24153118 -0.00208117 0.00314705 -0.00276536
O 5.19081170 0.29143151 20.29479762 -0.00053063 0.00372934 0.00036592
O 9.23138995 23.87597408 14.15742195 0.00571424 0.00376001 -0.00299831
O 10.72757503 18.94087532 15.16481980 0.00103137 0.00003051 -0.00264906
O 4.52907260 28.01367110 25.90658425 0.00098694 -0.00266633 -0.00388810
O 5.53945755 22.94237858 27.12059467 0.00720891 0.00392055 0.00333499
O 8.20000261 20.48973160 33.47459215 -0.00113077 0.00169360 0.00090886
O 7.15671122 25.60913257 32.24552317 0.00030360 0.00363034 -0.00398017
O 4.68647073 24.75935364 33.17724485 0.00008410 0.00727610 -0.00075850
O 3.60163515 0.12115374 32.08254692 -0.00125063 -0.00030177 0.00895628
O 7.65121810 24.14458087 26.04862275 -0.00057432 0.00468612 0.00136686
O 9.26022307 19.33030262 27.56461733 0.00309602 -0.00244505 0.00440201
O 14.49961201 8.19946262 2.77785782 -0.00186618 0.00528902 -0.00010737
O 15.79446573 3.63783008 3.89533462 -0.00149790 0.00808398 0.00689468
O 18.34827838 1.09526355 9.17204513 -0.00238706 0.00006925 0.00064185
O 17.52097657 5.60182940 8.03591784 0.00533452 -0.00736907 0.00254026
O 15.25682687 5.09332538 9.46665686 -0.00023328 0.00157518 0.00178132
O 13.46217546 10.19239187 8.16618455 0.00456043 -0.00079860 -0.00069494
O 17.81382097 4.60355213 2.41032434 0.00356330 -0.00055876 -0.00265243
O 19.29679983 28.68526372 3.59568212 0.00166763 0.00222027 0.00380061
O 12.92744668 8.49716067 14.45065517 0.00081674 -0.00036440 0.00054648
O 13.85599342 3.96498773 15.62936449 -0.00547275 0.00127495 0.00397166
O 16.48971200 0.98807593 21.24892195 0.00124055 -0.00783808 -0.00178168
O 15.26477259 5.96019948 20.38163992 0.00463523 -0.00213284 -0.00519731
O 13.37337410 4.74422770 21.34671828 0.00163305 -0.00353988 -0.00022040
O 11.79634017 9.79842512 20.02654192 0.00530186 0.01040996 0.00292494
O 16.01207562 4.46499219 14.01784962 -0.00608659 -0.00117272 -0.00526867
O 17.57439468 29.10906132 15.24285663 -0.00196186 0.00200945 -0.00240381
O 11.26112093 8.51370520 25.99121706 0.00014329 0.00273350 0.00104627
O 12.27698962 4.35830938 27.61155017 -0.00666625 -0.00457063 -0.00233226
O 15.18167426 1.09019370 33.18483093 -0.00549149 -0.00249070 0.00346726
O 13.53036761 6.26722540 32.24766556 0.00103097 -0.00574562 -0.00324619
O 11.85986268 4.85758546 33.47304217 0.00213514 0.00390272 0.00357889
O 10.50559306 9.30572899 31.87101976 0.00276501 -0.00463359 -0.00078747
O 14.63313977 4.99251699 26.00558403 0.00019747 0.00036105 0.00650759
O 16.01747001 0.26788860 27.14334500 -0.00054318 -0.00062779 -0.00412186
O 14.65124477 18.34661111 2.42069294 -0.00260675 0.00181712 0.00155232
O 15.81097103 13.43802020 3.32207923 -0.00207363 -0.00201701 -0.00041367
O 18.32996618 10.76215268 9.42900142 0.00474323 0.00046534 -0.00574845
O 17.23028434 15.68344572 8.59140072 -0.00278474 -0.00021705 0.00102282
O 15.07801212 14.47659053 9.67495529 0.00438585 0.00113760 -0.00201320
O 13.61626094 19.35295569 8.34107755 0.00339629 0.00135818 -0.00165057
O 17.86189277 14.69772130 2.57310974 -0.00542330 -0.00003782 0.00153318
O 19.42945036 9.12610409 3.19722742 0.00751275 0.00356905 0.00197478
O 13.04049805 18.26889886 14.36907873 -0.00179530 0.00184168 -0.00108146
O 14.15340376 13.08913108 15.24975175 -0.00134103 0.00231324 -0.00245027
O 17.06543756 10.70533390 21.48261878 0.00972487 0.00040841 0.00173295
O 15.44856484 15.56022226 20.18424608 -0.00263421 -0.00090326 0.00106169
O 13.26876960 14.80256972 21.48410306 -0.00230350 -0.00643534 0.00350502
O 11.90973573 19.19880575 20.36297527 -0.00283264 -0.00094809 -0.00832449
O 16.04451799 14.34361519 14.15690339 0.00151974 -0.00070492 -0.00638643
O 17.64074415 9.38161484 15.80126404 -0.00176372 -0.00206805 -0.00392978
O 11.22550044 18.48086145 26.35906055 -0.00146309 -0.00302987 -0.00272398
O 12.33155107 13.32544233 27.08522968 -0.00457519 -0.00334926 -0.00000447
O 14.98205477 10.57186288 33.89374801 -0.00083580 0.00504141 -0.00344048
O 14.07286772 15.70943976 32.37278198 -0.00458253 -0.00045889 0.00254170
O 11.96503286 14.66402178 33.60875238 0.00035180 -0.00454326 -0.00320062
O 10.46034688 19.76419213 32.35177475 -0.00354519 0.00067615 0.00275305
O 14.56105149 14.45961965 25.91747377 -0.00145759 0.00228035 0.00307787
O 15.98345361 9.77299785 27.31186167 0.00399251 0.00110021 0.00183460
O 14.67986729 27.90528071 2.50519229 0.00208522 0.00457632 0.01007594
O 15.81074276 23.37581077 3.64473117 -0.00022607 0.00427012 0.00185054
O 18.42967891 20.71805447 9.29454819 -0.00396012 0.00545100 -0.00003392
O 17.29528295 25.15024609 8.63501670 0.00592346 0.00097032 0.00596467
O 15.03745799 24.27958612 9.60862440 -0.00771279 0.00378047 -0.00169864
O 13.58747003 28.56023726 8.06585319 0.00012171 -0.00133103 -0.00158926
O 17.83415997 24.17890724 2.20775143 0.00470224 -0.00108062 -0.00073968
O 19.35430473 19.14169905 3.86598560 -0.00141269 0.00178549 -0.00208376
O 12.71984637 27.87593122 14.12590269 -0.00074136 -0.00834846 -0.00041373
O 13.96821879 23.15933502 15.64631187 0.00033818 0.01066529 -0.00273870
O 16.70786658 20.69996797 21.44966238 0.00627454 -0.00285950 0.00197022
O 15.83079749 25.07064885 19.89309207 0.00880766 -0.00347372 -0.00858677
O 13.54762974 24.45226973 21.38381617 0.00950073 -0.00967232 -0.00043738
O 11.82973181 29.10038725 20.14681061 -0.00398304 0.00136187 0.00238623
O 16.03238633 23.91442535 14.26018134 -0.00655921 -0.00109093 -0.00060920
O 17.83809162 19.47322796 15.85210651 0.00285156 0.00352204 -0.00176887
O 11.51690734 28.24010329 25.98664898 0.00140337 0.00165181 0.00189518
O 12.59053965 23.08755431 27.33553380 -0.00259376 -0.00160659 -0.01208157
O 15.08788371 20.55731128 33.27143644 -0.00196141 0.00644032 0.00652466
O 13.79768110 25.72460146 32.15797984 -0.00060855 -0.00045289 0.00470222
O 11.99867474 24.36547080 33.35464626 0.00012349 0.00645802 -0.00073259
O 10.29359786 0.13798237 31.98517165 0.00561753 0.00158108 -0.00252253
O 14.60141683 24.23110764 26.43346430 -0.00100278 0.00084192 0.00094816
O 16.11677088 19.26338867 27.41604357 0.00219967 0.00300725 -0.00165353
H 0.17947100 8.85244710 2.66298316 -0.00420019 -0.01549123 0.00689789
H 2.79677962 4.29348065 3.24076985 0.03105304 0.00333225 -0.01051621
H 5.23240521 0.74640314 9.07865274 0.00045774 -0.02765452 0.01256236
H 2.24446003 5.75049515 8.43692697 -0.00692248 -0.01470040 -0.00459507
H 5.73601042 8.14727717 0.76190114 -0.01223245 0.01248024 0.01113395
H 3.93061509 3.49726630 5.23128743 -0.02374464 0.01209833 0.00804498
H -0.53320185 1.16999912 11.04629644 -0.02381300 -0.00676865 -0.00491803
H 1.14825142 6.55965569 6.50350533 0.02395204 -0.00050304 -0.00333100
H 4.19037893 6.55718296 10.63021786 -0.00026887 -0.02232558 0.00105250
H 3.69604902 2.17950421 7.21702640 0.00498027 -0.00542368 -0.01813058
H 1.29228697 2.76196537 1.06899922 -0.03329094 -0.02164406 0.01055273
H 1.38363592 8.03401995 4.37995143 -0.02840566 0.01380033 -0.02940930
H -1.99384079 5.29256430 35.27187324 0.00924574 0.01758375 -0.00271529
H -0.06452466 0.66017649 6.01957026 -0.00496444 -0.00783152 0.00907875
H 2.39232558 4.19891675 11.89421996 -0.00089903 0.04164969 -0.02266992
H 5.30869655 9.11053036 5.72670368 -0.01267171 0.01561559 -0.02453683
H 2.97463530 7.11767702 1.51079140 -0.00778490 -0.00624668 -0.00386841
H -0.11961473 2.21121842 4.03142744 -0.01590400 0.00588234 0.00536827
H 2.29899529 2.61472867 10.04373867 0.02072145 -0.00057994 -0.00704255
H 5.47473282 7.17731475 7.16909865 0.01824408 0.01700048 -0.02052434
H 5.12179091 4.84825814 9.60406615 -0.03251697 0.00878827 -0.00138647
H 2.90980350 0.27211051 8.00030997 0.00009993 -0.02056676 -0.00183863
H 0.25959407 4.83678635 2.18505543 0.00779245 -0.00754197 -0.00900686
H 2.56046705 9.80087377 3.45486098 -0.00994814 -0.01721190 0.02459139
H 6.44778670 2.84872962 8.18358691 -0.02060118 -0.00159763 -0.00075684
H 1.73634299 9.47678506 10.17240127 -0.00812422 0.00572146 0.00461480
H 18.41125831 5.70868743 4.54674069 -0.01973871 0.00075288 -0.01297316
H 4.46644929 1.45059372 1.41807111 0.01697484 0.01400081 -0.01193319
H 19.45689723 4.01944919 7.85624547 0.02994768 -0.00434285 0.01324372
H 1.98361391 7.92828055 9.32471181 0.02749966 -0.01153228 0.01896436
H 6.58213402 5.62553124 3.81031933 0.01342848 -0.00605921 0.02512277
H 2.84160785 0.79288709 1.65133491 0.02403990 -0.01803801 0.00569469
H 0.01560203 2.73297130 8.31420222 0.00583787 0.00811790 -0.00148514
H 0.34025549 8.34016160 9.73908063 0.01076327 -0.01103102 0.00435464
H 5.43930305 7.05196927 3.44583964 -0.01756348 -0.00061697 0.01483373
H 3.42162919 2.35145582 2.47376964 -0.00974494 0.00988790 -0.01082003
H -1.92201805 8.78422479 14.89852118 -0.00547665 -0.02204079 -0.00300615
H 1.02710895 3.92753592 14.85581484 -0.03804246 0.00679104 -0.00454562
H 3.85372637 0.79562332 21.01140269 -0.00429343 -0.00107541 -0.01615246
H 0.87080248 5.50552626 20.56030671 -0.00340762 -0.00862847 -0.00036538
H 4.09419254 8.29069220 12.44923158 0.00458516 0.00127349 -0.00958963
H 2.25365332 3.51799720 16.98342977 -0.01069232 0.03807519 -0.02392161
H -2.11816923 1.44590214 22.61159203 -0.00031643 -0.00021656 0.01666249
H -0.13855353 6.23989979 18.67441676 -0.00007056 0.00112483 0.01062727
H 2.34352015 6.80163103 22.70237000 -0.00139730 0.00066031 0.01505701
H 2.37357218 1.90727115 18.86907881 0.00304373 0.02353742 0.00184277
H -0.68704370 2.66140838 13.13236546 -0.03658428 -0.00500207 -0.00579592
H -0.03665392 7.75563805 16.55550233 0.00162665 0.02004859 0.01200302
H 1.08980142 5.37111979 11.72470914 0.01740814 0.01137571 -0.01293180
H -1.79054883 0.75284842 18.05284743 0.01940829 0.02012462 -0.00797924
H 0.93138446 4.34177842 23.92127249 0.00233477 -0.02286275 0.00864089
H 3.73673539 9.19713973 17.77971563 -0.00356970 -0.00167761 0.00354384
H 0.80539324 6.54112336 13.88458144 0.00962989 0.00353468 0.00601608
H -1.74631734 2.07631109 16.06507269 -0.00096478 0.01949197 0.00156604
H 0.97336725 2.83389185 21.97616074 0.00202942 -0.00723844 0.03235015
H 3.82079666 7.40513390 19.44558600 0.00614061 0.01596307 0.02046982
H 3.45005147 4.91801008 21.43464344 0.02551022 0.01319456 0.01063966
H 1.35638034 0.25496465 20.13765187 -0.03820981 -0.02864471 -0.00657852
H -1.49784567 4.31074129 14.04718958 0.01003902 0.02869715 0.01483083
H 0.70369782 9.63322508 15.65534762 0.00603605 -0.01626601 0.02100596
H 4.22083696 3.14863225 20.22752554 0.00839999 0.02258165 -0.01872885
H -0.86299968 7.63130477 21.49117495 0.01418376 -0.00646873 0.01411147
H 16.68890359 6.09185441 15.87595126 -0.01788060 -0.02807164 -0.00770468
H 1.64792692 0.31944355 13.32439677 0.00463374 -0.01125235 0.02898763
H -2.26528876 2.75990384 19.96743665 -0.00421727 0.00713254 0.02286363
H -0.70435840 9.05187649 22.53464401 0.01933000 0.00355153 -0.01275574
H 4.38536232 6.28896207 15.53516402 0.00589590 -0.00495640 -0.01837771
H 1.82980157 1.90971507 14.13489746 0.01559428 -0.00271098 0.01478120
H -1.00454735 3.79215300 19.13484637 0.02229470 0.00326329 -0.01800299
H 0.81184102 8.37994482 21.61440540 0.00436853 0.01669253 -0.00865945
H 3.16453113 7.18391567 14.66772999 0.01341597 0.01513836 -0.02252463
H 3.20433917 1.17213054 13.28526062 -0.00186839 0.01286168 -0.01411659
H -3.23234364 8.95220833 26.61782433 0.02015286 0.00307765 -0.01315905
H -0.40315204 4.33682177 26.93101639 -0.02570925 0.00224679 0.01519698
H 2.19374725 0.72173783 32.70667642 -0.00018415 0.00856403 -0.00353524
H -0.52600923 5.58669268 32.38254677 -0.01723865 0.02612292 -0.02262783
H 2.34003627 7.95236409 24.75337654 0.00976067 0.01007833 -0.01118700
H 0.70000693 3.49084906 28.98180325 0.01117564 -0.01151468 0.02510282
H -3.53131087 1.38398560 34.61883164 -0.02426350 0.01101914 0.01807652
H -1.68786403 6.30752501 30.51168623 0.00406806 0.01321891 -0.01738871
H 1.01550548 6.53515260 34.38501516 0.01498231 -0.01309770 0.00436687
H 0.77821068 1.73855748 30.74112003 -0.00854648 0.00194547 -0.00664530
H -1.91445146 3.06590743 24.59785213 0.01437909 0.00879655 0.02208091
H -1.57780740 7.57089889 28.47297290 0.01252069 -0.00135375 -0.00881432
H -0.41818109 5.20419072 23.55822552 -0.00042598 -0.00286407 -0.01144364
H -3.10724219 0.45320819 29.48773158 0.01123246 0.02170030 0.00226490
H -0.55813172 4.44332693 35.53995329 0.01384789 0.03329392 0.00315973
H 1.92961108 9.64590376 29.80307796 -0.00589726 -0.00295864 -0.00229201
H -0.41631534 7.16291212 25.41357023 0.00391109 -0.00452231 -0.00610151
H -3.14415132 2.05798764 27.74846003 -0.00078567 0.01540698 -0.00348117
H -0.65514207 3.07227076 33.51473853 0.00688806 -0.01276909 -0.01046349
H 2.24312763 7.71854161 31.48359644 -0.01586396 -0.00585015 0.00667958
H 1.90231941 4.99514560 33.45665641 0.00415958 0.01022531 -0.00774526
H -0.18946786 28.96221549 31.65429844 -0.02759408 -0.02424571 -0.02439466
H -2.94538162 4.69507205 25.81696555 -0.00455956 0.00229974 0.00468721
H -0.86336608 9.69426367 27.58277558 -0.05402803 0.01083522 -0.02956281
H 4.01455543 2.62137633 32.16661480 -0.01242780 0.01214180 0.00460038
H -2.36784050 7.54907859 33.15512658 0.02592810 -0.00351740 -0.00169102
H 15.46430638 6.20133997 28.11402969 -0.00909260 0.01612382 -0.00660764
H 2.02479909 1.14337303 25.36366080 -0.01600313 0.00491695 -0.01974159
H -2.80421773 2.75274073 31.80252174 0.00226888 -0.02625494 -0.01097428
H -2.71813254 8.79304178 34.44348901 -0.01048191 0.03397437 0.00769971
H 2.17168928 6.82506063 27.58897688 0.00005490 0.01386170 -0.00360954
H 0.71505495 0.15321567 25.05739125 0.03128442 -0.00591384 -0.00537046
H -3.61058093 3.99047785 30.83444918 0.00661564 0.01602613 0.01881863
H -1.13550962 8.60208894 33.71639365 -0.01313379 0.01294597 0.00366284
H 2.29335340 5.43560573 28.56991116 -0.00017909 0.00898471 -0.03745239
H 0.44720831 1.81769596 25.97061401 0.00789754 -0.00498798 -0.00864315
H -0.34332033 18.42615202 2.75203141 -0.02829509 0.00889468 -0.01855830
H 2.63249789 14.25085841 3.07663822 -0.00285049 -0.01230493 0.01447249
H 5.48661749 10.53284074 9.21366504 -0.01745775 0.02577814 -0.00672166
H 2.36229917 15.77398517 8.78530586 0.01649128 0.01436433 0.01810022
H 5.51260475 17.67924490 1.08086211 0.00681536 -0.04096071 0.01956791
H 3.93887969 13.49808415 5.21816863 -0.01290199 -0.02732464 0.00294818
H -0.26342310 11.21476271 11.16226296 0.00106079 -0.00476289 0.02415619
H 1.20471122 16.44197813 6.70483612 0.01089220 -0.01162193 0.01540010
H 4.09088131 16.26765689 10.81257473 -0.01554694 -0.01350968 0.00956646
H 4.07607247 11.51003235 6.78399047 -0.00099117 -0.02043361 0.01364989
H 1.20621665 13.17743463 1.40303409 -0.01677415 0.00737634 0.00429785
H 1.51305261 17.73775719 4.55969253 -0.00565856 -0.01526560 -0.01835110
H -2.01271839 15.38978060 35.27262068 0.00675923 -0.00619174 -0.01675373
H 0.06202992 10.23413247 5.73450840 -0.00897911 -0.01670306 -0.00768248
H 2.37919703 13.74060397 11.87150472 0.01244047 -0.01085427 -0.00138287
H 5.32322860 18.95874978 5.80482612 0.00297636 0.00222165 -0.02229138
H 2.77135480 17.39493011 1.39040381 -0.02459872 0.00479188 0.01312206
H 0.14319385 11.88328872 3.83420543 0.01761738 -0.00402479 -0.00261279
H 2.72187997 12.65437224 9.98426671 0.01601640 0.01057617 0.00446677
H 5.30243996 17.45146923 7.60681358 0.00782949 -0.00235519 0.00154933
H 5.26022829 14.47444326 9.61302439 0.01097532 -0.00856386 -0.01491891
H 2.97643648 9.81880568 7.90849795 0.00766696 0.00157522 -0.00090777
H 0.31248419 14.83029611 2.41018353 0.02944021 -0.00121050 -0.00992386
H 2.35237157 19.54034295 3.75838109 -0.02578732 -0.00090979 0.00594021
H 7.59648553 13.73267795 7.27191037 -0.03494579 0.00939874 -0.00267366
H 2.24083376 18.03420992 9.40294612 -0.01397331 -0.00305743 0.01333101
H 18.96079866 16.25353839 4.66635020 0.01125899 -0.00270143 0.01928959
H 3.05704558 10.93955963 1.91213553 0.01116376 0.01485774 -0.01261955
H 0.78892348 13.22326151 7.73832974 0.00942529 0.00953337 0.02340006
H 0.51037631 17.64460992 9.29982252 0.02957393 -0.00016109 -0.00661733
H 4.72927028 16.57924414 3.48792574 -0.00245686 0.01406544 -0.03328515
H 4.69858868 11.84123650 2.24572514 -0.01745674 0.00993502 0.02024771
H -0.65586092 14.11645486 7.57699560 0.00623529 -0.00702048 0.01827118
H 0.97313007 18.81350759 10.43879779 -0.00000109 -0.01141913 -0.02311741
H 5.21661917 15.30332914 4.50983408 -0.01155543 0.01008036 -0.01342813
H 4.61296848 10.47780543 1.24850279 -0.00667682 -0.00498972 0.00018074
H -1.75333397 18.63706630 14.99224734 0.01867063 -0.00934498 -0.03610183
H 1.38284438 13.85914573 15.13027255 -0.01485994 -0.01085766 -0.00905372
H 3.83706210 10.44479675 20.97830896 -0.01456677 0.03870985 -0.02715839
H 0.99349841 15.28001810 20.51467727 -0.02379468 0.00745933 -0.02226752
H 4.15972834 18.04005206 12.47975455 0.00299177 0.01443060 0.03750048
H 2.41730668 13.00031099 17.11239101 0.03950524 0.01171106 -0.01260105
H -1.83006272 10.98392864 23.49836181 0.01148542 -0.03953098 0.00088649
H 0.00098235 15.93238192 18.53077612 0.02898722 -0.00511339 -0.00591950
H 2.58160390 16.35042751 22.61149557 -0.02282873 0.00295490 0.02357055
H 2.21741339 11.84941844 19.23834423 0.01918429 0.01665616 -0.01746630
H -0.27325048 12.72393295 13.09832776 0.03140420 -0.00937621 -0.01026573
H -0.03065183 17.26011135 16.47992221 -0.00696638 -0.01177866 0.01932590
H 1.12827705 14.99181030 11.94794160 -0.00238283 -0.00984336 -0.02843990
H -1.67189458 10.38185151 18.02646113 -0.00537957 -0.00128579 0.00217331
H 1.04788455 13.96030886 24.04613060 0.00961840 -0.00190599 0.01113796
H 3.96993008 18.66138410 17.53299795 0.00908508 0.00172964 0.00543296
H 1.12644328 16.47811846 13.99886163 -0.00889016 0.00993431 0.00752787
H -1.69418741 12.26026927 16.38220116 0.01011058 0.00990847 -0.00302581
H 1.11816803 12.41697655 22.09850084 -0.00496471 0.01151891 -0.01142585
H 3.89486855 17.20131599 19.57563373 0.01260723 0.00816799 -0.01212874
H 3.63970066 14.62891274 21.48685413 0.01541520 -0.00153700 0.00195478
H 1.45885047 9.55254220 19.95026277 -0.01572447 0.01097859 -0.01054802
H -1.51265249 14.36241015 14.31367539 -0.01331057 0.02689787 -0.01488193
H 0.86726171 19.42399920 15.77361423 -0.00624713 -0.00891600 0.02591190
H 4.33373634 13.58220568 19.80831378 -0.02057129 -0.01496670 -0.01423686
H -1.27949630 17.51885786 21.67803465 -0.02259382 0.01468893 0.01852550
H 16.56219103 16.01282670 16.03095726 0.01580787 -0.01226924 -0.01767859
H 2.32349644 11.55575381 13.89138837 0.00761653 0.01621946 -0.01152850
H -1.76100169 12.32762806 20.72024537 -0.00853764 -0.01816586 -0.02504539
H -0.43374441 18.59609909 22.54780443 0.00100098 0.01878045 -0.01193069
H 5.10557342 15.63945382 15.73499695 -0.01844994 0.03166698 -0.00938660
H 3.15982994 10.13763751 13.22687949 -0.00765562 0.02072058 0.00620976
H -0.97121516 13.37934974 19.53233220 0.02911055 0.00657998 0.03350987
H 0.51540134 17.52735096 21.69626448 -0.00582871 0.01982223 0.00403563
H 3.82688058 16.73017620 15.27532052 0.01684327 0.01941466 -0.01491070
H 1.38471463 10.09280277 13.61770803 0.01874957 0.02174733 0.00485906
H -3.32872558 18.64469926 26.69590652 0.00558663 0.02415764 -0.00775681
H -0.12037930 14.03592504 27.20246584 -0.00946112 0.02505838 0.00976781
H 2.17137553 10.04439382 32.96833543 0.02361194 -0.01320383 -0.03088309
H -0.65310736 15.11485055 32.46790262 0.02586818 0.01312590 -0.02472784
H 2.36453831 17.78932544 24.61170254 0.01934154 -0.01552529 0.00665155
H 0.76201564 13.18501384 29.40556796 0.01338240 -0.00181967 -0.00106144
H -3.65460264 11.03281840 35.53548069 0.00851132 0.02304482 -0.00603286
H -1.78334333 15.84151927 30.58809136 -0.00243922 -0.00924714 0.00228001
H 0.71989480 16.10564662 34.78394334 0.01255279 -0.02058366 0.00269219
H 0.52285968 11.68034647 31.26715867 0.01753463 0.00041857 0.00215316
H -1.88389762 12.84285810 25.04834506 -0.00677410 0.00988093 0.03521508
H -1.92354228 17.22995384 28.70485915 0.00704655 0.00853936 0.01510045
H -0.38978288 14.99970935 23.89978227 0.01584916 -0.01215420 -0.02012272
H -3.36585297 10.45916629 30.00553694 0.01649189 0.00487160 0.03571219
H 4.04715718 13.78625121 0.20316554 0.01312969 -0.00854370 -0.00991854
H 1.94382358 18.79258319 29.62234735 -0.02967810 0.01790689 0.00247589
H -0.32871394 16.74535288 25.75945698 0.00659998 0.00239700 -0.00935222
H -3.11525736 12.09657681 28.05891749 0.00979663 0.01436435 -0.00467800
H -0.53533697 12.26664888 33.87963703 -0.02123304 0.01653906 0.00194086