2160
Time=5000.00000000 pbc="T T T" Lattice="20.57266609 0.00000000 0.00000000 0.00000000 28.86986134 0.00000000 -4.73267509 0.00000000 35.61438719" energy=-13795.11668998 virial="-2.07110920 -23.90737626 78.89009416 -23.90737626 -32.10136180 3.16824202 78.89009416 3.16824202 -71.62930138" stress="0.00287379 -0.00098209 0.00391033 -0.00098209 0.00050354 0.00018656 0.00391033 0.00018656 -0.00128209" Properties=species:S:1:pos:R:3:vel:R:3
O 0.66761363 8.49450489 2.52992025 0.00078938 0.00190309 -0.00482852
O 1.79600046 3.77902124 3.49347786 -0.00168948 0.00218078 -0.00397779
O 4.49976885 1.15298836 9.40975324 0.00040953 -0.00099863 0.00153575
O 3.27736627 5.82005446 8.57912544 -0.00101095 -0.00020807 -0.00085505
O 1.16943898 4.62301870 9.72584655 0.00333994 -0.00119060 0.00315171
O -0.11053652 9.87520203 8.46142710 0.00023673 0.00015942 0.00098724
O 4.11197594 4.65671179 2.41920927 0.00053435 0.00524068 0.00299106
O 5.35737653 28.62847013 3.47628059 -0.00243088 -0.00129497 0.00401670
O -0.90501893 8.57792381 14.36513238 0.00240160 -0.00014222 -0.00042574
O 0.41950602 3.56591334 15.27975779 -0.00323801 0.00029047 0.00083115
O 3.06010971 1.37006082 21.14228053 -0.00518667 -0.00403412 0.00264367
O 1.84906075 6.11757325 20.50320219 0.00022536 -0.00129798 -0.00208446
O -0.37103955 4.80709607 21.52308448 0.00054382 -0.00398526 -0.00112520
O -1.94267553 9.57338358 20.00394236 0.00224479 -0.00231120 0.00357792
O 2.40023481 4.85040203 14.17275383 -0.00026871 -0.00087429 0.00136843
O 4.09886172 0.02055444 15.54472956 0.00045867 0.00301677 -0.00013754
O -2.44127836 8.71768492 26.06841877 0.00015860 0.00112935 -0.00465466
O -1.16888649 3.68577860 27.31735898 -0.00048439 0.00007085 -0.00272291
O 1.39697120 1.10686853 33.08720595 -0.00032034 0.00431018 -0.00114926
O 0.32645474 5.62822083 32.03807460 -0.00494075 -0.00263800 -0.00162461
O -1.78492489 4.90395648 33.43027816 0.00310879 -0.00178416 -0.00005821
O -3.34415304 9.71789479 31.96561705 0.00376137 -0.00845840 -0.00059062
O 0.80253307 4.83073891 26.00002561 0.00231734 -0.00040067 0.00201419
O 2.36740473 28.66993535 27.12094848 -0.00633512 0.00652426 0.00090941
O 0.77714037 18.25937341 2.36189623 -0.00109170 0.00264959 0.00316447
O 1.97185607 13.17690484 3.37252960 0.00217981 -0.00162932 0.00413156
O 4.60475192 11.11530506 9.22536631 0.00117374 0.00414048 0.00243823
O 3.34872756 15.65646030 8.40863490 0.00209000 -0.00148778 -0.00136562
O 1.17501030 14.60373754 9.62603201 0.00115789 -0.00192308 -0.00242466
O -0.31306716 19.61707357 8.25056016 -0.00317340 0.00091220 0.00067011
O 4.27307186 13.97532253 2.48649234 0.00570863 -0.00221700 0.00165118
O 5.54873511 9.59967269 3.84705745 -0.00423857 -0.00126671 0.00178082
O -0.93660524 18.21091231 14.49727297 -0.00141856 -0.00082218 -0.00483768
O 0.44358402 13.23924718 15.41198770 0.00062930 -0.00780450 0.00301969
O 3.04011574 10.80144876 21.21407309 -0.00297560 -0.00043261 0.00065275
O 1.77713890 15.47045135 20.09546789 0.00117015 0.00081679 -0.00295010
O -0.28179770 14.65009673 21.37582260 0.00057168 0.00181644 0.00106684
O -1.87801712 19.17213317 20.18055485 -0.00076210 0.00508486 0.00021234
O 2.44648006 14.25277626 14.27634828 -0.00009362 0.00216608 -0.00057999
O 3.84428743 9.50748735 15.51836905 -0.00037644 -0.00087264 -0.00190504
O -2.41318170 18.06640370 26.44685506 0.00115067 -0.00126532 -0.00107359
O -1.09689330 13.17873028 27.11746955 -0.00086749 0.00174692 -0.00595646
O 1.30235728 10.43427162 33.13919056 -0.00075904 -0.00394056 -0.00292437
O 0.40785671 15.46306941 32.16251691 0.00303318 -0.00107931 -0.00353996
O -1.79044202 14.29211520 33.45546044 0.00468873 0.00087627 -0.00073125
O -3.31474441 19.50365199 32.06261984 0.00111609 0.00771397 -0.00352395
O 0.78591639 14.54568030 25.84553438 -0.00724488 0.00294980 -0.00112838
O 2.26953823 9.64898678 27.55495250 0.00440594 0.00481669 0.00201978
O 0.68767898 27.78270398 2.26810571 0.00078635 0.00513286 0.00161077
O 2.06476474 23.09999412 3.61527305 0.00135139 -0.00278694 0.00142993
O 4.60274925 20.23723109 9.50030980 0.00410757 0.00146677 -0.00388068
O 3.43274531 25.15767785 8.41789893 -0.00088834 0.00065087 -0.00007469
O 1.27623130 23.94982552 9.49210004 -0.00134252 -0.00231227 0.00339521
O -0.13556774 0.31016040 8.43897872 -0.00077848 -0.00472187 0.00097565
O 3.99412228 23.83326629 2.18538971 -0.00250319 0.00031530 0.00228898
O 5.53625554 19.11535983 3.58354792 0.00426467 -0.00153334 0.00199384
O -0.61601015 28.01833654 14.11628005 -0.00300506 -0.00250036 0.00508291
O 0.21346790 23.02364235 15.49034674 0.00201159 0.00272437 0.00509030
O 3.02645567 20.23056360 21.29589204 0.00152966 -0.00266454 0.00219084
O 2.04106799 24.99154615 20.11023424 -0.00017779 -0.00555443 -0.00298614
O -0.09776303 24.11334597 21.23411037 0.00089980 0.00077324 -0.00343520
O -1.96009631 28.86365211 19.96670741 0.00356834 0.00252480 -0.00273545
O 2.30162742 24.01830419 14.21047208 -0.00014864 0.00615588 -0.00069575
O 3.92157421 19.19016990 15.61804183 -0.00473997 0.00162333 0.00031169
O -2.33186741 27.85689659 25.98263552 0.00014092 -0.00265857 0.00484964
O -1.23425435 22.96088915 27.23759452 -0.00047402 0.00059721 0.00325977
O 1.36793191 20.15442367 33.04401922 -0.00013348 0.00191008 0.00477721
O 0.15994873 24.81082625 31.76186121 -0.00253235 -0.00262518 0.00383130
O -1.82228852 24.00789197 33.33795016 -0.00112997 -0.00126803 -0.00166740
O -3.19126427 0.12359899 32.02046461 -0.00373014 -0.00111587 0.00081838
O 0.82002994 23.95506824 25.91403414 0.00118397 -0.00399349 0.00160723
O 2.38871467 19.33966015 27.40402768 -0.00371975 -0.00139311 0.00431269
O 7.55798567 8.50086682 2.53142336 0.00529069 0.00022776 -0.00050485
O 8.79641084 3.72170810 3.52050530 0.00343661 -0.00018944 -0.00186999
O 11.34765291 1.17071986 9.57542406 0.00221030 -0.00035446 0.00089179
O 10.29710094 5.96280059 8.20517017 -0.00044813 0.00025463 -0.00497479
O 8.13869796 5.03150602 9.59688435 0.00204109 -0.00112802 0.00291839
O 6.68343666 10.10826862 8.31093466 0.00036324 0.00230724 -0.00143847
O 10.72830548 4.57322059 2.24493618 -0.00210616 0.00566192 0.00182307
O 12.33957356 28.81426393 3.72798159 -0.00274935 -0.00364079 -0.00021941
O 6.01767378 8.68363022 14.24870064 -0.00146096 -0.00503269 0.00080065
O 7.21229402 3.82876154 15.54032301 0.00162823 -0.00075500 0.00319664
O 9.63995864 1.10953479 21.29712672 -0.00008942 0.00104750 -0.00256136
O 8.75797531 5.85395549 20.17832651 0.00118147 -0.00214460 -0.00150817
O 6.61983309 5.19630957 21.60153098 0.00024542 0.00469587 -0.00553684
O 5.07056291 9.64761174 20.23616916 -0.00403552 0.00126915 -0.00010230
O 9.30549912 4.52823095 14.36030763 0.00050480 0.00108645 0.00126594
O 10.82861784 0.08831397 15.54785413 -0.00060198 -0.00311808 -0.00217771
O 4.26017358 8.53168648 26.35560000 0.00474708 -0.00332462 -0.00312752
O 5.49853776 3.90725717 27.24167963 -0.00156172 -0.00229811 0.00574887
O 8.36223869 1.37176003 33.01950170 0.00438680 0.00093416 0.00288455
O 7.10610008 5.88890411 32.18747469 0.00106690 0.00295353 -0.00149285
O 4.82185518 4.77340494 33.35978920 0.00021644 0.00245353 -0.00512254
O 3.46080730 9.66261661 32.00967645 -0.00498363 -0.00309882 -0.00190335
O 7.60177214 4.83489243 25.85740578 0.00353890 -0.00443056 -0.00599853
O 9.29384336 28.79959229 27.23401636 0.00049674 0.00488570 -0.00324873
O 7.60436188 17.94871685 2.38772466 -0.00003474 -0.00271151 0.00287590
O 8.83601716 13.24970255 3.31261900 -0.00030110 -0.00084045 0.00205098
O 11.46535945 11.00437997 9.29002616 -0.00646682 0.00099574 0.00905340
O 10.11526062 15.56317856 8.61433299 -0.01014504 0.00235358 0.00130998
O 8.08007470 14.37025426 9.82370425 0.00650120 -0.00161116 0.00123504
O 6.60095562 19.27367546 8.22481438 -0.00108224 -0.00262208 -0.00517098
O 10.87957639 14.48511117 2.38620553 -0.00669655 -0.00178316 -0.00471154
O 12.53304502 9.62077364 3.57271982 0.00213727 0.00369007 -0.00077481
O 5.92541675 17.98352159 14.60364904 -0.00168592 -0.00077501 -0.00191863
O 7.17670036 13.34597379 15.30583005 0.00337456 -0.00223112 0.00167006
O 9.68101050 10.77456188 21.26852835 0.00399587 -0.00146982 -0.00085718
O 8.60331203 15.58311984 20.52390765 -0.00154635 -0.00161157 0.00019002
O 6.41156491 14.39103819 21.46997597 -0.00165750 0.00279866 -0.00438689
O 5.19027787 19.21772372 20.21883116 0.00025331 0.00039901 0.00146257
O 9.21939654 14.50665553 14.11984457 0.00295924 -0.00033518 0.00379950
O 10.76503561 9.50225971 15.41319303 -0.00094262 0.00377092 -0.00247440
O 4.42955588 18.23030623 26.12009567 -0.00401946 0.00250212 -0.00307668
O 5.58912142 13.29785490 27.11685653 -0.00272147 -0.00280232 -0.00168772
O 8.30359357 10.63789151 33.25842630 0.00105873 -0.00339864 -0.00167387
O 7.34008714 15.54624341 32.08345968 -0.00103726 -0.00078656 -0.00205275
O 5.07792424 14.51186208 33.18932299 -0.00046639 0.00243911 -0.00171969
O 3.48515725 19.02272556 31.78048750 0.00189337 0.00122318 -0.00082988
O 7.74464940 14.35281939 26.03299751 0.00466436 0.00180036 0.00209819
O 9.25968628 9.64495638 27.52639066 -0.00231841 -0.00078011 -0.00346703
O 7.53173252 27.60984493 2.36274289 0.00578625 -0.00478362 -0.00343110
O 8.67798433 22.85003005 3.22472673 0.00134972 -0.00085456 0.00490378
O 11.38000986 20.37532744 9.38860568 -0.00140861 -0.00348149 0.00232818
O 10.21361340 25.19874375 8.48777912 -0.00071738 -0.00432394 -0.00348217
O 8.17444633 23.97297428 9.53053753 -0.00176197 0.00745674 0.00278745
O 6.60494391 0.18403265 8.16369858 0.00038457 -0.00206797 0.00313886
O 10.78236290 23.93460043 2.10360788 0.00025842 0.00019462 0.00179216
O 12.30178621 19.37791943 3.77491116 -0.00520502 0.00489191 0.00070715
O 5.99018388 27.49942628 14.42475606 0.00138190 0.00119497 -0.00411247
O 7.21440054 22.83338501 15.44792518 0.00070158 0.00038271 0.00265807
O 9.81981541 20.32745080 21.39421852 -0.00016552 0.00008005 0.00117313
O 8.82011263 24.92451881 20.14650272 -0.00212826 -0.00266293 0.00416436
O 6.75974141 23.96855331 21.33608886 0.00619286 -0.00509308 -0.00063103
O 4.94497713 28.81075301 20.09794812 0.01040680 -0.00325989 -0.00193511
O 9.41645805 23.78902493 14.44031638 -0.00058216 -0.00246015 0.00065358
O 10.81658032 19.09122043 15.63638697 0.00506766 0.00247069 0.00508551
O 4.57387397 27.77410143 25.95752999 0.00139941 -0.00269295 -0.00062294
O 5.69464280 23.09610986 27.23337206 -0.00188862 -0.00770716 0.00082605
O 8.26166166 20.36175827 33.18629225 0.00224024 0.00260934 0.00046733
O 7.01785540 25.32076389 32.03228056 -0.00258245 0.00610417 0.00420783
O 5.13676653 24.13917678 33.26609560 -0.00276771 0.00286741 0.00007014
O 3.55892871 28.70883777 31.63004878 -0.00425253 0.00052656 0.00083065
O 7.67470661 24.06361035 26.02890305 0.00041684 -0.00130127 -0.00098761
O 9.23894489 19.37107411 27.21535214 -0.00137297 0.00185311 0.00088022
O 14.60351538 8.70308488 2.33486498 -0.00163782 -0.00271461 -0.00238840
O 15.50160013 3.75211806 3.44711727 -0.00558264 -0.00146019 0.00586594
O 18.19717132 1.07161734 9.36695865 -0.00050100 -0.00230706 -0.00470606
O 17.16259576 5.99248078 8.63008368 0.00797755 0.00576382 -0.00011470
O 15.01070178 5.03052299 9.56612663 0.00038753 -0.00353434 0.00247111
O 13.48988982 9.58806414 8.13122410 0.00124174 0.00058349 -0.00057146
O 17.49588426 4.74087716 2.18101314 -0.00467695 0.00092732 -0.00400493
O 19.21215321 28.69937923 3.56115582 0.00062616 0.00150860 -0.00191288
O 12.84436522 8.53178514 14.36854239 0.00195745 -0.00068342 0.00051735
O 13.86869193 3.91268564 15.59433423 0.00219480 -0.00346037 -0.00615469
O 16.68776674 0.88693345 21.40990557 0.00332227 -0.00484271 0.00270373
O 15.25918515 6.08712255 20.56422122 0.00369302 0.00375319 -0.00414053
O 13.43480753 4.64843092 21.77096713 -0.00577463 0.00253823 -0.00471829
O 11.76349033 9.62530781 19.94728881 -0.00231164 -0.00170355 0.00142537
O 16.16338808 4.60794490 14.35020470 -0.00095464 -0.00074193 -0.00363009
O 17.59720147 28.58286124 15.10694212 -0.00073137 0.00203570 -0.00044501
O 11.10287324 8.49003505 26.31904121 -0.00046611 -0.00479705 0.00540485
O 12.47972842 3.81326059 27.27137832 0.00030840 0.00142004 0.00189862
O 15.23410290 1.07985210 33.20501149 0.00043924 -0.00390163 -0.00176287
O 13.96496645 6.11042769 32.35183539 -0.00362801 0.00885383 -0.00376007
O 12.02280642 4.70283454 33.42209567 0.00036794 -0.00441204 0.00421686
O 10.24545366 9.76070871 31.84628798 0.00567043 -0.00737193 0.00124525
O 14.50437263 4.74247371 26.00594165 -0.00132560 -0.00190625 0.00622730
O 16.09128381 28.75230655 27.40599552 0.00144636 0.00210959 -0.00588318
O 14.47864841 18.30298703 2.46045601 0.00323713 0.00031211 -0.00315846
O 15.72283881 13.30305182 3.58544271 -0.00035925 0.00182885 -0.00434482
O 18.30239218 10.69917036 9.62265433 -0.00542837 -0.00985584 -0.00205533
O 17.26125702 15.38823129 8.31625070 0.00533035 0.00036783 0.00196422
O 14.83765912 14.97290369 9.16494799 -0.00028261 -0.00406414 -0.00044325
O 13.32829569 19.26983021 8.27472868 0.00314291 0.00137164 0.00777357
O 17.57424841 14.47139215 2.41273589 -0.00146638 0.00186992 0.00246634
O 19.21285247 9.42309720 3.58776771 0.00244849 -0.00256391 0.00092772
O 12.71250493 18.05941529 14.41849244 0.00176387 0.00251982 -0.00111689
O 13.79102875 13.33930360 15.33745197 -0.00047166 0.00586094 -0.00352423
O 16.66802923 10.59685709 21.42067085 0.00128537 -0.00013477 0.00124803
O 15.58917565 15.49469878 20.28934846 0.00274068 -0.00427938 0.00108572
O 13.48883753 14.45961904 21.51918110 0.00158862 0.00256594 -0.00252838
O 11.78028467 19.52706681 19.99921668 0.00015453 -0.00028975 0.00298056
O 16.00603283 14.42238043 14.30562188 -0.00468142 0.00373786 0.00208398
O 17.71651719 9.66532101 15.72893759 0.00007980 -0.00110050 0.00153048
O 11.31948477 18.15711359 26.37104839 0.00008939 -0.00049829 -0.00377489
O 12.46236066 13.50961596 27.27686223 0.00245090 -0.00462642 0.00506618
O 15.11130735 10.51406049 33.39486469 -0.00188110 0.00044460 -0.00235652
O 14.07173835 15.57299375 32.26404409 -0.00192058 0.00142266 0.00188809
O 11.99722729 14.46267798 33.45890739 0.00078969 -0.00033584 -0.00176158
O 10.21203235 19.38066701 31.96964638 -0.00050544 -0.00464354 -0.00026533
O 14.63638600 14.43716964 26.13732491 0.00485120 0.00225632 0.00172772
O 15.89136794 9.50482028 27.50302185 -0.00549152 -0.00293865 0.00085072
O 14.35275039 27.83666621 2.30064659 0.00543261 -0.00094602 -0.00010648
O 15.69092904 22.80713968 3.38335179 -0.00290746 0.00231393 0.00203601
O 18.17934242 20.27266861 9.54200624 0.00398006 0.00606956 0.00373831
O 17.18539628 25.14025485 8.30652739 0.00160875 0.00069498 0.00519250
O 15.09861000 24.14985309 9.53614605 0.00356154 -0.00109761 -0.00018209
O 13.37267722 0.20197232 8.38507270 0.00897943 0.00284668 0.00187802
O 17.70998858 23.96021135 2.15672823 -0.00331217 -0.00365130 0.00046881
O 19.21159441 19.11293852 3.66550373 0.00117541 -0.00301917 -0.00231810
O 13.01846338 27.90115688 14.50440804 -0.00549310 0.00128969 -0.00454895
O 14.19665354 22.94875886 15.26137631 -0.00224837 -0.00319853 0.00237016
O 16.75735498 20.40609668 21.10305174 -0.00110810 -0.00000112 0.00032323
O 15.60129802 24.76478956 19.80767198 -0.00089036 0.00101490 -0.00143120
O 13.66360182 24.13350790 21.48928427 0.00351326 0.00310067 0.00136199
O 11.84488958 0.19966499 20.30106092 0.00640382 -0.00632958 -0.00511393
O 16.19441436 24.30698857 14.09878035 -0.00199472 -0.00016746 -0.00128684
O 17.67133325 19.18889105 15.62417008 0.00292812 -0.00277043 0.00218035
O 11.45732129 27.91088117 26.05683227 0.00182206 -0.00088630 -0.00365569
O 12.40945732 22.89481242 27.19605438 0.00466444 -0.00006480 -0.00206459
O 15.04534878 20.07649421 33.18222474 0.00236319 0.00283705 0.00173026
O 13.86614950 24.91772856 31.94720038 0.00199130 -0.00112310 -0.00274488
O 11.89224277 23.93057248 33.25194043 0.00434095 -0.00358828 0.00292440
O 10.37477291 0.08509386 31.93387405 0.00306726 -0.00221977 -0.00132649
O 14.55408160 23.72005150 26.06106778 -0.00070723 0.00114792 -0.00393393
O 16.11842312 19.33835911 27.50681001 -0.00413587 0.00515454 0.00106703
H -0.24297715 8.85341814 2.87640210 -0.00785635 -0.00674986 0.00200784
H 2.73851994 4.04597583 3.24121105 -0.02975749 0.01689867 -0.01660179
H 5.39087888 0.66863199 9.19979751 -0.01177135 -0.00284418 0.01580996
H 2.39053607 5.27311796 8.81940383 0.02353094 0.02240039 -0.01473040
H 5.48034654 8.21223012 0.76056739 -0.00794859 0.01904811 -0.00936189
H 3.84057503 3.37081489 5.03161907 0.01540342 0.01387400 0.00304947
H -0.30581271 1.58910389 10.88937736 0.01340034 0.00040148 -0.02154080
H 1.25330346 6.19282790 6.86786915 -0.01461292 -0.00351289 -0.00739929
H 4.05638405 6.68450576 10.67768207 0.01903583 -0.01206333 0.00811864
H 3.82148038 1.86693149 6.99592711 -0.00173999 0.00100427 -0.00826292
H 1.00214094 2.91179354 1.39126682 0.02649316 0.01875136 0.00535890
H 1.41063549 7.58965617 4.81247268 -0.03430123 -0.01838193 -0.02638682
H -2.02677605 5.51357522 35.53073837 0.00969821 0.00887933 0.00247694
H -0.20423678 0.63205649 6.01551072 0.03665602 0.03927268 -0.00713952
H 2.49267911 4.06316506 11.99806188 -0.02345421 -0.00740799 -0.00403669
H 5.35374031 8.98727736 6.08729447 0.00176824 -0.00352331 0.00990666
H 2.71238198 6.99086137 1.72101723 0.01346753 0.00214289 -0.00842938
H -0.32143641 2.46713133 4.44256642 -0.02357159 -0.01038094 0.00151770
H 2.53486504 2.43925741 10.23507426 -0.00904570 0.01774440 -0.00144818
H 5.32304009 7.40564419 7.68958363 -0.00817198 -0.00774915 0.00230642
H 4.99447029 4.50528072 9.81123762 -0.00174359 -0.00419365 0.00084772
H 3.00829061 0.10100830 8.15265970 -0.03800884 -0.02146105 -0.01176387
H -0.06714109 4.70922207 2.52162788 0.02327103 0.00895557 0.03159285
H 2.39050199 9.38906921 3.62764228 -0.00831267 -0.00226384 -0.01041133
H 5.67437376 3.56708578 8.20781058 0.03060487 0.01374665 0.02392599
H 0.90125406 9.01166210 10.68349151 -0.01605225 0.01155853 -0.00082008
H 18.35617133 7.15669314 3.29688272 0.01235877 -0.01342108 0.02285322
H 4.43753988 0.77325930 1.32181793 0.02717180 0.01084735 -0.02951788
H -0.51226094 2.55570511 8.60539274 -0.00358176 0.00453284 0.00923292
H 2.43186168 8.71707894 9.92696418 0.01733708 0.01002603 0.00461758
H 6.66640154 5.75100636 4.17229266 -0.04576348 -0.00374772 -0.00838192
H 2.98792091 1.52588052 2.11668216 -0.05503548 -0.01304498 0.00814563
H 0.57998487 3.63838144 7.57208606 0.03095788 0.00570975 -0.02175994
H 1.04359900 7.63344127 9.73495250 0.00012904 -0.00385527 0.00665121
H 5.40966916 6.84684919 3.70402386 -0.00325395 0.00841272 0.00857631
H 4.60952144 2.15307243 2.43594227 -0.00275844 0.01494172 0.00337077
H -1.68728191 9.06020225 14.66863319 0.01706893 -0.01845525 -0.01920213
H 1.27119516 4.00422030 15.10003321 -0.01677729 0.01296484 0.01099341
H 3.78107549 0.76767829 20.99880983 -0.01530885 -0.01448858 0.00552587
H 1.16540323 5.41339413 20.58582974 -0.00912808 -0.00366341 0.01249006
H 3.99558360 8.17858910 12.75370120 -0.00988124 -0.00805960 -0.02682938
H 2.32261236 3.32896621 17.19114284 -0.00314627 -0.00030508 0.00481839
H -2.01654451 1.18396627 23.16593072 0.00749512 0.00705945 0.00677353
H 0.01858493 6.02307171 18.71856487 0.00294386 0.00882825 0.00010211
H 2.36806575 6.82585159 22.67483127 -0.00517159 0.00298229 0.01401668
H 2.20471406 2.00479656 19.12983377 0.01571390 0.00118972 -0.00036575
H -0.42539884 3.06040103 12.88900251 -0.00661905 0.00069435 0.02563608
H -0.26493969 7.43322162 16.70997197 -0.00490471 -0.01244054 -0.00159680
H 0.94820034 5.40854453 11.76841952 -0.01552399 0.01131724 0.01904825
H -1.67905094 0.52906818 17.95080639 -0.01182333 -0.01918496 -0.01355822
H 0.97457500 4.27453841 23.85315451 -0.02517171 0.00168282 -0.00483806
H 3.76286283 8.96182063 17.56455556 -0.01941861 0.00512002 -0.00211937
H 1.04683961 7.04943861 13.67899335 0.01689845 0.01319750 -0.01097823
H -1.48298309 2.02347972 15.77976728 -0.00635305 -0.00723273 0.02352985
H 1.02425713 2.79522399 21.80780832 0.00493850 -0.00847700 -0.01327254
H 3.77274302 7.65409551 19.64403072 -0.00504598 0.00512037 -0.01634152
H 3.39923020 5.19618861 21.46455274 -0.04121386 -0.01091466 -0.02283472
H 1.17835190 28.81456317 20.03850849 -0.02475957 -0.02609874 0.00474494
H -1.35342128 4.74385537 14.05506605 0.01702051 0.00710102 0.01428248
H 0.68096397 9.44564263 15.45766666 -0.02636934 0.00427082 -0.01220976
H 5.77818811 4.04406473 19.34825193 -0.02249040 -0.00726015 0.00587284
H 0.71654433 8.34683299 21.54613335 0.00922449 -0.01516325 0.01496751
H 18.46594117 6.11460485 15.66470315 0.03369569 0.00963307 0.01159716
H 2.78057664 2.37850061 14.62136560 0.01386729 0.02311213 0.00220935
H -0.98540450 3.59103659 19.22007561 -0.00389674 0.01332558 0.00279118
H -1.02464793 7.48151023 21.34627560 0.01592955 0.01100508 -0.01059065
H 3.10737833 5.84054070 16.25386333 -0.03951532 -0.00985252 0.01783289
H 3.26679485 1.25368114 13.39988981 0.00482403 -0.00189142 -0.00547603
H -2.56777712 4.41813407 19.32979544 0.00422021 -0.05027134 0.01619347
H -0.90379468 8.92292906 22.34382680 -0.00904036 0.00506243 0.01941838
H 4.85864284 5.84510764 16.00367472 -0.01310216 0.03338523 0.00824045
H 1.50489164 1.19650542 13.90466441 -0.05927693 0.00649722 -0.04256606
H -3.25917681 8.91714766 26.46376151 -0.02083259 0.00136955 0.02364237
H -0.30122661 4.23648255 27.05149947 -0.01398936 -0.01409267 -0.00581000
H 2.31882868 0.61967937 32.99527717 -0.00178929 -0.01735411 0.00634715
H -0.55228876 5.17654934 32.43249649 0.01192115 0.02243277 -0.00600922
H 2.39706243 8.18448149 24.74804902 0.00105642 -0.00629232 -0.00245779
H 0.90124018 3.24222322 28.93825316 0.01352820 -0.00296695 0.02362863
H -3.31156616 1.57758224 34.93366476 0.00146784 -0.00127441 0.00022919
H -1.75881901 6.00569290 30.33322203 0.00955090 -0.00221827 0.00519159
H 0.74640995 6.69011313 34.48201627 -0.00036684 0.00955860 -0.00067691
H 1.01520552 1.52640926 30.76585507 -0.01342598 -0.00962317 0.01732794
H -2.02606139 2.89428693 25.00749503 -0.01447623 0.00514694 -0.01101924
H -1.88007098 7.74306768 28.61669679 0.01644422 0.02315067 0.00744131
H -0.48528740 5.51031467 23.73673601 -0.00702514 0.00402549 -0.01199879
H -3.12519405 0.50421344 29.95693934 0.03288563 0.01684751 -0.00631553
H 4.12412962 4.18292989 0.18887013 0.01919281 0.00905594 0.01288724
H 2.05322797 9.16049250 29.60125993 0.01050167 -0.01950742 0.00005310
H -0.53808665 7.02095926 25.65813010 -0.00267274 0.01771088 0.00171804
H -3.17400062 2.26989106 28.20052418 -0.01413380 0.00546187 0.00986990
H -0.72347854 2.50883718 34.10190457 -0.01103089 -0.00295789 -0.00253353
H 2.22424401 7.34261616 31.41812951 -0.02076785 -0.00107899 0.01424764
H 1.72598458 4.92391083 33.37922392 -0.00770792 0.02189559 0.01011160
H -0.10871039 28.67074129 31.67915388 0.04923889 0.00776608 -0.00757448
H -2.95969847 4.69789985 25.81935651 -0.02621573 -0.00082634 -0.00254581
H -0.89740282 9.45426465 27.50067203 -0.03756512 -0.00295519 -0.03040843
H 3.72322039 2.50024845 32.23861488 0.00897137 -0.01874616 -0.02310701
H -1.05838178 8.78186577 33.98496235 -0.00277369 -0.02722419 0.01704256
H 16.85031959 5.87229572 27.83922643 -0.03796279 0.00353274 -0.00004382
H 1.06894986 2.21430769 26.31622231 0.01356678 0.05691152 0.00583316
H -3.95342856 2.90939445 32.29175967 0.04859989 0.02951589 -0.02143312
H -1.85482359 7.49433642 33.10996892 -0.00126893 0.00644144 0.00129589
H 3.44520350 6.27382864 27.28033250 -0.03201687 0.00002316 0.00533661
H 1.64026468 1.25416696 25.04736147 0.01945806 -0.00327167 0.00708109
H -2.32713166 3.10805013 31.67372175 0.01342611 -0.03415692 -0.01019797
H -2.74960400 8.55679613 34.03425888 -0.00776145 -0.00125343 0.02301868
H 1.89570770 7.12373120 27.04986403 -0.01545490 0.01139385 0.00085805
H 0.00615858 1.19643716 25.38691644 0.02400429 -0.00111494 0.00389453
H -0.14323661 18.65944359 2.65267770 -0.00204690 0.01276826 0.00102164
H 2.83758324 13.38826095 2.99917401 -0.01759880 -0.00706457 -0.00395616
H 5.39355501 10.57284647 9.09485384 0.01669063 -0.00460651 -0.00893417
H 2.43467875 15.45814230 8.74707965 -0.03066620 -0.01166656 0.00826821
H 5.58995785 17.52125865 0.69715897 -0.00431101 -0.00149822 -0.00517370
H 3.85204741 13.06263387 5.13872434 0.01700745 -0.00471910 -0.00414431
H -0.17953517 11.36968051 11.25791879 -0.01805585 0.00484171 0.00386295
H 1.39208414 15.90574429 6.73534211 -0.00095201 0.00728995 -0.00150474
H 4.11257064 16.45107054 10.76851505 -0.01836266 -0.00914759 0.01103493
H 3.99643753 11.45201477 7.03356371 -0.01506427 -0.00489948 -0.02821173
H 1.06960275 12.53142129 1.36838676 -0.02747627 0.00366129 -0.02120427
H 1.39706610 17.43703099 4.68695678 -0.01945663 -0.00336138 -0.00086760
H 2.71849790 14.94361224 0.00356680 0.01873525 -0.01604821 0.00434375
H 0.06068063 10.17743049 6.18126602 0.00055217 0.00430928 0.02025678
H 2.51690574 13.96482018 12.09966896 0.01441256 0.01810822 0.01692477
H 5.26938288 18.82879450 5.70437350 -0.02292276 -0.03595012 0.02180805
H 2.78613274 16.64445451 1.62841890 0.00223463 -0.01604783 -0.01838035
H -0.07637026 11.75976554 4.34204076 0.02813138 -0.02642183 0.00917985
H 2.55123422 12.60304422 10.07795522 -0.02120066 -0.00237608 0.01111135
H 5.37823440 16.84780980 7.62087271 -0.01508542 0.01229945 -0.02451137
H 5.07521447 14.68092004 9.56177939 -0.04750369 0.00599574 -0.01765342
H 3.03771089 9.77996782 8.21233534 -0.07282961 0.01752294 -0.03166965
H 0.28413945 14.43055789 2.36420343 0.01507128 0.00204104 -0.01041488
H 2.42680370 19.23368264 3.63737767 0.01046963 -0.01252663 0.00950903
H 5.51865937 13.32648350 8.19830646 -0.00809924 -0.01862739 0.00558398
H 0.38614918 17.02342828 9.01010768 -0.02729747 -0.02712175 -0.02198046
H -0.35845848 15.25550079 4.08393116 0.03750015 -0.02784995 -0.01343585
H 4.35093887 11.84234406 2.70300476 0.00604814 0.01903087 0.00913545
H 0.22836887 13.64248438 7.46613751 -0.02068469 0.01340559 0.00150404
H 0.61848291 18.17934723 10.41389382 0.00715074 0.01541765 0.02753594
H 5.63118333 14.83702481 4.66494177 0.00890887 0.02675870 -0.04868797
H 4.54279879 10.58456186 1.56000950 0.03007249 -0.01604604 -0.05459705
H 19.14239820 13.48717670 8.09496331 -0.00971114 -0.01731940 -0.00700355
H 2.05365541 17.70746982 9.43680700 -0.03504361 0.00716479 0.02438814
H 6.86568145 15.74394609 3.57452090 0.02900208 0.02367159 -0.01128277
H 2.91155253 10.79393760 2.25630599 0.01506873 -0.00639631 -0.00639325
H -1.79506213 18.63222415 14.67628350 -0.01836180 -0.01611054 -0.02479575
H 1.20493919 13.73867196 15.17314084 0.01147781 0.00220418 0.00785945
H 3.90784653 10.43541135 20.93755780 -0.00193039 0.01015021 -0.00701176
H 0.84307407 15.30130357 20.43067913 0.00489893 0.00221570 -0.00382546
H 3.96928140 17.81882625 12.63921078 -0.01478079 0.02205977 0.02049316
H 2.22548770 13.12160566 17.26984670 0.01485079 -0.00944142 0.00384158
H -1.92869762 11.21811548 23.06892827 0.02938847 0.01371761 0.00093889
H -0.12767772 15.87716384 18.46085646 0.02050731 0.02048283 0.01858059
H 2.41989674 16.43647837 22.53372038 0.03476516 0.00604689 -0.00045540
H 2.28419579 11.50310376 19.18269686 0.00702975 -0.02352222 -0.01729365
H -0.37756235 12.84425052 13.12878840 0.01858651 0.00748157 -0.00127981
H -0.17768570 17.60741071 16.65843768 0.02405721 0.02460057 0.02012864
H 1.12076122 15.26982455 11.85162746 0.00747017 -0.00054390 -0.01159472
H -1.77995293 10.27125562 18.06794456 0.00760862 0.01109192 0.00351873
H 0.92153181 13.71773017 24.02315300 -0.03263815 -0.01431091 -0.00878954
H 3.64753865 18.88466344 17.77517976 0.03040296 -0.01357178 0.00394085
H 1.22234269 16.69720478 13.65476151 -0.04379681 0.00080537 -0.01211541
H -1.68296640 11.90915962 16.13503801 0.01026384 0.00367371 -0.01533940
H 0.94274980 12.19155524 22.07116498 0.02441343 0.01327331 0.02465265
H 3.67065420 17.09433205 19.57568419 -0.02313121 0.01029877 -0.03489152
H 3.32090192 14.41470891 21.54683231 0.03646680 0.00093153 0.00593066
H 1.31671783 9.56798466 20.00012296 0.01135958 0.00963438 0.00508244
H -1.35514893 14.36355007 14.35411847 -0.02638280 0.00322973 -0.01057416
H 0.88028240 19.21588699 15.47578542 -0.00944466 0.00493349 0.00120050
H 3.83796827 13.12202851 19.90437088 -0.01741675 0.01642110 -0.00540426
H 0.67424758 17.82399421 21.53638729 -0.03610478 -0.00303696 0.00495016
H 17.69412914 16.65901922 15.39595428 -0.00885663 -0.00832789 -0.00251142
H 1.45399634 11.18031691 14.19930463 -0.00425662 0.00576385 -0.00222552
H -0.94160961 13.45713108 19.19678443 0.00186871 -0.00927465 -0.01712542
H -0.89921746 16.96441177 21.25971210 -0.00885109 -0.03435718 0.00115192
H 3.04141228 15.40471696 16.49647585 0.00549519 0.00502111 -0.01256207
H 3.06837083 11.72590144 14.47113601 -0.05568315 -0.01613536 -0.01296949
H 17.77697106 13.41958093 19.69468524 -0.00623204 0.00247925 -0.01481650
H -0.64740720 18.22078981 22.44468388 0.00029183 -0.01818283 0.00868639
H 4.53364823 15.99870459 15.85155738 0.00020948 0.00550893 0.00975441
H 2.86088837 10.48811208 13.25103911 -0.00256739 -0.02723179 -0.01612867
H -3.34075847 18.48136998 26.69434210 0.02483235 -0.03018536 -0.01321817
H -0.31048550 13.70786180 26.91504467 -0.03878092 -0.00384751 0.00798910
H 2.21695322 10.16283786 32.83606592 0.03005907 0.01750231 0.00996258
H -0.52367311 15.28438008 32.46662756 0.00517885 -0.01058625 0.00279524
H 2.36037697 17.92464731 24.43092422 -0.00654503 0.00607267 -0.00348913
H 0.77248883 13.00371679 29.08423854 -0.01412142 0.01531462 0.01349253
H -3.59935734 10.84965095 35.19916346 -0.00501853 0.01698678 0.00016091
H -1.65004741 15.72208805 30.59397856 -0.01554804 -0.00881195 0.02051798
H 0.99596366 16.02762266 34.31691231 -0.00405452 -0.01262620 -0.00225851
H 0.70331512 11.64096761 31.04167866 0.03691611 0.00449511 0.01051253
H -1.98826234 12.53882463 24.94291081 0.03129100 0.00916387 0.02629080
H -1.67988866 17.33375279 28.55078283 0.00109329 -0.00521607 0.01420920
H -0.50420469 14.96273619 23.76497420 0.01730840 0.01407074 -0.01085500
H -3.18891659 10.14929068 29.77496317 0.01356910 -0.00710434 -0.00361004
H 4.14358125 13.69858958 0.11913546 -0.00314598 0.00970368 0.01120633
H 2.28190703 18.51941338 29.49725014 -0.00472030 -0.00648316 0.01250454
H -0.43723464 16.56654521 25.56222961 -0.01566806 0.01982944 -0.01669763
H -3.23074686 11.82141900 28.04916573 0.01442673 -0.00570976 0.00425635
H -0.64240316 11.95912764 33.94157178 0.01216194 0.00054177 -0.01806624