2160
Time=58000.00000005 pbc="T T T" Lattice="20.57377506 0.00000000 0.00000000 0.00000000 29.05844400 0.00000000 -4.73248438 0.00000000 35.61151704" energy=-13796.48659414 virial="-75.58539340 -24.11367664 82.06397660 -24.11367664 -58.19165432 -17.77319706 82.06397660 -17.77319706 -37.79110431" stress="-0.00103444 -0.00109146 0.00386260 -0.00109146 -0.00030062 -0.00080891 0.00386260 -0.00080891 0.00067343" Properties=species:S:1:pos:R:3:vel:R:3
O 0.60766868 8.56460114 2.71084366 0.00004746 0.00147686 0.00819974
O 1.83581265 3.41919524 3.35609507 0.00214510 -0.01009096 -0.00182381
O 4.59071142 1.21737274 9.67676132 -0.00044251 0.00502901 -0.00269980
O 3.22923199 6.00026732 8.19090625 0.00508840 -0.00080470 0.00212377
O 1.25056386 5.04287231 9.45961593 0.00110016 -0.00553209 0.00094942
O -0.19907165 10.07456074 8.22257047 0.00251932 -0.00116759 0.00214457
O 3.81658678 4.97172349 2.18668690 -0.00181216 0.00353220 -0.00207787
O 5.47780866 28.95565428 3.72387840 0.00397010 0.00105365 -0.00291984
O -0.72744537 8.86597874 14.15778586 0.00082175 0.00519541 -0.00020688
O 0.45237665 4.06537499 15.33180282 0.00281319 -0.00260368 -0.00786279
O 2.96375591 1.20791090 21.15145577 0.00099664 -0.00310862 -0.00001704
O 1.84793260 6.13209714 20.32900851 0.00548086 -0.00182884 -0.00310161
O -0.17029918 5.03718345 21.37218577 0.00344638 -0.00017139 0.00004659
O -1.90522243 9.79034231 19.85484001 -0.00415454 -0.00161438 -0.00165263
O 2.28113164 5.11686682 14.04639693 -0.00468469 0.00390669 -0.00007799
O 3.73104051 28.68787896 15.10864231 -0.00235888 0.00572711 0.00318620
O -2.40156547 8.38530912 26.15018452 -0.00799662 -0.00387877 -0.00415214
O -1.31777565 3.61490595 27.41159254 0.00155745 -0.00493573 -0.00335888
O 1.26900957 0.87510966 33.39556838 -0.00399404 -0.00147136 -0.00192511
O 0.03825752 5.50698125 31.98904296 -0.00009456 0.00107199 0.00148885
O -2.08363955 5.17222631 33.50885546 0.00211462 0.00014193 0.00079330
O -3.32104962 9.78011146 32.12196172 0.00557010 -0.00051044 0.00124163
O 0.77912580 4.47866457 26.09467369 -0.00329917 0.00265599 0.00759327
O 2.53077729 28.95645284 27.49956300 -0.00220156 0.00219842 -0.00777240
O 0.78114568 18.11585628 2.47885127 0.00087082 0.00051805 -0.00311953
O 1.87567532 13.53895573 3.42718017 0.00606646 0.00187424 -0.00903932
O 4.57389655 10.52893395 9.73743651 0.00153786 -0.00458503 -0.00727414
O 3.50062067 15.48682743 8.68292066 0.00106714 -0.00173843 0.00322557
O 1.37275584 14.24566041 9.88074455 0.00330074 0.00285783 0.00119202
O -0.28700617 19.41842613 8.21491114 -0.00572457 0.00513302 -0.00541576
O 4.04472650 14.70640402 2.28373188 -0.00307698 0.00095907 0.00425274
O 5.46737976 9.70569808 3.32371431 -0.00307190 0.00121320 -0.00042221
O -0.71262046 18.15923881 14.29361378 -0.00002176 -0.00236277 -0.00176797
O 0.32497828 13.24396310 15.04024504 0.00015091 -0.00103737 -0.00154100
O 2.90498360 10.78594554 21.36800195 0.00122690 -0.00234416 0.00364020
O 1.84035155 15.75175314 20.39192891 -0.00114571 -0.00390609 0.00690452
O -0.30304681 14.59520769 21.51559703 -0.00235104 -0.00149779 -0.00021645
O -1.71710272 19.53842381 20.26302407 -0.00000910 -0.00722372 -0.00002127
O 2.46436738 14.28227779 14.17187985 -0.00134236 -0.00350937 -0.00112024
O 3.89263169 9.70788030 15.68165771 -0.00390292 0.00666063 0.00600955
O -2.48832329 18.01180860 26.14147420 0.00298665 -0.00173829 -0.00173194
O -1.38033146 13.62928609 27.42802477 -0.00104180 -0.00187322 -0.00214194
O 1.49175033 10.95943805 33.04688543 -0.00169958 0.00391348 -0.00058365
O 0.06066014 15.69276347 32.02394877 -0.00017429 -0.00005094 0.00932499
O -1.82960527 14.61290417 33.30259918 0.00350122 -0.00397322 -0.00358170
O -3.31517630 19.41049375 32.01903230 0.00385527 -0.00511635 0.00388705
O 0.79084928 14.31391328 25.84855756 0.00413617 0.00962408 0.00097570
O 2.35126598 9.28106111 27.49583103 0.00160698 0.00400429 0.00394937
O 0.65230529 27.62270382 2.51181848 -0.00382280 0.00272888 -0.00398189
O 2.11782406 23.10505174 3.46005524 0.00324588 -0.00083516 0.00688961
O 4.32334072 20.17019204 9.66103330 0.00009379 -0.00121698 0.00381791
O 3.18148702 25.50080713 8.60973140 0.00160316 -0.00126519 0.00413117
O 1.49407600 24.14000296 9.78577241 -0.00027624 0.00043985 -0.00537086
O -0.58214081 0.06377005 8.33567208 -0.00637181 0.00031342 -0.00530109
O 3.83531323 24.04028813 1.87508635 -0.00735971 0.00531887 -0.00224848
O 5.42321112 19.13617600 3.89931601 0.00203973 -0.00251626 0.00211116
O -1.07372103 28.15086341 14.26457972 -0.00191786 0.00128515 0.00325113
O 0.27759480 23.75981832 15.90650067 -0.00330783 -0.00152535 0.00693396
O 3.01684804 20.44033140 21.18675490 -0.00792789 -0.00309823 0.01079103
O 1.85140939 25.40592585 20.06041638 -0.00167901 0.00055887 0.00640201
O -0.31323239 24.56768757 21.14248101 -0.00033462 -0.00350988 -0.00442110
O -1.60156083 0.29543076 20.10673445 -0.00174173 -0.00208127 0.00354564
O 2.39163590 24.15243618 14.23862551 -0.00013853 0.00105293 0.00125022
O 4.17168493 19.13285236 15.44285314 0.00281991 -0.00088547 0.00101192
O -2.40860359 27.80300462 26.40748625 0.00387532 -0.00764380 -0.00268755
O -1.35817216 23.21475163 27.36461353 -0.00044253 0.00001814 0.00362436
O 1.42471294 20.02025331 33.21630817 0.00305395 -0.00117024 0.00600864
O 0.28521098 25.16561747 31.94507594 -0.00079830 -0.00603055 0.00091359
O -1.69304193 24.25030203 33.23095534 0.00051861 -0.00454295 -0.00141964
O -3.37301557 28.90655426 31.99895037 0.00589879 0.00115149 0.00221425
O 0.88603301 24.06984574 25.91752860 -0.00312184 -0.00305044 -0.00379435
O 2.31743629 19.24525727 27.11840209 -0.00774905 -0.00141138 0.00016253
O 7.57196076 8.70216920 1.97849161 -0.00065322 -0.00575946 0.00659353
O 8.52020348 3.59813286 3.72451997 0.00262397 -0.00240084 0.00079897
O 11.28242148 0.99784071 9.68276191 0.00194801 -0.00086449 0.00044900
O 10.26425358 5.71132827 7.92907854 0.00327027 0.00480808 0.00376643
O 8.06194992 5.29660600 9.19626090 0.00245150 -0.00360089 -0.00248320
O 6.84866820 10.04460619 8.55069491 -0.00625074 0.00133393 0.00154279
O 10.43415927 4.23543251 2.03369225 0.00276853 0.00252521 -0.00482249
O 12.16411247 28.34244828 3.37270732 -0.00124725 0.00515924 -0.00249595
O 5.77821279 8.70408754 14.22121151 -0.00837592 0.00260300 -0.00221617
O 6.90036673 4.17409849 15.68039748 0.00079465 0.00258161 0.00154122
O 10.12776467 1.23335126 21.42690701 -0.00325390 0.00152829 0.00727703
O 8.70746337 6.22883235 20.29291642 -0.00223022 -0.00449054 0.00062270
O 6.60115311 5.12677871 21.43394636 0.00627268 0.00013821 -0.00388717
O 5.16434560 9.88212875 20.06207050 -0.00197324 0.00003318 0.00063835
O 9.07939813 4.94082884 14.04614395 -0.00749640 -0.00752017 0.00170017
O 10.74479883 0.09180797 15.50859815 0.00240384 0.00026387 0.00047572
O 4.35298215 8.66382906 26.07631564 -0.00039006 -0.00411507 0.00416178
O 5.72428752 3.97159420 27.42862776 -0.00076336 -0.00119826 0.00164321
O 8.21610040 0.39026965 33.27264795 0.00185276 -0.00392035 0.00028080
O 6.96304831 5.58269329 31.83907232 -0.00043166 -0.00117593 -0.00248131
O 4.84378622 4.76475885 33.20754783 0.00697270 -0.00459254 -0.00183549
O 3.59177974 9.55937677 32.18713407 0.00378208 0.00264648 -0.00469086
O 7.75863009 4.99670534 25.85979477 0.00399989 -0.00181171 0.00095326
O 9.29631931 0.15415084 27.37079068 0.00121147 0.00104196 0.00085160
O 7.61907591 17.95933248 2.79644357 0.00416931 0.00021663 -0.00038829
O 8.76978746 13.41979870 3.44916429 0.00514026 -0.00023817 -0.00822044
O 11.25846210 10.69773491 9.54822925 0.00084096 -0.00229540 -0.00093374
O 10.35059128 15.64005062 8.24257839 -0.00088621 0.00165584 0.00041306
O 8.30482656 14.72455170 9.48195066 0.00437780 -0.00535498 -0.00147043
O 6.55339020 19.39584842 8.05184559 0.00373692 0.00536726 -0.00361091
O 10.98715044 14.31074409 2.52929029 -0.00225595 -0.00688654 -0.00631440
O 12.43188801 9.76691393 3.37821284 -0.00200383 0.00040365 0.00177610
O 6.39993451 18.73599390 14.05056210 -0.00262265 0.00493356 -0.00887342
O 7.30450624 13.68406988 15.40624416 -0.00258953 -0.00078364 0.00286727
O 9.87601785 11.18014469 21.08591144 -0.00084731 -0.00312563 -0.00739189
O 8.47433918 15.69823268 20.09200069 -0.00424510 -0.00381698 0.00270652
O 6.69574710 14.50495596 21.45366300 0.00069073 -0.00391158 0.00595923
O 5.24627739 19.58232911 20.27649791 0.00823562 0.00238315 0.00364303
O 9.17862484 14.49204070 14.02442638 -0.00225055 0.00041659 0.00414875
O 10.95334618 9.49715267 15.35603454 -0.00505937 -0.00442859 0.00102030
O 4.50248976 18.03978781 26.29971080 0.00069773 -0.00095466 -0.00049255
O 5.48619777 13.27533143 27.43793320 0.00395955 -0.00611700 0.00106000
O 8.43326023 10.94994806 32.97450636 0.00386325 0.00204738 0.00663334
O 7.12971060 15.56120443 32.34345740 -0.00523883 -0.00678032 -0.00305759
O 5.16000821 14.42806965 33.59235021 -0.00092969 0.00097385 -0.00449253
O 3.26607388 19.21962899 31.73218184 0.00799057 -0.00340035 0.00229980
O 7.91137621 13.83987808 26.54213920 0.01128693 -0.00280512 -0.00206788
O 9.05980757 9.36206320 27.24800512 -0.00352092 0.00589552 0.00413563
O 7.38242394 27.85149586 2.52869453 0.00279223 -0.00078795 0.00348302
O 8.50781574 23.34224185 3.53672072 0.00034452 -0.00191089 -0.00008728
O 11.24880754 20.54481308 9.17471668 0.00036528 0.00439996 -0.00511847
O 10.08361385 25.46446163 8.59075191 0.00553823 -0.00106038 0.00601222
O 8.08644318 24.06552365 9.50896761 0.00259298 -0.00303520 -0.00255246
O 6.34125028 0.01439146 8.36694548 -0.00473700 0.00005922 0.00293963
O 10.81603662 23.98023568 2.42941071 -0.00237648 0.00702268 -0.00900630
O 12.47895942 19.39314527 3.70103881 -0.00412966 -0.00658483 -0.00150616
O 5.99771581 28.28523534 13.96524936 -0.00130832 -0.00166186 -0.00438368
O 7.31057685 22.99157703 15.18763850 0.00040006 0.00167227 0.00144516
O 9.78659940 20.38365653 21.27346054 0.00235081 -0.00335706 0.00278651
O 8.87410566 25.12452982 19.95900435 -0.00011526 0.00045994 0.00139278
O 6.51326637 24.74673960 21.18000773 0.00590576 0.00646985 0.00126299
O 5.25723573 0.24578830 20.21010893 0.00224894 -0.00532212 -0.00260717
O 9.37972873 24.19682600 14.08600603 0.00440857 -0.00582120 -0.00132105
O 10.89625744 19.55260151 15.64526903 -0.00206972 0.00094816 -0.00300518
O 4.42276145 28.16778030 25.85450922 -0.00006268 0.00149500 0.00374253
O 5.61665630 22.71788954 26.90276839 -0.00100513 -0.00106869 -0.00428645
O 8.09707612 20.28000096 33.06938352 -0.00238460 0.00458395 0.00180712
O 7.11389033 25.22125320 31.88146859 0.00056866 -0.00741504 0.00547284
O 5.15515123 24.16390123 33.45768956 -0.00492297 -0.00581151 -0.00280939
O 3.36620517 28.91713111 31.99596260 0.00871763 -0.00176578 -0.00239322
O 7.55223241 24.38499362 25.88463360 -0.00405588 0.00146850 0.00000944
O 9.41025660 18.99667425 27.27564607 -0.00130163 -0.00114907 -0.00382268
O 14.52059948 8.79496935 2.04582988 -0.00053184 0.00014043 0.00170794
O 15.12970427 3.51295461 3.46096187 -0.00358917 -0.00187362 -0.00516446
O 17.98597820 1.25106806 9.73578177 0.00331431 0.00894393 -0.00048913
O 17.16849856 5.99152321 8.17013457 -0.00321602 -0.00357558 0.00832313
O 14.87694546 5.45346530 9.12342189 -0.00277745 0.00012143 -0.00217812
O 13.14605590 9.67078712 8.11715296 -0.00075557 -0.00472014 0.00447316
O 17.32439807 4.29870025 2.36990360 -0.00228714 0.00021572 -0.00234250
O 18.97455193 28.58530510 3.24548603 -0.00410805 -0.00111733 0.00227976
O 13.00457375 8.47431074 14.26074302 -0.00312027 -0.00138271 0.00005373
O 14.16445343 3.72669605 15.63210605 0.00532561 -0.00314420 0.00078180
O 16.74697066 0.98857351 21.63296726 -0.00540808 0.00203161 0.00160792
O 15.60669380 6.11110767 20.08423785 -0.00136183 -0.00173789 -0.00076870
O 13.82373062 5.24720737 21.67010126 0.00178803 -0.00443038 -0.00019330
O 11.79172259 9.99594873 19.88421002 0.00007237 0.00059120 -0.00475969
O 16.14806294 4.80147266 14.61309158 0.00052290 0.00061658 -0.00803654
O 17.48982770 28.92675986 15.62505372 -0.00108803 0.00657343 -0.00246950
O 11.28583195 8.44517742 26.48153716 -0.00338822 -0.00290228 0.00457508
O 12.27427995 3.87941768 27.66935463 0.00791645 0.00683069 -0.00223836
O 15.21401631 1.17711531 33.10060294 -0.00089628 -0.00198527 -0.00154664
O 13.57680408 5.73769158 32.25994875 -0.00573948 0.00146689 0.00047211
O 11.65484854 4.76404863 33.55568590 -0.00487666 0.00329927 -0.00557121
O 10.24810036 9.52467097 31.77931775 -0.00113551 -0.00544111 0.00627867
O 14.41298515 4.65734451 26.21278129 -0.00823927 -0.00261584 -0.00322819
O 16.20145834 28.90046096 27.62082292 -0.00124456 0.00207319 0.00295270
O 14.76900978 18.51143642 2.70155327 -0.00662307 0.00142082 0.00176968
O 15.63117195 13.69506307 3.98053697 0.00155764 0.00399022 0.00136634
O 18.06880597 10.70079169 9.38903354 0.00122245 0.00687737 -0.00296486
O 17.03081729 15.75054111 8.63397472 -0.00359884 0.00421796 0.00099239
O 14.89669998 14.20971982 9.93020644 0.00140832 0.00237936 -0.00135141
O 13.40489486 19.48430781 8.07948938 0.00065429 -0.00133451 -0.00369588
O 17.59816470 14.71109257 2.20965591 -0.00087195 0.00106550 0.00389189
O 19.17524061 9.93595714 3.70247732 0.00215009 0.00168006 0.00407232
O 12.96190908 18.47265037 14.48581981 0.00066141 0.00139640 0.00204023
O 14.28053565 13.42016594 15.20988854 0.00231856 -0.00102415 0.00277614
O 16.59498668 10.69114277 21.23672403 -0.00137230 0.00003517 -0.00060185
O 15.59926730 15.76107695 20.07237788 -0.00150114 0.00315080 -0.00164999
O 13.60381766 14.46308859 21.33148896 0.00040092 -0.00147177 0.00133866
O 12.22840274 19.55519001 20.12344273 0.00037560 0.00126864 -0.00484069
O 16.19484648 14.70430996 13.93207646 -0.00252018 0.00060675 -0.00249616
O 17.70037721 9.71389562 15.29547388 -0.00024603 0.00036559 0.00202264
O 11.31712624 18.05104246 25.87557360 0.00040070 0.00323129 -0.00115629
O 12.45018326 13.47069736 27.14840739 -0.00129155 -0.00112166 0.00396418
O 15.18618231 11.02999376 33.23955587 -0.00257730 -0.00192257 -0.00250067
O 13.88648325 15.62719092 31.94686552 0.00859731 -0.00317303 0.00364136
O 11.92202313 14.92856279 33.35112431 -0.00147130 0.00649884 0.00641546
O 10.37600158 19.26590718 31.79369298 0.00486936 0.00023468 0.00209931
O 14.59717251 14.44812227 25.87340252 -0.00069997 -0.00012241 0.00125513
O 16.17437304 9.54415050 27.63267142 0.00730181 -0.00118882 -0.00561017
O 14.44125518 27.68776614 2.38222122 0.00140471 -0.00110632 -0.00268335
O 15.74903607 23.24215576 3.48416239 0.00243736 -0.00109690 0.00708115
O 18.31672146 20.68082298 9.28355964 -0.00083276 0.00582548 -0.00181143
O 17.18258769 25.07581001 8.21049193 -0.00148419 -0.00278186 -0.00123524
O 14.98010377 24.52956392 9.45672161 0.00083275 0.00641044 -0.00396019
O 13.46053173 0.20444870 8.59327750 0.00294606 0.00352992 0.00367274
O 17.78805968 24.23050875 2.30466411 -0.00208085 -0.00132844 -0.00496196
O 19.45901493 19.29421092 3.77567091 -0.00131701 -0.00142676 0.00190217
O 12.82687204 27.92832997 14.50081644 -0.00252301 -0.00227813 -0.00699608
O 14.32781521 23.21347454 15.19118255 -0.00346100 0.00228804 0.00306238
O 16.78751798 20.76142434 21.40058160 0.00351537 0.00429360 -0.00407701
O 15.72745705 25.38412650 20.34495182 -0.00094563 0.00116163 0.00088682
O 13.54632328 24.32667746 21.68116085 0.00456590 0.00134106 -0.00231484
O 11.88032020 0.15226041 20.08935685 -0.00237805 -0.00893694 -0.00041636
O 16.25460355 24.63940774 13.96635918 -0.00032583 -0.00154610 0.00175178
O 18.08240412 19.45687058 15.64274391 -0.00077461 0.00321116 0.00721606
O 11.26157230 27.96688707 26.34548452 0.00214488 0.00265816 -0.00175714
O 12.43950247 22.97898301 27.25897659 0.00023931 -0.00023117 -0.00265786
O 15.04536602 20.48705863 32.90185214 -0.00100859 0.00043810 0.00619333
O 14.01540261 25.07903174 32.29506092 0.00479937 -0.00463248 -0.00507632
O 11.77256197 24.11725119 33.05975476 -0.00037046 0.00591392 -0.00308285
O 10.23639335 28.90918094 31.95896459 -0.00710018 0.00434051 -0.00164247
O 14.42099537 24.03818363 26.14531485 0.00158040 0.00562448 0.00242721
O 15.99066311 19.23327702 27.11529037 -0.00647359 0.00344648 0.00176952
H -0.30476348 8.94546477 2.85662122 -0.00562497 0.04345182 -0.01680244
H 2.59114430 4.06229136 3.34717773 -0.00888159 -0.00341433 0.00328866
H 5.70207940 0.44277298 9.02516709 -0.00766461 -0.01719913 -0.00771210
H 2.36688373 5.66903574 8.57984891 0.01625507 -0.00589322 0.00663752
H 5.47513460 8.18090234 0.56165730 -0.00037034 -0.01735926 -0.01327595
H 3.75326059 3.35421137 4.98914406 -0.00892135 -0.00911008 -0.00595622
H -0.54358560 1.46865093 11.36537085 0.00491703 -0.00171679 -0.02037486
H 1.14121194 6.69939160 6.76726517 -0.01334199 -0.00898879 -0.00682508
H 4.08970301 7.12395870 10.34817890 0.01079371 0.00194966 0.00615512
H 3.53066391 1.87455083 7.23066201 0.00631922 0.00559909 0.01427153
H 0.92615474 2.59038103 1.51801832 0.00360873 0.01555579 -0.00602520
H 1.21366347 7.80331133 4.62579954 -0.03991064 0.03426702 -0.02535803
H 2.44966200 5.20174699 0.23236733 0.00418942 -0.01022203 -0.00536411
H -0.24455648 0.46099252 5.90498766 -0.02207066 0.00223503 -0.01097495
H 2.33307384 4.29374715 11.74329179 0.01819359 -0.00762112 -0.01039565
H 5.43259779 8.86541239 5.53806640 0.00806094 -0.01204676 0.00085339
H 2.61332496 6.95931488 2.01298082 -0.00619708 -0.02343470 -0.01646187
H -0.24059450 2.00537768 4.12864736 0.00631064 0.00489434 -0.02052912
H 2.58624866 2.64142603 10.10651214 -0.00849798 0.02569813 0.01201441
H 5.47101467 7.20972313 7.22870763 -0.00865016 0.01087013 0.02155562
H 4.87390386 5.13452484 9.60083250 -0.00748936 0.02305993 0.01159778
H 2.59901980 0.17583166 8.37660534 0.00655400 -0.00771063 0.00492595
H 0.01163337 4.56083897 2.32069803 -0.00809587 -0.02300067 0.00245018
H 2.30020121 9.64861162 3.53366652 -0.01283448 0.00405121 -0.00292907
H 5.85272581 3.11726759 8.29289037 -0.01950937 -0.02056491 -0.00016208
H 1.43715634 7.64215672 9.15318679 -0.00235642 -0.02073627 0.00493314
H 18.63671986 5.13082842 4.74462260 0.00416335 0.00228431 0.00379023
H 3.20884229 0.34759364 1.49994072 0.00931858 0.01357170 -0.01366674
H -0.91568040 4.10451822 7.33564251 0.00519831 0.00109490 -0.00172860
H 0.01864196 8.28746227 9.94891501 0.00725342 0.01405584 -0.00787758
H 6.12040399 6.02958444 4.12534715 -0.02476223 0.01066894 -0.02147713
H 3.78512578 1.90401026 2.54180220 -0.00837753 -0.02531506 0.00502835
H -0.51914872 2.71726155 8.47292649 -0.00307273 -0.01437227 -0.01247410
H 1.62418562 8.87331906 10.35394373 0.00566002 0.00674186 0.00505019
H 5.40242662 7.31077161 3.07160137 -0.00722664 -0.01228538 -0.03032769
H 4.85508451 0.91012798 1.61359046 0.00629457 -0.00125877 0.02625520
H -1.58668130 9.21952290 14.65589012 0.03800067 0.00429046 0.00255410
H 1.28989018 4.57957840 15.14874769 0.01770560 -0.00568741 -0.04339939
H 3.86961428 1.03566668 20.76128993 -0.00850234 0.00777049 0.00905478
H 1.02386687 5.62296356 20.52797299 -0.00010072 -0.01382129 0.03015161
H 4.19729421 8.97428015 12.05352913 0.00584255 0.00429737 0.00762393
H 2.51104473 3.60803497 16.94856044 -0.01082802 0.01270234 -0.01622891
H -1.75045365 1.81589726 23.02946638 -0.00072397 -0.00606499 0.01576657
H -0.11869173 6.37768902 18.60443039 0.02603120 0.00646934 -0.01438585
H 2.37695185 6.43839867 22.71372885 0.00495491 -0.00166096 -0.01499748
H 2.35371040 2.04114545 18.81746183 -0.02564808 0.01117520 -0.01208754
H -0.47929628 3.17627257 13.11943162 -0.00259420 -0.01329109 0.00215460
H -0.13673657 7.99999979 16.69623656 -0.02664982 -0.00699590 -0.00623971
H 1.12430757 5.49237458 11.80744699 0.00325131 -0.01393577 0.00509399
H -1.61609713 0.93152005 17.87239072 0.00038309 -0.00013961 0.01128545
H 1.02580821 4.21392199 23.98418088 0.02019336 -0.02226057 -0.00013684
H 3.70529121 9.62879459 17.92249065 -0.00257127 0.00083165 -0.01560306
H 1.17571531 7.24885959 13.41625344 0.02146529 0.02051196 -0.01707904
H -1.35755634 2.23152842 15.66422873 -0.03400093 -0.00091530 0.00783396
H 0.96073299 2.47390562 22.12613805 0.00966786 0.01285279 0.00827574
H 3.69516898 7.98327382 19.83777240 -0.00624257 -0.00012386 0.01619962
H 3.53626528 5.10215717 21.30319544 -0.01188732 0.02416531 -0.01845966
H 1.44107686 28.83719102 19.59862722 0.01497711 -0.00446810 0.01507686
H -1.34304950 5.10352528 14.15410272 0.01386522 -0.00691772 -0.00207909
H 0.63309995 9.63448992 15.63152574 -0.01196595 0.02887722 0.02273160
H 5.77504846 3.29611018 19.78937385 -0.00530014 0.00052202 0.01525094
H -1.19390518 9.14423467 22.34431849 -0.00461404 -0.01854686 -0.01879861
H 17.15470119 5.61874017 16.76343926 0.00008436 0.00824218 0.03351143
H 3.59473030 1.72551296 13.81612296 -0.00685434 0.01030694 0.00282691
H -2.01957579 4.08527310 19.10047118 0.01779537 -0.00942451 -0.03199066
H 0.40609969 9.24171162 21.93032302 0.01257671 -0.00814813 -0.01205264
H 4.79950957 6.27422399 15.86501977 0.00799673 -0.00077180 0.01356148
H 2.10907232 1.16050152 13.12664889 -0.00081898 0.01339126 0.01457305
H -1.81635098 2.76944341 20.09755527 -0.01189829 -0.01329076 0.00509272
H -0.47450113 7.84983917 21.39533267 -0.01015661 -0.00677664 0.00646710
H 3.29793016 6.96161678 15.87088049 0.02974913 0.01637664 -0.00788965
H 1.87223811 2.30062169 14.47959009 0.00845374 -0.00794454 -0.02251172
H -3.24189521 8.64647761 26.61899453 0.00402425 0.01293971 0.00384594
H -0.41183375 3.84948719 27.00350275 -0.03665636 0.00709239 -0.00952384
H 2.17374498 0.50212765 33.16969814 0.02437179 -0.02326807 0.00024748
H -0.79012397 5.46590484 32.59469117 -0.01148419 -0.03371899 0.03762942
H 2.29740418 8.12851392 24.51652295 0.02722655 0.00706716 0.01742237
H 0.70677062 3.24385353 28.90748867 0.02210523 0.02439355 0.01200347
H -3.65980507 1.15866285 35.11854052 0.01523535 0.01331972 -0.00953218
H -2.01089329 6.00339549 30.36479006 0.01636828 -0.02536212 -0.00466065
H 0.74524874 6.41836467 34.30671566 -0.01006967 0.01887039 0.01240856
H 0.78878173 1.45999262 30.90392674 -0.00006192 0.02346716 0.01483905
H -1.81627927 3.21053334 24.98363683 0.00520744 -0.01548833 0.01181873
H -1.87574286 7.79332974 28.59180845 -0.00758744 0.02274715 0.03435364
H -0.39290226 5.31141892 23.48417213 -0.02128227 0.01877649 -0.01174803
H -3.24018434 0.51350985 29.89522617 0.00487592 -0.00499037 -0.00017048
H 3.87351518 3.96704266 0.18978775 -0.00808454 0.00516139 0.00136285
H 2.26338684 8.58236612 29.55401554 -0.00041438 0.02431694 0.00745728
H -0.46302830 6.64570395 25.47400083 -0.00342340 0.00369994 -0.00771103
H -3.30291447 2.11433001 28.01665419 -0.01721243 -0.00714273 -0.03124060
H -0.75093574 2.37998367 34.07803483 0.00132181 0.02487705 -0.00847745
H 2.18643272 6.81610893 31.17939289 -0.02688433 -0.00125715 -0.01667529
H 1.68031861 4.52971835 33.38040513 0.03596519 0.00447965 0.01307709
H -0.26464544 28.70779524 31.86108570 0.03052168 -0.02368759 0.01390116
H -2.96076732 4.94290134 26.13786168 0.01639678 -0.00802541 -0.02984608
H -0.84993101 9.39049058 27.62822215 0.00805033 -0.00765712 -0.01234042
H 3.49025451 3.62017083 31.01767720 -0.03060316 0.01885765 0.00218711
H -2.13873190 7.67851859 33.52309908 -0.02154952 0.01366881 0.01017402
H 16.37285856 5.56963827 28.51645990 -0.01452290 0.00484680 -0.00176279
H 0.25285684 0.54902514 25.40314654 0.00201346 -0.00792243 -0.00787021
H -2.50123351 3.71916895 31.57596407 -0.00146655 0.01449082 0.01575061
H -2.40207979 9.04806913 34.53606753 -0.00376132 -0.00122722 -0.00518036
H 2.86481158 4.97899107 28.22370898 -0.00824533 -0.00710848 0.00946520
H 0.81368952 1.98195455 26.34715021 0.01143213 -0.02610638 -0.00749479
H 16.32225460 3.70801900 31.60571467 -0.01668136 -0.01685908 -0.01899804
H -0.80630347 8.72557480 33.91144838 0.01051132 -0.00525817 0.00671323
H 2.96794851 6.53521823 27.33546803 -0.00638656 0.01349602 0.01338164
H 1.90759266 1.05663945 25.33289701 0.01269271 -0.00558624 -0.01943918
H -0.02943637 18.70615903 2.73014353 0.02193417 -0.00603754 0.02354763
H 2.64481540 14.09835667 3.25335242 -0.00104597 -0.00971876 0.01635722
H 5.38916057 10.33062207 9.26754336 0.00215228 0.01858198 0.01482704
H 2.68153012 14.98690358 8.79209601 0.00156437 -0.01837256 0.00204246
H 5.66218767 17.65843154 1.22007642 -0.00504448 -0.01688633 0.00131406
H 3.89922416 13.35154060 5.06744717 0.00748466 -0.04483449 -0.02716311
H -0.55285863 10.93548837 10.95468292 0.00728735 0.01581460 0.00107072
H 1.34439195 15.74149828 6.93582801 -0.00781040 0.00305517 0.00259684
H 4.22488730 16.51705747 10.58213853 -0.02468307 0.00108602 0.01222946
H 3.94493212 11.62505809 7.01191503 -0.00853548 -0.02428028 0.01540760
H 1.11948520 12.71350226 1.33897903 -0.03217497 -0.00331552 -0.01665344
H 1.16027771 17.36245033 5.31871966 -0.02344271 -0.00659913 0.00175434
H -2.14978640 14.96502209 35.43721808 -0.01133330 -0.02713448 -0.00807934
H -0.04761740 10.51918628 6.13122264 -0.01187337 -0.00668235 -0.03545896
H 2.73805592 14.19580305 11.64162427 -0.01351292 -0.01866422 -0.01581104
H 5.34866768 18.52937340 5.93369261 -0.00047696 0.00556677 -0.01891176
H 2.95671828 16.85134811 1.55579804 0.00121434 -0.01297114 0.02587173
H 0.12062283 11.81329018 3.92219570 -0.01878341 -0.00116580 -0.00089257
H 2.57692639 12.23928242 10.16767260 0.00280501 0.00616775 -0.00345880
H 5.47261316 16.97339334 7.76553453 0.01254683 -0.00338209 -0.02789178
H 5.21613121 14.60373650 9.46638801 -0.01530776 -0.00370875 -0.01800799
H 2.98004850 9.65242631 7.97284290 0.00014102 -0.02659789 -0.00104010
H 0.21059799 14.73673951 2.24806441 -0.00948632 -0.00640132 -0.00692916
H 2.19284451 19.21379909 4.01354193 -0.00351620 -0.00464623 0.00849328
H 5.81560017 13.45149750 7.88309009 -0.01627621 -0.01280198 -0.02565304
H 0.45152270 18.88926254 10.59660657 -0.03341242 -0.00658674 0.00416424
H 18.43471918 15.56275949 4.56268468 -0.02482550 0.00005044 -0.00205748
H 4.24453459 12.18024141 2.49574989 0.02795390 -0.01062992 -0.00194010
H 0.63437128 12.28636076 8.46475602 0.00724776 0.01347075 -0.01756577
H 2.12876174 19.12112679 10.29859191 0.00393233 -0.02640267 -0.00343399
H 4.98272057 15.69249831 4.59641225 0.03565523 0.00653163 -0.00211141
H 4.37798096 10.94891070 1.23223826 0.00563472 0.01694377 -0.01336142
H 0.18016244 13.57122010 7.31352974 0.00043715 0.00404337 0.00817644
H 1.37480083 17.50357682 9.76563144 -0.03031068 0.00839496 -0.01582839
H 6.56493153 15.93921309 3.90581973 0.01843082 0.02640579 0.00801091
H 2.83296617 11.13237936 1.95458478 0.01172751 -0.02525252 0.01281418
H -1.44801069 18.73325883 14.82183744 -0.00071190 0.00591078 -0.01400420
H 1.15143531 13.70092484 14.84540593 -0.04649527 -0.01601273 0.00690932
H 3.81730212 10.39881469 21.07690006 0.01188988 0.00825553 0.00998548
H 0.97938111 15.13380944 20.51419638 0.01364157 -0.01844519 0.00999940
H 4.19890027 18.10319685 12.38778241 -0.01067151 -0.00120549 0.00386594
H 2.26900569 13.23761556 16.82934664 -0.02110461 0.00991963 0.00899323
H -1.99204683 11.05152966 22.93959816 0.00702618 0.01335834 0.01071945
H 0.05544189 15.74650978 18.43091213 0.02658501 -0.00487883 0.03493468
H 2.81064488 16.32915735 22.39487121 0.00017716 0.01324622 0.01796892
H 2.27587248 11.77968513 18.84045695 0.01269314 0.00290287 0.01521748
H -0.36575561 12.63076253 12.89516799 0.01634191 -0.02326038 0.00947814
H 0.31420094 16.98216218 16.37269827 0.00211405 0.00373991 -0.02627352
H 1.27023298 15.12343602 11.63607449 -0.00686239 0.02073110 0.00809478
H -1.78077434 10.64188807 18.00468536 0.01602715 -0.00066312 0.01204718
H 0.96797446 13.95101020 23.78206354 0.00571476 -0.00095485 0.00695177
H 3.90501167 18.77696525 17.62582730 -0.01610338 0.00592187 -0.00012424
H 1.36645632 16.84533227 13.45500800 -0.01491360 -0.02042508 0.02158578
H -1.74312694 11.72863343 15.99908250 -0.00912906 -0.00652224 0.02591756
H 1.02890559 12.35731677 21.85064423 -0.01456520 -0.01197420 -0.01349150
H 3.92417423 17.34469793 19.69609624 0.02423082 0.01238056 0.00428944
H 3.51453255 14.37452728 21.74453896 -0.00136819 -0.01271632 0.01287009
H 1.21797919 10.34506269 20.26059774 0.02693638 -0.01523033 0.00122561
H -1.23652742 14.12165099 14.17644508 0.01522599 -0.00177598 0.00233016
H 1.03006133 19.36374156 15.72822077 -0.01502191 -0.00776306 -0.01346193
H 6.24709899 13.32528209 19.47933631 -0.00813385 0.00362412 0.00485842
H -0.67917112 18.23140013 22.23940330 -0.03006630 0.00229437 -0.00957441
H 18.35901277 14.93684697 16.34107658 -0.02107027 -0.01459989 -0.00210417
H 3.24301072 11.60515815 14.13528515 0.04037263 -0.01028218 -0.00228821
H -2.22543489 12.54512973 20.31761809 0.00063172 -0.01038066 -0.00271801
H 0.96870220 18.08407445 21.51644460 0.00846987 -0.01811481 -0.00295902
H 5.07781085 15.91478741 15.30479245 0.02094915 -0.01990225 0.01223609
H 2.86446117 10.24077492 13.13521789 0.00678305 -0.02333702 -0.04044480
H -0.69898392 13.30767687 19.50701229 -0.01284419 -0.01247120 0.01102140
H -0.53505741 17.18019139 21.04882299 -0.00370988 -0.01405165 0.03413494
H 3.53976134 16.65645681 15.40437582 -0.01551319 0.01417185 -0.02648519
H 1.53414030 11.23835588 14.02242239 -0.02356070 0.00237575 -0.01147994
H -3.33978933 18.51588439 26.24442256 0.02066812 -0.02981856 0.02122748
H -0.44090108 13.85518477 27.12925973 0.00751030 -0.01408075 -0.00112175
H 2.39803502 10.48480392 32.96678260 0.00443155 -0.02872711 -0.01637799
H -0.85678647 15.17824989 32.32763880 -0.00730326 0.00156945 -0.01809185
H 2.67049075 17.92309075 24.40092466 0.00891662 -0.00548175 0.00177604
H 0.66818527 13.38617092 29.20256917 0.00658104 -0.02717189 -0.01128528
H -3.78483712 10.99445563 35.23543217 0.01522084 0.00977181 0.00468421
H -1.90122907 16.14044863 30.31191987 -0.02953910 0.00782449 -0.01960162
H 0.98584657 16.22643290 34.69658302 0.00652920 -0.00623214 0.00579659
H 0.89785952 11.54312907 30.80299353 0.00279459 0.01219253 0.00348008
H -1.86346280 12.34329406 24.94105813 0.01819958 0.00756119 0.02499438
H -1.92922016 17.63342089 28.54005246 -0.00300482 -0.00049088 -0.01845581
H -0.47604642 14.94068954 23.56924830 0.00651772 0.00037777 0.00837036
H -3.24939284 10.41561762 30.07068420 -0.00977842 0.00306907 0.00412977
H 4.24025551 14.00359306 0.09942400 -0.01036213 -0.00521704 -0.00687097
H 2.22286924 18.57808984 29.25894843 0.01325754 -0.01225563 0.00763094
H -0.48448012 16.67721753 25.25489908 0.00446659 -0.00366377 -0.01026830
H -3.27574230 11.99443678 28.18991981 0.02450932 -0.02078652 0.03047549