2160
Time=60000.00000005 pbc="T T T" Lattice="20.70762662 0.00000000 0.00000000 0.00000000 29.24596420 0.00000000 -4.72760087 0.00000000 35.53805905" energy=-13794.45785785 virial="-93.61736634 -17.90108783 93.18892963 -17.90108783 -68.46446381 1.90864293 93.18892963 1.90864293 -29.29445592" stress="-0.00187342 -0.00077752 0.00434640 -0.00077752 -0.00083561 0.00011839 0.00434640 0.00011839 0.00104791" Properties=species:S:1:pos:R:3:vel:R:3
O 0.85651737 8.48749109 2.53848450 0.01031675 0.00293934 0.00099523
O 1.88404034 3.96936046 3.58150030 0.00575753 0.00195892 0.00330157
O 4.70553545 1.19352145 9.37008373 0.00568804 -0.00071400 -0.00594056
O 3.35905809 5.85000672 8.31310685 0.00034229 -0.00006871 -0.00272196
O 1.55354199 4.80439629 9.67273965 0.00341267 -0.00107932 -0.00198714
O -0.14283624 9.72014899 8.33314339 -0.00683435 -0.00474436 0.00728549
O 3.95716724 4.74588933 2.40388481 0.00239046 -0.00169270 -0.00194521
O 5.41737680 0.40668894 3.83294485 0.00725159 0.00041872 0.00676507
O -1.24530801 8.47206236 14.13575581 -0.00102878 -0.00236910 0.00622588
O 0.52254692 3.89384963 15.51420288 -0.00108454 0.00083963 -0.00125647
O 2.86729338 1.01015701 21.27712789 -0.00632732 0.00520092 0.00091385
O 1.80125360 6.11180657 20.02102389 0.00175474 -0.00077586 0.00228753
O -0.44847280 5.53301755 21.20978757 0.00036816 0.00404918 -0.00708280
O -2.02175145 10.08960159 19.79154906 -0.00068067 0.00400928 0.00087013
O 2.54208943 4.66793810 14.14405433 0.00257077 0.00006404 -0.00143060
O 4.22282629 29.08892306 15.64687478 -0.00548975 0.00080221 0.00425100
O -2.48261081 8.63158506 26.18913581 0.00679638 0.00191014 0.00327402
O -0.90512329 3.58738151 27.28782339 0.00119935 -0.00380477 0.00546091
O 1.42950735 0.96306814 33.51444238 -0.00537772 -0.00171254 0.00137650
O 0.43180151 5.79664348 31.92746992 0.00766528 -0.00159676 -0.00019868
O -1.78966306 4.71966009 33.26289389 -0.00508158 -0.00637140 -0.00288787
O -3.01702141 9.57359037 32.17030817 0.00206189 0.00314446 0.00235441
O 1.06446838 4.78042147 25.97687135 -0.00101555 -0.00191318 0.00567935
O 2.60602738 0.19170140 27.57818435 -0.00704393 -0.00042401 -0.00366548
O 0.71479505 17.97282641 2.62309969 0.00047345 0.00363508 0.00457390
O 1.99711530 13.16633794 3.35483352 0.00325453 -0.00235243 -0.00069324
O 4.75629000 10.80314789 9.10809803 0.00315083 -0.00163608 -0.00143173
O 3.20880786 15.57883626 8.11423129 0.00477116 -0.00792192 -0.00073370
O 0.78567628 15.32752159 9.21596401 -0.00376790 -0.00075479 -0.00548506
O -0.24234378 20.07846545 8.29914234 -0.00388097 0.00479059 -0.00330515
O 3.93577179 14.21847207 2.02136640 -0.00024039 0.00294455 0.00301698
O 5.60823475 9.63572256 3.51722037 -0.00384757 0.00447422 -0.00096386
O -1.20174517 18.51633651 14.37944444 0.00272911 -0.00600594 0.00641477
O 0.20061631 14.01076816 15.38906966 -0.00358742 -0.00141850 0.00668480
O 2.66406014 10.72191372 21.21978374 -0.00193990 -0.00084706 0.00307412
O 1.53981689 15.79560755 20.17213817 0.00475489 0.00152759 0.00115499
O -0.34675074 14.57058485 21.38978245 0.00041903 0.00023454 -0.00574241
O -2.02280850 19.73067285 20.20079866 -0.00357896 0.00174170 -0.00112206
O 2.03227423 14.66044338 13.70961462 -0.00301214 -0.00073781 -0.00192751
O 3.89492399 9.94679686 15.27170504 -0.00238830 -0.00487769 -0.00528413
O -2.73234417 18.11062743 26.27799729 0.00044372 0.00053951 -0.00723256
O -1.18146705 13.49339072 27.38271820 0.00677087 0.00613346 -0.00085612
O 1.72946048 10.68462864 33.05253197 -0.00141442 0.00891212 0.00206560
O 0.10323367 15.84338251 32.25130563 -0.00016716 0.00394756 -0.00073175
O -1.89180668 14.43648552 33.23056505 -0.00885887 -0.00617117 -0.00293052
O -3.39860132 19.87380121 31.92547061 0.00484666 0.00243205 0.00799700
O 0.64129634 14.69307675 25.83034571 0.00108844 0.00314349 -0.00326103
O 2.35051410 9.66291561 26.96034849 0.00021393 0.00279994 -0.00228570
O 0.73861642 28.27397786 2.60708690 0.00095400 0.00180370 -0.00658450
O 1.95697749 22.87942486 3.07543673 -0.00432168 -0.00041842 0.00656492
O 4.62585838 20.60491694 9.31022311 0.00140358 0.00449797 0.00338744
O 3.34741012 25.35648717 8.18761128 -0.00514821 -0.00124487 -0.00170074
O 1.17812869 24.49601241 9.47103277 -0.00015105 -0.00084096 0.00003519
O -0.10583474 29.18176580 7.99032685 0.00079707 -0.00218459 -0.00230054
O 4.11781210 24.25646576 2.47673466 0.00557803 -0.00034241 -0.00277273
O 5.55985085 19.52711702 3.58768196 0.00197025 0.00004540 0.00325593
O -0.80243507 28.00804386 14.27502913 0.00351801 -0.00451206 0.00194301
O 0.19078645 23.83131893 15.72754972 -0.00163451 -0.00157408 0.00168281
O 2.91368511 20.78361034 21.43311074 -0.00770299 0.00505261 0.00066943
O 1.77388294 25.45039994 20.18954695 0.00005356 -0.00587301 -0.00212921
O -0.50887254 24.43425482 21.29061140 -0.00271703 -0.00578723 -0.00206206
O -1.77166799 0.67557039 20.10927540 0.00224043 -0.00170529 0.00192819
O 2.25628074 23.92211671 14.04013939 -0.00124999 0.00114884 0.00289056
O 3.82480309 19.54393355 15.41609373 -0.00144908 0.00848808 -0.00077240
O -2.35065144 28.23278132 26.08748045 -0.00890929 -0.00140332 -0.00447987
O -1.18722991 23.18462048 27.07660009 0.00345598 -0.00084673 0.00280583
O 1.43940630 21.02760812 32.92347882 0.00429242 -0.00039172 -0.00291142
O 0.27206768 25.44026830 31.90468769 -0.00060016 0.00243975 0.00462945
O -1.83716077 24.52176931 33.50773712 0.00104847 -0.00315944 -0.00616325
O -3.31325140 0.07914646 32.05952435 -0.00105082 0.00152130 0.00147640
O 0.81873647 24.51032887 26.16902999 -0.00366185 0.00019873 -0.00070194
O 2.38479020 19.61172415 27.40023240 -0.00086648 0.00225662 0.00451033
O 7.86964414 8.94004160 2.13985908 0.00522482 -0.00481605 -0.00172408
O 9.15501321 3.71585160 3.21388959 0.00195194 0.00342368 -0.00774166
O 11.76125043 1.26890470 9.37857146 -0.00102733 0.00330378 -0.00095260
O 10.30293560 5.94767105 8.27919108 -0.00164842 -0.00499645 -0.00422103
O 8.33424498 4.88007864 9.63510909 -0.00058221 -0.00177718 0.00688405
O 6.69800664 9.60402510 8.00332528 -0.00256764 0.00017926 0.00432204
O 11.16671167 5.22187509 2.37100051 -0.00271011 0.00327139 0.00084671
O 12.62794681 0.05997587 3.98552207 -0.00485221 -0.00075736 0.00895499
O 5.85697271 8.50279946 14.31690050 0.00586072 -0.00057299 -0.00121532
O 7.12205631 4.00776571 15.46882609 -0.00283994 -0.00006200 -0.00304872
O 9.86639112 1.12249220 21.36513241 0.00839246 -0.00164659 0.00291566
O 8.86172578 5.94904391 20.11332303 -0.00417533 0.00376574 -0.00077355
O 6.86971510 4.91145443 21.33767761 -0.00404551 0.00340530 -0.00436586
O 4.95616400 10.18074544 19.97580619 -0.00021035 0.00703449 -0.00011080
O 9.53562261 4.23428795 14.44386463 0.00737134 -0.00104787 -0.00155360
O 11.10935565 0.13438813 15.76964170 -0.00164555 0.00097998 0.00482957
O 4.68297348 8.74274733 25.97667725 -0.00205116 -0.00107087 -0.00439085
O 5.94105492 3.93593550 26.93027834 0.00017656 0.00062828 -0.00527096
O 8.31039082 1.06433508 33.28181062 -0.00490992 -0.00335861 0.00373680
O 7.51075447 5.85813453 31.81983512 -0.00180656 -0.00326262 0.00114669
O 5.36115609 5.20193300 33.25923999 -0.00249951 -0.00391962 0.00185100
O 3.71358283 9.58266036 31.95056595 -0.00260989 -0.00596964 0.00311575
O 7.89639414 5.05620346 25.80017449 0.00720739 -0.00516916 0.00149046
O 9.37950114 0.13655314 26.99665358 -0.00169793 -0.00069496 -0.00301685
O 7.73856579 18.67958072 1.91577094 0.00038956 0.00116941 -0.00434492
O 8.94575665 13.08072717 3.32149629 0.00213808 0.00674980 0.00097093
O 11.34202498 10.81563703 9.07813843 0.00082298 0.00034867 -0.01029485
O 10.59384985 15.12059527 7.87342314 -0.00301342 0.00251090 -0.00384816
O 8.21140486 14.58127573 9.47905368 -0.00213807 -0.00502917 0.00604124
O 6.73160446 19.61502570 8.24189433 -0.00503829 0.00146971 -0.00733583
O 10.87952887 14.57478476 2.18893908 -0.00053008 -0.00229518 -0.00168701
O 12.43723679 9.48213459 3.53668330 -0.00080192 0.00053282 0.00405182
O 5.95732674 18.28532881 14.29562529 -0.00207115 0.00178945 0.00663738
O 6.93908352 13.78172459 15.07141152 -0.00025817 -0.00321855 0.00405801
O 9.86662197 10.90855844 21.20886111 -0.00344289 -0.00333658 0.00610104
O 8.16158893 15.97533982 20.41136698 0.00504680 0.00260827 0.00159436
O 6.43974217 14.32608813 21.81773235 -0.00427201 0.00078998 0.00022027
O 4.82747034 19.48639259 20.04678282 -0.00923926 -0.00137799 -0.00545155
O 9.33428951 14.38518368 14.10450353 0.00288516 0.00161297 0.00477618
O 10.74972879 9.35725498 15.04746265 0.00183014 0.00591643 0.00114866
O 4.43001233 18.91793298 25.85497166 -0.00564050 0.00076418 0.00014747
O 5.76140670 13.77860185 27.72572673 -0.00347559 0.00514031 0.00006608
O 8.37946634 10.83214279 33.04475301 0.00306176 -0.00237688 0.00139336
O 7.40223209 15.72591171 32.04994669 -0.00532831 -0.00476363 -0.00768924
O 5.12453087 14.91644814 33.02631732 0.01001474 -0.00340019 -0.00503967
O 3.56087154 19.72928406 31.84386416 0.00006388 0.00293237 0.00789992
O 8.02029732 14.35598323 25.95052183 -0.00014589 -0.00075191 -0.00349611
O 9.24045478 9.93603529 27.28608682 -0.00457876 0.00289506 0.00182975
O 7.54546261 28.16725290 2.70246684 0.00632461 -0.00136246 -0.00229361
O 9.03146706 23.41692379 3.73803991 -0.00440535 -0.00650344 0.00211355
O 11.50557000 20.48464215 9.51243234 -0.00138854 -0.00832976 -0.00059513
O 10.30258562 25.57421947 8.48367639 -0.00085763 -0.00585546 -0.00436800
O 8.49726994 24.30620444 9.58427037 0.00113098 -0.00283773 -0.00028144
O 6.62585325 0.09371292 7.75582880 -0.00072008 -0.00555110 -0.00436855
O 10.95112018 24.41636975 2.16785140 0.00015680 -0.00361501 0.00117364
O 12.47623015 19.25454613 3.79226533 -0.00120093 0.00034236 0.00028795
O 6.39937493 27.91228674 14.26417015 -0.00003285 -0.00246053 -0.00318819
O 7.11897025 23.06546278 15.13901942 -0.00493701 0.00125679 -0.00467227
O 10.02484913 20.94347508 20.91211393 0.00128563 -0.00554823 -0.00132310
O 8.66524603 25.39469612 20.03723919 -0.00061361 -0.00280712 -0.00183546
O 6.67558919 24.74690816 21.42115278 0.00427639 -0.00208074 0.00710930
O 4.94658095 0.10750059 19.92627041 0.00303148 0.00336267 0.00226273
O 9.55382789 23.83329742 14.58907544 -0.00785419 -0.00286840 -0.00588830
O 10.83817628 19.35579863 15.54809842 0.00121963 -0.00062624 -0.00004229
O 4.46703431 28.30829710 26.24380563 -0.00420987 -0.00011565 0.00412045
O 5.56191978 23.38051794 27.12869918 0.01129791 0.00012834 -0.00345370
O 8.37091140 20.65139001 33.22888972 -0.00018094 -0.00179449 0.00168778
O 7.22659724 25.69809244 32.07068240 -0.00102906 0.00497919 -0.00192138
O 4.92953591 24.81282037 33.20972513 -0.00175759 -0.00174823 0.00114591
O 3.46637651 0.54786326 31.69987938 0.00151324 -0.00108947 0.00104428
O 7.53722164 24.22116551 25.71762447 -0.00168795 0.00040772 0.00206086
O 9.18919811 19.30751766 27.11212658 -0.00120627 -0.00337158 -0.00126338
O 14.72825646 8.65760167 2.40224797 -0.00534937 0.00368831 0.00002032
O 16.01385430 4.35063763 4.04393078 0.00121923 -0.00161847 -0.00426763
O 18.53589127 1.31939775 9.08603177 0.00403215 0.00273943 0.00245021
O 17.44652027 5.82123316 8.28470987 0.00156877 -0.00518110 -0.00585296
O 15.09459593 4.68005863 9.14478291 -0.00236500 -0.00114874 -0.00127196
O 13.70268723 9.90277437 8.54956078 0.00244264 -0.00490329 -0.00501070
O 17.76044119 4.81503336 2.17745683 -0.00121020 -0.00090198 0.00461751
O 19.39167228 0.24591573 3.55276323 -0.00600244 -0.00042121 0.00654919
O 12.99590062 8.59136309 13.94849274 -0.00046796 -0.00395644 -0.00692044
O 14.14750992 3.61293891 15.26422918 0.00097098 0.00011783 0.00195096
O 16.87761128 1.02164395 21.65989243 0.00099744 -0.00199714 0.00196622
O 15.59457059 5.96497468 20.33837671 0.00243495 -0.00162079 -0.00131846
O 13.66718815 5.00012443 21.87327543 -0.00360398 0.00450211 0.00518389
O 11.85881921 9.85151925 20.02551711 -0.00429375 0.00275040 -0.00621684
O 16.21324526 4.66537548 14.17428101 0.00001781 0.00379096 0.00356875
O 17.91063288 28.96278953 15.48876817 -0.00606716 0.00228641 0.00112252
O 11.24389398 9.16978088 25.86304503 -0.00847096 -0.00083621 -0.00507469
O 12.60861608 3.78298327 27.45777871 0.00051815 0.00053378 -0.00316037
O 15.36805828 1.07034406 33.23096932 -0.00039523 0.00069027 -0.00694683
O 14.18250726 5.91714007 31.86933461 0.00179409 0.00384979 0.00168373
O 12.07393184 5.06644671 33.08898472 0.00088387 0.00436096 -0.00435718
O 10.46690907 9.41517576 31.90844744 0.00624725 -0.00343090 -0.00753857
O 14.51383798 5.04444529 26.11935108 0.00125794 -0.00234352 0.00473023
O 16.18118983 28.78023363 27.42379391 0.00236410 0.00095470 -0.00004120
O 14.32330951 17.99122379 2.64563605 -0.00365727 -0.00126597 0.00109134
O 15.73839362 13.08909375 3.41103723 -0.00098170 0.00336331 -0.00000904
O 18.31018030 10.49427240 9.79834386 0.00401256 -0.00087968 -0.00236807
O 16.99524838 15.88233314 8.55942340 0.00048059 -0.00313406 0.00173012
O 15.44175810 14.43661371 9.88607761 -0.00167017 -0.00247247 -0.00023872
O 13.50252987 19.51485075 8.10857069 0.00240750 -0.00734628 0.00121141
O 17.88571186 14.15420437 2.10564259 0.00084380 -0.00826070 0.00064842
O 19.53354026 9.41995893 3.58521628 -0.00092979 0.00913461 -0.00283829
O 12.68517955 18.18973537 14.26059872 -0.00615769 0.00046526 0.00082738
O 14.00987493 13.40777430 15.30705445 -0.00464361 0.00223351 -0.00677880
O 16.56127397 10.71694889 21.09944981 -0.00932945 -0.00426832 -0.00248538
O 15.52503664 15.45408864 20.20274081 0.01217021 0.01100487 0.00287549
O 13.37265594 14.63301184 21.35332781 0.00184257 -0.00219346 -0.00438470
O 11.97058344 19.55551663 20.00142524 0.00465521 -0.00310202 0.00453046
O 15.88737935 14.64779207 14.15036665 -0.00286834 -0.00701735 0.00019362
O 17.65471646 9.79641185 15.49729349 -0.00116345 -0.00091964 -0.00026876
O 11.01639044 18.31379919 25.79174464 -0.00284799 -0.00276446 -0.00212221
O 12.49979402 13.48282710 27.24524878 -0.00142215 -0.00328138 -0.00227540
O 15.57764748 10.72647966 33.05439851 -0.00931240 0.00823562 0.00258797
O 13.76146478 15.62209248 32.06463256 0.00019521 0.00091790 -0.00422032
O 12.02152910 14.69118871 33.47596792 0.00895778 -0.00222684 0.00208869
O 10.28977678 19.31933998 31.90988284 0.00009976 0.00259699 -0.00003769
O 14.57493245 14.51921304 25.79303583 -0.00204350 -0.00129876 0.00500394
O 16.20810359 9.76488920 27.28728718 0.00591201 -0.00311303 0.00148833
O 14.56222912 28.28258045 2.28232345 0.00193657 0.00850291 0.00538050
O 15.80070832 22.77389384 3.12826869 -0.00076941 0.00008735 -0.00222683
O 18.37443319 20.57387586 9.49166853 0.00091025 -0.00201396 0.00047946
O 17.28045458 25.15223406 8.03068307 0.00400184 0.00156139 0.00297476
O 15.15672165 24.24297345 9.83157166 -0.00038496 0.00256034 0.00344265
O 13.85435412 0.26325492 8.23511935 0.00340118 -0.00009310 -0.00159466
O 17.73827479 24.26036124 2.33832854 -0.00366050 -0.00488782 -0.00460731
O 19.49465471 19.28296372 3.61340066 -0.00059401 -0.00131741 -0.00091753
O 13.20931720 28.20478400 14.42124694 -0.00010174 0.00267655 0.00265164
O 13.93526110 23.59223300 15.61032452 0.00154911 -0.00523874 -0.00525875
O 16.53150651 20.41673519 21.56960621 -0.00156407 -0.00096207 0.00518410
O 15.41970514 25.65863627 20.27924404 -0.00205949 -0.00267317 0.00314618
O 13.59217741 24.38624325 21.43161355 -0.00100891 -0.00127105 0.00607393
O 12.08266904 29.24407233 20.29321242 0.00404806 -0.00112033 -0.00390526
O 16.02497072 24.05734381 14.01240174 -0.00271208 0.00217104 -0.00173707
O 17.66999004 19.48634180 15.96124503 0.00210810 -0.00195440 -0.00065509
O 11.38896275 27.83950929 26.21337098 -0.00299296 -0.00394589 -0.00321097
O 12.46839505 23.15466709 27.40323600 0.00196235 0.00051536 0.00602588
O 15.21951736 20.50987259 33.22965687 -0.00205086 -0.00349392 -0.00504482
O 14.19404639 25.15454753 31.98483630 -0.00235943 -0.00075401 -0.00393834
O 11.98140363 24.73142484 33.20949460 -0.00658163 -0.00143955 0.00265943
O 10.49580920 0.16489946 32.07273009 -0.00781215 -0.00232570 0.00017347
O 14.59354350 24.33684327 26.32574761 -0.00604857 0.01102563 -0.00615266
O 16.16566049 19.42746311 27.55301604 0.00014549 -0.00372403 -0.00071839
H -0.01679866 8.94652262 2.85848218 -0.00493580 -0.01664094 0.01157764
H 2.78696383 4.33612630 3.34813086 -0.01166453 -0.01913425 -0.02222263
H 5.95652937 0.46541922 8.41028866 -0.01094365 -0.01104092 0.01750665
H 2.55565567 5.42993846 8.88570614 -0.00568638 0.01667119 0.02059360
H 6.01310363 8.37174884 0.54398338 0.01460337 0.00924003 0.00192208
H 4.10267855 3.20342095 4.81901047 -0.01850411 -0.01412143 -0.02374823
H -0.12811513 1.63885338 10.85374287 -0.00087071 0.01116126 -0.00427637
H 1.33085143 6.45143268 6.81306171 0.00673174 0.00750570 0.00777116
H 4.18583091 6.60790838 10.72289765 0.00380522 -0.01901525 0.01260065
H 4.06572970 1.75241765 6.89859687 0.01542240 -0.01276100 -0.00300904
H 1.25046194 3.16363735 1.24537844 -0.01322736 -0.03398576 -0.00731612
H 1.48726652 7.88991477 4.92301202 0.00897960 0.00414770 0.02031135
H -1.97348583 5.41060691 35.32932359 -0.01655411 0.01010355 0.01663071
H 0.03503468 0.55551054 6.02474690 -0.01934097 0.02118457 -0.00794831
H 2.77821865 4.25974009 12.00093896 0.01035391 -0.00170961 -0.01450814
H 5.50681219 8.95090013 5.94752360 0.00513866 -0.00381771 -0.00415854
H 2.85739631 6.93354632 1.78167773 0.01524701 0.00833610 -0.00787952
H -0.11838345 2.37472972 4.24221814 -0.00068649 -0.00672008 0.01172775
H 2.76524849 2.81780886 10.04383828 0.00235984 -0.02290878 -0.00527359
H 5.43132671 7.46583451 7.80449605 0.01807973 0.00926768 -0.00453236
H 5.09868376 5.13502864 9.66080208 0.00880217 0.01349356 0.00600875
H 3.03868939 29.23912144 7.97569467 0.00326482 0.00960966 -0.01121074
H 0.21266182 5.22087401 2.06363582 -0.01146674 -0.01663946 -0.01509954
H 2.46320490 9.53946844 3.79602348 0.01290273 -0.02510937 -0.00109457
H 7.58995787 3.82100215 7.47504853 0.02744384 0.00133475 -0.01567258
H 2.51526901 8.55593695 9.80478850 0.00736326 -0.01799530 -0.00289214
H 19.98325263 6.19358873 4.11525701 0.00795731 0.01353407 -0.00841737
H 4.78017699 1.04591974 1.53030481 -0.01501360 0.00703351 0.01171250
H -0.36089789 4.15563692 7.22150878 0.00183250 0.02898076 0.00357573
H 1.34234998 7.46310849 9.10435189 -0.00726052 -0.00041281 0.02910781
H 5.50012708 7.13143151 3.33146221 0.00290053 0.01169166 -0.03879937
H 3.16247790 0.55130717 1.57213615 0.01541817 -0.00261287 0.02175368
H -0.13999048 2.71280537 8.31272504 -0.01810538 0.01493038 -0.03376526
H 0.71924940 8.53865684 10.31698157 0.00189833 -0.00347421 -0.00489586
H 4.45123580 6.25163916 4.43582315 -0.01237868 -0.00485212 0.00753694
H 3.61222454 2.09703298 2.29456339 -0.00889682 0.00369404 -0.00109639
H 18.55376419 8.85230180 14.34520044 -0.02339946 0.02036012 -0.01654061
H 1.40767868 4.29816728 15.17557123 -0.01118847 -0.00471598 0.00337468
H 3.60656241 0.46746266 20.91180730 -0.00326091 -0.00642252 -0.01047976
H 0.90367548 5.96282619 20.42463820 -0.02445705 -0.01222543 0.00540909
H 4.01783117 8.08116275 12.76045728 0.01494302 0.00520049 0.00493360
H 2.26702941 3.76891157 17.36524795 0.01476601 0.01102658 0.01276240
H -2.10120944 1.30825451 23.56700263 -0.00724140 0.00141072 -0.01190042
H -0.27067965 6.62546017 18.36301212 -0.02442434 -0.02189278 0.00558885
H 2.66646962 6.92521013 22.20257387 -0.00769005 -0.00427203 0.02317443
H 2.31988835 2.12559777 19.09330355 -0.01466750 -0.00312099 0.00349248
H -0.42257453 3.04874561 13.02341963 -0.00649385 0.01467350 0.01342786
H -0.30816189 8.34287117 16.69605287 -0.01095330 0.00753823 -0.01890858
H 1.25414170 5.40143185 11.76372702 0.00222357 0.00579157 -0.00892735
H -1.68624699 0.85278032 17.97256121 0.02281892 0.01138491 -0.01258400
H 1.16392801 4.41834015 23.61792604 0.00013512 0.00628445 -0.00338856
H 3.80703248 9.32589312 17.61237025 0.01781500 -0.01140475 0.02103152
H 1.00635293 6.98727294 13.52878365 0.01348254 0.00441312 0.01826141
H -1.52029109 2.37956232 16.16475081 -0.00277821 0.00315922 -0.02093897
H 0.91788457 2.76388196 22.00684798 0.00908187 -0.01088032 0.01196600
H 3.72253255 7.66811261 19.40464094 -0.02016134 -0.02130592 0.01906580
H 3.63522183 4.92156626 21.37180087 -0.00440837 -0.00496685 0.01120344
H 1.27451266 0.18292668 20.21222561 -0.00581782 0.01480576 -0.00073373
H -1.42673898 4.51875743 14.00880344 0.00929058 -0.01149230 0.02362342
H 0.78157350 10.26237183 15.65273980 -0.01394930 -0.00382362 0.03237840
H 4.53381242 4.19311297 19.28967264 0.01924460 0.00005798 -0.02936779
H 0.53109657 9.32011070 21.70884739 0.05150303 0.02571228 -0.01398752
H 17.30541099 5.86355576 16.23844182 -0.00063992 -0.00176775 0.03220169
H 2.15124278 0.83283107 13.56561251 0.02832538 0.01070821 -0.00165070
H -1.04108471 4.24677163 19.19593276 0.01971479 0.02930587 -0.02996030
H -0.51824670 8.00019838 21.13283246 -0.00145537 -0.02607599 -0.00688284
H 2.98129747 6.41156565 15.81514375 -0.01741596 -0.00940044 -0.01067758
H 2.39961281 2.21197230 14.65348410 -0.00593556 -0.01297939 0.01090977
H 17.89028713 4.43710544 19.27117704 -0.00828187 0.00055534 0.01733610
H -1.14006956 9.21869231 22.21029632 -0.02212328 0.00459843 -0.00285543
H 4.47217313 5.53688086 16.41193022 -0.01442427 0.01458117 0.02098973
H 3.84343875 1.41406187 13.68398200 -0.00126473 -0.00406760 -0.01014602
H -3.32462511 9.07055610 26.55427491 -0.00592636 0.02442360 -0.05593174
H -0.00016781 3.96597343 27.10976641 -0.00730806 -0.00244404 0.00933946
H 2.35470937 0.91920345 32.89764581 0.00118358 -0.00408911 0.01175839
H -0.44628222 5.34332113 32.08303672 -0.00746614 0.00977438 0.00558957
H 2.68715129 8.38933643 24.39664446 0.01540416 0.00046067 0.00527060
H 1.02837539 3.24302539 29.11018448 0.01220687 -0.02230838 -0.02794158
H -3.48219003 1.49702676 34.94280206 -0.00686614 0.02393825 0.01334233
H -1.59394981 6.41509722 30.36108739 -0.01531767 0.01567872 0.01763171
H 1.30931747 6.90376406 34.15163057 0.00798386 -0.02414948 -0.01878386
H 0.83329330 1.67528596 31.14245700 -0.00060124 0.00317351 0.00213772
H -2.14359844 2.76055400 25.51870876 0.02089977 0.01030730 0.00096507
H -1.51420627 8.08832851 28.37681648 -0.01129113 -0.01522443 0.03037625
H -0.51734966 5.24195059 23.77585428 -0.01629093 0.00161736 -0.00580628
H -2.94310040 0.47507308 29.85893373 -0.02601525 -0.03029992 0.02859167
H -0.34146602 4.65719820 35.49323045 -0.01230079 -0.01991364 -0.00369353
H 2.39491487 9.11394860 29.52144278 -0.00160458 -0.01561566 0.01057277
H -0.51489480 6.97935452 25.69777162 -0.01854344 -0.00263762 0.00780444
H -3.11052387 2.30758011 28.09162730 -0.00720749 0.00737479 -0.01217489
H -0.50571785 2.44551267 34.04149515 -0.00704932 0.03287574 0.02174406
H 2.42798179 7.37503877 31.31084132 0.01615226 0.01211153 0.00496363
H 2.33361531 4.69008882 33.29911457 -0.00975383 0.03287395 0.01147299
H -0.07210011 0.19699554 32.14318076 0.00810331 0.01541081 0.00588448
H -3.03575731 5.00831169 26.24221673 0.00352190 0.00838287 -0.01128665
H -0.54822112 9.95196379 27.76940521 -0.00852791 0.01036893 0.00143320
H 4.15785671 2.66157005 32.45114497 0.00999829 0.00098680 -0.00794160
H -1.66553405 8.44474424 34.28012401 -0.01471740 0.01079233 0.00269292
H 15.43920104 5.65881106 28.55521535 0.00042729 0.00921725 -0.03980771
H 0.57281605 0.49246229 25.17239427 -0.00109203 -0.00803654 0.00647636
H -2.96517473 3.01210959 31.71456988 0.00723541 0.00162196 -0.01241899
H -0.42942079 7.93743499 33.04180607 -0.01655700 -0.00992754 0.01613810
H 2.20508966 5.91029163 28.20892723 0.00297296 -0.01633808 -0.01638238
H 0.64497045 2.06362612 26.04529156 0.01492749 0.00005156 0.00858641
H -3.02304838 4.61775620 30.72000324 -0.00250898 0.00895255 0.05341928
H -2.17832020 7.32344140 33.16236694 0.02080756 0.00352232 -0.00673497
H 3.48285492 6.62905239 27.15466813 -0.00588204 0.00413014 0.01858845
H 2.18768710 1.18347000 25.47206694 -0.03153619 0.01384215 -0.01240761
H -0.14541802 18.46685183 2.79934483 -0.01837836 0.01129425 0.01534637
H 2.89454147 13.48575555 2.98348006 -0.00485026 0.00730106 0.02693062
H 5.54830012 10.18817559 8.85911628 0.00542463 -0.01653258 0.02717106
H 2.31049406 15.39425850 8.42693369 -0.01308642 0.01916715 0.00385391
H 5.75259313 18.05879221 0.35118570 0.00208611 0.03656707 0.02511721
H 3.87009885 13.22247032 5.14012436 0.01224641 -0.01147180 -0.01180670
H -0.31082735 11.11251571 11.37435651 -0.01503474 -0.00599688 0.01137132
H 1.14121034 16.08376620 6.43091229 0.00296662 -0.01091744 -0.02204842
H 4.24544252 16.63266602 10.51169819 -0.01084294 -0.00989023 -0.00182567
H 3.90386450 11.74701089 7.16033687 -0.00126903 -0.02116876 0.00832348
H 1.36160020 12.78484561 0.98469109 -0.00829583 -0.01772951 -0.02448062
H 1.35260458 17.71771540 4.77132415 -0.01704457 -0.01428507 0.02165131
H -1.89198316 15.29880157 35.31078352 -0.01178734 0.01450446 -0.01900618
H -0.04970974 10.39876146 6.20634177 -0.00746231 0.01177847 -0.00182651
H 2.54991673 13.84307908 11.61125479 0.02901197 0.00906886 0.00264727
H 5.49898498 18.38872730 5.55781571 0.00325036 0.01129265 0.02243405
H 2.69066467 16.53713243 1.88929931 -0.03738540 -0.00364883 -0.01556558
H 0.03048108 11.86050223 4.24809584 -0.01351554 0.00900217 0.00128153
H 2.61493366 12.06599873 9.86888899 0.00029873 0.01998239 0.01319640
H 5.33147881 16.83255859 7.29410581 0.00908486 0.00733988 0.00267528
H 5.07413079 14.82375947 9.46417892 0.00851591 0.00384316 -0.00296134
H 3.09178854 9.79665980 8.12766981 0.00431848 0.01305170 -0.01931545
H 0.17756350 13.91177063 2.52602269 0.01573955 -0.00440110 -0.00349162
H 2.31139478 19.24943267 3.74209988 0.00906833 0.01101602 0.03858731
H 7.03764181 12.45186618 8.23296992 -0.02055890 -0.03117248 0.01044815
H 0.33414534 17.99529469 10.05773219 0.00131393 -0.01376219 0.01540258
H 19.62581565 16.25766318 3.60407533 0.01662906 0.00072142 -0.00215305
H 3.70651294 11.47163111 1.86410337 -0.00862655 -0.00541448 -0.00658406
H -0.26262772 13.86395193 7.27353905 0.01035505 -0.00533536 0.00116338
H 1.43650695 19.22149064 10.54812808 0.01197671 0.01549405 0.00841654
H 6.46907722 15.42137966 3.89120330 -0.02199048 -0.01917677 0.00556012
H 5.00049486 10.48190248 1.38483297 0.01638616 0.01023768 0.02011489
H 19.06561590 13.31657644 8.41200157 0.01599208 0.00231441 0.01882493
H 2.04728247 18.00319623 9.33591424 0.01712065 0.01880633 -0.02089566
H 5.04288577 16.48935638 3.40684745 -0.00568780 0.03162577 -0.00973833
H 3.21549205 9.75970361 1.52375750 0.00168750 0.00259305 -0.02593672
H 18.70246511 18.89092553 14.75477481 -0.00148787 0.02384691 0.01613525
H 1.02964825 14.04952185 14.79110278 0.01671683 0.00357171 -0.00718941
H 3.56256548 10.48567869 20.82021007 -0.02538490 -0.00484269 -0.01055487
H 0.85078876 15.15828351 20.65485975 -0.00481556 -0.02361167 -0.00537336
H 4.10120504 18.13546823 12.53433788 -0.01431697 0.00610416 0.03560447
H 2.17196246 13.63565246 17.05998720 0.00185834 0.02456680 0.01192115
H -2.22399588 10.76978911 22.95907024 -0.00266674 -0.00047168 -0.00092588
H -0.39885129 16.37307549 18.57775794 0.00599163 0.00828826 0.00962537
H 2.30163058 16.36284424 22.75391298 -0.00339351 -0.00021814 -0.00143754
H 2.14230815 11.90704096 18.95348869 0.01403801 -0.00753477 0.00529594
H -0.47530270 12.68394343 13.32397250 0.00042212 0.01253099 0.01003328
H -0.43336565 17.94731403 16.59650979 -0.00109789 0.01230405 0.00610018
H 1.00502411 15.31580718 12.03581884 -0.01279455 -0.01672243 0.01500012
H -1.73970282 10.55908954 17.73076173 -0.00658005 -0.00779768 -0.03133106
H 0.85772561 13.77389662 24.01111349 0.01955618 -0.01937509 -0.00676359
H 3.51973669 19.12685980 17.77621816 0.00732656 -0.00817558 0.01051263
H 0.81672355 17.06395990 13.87678305 0.00246042 -0.00676215 0.00786338
H -1.83066092 12.29338933 15.89765045 0.03812445 -0.00995485 -0.01299008
H 0.70433406 12.34568292 21.91564235 -0.00435059 0.00142001 0.01498818
H 3.63000203 17.27851372 19.46250677 0.02229909 0.00408804 0.01063868
H 3.27106433 14.49833244 21.67652887 -0.00058005 0.01014851 -0.01026790
H 1.11665428 9.86762165 19.66343955 -0.02258311 -0.00347218 -0.00229934
H -1.65796073 14.74297142 14.22521026 0.00927614 0.01346836 0.00699292
H 0.61561352 19.77108605 15.62622494 0.00492213 -0.00676719 -0.02279488
H 5.82588029 13.73738000 19.50390715 -0.00415584 -0.01067981 -0.01327133
H -0.85418864 18.50929209 22.40085356 0.01382412 -0.02076345 0.00899106
H 17.29352938 14.40184697 16.80569137 -0.02569031 -0.00184274 0.01710509
H 1.78509024 11.79094292 13.88960483 0.00744774 0.00647282 -0.02843075
H -1.75416938 12.63583576 19.82701823 -0.01457558 0.00725577 0.02379686
H 0.64806270 18.51224126 21.49552688 -0.00347998 -0.01417852 -0.03694137
H 4.37707107 14.80708986 16.00754461 -0.02128519 -0.02244693 0.02922153
H 3.41156655 11.21017425 13.20112735 -0.00782564 -0.00495092 0.00244990
H -1.10907709 14.01311836 19.00674054 -0.01301921 -0.00138882 0.00728165
H -0.59678860 17.36973868 20.95476054 0.02157710 0.01663763 0.00726295
H 3.77138244 16.32406856 15.21587034 -0.00362667 0.00132724 -0.01015469
H 1.92772885 10.20938031 13.13993594 0.01723662 0.00676715 -0.01209828
H 17.14234146 18.59342876 26.38486873 -0.00755794 -0.02463611 0.02313600
H -0.36744375 13.95553375 26.95958245 0.03063340 0.01640941 0.01387877
H 2.62671350 10.46881163 32.67582926 -0.00535943 0.01387832 -0.00958386
H -0.76744256 15.38679455 32.62101128 -0.00134508 0.00276735 -0.00763011
H 2.36091488 18.27348976 24.54532402 -0.00608357 0.00889055 -0.00280380
H 0.80563454 13.22931512 28.94608417 -0.00184369 0.00121728 -0.01999732
H -3.06357013 11.37200031 34.75484096 0.00853792 0.00794750 -0.00109962
H -1.96810377 16.36658067 30.59087356 -0.02913401 -0.00762420 0.01022950
H 1.09155723 16.23580343 34.17719453 0.01413809 -0.02220542 -0.02211007
H 0.98624926 11.65024068 30.96007204 -0.00201760 0.00481522 -0.01715334
H -2.28342228 12.17012196 25.05442770 0.00126930 0.00792044 -0.01658724
H -1.77041204 17.57159625 28.53761423 0.00079594 0.01967249 -0.00873513
H -0.37227771 15.47829698 23.46414540 -0.00387510 -0.00629499 0.00390142
H -3.00256980 10.27888954 30.14106777 -0.01524097 -0.01604878 -0.00251481
H 4.27834826 13.78598512 0.11352750 0.00694823 0.01361875 0.01790654
H 2.23132776 18.73751280 29.39803419 -0.00763057 -0.01117630 0.01668683
H -0.58318241 16.84252813 25.40047512 -0.00472945 0.03390971 0.00062658
H -3.21669916 12.02775482 28.35583218 -0.01120464 0.00657034 0.02849951
H -0.61027721 11.99712953 33.96129474 0.00973628 0.00150113 0.00335619