2160
Time=99999.99999996 pbc="T T T" Lattice="20.62472947 0.00000000 0.00000000 0.00000000 29.26403330 0.00000000 -4.71594510 0.00000000 35.36303885" energy=-13795.32135022 virial="-67.14657853 -9.31166498 48.73400074 -9.31166498 -51.20155578 7.62418717 48.73400074 7.62418717 -57.56798079" stress="-0.00072211 -0.00048964 0.00227710 -0.00048964 0.00003508 0.00044145 0.00227710 0.00044145 -0.00020261" Properties=species:S:1:pos:R:3:vel:R:3
O 0.92723862 8.88098358 1.83591029 -0.00471204 -0.00297613 0.00364467
O 1.98724340 3.88033457 3.51117809 -0.00356523 0.00458754 0.00447648
O 4.26384517 1.26297163 9.34807697 -0.00437563 0.00103099 -0.00402739
O 3.47731566 5.83976337 8.42943821 -0.00020546 0.00098345 -0.00947015
O 1.28098544 5.26902976 9.70561169 0.00107653 0.00637564 0.00795772
O 0.11641997 10.06950096 8.44258674 -0.00493527 -0.00284618 -0.00199487
O 3.89408235 4.79828071 2.23280487 -0.00309146 -0.00441286 -0.00345104
O 5.62707904 0.01571088 3.34431117 0.00111808 0.00163895 0.00249777
O -0.76899139 9.37896946 13.91770173 -0.00222955 0.00225277 -0.00744724
O 0.19634886 3.88523308 15.14029689 0.00789006 -0.00348839 0.00290445
O 2.86954863 0.83528657 21.40676855 -0.00302878 0.00140441 -0.00966266
O 1.54942551 5.94038444 19.81589247 0.00216681 -0.00436388 0.00376017
O -0.20346184 4.75173322 21.17914728 -0.00116033 0.00095761 -0.00048731
O -1.75941119 10.25883633 20.10753411 0.00278546 -0.00320662 0.00562049
O 2.32630408 4.78212130 13.93907679 -0.00120541 0.00009360 0.00452393
O 3.89493020 0.08823669 15.24774857 -0.00535864 0.00923553 -0.00125388
O -2.33040457 8.58594262 25.78712218 -0.00190788 -0.00407602 0.00229471
O -1.28206613 3.81111548 27.29322748 0.00418352 0.00192088 0.00694382
O 1.57534878 0.80533007 33.13665544 0.00144464 -0.00002100 0.00216563
O 0.57058661 5.42401121 31.36046593 -0.00237224 -0.00294518 0.00037938
O -1.54608201 4.75821318 33.00911752 0.00903426 0.00054991 0.00146972
O -3.23005644 9.56466099 31.63481650 0.00112123 0.00743025 0.00350807
O 0.81363692 4.80597605 25.81000791 0.00294768 0.00723767 -0.00305526
O 2.47651334 29.21982307 27.05747081 0.00121340 0.00128158 -0.00334342
O 0.83924456 18.27671681 2.53387348 0.00221810 0.00056046 0.00014551
O 1.69119628 13.63593024 3.47500898 -0.00450459 0.00044036 -0.00300001
O 4.58965883 11.21208565 9.07484801 -0.00120975 0.00115523 0.00256904
O 3.30414028 15.74313757 8.52402242 0.00092801 -0.00569556 0.00808290
O 0.99602769 14.94468063 9.55678931 0.00010005 -0.00449006 -0.00359827
O -0.26168554 19.26308075 8.21224216 0.00069250 0.00391641 -0.00419034
O 3.54686895 14.25998879 1.81187316 -0.00293804 -0.00101801 -0.00107085
O 5.68521268 9.76747222 3.55220165 0.00532466 -0.00190273 -0.00658989
O -1.02849307 18.19503418 14.41150237 0.00165374 0.00929392 -0.00515950
O 0.38159793 13.61585832 15.21335364 0.00242895 -0.00336392 0.00098691
O 3.25719253 10.78217410 21.13406655 0.00451104 0.00037639 0.00215927
O 1.73162446 15.47586814 20.09246201 -0.00513735 0.00495770 0.00192484
O -0.18458819 14.31539043 21.42746407 0.00245677 -0.00347385 -0.00256226
O -1.87105421 19.18794952 19.71214761 0.00503549 0.00601172 0.00365059
O 2.11819234 14.76510711 13.89964717 -0.00445094 -0.00265300 0.00523458
O 4.06806130 9.77512039 15.37695289 -0.00669275 0.00082599 0.00653223
O -2.36793139 18.05578411 26.01994338 0.00334082 0.00440836 0.00313823
O -1.14999869 13.44737292 26.82239100 -0.00680350 0.00120711 0.00295344
O 1.54738871 10.79099480 32.89838791 0.00237869 -0.00081996 -0.00003269
O 0.30003103 15.82387490 31.63532514 0.00102894 -0.00258513 0.00192451
O -1.81916188 15.05063602 32.89907713 -0.00098139 -0.00276975 -0.00378200
O -3.55823652 19.74874379 31.43523761 0.00203437 0.00052629 -0.00142130
O 0.83344419 14.50924624 25.56010837 0.00338671 0.00328345 0.00428155
O 2.30457025 9.54368355 27.12196006 -0.00338104 -0.00367563 0.00109382
O 0.77040442 28.47210747 2.26575983 0.00198722 0.00301675 -0.00327449
O 1.99058306 23.32000826 3.62324875 -0.00592943 0.00599423 -0.00492618
O 4.62962494 20.75186108 9.38951273 0.00122166 -0.00037645 0.00163949
O 3.38001843 25.43359303 7.96476725 0.00488240 0.00110444 -0.00168746
O 1.21470817 24.30082720 9.23793939 0.00151801 -0.00301870 -0.00395212
O -0.47198154 0.28338038 8.31255180 0.00591989 0.00094496 -0.00270464
O 3.96472238 24.48822028 2.17265593 0.00097172 -0.00053242 -0.00080196
O 5.59867138 19.29933592 3.64547789 -0.00431444 0.00011321 -0.00075795
O -0.61937163 28.22776954 13.85839248 0.00169718 0.00031714 0.00101386
O 0.37287446 23.01028022 15.06853504 0.00165530 0.00170738 0.00049917
O 2.88671615 20.82982202 20.89656909 -0.00354759 0.00283930 0.00841451
O 1.73689193 25.64405127 20.08001062 0.00352621 0.00171318 -0.00030821
O -0.24568112 24.54983845 21.14207932 0.00003494 -0.00368088 0.00017102
O -2.01323704 0.26160587 19.71097975 0.00244195 0.00356973 -0.00029047
O 2.29041683 24.38364332 14.00240188 -0.00375099 0.00777191 0.00062743
O 3.84898355 18.97555463 15.00147332 0.00178296 0.00192261 0.00270685
O -2.24128963 28.24096709 25.87875319 -0.00140003 0.00162217 -0.00470710
O -1.18937753 23.47957281 26.91775546 -0.00380115 -0.00114011 0.00254591
O 1.39478487 20.73382813 32.90291724 0.00428412 -0.00684114 -0.00149100
O 0.41548928 25.42596305 31.69565195 0.00022481 0.00717623 -0.00179796
O -1.63584095 24.54582246 33.31414663 -0.00024797 -0.00309483 0.00425279
O -2.98472890 0.33092892 32.22601879 -0.00169330 0.00159858 -0.00209867
O 0.92504413 24.32081028 25.81659098 0.00386117 -0.00024602 -0.00069850
O 2.44176895 19.56801168 26.81590313 -0.00805821 0.00291233 -0.00881239
O 7.75540875 8.98519845 2.13373869 -0.00323779 -0.00071642 -0.00489543
O 8.79439080 3.84732138 3.60927671 -0.00424171 -0.00010675 -0.00110514
O 11.62014891 1.46825925 9.69098145 0.00266994 0.00867020 0.00087894
O 10.23547530 6.15034616 8.51424047 -0.00128747 -0.00477427 0.00166078
O 8.18756101 5.08775273 9.77788783 0.00176071 -0.00571649 -0.00615007
O 6.62393515 9.70612085 8.36413939 -0.00028412 0.00193879 0.00373901
O 10.86414414 4.97673857 2.27356207 0.00148627 0.00267508 0.00174282
O 12.52114242 0.13145074 3.50687404 -0.00739627 0.00217054 0.00749441
O 5.90514887 8.66900694 14.27579869 -0.00042760 0.00550845 0.00233666
O 7.28529450 3.61556606 15.28300122 0.00091334 -0.00394688 0.00207272
O 9.87828151 1.16933024 21.24889245 -0.00210530 0.00085342 0.00090579
O 8.72132792 5.94461647 19.99201255 -0.00121503 0.00040030 -0.00270364
O 6.67006365 5.10808046 21.18952627 -0.00268206 0.00183191 0.00108369
O 5.11452703 9.34200220 19.65402743 0.00175524 -0.00253314 0.00081402
O 9.14083161 5.05274834 14.40617255 -0.00035261 0.00134729 0.00084804
O 10.73636356 0.01053005 15.40446088 -0.00191517 0.00511600 -0.00384469
O 4.36302639 8.75735478 25.86975471 -0.00124974 -0.00139725 -0.00018604
O 5.58485067 3.98161343 27.09308128 0.00261233 0.00054399 -0.00162335
O 8.42451087 0.92730237 33.27734713 0.00125824 -0.00178503 0.00836472
O 7.22440261 5.97729990 31.51787171 -0.00356823 -0.00481673 -0.00510448
O 5.46280961 4.93396775 33.26774349 0.00575951 -0.00127474 -0.00562312
O 3.55052057 9.67349871 31.59323056 -0.00362246 -0.00066717 -0.00011853
O 7.80993752 4.68118667 26.02165341 0.00042675 0.00141143 0.00264468
O 9.27322406 28.86692050 26.78651475 0.00108715 0.00093000 -0.00411611
O 7.74084278 18.26301196 2.40785257 0.00768216 -0.00572939 0.00028449
O 8.51307125 13.63872904 3.69445098 0.00148598 0.00550880 -0.00179417
O 11.49693099 10.61391066 9.55740843 -0.00117910 0.00010155 0.00281159
O 10.42646912 15.59658899 8.19056756 0.00056372 -0.00191992 0.00441972
O 8.19166176 14.87233401 9.22665096 0.00365705 0.00696444 -0.00623309
O 6.67324595 19.69384158 8.46218477 -0.00124504 0.00002967 -0.00111471
O 10.71883370 14.32805506 2.12666323 0.00029552 -0.00409835 0.01040184
O 12.41257600 9.68830969 3.68224694 0.00425396 0.00264042 -0.00571637
O 6.17226460 18.63434644 13.89579106 0.00123302 0.00528222 0.00025541
O 7.11285194 13.57919400 15.20706097 0.00125338 0.00086218 -0.00055873
O 9.81490501 10.72695228 21.31086181 0.00364345 0.00406231 -0.00281794
O 8.69030087 15.67460129 19.89158145 0.00452555 0.00433006 -0.00050441
O 6.68630023 14.58324226 21.19846857 0.00380218 -0.00597210 0.00726025
O 4.93969162 19.46561347 19.86368933 -0.00121652 -0.00119667 -0.00187248
O 9.15079396 14.67937437 14.19926159 0.00328108 0.00837539 -0.00209287
O 10.73612951 9.41690592 15.05877594 -0.00003824 -0.00296960 0.00102334
O 4.37421877 18.23600366 25.94685166 0.00593503 -0.00304269 0.00248707
O 5.72282724 13.92417245 27.17981011 -0.00343018 -0.00455869 -0.00121417
O 8.46581525 10.75673186 32.78627783 -0.00303659 -0.00209954 0.00620071
O 6.99321467 15.65313113 31.76104588 0.00220070 0.00126454 0.00440732
O 4.87324321 14.74033802 32.68659491 0.00168601 -0.00022006 -0.00226100
O 3.52350580 19.67177125 31.69230639 -0.00533679 -0.00793383 0.00232632
O 7.72648871 14.54353971 25.83657150 -0.00116205 -0.00055865 0.00127014
O 9.24014771 9.70553847 27.07112596 0.00152233 -0.00120424 0.00255481
O 7.70083100 27.97510267 2.67738038 0.00397126 0.00539563 -0.00161464
O 8.60658582 23.53442908 3.65908712 0.00247099 -0.00374380 0.00365048
O 11.33657969 20.19027708 9.71288921 -0.00211054 0.00267855 0.00501147
O 10.48657847 25.53541829 8.24273607 -0.00592450 -0.00036440 -0.00073389
O 8.02056934 25.07866757 9.05728282 0.00300872 0.00131190 0.00016588
O 6.60726014 0.30884947 8.30681126 -0.00523728 0.00067593 -0.00444957
O 10.79954864 24.45191752 2.45537588 0.00202345 -0.00191358 0.00271212
O 12.26423712 19.41644505 3.67217319 0.00476369 -0.00662434 0.00194393
O 5.93223903 28.15106436 14.26360399 0.00591075 -0.00240102 0.00325297
O 7.04428857 23.00964754 15.03055175 -0.00084822 -0.00477506 0.00752231
O 9.94086618 20.58938891 21.12677111 0.00281385 0.00135333 -0.00267082
O 8.65065367 25.46955340 20.16287208 0.00126466 0.00904711 -0.00073504
O 6.52645935 24.05558906 21.30935014 -0.00147744 0.00346856 -0.00091626
O 4.96299727 0.03647775 20.00272807 0.00809668 0.00249150 -0.00703583
O 9.14288038 24.22100993 14.23590726 0.00217961 0.00722856 0.00283551
O 10.54222800 19.53637991 15.29160015 -0.00044973 0.00369795 -0.00479533
O 4.55238195 28.25130589 25.87913944 0.00172324 -0.00818667 0.00349133
O 5.58811040 23.44843120 27.13561981 0.00054943 -0.00335520 0.00035269
O 8.21960851 20.46203312 33.06658216 0.00575249 -0.00330218 0.00539838
O 7.10407474 25.86978284 32.04953507 -0.00503013 0.00225700 -0.00500638
O 5.10999739 24.70806949 33.19749592 -0.00011657 0.00570490 0.00188316
O 3.67274397 0.42705121 31.63910661 0.00534890 0.00308332 -0.00528054
O 7.54640638 24.31674359 25.62818632 0.00327218 0.00428787 -0.00686332
O 9.30123397 19.60677015 27.01241226 0.00073898 -0.00100568 0.00436249
O 14.58385404 8.67746181 2.63162144 -0.00410301 0.00490585 0.00045856
O 15.83590716 3.83781673 3.86870073 0.00689125 -0.00327803 -0.00037008
O 17.98760100 0.56330817 9.83394782 0.00298499 0.00043169 -0.00315571
O 17.23176806 6.11977730 8.46072067 -0.00456251 -0.00182410 -0.00635198
O 15.22304475 5.32891624 9.69690329 -0.00263029 0.00400342 0.00463602
O 13.62074559 9.60300057 8.33687288 -0.00113104 -0.00166943 -0.00685091
O 18.22104672 4.40897119 2.79540980 -0.00066376 0.00112456 -0.00214352
O 19.43645850 0.08755253 3.75029625 -0.00576995 0.00373269 -0.00489498
O 12.98006861 8.35881059 14.62091745 -0.00626784 -0.00224482 0.00951389
O 13.98085963 3.69410524 15.51334328 -0.00101190 0.00267486 0.00056425
O 16.81066899 1.00041612 21.21303496 -0.00237447 0.00129247 0.00374644
O 15.58215152 6.18796033 20.14994326 -0.00129045 -0.00513511 0.00774729
O 13.37330029 5.15143877 21.19341015 0.00074620 0.00209453 0.00350082
O 11.79325829 10.02267282 19.85929143 -0.00206538 0.00229327 -0.00348974
O 16.04800297 4.62499489 14.16731993 0.00363473 0.01194064 0.00058144
O 17.71240902 28.98233199 15.60401518 0.00161386 -0.00672582 -0.00321240
O 11.35768454 8.82182490 25.93842919 0.00053538 -0.00178129 0.00183265
O 12.67172519 3.43904174 26.90170421 0.00162433 0.00140100 -0.00006172
O 15.31943987 0.96292183 33.19711208 0.00053074 0.00511426 0.00516117
O 13.95583260 5.98106569 32.15334939 -0.00067289 0.00803013 -0.00190418
O 11.88232824 4.96877865 33.18917594 -0.00426723 -0.00320223 0.00307688
O 10.49422881 9.49526705 31.87176796 -0.00474213 -0.00073508 -0.00273873
O 14.72880960 4.56400066 25.89910435 -0.00487164 0.00018860 -0.00239036
O 16.34002983 0.00845635 27.33648386 -0.00378069 -0.00018684 -0.00704770
O 14.31975754 18.35572139 2.23646348 -0.00475714 0.00201954 -0.00446741
O 15.59868459 13.55572916 3.66437662 0.00304648 0.00536376 -0.00395189
O 18.60607589 10.81802764 9.47664643 -0.00321900 0.00289477 -0.00349241
O 17.08039811 15.66435245 8.05255670 0.00581753 0.00227151 0.00063736
O 15.13690955 14.72054282 9.79430743 0.00169558 0.00000507 -0.00607429
O 13.33874623 19.60221234 8.09923654 -0.00013060 0.00570464 -0.00007342
O 17.69197318 14.51357339 2.27515492 0.00028931 0.00176337 -0.00623209
O 19.44214070 9.51462150 3.46931562 0.00111636 0.00387772 0.00055491
O 12.57889397 18.07139535 14.37514501 0.00319159 0.00240801 0.00028310
O 13.93277046 13.45076852 15.14323279 0.00350964 0.00214478 0.00028625
O 16.65190896 10.77323819 21.11000281 -0.00164078 -0.00301902 -0.00310614
O 15.66499543 15.64440460 20.09862458 -0.00395455 -0.00071335 0.00394220
O 13.45655703 14.59844801 21.12641711 0.00094424 -0.00591451 0.00063314
O 12.01719408 19.33803323 20.11254604 -0.00209364 0.00450052 0.00035121
O 15.91231673 14.50893207 13.95743510 0.00260692 -0.00475144 -0.00221642
O 17.70405857 10.00907786 15.51480736 -0.00175792 0.00326880 0.00978229
O 11.28512451 18.59100730 25.56801080 -0.00147030 -0.00489897 0.00376307
O 12.32393857 13.48958677 27.05861780 -0.00343887 -0.00011773 -0.00229531
O 15.34768480 11.02285686 32.51554622 -0.00138773 -0.00072489 -0.00053338
O 14.02357771 15.82408527 31.89978214 -0.00167319 0.00063636 -0.00166854
O 11.85605534 14.86164792 32.86031943 -0.00427953 0.00238932 -0.00144941
O 10.55186363 20.06659527 32.23327816 -0.00072222 -0.00163982 0.00248603
O 14.64187365 14.74335208 25.63999492 0.00162761 0.00176867 0.00169116
O 16.25622801 9.12830600 27.13500066 -0.00145257 -0.00096395 -0.00515842
O 14.52045569 28.12676949 2.59864001 -0.00730387 0.00775535 0.00167856
O 15.69703603 23.31965927 3.35016813 -0.00684843 -0.00498448 0.00958763
O 18.20833046 20.53556908 9.37245032 -0.00533274 0.00307611 -0.00384558
O 17.27029870 25.79456841 8.45531605 -0.00404379 0.00346796 0.00036762
O 15.23469743 24.65353055 9.66289244 -0.00485575 -0.00052623 0.00295800
O 13.43653468 0.11424230 8.32346345 -0.00263998 0.00056307 -0.00641031
O 17.83704842 24.36004179 2.24606512 0.00462760 0.00159199 -0.00031008
O 19.08253690 19.32135557 3.26776996 0.00559996 -0.00547483 0.00569652
O 12.72474285 28.29356984 14.10709438 -0.00338458 -0.00159707 -0.00258738
O 14.01607064 23.56854474 15.70897684 -0.00061819 0.00047192 0.00384393
O 16.47829646 20.14318172 21.28882717 0.00380403 -0.00185467 -0.00161997
O 15.54084019 25.68680514 20.60394115 0.00192931 -0.00342855 0.00003324
O 13.45322590 24.09454083 21.45394757 0.00168363 0.00363167 -0.00187349
O 12.05135648 0.29875423 20.36494635 0.00166028 0.00413568 -0.00066206
O 16.22952432 24.17342350 14.29154090 -0.00149530 0.00214988 0.00384576
O 17.47311130 19.30986917 15.28532425 0.00304421 -0.00645673 -0.00430175
O 11.48204995 28.41999483 25.74918253 0.00230371 -0.00108866 -0.00262635
O 12.60816622 23.03629320 27.18729581 -0.00161017 0.00437245 0.00206265
O 15.31524887 20.91555059 32.85115910 -0.00434071 0.00219626 -0.00196324
O 13.89461468 25.49849247 32.02718631 -0.01019952 0.00475246 0.00600163
O 11.86604791 24.35731026 32.97722191 -0.00237376 -0.00504634 -0.00715575
O 10.54462274 0.05629305 31.92562500 -0.00905114 0.00100617 0.00292974
O 14.73031882 24.18423637 25.97831795 -0.00086833 -0.00730105 0.00262394
O 16.02092770 19.21560990 26.94554635 0.00323195 0.00156800 0.00298366
H 0.05056028 8.93977439 2.23800321 -0.01870330 0.03255997 0.00096755
H 2.92489657 4.24716230 3.21719911 -0.02367819 0.02373706 0.00013110
H 5.10702912 0.86710657 9.04840706 -0.00878746 0.01031192 -0.01056515
H 2.56006147 5.53222445 8.86153532 -0.00413103 0.01736255 0.03203711
H 5.87851432 8.34007329 0.56970531 0.00004392 -0.00697369 0.00926672
H 3.66111718 3.72384912 5.51910441 0.01264613 -0.01013732 0.01117794
H -0.52624628 1.53188832 11.01102805 -0.00407521 -0.01049756 -0.00593660
H 1.33158568 6.62525050 6.93814421 -0.01436367 -0.00197676 -0.03256971
H 4.10735435 6.69164748 10.69114986 0.00128258 0.00509335 0.00941187
H 3.69799509 1.98798619 7.20639952 0.00352039 0.02944479 -0.01679462
H 1.21989024 3.35436622 1.29629234 0.02928947 0.02876026 0.00462682
H 1.50708272 7.66343055 4.65281580 0.00456233 -0.00599981 -0.01909789
H -1.85669866 5.25839777 35.16844826 -0.01976710 -0.00738035 0.01137718
H -0.19035224 0.79747169 6.04022641 -0.01569498 -0.01580152 0.01022854
H 2.47035228 4.28183640 12.11148830 -0.01826729 0.01336811 -0.00431689
H 5.40310888 9.09734574 5.83175550 -0.00553554 0.02866632 -0.01480072
H 2.91021488 7.38081039 1.36963727 0.00546349 0.01830752 0.02870936
H -0.00382570 2.44588804 3.92660449 0.01344564 -0.00790722 -0.00562466
H 2.43834924 3.00832869 10.18883173 -0.01718616 0.02284871 0.02392637
H 5.50380326 7.30177258 7.60875447 -0.00377244 0.02525763 0.00727073
H 4.90452985 5.04241352 9.76807593 -0.01267924 -0.00975891 0.00870902
H 2.69284757 0.17663679 8.03794727 -0.00531397 0.01616714 -0.00312681
H 0.51916214 5.23166766 1.97362609 -0.02340223 -0.02786192 0.00105024
H 2.54226693 9.54151549 3.71267017 0.02158597 0.00224876 0.00789110
H 7.83675996 4.00523946 7.67798014 -0.00255789 -0.01178368 0.00266890
H 1.23348489 9.36967150 10.68660213 -0.00426756 0.00156085 0.03451633
H 19.75601065 5.43956090 4.84522680 -0.00795307 0.01321368 0.00077547
H 3.68515872 2.09599180 2.08210318 -0.00006599 -0.00478854 -0.03437661
H -0.10081635 2.98751476 8.97544080 -0.00587880 0.02319093 0.00656203
H 2.72601004 8.74817618 9.86029338 -0.01724020 -0.00060530 -0.03116325
H 6.53283391 6.20095868 3.63771986 0.01101025 0.01180943 0.03000667
H 4.85718234 0.99105465 1.24332879 0.01967294 0.00087414 -0.00151280
H 0.37073650 3.91675934 7.63697615 -0.02609904 -0.00527315 0.00298149
H 1.08467482 8.03340540 9.72113118 -0.00935925 0.00424526 -0.00355825
H 5.07501604 7.09926950 3.13472940 0.01629752 -0.00352637 -0.01344073
H 3.13058591 0.42630461 1.41630129 0.01105303 0.03443942 -0.02361625
H -1.67072867 9.54874553 14.35925991 0.00545517 0.02662478 -0.01448282
H 1.03376599 4.11597418 14.70174678 0.00476029 0.02046660 0.02516172
H 3.81703227 0.58443204 21.23390750 0.00085288 0.00535072 -0.00573912
H 0.71570010 5.48180483 20.03764982 0.00551805 0.01064060 -0.01881836
H 4.09844965 8.40767821 12.61828797 -0.01179428 -0.01166792 -0.02558973
H 2.36172026 3.28181375 16.77511245 0.02189016 -0.01871528 -0.02116430
H -1.81067605 1.49259193 22.74833830 0.00061789 0.01660461 -0.00379241
H -0.37180747 6.34115158 17.83811606 0.01446109 0.01205641 0.00007064
H 2.64514060 6.78047673 22.25640369 0.00846984 0.02268291 0.00514465
H 2.29685462 1.87841376 18.58112218 0.00909580 -0.01502206 -0.00017098
H -0.49535374 3.27586335 12.70061718 0.00303281 0.03115070 0.00220409
H -0.02564140 7.96868190 15.92169705 -0.00491230 -0.00420572 0.00647796
H 1.20004463 6.19280458 11.48156132 -0.03736882 0.00562168 0.00729691
H -1.73643757 0.83281824 17.80475958 0.03969229 -0.00988009 0.00598993
H 0.91571804 4.21373988 23.87423223 0.00739419 -0.01645706 0.00856047
H 3.75652637 9.01638296 17.46349448 0.01446141 -0.02733312 -0.00436829
H 1.31941765 8.10787642 13.09237300 -0.00422618 0.00895184 0.01424734
H -1.77134330 2.36679923 15.88870855 -0.01256664 0.02665221 0.00476129
H 0.77791356 2.41590688 22.15189837 -0.01537452 -0.03463736 -0.00948447
H 3.51758416 7.48505509 19.30829226 -0.03194947 0.00664875 -0.01560259
H 3.55398057 4.82385384 21.51697638 0.01709427 -0.01581533 0.00724182
H 1.21473853 0.21209160 19.83954835 0.03499686 -0.03252618 -0.00296780
H -1.52904813 5.06420178 13.76430220 -0.02671734 -0.00578579 -0.00181754
H 0.84434004 9.71011750 15.10684384 -0.01437517 0.00679995 0.00685595
H 4.77377245 2.96423104 20.04211400 0.00217262 0.02411620 0.02170286
H 0.29845917 8.01646359 21.02545012 0.00246832 0.00771781 0.00074715
H 17.36645982 5.35682691 16.39026253 0.02697505 -0.00054181 -0.00755982
H 2.03132698 2.15696195 13.98396145 0.01287094 0.00181171 -0.00056168
H -1.38785286 3.69600188 18.82556053 -0.01811442 0.00953523 -0.00613369
H -1.10789271 8.57472845 21.90748257 -0.00367118 0.02241287 -0.01205537
H 3.54125573 7.02811549 15.28347798 0.00235973 -0.00542449 -0.00952760
H 3.10131127 1.16147555 12.99931061 -0.01165364 -0.02588660 0.03782237
H 17.90802469 3.26523075 19.85379068 0.01296845 0.02172243 0.00794648
H 0.43861928 9.48906570 22.04108463 -0.00387890 0.00824651 -0.03896425
H 2.90646287 5.67291132 16.36680129 0.00464011 0.00511675 -0.00570229
H 1.46968540 0.58192578 13.23475139 0.00196769 -0.02615055 0.00330326
H -3.13679683 8.84423322 26.32270432 -0.00730587 0.00429942 -0.01213555
H -0.40335925 4.30331870 26.98628110 0.00329258 -0.00589338 0.01126199
H 2.54324940 0.76456466 32.72374427 0.01216074 0.01623064 0.00754824
H -0.24055002 5.05976880 31.78963780 0.00605967 0.01878800 0.00314351
H 2.48257137 8.47306060 23.92429316 0.01631986 0.00555237 0.00677108
H 0.79875776 3.45108337 28.76138940 -0.00195631 -0.00223177 -0.01987697
H -3.58979111 1.29388356 35.16014420 0.02155349 0.00359249 -0.00037162
H -1.67114963 6.24972393 30.42897993 -0.00240791 -0.00456942 -0.00400863
H 1.22717330 6.55346635 34.11377716 -0.00086318 -0.03212992 0.01171239
H 1.01567865 1.76720614 30.65168787 -0.01015345 0.02522175 -0.00043487
H -1.84393070 2.88752393 24.76228601 0.00995273 0.00004638 0.01621794
H -1.84070056 8.03537003 28.55351232 0.01514921 0.01942541 0.00211305
H -0.26131468 5.46737320 23.21380860 -0.04235368 0.02520481 -0.02693473
H -2.95019217 0.40870496 29.80092476 0.01373665 -0.03558167 0.00694255
H 4.25450224 4.22004564 0.09337002 -0.02134617 0.04332666 0.02423089
H 2.36138429 8.84745198 29.20244786 -0.00521469 0.00337996 -0.00708089
H -0.33066365 6.97992060 25.18274306 -0.00624863 0.00732744 -0.03173643
H -3.14706984 2.29726224 28.02786368 0.00893292 -0.00570181 -0.02105631
H -0.55448929 2.47519697 33.74065403 0.01301517 -0.00084005 -0.01374446
H 2.27655964 7.37643740 31.18661860 0.00421557 0.01127487 0.01507031
H 2.24852129 4.78790837 33.28756103 0.03006682 -0.03083512 0.02099452
H 0.13063452 29.26279648 31.84168809 -0.02113591 0.01647868 -0.02789667
H -2.86974908 4.87635071 25.76931248 0.00346005 -0.00306259 0.01193485
H -0.69390144 9.67352258 27.41047474 -0.03052336 0.00448952 0.01570568
H 4.98913267 3.61013364 31.26624040 -0.01420107 0.00980866 -0.02557533
H -1.97438577 9.01684350 34.15489857 -0.00612832 0.00763245 -0.00018806
H 15.34113774 5.43507060 28.15125590 0.00542026 -0.00404659 0.00220851
H 0.82718613 0.43613408 24.80596655 0.00422484 -0.00198525 -0.01243101
H -2.21554750 2.53258495 31.82176024 -0.00629065 -0.01705530 -0.00575442
H -0.57539454 8.51551910 33.26440244 -0.01370172 -0.00193282 0.00344598
H 1.63638802 6.00539691 27.95452171 -0.01209831 0.00630366 -0.02284137
H -0.12827641 1.67211389 25.89663248 0.00973276 -0.00755178 0.00354067
H -2.56749623 3.79926770 30.68014986 0.00104866 0.00529585 -0.00887431
H -2.10580519 7.63917291 32.95120248 0.01257790 -0.00374550 -0.00244645
H 3.20334909 6.59471636 27.17008462 -0.02466034 -0.00111315 -0.00594189
H 1.56013730 1.83667279 25.35265106 0.03423907 0.01546185 -0.00373944
H -0.05507725 18.69818537 2.71046888 -0.01684500 0.01924096 -0.02663379
H 2.44262314 13.90105275 2.77594434 0.00741604 0.00489390 0.00034126
H 5.36177358 10.60184539 9.03156695 0.01956557 0.01856881 0.01317575
H 2.37378703 15.32692248 8.73996416 0.02443558 -0.00078235 0.04230512
H 5.96245443 18.49881956 0.47440598 -0.01283238 -0.00866408 0.01001473
H 3.95843899 12.94917835 4.64514418 0.02252249 -0.02716562 -0.01318051
H -0.43622913 10.89662359 11.44772133 -0.00421213 0.01373780 -0.01066739
H 1.43060849 15.90650341 6.82190283 -0.00025486 0.00538724 0.00226726
H 4.08521091 16.64035660 10.33402586 0.00002816 0.01021345 0.02202290
H 4.18481946 11.42724053 6.35388568 0.03432901 -0.00881942 -0.00961473
H 1.26991113 12.69180863 0.92989903 -0.00200680 0.00990931 -0.01448865
H 1.43678752 17.65133937 4.96284187 -0.02537434 0.00566584 0.00229001
H -1.92131910 15.50970595 35.08183391 0.01707476 0.01496729 0.03263885
H -0.08101568 10.70207350 6.46681649 0.01041392 -0.00924851 0.01334467
H 2.45335545 14.17016075 11.69401112 -0.00287022 0.00075998 0.00131182
H 5.55775442 18.46012907 5.76358586 -0.00825622 0.00179811 -0.01580811
H 2.91531882 17.03157790 1.57331762 0.01310121 -0.00097914 -0.00024275
H -0.23648757 12.29837714 4.41610098 0.00274443 -0.00195968 -0.00203921
H 2.63980294 12.87301670 9.72421682 -0.00786875 0.01333969 -0.02466745
H 5.50642878 17.03025777 7.65119844 0.01499839 -0.01596971 -0.02218487
H 5.08844709 15.05027775 9.23578908 0.02814838 -0.00270201 0.00115948
H 3.27913691 9.80523872 7.90851315 0.00087021 0.01142995 -0.00322374
H 0.21802045 14.43552698 2.01419357 -0.00762412 -0.00834209 0.01653635
H 2.51923024 19.60012089 4.20122020 -0.03784373 0.02074691 -0.00297131
H 6.55738284 14.29283144 6.96649233 0.03803227 -0.01808823 0.01543823
H 1.57405151 17.51702036 9.33497371 -0.00035173 -0.00547310 -0.00426249
H 18.89318766 16.21581408 3.93140852 0.01587476 0.00787463 -0.00381948
H 4.24266691 11.70493347 2.13577013 0.02145196 0.01222684 0.01356363
H 19.51010283 12.88270147 8.26720245 -0.01200720 0.01421402 0.02871052
H 0.32651816 18.32855686 10.38319474 0.00624019 0.00100441 -0.01519016
H 3.93370258 15.27409374 4.16775463 -0.01736624 -0.00032673 -0.02462426
H 4.43512239 10.17694796 1.23151650 -0.00670739 0.00392637 0.03208216
H 0.64318472 13.08460075 8.10303498 0.00105749 0.01172231 0.02437691
H 1.95532157 18.89631263 10.39945487 0.02109413 0.00538814 0.00417416
H 5.67860214 15.83449256 3.85330955 -0.03819187 -0.00208504 0.01115699
H 2.94406132 10.56125851 2.05757141 0.02711090 0.00321480 0.00278733
H -1.81995729 18.53488376 14.84426992 -0.00467490 -0.00433999 -0.00334711
H 1.43632683 14.21573161 14.56839259 -0.01481662 0.00722732 0.00289349
H 4.08805895 10.69785495 20.53895959 -0.00335606 -0.00142841 0.01372704
H 0.92064846 14.92160285 20.17416071 -0.00545314 -0.00083153 -0.00424089
H 4.10925570 18.33382883 12.14041917 -0.02255729 0.00594579 -0.00922626
H 2.48698229 12.94116249 16.67310565 0.01087339 0.00024821 -0.00590031
H -2.05577545 11.10817254 22.91603604 0.00172487 0.00361092 -0.00111137
H -0.37100083 16.10011790 18.47408442 -0.01031829 -0.00176336 -0.00701238
H 2.44811411 16.36860926 22.34657970 -0.01088566 0.01450664 -0.00871419
H 2.30602198 11.45423709 18.52964454 0.02103395 0.00772381 0.01408925
H -0.44023319 12.73013727 13.31325880 0.01737562 -0.00407974 -0.01812255
H -0.26932108 17.60853311 16.62415011 0.02373877 -0.01492645 -0.00456045
H 1.00100778 15.43545887 11.58661494 -0.01973151 0.00454252 0.02218265
H -1.65363451 10.31568787 17.51812507 0.01680589 0.01934779 -0.01571872
H 1.17022106 13.99083189 23.63570026 -0.00786446 0.01688162 0.00446994
H 3.83180497 18.58014435 17.42744819 0.01232034 -0.02171218 0.00069050
H 0.96558420 17.02253266 13.60049792 -0.02019262 -0.00765753 0.01511865
H -1.60647153 12.14230689 15.64383153 -0.01233124 0.01035548 0.02098257
H 1.36313705 12.46037321 21.57537031 -0.00326152 -0.01352063 0.02937858
H 3.73834410 17.07621774 19.34050414 0.01772090 -0.02788180 -0.00871959
H 3.50060561 14.83380441 21.11531862 -0.04243696 0.00176183 -0.00675859
H 1.31363113 9.62464002 19.33876432 0.02547231 0.00386698 0.02205166
H -1.57306220 14.55052157 14.00883169 -0.00452541 -0.00825135 -0.00268432
H 0.78181615 19.31731469 15.63844514 -0.01166164 0.01978941 0.01077217
H 5.95810476 13.40148407 19.20076289 0.01550161 0.02065002 -0.01057124
H 0.24719957 17.73781086 21.46987663 -0.00603507 -0.00592644 -0.00430031
H 17.89646340 16.56998546 15.36053084 0.00635777 0.01909782 -0.00504895
H 3.16779226 12.17407941 14.57864899 0.03006956 0.01290514 -0.02475835
H 17.99094434 13.05201391 19.60853339 0.00695630 0.00182216 -0.00157969
H -1.25437215 18.43390527 22.01596064 -0.00990753 0.00452620 -0.01019994
H 2.82929813 16.05393938 16.01639894 0.00901486 -0.03155629 -0.01851784
H 3.03135261 11.04063112 13.19763657 -0.01534557 0.00737689 -0.02847920
H -0.90108357 12.52764199 19.84021843 -0.01271657 0.00277429 0.00046859
H 0.16341869 19.39842953 22.15764065 0.04663533 0.01415379 0.02004117
H 4.03204097 14.73365225 16.29091882 0.02004018 0.00451048 0.00319177
H 1.61871710 11.39411624 14.14025463 -0.00643268 0.00464717 -0.00678885
H -3.17666355 18.43701876 26.38533137 0.00655352 -0.01715929 0.00940787
H -0.39667662 14.04020884 26.61934885 -0.00537098 0.00482959 0.00428218
H 2.47384649 10.47899300 32.57329433 -0.01476260 0.02157374 0.00606921
H -0.58154671 15.44183598 31.86202696 -0.02312159 -0.00510561 0.03386192
H 2.50503129 18.13434654 24.09399581 -0.00098071 -0.01146475 0.00086765
H 0.94639300 13.03721133 28.46186579 -0.00692711 -0.00936436 -0.00108367
H -3.40669604 11.37993723 34.23925235 0.01125379 0.01521625 0.01023740
H -1.68809129 16.31107695 29.99825911 -0.00140124 -0.04147679 -0.00037956
H 1.07618910 16.91576551 33.96395857 -0.00790003 -0.00688474 -0.00487344
H 0.97959366 11.58461885 30.29308747 -0.01908324 -0.00900513 -0.02033380
H -2.17419922 12.58431791 24.90037270 -0.00911839 0.00750018 0.02809322
H -1.78726703 18.27633115 28.39990423 0.00306807 -0.00350972 -0.00762353
H -0.32984589 14.98567902 23.53770718 -0.02932570 0.00863681 0.02429055
H -3.25270592 10.62193749 29.78167834 -0.01855437 0.00609927 -0.01512540
H -0.88404882 13.76792149 35.34738983 -0.02033623 0.01906307 0.01374103
H 2.46556084 18.94825702 28.98298907 -0.01871229 0.01100102 -0.02089267
H -0.41008851 16.59555892 25.24334928 -0.00165742 -0.00584365 -0.00645267
H -3.28445680 12.16339882 28.00436455 -0.01268877 -0.00021212 0.01308198
H -0.54764726 12.21328971 33.32039860 -0.00717909 0.00450765 0.01374934