2160
Time=15000.00000000 pbc="T T T" Lattice="20.59778281 0.00000000 0.00000000 0.00000000 29.05372790 0.00000000 -4.72671379 0.00000000 35.52472364" energy=-13797.01733667 virial="-75.08783715 -7.74579633 31.31296275 -7.74579633 -21.35830460 -2.80551995 31.31296275 -2.80551995 -44.88856887" stress="-0.00074105 -0.00036631 0.00156878 -0.00036631 0.00127588 -0.00007305 0.00156878 -0.00007305 0.00023440" Properties=species:S:1:pos:R:3:vel:R:3
O 0.78597260 8.55019269 2.51717343 -0.00135245 0.00030878 -0.00671749
O 2.02840329 3.77841928 3.40664470 0.00110341 -0.00674465 -0.00253809
O 4.58951459 0.81146638 9.51697235 -0.00531444 -0.00039914 0.00015605
O 3.26547718 6.21357109 8.45968629 0.00252994 -0.00236351 -0.00281303
O 1.62336169 4.69895117 9.59558256 -0.00128673 -0.00575552 -0.00151789
O -0.14535528 9.70970303 8.12405287 -0.00418693 -0.00293955 0.00597245
O 4.14642271 4.62851610 2.36746760 -0.00076403 0.00037967 0.00361252
O 5.41518466 28.89859514 3.45525328 -0.00160119 -0.00063383 0.00016174
O -0.94211156 8.36795586 14.21607755 0.00163889 -0.00088918 0.00308679
O 0.51490824 3.57451485 15.35184448 -0.00258779 -0.00196959 0.00831312
O 3.06004647 1.18495868 21.30976458 -0.00102880 0.00237718 0.00306159
O 1.84707973 6.01164308 20.25327530 -0.00482370 -0.00026604 -0.00135749
O -0.35905540 5.00159607 21.34442044 -0.01183092 0.00207581 0.00287448
O -1.88035891 9.48088119 20.34601499 0.00356644 -0.00086331 -0.00044305
O 2.41800063 4.78278725 14.02788585 -0.00058551 0.00091985 0.00407954
O 4.05927448 0.00117289 15.56143268 0.00394124 -0.00346827 0.00115648
O -2.36185378 8.27469581 26.49011390 0.00291272 -0.00482441 0.00348879
O -1.17563794 3.79310139 27.27483125 0.00316021 -0.00156937 0.00443339
O 1.40000007 0.95848914 33.27771373 0.00335376 0.00361925 0.00074666
O 0.42167022 5.88223660 32.00109642 -0.00152664 -0.00643579 0.00082930
O -1.54495085 4.76203842 33.58487643 0.00111356 0.00241959 -0.00098683
O -3.24927662 9.94986750 32.04719007 0.00139616 0.00531909 -0.00293063
O 0.93060452 5.04022489 25.91843938 -0.00123287 -0.00126513 -0.00316496
O 2.42576872 29.03801924 27.37073837 0.00455028 0.00660193 0.00421641
O 0.78684845 18.42827714 2.44745080 -0.00279875 0.00327590 -0.00388878
O 1.69661329 13.43608136 3.12309778 0.00248106 -0.00240141 -0.00339288
O 4.57800862 10.65051284 9.44096099 0.00012899 0.00617883 -0.00360975
O 3.25049863 16.01406125 8.44708270 -0.00149918 -0.00066716 0.00218820
O 1.32874287 14.79800798 9.70903577 0.00109975 -0.00419557 -0.00569587
O -0.31567534 19.50723259 8.45443244 -0.00080358 0.00141331 0.00482388
O 3.86967677 14.51460866 2.41024149 0.00314881 -0.00091851 0.00362308
O 5.65461979 9.51627657 3.50052590 -0.00196663 -0.00127749 -0.00702190
O -0.81122218 18.47136697 14.30514302 0.00033552 -0.00237422 0.00313241
O 0.42055801 13.27838780 15.61915698 -0.00326856 0.00080537 0.00017002
O 2.85185626 10.82459809 21.35703699 0.00109422 0.00390642 0.00123129
O 1.81554524 15.41173546 20.09497707 -0.00495256 0.00436995 0.00364941
O -0.41147528 14.56921059 21.28657218 0.00302433 0.00362762 -0.00138710
O -1.86688333 19.37958411 19.81683720 0.00620597 -0.00145260 0.00262434
O 2.26701137 14.41446329 14.13780568 0.00119734 0.00305466 0.00350571
O 3.83792357 9.60820009 15.52098344 -0.00003401 0.00543467 0.00135328
O -2.26172691 18.26782256 26.04633787 0.00038215 -0.00120474 0.00162100
O -1.21126844 13.54140589 27.20166827 -0.00276020 -0.00167321 0.00573397
O 1.49563335 10.69958848 33.05797673 -0.00654642 -0.00419592 0.00389374
O 0.31519765 15.85917207 32.15692689 -0.00203458 -0.00034980 0.00374847
O -1.69692334 14.80216762 33.35401861 0.00659962 -0.00505893 0.00193141
O -3.24878355 19.74365705 31.93817006 -0.00050467 -0.00055455 -0.00116010
O 0.82199647 14.66806568 25.85685533 0.00103962 0.00022809 -0.00007017
O 2.37264138 9.43769444 27.11771643 -0.00748278 -0.00299646 -0.00170025
O 0.83146951 28.39371780 1.96686274 0.00186815 0.00083215 -0.00451742
O 1.84526590 22.97455699 3.39549924 -0.00064538 0.00141451 0.00001277
O 4.61171371 20.61996181 9.31271018 -0.00367558 -0.00001112 -0.00191497
O 3.32829929 25.33064435 8.43673179 0.00016357 -0.00338153 0.00345072
O 1.32492407 24.25709583 9.80971198 -0.00373508 -0.00192256 0.00445587
O -0.18202743 0.00369243 7.98200857 0.00126009 0.00609202 0.00005685
O 3.97061016 23.98381941 2.23813603 0.00046531 0.00122889 -0.00234034
O 5.57873773 19.53400616 3.53940745 -0.00189438 -0.00305879 -0.00121947
O -1.06316742 28.00440780 14.38843201 -0.00312782 -0.00474530 -0.00402950
O 0.29939664 23.37820619 15.39416643 0.00088298 0.00118403 0.00469920
O 3.03199832 20.36663334 21.12904111 0.00356583 -0.00156095 0.00116062
O 1.71396144 25.30831768 20.19770153 0.00096323 0.00011748 -0.00504486
O -0.19747852 24.26469814 21.36683911 -0.00206182 -0.00620598 0.00786760
O -1.63444181 0.52845977 20.35597997 -0.00204077 0.00141375 -0.01067281
O 2.41499154 24.40915167 14.00473681 0.00350344 0.00324022 -0.00333333
O 3.88266823 19.37390148 15.44729354 0.01005235 -0.00259345 0.00125852
O -2.41223554 27.84984638 26.34445969 0.00294358 -0.00163830 -0.00455888
O -1.21958895 22.82846482 26.87383046 0.00457309 0.00178562 -0.00206435
O 1.42807989 20.71303946 32.89933293 0.00301679 -0.00181450 -0.00201143
O 0.05730428 25.34010046 32.01730539 -0.00101766 -0.00023844 0.00155633
O -1.94926889 24.15462603 33.19625396 0.00037378 -0.00771273 -0.00066585
O -3.26839693 0.32086448 32.08874875 -0.00279155 -0.00559426 -0.00411705
O 0.76754757 23.95886108 25.90020086 0.00383242 -0.00101245 0.00310310
O 2.44517581 19.49276135 27.41334342 -0.00342151 0.00354839 0.00456939
O 7.70779152 8.63738971 2.19590283 -0.00156401 -0.00349143 0.00272333
O 8.88132769 3.58396834 3.62708778 0.00547705 -0.00051333 0.00027450
O 11.54180481 1.07626655 9.37476039 -0.00271161 -0.00330902 0.00329733
O 10.28803950 5.94585825 8.28427787 0.00066050 -0.00328624 -0.00129107
O 8.29637575 4.64029957 9.54693935 0.00141679 0.00344557 -0.00485617
O 6.59844513 9.54168339 8.33822617 -0.00800837 0.00302658 0.00490133
O 10.87791092 4.64637248 2.49007332 0.00282697 0.00311776 0.00387312
O 12.35046797 28.69893685 3.57869428 -0.00124723 0.00055404 0.00099178
O 5.99687747 8.40624247 14.25157411 -0.00070300 -0.00098828 0.00017098
O 7.25692846 3.74644226 15.31498747 0.00047110 -0.00188150 0.00319002
O 9.72903555 1.11354029 21.42663986 0.00346382 -0.00089302 0.00027917
O 8.75645301 5.82673574 20.24408058 0.00380063 0.00046996 -0.00091865
O 6.47170180 4.92435985 21.41634912 -0.00279588 -0.00288856 -0.00683198
O 4.89910879 10.10889896 20.23962846 -0.00303073 0.00146596 -0.00162195
O 9.30026514 5.07667115 13.94642024 -0.00239224 -0.00267117 0.00199821
O 10.90441121 28.93448233 15.63590917 0.00474608 0.00913998 -0.00197293
O 4.55108039 8.56283214 26.02572789 -0.00059135 0.00267315 0.00238936
O 5.64901120 3.69247502 27.12965946 0.00512826 0.00113263 0.00182631
O 8.21668486 0.98371163 33.30326722 0.00056053 -0.00588018 -0.00116340
O 7.21438731 5.77397621 31.82307914 -0.00128953 -0.00498514 -0.00559985
O 5.17201610 4.76696620 33.38065591 0.00077470 0.00014857 -0.00220435
O 3.73202720 9.70381910 32.13370331 0.00288501 0.00311324 -0.00112818
O 7.96114828 4.66607075 26.50882299 0.00102401 0.00551141 0.00235256
O 9.16524635 28.65973395 27.07726258 -0.00186441 -0.00497139 -0.00260635
O 7.54996082 18.33217280 2.47605929 0.00501827 -0.00651101 0.00606388
O 8.56197797 13.35280191 3.52715956 -0.00067594 0.00126966 -0.00327540
O 11.47760592 10.88505023 9.30213649 0.00099237 -0.00115384 -0.00346987
O 10.23395749 15.70880745 8.20493530 -0.00229063 0.00396183 -0.00320995
O 8.03396901 14.52703954 9.84136672 -0.00182776 0.00261975 0.00446019
O 6.71663644 19.58532377 8.29789618 0.00165540 0.00700266 0.00258405
O 10.93589510 14.33188175 2.61674909 0.00013545 0.00084901 -0.00504963
O 12.65394350 9.67632435 3.41853584 0.00088798 -0.00192047 0.00312502
O 5.96254767 18.40734583 14.35917248 -0.00295372 0.00093050 -0.00210026
O 7.36183976 13.43282313 15.36338047 -0.00157417 0.00226177 -0.00542837
O 9.56406783 10.69778611 21.17992409 -0.00540692 -0.00183333 0.00117888
O 8.76869247 15.54138301 20.25961130 -0.00178206 0.00048961 -0.00398262
O 6.71412767 14.42346797 21.62980940 -0.00157813 0.00789795 -0.00184776
O 4.93763985 19.18161669 19.89894008 0.00611392 0.00342735 -0.00015240
O 9.09669936 14.63934205 13.96171062 -0.00463510 -0.00199586 0.00309904
O 10.89871609 9.76333690 15.36823978 -0.00090031 0.00314805 0.00144218
O 4.59083668 18.13945453 26.27864980 0.00189976 -0.00078391 -0.00299661
O 5.54195950 13.73993429 27.43199894 0.00261595 0.00227756 -0.00412519
O 8.34455559 10.88712951 33.24163593 -0.00033934 -0.00137326 0.00520716
O 7.10274555 15.77943124 31.96419706 -0.00158771 0.00237625 0.00292150
O 5.11007496 14.79845210 33.16181395 -0.00188017 0.00613999 -0.00655578
O 3.28414704 19.26281112 31.82435871 0.00077676 -0.00151309 -0.00450651
O 7.67928913 14.28993704 26.13606070 -0.00223994 -0.00204061 0.00113756
O 9.45164051 9.54897873 27.43865824 -0.00022518 0.00271247 -0.00665710
O 7.59625612 28.09134187 2.29095872 -0.00001535 -0.00534036 -0.00017486
O 8.59335687 23.42090411 3.75133886 0.00211332 0.00317605 0.00031422
O 11.21830244 20.40565227 9.37543463 0.00051391 0.00439026 -0.00052675
O 10.26004361 25.26187657 8.23891138 -0.00208079 0.00438753 0.00129321
O 8.09228424 24.29048119 9.50176772 0.00550015 0.00197518 -0.00132419
O 6.67508452 28.89459996 8.40531996 0.00429286 0.00233564 0.00055028
O 10.61576836 24.16750810 2.15889896 0.00190057 0.00009424 0.00262855
O 12.31699486 19.68582127 3.57494142 0.00290443 0.00403549 0.00339742
O 6.01980888 27.77266481 14.38277006 -0.00165699 0.00164185 0.00092715
O 7.21337868 23.08240806 15.40972501 -0.00405923 0.00095807 -0.00265942
O 9.79119865 20.01504634 21.31543605 -0.00017432 -0.00612688 0.00060601
O 8.74213205 25.08431661 20.14509101 0.00749862 -0.00050536 0.00490581
O 6.59558602 24.23929380 21.23893651 -0.00184284 -0.00500561 0.00851244
O 5.06329768 29.04040132 19.98334051 -0.00416959 0.00011078 0.00206676
O 9.24956109 23.90121744 14.18545921 -0.00009786 -0.00084288 0.00308377
O 10.85451062 19.34045950 15.48040565 -0.00175845 0.00553129 -0.00277220
O 4.39261085 27.89195514 25.92159019 -0.00094051 0.00558055 0.00287726
O 5.60128904 23.34652544 27.36071221 -0.00065062 -0.00324734 -0.00304780
O 8.15948449 20.64734422 32.95904077 -0.00491795 0.00082858 -0.00280391
O 7.00310265 25.28751594 32.06569481 0.00155135 -0.00074378 0.00058050
O 4.88863153 24.29551289 33.02174621 -0.00180888 -0.00015984 -0.00340339
O 3.50354958 0.00763638 31.85560636 -0.00671079 0.00444719 0.00287005
O 7.61995409 23.73507703 25.85354273 0.00242547 0.00338712 -0.00057446
O 9.17496393 19.31856935 27.12393208 -0.00272993 0.00078991 0.00213329
O 14.77261324 8.72273237 2.38656179 -0.00262856 0.00276050 -0.00277863
O 15.80959576 3.60500112 3.30046788 -0.00401933 0.00876802 0.00077894
O 18.43394998 0.98474468 9.38100751 -0.00551178 0.00178753 0.00240203
O 17.23422695 5.82535103 8.23344248 0.00192766 -0.00414417 -0.00212103
O 15.07523846 4.89843240 9.31705777 -0.00244557 -0.00716964 0.00009321
O 13.48675934 9.55822255 8.22975654 -0.00092027 -0.00125375 -0.00950822
O 17.74721975 4.87977987 2.18886752 -0.00245064 0.00469324 -0.00033123
O 19.24634653 28.72601950 3.48232650 -0.00032026 -0.00498263 -0.00196588
O 12.85692918 8.53361627 14.25329488 -0.00296400 -0.00248239 -0.00321038
O 14.08069283 3.80143001 15.40383992 -0.00247309 -0.00020126 0.00041274
O 16.80604742 1.19109211 21.40231540 0.00054235 0.00052108 0.00449735
O 15.56629675 5.84612651 20.18734544 -0.00046263 -0.00044716 0.00278848
O 13.36406937 4.98118688 21.35187973 0.00263385 0.00343272 0.00211848
O 11.79725201 9.72064453 19.87663317 0.00320980 0.00136317 -0.00254328
O 16.28686695 4.88409029 13.86475549 -0.00030378 -0.00290074 -0.00081302
O 17.57617561 0.08032315 15.42321213 0.00314860 -0.00210497 -0.00026312
O 11.32407718 8.55374133 26.16180897 0.00495207 0.00184142 -0.00476113
O 12.56659096 3.68425617 27.20891770 -0.00327795 0.00494746 0.00432519
O 15.08392901 1.17890948 33.07244761 0.01121043 0.00275567 -0.00537138
O 13.99127130 6.09231136 32.00639100 0.00137774 0.00085486 -0.00105881
O 11.94782437 4.99773256 33.23590597 0.00062917 0.00091847 0.00379514
O 10.48641995 9.63536331 32.01021402 0.00158985 -0.00181921 0.00140211
O 14.48401241 4.68012020 25.88925686 0.00211967 -0.00267059 0.00781119
O 15.95578657 28.83122514 26.90656119 -0.00113831 0.00669312 0.00263710
O 14.14388450 18.39106101 2.46123250 0.00115540 0.00433681 -0.00334206
O 15.65182398 13.54648395 3.78723947 0.00535890 -0.00365754 -0.00002550
O 18.32247456 10.68936976 9.71906068 0.00034340 0.00637274 0.00204982
O 17.07951136 15.57702785 8.38629739 0.00031364 -0.00093193 -0.00360555
O 15.09040744 14.48225038 9.59663258 0.00041154 -0.00103344 0.00310286
O 13.22745820 19.49008319 7.99279268 -0.00109308 0.00346947 -0.00201948
O 17.46605444 14.37496880 2.15707297 -0.00526371 -0.00171560 -0.00063469
O 19.33126105 9.67469168 3.80545399 -0.00176191 -0.00586473 -0.00408876
O 12.99009232 18.39902858 14.12585641 -0.00199132 0.00455301 -0.00115342
O 13.96903891 13.43040374 15.34160579 0.00055390 -0.00385192 -0.00457272
O 16.73702402 10.84124845 21.24463119 -0.00416484 -0.00353000 -0.00433123
O 15.43908377 15.72410984 20.26343230 0.00374777 0.00175938 -0.00575650
O 13.55330755 14.29920211 21.27203764 0.00181796 0.00289683 0.00036224
O 12.03430742 19.56508264 20.18391902 0.00042428 0.00423050 0.00285941
O 16.08554111 14.53555203 14.44323991 0.00195720 0.00084278 0.00125805
O 17.59695395 9.37296140 15.31634606 0.00664815 -0.00589257 -0.00061540
O 11.23962436 18.03877881 26.15037462 -0.00207252 -0.00292602 -0.00515920
O 12.52519383 13.21882436 27.10505339 0.00336403 -0.00007642 -0.00007602
O 15.11484344 11.07844976 32.77565112 0.00668037 0.00133086 -0.00002193
O 13.86398947 15.82357797 32.41116956 -0.00101948 0.00549504 0.00109043
O 11.92607002 14.43758309 33.67253817 0.00105880 0.00027289 0.00852826
O 10.37763736 19.73451585 31.67622693 -0.00029598 0.00180606 -0.00167003
O 14.46578468 14.42494160 26.02917334 0.00185925 0.00416872 -0.00370807
O 16.21772368 9.52060252 27.24333645 0.00413845 -0.00268169 -0.00389809
O 14.46065023 27.88342097 2.38508624 -0.00078755 -0.00410667 0.00007123
O 15.61477761 23.22655030 3.59599699 -0.00375971 -0.00299377 0.00260489
O 17.95484776 20.21052887 9.74324016 -0.00187979 -0.00691778 0.00030390
O 17.13704827 25.36691892 8.54577106 -0.00137651 0.00023317 -0.00620633
O 14.98197292 24.23600687 9.35407012 0.00011527 0.00088096 -0.00283242
O 13.44761779 28.94799469 7.96127525 0.00084396 -0.00164587 0.00184239
O 17.70698435 23.85671953 2.27503553 -0.00079071 -0.00004121 0.00113563
O 19.32506542 19.40392912 3.83906645 -0.00326479 -0.00087667 -0.00006752
O 12.84494992 27.78359147 14.34074455 -0.00821138 0.00277951 0.00040538
O 13.94596189 23.00533540 15.11103871 0.00613553 0.00072244 0.00516645
O 16.85263168 20.75863720 20.68697307 0.00065823 -0.00066906 0.00174533
O 15.65080371 25.14734799 19.86162417 0.00226074 0.00340349 -0.00350333
O 13.54582431 24.52692777 21.14842880 0.00038467 -0.00167549 0.00433172
O 11.88291333 0.08439975 20.15197199 -0.00058891 0.00005741 0.00061738
O 16.20993308 24.13515621 14.28439764 -0.00499250 0.00681815 -0.00387504
O 17.68974910 19.53070654 15.62084353 0.00014902 0.00039891 -0.00017836
O 11.36359995 27.79991634 26.07335006 -0.00509199 0.00693808 -0.00050535
O 12.46049266 23.32578055 26.99718795 -0.00939527 0.00387235 -0.00134933
O 15.22900411 20.58345591 33.03460531 0.00285930 -0.00151602 -0.00246773
O 13.89985410 25.26344430 31.78694378 0.00375565 -0.00118002 0.00189920
O 11.68754132 24.28414464 33.15203399 0.00188782 -0.00193308 0.00197973
O 10.25253311 0.30098889 31.90440243 0.00262719 -0.00286805 -0.00281054
O 14.65399313 24.12907472 25.83439108 0.00063752 -0.00007949 0.00307297
O 16.15374402 19.11752091 27.27731564 -0.00621336 -0.00281821 -0.00275252
H -0.13930760 8.91279992 2.69355379 -0.00427853 0.01917442 -0.01780888
H 2.88636326 4.15358963 3.15879397 0.02646081 -0.02133457 -0.01731789
H 5.47296985 0.57085929 9.05278122 -0.00949211 -0.00023481 -0.00541613
H 2.41233988 5.71791030 8.60535430 -0.00779743 -0.00832288 0.02364252
H 5.80937011 8.24801676 0.37227054 0.01425721 -0.01088758 0.01599496
H 4.02780922 3.38718223 5.03389553 -0.00780734 0.00912125 -0.00461023
H -0.34140602 1.09308820 11.08791126 -0.00178455 -0.00757885 0.00008638
H 1.41172950 6.40344999 6.60451664 0.01169329 0.00950033 -0.01403064
H 4.14034800 6.24042096 10.61376022 -0.02500247 -0.02665879 -0.00240423
H 3.96507618 1.81737780 7.04660554 -0.00212425 -0.01045733 -0.00252142
H 1.30128879 3.08587653 1.09240142 -0.02722688 -0.01071162 -0.01422993
H 1.40414111 7.92157053 4.66089679 0.01981875 -0.02575667 -0.02274821
H 2.87252007 5.52031968 0.05685507 0.01133306 -0.01235690 -0.00860307
H 0.07607323 0.43131207 5.71821036 -0.00147364 -0.02706945 -0.00683636
H 2.42528864 3.96595548 11.96373166 0.00477652 -0.00350563 0.03630240
H 5.35429641 9.03423848 5.58536317 0.01563748 0.00788266 0.01198631
H 2.72052223 7.11377578 1.95484621 -0.02603642 0.00063342 0.00288259
H 0.08229221 2.24182173 4.01334307 -0.03288914 -0.02611296 0.01081115
H 2.52774395 2.25194708 10.18751309 0.00360482 -0.01779267 -0.00921368
H 5.32235648 7.68616101 7.73031137 -0.00341108 0.01347665 0.02814165
H 5.13930204 4.48330793 9.86070430 -0.02801855 -0.01553763 -0.00506492
H 2.93073422 0.02992991 8.02281389 -0.04471773 0.00835453 -0.01282182
H 0.31048701 4.72224051 2.30006128 -0.01501289 -0.01859027 0.01059212
H 2.47856094 9.98775872 3.73981068 0.00287382 0.00601243 0.00286494
H 7.61735306 3.48291478 7.45491636 -0.03008175 -0.02012119 0.03863090
H 1.79344642 9.75033637 10.27333848 0.00271630 -0.00040676 0.00120957
H 19.90180536 6.79620141 3.64534936 -0.01473686 -0.01629274 -0.00677687
H 2.89562142 0.56777001 1.68561516 -0.00095545 -0.00599483 -0.00752877
H -0.90044252 3.38692619 7.93608984 0.01289274 -0.01968072 0.00111727
H 2.66902169 8.50091446 9.23226790 0.00362197 0.00910167 -0.00412541
H 4.69774360 5.57255033 4.75118377 0.00950250 0.00385890 -0.01538009
H 3.47066266 1.99317775 2.52328732 -0.00666277 0.00642253 -0.00809977
H 0.54283413 2.45520143 8.39483118 -0.02655760 0.01223485 -0.01608973
H 1.05133042 8.14923436 9.92904892 0.00380324 0.00176785 -0.01330198
H 6.54678779 5.77290828 4.42900831 0.00009736 0.02530652 -0.00776624
H 4.58788464 1.18415297 1.49900119 0.00630188 -0.00247434 -0.01594603
H -1.79464310 8.72793704 14.45210123 0.00861634 0.00689192 0.00408094
H 1.33443620 4.07336535 15.09112445 0.01085609 -0.00813341 0.01008153
H 3.88584172 0.69504363 21.03368604 -0.00987259 -0.02057568 0.00380478
H 0.95794226 5.70323364 20.55715679 0.01081523 -0.00401741 0.02268881
H 3.99972451 7.85682564 12.50956934 -0.00515722 0.00763257 0.00383265
H 2.42511005 3.11294072 16.90451231 -0.02759935 -0.01117503 -0.00529132
H -1.85536416 1.44739242 23.08952986 -0.02431893 -0.01646189 0.00495579
H 0.04404419 5.82833762 18.22149128 -0.00840550 -0.03246228 -0.00071796
H 2.33345960 6.56606719 22.70103400 0.00205350 0.00791005 0.00433579
H 2.44817127 1.70318535 18.89468545 0.00796788 -0.00793395 -0.00244569
H -0.14942108 2.78918419 12.91977793 -0.01831360 0.01524519 -0.01003107
H -0.23546023 7.64673276 16.57334379 0.00521169 0.02982452 0.01588504
H 1.27655133 5.32102297 11.86297854 0.02103670 -0.01508638 -0.01277820
H -1.59196539 0.69438220 18.14962475 -0.00081813 -0.00998316 0.00232823
H 1.22253387 4.43196098 23.92561219 -0.01442249 0.02321920 -0.00510777
H 3.75738519 9.01211807 17.36826755 -0.00797008 -0.01778958 -0.00875040
H 1.22084375 7.03178272 13.58250932 -0.00180910 -0.00811338 -0.00920439
H -1.68131540 2.10789255 16.04479509 0.02085487 -0.00337096 0.01712578
H 1.01408145 2.80563471 22.12870945 0.02377375 -0.01485278 0.00846943
H 3.72343038 7.59714108 19.44574522 -0.01609816 0.02050577 0.01685798
H 3.29212132 4.74303419 21.46879875 -0.00849770 0.00636310 0.00408942
H 1.48060209 0.15485618 20.08884552 0.00622694 -0.01719179 -0.02144006
H -1.19062188 4.74735754 14.16520096 -0.00893864 0.00037827 -0.01057266
H 0.76341691 9.58785937 15.38259616 -0.02616558 -0.00229748 0.01662702
H 5.50770744 4.12197915 19.09543253 0.02014174 0.00169519 0.02764981
H 0.89172479 8.38239966 21.73407969 0.01968526 0.00659638 -0.00610236
H 17.27930802 5.69275226 16.36450578 -0.00994422 0.00631867 0.02453601
H 2.96088536 2.17189574 14.25947727 -0.00593046 0.00164310 -0.01452350
H 17.80706924 3.26640914 20.34412226 -0.02476418 -0.00580467 0.01289644
H -0.60173086 7.36855747 21.41329877 0.02261926 0.01875546 -0.00005121
H 3.54288931 5.21916077 16.52240675 0.01419060 -0.02208573 0.00443920
H 2.85932748 0.80585404 13.12572013 0.00100703 -0.00731338 -0.02077542
H -1.12954326 3.15661063 19.78472194 0.00415424 -0.01690895 -0.02928917
H -0.63880435 8.69470000 22.55148348 0.01793734 -0.00896966 -0.01238428
H 4.97690491 5.95226832 15.87860844 -0.01596000 0.02193878 -0.02606901
H 1.53640201 1.23429011 14.13066558 -0.01853480 0.00717260 0.01937518
H -3.21521256 8.76437247 26.67158166 -0.00985223 0.00042422 0.00626648
H -0.33952616 4.31589987 26.96441071 -0.00264485 0.00087530 0.00851372
H 2.26491274 0.58468989 32.87061843 -0.00045076 -0.00032869 0.00014049
H -0.44531035 5.49690915 32.43674460 0.00885352 0.01195248 -0.00912456
H 2.44932300 8.15646354 24.40904421 0.00956872 0.00792977 -0.00881440
H 1.00956756 3.16230378 28.75180836 0.01303589 -0.01675469 0.01202887
H -3.77880337 1.11573683 35.14373574 -0.00339130 0.01081279 0.02332217
H -1.56344222 6.28396474 30.29482432 -0.01808930 -0.00015314 0.01699087
H 1.09703916 6.73199568 34.04012475 0.00553736 -0.00922558 0.00725761
H 0.84576542 1.70353093 30.92289742 0.01021869 -0.00172089 -0.00835121
H -1.80469980 3.19091355 24.85163375 0.00980066 -0.02126914 -0.02793282
H -1.66534076 8.23375790 28.76492881 0.00060344 0.01865435 -0.00466819
H -0.33876441 5.49520972 23.46335067 -0.02883044 -0.01687072 0.01506574
H -3.17313331 0.61769896 29.75160188 0.00989335 0.00491683 -0.01567322
H 4.39794686 4.40832318 0.12927360 -0.02161625 -0.00066037 -0.01078509
H 2.44304866 9.12791999 29.45799940 -0.00677254 0.01966156 -0.00510801
H -0.40231365 6.93000579 25.61519491 -0.01398618 -0.01157324 -0.00262530
H -3.25408171 2.24912713 28.05249360 0.00055162 0.00815665 0.01941764
H -0.43621712 2.85057406 33.83762316 0.00128797 0.00147023 -0.01713265
H 2.49760627 7.45888113 31.27968450 0.03692029 -0.02299558 0.00229757
H 1.99157427 4.85717751 33.07912602 0.01099011 0.00863127 -0.00945132
H -0.22186981 0.23272362 31.94883077 0.03180901 0.00378954 -0.00175392
H -2.94369075 4.56998949 26.15740087 -0.03476730 -0.01113976 -0.00187415
H -0.62299117 9.74207231 27.60669492 -0.00133493 -0.03374671 -0.00129944
H 4.26369867 4.01690403 30.88482093 -0.00539632 -0.00139998 -0.00026693
H -2.46651353 8.73305617 34.20601884 0.01885884 -0.01986893 -0.00314955
H 15.86999445 7.09630135 26.76064789 -0.00151782 -0.00045539 0.01380120
H 1.08791951 2.03545405 26.10165776 0.01892243 -0.02867966 -0.00219164
H -3.32569002 2.79736016 32.17165989 0.00400206 0.01779183 -0.00875426
H -0.63693234 8.95011511 33.75743499 -0.02072346 -0.00670986 0.00536704
H 3.41091139 6.13951414 27.54694183 -0.02470551 -0.00028129 0.00091512
H 1.62244520 0.56956842 25.10619910 0.00190721 0.00853104 0.00000942
H -2.09736228 3.72629298 31.30481034 -0.01134807 -0.00950174 -0.00602777
H -1.63070132 7.63084919 33.11614691 0.00966385 0.01855955 -0.00015420
H 1.94532769 7.10417903 27.17779352 0.00037968 -0.00807585 -0.03235203
H -0.20926050 0.97188492 25.54107874 -0.01608911 0.00062008 -0.01516606
H -0.07958159 18.76239773 2.88819911 0.01796157 0.00505830 -0.00746523
H 2.54101075 14.00576278 2.96694220 -0.01017921 -0.01833349 0.00537485
H 5.41581511 10.24318188 9.13861164 0.00919525 -0.00086948 0.01687590
H 2.34844972 15.49854609 8.58439672 -0.01031195 0.01617649 0.01473832
H 5.59887827 18.07202581 0.57500922 0.01725090 -0.00027092 -0.00861231
H 3.66741895 13.28915579 4.80432519 0.01334801 0.00625255 -0.00417136
H -0.50248723 10.94640613 11.72355957 -0.01119181 0.01078773 -0.00860306
H 1.47205534 16.01694226 6.50884456 0.03214635 0.01714211 -0.00328476
H 3.97907950 16.65197153 10.67740614 -0.01016972 0.01588707 -0.00704017
H 3.85244955 11.93660853 6.72288473 0.00586157 -0.00505490 0.00313965
H 1.22115028 12.96529202 0.93216281 0.01314920 0.00394295 -0.00383543
H 1.46737446 17.54175423 4.65074501 -0.00279102 -0.00052490 0.00193038
H -1.81881075 15.41855088 35.43910706 0.01484457 -0.01722821 -0.00766089
H -0.05271595 10.32203883 5.94270293 0.02278315 -0.00155841 0.01199654
H 2.39439318 13.51674910 11.94554692 -0.00984006 0.00758305 0.00160420
H 5.23788618 19.00276867 5.77718096 -0.00902940 0.00030625 -0.01556527
H 2.81297312 16.98472926 1.83286946 -0.00556798 -0.00380953 0.00326545
H -0.33685866 11.89427726 4.19785363 0.01537995 0.00774095 -0.01454759
H 2.56027336 12.20828566 10.12360538 -0.02039949 -0.01782316 -0.02497473
H 5.33600216 17.30771584 7.64215503 -0.00262411 -0.00913915 -0.01232098
H 4.84673941 14.76975770 9.80234208 -0.04519958 -0.01490296 -0.01173324
H 3.07491370 10.14506944 7.91369329 -0.01752597 0.02077773 -0.01820519
H 0.05905377 14.78889240 2.03629390 -0.04135523 -0.00743992 -0.01373793
H 2.38512245 19.16419630 3.36228245 -0.01864891 0.00923643 0.01103196
H 5.65025310 13.84557630 7.77232061 0.01041261 -0.02039275 -0.00686085
H 2.10692501 18.47927857 10.25655649 -0.03026236 0.02961140 -0.02033486
H 18.16441117 15.60497479 4.22757324 -0.02404759 0.00005370 0.01647175
H 3.51824147 10.51737261 1.65074652 0.01462213 -0.00685873 0.00561770
H -0.60432738 13.49712290 7.58007559 0.00563572 -0.00926136 -0.03197181
H 1.25837486 17.29636771 9.35494433 0.01997324 -0.02749646 0.01250445
H 5.87437630 16.54370140 3.85820098 -0.00939717 -0.02041596 -0.00125472
H 4.14469129 11.98927021 2.36244359 0.00214948 -0.02351910 0.00609393
H -0.75072066 12.37718107 8.86791113 0.03109209 0.01910271 -0.02719394
H 0.41901151 18.32915563 10.44518482 -0.00704800 -0.01755260 0.00624594
H 4.67193351 15.55182708 4.63014751 -0.01439029 0.01758608 0.04357281
H 5.16482240 10.90547485 1.54156293 -0.03404350 -0.00821606 0.00429997
H -1.67332291 18.81744451 14.71333272 -0.01441625 0.01232653 0.00630215
H 1.28647152 13.58918740 15.38517061 -0.00852478 -0.00192351 -0.02078202
H 3.68943778 10.45312295 21.03826165 0.02895550 0.00567965 -0.02186861
H 0.85909648 15.05795233 20.28312074 0.01301191 -0.00179063 -0.00272572
H 3.90074772 18.04913624 12.75255672 0.02006761 -0.00390420 0.00658889
H 2.21971629 13.02653809 17.47654444 0.00630033 -0.01369031 -0.01654476
H -2.07702563 10.95323834 23.02685952 0.01440592 -0.00620495 0.01291601
H -0.30875707 16.00598337 18.64551259 -0.01574946 0.03097429 -0.02895482
H 2.54623706 16.41686995 22.57174198 0.00643452 0.02050967 0.00567265
H 2.20100660 11.49785479 19.24513618 0.00847618 0.02744055 0.00177615
H -0.44782012 12.55395756 13.46467517 0.00659479 -0.00281474 -0.00307550
H -0.35061842 17.64680242 16.76146691 -0.02544791 0.01189229 0.00204778
H 0.99859709 15.00470689 11.94198322 0.00234697 0.00078035 0.02624484
H -1.68726669 10.08669421 18.03914291 -0.02721296 -0.03292776 0.01558641
H 0.87089148 13.80219526 24.01505719 -0.02665240 0.02711098 -0.00455432
H 3.73386390 18.51610375 17.52061407 -0.01184753 -0.00090787 0.01420604
H 1.08908219 16.89228870 13.66802541 0.00375247 -0.00768257 0.00644651
H -1.58230114 11.68339035 16.01567664 0.02006275 -0.00263170 -0.00710720
H 0.80048907 12.16182627 22.23490224 0.03240078 -0.02155741 0.01301868
H 3.80206706 16.95412368 19.35889726 0.00254701 0.00411439 0.00630589
H 3.52533345 14.32929894 21.74752658 0.04769223 0.01369486 0.01377630
H 1.34572209 9.58188087 20.07563569 0.00546991 0.00007256 0.00276644
H -1.31597151 14.70320657 14.15982085 0.00855999 -0.00479187 0.01961999
H 0.67169877 19.12189158 15.36739950 0.06149638 -0.02080785 0.02726157
H 6.14316035 13.25118413 19.58927491 0.00766027 -0.01357955 0.02028168
H -0.91809120 18.23955958 22.12546121 -0.00670517 -0.00597388 -0.02342200
H 16.88402231 15.75806942 16.43664737 -0.02021537 0.00172347 0.04028381
H 3.37667152 11.42993374 14.01669139 0.00442102 0.00166504 -0.01881919
H -1.66762025 13.41110461 19.09419691 0.01761637 -0.00837118 0.00897745
H 0.70979948 18.16205828 21.28086507 0.02355387 0.00961928 0.00978347
H 4.27075918 14.98002093 16.52292590 -0.01981713 0.00071601 0.00598206
H 2.47809588 10.07621995 13.08218082 -0.00584551 -0.00609623 -0.01380163
H 17.74208343 12.87968605 20.15453307 0.00599189 -0.00933615 -0.01325021
H -0.55315042 16.93533922 20.84658275 -0.00553102 0.00881344 -0.00401638
H 4.21716629 16.46725358 15.33265579 0.01075980 0.05936693 -0.00490971
H 1.50518758 11.36857431 14.07994440 0.01785193 -0.03651209 -0.00837537
H -3.16049903 18.50004639 26.32047103 -0.02494139 0.01954048 0.02602315
H -0.35371276 13.69260256 26.73693709 0.00682350 -0.00082041 -0.03334376
H 2.40158057 10.36987977 32.83379438 -0.01353633 -0.02050723 -0.00907972
H -0.59983519 15.48816000 32.35008496 -0.02596682 -0.00458775 -0.00745677
H 2.54763837 17.87958767 24.61714241 -0.01506273 0.01854215 0.00174353
H 0.75786608 13.54279229 29.09824061 0.01248859 -0.00645053 0.02023350
H -3.37382807 11.41183169 34.56248174 -0.01246932 0.00937256 -0.00965784
H -1.71298506 16.09852919 30.45039192 -0.02767532 -0.01085735 0.00768830
H 0.91314754 16.68935839 34.19042082 -0.02897527 0.01471618 0.01687339
H 0.65447847 11.98628123 31.03062335 -0.02853784 -0.01450415 0.01445628
H -1.94080145 12.55299686 24.89104715 0.00798251 0.00134243 0.00981881
H -1.72508187 17.45999884 28.42002936 -0.01840360 0.00335136 -0.00111924
H -0.41757480 15.30491833 23.23786726 0.01650329 0.00389577 0.01283246
H -3.09137742 10.43687890 29.86172330 0.00907161 0.01980937 -0.00322045
H -0.52728763 14.19066174 35.33143894 -0.02290128 0.03444034 0.00055929
H 2.23201611 18.78790980 29.23062815 0.01892071 0.00596467 -0.01637187
H -0.22347761 17.01771024 24.70472820 0.00457395 -0.00024000 0.00850240
H -3.25331114 12.11907223 27.98200827 0.01721833 -0.01759987 -0.00447359
H -0.48916872 12.28557864 33.66326390 0.01995514 -0.01693780 0.02239105