2160
Time=78000.00000008 pbc="T T T" Lattice="20.62110090 0.00000000 0.00000000 0.00000000 28.97987826 0.00000000 -4.74189742 0.00000000 35.75332240" energy=-13799.88249171 virial="-65.92766339 -22.53375411 46.40625825 -22.53375411 -67.73252929 -33.89120221 46.40625825 -33.89120221 -101.65972024" stress="-0.00068834 -0.00106363 0.00221261 -0.00106363 -0.00078160 -0.00164910 0.00221261 -0.00164910 -0.00247440" Properties=species:S:1:pos:R:3:vel:R:3
O 0.84661014 8.96726807 2.63675213 -0.00622666 0.00614791 0.00345945
O 2.02663221 4.00185509 3.77399558 0.00081706 0.00125992 0.00120654
O 4.46408099 1.17974118 9.35186651 -0.00039793 0.00279972 -0.00428612
O 3.54354905 6.05912030 8.74710439 -0.00435984 0.00565107 0.00115818
O 1.12590162 5.19012389 9.13415242 -0.00382189 -0.00258239 0.00532569
O -0.18460092 9.91432778 8.34337173 0.00085287 0.00633394 0.00005836
O 3.91719694 4.79187077 2.23342419 -0.00322842 0.00127346 -0.00129772
O 5.68696810 0.06771944 3.66657787 -0.00331279 0.00014664 -0.00001972
O -0.87959699 8.25531511 14.41883108 -0.00764092 -0.00493000 -0.00153407
O 0.42698822 3.48945372 15.21487098 0.00211484 -0.00314496 0.00866460
O 2.89622163 0.82566153 21.49051694 0.00006939 0.00338053 0.00077285
O 1.79125867 5.60131623 20.13438056 -0.00300798 0.00177103 -0.00280729
O -0.15199431 4.66794591 21.67450009 -0.00045076 -0.00312689 -0.00021394
O -1.89828138 9.58170356 20.25015232 -0.00083528 -0.00375245 0.00525626
O 2.43601298 4.93169668 14.06349116 0.00462767 0.00502787 -0.00229565
O 4.09175473 28.54931496 15.50325696 0.00256370 0.00007334 -0.00725704
O -2.22208940 8.70194956 26.32687683 0.00481652 -0.00094960 0.00115153
O -1.27078997 3.63251531 27.39964297 0.00409345 -0.00121386 -0.00102861
O 1.33407207 1.08256227 33.54821285 0.00347760 -0.00324127 -0.00378900
O 0.24965375 6.45701858 32.34698134 -0.00633082 -0.00217883 -0.00418097
O -1.89151021 5.27676587 33.57281723 0.00234670 -0.00234046 0.00565699
O -3.49905600 10.23647346 32.01373728 -0.00762494 -0.00222815 0.00222302
O 0.76232892 4.78301189 25.93806178 -0.00482169 -0.00166351 -0.00219197
O 2.35748994 0.02950132 27.56182093 0.00179878 0.00164699 -0.00457072
O 0.68839439 18.20945466 2.49944699 0.00047751 0.00197037 -0.00025030
O 1.86839890 13.35610493 3.31065515 0.00053046 0.00193787 -0.00063974
O 4.77654159 10.51483139 9.43668623 -0.00160251 -0.00089148 0.00304905
O 3.30964373 15.30797105 8.20913807 0.00170887 0.00353007 -0.00404999
O 1.55905154 14.74224825 9.79338179 -0.00632133 0.00202047 0.00072427
O -0.24134215 19.32689254 8.00750734 -0.00453567 -0.00048475 -0.00281196
O 4.08011968 14.51519948 2.11880016 -0.00249371 -0.00299546 -0.00172690
O 5.77402201 9.69680717 3.87690880 -0.00152764 0.00416358 0.00071730
O -0.69204523 17.96655155 14.61757769 0.00139736 0.00196134 0.00892579
O 0.15309768 13.58107070 15.63438662 -0.00066376 -0.00601345 -0.00053353
O 2.94988415 10.55404955 21.35848002 -0.00546883 0.00241233 0.00748931
O 1.63427545 15.43491828 20.47098929 -0.00547415 -0.00339915 0.00076443
O -0.35041404 14.04445120 21.42457916 0.00651203 0.00128892 -0.00644672
O -1.96757406 19.42080769 20.34388166 -0.00301337 0.00186598 0.00209632
O 2.26919523 13.92099902 13.97661667 -0.00320182 0.00152141 0.00078623
O 4.12705261 9.54530382 15.77112088 0.00427458 0.00261896 0.00006995
O -2.48616234 18.32296853 25.94689618 -0.00318545 -0.00113986 -0.00235869
O -1.56061311 13.44195579 27.07200522 0.00895261 -0.00842600 0.00365730
O 1.26490170 10.93553075 32.93978863 0.00115476 0.00014087 0.00215934
O -0.08124530 15.65933530 32.09708720 0.00087478 0.00549287 0.00035978
O -1.87187581 14.56799956 33.41934531 0.00690156 0.00615593 -0.00426400
O -3.50932441 19.34676793 32.05021788 -0.00178264 -0.00004885 -0.00166106
O 0.66980604 14.65722256 26.05773134 -0.00371882 -0.00173811 0.00376021
O 2.32097468 9.75519730 27.36176079 0.00415924 -0.00689601 0.00420212
O 0.95263117 27.89338638 2.52571366 0.00176837 0.00418236 -0.00362893
O 1.92907640 23.05406271 3.54480127 -0.00193104 -0.00394047 -0.00033171
O 4.59181300 20.31909253 9.15285750 -0.00132230 0.00240926 -0.00029520
O 3.58319796 24.98358171 8.03160019 0.00157757 -0.00152939 -0.00499666
O 1.37515911 24.35981552 9.47302239 0.00452066 0.00767631 0.00569099
O -0.02347410 28.74637061 8.21879125 0.00143332 0.00499822 0.00386988
O 3.96611412 24.10091640 2.21930655 0.00192154 0.00611156 -0.00193052
O 5.47387398 19.38582784 3.68707513 -0.00184479 -0.00681867 -0.00179681
O -0.65689982 27.62316451 14.55445140 -0.00211605 0.00510481 -0.00074469
O 0.25549077 22.92258795 15.49408595 -0.00040529 0.00149947 0.00495772
O 2.83726910 20.22051427 21.45263775 -0.00206085 -0.00343583 -0.00409661
O 1.87830374 25.53305062 20.85612485 -0.00492205 0.00482622 0.00035853
O -0.28965909 24.08340131 21.56569852 0.00839127 0.00329016 0.00384604
O -1.93148261 28.94895551 20.09829605 -0.00478064 0.00330820 0.00061818
O 2.48050877 23.69061751 14.24407148 0.00066752 -0.00437364 0.00366284
O 3.79858477 18.96705214 15.47684882 -0.00440115 -0.00260003 0.00462128
O -2.37403518 27.81670709 26.39669602 0.00159399 0.00441518 -0.00205936
O -1.34366975 23.29104080 27.42571270 0.00115985 0.00247266 -0.00272717
O 1.13489817 20.50400785 33.20475940 -0.00154872 0.00501642 -0.00123703
O 0.03422091 25.45863448 32.38570893 -0.00558204 -0.00546925 0.00161651
O -2.09083980 24.25118975 33.22118026 0.00141330 0.00838018 -0.00251700
O -3.59274158 0.20448998 32.42297236 -0.00387391 -0.00520182 0.00051059
O 0.72777526 24.02935121 26.24651373 -0.00096337 0.00265233 -0.00140429
O 2.35144388 19.26994297 27.54742096 0.00158246 0.00060930 0.00187490
O 7.55570341 8.69027490 2.27676471 -0.00080929 0.00670394 0.00378885
O 8.72431207 3.83269334 3.59320106 0.00249170 0.00236389 0.00073102
O 11.70705651 0.92407900 9.64014279 0.00300598 -0.00003745 0.00462384
O 10.11927088 6.09679656 8.36867070 -0.00033340 -0.00028789 -0.00344978
O 8.28190560 4.76096699 9.68383910 -0.00043365 0.00206266 0.00502023
O 6.96930671 10.13927853 8.23164176 -0.00113132 -0.00393749 -0.00204712
O 10.84070352 5.00333498 2.41390418 0.00046860 -0.00201533 0.00316287
O 12.50087264 28.61612835 3.70584796 0.00017075 0.00529384 0.00358157
O 6.28517862 8.59133093 14.40200271 -0.00605093 0.00547306 0.00290258
O 7.52607153 3.49710469 15.33029957 -0.00212595 -0.00330393 -0.00223723
O 10.15701782 1.09997945 21.20517640 0.00273986 0.00293145 -0.00552615
O 8.80005623 5.61687945 20.08336851 -0.00038979 -0.00467374 -0.00539137
O 6.61075588 4.89516731 21.33653564 -0.00113093 0.00523071 -0.00041670
O 4.91900116 9.65239389 20.00695619 -0.00076149 0.00532310 0.00426225
O 9.45942451 4.56442529 14.21822453 -0.00351225 -0.00253510 -0.00005340
O 10.72788645 28.53808005 15.31741571 0.00169274 0.00201230 0.00171258
O 4.87127005 8.54923470 25.97531960 0.00153585 -0.00045241 0.00371346
O 5.56337804 3.57522964 27.39708744 0.00093625 -0.00662510 0.00458300
O 8.12136163 1.30647296 33.48071108 0.00465110 0.00091751 0.00016264
O 6.99519282 6.32552074 32.65954710 -0.00268655 -0.00221380 -0.00010270
O 4.90737973 4.91360996 33.50348256 0.00333262 0.00491567 -0.00158606
O 3.43630543 9.67149145 32.11939987 -0.00248914 0.00243598 -0.00071494
O 7.65546886 4.53852477 26.03367638 0.00345721 0.00919730 -0.00148219
O 9.16872714 28.73630770 27.67808972 0.00017345 -0.00712004 0.00009528
O 7.73960006 18.11638958 2.53401206 -0.00323063 -0.00005271 0.00373671
O 8.71382338 13.76846538 3.44968254 0.00496015 0.00060749 -0.00131411
O 11.68147513 11.06943652 9.34965053 -0.00298388 0.00159577 0.00481217
O 10.13153899 15.77550063 8.39399729 -0.00419244 -0.00041443 -0.00049122
O 8.12589579 14.68239766 9.73233144 0.00698633 -0.00058928 -0.00022745
O 6.60428738 19.02611815 7.95614697 0.00443247 0.00274398 0.00437760
O 10.87720737 14.62081515 2.23952075 -0.00015122 0.00297349 0.00485988
O 12.41747418 9.62899820 3.87083721 0.00209810 -0.00297292 -0.00148502
O 6.12333797 18.39346240 14.39424589 0.00025729 0.00211797 -0.00299345
O 7.08663584 13.43921494 15.47816111 -0.00418399 0.00169003 0.00036437
O 9.63541644 10.46770067 21.39092452 -0.00295432 0.00488418 -0.00641008
O 8.53618315 15.53475592 20.20192786 -0.00037622 0.00463914 0.00204235
O 6.39264105 14.62685807 21.73266118 0.00522882 -0.00378666 0.00147593
O 4.96500450 19.54720414 20.27026101 -0.00545181 0.00261751 0.00293072
O 9.22203715 14.41472173 14.37212437 -0.00523046 -0.00297699 -0.00248575
O 10.97237694 9.64862965 15.55606249 0.00250457 -0.00464910 -0.00299265
O 4.27831486 18.12932164 26.38326840 -0.00298876 -0.00507874 -0.00033818
O 5.50477702 13.27540012 27.24077018 -0.00099567 -0.00161291 -0.00109537
O 8.21179855 10.57823860 33.47621675 0.00261607 0.00281426 0.00123963
O 7.09980349 15.50778154 32.54092588 0.00611049 -0.00849536 0.00724628
O 5.08498953 14.23408589 33.53054486 0.00012131 0.00242898 -0.00321989
O 3.41947406 19.45790517 32.18401031 -0.00346016 0.00198401 -0.00365331
O 7.64912807 14.22717865 26.08333610 0.00032831 0.00571812 0.00254461
O 9.23828007 9.77991541 27.74002232 -0.00189554 -0.00501798 0.00163000
O 7.80114896 27.92850839 2.45283767 -0.00556377 -0.00087497 -0.00397983
O 8.70443906 23.12449610 3.53495805 -0.00189860 0.00104790 0.00133321
O 11.43086277 20.42329983 9.02287975 -0.00343871 -0.00087878 -0.00182443
O 10.30164113 25.36026169 8.52294800 -0.00911175 -0.00086270 0.00033562
O 8.05216793 24.22047286 9.17609110 -0.00569808 0.00172743 -0.00026904
O 6.71055239 0.21053716 8.21891750 0.00457821 0.00144192 -0.00267664
O 10.76211666 24.13543850 2.17981132 -0.00457079 -0.00589416 -0.00047400
O 12.57914242 19.30099238 3.49527446 -0.00578543 -0.00034955 -0.00161050
O 6.09462456 27.58159109 14.33163319 -0.00044745 0.00296750 -0.00048313
O 7.13850717 23.15137832 15.39439057 -0.00457755 -0.00464893 -0.00582228
O 9.70707481 20.30785045 21.42095110 0.00949239 0.00195219 0.00498516
O 8.56392354 25.18344049 20.39429764 0.00117905 -0.00426514 -0.00011949
O 6.51591185 24.46677977 21.67507725 -0.00140242 0.00725428 -0.00060831
O 5.04020847 0.07557272 20.15887791 -0.00389855 -0.00032753 0.00214266
O 9.22279858 23.76053002 14.06360651 0.00113665 -0.00306796 0.00019643
O 10.83446510 18.94598808 15.49769742 0.00309713 0.00100855 -0.00088290
O 4.49750849 27.81679740 26.70012311 -0.00344618 -0.00615141 -0.00178865
O 5.48399896 23.20978168 27.50516478 0.00223510 -0.00429305 -0.00395432
O 8.05908047 20.43099514 33.45449547 -0.00395846 -0.00198024 -0.00545399
O 7.01841042 25.23399075 32.40892779 -0.00307145 -0.00114353 -0.00354186
O 4.89085215 24.08608674 33.43189160 -0.00712516 -0.00057934 0.00504026
O 3.38234292 0.09337892 32.08781363 0.00117988 0.00257204 -0.00242641
O 7.68735178 24.18282813 26.12683504 0.00311492 0.00209582 0.00144778
O 8.98649054 19.09858613 27.56278188 -0.00458809 0.00362131 -0.00520145
O 14.51322398 8.70837064 2.73488698 -0.00168918 0.00733899 -0.00801985
O 15.75818411 3.75357612 3.62645501 -0.00270843 0.00952094 -0.00299193
O 18.51855506 0.57128448 9.60517781 0.00054162 -0.00917242 -0.00114213
O 17.15395650 5.98188012 8.68917351 0.00115261 0.00235336 0.00639523
O 15.02742370 4.95152179 9.59592800 0.00051733 -0.00373941 0.00738325
O 13.44133255 9.82707268 8.19973243 -0.00057185 -0.00122259 0.00079281
O 17.89540913 4.97995293 2.52815832 -0.00022393 0.00350026 0.00017211
O 19.44416692 0.05751257 3.61529660 -0.00129559 -0.00152262 0.00554984
O 12.87688247 8.58139568 14.46467929 -0.00116039 -0.00032753 -0.00434771
O 14.19400795 3.58466088 15.44917296 0.00218077 -0.00232650 0.00096367
O 16.77294310 1.10042661 21.55863503 0.00084714 0.00987416 0.00823218
O 15.89420042 5.90548714 20.37286464 -0.00851355 -0.00009809 -0.00216062
O 13.53223443 5.22343503 21.40455797 0.00075023 0.00778121 0.00143742
O 11.80378439 9.58758856 20.14923013 0.00356899 -0.00311768 -0.00317597
O 16.14986038 4.41672090 14.07555780 -0.00656150 0.00620770 0.00042543
O 17.77063428 28.72476818 15.42067697 0.00058964 0.00291430 0.00056411
O 11.07908187 8.42849236 26.35426023 0.00527836 -0.00649868 0.00729840
O 12.29476090 3.75656450 27.32461298 0.00116853 0.00493349 -0.00028110
O 14.88972215 1.02435598 33.64603982 -0.00354969 0.00089718 0.00446662
O 13.91508341 6.19678622 32.55024721 0.00146010 -0.00926812 -0.00183258
O 11.90639778 5.04452422 33.77462764 0.00234636 -0.00061643 0.00077298
O 10.44574956 9.87539845 32.20647908 -0.00175331 0.00089512 0.00283437
O 14.56525529 4.73715437 26.39266641 0.00022975 -0.00250767 0.00087183
O 16.14293909 28.88962039 27.59926722 -0.00229156 -0.00255828 0.00119243
O 14.76750054 18.39298634 2.28340511 -0.00352827 0.00280267 0.00183818
O 15.70581430 13.56363240 3.60439475 0.00140617 -0.00325533 -0.00468100
O 18.41127025 10.65368553 9.81620880 0.00107658 0.00367520 -0.00285555
O 17.36734252 15.73558280 8.64138966 0.00006060 -0.00030732 0.00053785
O 15.08773869 14.84664972 9.44626917 0.00568757 -0.00532013 0.00220853
O 13.84413234 19.62853785 8.45752604 0.00221374 -0.00411775 -0.00170955
O 18.04894983 14.20857737 2.61983956 0.00073499 -0.00032472 0.00163618
O 19.25643448 9.92789203 4.01760116 0.00495798 -0.00380434 0.00425591
O 13.11599023 18.30393356 14.42540986 0.00170736 0.00684570 0.00423153
O 14.03295892 13.32057139 15.42076408 0.00311195 -0.00253558 -0.00115860
O 16.49563814 10.60283352 21.22306296 -0.00661165 -0.00562572 -0.00216839
O 15.54444093 15.29894017 20.27400174 0.00295757 -0.00348521 -0.00310367
O 13.14769052 14.61252509 21.18582480 -0.00046110 0.00276095 0.00091837
O 11.67722713 19.13732669 20.09038978 0.00578111 -0.00593893 0.00815404
O 16.13957993 14.65664281 14.05062864 -0.00040812 -0.00057288 0.00030348
O 17.65968879 9.43252756 15.37602103 -0.00094614 -0.00515768 0.00201115
O 11.13532989 17.93747905 26.33065617 0.00619599 -0.00467125 0.00198238
O 12.35964896 13.33251090 27.45523392 0.00868955 0.00610501 -0.00410757
O 15.04311649 10.87087834 33.22420610 0.00278606 0.00629458 0.00335852
O 13.90855876 15.75747350 32.18081489 0.00202727 0.00388709 0.00170234
O 12.06086910 14.48260774 33.58310298 -0.00425155 0.00000150 0.00248072
O 10.16260042 19.51663572 31.86515130 0.00750065 -0.00070997 0.00457680
O 14.36288260 14.35836162 26.17643775 0.00139168 -0.00314767 -0.00130184
O 16.08869180 9.28356766 27.39810752 0.00444413 0.00102256 -0.00524671
O 14.63616465 27.89613464 2.31136615 0.00494258 -0.00112035 0.00388587
O 15.47344566 23.16519207 3.67823825 -0.00093147 0.00258038 0.00371510
O 18.64568408 20.80429780 9.17239243 -0.00531407 0.00099643 -0.00342080
O 17.26903890 25.14887666 8.15349172 -0.00184982 0.00397581 -0.00540188
O 15.16184031 24.27435379 9.28136109 -0.00048096 0.00099558 -0.00193557
O 13.85522660 28.44525698 7.76748824 0.00154359 0.00361978 0.00281224
O 17.76589408 23.84439458 2.56695164 0.00001539 -0.00088160 -0.00276526
O 19.42693045 19.45423368 3.69244186 0.00359315 0.00387471 -0.00180899
O 12.99452142 27.48886928 14.29107228 -0.00627363 0.00798474 -0.00120029
O 13.69112253 23.22458951 15.58242454 -0.00351099 -0.00874872 -0.00174748
O 16.43854065 20.56251833 21.46114335 0.00112425 -0.00472539 0.00199852
O 15.53677171 25.13420146 20.05348320 0.00638405 -0.00084098 -0.00645790
O 13.36557093 24.24531901 21.32810602 -0.00666786 0.00632006 0.00586250
O 12.27588833 28.89422542 20.30922950 0.00446775 0.00011152 -0.00091819
O 16.15324480 23.93701380 14.36562202 -0.00170423 0.00709742 0.00697283
O 17.79369049 18.93750411 15.55757568 -0.00060755 -0.00167711 -0.00305830
O 11.20712588 28.04086152 26.14716048 -0.00218938 0.00163177 0.00105814
O 12.35103674 23.32268080 27.31206980 -0.00424398 0.00326909 -0.00895134
O 15.17743287 20.74664195 33.05235302 0.00269102 0.00246975 0.00414384
O 13.52190395 25.89466316 32.45672728 0.00450241 0.00223551 -0.00760927
O 11.81373383 24.20638127 33.37255730 0.00017040 -0.00401602 0.00003791
O 10.29227614 0.34996837 32.43101909 0.00172305 -0.00151606 0.00507150
O 14.51032313 24.47824722 26.13627948 0.00182419 -0.00169161 -0.00001764
O 16.00405852 19.23316522 27.11552859 0.01132069 0.00047968 0.00196484
H -0.02158680 9.35972972 2.91604697 -0.00655290 0.00064339 -0.00016335
H 2.91713184 4.17051475 3.40653281 -0.01591619 0.00201159 0.00989768
H 5.26497702 0.67610422 9.11915851 -0.01188055 -0.00161207 -0.00110107
H 2.58507420 5.55436998 8.87642684 0.00715281 0.01870947 0.00317876
H 5.74591215 8.54972337 0.30299923 -0.00598652 -0.01373477 0.02454379
H 3.81642026 3.55616870 5.56347249 0.00946273 0.01321386 0.01909082
H -0.12566856 1.38251175 11.17923129 -0.01391665 0.00297745 0.01224417
H 1.67432085 6.17221406 6.85194317 0.02571387 0.03240574 -0.02767124
H 3.99456343 6.55816405 11.11406694 -0.00324069 -0.01182812 0.00345596
H 3.99415569 1.64051794 7.11689220 0.00518893 -0.00210627 -0.02262243
H 1.47116749 3.52130711 0.74454070 -0.01463413 0.02332961 -0.01126180
H 1.59015204 7.85778318 5.12084160 0.00620141 -0.00023398 0.00698985
H -2.01682517 5.78427087 35.65019905 0.01744278 -0.01036949 -0.01279424
H -0.18498240 0.71483828 6.23063333 0.02290458 0.01427435 -0.00106083
H 2.61601175 4.14912743 12.28321280 0.00647962 -0.00362842 -0.00041396
H 5.61207816 9.01703430 6.02099369 0.03351257 -0.01086615 0.02146748
H 2.79065405 7.47752753 1.70572599 -0.00265235 0.02444976 0.00371960
H -0.13571002 2.39538036 4.41898354 0.00320866 -0.01279629 0.02272604
H 2.37687137 2.77308311 10.30277007 0.01693290 0.00237441 -0.00548977
H 5.60077863 7.41993612 7.83269305 0.00468475 -0.01055416 -0.00549730
H 5.01210516 5.01203243 9.53098658 -0.00306294 -0.01372382 0.01096056
H 3.05694534 28.95304953 8.14480279 0.00806834 0.02083388 0.01780657
H 0.38657911 5.14075050 2.26820731 -0.00862993 0.01678628 -0.01715994
H 2.57661911 9.47298723 3.98445217 0.02162850 -0.02138261 -0.01856777
H 6.52706807 2.84006147 8.33306894 0.00622868 0.00261474 0.00650092
H 0.83177430 8.91677460 10.62291178 0.00548460 -0.00264373 -0.00929714
H -0.48674523 6.85490328 3.81494639 0.01590171 0.00463446 0.01278347
H 3.22993173 0.92235228 1.77321553 0.02831705 0.00962917 -0.00569640
H 19.35241238 3.26972635 8.23754496 -0.00304125 0.00909700 -0.02288229
H 2.46941106 8.60681034 9.87311391 0.00908615 -0.02566926 -0.01513244
H 5.82175563 6.86538383 3.59808232 -0.00377624 0.01156972 0.02499187
H 4.10329935 2.16970988 2.45345739 -0.01439132 -0.03746413 0.00930801
H 0.40472673 3.12209193 7.87620478 0.00548759 0.00240894 -0.00596606
H 1.00414803 7.57472038 9.46733269 -0.01791550 0.01257986 -0.00882331
H 4.39350942 6.25417431 4.38423569 0.02027455 0.02799497 0.01114662
H 5.03217353 1.07588129 1.43794977 -0.00026089 -0.00917974 -0.00166336
H -1.74485148 8.71822614 14.72619162 0.00721557 0.01715677 -0.00395849
H 1.36622645 3.90043650 14.96178220 -0.02225341 -0.00090442 0.01852724
H 3.70608561 0.41401035 21.21637579 -0.00239365 0.02165640 0.00257145
H 0.95290807 5.25514932 20.61650736 -0.00807949 -0.00366784 -0.00137030
H 4.18254501 7.87170104 13.19256197 -0.00649104 -0.01507047 -0.01127048
H 2.29820014 3.32586189 17.01058024 0.02070070 -0.00187913 0.00166130
H -2.01410728 1.43554550 23.51638143 -0.00697980 0.01434362 0.01264724
H 0.15813924 5.85972202 18.36403783 0.00809656 0.01024498 0.01699104
H 2.69419016 6.42173525 22.53724413 0.00147959 0.00874834 0.01301504
H 2.18817813 1.75821280 19.02492492 0.02164857 -0.00373118 0.01928282
H -0.28408420 2.98718279 13.04043869 0.02517313 -0.00411215 0.01530070
H -0.09700403 7.83587770 16.66884645 -0.02148390 0.00698065 -0.01197351
H 1.11723156 5.33474449 11.53075511 0.00244405 -0.00177802 -0.03099264
H -1.76828519 0.62511276 17.99848206 0.01530485 0.01693422 0.01014183
H 0.70532716 3.91355529 23.73202342 -0.00837262 0.01332597 0.00015985
H 3.77554057 9.09482548 17.87337860 0.01022840 0.00817561 0.01191638
H 1.00790085 6.69652808 13.65949066 0.00100762 0.01935294 0.00329456
H -1.59449529 1.84121611 15.83435968 -0.02825400 0.02216559 0.02412568
H 1.12245251 2.51334054 21.90243752 -0.02118478 -0.00163551 -0.00376920
H 3.76342444 7.36853342 19.74784959 -0.02600023 -0.01236248 0.01306364
H 3.58005102 4.39612778 21.63584142 0.00231136 0.01578439 -0.01271850
H 1.27699484 28.89007411 19.99576449 0.04590795 -0.01451387 0.00906036
H -1.31995584 4.56477138 14.11048484 0.00698040 -0.01423105 0.01333025
H 0.91104403 9.55078715 15.67852025 -0.00764813 0.02478031 -0.00850906
H 6.12928219 3.24184593 19.61754401 0.01267581 -0.00653930 0.00469186
H -1.04670132 8.06719435 22.24935991 0.00708288 -0.01927204 -0.01470148
H 18.21133423 5.33813025 16.16913216 0.01523296 -0.03099101 0.02205960
H 3.31661304 1.29622189 13.60085659 -0.02050916 -0.02056357 -0.02163423
H -1.46592900 2.49615299 20.59005461 0.01048003 0.02342289 -0.01062053
H 0.68090948 8.54213212 21.80696406 0.02948124 0.00139096 0.02228940
H 3.81300788 4.68830627 16.65178621 0.01507382 -0.00545877 -0.01910303
H 1.88173661 0.17535388 13.65200350 0.01781492 0.00716820 0.00980317
H -1.37474767 3.64494453 19.34934773 -0.00845466 0.01569156 -0.00685232
H -0.11572066 7.19422927 21.00630904 -0.01523576 -0.01139485 0.02688575
H 4.85263259 5.93947295 15.98960963 0.02085057 0.01649497 0.00137630
H 1.86188893 1.65768755 14.55477643 -0.00307609 0.01004035 -0.01108523
H -3.11694293 9.06927267 26.64168739 0.02461297 -0.01799692 -0.01231283
H -0.34853043 3.88115716 27.04577400 -0.00840997 0.00168025 -0.00907448
H 2.18391769 0.78850330 33.16397052 -0.01502293 0.00674504 0.00292566
H -0.59190360 6.10306225 32.71558617 0.00534227 0.00345428 0.00427937
H 2.73763799 8.12676622 24.47736298 -0.00898268 -0.00798290 -0.00938269
H 0.59957266 3.44263358 29.24035217 -0.01324915 0.02488181 -0.00605096
H -3.56032524 1.73552902 34.92364665 0.00290554 0.02490187 -0.01324376
H -1.63192760 6.44684140 30.66455363 0.00445513 -0.02121527 -0.01230337
H 0.83612286 6.79781385 34.48911710 0.00660392 0.00245409 -0.00904468
H 0.47146940 1.84562581 31.26446970 -0.00147284 0.00162608 0.01748317
H -2.04786220 3.12290270 25.21706460 0.01234753 0.03398257 0.00080422
H -1.72642353 7.87099795 28.55835684 0.01680362 -0.00763355 0.02121571
H -0.22239360 5.67103747 23.74442836 -0.00219682 -0.00185289 0.02035431
H -3.41182185 0.72045861 30.26518530 0.01097410 0.00517670 -0.01625587
H 4.04270508 4.33592990 0.08290950 0.01016162 -0.02239307 -0.00164599
H 2.24288498 9.14844217 29.24781347 0.00898542 -0.00360732 0.02340020
H -0.22807073 7.29320820 25.70817277 0.01976723 -0.03046958 0.02245008
H -3.30626717 2.06996141 28.17562455 -0.00474276 0.00348286 0.00857316
H -0.57351180 2.76495121 34.05555949 -0.00208402 -0.01484560 0.01777273
H 2.42100653 7.68105621 31.25554676 -0.01771574 0.01000399 -0.00092227
H 1.74000900 5.16857626 33.30537712 0.00832524 -0.00483434 0.01474718
H -0.56094982 0.01122382 32.22799080 0.01561333 0.00331540 0.00821302
H -3.07639928 4.76701752 25.97997799 0.00856303 -0.01427059 -0.00629809
H -0.81384846 9.58334290 27.30603240 0.05563702 0.01507082 0.03057081
H 2.85396752 2.95792724 32.24378286 -0.01005799 0.00811751 0.01378963
H -0.95327370 8.90687386 33.30797374 -0.00481193 0.01098198 0.02201389
H -3.40550384 5.46714328 28.26434871 -0.02244415 0.03197148 0.02659535
H -0.25341304 1.34315465 26.17073407 -0.02970480 -0.00560912 0.02740824
H -3.18457473 4.19664222 31.39234912 0.00227586 -0.01326707 0.00773445
H -2.32309935 7.91741409 33.39270042 0.00396347 -0.00362918 -0.00931145
H 1.62624666 6.80432177 27.30338681 -0.00437336 0.01786934 -0.00555620
H 1.25907155 2.31848816 26.25022868 -0.00454843 0.00451649 0.04098780
H 16.14665342 3.77585112 32.33062825 0.01039682 0.01033805 -0.00659041
H -2.43513234 9.42633994 34.27443759 0.02193512 -0.00830790 -0.01089859
H 1.87934590 5.41185125 28.44455659 0.00107497 0.01122531 0.03216354
H 1.28996318 0.92345475 25.27464685 0.01397114 0.00588326 0.01782658
H -0.14401068 18.59157748 2.82831168 0.01488058 -0.00000746 0.02406515
H 2.71216270 13.77470416 2.96324355 -0.01002884 0.00795044 0.01033682
H 5.67327124 10.38021014 8.86921490 0.03452535 -0.00473009 -0.00000788
H 2.46429910 15.09106697 8.66257239 0.01409154 -0.00929848 0.03106308
H 5.67769779 17.75812269 1.02419743 -0.00489041 0.03747868 0.02056515
H 4.01374156 12.96646914 4.88521448 0.00162238 0.01119859 0.00613686
H -0.39185071 11.01740123 11.52652354 -0.00636808 0.00892514 -0.00550577
H 1.21930324 15.98110568 6.62477916 0.00158317 -0.01713496 -0.02647636
H 4.01907505 16.54198579 10.87133145 -0.00156359 0.00923469 -0.00721495
H 3.97407222 11.47980616 6.86777143 -0.04498761 -0.02156819 0.01928642
H 1.41944854 12.78704966 0.92598219 -0.00118125 0.00467579 0.01074934
H 1.34294115 17.49203162 4.63103736 0.01032794 -0.01306618 0.00572619
H -1.88042028 15.19961681 35.69235143 -0.01059738 -0.02412929 -0.01253674
H -0.14567117 10.47571634 6.23227717 -0.03337448 0.00713916 0.01045930
H 2.47117901 13.23955462 12.02181930 0.01563505 0.00225984 0.00698305
H 5.28019777 18.63379159 5.66143878 -0.01220278 0.00696869 -0.00976330
H 2.66531564 16.56266835 1.93059652 -0.00882156 -0.00239677 -0.00681547
H -0.21455363 12.06415138 4.31784947 0.01280827 0.01186341 0.01347312
H 2.69751049 11.71267858 10.19167788 0.00737332 0.00233169 0.00304884
H 5.31076216 16.75856192 7.49097883 0.00048383 -0.00474942 0.01747268
H 4.94336004 14.78557340 9.75512463 -0.00219898 -0.02477976 -0.01288997
H 3.03590635 9.89038550 8.10636103 0.00173885 0.01779850 0.00730083
H 0.55992639 14.52136306 2.03693730 0.00539291 0.01614906 0.03212011
H 2.38875907 19.02371833 3.46186052 -0.00238226 0.00550459 0.02701282
H 6.82711289 14.06616807 7.46150568 -0.00371944 0.00024051 0.03319529
H 0.74621663 17.15538275 9.26244278 0.01974379 0.01280736 -0.01661524
H -0.00299176 15.86177015 3.78302182 0.00432772 -0.04343376 -0.01042099
H 3.10698903 10.72995035 2.32507182 0.00986203 -0.00010578 -0.00925454
H 0.81750569 12.25214225 8.93795413 0.02129140 0.01479672 -0.01661417
H 0.55774467 18.46890815 10.34376845 -0.00954101 -0.00639811 -0.01998050
H 5.11867263 15.24650417 4.41500529 -0.00644297 0.02219410 0.00968010
H 4.60592539 11.69610173 2.40542502 -0.02550594 0.00965311 0.01833830
H 0.49289281 13.31276974 7.58312469 -0.00913309 0.01743095 0.00790879
H 2.19422020 18.14957564 9.88294673 0.01588074 -0.00823595 -0.01679809
H 6.77942864 15.33761848 3.72953620 0.00039945 -0.01452671 0.00755918
H 4.60427158 10.21234903 1.43872276 0.01017476 0.00239244 0.00041188
H -1.62057750 18.34161692 14.82209728 0.00164078 0.00845249 0.00107756
H 0.95544437 13.59423828 15.06647221 -0.01021703 -0.03759922 -0.01224013
H 3.90687776 10.29904237 21.19741408 0.00258912 0.02584469 0.00285124
H 0.86197310 14.82638413 20.48364332 -0.00394938 0.01639778 -0.01915368
H 4.16705979 18.16402187 12.85051210 0.00686238 0.01641766 -0.00939950
H 2.11136036 13.19779912 17.41175579 0.00480876 0.01991387 -0.01388938
H -2.09459219 10.90193730 22.97546637 0.03532203 -0.01711953 -0.00540814
H -0.25793133 15.76697338 18.58185150 -0.02518467 0.00456524 0.00636693
H 2.14336794 16.39214061 22.69689582 0.01250210 -0.01037549 -0.01498102
H 2.16297227 11.41888886 19.09600674 -0.00186093 -0.01583468 0.00215764
H -0.58847717 12.62191255 13.54306252 -0.01374002 0.00394238 0.02018671
H -0.15493203 17.38540283 16.89256778 -0.01222597 -0.00868637 -0.02752756
H 1.54023700 15.08266502 11.98701175 -0.00951438 -0.01057234 0.00022268
H -1.63706258 10.03142676 17.90623230 -0.00127523 -0.02152979 -0.01594840
H 0.64275184 13.57006013 23.87919566 -0.02785464 -0.02600113 -0.01738348
H 3.82930221 18.45764045 17.85169852 0.00279421 -0.01794069 0.01011960
H 1.25481915 16.50621405 14.00727842 0.01124732 -0.02129728 -0.00171615
H -1.69636924 11.82652209 16.10099052 -0.01091483 -0.00241263 -0.00709762
H 0.88857552 11.96653316 22.08547880 -0.02575596 -0.00436239 0.03726120
H 3.77228047 16.87715996 19.75344640 -0.02179891 -0.01586564 0.02231008
H 3.21504182 14.65770593 21.49150737 0.02062312 0.00353762 0.00377957
H 1.28726863 9.39256741 20.03190634 -0.01192756 0.02624212 -0.00143293
H -1.35187325 14.40268617 14.28130474 0.00585303 0.03195811 -0.00279864
H 0.68862580 19.19587545 15.89595744 -0.00145164 -0.00093126 0.00996326
H 3.95440919 13.12774324 20.39701480 0.01728502 0.01655994 -0.02484420
H 0.48994636 18.78147950 22.45663214 0.00344328 0.01645477 -0.00132686
H 17.89598763 14.66266139 16.48145882 -0.00846953 -0.00752448 -0.00149205
H 3.53371997 10.70923571 13.56600569 0.00278371 0.02069844 0.00553962
H -1.92732026 12.08196911 20.08378807 0.00021256 0.00152449 0.01935998
H -0.56142206 17.47290186 21.82997819 0.00457998 -0.00823938 -0.02977852
H 4.73713997 15.59089971 15.29369514 -0.00570401 -0.00763555 -0.03150072
H 1.81791553 10.25114339 13.63808682 -0.02146022 -0.00786082 -0.01720226
H -1.67494478 13.45017773 19.03385200 -0.00094056 0.01650985 0.01010625
H -1.31427484 18.79595001 22.74739685 -0.00439177 0.01073786 -0.00078580
H 3.26591810 16.49526826 14.85255540 0.00597308 0.00647551 -0.01282508
H 2.44473053 11.71295280 14.44604463 -0.00961359 0.01612592 -0.01490293
H -3.39352418 18.64153029 26.16628067 0.02218984 0.01565069 0.01886415
H -0.70634971 13.91922907 26.94497645 -0.00457228 0.00269581 -0.00678999
H 2.11855834 10.34198136 32.81163170 0.03998398 -0.00016278 -0.00713544
H -0.92016325 15.25642213 32.42582993 0.01534568 -0.00289273 -0.01824257
H 2.14093381 17.77877538 24.48326062 -0.00652527 -0.01220657 -0.00258312
H 0.47298385 13.23871926 28.81170145 0.00422805 -0.01013542 0.01369067
H -3.43295243 11.10756469 34.93464051 0.00085266 -0.00837448 0.02010099
H -1.93364583 15.89330370 30.25115611 -0.01958562 0.00873823 0.00800051
H 1.04995892 16.59594133 34.42868364 -0.03170753 -0.02077883 0.01248667
H 0.69930214 11.72385379 30.47568403 0.00680393 -0.00096160 -0.01121907
H -2.27107458 12.61873241 24.80924682 0.01060481 0.01930837 -0.00314795
H -1.72437009 17.53926684 28.32622597 -0.00226295 0.01044202 0.01608434
H -0.50848160 15.00052850 23.64416235 -0.01133450 0.01361275 -0.01390495
H -3.50114200 10.29048083 29.54171649 0.02321206 -0.00495252 -0.00781661
H -0.60727016 13.92945547 35.73944486 0.01092776 0.00595155 0.00210809
H 2.28459157 18.66620989 29.54077037 -0.00080487 -0.00666127 0.01460138
H -0.56375881 16.86901409 25.51214381 -0.00222233 0.04436258 0.00555965
H -3.46531878 11.90277593 27.79675326 0.00670745 -0.00441695 0.01250534
H -0.73155776 12.28846966 33.88402438 0.00168813 0.01159368 0.00493416