2160
Time=8000.00000000 pbc="T T T" Lattice="20.67726404 0.00000000 0.00000000 0.00000000 28.91426271 0.00000000 -4.71231420 0.00000000 35.30860633" energy=-13796.93696725 virial="-27.86547414 -1.45427483 60.21963006 -1.45427483 -22.40421900 -15.26018905 60.21963006 -15.26018905 -29.66720323" stress="0.00178317 0.00005021 0.00314841 0.00005021 0.00114942 -0.00067598 0.00314841 -0.00067598 0.00078920" Properties=species:S:1:pos:R:3:vel:R:3
O 0.95254031 8.54993743 2.72470671 -0.00149375 0.00304252 0.00112735
O 1.97007674 3.79671686 3.57144478 -0.00141553 0.00175213 -0.00425332
O 4.56267925 0.98177491 9.60696439 0.00213855 0.00295233 -0.00126807
O 3.27951894 5.97678255 8.55137070 -0.00365579 -0.00251194 -0.00066472
O 1.33281985 4.73940481 9.66547563 -0.00115948 -0.00362814 -0.00363421
O -0.36523477 9.67734691 8.29463005 -0.00245534 0.00609337 0.00782588
O 4.04890586 4.58894241 2.40672387 0.00140898 0.00267876 0.00713738
O 5.75452924 28.85305900 3.62085493 0.00227057 0.00109462 0.00052191
O -0.87764335 8.45170742 14.21730365 -0.00180697 0.00076894 -0.00315807
O 0.25606659 3.55474927 15.06172296 -0.00832270 -0.00034837 0.00266895
O 2.98297924 0.95825781 21.35428881 0.00194320 -0.00032523 -0.00013459
O 2.18982523 5.83400023 20.11341497 -0.00252362 -0.00168093 0.00271188
O -0.06735179 5.01979922 21.26043041 0.00285686 0.00214912 0.00293993
O -1.68489638 9.65494817 20.23538100 -0.00083026 -0.00381286 -0.00129219
O 2.31017110 4.69947626 14.15365244 0.00205196 0.00068890 -0.01034783
O 4.02208150 28.79456132 15.46964378 0.00036022 -0.00087695 0.00417189
O -2.47594589 8.69568332 25.86477654 0.00024317 -0.00148643 -0.00192467
O -1.21501319 3.93077222 27.04242623 0.00102819 -0.00123597 0.00090440
O 1.47823873 1.03939090 32.93276258 0.00399618 -0.00107932 0.00530000
O 0.05846459 6.32016202 32.07700416 0.00060130 -0.00231306 -0.00532345
O -1.77329807 4.73633477 33.13965399 0.00069224 -0.00556690 0.00349323
O -3.24959260 10.18183265 31.68844106 0.00362897 0.00323990 -0.00819479
O 0.90574791 4.91920428 25.89472945 0.00031358 -0.00021707 0.00422837
O 2.28695387 28.55785836 27.23115337 -0.00642474 0.00606173 0.00144260
O 0.82222478 18.17858184 2.38746867 0.00084578 -0.01065082 0.00214817
O 1.98824460 13.30816697 3.53666290 -0.00118551 -0.00012480 0.00156662
O 4.49993461 10.57584049 9.49177450 0.00386901 -0.00237743 -0.00248476
O 3.49707951 15.45730138 8.21604460 0.00013645 -0.00418534 0.00349905
O 1.24107450 14.61252991 9.47650233 -0.00116991 0.00258281 -0.00425015
O -0.28540519 19.22086261 8.18969083 -0.00143021 -0.00334886 -0.00298555
O 4.03591505 14.29864837 2.32040802 -0.00233796 -0.00037712 -0.00258049
O 5.71649609 9.50086155 3.79068363 0.00489622 0.00522885 0.00624130
O -0.68510370 18.44057502 14.04932240 0.00290197 0.00205181 0.00435550
O 0.35778844 13.13743511 15.25733261 -0.00207581 0.00452451 0.00134474
O 3.06254460 10.62139457 21.33031715 0.00506251 0.00378314 -0.00696614
O 1.81097145 15.41526328 19.71435065 0.00101495 0.00072097 -0.00405076
O -0.17336944 14.47980860 21.24271552 -0.00242526 0.00286367 0.00362992
O -1.70319080 19.33304325 20.17482472 -0.00144793 0.00098903 -0.00395104
O 2.49705547 14.33395746 14.26837321 0.00407485 -0.00401772 0.00084396
O 3.85837978 9.50332137 15.39655395 0.00055561 -0.00645401 -0.00363160
O -2.38297684 18.56072506 25.75182208 -0.00561769 -0.00052122 0.00373654
O -1.22984988 13.74582951 26.84199524 0.00205139 0.00618461 0.00235864
O 1.37882447 10.88580381 32.78550717 0.00215056 0.00193113 -0.00174554
O 0.35971758 15.37744371 31.74403249 -0.00292791 -0.00090988 0.00254142
O -1.85862874 14.60077872 32.87154437 -0.00075740 -0.00315103 -0.00053831
O -3.34099597 19.24842899 31.78499003 -0.00312811 0.00036176 -0.00028927
O 0.87569060 14.64674811 25.67446507 0.00082515 -0.00073666 -0.00335307
O 2.55251103 9.60750512 27.07147604 0.00057476 -0.00314004 0.00190651
O 0.89109180 27.76952071 2.46472723 -0.00408700 0.00076700 0.00143323
O 1.88435694 23.23740875 3.70330455 -0.00034624 0.00120820 -0.00031869
O 4.51798507 20.24461106 9.16951408 -0.00216262 0.00364138 0.00336520
O 3.38222513 25.42570182 8.34506917 0.00359063 -0.00426782 0.00352318
O 1.31203022 24.17089226 9.35070653 -0.00382176 -0.00191962 0.00143008
O -0.25686184 0.34754743 8.14517415 0.00017964 -0.00283860 0.00054352
O 3.89894637 23.78632837 2.22837143 0.00015660 -0.00220799 -0.00179199
O 5.46257574 19.14862489 3.51822710 -0.00448826 -0.00204517 -0.00466360
O -0.98448315 27.86141359 14.10229937 -0.00181444 -0.00204918 0.00155120
O 0.38019377 22.76379468 15.20475446 -0.00243185 0.00118524 0.00112172
O 3.04844013 20.48430900 21.03783312 -0.00221412 -0.00381584 0.00281302
O 1.90529043 24.94052066 20.16309773 -0.00282853 -0.00212746 -0.00097196
O -0.24930012 24.09250967 21.28318332 0.00124904 0.00489593 0.00064808
O -1.75056355 0.08223560 20.06006058 -0.00193292 0.00695795 -0.00047463
O 2.45217024 24.02795910 13.90979606 0.00780678 -0.00200355 0.00088182
O 3.96425556 19.32307221 15.17554212 0.00782470 -0.00080899 0.00564055
O -2.40965335 27.69274541 26.15380233 0.00016189 -0.00139980 0.00353882
O -1.53006503 22.86069189 27.07742142 -0.00582105 0.00234406 0.00060948
O 1.39041593 20.35053402 32.69768236 0.00178176 0.00074549 0.00435700
O -0.00460819 25.18260713 32.13504889 -0.00313002 0.00157136 0.00164045
O -1.81065314 23.98968798 33.21071773 0.00670232 -0.00168178 0.00307651
O -3.35163503 28.78918909 31.34536583 0.00441543 -0.00125526 -0.00138846
O 0.61632501 23.82888339 26.03393671 0.00265722 0.00288549 -0.00447426
O 2.51845130 19.00517220 27.16855850 -0.00465510 0.00250895 -0.00033968
O 7.64672367 8.63301334 2.37516239 0.00288110 -0.00342328 -0.00312098
O 8.66734518 3.77365173 3.37010267 0.00051258 0.00012624 0.00639315
O 11.46019509 1.30977831 9.15648132 -0.00238056 -0.00399698 -0.00174729
O 10.21999998 5.88512958 8.24870386 0.00347431 -0.00071195 -0.00139801
O 8.28443596 4.79053793 9.65519673 -0.00003582 0.00012495 0.00647375
O 6.66866746 9.78218045 8.12225441 -0.00006353 -0.00640986 0.00681698
O 10.81944572 4.80710752 2.33146285 0.00053464 0.00692422 0.00290904
O 12.57262709 0.03987535 3.59120477 -0.00157847 0.00074100 -0.00616940
O 5.90290756 8.53296389 14.19238871 0.00406581 0.00620823 0.00095347
O 7.29797858 3.52909520 15.12372804 -0.00128546 0.00157793 -0.00142918
O 9.79522923 0.96199259 20.98342626 0.00271724 -0.00229432 -0.00060694
O 8.67355756 5.81221345 20.03849096 -0.00026839 -0.00261580 0.00022351
O 6.63895992 4.85739905 21.08561751 -0.00072473 -0.00476544 -0.00366293
O 5.24576125 9.79823031 20.15244868 -0.00559584 -0.00414919 0.00268281
O 9.24900828 4.80928746 14.03785195 0.00098608 0.00191687 -0.00087010
O 10.81968491 0.05661635 15.42280997 0.00248915 0.00495632 0.00459363
O 4.68531807 8.35284038 26.08618835 0.00445981 -0.00001674 0.00041688
O 5.82388518 3.50050945 26.82475069 -0.00044530 -0.00095509 -0.00226309
O 8.35190647 0.89349771 33.23442237 0.00039787 0.00640615 0.00065085
O 7.24016252 5.79498950 31.82000159 0.00091621 0.00152116 -0.00056424
O 5.09304838 4.94271569 32.99965800 -0.00326493 -0.00032248 -0.00102256
O 3.57823760 9.73331232 31.71764713 -0.00113753 -0.00014285 0.00488699
O 7.84669726 4.83109942 25.65910939 -0.00270248 0.00075296 0.00088117
O 9.33324474 28.77400536 27.28119547 0.00077678 0.00240452 -0.00126681
O 7.58941568 18.31037309 2.28198062 -0.00443087 -0.00094771 -0.00309179
O 8.82474612 13.40597500 3.41176494 0.00147026 0.00200577 -0.00678659
O 11.44695823 10.55915594 9.31769043 -0.00420064 0.00200942 -0.00131698
O 10.37072364 15.65894869 8.20693750 0.00040030 0.00185378 -0.00150580
O 8.23369759 14.69359587 9.34322681 -0.00177454 -0.00755015 -0.00140975
O 6.71215656 19.33913913 8.07840074 -0.00353479 -0.00032880 -0.00019702
O 11.01967544 14.48257294 2.13368994 0.00425085 -0.00043185 -0.00328028
O 12.45056772 9.72717296 3.47556268 0.00111230 0.00323264 0.00119416
O 5.99394500 18.11435772 14.21220890 0.00595179 -0.00329439 0.00318434
O 7.18936113 13.12912834 15.26757684 0.00835149 0.00108510 0.00584187
O 9.77194354 10.63315269 21.00410423 0.00153982 0.00096310 -0.00275787
O 8.84049860 15.31747224 19.88430008 -0.00124160 -0.00395897 0.00646132
O 6.58368566 14.38110140 21.09629600 0.00084921 0.00956285 0.00298289
O 5.14333005 19.13087661 20.09542669 0.00083949 0.00422406 0.00558067
O 9.42497297 14.19040667 14.11273932 0.00641945 0.00126896 -0.00316510
O 10.66703017 9.37321276 15.22390482 0.00193749 -0.00104026 -0.00229975
O 4.57548162 18.38650762 25.73421575 0.00179887 0.00185813 -0.00017735
O 5.62707174 13.41861121 26.99058596 -0.00323894 0.00392233 -0.00203506
O 8.56192000 10.98574274 32.66041189 0.00440004 -0.00194617 0.00705721
O 7.23490577 15.57247805 31.76806116 -0.00550017 -0.00101970 0.00014192
O 5.20640305 14.69344886 33.04160575 0.00178445 0.00294225 -0.00365582
O 3.61418799 19.26773645 31.64991387 -0.00047398 -0.00534210 0.00077472
O 7.56636329 14.50782031 25.66589376 -0.00961366 -0.00203622 0.00250038
O 9.34407829 9.31407706 26.83575513 0.00360097 0.00037220 -0.00548666
O 7.73532295 27.65022145 2.37281494 -0.00349230 -0.00092300 -0.00083959
O 8.75384681 23.16002289 3.31253403 -0.00084698 -0.00316390 0.00145985
O 11.58595138 20.32016734 9.55808292 -0.00403697 -0.00116126 -0.00113353
O 10.32431684 25.40321243 8.33568856 0.00282235 0.00454236 -0.00092805
O 8.14818061 24.29024699 9.29546869 -0.00475740 -0.00116688 0.00413018
O 6.75338595 0.04168910 8.34718959 -0.00120611 0.00000971 0.00242120
O 10.95593723 23.88448956 2.33108278 0.00409796 0.00258703 0.00431927
O 12.41958087 19.35614025 3.28253543 -0.00188014 0.00324024 -0.00524716
O 6.05451620 27.79835879 14.14578631 0.00085525 -0.00036842 0.00344994
O 7.11210518 22.78712276 15.16329108 -0.00639513 -0.00055220 -0.00341000
O 9.66045753 20.37060215 21.22563220 0.00310105 0.00254343 0.00467095
O 8.76348632 25.17741501 20.24929330 -0.00209229 0.00029848 0.00234903
O 6.71101162 24.03144122 21.30973587 0.00426110 -0.00008119 0.00277599
O 4.91609453 28.88132090 19.83296470 0.00258143 -0.00359386 0.00224122
O 9.30576210 23.92726221 14.27450950 0.00255046 -0.00120347 -0.00112100
O 10.77846892 19.14818120 15.27736674 0.00281893 -0.00254439 0.00140282
O 4.50764760 27.97833142 25.81412361 -0.00035947 0.00191748 0.00476100
O 5.55555724 22.95805412 27.00158111 0.00374441 -0.00069735 0.00025369
O 8.27156494 20.65791526 32.71840253 0.00040859 -0.00184889 -0.00478319
O 7.10588223 25.20890146 31.89897972 -0.00210954 0.00393912 0.00347357
O 4.97819323 24.05118736 32.85217122 -0.00386179 -0.00134401 0.00255852
O 3.51710954 28.88564679 31.53070325 -0.00245344 0.00136281 -0.00282424
O 7.71702538 24.14196962 25.89991761 -0.00087049 -0.00266190 0.00187733
O 9.08234795 19.02642183 26.85866605 -0.00041957 -0.00348980 0.00014742
O 14.46428824 8.59898106 2.39843608 -0.00374972 -0.00196509 -0.00080380
O 15.57623989 3.92301613 3.45776305 0.00316626 0.00125196 -0.00430989
O 18.23271068 1.09155162 9.36925972 -0.00254667 0.00036854 -0.00443623
O 17.27993096 5.90737862 8.33765516 -0.00054276 -0.00355862 -0.00114975
O 15.15674193 4.95123897 9.50813438 -0.00137059 -0.00069129 -0.00363916
O 13.60991614 9.90344530 8.31610696 0.00234438 -0.00010027 -0.00096697
O 17.85542007 4.70512049 2.46230897 -0.00173280 -0.00439257 -0.00176756
O 19.27516177 0.01363432 3.54087813 0.00037259 0.00231401 0.00362975
O 12.87252273 8.43968872 14.25907559 -0.00285625 -0.00078208 0.00035910
O 14.22115854 3.47444382 15.12000618 -0.00016623 -0.00327576 -0.00147641
O 16.93422981 0.99662207 21.26923908 -0.00327091 -0.00097898 -0.00026614
O 15.69340713 5.75099024 20.13393039 -0.00208015 -0.00065139 -0.00357849
O 13.52758540 4.82825479 20.82438290 -0.00191106 -0.00806349 -0.00088980
O 12.15518691 9.49190664 20.02965293 0.00167856 0.00084146 -0.00127521
O 16.27725384 4.86854861 14.08770235 -0.00338761 -0.00191273 -0.00144862
O 17.66545676 28.71877943 15.34033035 -0.00044982 0.00171103 0.00359998
O 11.52444408 8.65386760 25.66432936 0.00303632 -0.00220685 -0.00566068
O 12.52547232 3.69320630 26.86621980 0.00063531 0.00050329 -0.00248631
O 15.40477227 1.16034980 32.86489781 0.00207768 -0.00213538 0.00068847
O 14.08426042 5.90300666 31.67295177 0.00643430 0.00498470 -0.00209561
O 12.05473929 4.98784900 32.97168694 0.00431136 0.00016259 0.00254451
O 10.52764236 9.85912408 31.52864656 0.00271370 -0.00189122 0.00672772
O 14.65536969 4.74572829 25.74751215 -0.00108860 -0.00164001 0.00064320
O 16.20222023 0.03706636 27.28339289 -0.00526261 0.00035239 0.00082479
O 14.83047595 18.43016065 2.41463393 0.00074667 0.00050278 -0.00462128
O 15.59376000 13.56662750 3.60553491 0.00192200 -0.00262299 -0.00236324
O 18.22729666 10.61162180 9.50438711 -0.00251965 0.00149758 -0.00355977
O 17.13705133 15.77682557 8.57045655 -0.00003071 0.00763588 -0.00446765
O 14.98655268 14.57919387 9.41240865 0.00441178 0.00193021 0.00328390
O 13.49164305 19.31535373 8.02004668 0.00265764 -0.00046269 -0.00500178
O 17.93183478 14.50665941 2.50590988 0.00077142 0.00309443 -0.00354566
O 19.37134784 9.57189309 3.71136497 0.00601246 0.00003427 0.00140400
O 12.84147524 18.08114439 14.24308646 -0.00080933 0.00213931 0.00558628
O 14.11046955 13.01577296 15.08396054 -0.00434479 0.00265624 0.00428757
O 16.62171333 10.54698493 20.99909701 0.00169758 -0.00103168 0.00321794
O 15.77052644 15.14548603 19.78277437 0.00340919 0.00332340 -0.00296585
O 13.55636120 14.57450792 21.09086887 0.00273032 0.00012601 -0.00349101
O 12.07394656 19.23208890 20.13311829 -0.00224714 -0.00452769 -0.00093837
O 16.15113737 14.26403376 14.19853782 0.00174844 0.00231633 -0.00424303
O 17.86552587 9.48301227 15.42988265 -0.00007393 -0.00250630 -0.00240471
O 11.19749566 18.01010587 25.93530536 0.00270830 -0.00330084 -0.00493484
O 12.52045135 13.43845289 26.81118559 -0.00137039 0.00293754 0.00029145
O 15.31499873 10.73506153 33.03674428 -0.00259217 -0.00206008 -0.00518369
O 14.02172665 15.55727290 31.97804223 0.00669236 0.00107820 -0.00071948
O 12.06737180 14.45104347 33.14936248 -0.00817798 -0.00180697 -0.00035648
O 10.33064956 19.39839583 31.79353614 -0.00446344 -0.00352895 0.00846463
O 14.62888152 14.39323203 25.55858908 0.00415357 -0.00242559 0.00224061
O 16.08854220 9.83481345 27.08415736 0.00282077 -0.00178501 -0.00298946
O 14.74363118 28.01497055 2.42336259 0.00823156 -0.00068473 0.00465975
O 15.68692243 23.15037415 3.47341549 -0.00212855 -0.00187737 0.00829282
O 18.25353009 20.14334068 9.43889116 -0.00364990 0.00287921 -0.00204812
O 17.17434240 25.22909188 8.26473316 0.00553346 0.00405842 -0.00508637
O 15.05241502 24.26644896 9.49555510 -0.00099290 0.00116125 -0.00510661
O 13.57285136 0.22697624 8.28244886 0.00193319 -0.00083584 0.00077393
O 17.79392697 24.13089501 2.30795162 0.00284353 -0.00218983 0.00638550
O 19.44354662 19.19010362 3.66205566 -0.00156970 0.00037776 -0.00339498
O 12.77881641 27.91156687 14.11025544 -0.00135763 -0.00035242 -0.00245719
O 14.16670859 22.78856880 15.18711432 0.00169764 -0.00797437 -0.00045413
O 16.66028424 20.34972286 21.01973795 -0.00384181 -0.00614631 0.00140537
O 15.46027208 25.20644123 19.97932757 -0.00090977 -0.00314724 0.00190160
O 13.69352519 24.08768554 21.45187529 -0.00252934 0.00385089 -0.00064974
O 11.95617970 28.77949746 19.73490007 -0.00204989 -0.00130178 -0.00071486
O 16.31413830 24.00327877 14.22928093 -0.00515062 0.00361867 -0.00532123
O 17.71469387 19.24921984 15.23131156 0.00400937 0.00697666 -0.00224430
O 11.24786707 27.71280220 26.02354586 -0.00172986 0.00020694 0.00132501
O 12.50721971 23.07389359 27.07539251 -0.00367583 0.00335259 -0.00602120
O 15.18218920 20.45540950 32.85193113 0.00200808 -0.00019405 -0.00033993
O 13.88373331 25.26131982 32.02998173 0.00132728 0.00027396 0.00010892
O 11.88176128 24.03365316 33.02789115 0.00038350 -0.00041586 -0.00329771
O 10.50161886 0.15580857 31.77787405 0.00289592 0.00386341 0.00062023
O 14.39035365 24.23125537 25.68271908 0.00249414 -0.00103615 0.00768403
O 15.89651296 18.90359168 26.90296167 -0.00267836 -0.00064694 0.00179708
H 0.12039377 8.97470902 2.99013689 0.00356629 0.01306957 -0.00835691
H 2.88455146 4.09300301 3.24501014 -0.00410276 0.00471268 -0.00762613
H 5.51360202 0.72394458 9.30311765 0.00446571 0.00663715 -0.00178837
H 2.45207601 5.48514717 8.86257996 -0.02286986 0.01031726 0.01975183
H 5.63535243 8.24422373 0.75110054 0.00687979 0.00400218 -0.00120425
H 3.93062548 3.48630417 5.25261130 0.02287653 -0.00013214 -0.03070158
H -0.42692219 1.42278384 10.94107312 0.01419352 0.00513875 0.00003227
H 1.43315366 6.28893707 6.75898719 0.02804445 0.00714672 0.02303215
H 4.08314650 6.54204253 10.57746988 -0.02199174 -0.00831362 -0.01299998
H 3.86777738 2.09318870 7.23637704 -0.00220082 0.00279773 -0.03378874
H 1.34849010 2.95059366 1.24233223 0.00606720 0.00470560 -0.00398118
H 1.48259465 7.87947339 4.71803195 0.01590703 0.00139806 -0.01948975
H 2.82642892 5.36418535 0.08875380 0.00189925 -0.00217538 -0.00098759
H 0.12628456 0.55460852 6.01375191 0.01203791 0.00622396 -0.02030915
H 2.39355629 3.97892207 12.10098220 -0.00303140 -0.00419422 0.00175177
H 5.37686737 9.23578879 6.14669184 0.00146838 -0.00923713 0.01013647
H 2.93185925 6.93498236 1.87839840 0.00490792 0.01171634 -0.00995880
H 0.03603542 2.04629265 3.94690517 0.03369866 0.02437037 0.02666687
H 2.59644898 2.65113352 10.08368195 -0.00329392 0.00379697 0.00523185
H 5.34885979 7.54074838 7.82622578 0.01483384 -0.01607636 0.00369960
H 5.03680082 4.69921390 9.62449241 -0.00674469 -0.00004778 -0.00946012
H 2.99482293 0.16729600 8.45153017 -0.05125883 0.00383022 -0.02660102
H 0.25870558 4.60198631 2.43483161 0.02105088 -0.01047183 0.01432238
H 2.56635743 9.43169079 3.81410409 0.00119916 -0.00825053 -0.00187184
H 7.75989802 3.89940027 7.27949293 0.00561920 -0.00856670 0.01367085
H 0.45161486 8.44285961 10.46044975 -0.00814416 -0.01275391 0.00096832
H -0.14799004 6.20954077 3.64551416 0.02326371 -0.00789716 -0.00366591
H 5.06710060 1.18270763 1.38007225 0.03576859 -0.00097558 -0.00652753
H 0.38971235 2.56211659 8.33654468 -0.01452710 0.01914621 0.00340622
H 2.16181671 8.26220595 9.84819988 0.00595344 0.00940437 -0.01065006
H 6.22638440 5.51746236 4.43624147 0.02743641 0.01469920 0.00695022
H 3.42625992 0.97790470 1.78403006 -0.02046251 0.01209279 -0.00917121
H 0.18490109 3.81564471 7.31792806 0.01084508 0.00052213 -0.00757690
H 0.81061573 7.32109451 9.12783005 0.03540800 -0.00234292 -0.01924451
H 5.98105182 6.86599692 3.32216024 -0.03067304 -0.02236839 -0.00129126
H 4.33165324 2.26612325 2.53814867 -0.00255125 -0.03510360 -0.01333616
H -1.68461553 8.82241496 14.59515644 0.02542452 -0.01014489 -0.00739582
H 1.09310854 3.98287106 14.84115297 0.02934095 0.01441957 -0.01655399
H 3.75366620 0.57187737 20.92901107 -0.00523200 0.00670412 0.01239641
H 1.37482401 5.40645826 20.48277704 0.00433142 0.00592809 -0.02246489
H 4.08023486 8.30279194 12.46282696 0.00657159 -0.00450187 -0.00154924
H 2.32811063 3.23309985 16.79255626 -0.02185790 0.01433931 -0.02278965
H -1.90421965 1.38129779 22.93005575 -0.04048435 -0.01996795 0.00559696
H -0.01127670 6.18382921 18.65715969 0.02513473 -0.00781173 -0.00540507
H 2.68476226 6.74212267 22.42658622 0.00631917 -0.00739564 0.00742762
H 2.34325263 1.60318515 18.62134272 -0.01544210 0.00596302 0.01174522
H -0.48859742 2.80798636 12.95097585 0.01337584 -0.01764435 0.02481092
H -0.20011342 7.61748758 16.76029283 0.02337608 -0.00370304 -0.01346327
H 1.23205851 5.40591118 11.77712261 -0.00960190 -0.00816461 0.01420133
H -1.77369559 0.63749887 17.86217700 -0.00352898 0.00794740 0.00603743
H 0.97340401 4.13490808 23.96531188 0.00865942 -0.00780425 -0.00761314
H 3.68219881 9.28782945 17.77212829 0.00993844 0.00590315 -0.00542166
H 1.14535815 7.02844604 13.64394135 0.00154783 -0.01097266 0.01657372
H -1.70283386 2.19316823 15.88146623 0.01617286 0.00106070 -0.00368777
H 1.05161930 2.70680476 21.91808328 -0.01255846 0.00642908 0.01633048
H 3.86263399 7.69391642 19.49953100 0.00518460 0.01153438 -0.00025722
H 3.50577782 5.14381173 21.21184457 -0.03139998 0.01061099 -0.02243887
H 1.42331937 28.85809089 19.73136851 -0.02883685 -0.00722754 0.00465002
H -1.26008250 4.69811409 13.95206603 0.02734822 -0.00551642 0.00785867
H 0.72449681 9.40940777 15.41906800 -0.02856946 0.01323763 -0.01914631
H 4.02271745 3.87119961 19.52777764 -0.02901179 -0.01534042 -0.00453592
H -1.01533005 8.81705959 22.57477891 -0.00828525 0.00858570 -0.00545520
H 17.04189118 5.81771556 16.31463167 0.00674605 -0.00406733 -0.00309933
H 2.81002147 2.09295092 14.47302423 0.00452538 0.01648214 -0.02359521
H -1.88166934 4.00009957 18.98074649 0.03251689 -0.01708904 0.02045277
H 0.85648291 8.79603359 22.10588110 0.00217761 -0.02581929 -0.00653498
H 4.32895442 5.04013637 16.40916509 -0.01667189 0.01081360 -0.02008265
H 2.91396421 0.90708637 13.23704165 0.01149297 -0.00106218 -0.01548975
H -1.71768134 2.59824603 20.18220091 0.00085011 0.00821103 -0.00315424
H -0.25696287 7.56580279 21.50067002 -0.01654301 0.03709512 -0.01363216
H 4.15751989 6.56935597 15.63073996 -0.01452132 -0.01736569 0.00209598
H 1.44688102 1.26164978 14.11017549 -0.01729105 0.00360632 -0.00904528
H -3.29300141 9.25594009 26.15037231 0.00946243 0.01088695 0.00064225
H -0.36980062 4.35361532 26.72488079 -0.01642222 -0.01881313 0.01260703
H 2.25352502 0.43036572 32.76290062 -0.00910246 -0.01462108 -0.00927150
H -0.66787004 5.68596948 32.32486777 0.01857897 -0.00723741 0.01283175
H 2.73370692 8.12315517 24.32334118 -0.00921553 0.01019001 0.00023938
H 0.84017434 3.57624375 28.73646765 0.00654842 0.01322280 -0.00756244
H -3.20424187 1.37166185 34.52120262 -0.01851914 0.00675482 -0.00058388
H -1.89377196 6.70858631 30.39650192 -0.01004990 0.01485675 -0.01169801
H 0.94319505 6.71553232 34.30624229 0.01465037 0.00715145 0.00672462
H 0.80593428 1.92949163 30.60983877 0.02313318 -0.00568481 -0.00665880
H -1.77012475 2.95700437 24.82705123 -0.00865237 0.00723490 0.01929651
H -1.59957857 8.01232591 28.16503548 -0.00911754 0.01478777 0.00652988
H -0.25261282 5.51798810 23.42053496 -0.01335954 -0.00069995 -0.00220428
H -3.05455673 0.64805592 29.53602772 -0.00125308 0.01372804 -0.02277058
H -0.56562188 4.27247110 35.29725795 -0.00838006 -0.00072702 -0.00682502
H 2.35403400 9.01863163 29.36862309 0.01089388 -0.02090184 0.00945218
H -0.41791713 7.21078951 25.28175604 -0.00028504 -0.02127325 -0.00917912
H -3.15248059 2.16394832 27.58993497 -0.00809660 0.02057735 0.01633659
H -0.43117098 2.73761693 33.41927097 0.01013560 -0.02166513 -0.00269998
H 2.17480705 7.45034577 31.29663883 -0.02346916 -0.00005914 0.00636350
H 2.03127060 5.06576549 32.98993483 0.02489745 0.01667248 -0.00311412
H -0.31193784 0.46619628 32.18636809 0.00683836 -0.00833696 -0.00519749
H -2.85793067 4.94088116 25.83877695 -0.02912612 -0.00246135 -0.00028573
H -0.61445477 9.64839921 27.13798267 -0.04348716 0.01160099 -0.00383566
H 3.54717495 2.58443648 31.94108524 0.00008491 -0.01711084 0.02246637
H -2.49509064 7.88192706 32.62220548 0.01020130 0.01389194 0.00674564
H -3.54985326 6.17933051 27.36123893 0.04252284 0.04568517 0.02550881
H 1.61020905 0.78288568 25.05756275 -0.00578875 0.00487627 0.03547658
H -2.77298521 3.88166875 30.82496939 0.01135253 0.02179610 0.01021843
H -2.27736125 9.02295545 33.84288487 -0.00058973 -0.00612761 0.04107357
H 1.70774466 5.99216407 28.04349027 -0.01450666 -0.01309201 0.00486239
H -0.09887925 1.12930954 25.59131920 -0.01886114 0.01199806 0.00849880
H 16.09609623 4.17210026 31.35146625 0.00848625 -0.00022857 -0.00038956
H -0.78882064 8.44761073 33.02671278 0.01727701 -0.00946577 0.00179138
H 3.35205256 5.56831518 27.81894754 -0.00717817 -0.01532053 0.00375870
H 1.35563895 2.06131212 26.19265463 0.00578800 -0.01025197 0.00816671
H -0.06061397 18.55178747 2.61686789 0.01819751 0.01553355 0.00423548
H 2.86940993 13.64055534 3.26238565 0.00664377 0.02625707 -0.01269188
H 5.36518384 10.09760481 9.09514205 0.00716234 -0.00151497 0.00374893
H 2.62393735 15.02196005 8.53634567 0.00187171 -0.00712539 -0.02256573
H 5.56546602 17.78459308 0.63014544 -0.01096446 -0.00208863 0.01320211
H 3.99284919 12.87392166 5.28134044 -0.01283801 0.00085531 0.00868659
H -0.61102983 10.76171061 11.29457508 -0.01309253 -0.00822646 0.00999308
H 1.53062382 15.82221014 6.76194780 0.00343362 -0.00487577 0.00003754
H 4.09356110 16.30739203 10.52119248 -0.02034103 0.00804639 -0.00275358
H 3.78027984 11.40914409 7.27810576 0.01483771 0.00949643 0.02895701
H 1.15858876 12.51952797 1.44181895 0.00381878 0.00035735 -0.00962241
H 1.41380669 17.51289935 4.77370279 0.01827990 0.00387228 -0.01106987
H -2.05502437 14.91246707 35.16877379 0.01343487 -0.00928516 -0.01296568
H -0.18202767 10.38755159 6.16826644 0.02441306 0.00052683 -0.00698949
H 2.50473635 13.71219374 11.98923590 0.03293338 -0.01018689 -0.00994368
H 5.46873910 18.74279447 5.82495074 0.00292826 -0.02155551 -0.01556454
H 2.75349394 16.57155875 1.73345131 0.00776707 -0.01375562 0.00811831
H -0.15022148 11.85013624 4.44124148 -0.00905616 -0.00337724 0.00783761
H 2.43992396 12.08741044 10.24047877 0.01146169 -0.00335064 0.00919878
H 5.51862573 16.98536758 7.51199876 0.02023861 -0.00818011 -0.00646826
H 5.14940892 14.44749608 9.50480355 0.04680203 0.02882856 -0.00043922
H 2.83658417 9.76434000 8.47410201 -0.03367944 -0.01295942 -0.03012493
H 0.38220508 14.57352951 2.52539991 -0.01150557 -0.02831725 -0.01268288
H 2.33086244 19.41446119 3.91484537 0.00071679 -0.00634704 -0.00873349
H 6.68152160 12.37782177 8.38536065 0.00457401 -0.03923180 0.00809525
H 1.00637222 16.95735769 9.17590680 0.00939065 0.02600928 -0.02390291
H 19.76289847 16.52406218 3.88755091 -0.01303182 0.00244744 -0.00413411
H 3.16947672 10.70703232 2.14409208 -0.01468570 0.02147976 0.00854916
H 19.18775138 13.44864961 7.92937172 -0.01523282 -0.00908299 -0.01313393
H 0.68908158 18.15896902 10.33532752 0.02097252 -0.00577135 0.00634703
H 4.54565545 15.66202166 4.55144249 0.02494188 -0.00370352 -0.00674542
H 4.35914421 11.90754590 2.86846143 0.02893326 -0.00110873 -0.00119502
H -0.17731857 12.30561896 8.36294946 -0.00952144 -0.00894741 0.00294156
H 2.30373956 18.09934069 9.66705756 -0.05523712 -0.01313272 -0.01584270
H 6.38806516 15.13248204 4.42257998 -0.02120427 0.00811836 -0.03296050
H 4.95221770 10.66498805 1.72756728 0.04001755 0.00832743 -0.07949117
H -1.54339779 18.79806624 14.47174680 -0.00675165 -0.00313836 0.00927325
H 1.22461091 13.55866480 15.06178143 0.00765296 0.00533136 -0.01277089
H 3.96176929 10.24545857 21.03004698 -0.01283916 0.02597259 0.00837200
H 0.97010592 15.30560598 20.26015007 -0.01351568 0.00308507 0.01225287
H 4.05200663 17.77190957 12.57755665 0.01069613 -0.01176536 0.01740292
H 2.38061309 12.76784374 16.96624929 -0.00176577 -0.00154564 -0.01922802
H -1.98993262 11.03079762 22.48045953 0.02141105 -0.00299588 -0.00701605
H -0.05995020 15.63118732 17.75165291 0.03347271 0.00985684 0.02060544
H 2.58280074 16.46539282 22.24651866 -0.01957323 0.00136031 0.00988877
H 2.35936439 11.36610484 18.97333103 -0.01383996 0.00300030 -0.00831211
H -0.46050517 12.63862995 13.12128999 -0.01118833 -0.02929189 -0.00693796
H -0.19505719 17.61126576 16.43944666 0.00362825 -0.01301669 0.01756262
H 1.22845612 15.11247269 11.66326641 0.01911914 0.00119688 0.03213092
H -1.62712155 10.32483928 18.10517204 0.00706994 0.01604320 -0.02249886
H 1.10597228 14.02877289 23.44311311 0.02178218 0.02705253 0.00871132
H 3.88064588 18.63553450 17.22243713 0.03797288 0.03313413 -0.02526342
H 1.13822991 16.50769957 13.61507630 0.02559465 -0.03114151 0.02719912
H -1.66134736 11.67159396 16.10365667 -0.02142395 0.00107423 -0.02417517
H 1.12250294 12.22259731 21.79216045 -0.02030537 -0.00511782 -0.01349103
H 3.78653096 17.11767735 19.37837635 0.02773291 -0.00004174 -0.00245627
H 3.40341316 14.55441935 21.15561235 -0.02638808 -0.01837735 -0.03375183
H 1.45669809 9.82973083 20.12238827 0.02083559 0.00406688 -0.02593551
H -1.39792129 14.79047095 13.91440861 0.00784894 0.03253961 0.02101334
H 0.97969140 19.18831762 15.16770120 -0.02377816 -0.00574135 0.00273159
H 5.57608221 13.40825710 18.78020799 0.01419250 0.03374523 0.01261754
H 0.79392727 17.60046515 21.28324497 -0.00833719 -0.01441050 0.01531016
H 16.95934736 16.43167578 15.28046035 -0.01034958 -0.00897221 -0.01891638
H 1.83546192 11.58217933 14.16670011 0.01186138 0.05936666 0.01396082
H -1.18706638 13.28254413 18.96273376 0.00231688 -0.03004257 -0.02815037
H -0.88264791 16.89672998 21.16208639 0.04837006 0.04718247 -0.00436969
H 3.45731193 16.30948480 15.62594135 0.00973434 0.00001410 0.00357988
H 3.22638304 10.69053883 13.37023891 -0.03866095 0.00688213 0.00992871
H 17.90841137 13.19026564 19.79994813 -0.02703213 -0.00555288 0.00440723
H -0.35772400 18.17724077 22.43235212 0.00738494 0.01289877 0.00601249
H 3.95362313 14.90270112 16.58696911 0.02479189 0.01593201 -0.01174850
H 1.66654797 9.96177078 13.32009725 -0.00537997 -0.02384271 -0.02547521
H -3.27796485 18.67752720 26.32065399 0.00486172 -0.01798158 -0.00870888
H -0.33411100 13.93583628 26.39312694 -0.00881291 0.00037317 -0.01274887
H 2.32195121 10.49798311 32.54966352 -0.03420626 0.00563149 -0.00793388
H -0.50235864 15.04767448 32.09059554 0.00928417 -0.01581722 -0.01366094
H 2.62184914 18.02933633 24.15132919 0.00512762 0.00736819 0.02246892
H 0.87552501 13.22402786 28.56412279 0.03044120 0.01137048 -0.00296609
H -3.43371796 11.05605100 34.78235829 0.02163530 -0.00123025 0.00748384
H -1.64524076 15.92939528 30.34097724 -0.02029271 0.00078749 -0.02814778
H 1.01420053 16.31076609 34.02571207 0.02378249 -0.00712468 0.00315656
H 0.83229003 11.53190877 30.33944027 -0.00978783 -0.00973049 -0.01246731
H -1.97574224 12.51969358 24.35816109 -0.01357931 0.00362582 0.01497774
H -1.63040302 17.35556336 28.35334638 -0.00354782 -0.01852642 -0.01027521
H -0.45994710 15.05696931 23.64232875 -0.00768255 0.00880294 -0.01700690
H -3.14356583 10.54467553 29.44551235 -0.01775347 0.00317673 0.01398863
H 4.10441100 13.94618507 0.09923913 -0.00522514 0.02333010 0.00099435
H 2.23035441 18.81622849 29.41147156 -0.00264554 0.00641929 0.01877702
H -0.21003013 16.93684686 25.14050149 0.00150946 -0.00310495 -0.00601422
H -3.16731907 12.10276468 27.60423287 -0.01676985 0.00751112 -0.00280081
H -0.70897496 12.36605927 33.59083133 0.01468105 0.00292894 0.02845081