2160
Time=6000.00000000 pbc="T T T" Lattice="20.57177370 0.00000000 0.00000000 0.00000000 28.79180354 0.00000000 -4.73487074 0.00000000 35.64744031" energy=-13796.43974572 virial="-125.99219598 1.67828609 90.31684702 1.67828609 -69.25145269 -16.59381372 90.31684702 -16.59381372 -42.13837856" stress="-0.00265891 -0.00004855 0.00454016 -0.00004855 -0.00116140 -0.00082029 0.00454016 -0.00082029 0.00018732" Properties=species:S:1:pos:R:3:vel:R:3
O 0.78198616 8.56103471 2.38447648 -0.00259313 -0.00202294 0.00467052
O 1.97907098 3.60629719 3.45185970 0.00102111 0.00251728 -0.00445092
O 4.59083063 1.23699044 9.47711139 -0.00087291 -0.00020773 0.00000859
O 3.35654052 5.95160559 8.53182363 -0.00372265 -0.00336437 -0.00249498
O 1.37235456 4.74650627 9.68178528 0.00111849 0.00487745 0.00104520
O -0.15667889 9.60569998 8.17571965 -0.00189852 -0.00300352 -0.00481357
O 3.86725336 4.78884128 2.37046876 -0.00386560 0.00309942 -0.00147665
O 5.51822166 0.09185898 3.77456150 0.00108634 -0.00391776 0.00703939
O -0.83589849 8.49316766 14.32814044 0.00568748 -0.00081520 -0.00829509
O 0.20621613 3.83580278 15.57564390 0.00327636 0.00370906 -0.00074571
O 2.95310647 0.65694304 21.24636584 -0.00217937 -0.00038802 -0.00178497
O 1.78925469 5.93036092 20.31153529 0.00139523 0.00033170 -0.00193321
O -0.08323290 4.79773945 21.61662970 0.00022047 -0.00290703 0.00018960
O -1.84026907 9.66797576 20.27758336 0.00243510 0.00387742 0.00059400
O 2.40076471 4.80680035 14.36991422 -0.00534234 0.00554262 0.00126807
O 4.00468578 0.13185413 15.79700722 0.00155746 0.00283901 0.00014878
O -2.30823725 8.57844943 26.22489591 -0.00184942 -0.00283802 0.00050124
O -1.18865163 3.64562587 27.19763286 -0.00049281 0.00192129 -0.00645860
O 1.36371915 1.04070408 33.13070155 0.00612625 0.00286075 -0.00457272
O 0.26208994 6.03935015 32.20070019 0.00429749 -0.00702412 0.00188138
O -1.75502166 4.86001436 33.40829890 0.00322094 -0.00037811 -0.00297027
O -3.29728903 9.62787882 31.95891412 -0.00429686 0.00415095 -0.00046837
O 0.93779443 4.62351245 25.81355092 -0.00191539 -0.00352193 0.00313826
O 2.32541546 0.00266413 27.18026112 0.01457702 -0.00208021 0.00440579
O 0.61412042 17.97675885 2.41692664 0.00067438 0.00338921 -0.00242831
O 1.86584805 13.34511401 3.49486987 -0.00116975 0.00109484 0.00547272
O 4.33476580 10.40897972 9.48530713 0.00082369 -0.00023990 0.00193711
O 3.25270996 15.49163216 8.39615936 0.00175077 0.00059685 0.00018311
O 1.31542383 14.08184197 9.74004378 0.00517988 0.00317640 0.00409284
O -0.15237552 19.10394640 8.12422002 0.00453684 -0.00487684 -0.00559266
O 4.01660316 14.06998324 2.24480251 -0.00375986 0.00182504 -0.00139475
O 5.55261928 9.56799981 3.87766246 -0.00064858 0.00122734 -0.00058988
O -0.93409076 17.95137369 14.40486306 0.00290459 -0.00021941 -0.00571550
O 0.35701128 13.40959085 15.69971733 -0.00163566 0.00044921 0.00448175
O 2.93654595 10.86102548 21.34572898 0.00295854 -0.00327322 0.00276061
O 1.80177616 15.47365390 20.33447551 0.00046266 0.00015333 -0.00372415
O -0.30218001 14.40982919 21.28657130 -0.00295513 0.00125933 0.00233158
O -1.74648387 19.29354735 20.08693922 0.00456774 0.00397953 0.00122788
O 2.42374412 13.87579841 14.31480688 0.00141105 0.00288528 -0.00508546
O 4.00178329 9.60982567 15.70441038 0.00188727 0.00311517 0.00170829
O -2.50098900 17.94804635 26.06017174 -0.00739038 -0.00111011 -0.00968792
O -1.21692190 13.18483397 27.14003007 0.00049844 -0.00245928 -0.00026714
O 1.33848990 10.58522301 33.06715840 0.00322261 -0.00073253 0.00120773
O 0.16749929 15.70970149 32.20053032 0.00503990 0.00145211 -0.00347092
O -1.77001789 14.44903698 33.35750877 -0.00014373 0.00296040 0.00142762
O -3.49558345 19.24092959 31.93099658 0.00427726 0.00292967 -0.00054150
O 0.92740339 14.16562974 26.29392416 -0.00269089 0.00033579 0.00026499
O 2.23961066 9.25294143 27.18819565 -0.00308252 -0.00285657 -0.00048600
O 0.74812666 27.84454435 2.19531779 -0.00253508 0.00215298 0.00104191
O 2.03946524 22.81274975 3.48818675 -0.00345390 0.00088799 0.00456386
O 4.53220406 20.42035166 9.43295356 0.00780353 -0.00200017 -0.00061521
O 3.36699994 25.14736398 8.37204180 0.00325927 0.00477314 0.00230346
O 1.29863734 24.23830585 9.65450331 0.00469567 0.00054359 0.00257567
O -0.34795385 0.10452971 8.28745843 -0.00841036 -0.00110016 -0.00347735
O 3.98183583 23.98791671 2.17761030 0.00140106 -0.00534209 0.00500577
O 5.48058463 19.25252831 3.59611800 -0.00332177 -0.00016469 0.00247010
O -0.77095284 27.83605996 14.55068294 -0.00117036 -0.00673615 0.00280173
O 0.22980824 22.74981968 15.29264097 0.00112188 -0.00242791 0.00266008
O 2.82394627 20.22648974 21.14410762 -0.00006337 0.00158516 0.00219653
O 1.74984410 25.25945664 20.46026721 -0.00166549 0.00375854 0.00086242
O -0.22427234 23.88733248 21.49483547 0.00461432 0.00000274 -0.00441312
O -1.77065761 28.75746275 20.11173856 -0.00022960 -0.00839532 -0.00162327
O 2.25233507 23.93296606 14.26302152 0.00073972 0.00214848 0.00412576
O 3.96568895 19.07307007 15.47736115 0.00140515 -0.00002120 0.00221432
O -2.40071633 27.73949469 26.24196621 0.00525771 0.00247221 -0.00055334
O -1.27546947 23.05793786 27.31266527 -0.00101637 -0.00285268 -0.00156955
O 1.36104242 20.09305335 33.26634245 0.00108936 0.00053850 -0.00449157
O 0.37112320 24.94223941 31.96902707 0.00093551 0.00004348 -0.00054108
O -1.82716982 24.08812131 33.33121588 0.00141056 0.00154108 0.00538936
O -3.43605154 0.20535020 32.13035314 -0.00094297 -0.00365199 -0.00337333
O 0.76921224 24.01067791 25.77934545 -0.00486123 -0.00305942 -0.00138218
O 2.19558734 19.33327514 27.30417807 -0.00424295 0.00110525 0.00513237
O 7.43404387 8.37854180 2.50816355 -0.00122831 0.00600415 0.00383752
O 8.88521429 3.83131918 3.61399996 -0.00056682 -0.00296310 -0.00141001
O 11.22901257 0.96448578 9.41099595 0.00178289 -0.00375689 -0.00494753
O 10.14099852 5.95195358 8.54135141 -0.00185378 -0.00361401 0.00039666
O 8.09050640 4.91832054 9.77448618 -0.00192850 0.00070138 0.00111049
O 6.37718918 9.71237514 7.99582499 -0.00148659 0.00041903 0.00275177
O 10.76542424 4.72357883 2.32965389 -0.00142018 -0.00234694 -0.00168409
O 12.43934458 28.60750269 3.75815183 -0.00211942 0.00175717 -0.00347443
O 5.90787923 8.74296509 14.32052523 0.00145136 0.00054931 -0.00039502
O 7.27106876 3.65459268 15.45268888 -0.00284938 -0.00345894 0.00794691
O 9.78668311 1.07470260 21.34193230 -0.00412024 -0.00536814 0.00321830
O 8.83903897 5.66138042 20.16629715 0.00085972 0.00002453 -0.00006764
O 6.73254443 4.68992468 21.49299452 -0.00610586 0.00151618 -0.00069420
O 5.11933222 9.72506449 20.16711296 0.00088082 -0.00180502 0.00900650
O 9.44980703 4.53986934 14.34213672 -0.00158765 -0.00021153 -0.00044306
O 10.84974836 28.75303051 15.67463117 -0.00419217 0.00132843 0.00226342
O 4.53733163 8.49737227 26.05087488 -0.00209014 -0.00076796 0.00102083
O 5.60720650 3.67583191 27.13856292 0.00041189 -0.00210026 0.00232214
O 8.10128408 0.94215309 33.35023694 0.00655411 0.00038051 -0.00907901
O 6.97334877 5.74925671 32.30016034 0.00437654 -0.00039178 -0.00160905
O 4.85431964 4.75832477 33.51984261 -0.00185351 0.00437613 -0.00136436
O 3.32596358 9.48903230 31.99390724 0.00254856 0.00697328 -0.00203173
O 7.64287833 4.83758038 25.93945161 -0.00225931 -0.00313066 -0.00112026
O 9.30759799 0.16643912 27.43060161 -0.00399139 0.00115967 0.00240032
O 7.44001151 18.05844833 2.54011040 -0.00194368 -0.00041306 -0.00021587
O 8.74677543 13.04845657 3.05778365 -0.00504075 0.00458820 0.00094095
O 11.21558778 10.43986351 9.54364480 -0.00580837 0.00719865 0.00556341
O 10.23569228 15.23206089 8.06470991 0.00029409 0.00341538 0.00049024
O 8.16632966 14.84894687 9.47742868 0.00069905 -0.00281259 0.00519370
O 6.48560713 19.45851521 8.10889436 0.00016477 0.00089897 -0.00166458
O 10.69723466 14.52309267 2.10701790 -0.00020878 -0.00435758 0.00240115
O 12.35063112 9.46469789 3.64936804 -0.00375883 -0.00550207 0.00025472
O 6.24226054 18.22763253 14.39997170 -0.00346074 -0.00007398 -0.00016096
O 7.41864957 13.04430321 15.29855435 -0.00083447 0.00017351 0.00162555
O 9.82909274 10.76301852 21.37174800 -0.00276765 -0.00035453 0.00197910
O 8.42623948 15.51992875 20.39249808 -0.00811665 0.00446019 0.00446929
O 6.49267824 14.27103833 21.67936273 0.00623837 0.00308199 0.00148556
O 4.95562178 19.20490293 20.15947215 0.00170346 0.00025368 -0.00549539
O 9.21742713 14.47973878 14.11315481 -0.00200172 0.00463121 0.00254392
O 10.77173341 9.50946157 15.55784609 -0.00014187 -0.00155038 0.00153701
O 4.39051405 17.99308488 26.39074251 0.00038303 -0.00271574 0.00236346
O 5.53764067 13.38624600 27.47962102 0.00066635 0.00295690 -0.00662051
O 8.04708790 10.41328784 33.56463978 -0.00308476 -0.00097027 -0.00148212
O 7.33645973 15.41419037 32.08528916 -0.00172301 0.00071226 -0.00499814
O 5.10622702 14.61831473 33.20806560 -0.01123483 -0.00219718 -0.00052795
O 3.48654875 19.51682417 31.94659556 0.00270432 0.00051830 0.00004884
O 7.62391790 14.12636622 26.18000814 -0.00454318 -0.00027003 0.00323764
O 9.33222015 9.48528930 27.64793371 -0.00275229 0.00037495 0.00553396
O 7.46397821 27.51272255 2.58440088 0.00428941 0.00237606 0.00207005
O 8.77013076 23.03666255 3.35297377 0.00241039 0.00417680 -0.00064499
O 11.51914616 20.42700824 9.35342894 -0.00333748 -0.00443439 -0.00216848
O 10.16599740 24.98027011 8.37347877 0.00041306 -0.00263667 0.00113983
O 8.14878866 23.96916053 9.73002354 -0.00415631 -0.00052347 0.00070956
O 6.55759499 28.78603605 8.09999116 0.00073000 -0.00020520 0.00190664
O 10.82677587 23.93329768 2.13888953 0.00252717 0.00664617 0.00103468
O 12.27432910 19.11793403 3.62416581 0.00008672 0.00440062 -0.00051764
O 5.91935186 27.75393719 14.54328060 -0.00398327 0.00355352 -0.00167127
O 7.28621999 22.73739059 15.37249629 0.00043494 -0.00241792 -0.00537590
O 9.78845959 20.20429154 21.36170746 0.00258418 -0.00028911 -0.00508396
O 8.70731556 25.10476494 20.42994130 0.00371675 0.00652622 -0.00330447
O 6.64405958 23.91395025 21.70323361 0.00518427 -0.00167666 0.00298663
O 5.10555339 28.72876887 20.10241218 0.00444797 0.00078222 -0.00193991
O 9.27776054 23.84784673 14.22078403 -0.00605411 0.00043696 -0.00020199
O 11.10252403 19.08740387 15.78511791 -0.00409439 -0.00292428 -0.00367311
O 4.43934496 27.64656253 26.26275571 0.00110575 -0.00586221 0.00399316
O 5.57295689 22.75784139 27.06394979 0.00419885 -0.00280929 -0.00154290
O 8.41870016 20.36817198 33.03250579 -0.00165807 0.00177073 -0.00162250
O 6.98431401 25.22983349 32.07458767 0.00227383 0.00167294 0.00361313
O 5.06048012 23.98812632 33.44529986 0.00399409 -0.00022178 0.00270853
O 3.44287803 0.03215827 31.95370317 -0.00048687 0.00162971 -0.00269206
O 7.67538758 23.87781099 25.99729724 -0.00215280 0.00042654 0.00395057
O 9.20438127 19.09200372 27.26657693 -0.00269858 0.00031279 -0.00233373
O 14.52108979 8.58016164 2.42419708 0.00449242 -0.00241142 -0.00206034
O 15.64809039 3.79270054 3.51534857 0.00423523 -0.00071537 0.00713506
O 18.25482385 0.92491687 9.76933636 0.00055055 -0.00245267 -0.00336799
O 17.16267270 6.05390497 8.50931234 0.00431619 0.00235489 0.00161449
O 15.09922543 4.87336658 9.62716527 0.00306094 0.00371361 0.00139394
O 13.46445876 9.66737191 8.16471978 0.00136733 -0.00412071 0.00475314
O 17.61181835 4.89174805 2.39540995 -0.00249258 0.00208985 0.00063012
O 19.32956372 28.76384596 3.64762012 0.00102309 -0.00190065 -0.00144656
O 12.82232004 8.36572985 14.49358952 -0.00283155 0.00262105 0.00016873
O 13.95560504 3.59064063 15.25418719 -0.00423264 -0.00315786 0.00258361
O 16.58067124 0.95144966 21.37873672 0.00417327 0.00607904 -0.00185940
O 15.48325167 5.80256978 20.15873212 0.00145007 -0.00026688 -0.00161820
O 13.55062258 4.93744460 21.62368888 0.00215660 0.00328553 -0.00222189
O 11.81302836 9.75034761 20.03010933 0.00124590 0.00607075 0.00372721
O 15.98937432 4.91850166 14.28069276 -0.00069655 -0.00267245 -0.00336533
O 17.61355582 0.03650858 15.53350097 -0.00477871 -0.00167508 0.00117402
O 11.26969892 8.76471948 26.05715549 0.00942411 0.00260087 -0.00232985
O 12.62490877 3.57026529 27.04413230 0.00301334 0.00125556 0.00493822
O 15.00339883 1.18385299 33.21794363 0.00306995 0.00205112 0.00027367
O 13.85398305 6.02885071 32.11919885 0.00066415 -0.00093101 0.00203323
O 12.03673646 4.86246656 33.39786811 -0.00238501 0.00136462 -0.00293280
O 10.33362623 9.76093044 32.24694370 0.00136144 0.00179095 -0.00207818
O 14.44189470 5.19480033 25.82163996 0.00296708 -0.00172659 0.00146536
O 16.11247773 28.60239575 27.31224158 0.00194629 0.00286460 0.00057808
O 14.35309516 18.14707040 2.46462009 0.00577071 -0.00351685 0.00005124
O 15.55676401 13.40837661 3.57036768 -0.00749736 -0.00444587 -0.00070949
O 18.28396640 10.42777045 9.46651361 0.00631655 -0.00019785 -0.00060044
O 17.07613986 15.56617278 8.38191889 0.00071107 0.00002511 0.00315503
O 15.03937887 14.35777493 9.41647309 0.00048817 0.00012282 0.00239871
O 13.57660577 19.31609836 8.14578167 0.00089408 -0.00514153 0.00369333
O 17.70848817 14.30915418 2.23075095 0.00022790 0.00350441 0.00333703
O 19.22557437 9.46750900 3.58019028 -0.00779957 -0.00509464 -0.00268690
O 12.96388735 18.09721922 14.26053710 -0.00442918 -0.00113447 0.00487484
O 14.05971673 13.34105353 15.12168366 0.00235000 -0.00121443 -0.00316677
O 16.53635005 10.59264871 21.29963710 -0.00093468 0.00319833 -0.00377699
O 15.47345774 15.21752950 20.07151303 0.00059820 -0.00382154 0.00190905
O 13.44591488 14.43187611 21.52958320 0.00216847 0.00010554 -0.00111863
O 11.91423072 19.17927890 20.21520808 -0.00202026 0.00330881 -0.00344626
O 16.09070990 14.45860459 13.91926148 -0.00575040 -0.00772224 -0.00684343
O 17.67433919 9.57998347 15.55820668 0.00055641 -0.00155566 0.00211182
O 11.35375664 18.16259550 26.33685028 -0.00293959 0.00474481 0.00277762
O 12.31333735 13.49738265 27.45120290 -0.00657673 -0.00314475 -0.00130755
O 15.18624976 10.82274763 33.03755216 0.00140982 0.00536818 -0.00423329
O 13.91324350 15.71037675 32.22697077 0.00092629 -0.00156185 -0.00189254
O 11.85270892 14.68789565 33.28470941 -0.00185075 0.00212281 0.00632858
O 10.31558349 19.06514355 31.87572005 0.00564911 -0.00250470 0.00020620
O 14.57087286 14.30202275 26.15010397 -0.00000764 0.00133429 -0.00199078
O 16.07081954 9.42197264 27.39691328 0.00672622 -0.00240027 -0.00351987
O 14.30256098 27.36842661 2.68081933 0.00166921 0.00170306 0.00082809
O 15.59293433 22.98805169 3.43586732 -0.00154956 -0.00487182 0.00200607
O 18.34275738 20.40466621 9.08008955 0.00032818 -0.00449668 -0.00042806
O 17.10854393 25.22622886 8.47833623 -0.00163007 0.00628022 -0.00282809
O 14.98679040 24.00310799 9.42126932 0.00091421 -0.00359156 -0.00493218
O 13.52826867 0.11839337 8.22053617 0.00028322 -0.00421602 0.00228904
O 17.62923483 23.93226315 2.19262071 0.00041731 0.00081898 -0.00285128
O 19.43375216 19.15421389 3.82409431 0.00315285 0.00131703 -0.00810155
O 12.83905591 27.81098154 14.25771776 -0.00068345 0.00076325 -0.00039591
O 14.13715593 23.01251907 15.63455806 0.00195597 -0.00640096 0.00068819
O 16.66788705 19.94136201 21.48150829 0.00009315 0.00037326 -0.00164480
O 15.48256936 25.22258149 20.35022393 -0.00035510 -0.00233707 0.00482487
O 13.57321524 23.73178808 21.58389101 -0.00142085 -0.00095702 -0.00030704
O 12.01620832 0.07367239 20.19958954 0.00173827 0.00123643 -0.00591802
O 16.05305894 23.81519916 13.96040851 -0.00103159 -0.00133857 0.00520596
O 17.56050493 19.03881480 15.66908617 0.00104176 -0.00027463 -0.00073614
O 11.38020996 27.81781281 26.09278554 -0.00277612 -0.00423884 -0.00287966
O 12.34873943 22.95701097 27.21901057 0.00329860 -0.00093548 0.00256845
O 15.06849030 20.13932929 33.32182437 -0.00420694 -0.00278691 0.00168856
O 13.80726751 25.17058019 32.25382467 0.00186981 0.00434760 -0.00203323
O 11.77100164 24.03112334 33.34423323 -0.00488761 0.00188779 -0.00222549
O 10.25346685 0.35174159 31.96517711 -0.00146606 -0.00087356 -0.00073747
O 14.46917802 24.03405753 25.92669665 0.00479430 0.00019398 -0.00666838
O 16.12282821 19.03799123 27.21609507 0.00299193 -0.00249138 -0.00172116
H -0.09413270 8.88374427 2.80252242 -0.01088299 0.00694025 0.00429231
H 2.73638205 4.24540036 3.25729720 0.00668755 0.01115537 0.00031653
H 5.45997007 0.74517249 9.20635104 0.03945547 0.00622020 -0.02482578
H 2.39310469 5.51934283 8.76474978 -0.03611344 0.00534993 0.01225228
H 5.49244222 8.09169162 0.87985431 -0.01928653 -0.00860556 0.00243931
H 4.01268070 3.07357991 5.05232189 -0.01013546 0.00894294 -0.00510228
H -0.45786067 1.38097455 11.56030772 -0.01902828 0.01164072 -0.00804783
H 1.48212671 6.08552619 6.76468901 0.02578050 -0.01517533 0.01167863
H 3.92071866 6.62348245 10.97865252 0.02447116 -0.00543060 -0.00661854
H 3.90247298 1.58575762 7.09744551 -0.00325228 -0.00535681 -0.01183035
H 1.07137357 2.89257874 1.37566291 -0.00107447 -0.00491044 0.00895476
H 1.56953091 7.61339054 4.63542919 0.01340424 0.01812579 0.03017444
H -1.91754771 5.43829598 35.42055093 -0.00549625 0.00597354 0.00343554
H -0.13386273 0.68692275 6.20900818 -0.02863319 -0.02011000 0.00279737
H 2.43577572 4.12257419 12.20710451 -0.02672793 0.01431360 -0.00478259
H 5.40784737 8.88984591 5.70517260 0.02928356 -0.01196575 0.02012791
H 2.55421258 6.68524320 1.94972648 -0.00662067 0.00759583 0.00284305
H -0.10243742 2.37519781 4.25757056 -0.01522347 0.02010937 -0.01931372
H 2.60309858 2.75162274 10.21631294 -0.01077087 0.01551060 0.00131127
H 5.42134030 7.29974684 7.69845088 -0.02239462 0.02285979 -0.00342635
H 4.93792895 4.83745938 9.81732014 0.02196805 -0.01174912 0.02626278
H 2.96202848 28.70588057 8.12777968 0.05395472 -0.01771512 0.01067256
H 0.31373297 4.88724003 2.18747497 -0.02099028 -0.00165854 -0.01573946
H 2.35317095 9.33309561 3.68755933 0.01931693 -0.01819929 0.00326531
H 5.86027594 4.40915194 7.63271900 0.00900654 0.00414046 0.01718987
H 0.45065838 8.40540334 10.37106204 -0.00481133 0.00423628 0.00411565
H 19.81852778 6.83658994 3.47551115 -0.01385627 -0.04845371 -0.00158070
H 3.07400710 1.15112794 1.98665926 0.03666469 -0.01263837 -0.00402376
H -0.31350107 2.47767975 8.51546568 0.01508119 0.00110744 0.00287575
H 2.20973926 8.41877345 10.00657004 -0.02798688 0.01610241 -0.00924325
H 6.49969744 5.89867794 4.07093729 0.01405531 0.02143026 0.00116715
H 4.46511545 2.11921395 2.19643547 -0.01993652 -0.01950859 -0.00338206
H 0.84159008 3.50836738 7.60744328 -0.02650723 0.00554713 0.01491677
H 1.16123225 7.19958390 9.21639061 -0.00652474 -0.01843530 0.00680824
H 5.19868519 6.94275742 3.53901120 0.01737772 -0.02369484 -0.00040859
H 4.48621581 0.62184465 1.19548460 -0.00632719 -0.01159119 0.00288370
H -1.72579583 8.88950982 14.72089229 -0.02963756 0.00853064 0.01312523
H 1.06386015 4.21630775 15.23437387 0.00270883 -0.01729114 0.01288758
H 3.78624689 0.33547595 20.90374464 0.02744894 -0.01015309 -0.01175198
H 0.93177157 5.49387627 20.52680236 -0.00076225 -0.02294494 -0.00748183
H 4.03829859 8.35294017 12.58646519 0.01562690 -0.01150026 0.00530544
H 2.24288391 3.44974308 17.19218109 -0.00592908 0.01015450 -0.01826787
H -2.05714055 1.34069169 23.12568031 -0.01546404 0.00362904 -0.01311896
H -0.26826304 6.29492665 18.55711855 -0.01645006 -0.00638951 0.00924845
H 2.58085785 6.59146278 22.46731626 0.00557481 -0.00194516 0.00711658
H 2.33958019 1.81961169 18.93555405 -0.00224179 0.00689126 -0.01073364
H -0.51994385 3.00193184 13.26695388 -0.00869049 0.00364013 -0.01187879
H -0.17394584 7.70970308 16.67686340 -0.01144914 -0.00936912 -0.00142204
H 1.18291406 5.27883068 11.86749640 0.00204631 -0.01145028 -0.01729154
H -1.73219022 0.62182711 18.07459175 0.02701125 -0.03737255 0.00319173
H 0.98504812 4.04003638 23.62170713 -0.01038070 0.01068767 -0.00168721
H 3.80205794 9.04848546 17.70513037 -0.02250240 0.01252925 -0.00029792
H 1.20080744 6.92885404 13.57222501 -0.01817261 0.01099362 -0.00320738
H -1.80354221 2.36910735 16.32436382 0.02594580 0.00702140 -0.01112627
H 1.01056342 2.45094785 21.73766735 0.00947459 0.00161079 -0.00381993
H 3.84254941 7.39521282 19.44401603 0.00352756 -0.00395034 -0.01083946
H 3.63612962 4.74363173 21.34342055 -0.03991408 0.00210228 0.00733040
H 1.38203530 0.13722786 20.11473157 0.01220977 -0.00293012 -0.00082192
H -1.40690501 4.90720986 14.23235908 0.01211491 0.01181888 -0.01006360
H 0.74378471 9.58957620 15.67573254 0.01986262 -0.01103650 -0.00151610
H 6.08424382 3.56666493 19.31335733 -0.00878999 -0.01794066 0.02264999
H -1.09569101 8.66503649 22.42643953 0.02285650 -0.03346394 -0.00141744
H -2.04297459 6.43764289 15.56148024 0.04054293 0.01236864 -0.01081601
H 2.32281395 2.34317109 14.68827388 -0.00850193 -0.01047579 -0.00930448
H -1.14534456 4.04789859 19.10637880 -0.00430399 -0.00654157 -0.00722011
H 0.69375735 8.39357372 21.90327324 -0.05763798 0.00763232 -0.02398288
H 3.22459424 5.50618479 16.63207876 -0.00743663 0.00145398 -0.01329378
H 3.26278908 1.35612165 13.53491056 -0.00553622 -0.00650828 0.00170190
H -2.65263231 3.39726082 20.08342942 0.00092961 0.00708225 -0.00690652
H -0.63509724 7.30200611 21.15298625 0.02434373 -0.00536983 -0.01153669
H 4.87423440 5.89273994 16.05184556 -0.04584674 0.01901285 -0.00724543
H 1.58309960 1.01669742 13.87870537 -0.07196260 -0.02070194 -0.02756447
H -3.31559780 9.02572975 26.43238798 0.03395820 -0.02063212 -0.02162805
H -0.30986888 4.02157918 27.03444307 0.00891204 -0.00835768 -0.02556512
H 2.35513067 0.70587594 32.95378323 -0.00807104 0.00757841 0.00276838
H -0.63885280 5.63082703 32.46153947 -0.03440306 -0.01679491 -0.00141130
H 2.43784341 7.95936191 24.42302882 -0.01479278 0.00781133 0.00373891
H 0.77234451 3.32879589 28.89232619 0.03109451 -0.01926883 -0.00129636
H -3.69032845 1.28899774 34.97446820 -0.01893871 -0.00878961 0.00187765
H -1.74080730 6.22219566 30.42965615 0.00895634 0.00314369 -0.00273591
H 0.71408211 6.47333248 34.64632250 0.02997642 -0.00109468 0.00977750
H 0.64903085 1.96603932 30.99863538 0.01802272 0.00474286 -0.00199387
H -2.10408924 2.89113056 24.98978441 0.00021546 -0.00676935 -0.00016815
H -1.65597643 7.65328226 28.46272600 0.00411122 -0.01136138 0.01408377
H -0.33436030 5.42879242 23.61563265 -0.00373826 0.02305860 0.00114283
H -3.28091904 0.71231762 29.92038867 -0.00763797 -0.02635070 0.00301517
H 4.06401860 4.20460628 0.13996218 0.01196510 0.01143100 0.00666410
H 2.34304739 8.91128895 29.31742810 0.00152977 -0.00197426 0.00000202
H -0.38625736 6.90162826 25.64882754 0.00129194 -0.00698525 -0.00870620
H -3.23158317 2.14083769 27.88333590 -0.00662498 -0.00054155 -0.00604110
H -0.70411124 2.62378592 33.88285545 -0.00904033 0.00684339 0.00328246
H 2.31866118 7.28898644 31.33155834 -0.02270865 0.00068762 -0.01219992
H 1.82144764 4.89223083 33.20348010 0.01606866 -0.01841637 0.01233752
H -0.22368948 28.65026077 31.74793490 0.07720352 -0.00992901 0.00678046
H -3.07039800 4.86983074 25.91412717 -0.01346261 0.00637858 -0.02225203
H -0.96455912 9.57477693 27.62189994 0.03519759 0.00889229 -0.00646758
H 3.74092077 2.39079338 32.35615959 -0.00078659 -0.00434291 -0.01238528
H -0.76676422 8.55573555 33.45342382 -0.00064926 -0.02031225 -0.00476956
H 16.79935083 5.50362967 27.77551835 0.00929316 0.00041617 -0.00738810
H 1.22953139 2.32440002 26.08294309 -0.03293303 -0.05237553 -0.00781341
H -2.38111233 3.50296080 31.29452181 0.02130669 -0.02698919 -0.02574280
H -2.00480580 7.42817390 33.06811352 -0.01579293 0.03090222 0.00371074
H 3.40932510 5.55338059 27.63301676 0.01918077 -0.03071952 0.03562803
H 1.46457729 0.97883047 25.03874541 -0.00688002 0.00129580 -0.02057138
H -4.05599915 4.33572768 31.21229258 -0.03967803 0.03424214 -0.02869619
H -2.39346975 8.60455541 34.16418961 0.02062271 -0.01861500 -0.02137093
H 2.64780769 6.90424704 26.87989168 -0.00814133 -0.00551139 0.00684445
H -0.23131202 1.40577892 25.71397696 0.01919077 0.01819087 0.01311968
H -0.20944181 18.44216110 2.74198452 -0.00829799 -0.01047746 0.00031234
H 2.80922508 13.54164340 3.21209896 0.00305878 0.01582727 -0.00402870
H 5.20872976 10.13337429 9.01565560 0.00687454 -0.02091395 -0.00408471
H 2.35326093 15.00319533 8.45457826 0.01222880 -0.00790255 -0.01422652
H 5.55469803 17.78520818 0.67042023 0.00968116 -0.00804633 0.01666778
H 3.78812872 13.03671400 5.35758746 -0.02758952 -0.01212383 0.00551518
H -0.34584329 10.81627104 11.12003562 -0.01760384 0.01751157 0.00894193
H 1.41179787 15.72994617 6.48102593 -0.02402158 -0.00693493 -0.02082366
H 4.16693374 16.32682925 10.88427320 0.01320486 -0.01505130 -0.00407553
H 3.86512814 11.17315794 6.96396954 0.00067958 -0.00995152 -0.01187744
H 1.28791887 12.40431643 1.19407152 0.00233765 0.00199060 -0.02828592
H 1.33295400 17.45303534 4.67236001 -0.01702824 0.02334750 -0.02388160
H -2.01441314 14.83801496 35.61218846 -0.01315931 -0.01479785 -0.00852874
H -0.10834560 9.89437669 5.96961871 -0.00129135 0.00202979 0.01118934
H 2.45637121 13.70084321 11.99180066 0.01474406 -0.01849898 -0.00622231
H 5.42833189 18.66331422 5.80952728 -0.00026240 0.00098892 -0.00060151
H 2.65028718 16.35916823 1.85238942 0.01022747 -0.02085055 0.01647780
H -0.01918466 11.49907817 3.95830556 0.03092553 0.00233945 0.02396636
H 2.34263080 11.82229562 10.29631842 -0.00360564 0.00818487 0.01911665
H 5.41987122 17.15712475 7.69446327 -0.00633452 0.00263092 0.00059471
H 4.96263688 14.24792756 10.01222474 0.04826135 0.02394674 0.01340628
H 2.88442296 9.63727768 8.22270982 0.05497624 0.00054406 0.01113224
H 0.23941904 13.98011529 2.48133007 -0.03971294 0.01064378 -0.00723031
H 2.33178638 19.00709563 3.69603154 -0.00216490 0.02991245 -0.01748920
H 6.26752097 12.53252309 8.63545852 -0.01158909 0.01650877 -0.01463825
H 1.73334331 16.96971233 9.30730197 -0.00657684 0.02010625 0.00533908
H -0.32645934 15.74055548 3.52207515 0.02747152 -0.00208015 0.00505399
H 3.83481959 11.70003751 2.59886485 0.00131246 0.00218837 0.00428544
H -0.58865707 12.26454960 8.47939411 -0.00194577 0.00657496 0.00077378
H 0.19022359 17.71406914 10.11541894 -0.00877326 0.01027780 -0.00192452
H 4.90125697 15.40127763 4.30854713 0.00413345 -0.02343447 0.04605556
H 4.84704479 10.57014663 1.43006970 -0.02553844 -0.01474225 0.00781598
H 0.53682712 13.05558668 7.45299710 0.00690214 -0.01820716 -0.01572455
H 1.70363158 18.37195620 10.46005895 -0.00080244 -0.00051910 0.02680672
H 6.48349875 15.80976644 3.63759955 -0.04615275 0.00573539 0.01220507
H 3.06494426 10.09928308 1.78974631 0.02154443 0.01525649 0.00912848
H -1.75597565 18.48740097 14.62589557 0.01817325 0.00408807 -0.01257331
H 1.16183209 13.51562843 15.22044512 0.00191149 -0.01830894 -0.00026030
H 3.73840196 10.32826855 21.16045902 -0.00289340 0.00576709 -0.00140946
H 0.86148303 15.26645203 20.56170453 -0.00236827 0.02435239 0.00086348
H 4.12777720 17.81877612 12.73525818 0.01949687 -0.00487036 -0.01264833
H 2.42866769 12.84266577 17.24380418 0.00901629 0.03386015 -0.00830761
H -2.04493181 10.93797476 22.81762573 -0.00718928 0.01549659 0.02857846
H -0.29835023 15.86095599 18.67657279 -0.01456819 -0.04506229 -0.02806835
H 2.43635974 16.30233967 22.74143253 0.00393874 0.01927897 -0.00440532
H 2.36107626 11.26727377 19.16628216 0.00410866 -0.00564097 0.00965923
H -0.34706327 12.29673097 13.13919960 -0.00918044 0.01654380 -0.03331106
H -0.10838082 17.03614149 16.54413623 -0.01555143 -0.00603527 -0.00990890
H 1.17788172 15.01667366 11.64214065 -0.01217054 0.00606769 -0.01168985
H -1.69486889 10.13955946 18.07791049 -0.00484638 0.00659401 -0.00449364
H 1.12297845 14.04170374 24.11304170 0.01650049 -0.00721259 0.01615622
H 3.77176567 18.62357131 17.48593415 0.01970367 0.02118334 -0.00967409
H 1.03467137 16.52296489 13.68675582 -0.00937506 0.00970023 0.00061037
H -1.66395033 11.81186032 16.24276898 -0.00087001 0.00000258 0.00608838
H 0.91471911 12.35264783 22.32744835 0.01815060 0.00655605 0.00667449
H 3.75581134 17.08477002 19.63288156 0.00805309 -0.00458121 0.00995244
H 3.33014920 14.47535407 21.63455728 -0.04626083 -0.00750733 -0.00613280
H 1.33630450 9.66143572 20.22208968 -0.01918297 0.00571103 -0.00651010
H -1.35023289 14.22909855 14.10285612 0.02227488 -0.03059872 -0.00448402
H 0.75304157 19.06932438 15.68238590 -0.07160882 0.03430585 -0.02643551
H 3.88262490 12.83434748 20.31146834 -0.00298979 -0.02018023 0.01946753
H 0.73044964 18.66157415 22.10965997 0.02271566 -0.00640867 0.01975368
H 17.27067218 16.63287545 15.00960162 -0.01791915 0.03108844 -0.00328510
H 1.86182573 9.97550441 13.24836922 -0.02012378 -0.01823012 -0.01916000
H -2.05951110 12.37310078 19.96486405 -0.01239491 -0.04684382 -0.00406929
H -0.01774651 17.15377849 21.42614939 0.00528321 0.02208529 0.00051801
H 3.79186131 14.83651784 16.57477258 0.00821360 0.02542683 -0.03393803
H 2.23023864 11.65866857 13.94245284 -0.00182498 0.02058658 -0.00504264
H -0.88907852 13.46271916 19.17577440 -0.03840856 -0.00219903 -0.00979279
H -1.17523784 18.40332598 22.45189526 -0.02978723 -0.00395064 0.02609682
H 4.62091474 15.88837467 15.53529498 -0.00609161 -0.00772650 0.00404671
H 3.68483882 10.39584635 13.34349631 0.00652248 0.01629720 0.00505650
H -3.25881649 18.43006149 26.37258516 -0.00383948 -0.02569870 -0.00403394
H -0.37177562 13.58642954 26.72912940 0.02885049 -0.00851218 0.00929204
H 2.21338299 10.26153045 32.73745762 -0.00568209 -0.00204165 -0.00348377
H -0.71394547 15.22897115 32.39297978 -0.00929727 -0.01919895 -0.02879447
H 2.49398612 17.81637482 24.53793506 -0.00642694 0.00680469 -0.02140956
H 0.59787529 13.14232131 28.81941968 -0.00039690 0.01437968 -0.00144920
H -3.42942069 11.04176674 34.75758444 -0.00165865 0.00044626 -0.02160799
H -1.80783945 15.97999898 30.50961103 -0.03014000 -0.00111715 0.01035540
H 1.01336595 16.32049974 34.33561804 0.00566420 -0.01034412 0.01826004
H 0.77689128 11.52644173 30.80864162 -0.02152482 0.00930123 0.00853450
H -1.81134876 12.61931332 24.80293717 -0.00294758 0.02181835 -0.02840423
H -1.69518462 17.23367299 28.37335142 0.03773192 0.02204585 0.00486913
H -0.56186128 14.84414821 23.50639789 0.00838999 -0.00689555 -0.00232412
H -3.17349102 10.18748777 29.80605123 -0.00604016 0.00333360 -0.00130125
H 4.07433582 13.68959125 0.01493685 -0.04083561 -0.00414160 0.01305785
H 2.10383976 18.85638685 29.55069631 -0.00913811 -0.00310651 -0.00606858
H -0.54391826 16.37436982 25.48830767 -0.03090568 -0.00007891 -0.00397655
H -3.27380303 11.90168620 28.07401297 0.02385162 -0.00949160 0.00162042
H -0.68089446 11.96930836 33.91061646 -0.01383856 0.00421087 -0.01113927