2160
Time=18999.99999999 pbc="T T T" Lattice="20.54485799 0.00000000 0.00000000 0.00000000 29.06585026 0.00000000 -4.72822509 0.00000000 35.54744428" energy=-13797.49991840 virial="-134.63381214 4.83892595 47.78947285 4.83892595 -57.21610038 28.29120924 47.78947285 28.29120924 -80.58294890" stress="-0.00350208 0.00016398 0.00239143 0.00016398 -0.00040623 0.00129251 0.00239143 0.00129251 -0.00130267" Properties=species:S:1:pos:R:3:vel:R:3
O 0.53226943 8.63893644 2.01628470 0.00127584 -0.00425916 -0.00298889
O 1.83023119 3.65244629 3.84706396 0.00107264 -0.00256433 -0.00457257
O 4.57069954 1.17215816 9.43169030 -0.00100725 0.00611331 -0.00368114
O 3.14191772 5.97472198 8.36372513 -0.00399500 0.00215577 -0.00601734
O 1.30253615 4.80097338 9.80873212 -0.00127008 -0.00151082 -0.00057055
O -0.38928379 9.99629646 7.99697323 -0.00671979 -0.00273973 -0.00271080
O 3.90645494 4.88429000 2.60431229 0.00099678 -0.00226241 0.00328452
O 5.33159647 28.95765898 3.64649231 -0.00310713 0.00036821 -0.00300846
O -0.72139052 8.85809956 14.06500081 -0.00136300 0.00170229 0.00563175
O 0.29743134 3.84998407 15.30715351 0.00480484 -0.00144891 0.00347323
O 2.94472085 1.15469219 21.47577496 -0.00332594 -0.00096366 -0.00608402
O 1.98382724 5.99574166 20.07456311 -0.00090095 -0.01085156 0.00556717
O -0.29522200 5.10690581 21.10708709 -0.00460220 0.00246370 -0.00520682
O -1.96735990 9.78408825 19.98582544 -0.00319772 0.00465889 -0.00015549
O 2.33268200 4.91297083 14.12385250 -0.00483501 -0.00076007 0.00091479
O 3.87975336 0.19123475 15.54577043 0.00191134 0.00272760 0.00685090
O -2.31419800 8.33794717 26.45081266 0.00734337 0.00046922 0.00106933
O -1.34195224 3.86404773 27.40001761 0.00082140 -0.00253351 0.00032217
O 1.27923051 1.21146656 33.20415711 0.00465777 0.00446152 0.00245748
O 0.29559402 5.83597026 31.88637508 -0.00229501 0.00389645 0.00222534
O -1.83287196 4.65297600 33.15512116 -0.00111023 0.00191146 -0.00205685
O -3.21595586 9.95965416 32.04292516 0.00194501 0.00424063 -0.00038384
O 0.88834658 4.87824451 26.00186450 0.00008168 -0.00233167 0.00225502
O 2.21835653 28.86136912 26.96892426 -0.00379566 0.00097075 0.00254096
O 0.84445299 18.31195880 2.47678667 0.00039098 -0.00119047 0.00866445
O 2.10903855 13.45592177 3.41521324 0.00308683 -0.00184595 -0.00333491
O 4.64124957 10.66408048 9.72885631 -0.00026236 0.00297866 0.00211068
O 3.61053285 15.61089745 8.42393459 0.00337132 0.00041066 -0.00308737
O 1.26005491 14.88737587 9.57137755 0.00432606 -0.00021319 0.00011955
O -0.10608721 19.38772677 8.39953769 0.00350721 -0.00540147 -0.00002119
O 4.03410832 14.65292125 2.04803880 -0.00061969 -0.00241866 0.00450099
O 5.45419462 9.33004665 3.58835058 0.01031277 0.00057785 -0.00511598
O -0.84573304 18.29686677 14.33010274 -0.00393826 0.00342405 -0.00298777
O 0.35485997 13.78420365 15.52034513 -0.00679565 0.00079385 0.00269301
O 2.79402846 10.76911928 21.19557271 0.00735454 -0.00259141 -0.00118702
O 1.83192202 15.47294857 19.95462729 -0.00072855 -0.00285202 -0.00242976
O -0.41910660 15.13524899 21.11148725 0.00098850 -0.00059549 -0.00115992
O -1.61084849 19.61768344 20.18308620 0.00112320 0.00116223 -0.00599118
O 2.57771995 14.32711340 14.34799234 0.00503580 0.00014960 0.00039805
O 4.09680383 10.00371629 15.51351631 0.00509185 0.00400648 0.00194171
O -2.30193051 18.37420147 26.05940928 -0.00368551 0.00120848 -0.00083723
O -1.33903833 13.27054539 27.09615012 -0.00259834 -0.00295614 0.00437393
O 1.32779623 10.72007906 33.14122520 -0.00550414 0.00951141 -0.00477656
O 0.36946806 15.51356157 31.98442052 -0.00044703 0.00028093 0.00140362
O -1.81947204 14.89936783 33.13594382 0.00389796 -0.00610602 -0.00040144
O -3.24691553 19.40016231 31.84187585 -0.00136572 -0.00249913 0.00222394
O 0.41805192 14.48850312 25.73717635 -0.00481104 0.00256822 -0.00273387
O 2.34680571 9.61948935 27.06560374 -0.00031242 -0.00399026 -0.00214027
O 0.60471461 27.98726452 2.28878426 -0.00262266 0.00280133 -0.00305707
O 1.87432873 23.06828058 3.50354115 0.00907040 0.00199736 -0.00466879
O 4.50903668 20.37371576 9.61636251 0.00032647 -0.00109240 0.00129007
O 3.50056746 25.01508108 8.32283376 -0.00034731 -0.00278677 -0.00056296
O 1.20149206 24.35671699 9.37408210 0.00769490 0.00319832 0.00501541
O -0.31760184 0.07676147 8.49054289 -0.00259816 0.00069155 0.00467105
O 3.81544718 24.14171558 2.13168925 -0.00486646 -0.00204345 0.00397435
O 5.59700563 19.46133678 3.67498473 0.00651133 0.00490819 -0.00179274
O -0.73588070 28.20530260 13.97451911 0.00825822 -0.00161097 -0.00553652
O 0.21576247 23.24388747 15.24944921 0.00187049 -0.00005550 0.00052579
O 3.04264321 20.30332719 21.07527782 -0.00304151 0.00379375 0.00031316
O 1.71392770 25.33090795 19.95277811 0.00694478 -0.00761891 -0.00643210
O 0.10106804 24.14061612 21.43932495 -0.00206353 0.00219955 0.00163878
O -1.84688306 0.16160138 19.99084512 -0.00414737 -0.00087195 -0.00555109
O 2.41680358 24.36765275 14.27158070 -0.00055721 -0.00514732 0.00172824
O 4.06680154 19.09485517 15.38750360 -0.00522540 -0.00173652 0.00086335
O -2.75887452 27.80794166 26.23688427 -0.00101293 0.00213301 -0.00043874
O -1.27739045 23.26000896 27.08737485 -0.00634386 -0.00266090 -0.00060708
O 1.57970533 20.40611903 33.13845682 -0.00146281 -0.00122007 -0.00174533
O 0.33674766 25.25344733 31.93131202 0.00141770 0.00719992 -0.00795133
O -1.71759718 24.39200260 33.21927721 -0.00366485 -0.00485617 -0.00603744
O -3.58716164 0.02644030 31.89948829 -0.00426684 -0.00515603 -0.00171151
O 0.75277464 23.87962791 25.75515351 -0.00816897 -0.00458858 -0.00391600
O 2.49100390 19.67242353 27.44464166 0.00760930 -0.00349906 0.00116004
O 7.66346605 8.45203671 2.53999437 -0.00105969 0.00708435 0.00183905
O 8.63714604 3.99909552 3.64305061 0.00441638 -0.00008864 0.00267446
O 11.44008964 1.28665124 9.44827990 -0.00064109 -0.00101433 -0.00193029
O 9.96013225 6.22620163 8.56291812 0.00145301 -0.00375536 -0.00224005
O 8.00160354 5.05171382 9.70344287 -0.00880256 0.00107684 0.00371470
O 6.57476547 9.84457025 8.35202020 -0.00523898 0.00274277 0.00047782
O 10.73463533 4.59674714 2.26266472 0.00505154 0.00464217 0.00472320
O 12.29167205 28.58596029 3.51651523 -0.00087230 -0.00041929 0.00364885
O 5.91629888 8.61960761 14.49722330 -0.00183126 0.00105836 -0.00071242
O 7.30937189 3.55828945 15.16764694 -0.00277215 0.00071235 0.00349157
O 9.93157503 1.20595493 21.00884702 0.00492844 -0.00466595 0.00210004
O 8.59844435 6.21816856 20.24190952 0.00243495 0.00125898 0.00429109
O 6.59129453 4.93262773 21.22351759 -0.00176491 0.00481864 0.00351297
O 5.10651416 10.16527151 20.23369785 0.00009585 -0.00665565 0.00090229
O 9.04080650 5.04251534 14.09051319 0.00182571 -0.00140587 0.00670304
O 10.70393393 0.09129850 15.29003008 -0.00241073 0.00137644 -0.00379339
O 4.42714893 8.80539053 25.80570947 -0.00485758 0.00366307 -0.00022669
O 5.58856090 3.75837926 27.20682282 -0.00221417 -0.00298347 0.00183171
O 8.02070004 0.95932178 33.06564431 0.00574893 -0.00371175 0.00080085
O 7.06181027 5.74600584 31.92279079 -0.00536114 0.00105535 0.00215184
O 4.81075729 4.80621822 33.06157273 -0.00238045 0.00325903 -0.00079273
O 3.30478831 9.74438628 31.72265195 -0.00260934 -0.00058908 -0.00072313
O 7.49989360 4.96692758 25.71161890 -0.00005192 -0.00007295 0.00420100
O 9.16033273 28.77674016 27.36291591 0.00813328 0.00407277 -0.00294355
O 7.47386225 18.06426701 2.56904820 -0.00549789 -0.00155153 0.00355326
O 8.68743804 13.26475696 3.54733893 0.00612791 -0.00734160 -0.00035698
O 11.59291225 10.84844534 9.64144368 -0.00005682 0.00645789 -0.01096094
O 10.32698602 15.41334978 8.59390347 0.00096913 -0.00015744 -0.00380266
O 8.12772458 14.48267259 9.72016039 -0.00104909 -0.00079054 -0.00110379
O 6.65131683 19.36424238 8.53446534 -0.00563417 -0.00487678 0.00245434
O 10.81817703 14.41289332 2.38942142 -0.00228931 0.00071251 0.00177764
O 12.35834605 8.94625223 3.49402872 0.00267446 0.00082814 -0.00103769
O 6.25818863 18.25102182 14.20576411 -0.00272058 0.00452314 -0.00084538
O 7.01225191 13.72337334 15.38941322 0.00025893 0.00405416 -0.00314998
O 9.78079608 10.79078050 21.14359380 0.00224522 -0.00222818 -0.00241347
O 8.73872344 15.71902393 20.17222380 0.00487799 -0.00257048 0.00266709
O 6.50630769 14.72812084 21.45687360 0.00793246 -0.00102760 0.00630251
O 5.02357637 19.04640309 19.85508031 -0.00228653 -0.00406423 0.00073051
O 9.44575351 14.57652393 14.32122572 0.00391426 -0.00368770 -0.00126921
O 10.84696769 9.78130442 15.36471562 -0.00090870 0.00038892 -0.00264401
O 4.36465271 18.34984777 26.32670202 -0.00119886 -0.00145854 0.00705400
O 5.53926950 13.62589884 27.28621633 -0.00068860 0.00469695 0.00274059
O 8.32787437 10.85815372 32.96281320 0.00248348 -0.00774501 0.00368159
O 7.32693680 15.78081774 32.11755737 0.00291662 0.00313780 -0.00203851
O 4.95970863 14.80375838 32.96380863 -0.00382100 -0.00454216 -0.00535041
O 3.52258272 19.23947318 31.69549362 -0.00004002 -0.00196358 0.00392298
O 7.68304076 14.59813619 26.02878950 0.00083794 0.00017644 -0.00022657
O 9.36234827 9.32843750 27.01331781 -0.00289791 -0.00150017 -0.00149738
O 7.31360098 27.64858203 2.55263820 -0.00053031 0.00295774 0.00015690
O 8.70703909 22.99141489 3.77833644 -0.00250348 0.00143139 0.00035672
O 11.32414559 20.32844885 9.64898201 0.00448668 -0.00071328 -0.00537885
O 10.17807020 24.99612634 8.27896088 -0.00205575 -0.00047821 -0.00207444
O 8.12172274 24.12043388 9.81094584 -0.00469787 0.00257328 0.00049120
O 6.45061723 0.30761096 8.13429247 -0.00393476 0.00383111 0.00186022
O 10.77865259 23.98770288 2.44619114 0.00000843 0.00345379 -0.00077888
O 12.39360550 19.42987705 3.81749740 0.00520861 0.00052395 -0.00229217
O 5.97227110 28.36692692 14.13088375 0.00306762 -0.00879689 -0.00073352
O 7.29918085 23.18882816 15.51609148 0.00832497 -0.00173806 0.00174232
O 9.82323323 20.31070423 21.52199171 -0.00161388 0.00328479 -0.00381936
O 8.66465772 25.43282852 20.27800394 0.00345852 0.00587002 0.00405696
O 6.66925800 24.23294007 21.35155450 -0.00238493 0.00075014 0.00108272
O 5.06371565 0.44470770 20.30021514 0.00279959 -0.00139610 0.00122931
O 9.32870810 24.16964571 14.29236080 -0.00059302 -0.00030856 0.00097435
O 10.97465387 19.26149490 15.52027181 -0.00419626 0.00540176 -0.00128414
O 4.38270990 27.82060599 26.02499674 0.00067823 0.00837185 -0.00102277
O 5.49282131 23.14569803 27.04594969 -0.00249164 0.00037786 -0.00014517
O 8.13865884 20.26445018 33.24820293 0.00370407 -0.00391243 0.00412445
O 6.96845139 25.16472644 31.96994603 -0.00213020 -0.00335437 -0.00039807
O 5.15430894 23.94151877 33.42240363 0.00454930 -0.00186975 0.00022733
O 3.35048724 0.33381720 31.99765562 -0.00173383 0.00332775 0.00403157
O 7.64574523 24.04075660 25.91848264 0.00450036 -0.00307189 0.00022299
O 9.10770088 19.50395120 27.11431360 0.00451953 0.00081513 -0.00788801
O 14.58420975 8.52750154 2.36773405 0.00051838 0.00167324 -0.00341246
O 15.57417193 3.43809725 3.51441973 -0.00291480 0.00059518 -0.00178328
O 18.23453515 1.52374032 9.25321634 0.00148418 -0.00102690 -0.00088355
O 17.03613101 5.57435746 8.18270365 0.00232305 0.00401161 -0.00096504
O 14.92946737 5.05409915 9.46731214 -0.00167459 0.00245546 -0.00273195
O 13.51593300 9.86519639 8.34884103 0.00412932 -0.00084405 0.00211970
O 17.82695595 4.29526850 2.67983199 0.00315818 -0.00138803 0.00339326
O 19.07064119 28.48416300 3.65438841 0.00047438 0.00134480 -0.00030886
O 12.94868354 8.65696139 14.23278389 -0.00030698 -0.00193651 -0.00133388
O 13.83758070 3.88364544 15.12876798 0.00836498 0.00420251 0.00038613
O 16.72915019 1.28594728 21.24014460 -0.00077580 0.00110205 0.00263688
O 15.47481176 6.01552014 20.10140092 -0.00227118 0.00559034 0.00662897
O 13.33657680 4.87794288 21.18191374 0.00390244 0.00206787 0.00337490
O 11.94613591 9.89265717 20.00557588 0.00808406 0.00294541 -0.00082560
O 16.02663037 4.70741398 14.16685643 -0.00083091 -0.00379678 0.00135186
O 17.71020754 0.03027917 15.14386335 0.00086987 0.00285909 -0.00472700
O 11.57843734 8.50333390 25.87703402 -0.00584179 0.00147202 -0.00744579
O 12.24709889 4.09861563 27.42302292 0.00139780 0.00380756 -0.00198295
O 14.83853325 0.82734786 33.36118494 0.00229515 -0.00198229 -0.00569771
O 13.77362203 5.90218828 31.89630125 -0.00003399 0.00416181 -0.00454853
O 11.85855009 4.75796051 32.99613913 0.00168428 -0.00227968 -0.00663973
O 10.37431552 9.73326270 31.92759968 0.00075298 0.00575283 0.00024860
O 14.80398152 4.50240086 26.38986224 -0.00167098 0.00021408 -0.00085807
O 15.89643513 0.13162501 27.40764976 -0.00297085 -0.00111584 0.00116248
O 14.47485047 18.09848452 2.76353901 -0.00066668 -0.00602195 -0.00053636
O 15.59559697 13.45510777 3.85647767 0.00196005 0.00220023 -0.00465374
O 18.34766266 10.74703815 9.69498247 0.00262617 -0.00172130 -0.00156370
O 17.02576856 15.55848674 8.57414795 -0.00142624 0.00297475 -0.00003576
O 15.23443025 14.19139807 9.75905015 -0.00469078 0.00697438 0.00145305
O 13.31191258 19.25535101 8.38003550 -0.00411308 -0.00166770 0.00174808
O 17.65171453 14.44685097 2.37052435 0.00503694 -0.00157042 -0.00281959
O 19.17966773 9.28275229 3.62862844 -0.00291933 -0.00614863 0.00401980
O 13.21305385 18.28810578 14.30090051 0.00154428 -0.00030223 -0.00131921
O 13.88043510 13.75441807 15.33058051 -0.00012427 0.00112262 -0.00167612
O 16.80709970 11.10158892 21.31780847 -0.00157291 -0.00031058 -0.00443861
O 15.32598922 15.69655327 20.43063354 -0.00441446 -0.00398400 0.00060672
O 13.38836756 14.45375004 21.68256576 -0.00120666 0.00139383 0.00232353
O 11.83025685 19.63451015 20.03497382 -0.00388094 0.00723194 0.00653525
O 16.24524588 14.26878457 14.49721973 0.00084749 0.00040093 0.00400485
O 17.75096535 9.42978160 15.33493387 0.00303469 -0.00626253 0.00472549
O 11.22583688 18.43673111 26.19952292 0.00400192 0.00603310 0.00358934
O 12.48096408 13.46306427 27.35298890 0.00058106 0.00345601 0.00327879
O 15.19720795 10.81370431 33.02862853 -0.00119790 0.00332876 0.00349275
O 14.09167310 15.57392100 31.95028064 0.00045645 0.00121682 -0.00168769
O 11.97172911 14.71292556 33.22125265 0.00668700 0.00181064 -0.00281940
O 10.17646256 19.47432008 32.01262849 0.00076217 -0.00322646 0.00015622
O 14.45373691 14.72315940 26.05972083 -0.00233878 0.00175721 0.00486809
O 16.32882908 9.70808880 27.36542134 -0.00347291 0.00007025 0.00118492
O 14.46545336 27.99853167 2.27147008 -0.00100531 0.00498166 0.00472407
O 15.45245055 22.90348036 3.58688168 -0.00284816 0.00327920 0.00047178
O 18.33798089 20.61867528 9.35629012 -0.00231406 0.00360507 -0.00427354
O 16.84937898 24.97010330 8.45613158 -0.00294962 -0.00471530 -0.00181894
O 14.87570587 24.14052188 9.65916196 -0.00485386 0.00008586 -0.00406176
O 13.21265336 29.03308877 8.30253097 -0.00114562 -0.00400701 -0.00291299
O 17.67049227 24.00633686 2.35161972 -0.00273815 0.00209043 -0.00165317
O 19.17727302 19.19324369 3.74711065 0.00055168 -0.00116660 -0.00490599
O 12.90805117 28.14371473 14.30714866 -0.00058435 0.00205742 0.00083989
O 13.96215421 23.26665145 15.39998315 0.00646384 -0.00346857 -0.00014616
O 16.71348211 20.71232577 21.24672965 -0.00055467 -0.00049120 -0.00110741
O 15.76177502 25.36175309 19.99758359 0.00261438 -0.00232544 0.00366015
O 13.55201002 24.65382122 21.16729107 0.00517961 0.00150549 0.00069784
O 12.10407064 0.15752603 20.00221580 -0.00226716 0.00179230 0.00675378
O 16.07670319 24.08784469 14.18240526 -0.00364726 -0.00511616 0.00263162
O 17.70628237 19.23786033 15.70334947 -0.00002744 -0.00359706 0.00601608
O 11.19990092 28.33841209 25.88726286 0.00630867 -0.00652019 0.00696970
O 12.38109068 23.19859843 27.31632640 0.00254879 0.00232384 0.00397825
O 15.01428071 20.39125172 33.20178253 -0.00291476 -0.00070025 -0.00454905
O 13.83013412 25.18410013 32.05772197 0.00055483 -0.00161163 -0.00289217
O 11.75492801 24.20895470 33.28335003 0.00639983 -0.00590832 -0.00184234
O 10.24160475 0.03413237 31.88343507 0.00385200 -0.00337811 -0.00135663
O 14.58575437 24.03426608 26.02047075 -0.00361857 -0.00148966 -0.00365405
O 16.16233641 19.39570105 27.47884346 0.00031487 -0.00570288 0.00129324
H 20.19209434 8.98110366 2.49471029 0.01262500 -0.01495978 0.01494704
H 2.68872712 3.97227923 3.50998330 0.02768506 -0.00811968 -0.00419685
H 5.54638645 0.85124655 9.17283023 0.00278260 0.01197304 0.01998564
H 2.39160205 5.48136417 8.69700318 -0.00068418 0.01783827 0.00915314
H 5.63202697 8.35358271 0.74645302 -0.00111871 -0.00169602 -0.02620778
H 4.05960452 2.84220476 5.17182196 -0.02121970 -0.01209597 0.04356902
H -0.47442945 1.64356603 11.03782784 -0.00668665 0.00018166 -0.01215594
H 1.20608402 6.29582858 6.48478510 0.01056975 -0.01038244 0.01246030
H 4.02404103 6.72683417 10.77368773 0.00126316 -0.01142837 -0.00732446
H 3.90178277 1.53780812 7.06811568 0.02841069 -0.00680199 0.00472579
H 1.19820641 2.82798883 1.20404037 -0.00737125 0.00402395 0.00647349
H 1.29083053 7.94285474 4.61705656 0.00675421 -0.00018534 0.03125564
H -2.01193476 5.36401646 35.27051856 0.01075503 0.01543946 0.02352163
H -0.04985048 0.22048389 6.07770487 -0.04886006 0.02416245 -0.03059147
H 2.40727137 4.22242364 12.10298182 0.00356374 -0.01227862 -0.01382159
H 5.25652909 9.10821297 5.86698063 0.00547172 -0.01130335 0.02006730
H 2.67249873 7.02964757 1.52107380 -0.01356133 -0.01800799 -0.00508654
H -0.14363825 2.02718273 4.35255173 0.00857039 0.00307175 -0.01351248
H 2.45726458 2.67583676 10.11608520 -0.01978723 -0.01792927 0.01830694
H 5.07330237 7.53357759 7.81020809 -0.00856728 0.01937770 0.00499778
H 4.79345949 5.07521527 9.78285860 -0.01079594 0.00336765 -0.00765114
H 2.71890482 0.07555681 8.39430705 -0.00146109 0.01012127 -0.00670630
H 0.40939779 4.67470042 2.17096030 0.01967188 0.00708491 -0.00895170
H 2.30028047 9.56624266 3.60718341 0.01929400 0.01335412 -0.00426040
H 6.38415794 2.68172521 8.76801488 -0.00052578 0.00042594 0.00446736
H 0.05100238 8.81670811 10.12028454 0.00208999 0.00542820 0.01043138
H -0.29923182 5.31104262 4.43626840 0.02774220 0.00055926 -0.01931614
H 4.44943896 0.59320744 1.24710574 0.02248492 -0.02201280 -0.02817515
H 19.42295183 3.55107887 8.03531779 -0.00264242 0.00182115 -0.00608486
H 1.79431062 9.01843888 10.20458473 0.01504709 0.02039862 -0.01206701
H 4.81523741 6.16558014 4.66119201 -0.02475114 0.01169819 0.03339719
H 2.82358768 0.92161730 1.89921145 0.02105311 0.01803353 0.00281811
H 0.46281258 2.77642737 8.35835789 0.02386326 0.00548667 0.00093332
H 1.14618874 7.62954879 9.31218070 0.00798428 0.00717317 -0.02427951
H 6.45040695 5.26359635 4.62021755 -0.00745556 0.00402810 0.00835657
H 4.24960968 1.94723276 2.22411912 0.01766785 -0.01978282 0.01524804
H -1.64818546 9.17737170 14.38031998 0.03349832 0.00571924 -0.03716730
H 1.05054244 4.41913986 15.07844718 -0.01459026 0.01866118 0.01117427
H 3.80839870 0.83728219 21.09034203 -0.02069461 0.00738704 -0.01089127
H 1.10739283 5.73358627 20.38121382 0.00888126 -0.00703638 0.00040399
H 3.92255353 8.25779329 12.77704496 -0.01217748 -0.01987823 -0.02231020
H 2.20869992 3.62873125 17.12935522 0.01960741 0.03432500 -0.00014243
H -1.82410355 1.28654339 23.07208263 0.00451716 0.01511870 -0.00381991
H -0.18288488 6.31805098 18.24722675 -0.02242181 -0.00238554 -0.00998095
H 2.22463955 6.53965082 22.50861219 -0.01196772 0.00634119 -0.00226756
H 2.11118019 2.07611581 19.01521917 -0.01185811 -0.00030592 -0.01242226
H -0.37640612 3.27360558 12.86833068 0.02452336 -0.00614660 -0.00206752
H -0.20107869 8.07403896 16.68253061 0.01843372 0.01406412 -0.00863592
H 1.14651575 5.65263962 11.70939915 0.00806381 0.00973722 -0.01358578
H -1.69471029 0.64551234 17.98258070 0.00224345 0.01192228 0.00649271
H 1.06387022 4.23624095 24.12048145 0.02839002 -0.01681024 -0.01373604
H 4.00610398 9.07397505 17.57302273 0.05297770 0.02121083 0.01581329
H 1.08749974 7.18626149 13.64177865 -0.00763379 0.00234010 -0.00051241
H -1.68611647 2.31722558 15.99856121 -0.02272292 -0.01292481 -0.00253317
H 0.85432815 2.77294167 22.25073358 0.00324779 0.01408279 -0.03301982
H 3.92017975 7.50508925 19.45755768 -0.02498017 -0.00421262 0.02185277
H 3.38187435 5.01806011 21.14831723 0.01101038 0.01401563 0.00449004
H 1.34148059 0.28407194 19.96515200 0.01434758 -0.00609779 -0.00868545
H -1.42085543 5.00342643 14.14516551 0.00071418 0.01072856 0.01261907
H 0.91727482 10.08593488 15.64032305 -0.00592494 0.01883910 -0.02223001
H 6.10501127 3.95267193 18.97549005 0.00026100 -0.00820694 -0.03685089
H -0.32613853 7.82547354 21.48948457 0.00194752 -0.00342362 -0.00709867
H 17.44748719 7.11631717 15.19589290 -0.00638162 0.02843891 0.01950354
H 1.19788657 1.47050022 14.04634695 0.01674937 -0.01147850 -0.01713258
H -1.02045294 3.50277955 19.54670107 -0.00958173 -0.01725204 0.03717215
H -1.12574672 9.12556919 22.35116313 0.01327509 -0.01059387 0.01087600
H 4.77535413 5.77332041 16.00759505 0.01281746 -0.00074021 -0.00347824
H 2.84101585 2.23620278 14.19291983 0.01005314 0.00733268 0.01417109
H 17.83661154 3.42309624 19.89154106 0.00081049 -0.00908124 -0.02546962
H 0.62888359 9.29540479 21.97287892 -0.00588626 -0.00670684 -0.00828559
H 3.75922458 7.08052409 15.19575585 -0.02033160 0.02248501 -0.01711258
H 2.75033871 0.88850541 13.01666338 0.00726320 -0.01202537 0.00815380
H -3.17182665 8.75878890 26.69880132 -0.03597954 -0.01068499 -0.02012708
H -0.40914306 4.13384745 27.13670710 -0.02069644 0.00602226 0.01333553
H 2.15116361 0.95591123 32.83287323 -0.01308308 -0.00011918 -0.01969562
H -0.65389823 5.53734982 32.27116884 -0.01176938 0.03383307 0.00000761
H 2.29837007 8.17790171 24.28242907 0.00657374 0.00562431 0.01335056
H 0.58635178 3.35347182 29.11923337 0.01738585 0.01039441 0.02568673
H -3.69786063 1.22241155 34.95528056 0.02503166 -0.00971119 0.00188636
H -1.70177732 6.29710915 30.29931397 0.01742978 0.00476788 0.01493596
H 0.87792883 6.69991648 34.45880693 0.02246111 0.00071942 0.01275989
H 0.54272577 1.59089720 30.85430531 0.00838565 -0.01316466 -0.01593338
H -1.77177320 3.04764403 24.85969047 -0.00083957 0.01425316 -0.00063105
H -1.54595545 7.85834511 28.25386092 -0.01885497 0.01301890 0.01080795
H -0.44569797 5.33292298 23.50349130 -0.01031335 0.02066404 -0.01208482
H -3.53099543 0.56945197 29.68545831 0.01838350 0.00536291 -0.00227017
H 3.94857063 4.36491949 0.25265964 -0.01302633 -0.00300959 0.00243525
H 2.23221855 9.14385838 29.47435646 -0.01218658 -0.00319582 0.04410850
H -0.39208399 6.90723089 25.54506603 0.00815642 -0.00534181 0.01663396
H -3.36667010 2.23129934 27.83802107 -0.00900350 -0.00254098 -0.01415499
H -0.91710622 2.43142981 34.14789295 -0.00172243 -0.00960240 -0.00128480
H 2.41289209 7.30954770 31.07434169 -0.01276248 -0.01480165 -0.00544368
H 1.67852243 5.13555078 33.42747004 0.00286992 0.01000369 -0.01640475
H -0.49946359 28.83436078 31.64187907 0.02708202 0.00558309 0.02104814
H -2.61745091 4.42814215 26.05483393 -0.02449535 -0.00837676 -0.01221396
H -0.82588388 9.65387191 27.55407569 -0.02710426 0.00218294 0.01644846
H 3.75663450 3.12271657 31.41932406 0.01410822 -0.02001092 -0.01202355
H -1.01951410 7.89911355 32.77045499 -0.00337920 -0.00427589 -0.00966444
H -3.22413262 6.13540853 27.45571874 0.00270313 0.01585441 0.01133346
H 0.43377554 1.99756081 26.03227420 -0.00547827 0.02256050 0.01422990
H 16.27532051 2.92491905 32.07685325 0.01089257 -0.00480859 -0.00747424
H -2.87636613 7.52435483 32.97457206 -0.01114879 0.00151937 0.00808554
H 1.44152835 5.90076895 28.31802017 0.01527390 -0.01078951 -0.01747663
H 1.30734915 0.97220650 24.83101338 -0.02208541 0.02203522 0.01559165
H -2.56228513 2.66013657 31.81995607 -0.01650629 0.00298642 0.00330391
H -2.02926118 8.56989365 34.07384130 -0.01016748 -0.00451614 -0.01684525
H 3.20950671 5.57020178 28.01967765 -0.02537983 0.01668411 0.00452291
H -0.41452929 0.60496452 25.38657488 -0.01671688 0.02228580 -0.00900838
H -0.06163176 18.72694959 2.73031493 -0.02584719 0.00076837 -0.02820242
H 2.97267427 13.86825436 3.07799528 -0.01127859 0.00966787 -0.01182271
H 5.47036064 10.35806765 9.19729887 0.02716610 0.01773253 0.00497323
H 2.73257382 15.34896820 8.89686459 0.00862878 -0.01481105 0.00858159
H 5.57345539 18.03629750 0.76573097 -0.00426440 -0.00766133 0.02235981
H 4.06811877 12.83736972 5.05452977 -0.02292802 0.00836020 0.00978476
H -0.11137415 11.24287196 11.15709718 0.00352455 -0.02480684 0.00068982
H 1.68981741 15.73806708 6.72429864 0.02314666 -0.00027469 -0.00326891
H 3.92610780 16.20750631 11.01245663 -0.01028275 0.00098385 -0.02288147
H 3.93940593 11.42861419 7.03557498 -0.00189000 -0.01672114 -0.00977864
H 1.25086942 12.56096301 1.21044428 -0.02553422 0.01852374 -0.02068102
H 1.62132764 17.08035358 4.71441730 0.00969970 -0.00191601 -0.01723334
H -1.94642579 15.17763700 35.36557901 0.00277415 0.01531200 0.00328050
H -0.02031188 10.31713096 5.81799390 -0.02461677 -0.00965014 -0.01995631
H 2.65463674 13.94942289 12.04864305 0.01269078 0.00498726 0.00374411
H 5.49783996 18.73942607 5.78945501 0.00886062 0.00137200 -0.03256857
H 2.76446959 16.92486303 1.60148834 -0.02375329 0.00545327 0.01034252
H -0.02947340 12.10256781 4.09476420 -0.01397425 -0.03021319 -0.01196518
H 2.66406610 12.23547700 10.19014242 -0.00149422 -0.01316467 0.00679306
H 5.49610743 17.45092283 7.77559324 -0.02578949 0.00754410 0.01448963
H 4.87210464 14.88753755 9.55218052 -0.03628257 -0.00761337 0.01604332
H 2.70263715 9.90955943 8.34651160 0.02502982 -0.00303635 0.01184061
H 0.23569537 14.65011445 2.14488742 0.05118390 -0.01191428 0.02449700
H 2.37779217 18.96039831 3.46191900 -0.03246936 0.01611380 -0.01150182
H 7.72831805 13.18132810 7.67213731 -0.00384191 0.00672706 -0.01150236
H 0.77021411 18.47167411 10.54339752 0.02248303 0.01510205 -0.01368496
H 18.33946376 15.54868668 4.42289167 0.01778799 -0.01027681 0.01373718
H 3.55430087 10.39722150 1.30634088 0.04520247 0.01836979 0.01087155
H -0.25329085 13.75317387 7.48182149 -0.00718740 -0.00982028 0.02309095
H 2.48222387 18.07031014 9.84983344 -0.01713862 0.01997985 -0.00431614
H 5.66096203 16.60275818 3.41630613 -0.01211354 0.03847967 -0.00036205
H 3.48970444 11.69803807 2.50927517 0.01026922 0.02074414 -0.00321781
H -1.06996666 12.69945781 8.66917021 0.01700192 0.00665743 0.01107972
H 1.03603770 16.96065130 9.45643379 0.01107821 0.03470188 -0.00336090
H 4.81245939 15.46531911 4.43022623 0.00421132 0.00300995 0.00972968
H 5.06093244 11.18003994 1.82498579 -0.00284621 -0.02075027 0.00856969
H -1.75140326 18.71524767 14.56068135 0.03579865 -0.03253081 -0.00946455
H 1.23253953 13.86369624 15.09883310 0.01853376 0.01600741 -0.00285032
H 3.58239060 10.53933406 20.67466470 -0.00770159 0.00224765 0.00243552
H 0.88645473 15.38546796 20.36639299 0.01384874 0.00587063 -0.00620713
H 4.12575167 18.02213124 12.66513122 0.01662262 0.00135550 0.01214842
H 2.21490205 13.43711809 17.23594034 -0.00811744 0.02464670 0.00579510
H -1.78918412 11.44275121 22.89305138 -0.02837117 0.00609076 0.01496967
H 0.05716517 15.64887251 18.45778685 -0.02768321 -0.00104543 -0.01674743
H 2.45046723 16.63792262 22.70820348 -0.00756984 -0.00344095 0.00015304
H 2.28058425 11.84709251 18.86842642 0.00301273 0.00536853 0.03738924
H -0.15295461 12.81047513 13.05743674 0.01015674 -0.00436574 0.02362034
H -0.24089440 17.48475450 16.56988472 -0.01841994 0.00163101 -0.02319561
H 1.14277484 15.44705966 11.51734842 -0.03957040 0.00897547 0.02908030
H -1.91410990 10.83521051 17.97403178 0.00789282 -0.01735836 0.00052864
H 0.82327369 14.08300370 23.44669599 0.01166120 -0.00678393 -0.00478143
H 3.76082204 18.54791110 17.39384048 -0.00232885 -0.00893831 -0.01764853
H 1.24662996 17.14148344 13.34146338 -0.01981386 0.02335692 0.00501557
H -1.79270656 12.43945714 16.25074967 -0.00340548 0.00102168 0.00216554
H 0.91183304 12.51052499 21.57598914 0.01734901 0.01755333 -0.00469086
H 3.98343426 16.89169441 19.28626422 -0.02315849 -0.00771946 -0.01347569
H 3.38183938 14.67326775 21.63680836 0.03401452 0.00679918 -0.00823533
H 1.16803598 9.77736311 19.76703149 0.02932746 0.01563743 0.00691989
H -1.19384336 14.52888119 14.26850118 0.01046629 0.02933400 0.02829306
H 0.69163427 19.12194331 15.43420139 0.06583893 0.01874348 0.02865119
H 5.22544428 12.84025272 20.04214157 0.00832328 -0.00005418 -0.00356517
H 1.13423526 18.45910559 21.40476275 -0.02100314 0.02292438 -0.00984934
H -2.00066729 16.32974235 15.52218406 0.01549164 0.02816229 -0.01980968
H 2.00565452 10.15126338 13.20958700 0.00369262 0.00981380 0.01059168
H -2.53769022 12.93654612 20.03469592 0.01156605 0.02426488 0.01874646
H -0.42677256 17.61490025 21.63001492 -0.01593860 0.03298243 0.01913512
H 3.19004516 16.74577299 15.15959185 -0.01706551 0.00609079 0.01169206
H 2.13323224 11.86383420 13.92451453 -0.01412940 -0.01086475 -0.00821216
H -0.82927034 13.37984254 19.36516571 -0.00416515 -0.00196514 0.01301675
H -0.08249108 19.30617900 22.46682443 0.01233537 -0.00150949 -0.00847773
H 3.58877499 15.58849344 16.47903721 0.01240376 -0.03099858 0.01782959
H 3.61664416 10.84613537 13.21112375 -0.00316125 0.00121782 -0.00076577
H -3.13850841 18.74462284 26.42205072 0.00788327 0.02385668 -0.00034668
H -0.51212440 13.91218133 26.72811786 0.01841591 -0.02912884 0.01749302
H 2.12536500 10.18720991 32.84380467 -0.00000571 -0.00556555 -0.00549506
H -0.47901513 15.19473481 32.42859558 0.01787097 -0.03133213 -0.01467626
H 2.41797330 18.06425287 24.66600662 0.01888254 -0.00440087 0.00669996
H 0.57364881 13.30699750 28.98761936 -0.00217409 -0.00814730 -0.00475437
H -3.34755932 11.26368957 34.87185278 0.02957417 -0.00871176 -0.02503377
H -1.71834515 16.13974714 30.42962502 -0.01159441 -0.00745134 -0.01882758
H 0.94396822 16.47473695 34.25095113 0.02550611 -0.00648174 -0.00999582
H 0.70987114 11.58775354 30.73376169 -0.01164041 0.00060208 0.01077967
H -1.82243915 12.98964383 24.89867472 0.00085286 -0.01727593 -0.00430762
H -1.62048440 17.64708022 28.45422631 -0.00324418 0.00129431 0.00420914
H -0.41981519 15.18543661 23.53801298 0.04232185 -0.01969044 -0.02203518
H -3.37007018 10.44245191 30.02420196 0.02309165 0.01543059 -0.00696732
H 4.28915293 14.17297398 0.03467798 0.02945914 -0.01571881 -0.00781580
H 2.42238002 18.60693587 29.38059434 -0.00663772 -0.01405702 -0.00484092
H -0.31833524 16.92868617 25.23509875 0.00000499 0.00406150 -0.00363794
H -3.33188356 11.96946249 27.96497904 0.03218662 -0.01770144 -0.00497970
H -0.53123724 12.26145491 33.87505407 -0.00846728 0.02297112 -0.00701301