1920
Time=58000.00000005 pbc="T T T" Lattice="23.81092134 0.00000000 0.00000000 0.00000000 30.56911048 0.00000000 0.00000000 0.00000000 27.40584732" energy=-12188.41411984 virial="-98.27281873 -4.50883867 56.08303686 -4.50883867 -69.35464691 -6.44044793 56.08303686 -6.44044793 -95.06301963" stress="-0.00135467 -0.00017977 0.00275878 -0.00017977 0.00039264 -0.00022196 0.00275878 -0.00022196 -0.00119768" Properties=species:S:1:pos:R:3:vel:R:3
O 10.19560197 5.76474552 12.61679713 0.00348709 -0.00976050 -0.00008630
O 7.95991567 4.35829457 7.99534811 -0.00141301 0.00127934 -0.01118910
O 22.15787701 20.56894333 24.44731735 -0.00000040 -0.00958096 -0.01318236
O 4.68186060 7.55715697 5.23863486 -0.00575243 -0.00117072 -0.00425579
O 2.02335962 10.55181220 7.39386615 0.00032674 0.00334825 -0.00786623
O 23.12748922 16.77934939 24.35468206 -0.00324217 0.00202440 0.00392785
O 7.74062216 19.52266080 18.68637589 0.00096958 -0.00725993 -0.00736468
O 5.95116008 29.56726666 3.60303038 0.01300801 0.00062855 0.00545226
O 7.50217663 1.31115674 13.14704636 -0.00837352 -0.00230719 0.00301014
O 4.16572343 4.61321150 13.07891254 0.00367399 0.00505962 0.00580850
O 17.29627749 18.70937250 0.72873567 -0.00321978 -0.00557268 -0.00062626
O 13.20465403 9.67731636 20.79422101 -0.00008269 -0.00429152 -0.00227274
O 18.08484450 15.59403525 2.44336636 0.00063269 -0.00077645 0.00519745
O 2.69240129 21.11912736 20.80788534 -0.00357040 -0.00707355 0.00241239
O 6.46926032 23.46965293 13.87188805 0.00766017 0.00625388 -0.00213011
O 13.96536860 12.14912635 7.61430531 0.00131341 0.00397291 0.00765134
O 4.61811943 5.67030210 16.82457982 -0.00628010 0.00045164 0.00276388
O 9.89122954 5.27262492 26.08579409 0.00561292 0.00065114 -0.00297251
O 2.43748239 5.95779875 25.19901889 -0.00347192 0.00131526 0.00393916
O 12.00975547 8.87156914 14.66521281 0.00078817 0.00167183 -0.00408501
O 0.57756463 15.02032964 6.72534729 -0.00124590 -0.01000229 0.00734689
O 5.27923573 10.42893076 9.27826826 0.00242043 -0.00366649 -0.00200560
O 12.37041025 19.82041467 24.34684445 -0.00249830 0.00224856 0.00104193
O 10.08012831 8.27718786 12.81607193 0.00187689 -0.01069375 0.00558878
O 15.07250412 1.85013404 12.96378765 0.00825462 0.00553981 -0.00297296
O 6.92760731 10.67830353 26.88723035 -0.00060693 0.00010563 0.00751114
O 0.60073275 11.58670910 27.28579049 0.00046445 0.00238169 -0.00309596
O 23.05879798 6.88054378 10.66950198 -0.00168023 -0.00078389 0.00112122
O 2.00180567 14.33955133 11.96695950 0.00701548 0.00596582 0.00464740
O 3.81501228 10.38161357 15.27618628 -0.00799427 -0.00239383 -0.00240119
O 8.59311347 24.24521241 21.43180549 -0.00191444 0.00324029 -0.00012635
O 0.64933529 2.82148265 6.90738632 -0.00406518 -0.00142125 0.00592692
O 7.20210410 24.79151252 8.45505489 -0.00163198 -0.00154421 -0.00000464
O 22.52367175 29.03783738 8.27172914 -0.00182193 0.00527492 -0.00175299
O 6.28587200 27.12737775 9.00935215 -0.00111733 -0.00833198 -0.00214950
O 4.83680357 21.33578244 12.57006502 -0.00300711 0.00758588 -0.00032757
O 2.08334948 3.72689632 11.67313974 -0.00155558 -0.00101380 0.00027424
O 18.77464731 29.39469536 0.04146723 -0.00557050 -0.00231485 -0.00644399
O 6.79692013 22.52103546 25.29910351 -0.00258016 -0.00301479 -0.00783784
O 5.19822653 0.42128189 25.68597205 0.00083553 0.00443938 -0.00006453
O 23.68652542 22.59917230 19.75079262 -0.00800700 0.00566565 -0.00708271
O 2.35782430 24.38881043 6.26868360 0.00187432 -0.00578898 0.00110401
O 7.52472332 2.23122370 6.71148008 -0.00535173 0.00365606 -0.00228786
O 1.98291243 23.92758489 0.64871331 0.00197836 0.00428191 0.00635739
O 8.59990158 8.19984853 21.24336078 0.00131330 0.00530076 -0.00194975
O 20.76025261 27.46435209 5.72567678 0.00435777 -0.00871392 -0.00056716
O 4.77522874 28.60140305 25.41897192 0.00253814 -0.00214786 -0.00093626
O 18.20242772 27.42193339 19.15063877 -0.00252593 -0.00652116 0.00038270
O 18.60155777 21.34603135 23.38641808 0.00132137 0.00673761 -0.00006078
O 21.34452023 26.61885273 25.42455076 0.00095476 -0.00648627 0.00026819
O 15.63583030 28.53998463 19.77824712 0.00513256 0.00101054 0.00440305
O 6.33739089 27.10689170 3.69763512 -0.00519298 -0.00336214 0.00590982
O 9.05179157 1.78437588 21.51739541 -0.00581785 -0.00787502 -0.00424567
O 23.79848357 22.59612860 23.64358902 -0.00022328 -0.00790871 0.00143588
O 5.80575187 14.03469334 17.06810583 0.00316871 0.00433659 0.00162708
O 18.67604028 27.05391089 25.64361106 -0.00235000 -0.00525927 -0.00886556
O 10.34505876 20.98655781 11.93835539 0.00588139 0.00018148 0.00555310
O 0.60155365 29.63943485 2.38435254 0.00160945 -0.00505889 0.00523869
O 12.94641565 24.53337809 15.38550357 0.00401205 -0.00029802 0.00354150
O 1.02294768 17.11254030 15.17048573 0.00423301 0.00263918 -0.00188915
O 23.48502919 28.33054959 12.92372695 0.00416282 -0.00317839 -0.00222090
O 2.43556626 27.69619515 21.09288600 0.01125226 -0.00176382 0.00146068
O 4.55134178 15.45553629 9.96571678 0.00578180 0.00825897 0.00953322
O 1.41991724 5.11589922 0.05261195 -0.00165951 0.00532484 -0.00201871
O 5.84953177 15.28997398 25.90117146 -0.00970303 0.00212888 0.01370014
O 7.58331412 7.55780619 7.20474939 -0.00092719 0.00237659 0.00563610
O 11.35402666 5.73481391 23.80053958 0.00569484 -0.00008228 0.00361752
O 8.68266023 13.91884764 12.72361310 -0.00091858 0.00371932 -0.00079810
O 10.09522575 11.94498665 3.86333035 -0.00018823 -0.00837802 -0.00306259
O 16.17010654 15.70750763 6.32376679 -0.00205095 0.00110369 -0.00375747
O 14.07652154 7.63334606 10.56471755 -0.00521131 0.00435428 -0.00444470
O 17.57980927 14.78000751 16.65778904 -0.00460299 -0.00527187 0.00720949
O 19.84954619 29.31855623 15.17680813 0.00451500 0.00110965 0.00046874
O 9.60175676 5.23641723 1.50049446 -0.00510910 -0.00267077 0.00561932
O 17.00058463 4.57636119 21.94247634 0.00369411 -0.00281946 -0.00328885
O 5.20749417 10.59863040 2.71154026 0.00321707 -0.00229642 -0.00199280
O 6.48488973 17.67871142 26.36299768 -0.00605291 -0.01153149 -0.00468401
O 20.14346234 10.88495944 5.81421838 -0.00330169 0.00404640 -0.00246985
O 17.93128539 2.58595085 9.98199224 -0.00157007 -0.00156491 0.00254830
O 23.45191785 7.88356875 1.45165824 0.00245284 -0.00387739 0.00084904
O 17.80348276 2.00232183 21.90407866 -0.00264815 -0.01257238 -0.00181759
O 3.63542934 8.85632519 20.97615626 0.00346103 0.00424348 0.00137179
O 7.45462056 12.20677521 16.91746525 -0.00663557 -0.00469919 0.00246700
O 3.24374531 4.63184241 1.74858197 -0.00211936 0.00162819 -0.00201820
O 5.40195457 20.91417663 20.85629651 0.00660146 0.00626849 0.00581023
O 12.68956969 28.66931678 14.54125874 -0.00246779 -0.00142772 0.00441405
O 3.90604109 24.39348844 20.26408835 0.00688338 0.00113182 0.00118015
O 17.97506129 8.29531152 25.38585345 -0.00031786 -0.00260811 0.00327152
O 4.23640001 11.39595312 21.15353393 -0.00133819 0.00009272 -0.00445424
O 8.38849936 5.67051812 18.38096935 -0.00578422 -0.00672551 0.00281738
O 11.52433576 13.06617736 23.23779977 -0.00813670 0.00001623 -0.00498049
O 11.82786460 11.93065935 17.82098523 -0.00073414 -0.00250503 0.00187664
O 15.70852819 9.17645022 26.54146470 -0.00198235 0.00068283 0.00008541
O 14.30451673 3.31336161 18.21932561 0.00201388 -0.00001482 -0.00216143
O 9.35752516 26.36620868 17.85998190 -0.00271976 -0.00191905 -0.00320893
O 16.00170778 9.36501961 11.39277718 -0.00080531 0.00307935 0.00086252
O 8.29928978 14.37859493 25.79477507 0.00720688 -0.00862999 -0.00884822
O 11.12996323 14.87837963 9.84960124 0.00391542 -0.00569253 -0.00452649
O 16.43230941 5.09148271 2.03779494 0.00061642 -0.00212270 -0.00274515
O 7.56090233 14.88847110 6.60421634 -0.00182535 -0.00163739 -0.00606677
O 13.77335044 2.34044523 8.54587848 -0.00194244 -0.00560512 0.01004108
O 18.15485409 17.93340650 14.84766861 0.00075436 0.00951001 -0.00241293
O 8.04200526 18.44556292 12.87938533 -0.00703009 -0.00073297 -0.00439005
O 9.66704232 16.72215757 5.98387095 0.00033049 -0.00843842 0.00959957
O 19.94575676 19.11255078 19.03318958 -0.00454665 -0.00234085 0.00693311
O 7.41217762 10.03969585 7.85337992 0.00539018 0.00323971 0.00088230
O 12.27959310 3.39256760 6.37927251 -0.00987659 0.01205312 -0.00274268
O 11.46946524 1.53052880 22.31730329 0.00007985 -0.00472488 -0.00367565
O 3.88380507 0.61747121 20.94181480 0.00257548 -0.00412856 -0.00743308
O 12.13768763 19.68371061 16.00128865 -0.00331175 -0.00137891 -0.00368562
O 5.69315200 18.22672630 5.48464028 0.00307414 -0.00227511 0.00570553
O 13.90549812 17.39385750 20.05472323 -0.00005151 -0.00001128 0.00427177
O 19.64862796 13.54739479 22.20306922 -0.00386431 -0.00013087 0.00589846
O 21.92729506 7.04199433 12.99917225 0.00284930 0.00208976 -0.00165809
O 14.17854178 24.02879788 13.16661579 0.00137964 -0.00605054 0.00248859
O 8.73781243 28.08528494 26.46796955 -0.00006759 0.00107115 0.01023166
O 10.73251602 30.25721293 17.73536286 0.00376250 -0.00889663 -0.00072521
O 17.45550155 22.68948343 25.22442764 0.01317702 -0.00177324 0.00529694
O 12.81246856 15.40002054 18.95908669 -0.00038446 0.00280064 -0.00411301
O 15.50277869 21.95400834 23.90342075 -0.00924960 0.00409656 0.00126353
O 10.83848017 15.23565654 4.18633689 -0.00196742 0.01293534 -0.00331015
O 2.35816139 4.39741667 16.73452612 -0.00101510 -0.00018713 0.00335138
O 16.32043156 27.58349087 8.30778609 0.00381161 -0.00020557 -0.00473316
O 1.55254026 12.51631821 2.15159267 -0.00202275 -0.01184228 0.00282673
O 10.96468350 28.46336628 12.48045126 0.00391818 -0.00739091 -0.00130063
O 14.85737311 24.06532083 3.26339576 -0.00297440 0.00568844 0.00693332
O 9.67012481 16.41913997 13.43069605 -0.00411014 -0.00538450 -0.00712766
O 6.99823720 22.24943830 5.03624309 -0.00485439 0.00068379 0.00484501
O 22.56916531 1.13602277 8.01961997 -0.00154993 -0.00044743 -0.00569935
O 1.24966328 11.90826448 12.14498640 -0.00299674 -0.00533517 0.00429451
O 7.12545051 2.10632058 25.50877306 -0.00455903 0.00553296 0.00401918
O 22.05368182 12.33357157 0.16158286 -0.00909478 -0.00547206 0.00930938
O 13.67426639 14.21643530 9.17437995 0.00371911 -0.00191406 0.00615552
O 5.72625601 18.02531740 2.84164639 -0.00811009 0.00340146 0.00202113
O 21.17377624 8.58418071 6.34853280 -0.00662484 0.00274787 -0.00238502
O 17.87155173 6.01817925 4.90291794 -0.00702830 -0.00034882 -0.00032000
O 3.20839739 24.97915610 17.04167462 0.00289083 -0.00272185 -0.00276361
O 1.57198084 8.21998770 17.17542597 -0.00062085 0.00109870 -0.00298205
O 10.67165433 29.94845513 4.06590401 0.00451876 0.00865436 0.00139946
O 19.85690785 13.24975600 24.80697094 -0.00298133 -0.00576714 0.00564171
O 21.97888639 5.77531187 19.25498395 -0.00670222 -0.00044259 -0.00402677
O 0.57826769 17.05213262 26.69568468 -0.00039848 -0.01083206 0.00030778
O 19.32313356 5.22061958 11.47661159 0.00459680 -0.00808146 -0.00962684
O 1.21309645 14.91713710 19.89367833 -0.00207049 -0.00722839 -0.00154279
O 4.91238394 0.15706160 14.73228752 -0.00073885 0.00246639 0.00061109
O 11.97806496 15.66913551 23.43775875 -0.00084762 0.00142739 0.00733445
O 17.56699880 0.09511468 23.73978270 -0.00247233 -0.00349809 -0.00299334
O 15.57152554 9.29135355 22.03705860 -0.00354616 0.00062094 -0.00172638
O 21.01572788 11.73721506 20.87271225 0.00608889 -0.00064998 -0.00872734
O 1.47865778 0.57467867 21.58410180 -0.01056424 -0.00520710 0.00259457
O 2.28001476 17.12738833 6.61537467 0.01074028 -0.00178697 0.00104721
O 22.80887680 9.61145968 24.49587197 0.00322328 -0.00497352 -0.00281066
O 22.14751882 2.38990206 14.17107205 0.00313849 -0.00728357 -0.00092364
O 7.42865852 17.11267716 19.30521684 0.00027103 0.00500710 0.00280231
O 13.09364644 25.96792751 23.37080879 -0.00901355 -0.00878691 -0.00476605
O 19.14935419 8.18501317 4.53662906 -0.00811438 -0.00220317 0.00832449
O 19.47638544 16.12890426 10.22182121 0.00533708 -0.00137119 -0.00555729
O 22.64929512 7.32993655 23.31241334 -0.00736156 0.00914925 0.00046675
O 1.58972607 21.81280357 10.90623612 0.00133594 0.00503053 -0.00465382
O 22.07147081 30.22330757 2.97067544 -0.00595362 -0.00565652 0.00192748
O 16.39357236 17.83567694 8.21081857 -0.00881463 -0.00843059 -0.00484354
O 16.33270136 22.23868793 13.64853872 0.00878901 0.00008342 -0.00280740
O 14.08723641 29.50580980 4.38248398 0.00423916 -0.01047453 -0.01049650
O 16.31629146 0.43782501 10.75089434 0.00156769 -0.00130931 0.00878998
O 23.29711135 26.16340567 11.53976356 -0.00231616 -0.00660332 0.00556302
O 4.75529211 21.44741086 4.15576618 -0.00774860 0.00059197 0.00633247
O 16.12008004 12.07573192 27.01145144 0.00362350 -0.00492852 -0.00736316
O 10.39693117 26.56900464 0.28535448 0.00814455 -0.00313877 0.00322146
O 21.51689805 13.88031830 15.06889511 0.00318171 0.00487698 -0.00038497
O 22.07813464 18.97372650 10.10874196 0.00143938 -0.00284412 -0.00342932
O 13.74996003 2.63546546 26.84130054 -0.00090865 0.00419109 0.00295673
O 23.40138896 18.67933063 3.25733331 -0.00142331 0.00378933 0.01257096
O 21.60447308 2.66799787 24.24005745 -0.00125138 0.00570880 -0.00132395
O 1.92447433 20.93945635 24.39108810 -0.00239533 -0.00292298 -0.00168455
O 13.64015002 19.23258577 26.45548737 -0.00277594 0.00304720 -0.00357088
O 20.08241573 18.40352488 16.55046347 -0.00328253 -0.00174255 -0.01248575
O 19.56296785 11.79813373 9.35571853 0.00304561 -0.00570252 -0.00147406
O 14.41547601 22.03920609 8.41439312 -0.00604548 0.00220542 0.00026948
O 17.46960656 22.65387658 15.86978092 -0.00169948 0.00589177 0.00371629
O 21.17441639 25.09228522 6.78881285 0.00411150 -0.00020857 -0.00243993
O 16.27175256 3.36075538 0.23716383 0.00084239 -0.00225342 -0.00054343
O 1.72301977 23.26526012 13.10759919 -0.00074744 0.00596372 0.00056699
O 16.63973074 4.03579761 17.51798961 0.00246636 -0.00183773 0.00996496
O 22.10312684 24.39502460 15.58825245 -0.00471273 -0.00954137 0.00213444
O 17.29430142 23.06889745 5.39286105 -0.00096962 -0.00099123 -0.00701577
O 12.00303296 27.87193194 4.82431173 0.00507303 0.00324737 0.00040580
O 12.35451111 24.68261352 21.36103712 0.00254998 -0.00387534 -0.00007659
O 19.77814861 25.80929144 15.29284400 -0.00276681 -0.00880603 -0.00243074
O 16.56691887 22.97709058 9.58137557 0.00595357 0.00635425 -0.00185698
O 5.77163053 27.94744057 11.41663286 0.00220921 -0.00056417 -0.00489014
O 18.12833579 10.36781097 17.46511470 -0.00100453 0.00083525 -0.00121088
O 12.29746552 20.87310410 0.60048356 0.00117707 0.00324073 0.00099254
N 11.64139835 22.15997484 10.48648369 0.00375491 0.00067295 -0.00524025
N 5.37977459 6.40818343 12.54367901 -0.00392286 0.00480458 -0.00346003
N 8.57102680 0.38202840 5.77885219 -0.00445157 0.00743116 -0.00057899
N 1.29947777 6.79843057 9.69727385 -0.00462450 -0.00059708 -0.00600723
N 0.09882441 29.94033681 14.46043706 0.00621033 -0.00446381 -0.00312518
N 0.98647740 19.93808418 19.74832997 -0.00588475 -0.00194623 -0.00043730
N 3.96655913 27.17694839 23.77125615 -0.00366972 -0.00456861 0.00160936
N 2.15869827 1.19671128 6.93469571 0.00352162 -0.00391268 0.00267531
N 22.29991705 24.21787210 20.37013579 -0.00189695 0.00437897 -0.00238655
N 5.60540824 8.82046032 26.31877199 0.00770903 0.00490898 -0.00556431
N 12.05475132 25.14228601 17.38008189 0.00903870 -0.00149011 0.00115560
N 11.34458719 8.64241701 20.17381184 0.00146147 -0.00719206 -0.00773738
N 6.90769787 6.93060664 22.24963408 -0.00087740 -0.00480485 -0.00225561
N 5.92583249 9.66252386 14.82875806 -0.00213204 0.00541179 -0.00537791
N 5.25639496 16.06230038 12.06954481 0.00251578 -0.00299595 0.00549520
N 12.61876891 10.54191087 8.32076863 0.00112913 -0.00033831 -0.00796829
N 14.84000287 3.59248021 14.53185140 0.00351789 -0.00133929 0.00057542
N 3.36123242 25.89044134 7.64058058 0.00444188 0.00278779 0.00388019
N 18.42336005 20.68253672 1.19859736 -0.00277469 -0.00479780 -0.00349797
N 2.71319962 17.97569699 16.38271576 0.00649156 0.00474102 0.00057201
N 0.28168238 14.70348448 10.56289203 -0.00031224 -0.01065182 0.00132094
N 18.70974958 28.54424546 5.59893355 -0.00067870 -0.00199102 -0.00724451
N 8.56466361 22.53896006 14.12206663 -0.00508887 -0.00360675 0.00609061
N 0.79871566 2.89350196 0.34196374 -0.00214394 0.00206644 -0.00109923
N 8.43228250 3.43225512 13.50993285 0.00210501 0.00384488 -0.00337390
N 1.04875540 27.43022896 2.31148284 0.00448151 0.00041145 0.00697119
N 1.78568554 11.53692583 25.30816232 0.00138707 -0.00003668 -0.00140646
N 2.81053339 25.78230685 27.03847746 -0.02162698 -0.00131630 -0.00158867
N 20.25445375 15.09207740 3.07060304 -0.00088929 -0.01130172 -0.00176391
N 0.20368486 27.56702264 21.22472860 -0.00326184 0.00087466 0.00455909
N 9.42497001 24.47839679 23.59246036 -0.00252993 0.00376668 -0.00105696
N 20.08541669 28.06760364 20.32821431 0.00299175 -0.00367867 0.00082589
N 12.06504265 14.53368938 2.34858728 -0.00051549 -0.00240255 0.00177939
N 10.80652999 6.62587499 2.82049206 -0.00059573 -0.00891440 -0.00062614
N 12.68259595 5.64989460 6.13268094 -0.00756845 0.00562930 0.00006709
N 12.89613101 12.23503625 15.91020138 -0.00658991 -0.00735736 0.00718700
N 9.96415493 29.42107524 10.66412135 0.00100410 0.00063899 -0.00020305
N 21.02640162 12.86032955 6.41867651 -0.00673597 0.00185140 0.00552048
N 6.13105668 17.70262576 7.57159058 -0.00833649 0.00487710 0.00333810
N 16.55927754 11.04787961 12.77124941 0.00984310 0.00616192 -0.00265729
N 18.59306365 18.94940956 20.82239628 -0.00858860 0.00400558 -0.00556564
N 6.58962045 4.51317006 19.34080993 -0.00414787 -0.00591229 0.00557302
N 14.42574497 28.07038247 9.42015498 0.00562144 0.00598861 0.00937819
N 6.66460617 9.01054758 2.05365720 -0.00335805 0.00747548 -0.00119480
N 5.61335186 0.33897164 19.68420282 -0.00045795 -0.00187348 0.00703649
N 12.50736236 3.08565024 16.89260025 -0.01156844 0.00327734 -0.00682084
N 11.89708334 16.49295415 13.58568932 0.00409980 0.00067896 0.00452485
N 21.43696234 7.18026604 2.11937487 0.00457817 -0.00093420 -0.01064896
N 3.57850094 13.60810667 20.95510632 0.00451110 0.01134717 0.00021274
N 8.58987005 11.43252112 6.54932959 -0.00409658 0.00337168 0.00322415
N 16.83201190 5.73054766 23.91271616 0.00873013 0.00267051 -0.00566861
N 3.42643959 13.44899066 3.09579688 0.00439456 -0.00411069 0.00061689
N 14.39436810 9.68147740 0.95394961 0.00432128 -0.00339002 -0.00157989
N 13.70024306 19.56976525 17.71112491 -0.00040547 0.00068085 -0.00394379
N 17.31566340 3.86661721 8.13154377 0.00345471 0.00156785 -0.00042331
N 9.07006756 22.20015155 6.07926268 0.00362462 0.00304478 -0.00175216
N 18.54399750 29.80435900 16.98324892 0.00673859 -0.00163422 -0.00009108
N 0.16198980 4.65030481 17.56423744 0.00359364 0.00615147 -0.00372344
N 10.03563465 12.15787534 21.68738946 0.00648080 0.00420604 0.00541275
N 12.19562064 29.97257331 22.53869355 -0.00170508 -0.00245455 -0.00635921
N 8.05356521 18.88624728 25.22517191 0.00377571 -0.01036969 -0.01294737
N 16.38681994 25.53396976 2.46222509 0.00014532 0.00708744 -0.00033189
N 7.56248754 27.72121641 17.82700749 -0.00153859 -0.00093306 0.00937164
N 15.30035183 16.93294502 21.84400000 -0.00694509 0.00271103 0.01239599
N 18.78132616 21.48890502 4.85248854 -0.00933779 -0.00375300 -0.00213781
N 0.53144182 10.25711203 17.38436007 -0.00360591 -0.00201909 -0.00816762
N 13.50316071 0.38840572 26.45432044 0.00781438 0.00088051 0.00032330
N 18.22489809 10.00227614 3.46452667 -0.00132983 0.00892101 -0.00628382
N 18.34866399 23.68871731 10.72532818 0.00718276 0.00224944 -0.00333093
N 0.42575538 16.82676425 1.52571381 0.00360007 0.00065132 -0.00309566
N 14.59982028 17.31738951 27.10214128 0.00169567 -0.00654805 0.01121191
N 20.56664730 1.44554060 3.36230552 -0.00703481 0.00270276 0.00522249
N 21.52014437 11.62179714 14.50388757 -0.00221746 0.00327634 -0.00179814
N 6.89170015 17.05164711 21.55268691 -0.00352259 0.00041256 -0.00179239
N 13.40443279 23.66057954 19.66252847 0.00297430 0.00614578 -0.00158314
N 17.63587245 13.69750693 24.70439827 -0.00175588 0.00489887 -0.00289522
N 21.45890776 1.47752620 26.31089324 0.00037048 0.00302323 0.00829598
N 23.56816460 5.69991271 22.06618352 -0.00163233 0.00575348 -0.00086838
N 17.52442311 9.27201874 19.35641541 0.00852324 0.01300186 -0.00861683
N 23.68529084 14.41050386 21.72363142 0.00227796 0.00897347 -0.00429433
N 21.27214984 3.86189417 12.68363054 0.00931329 0.00795512 0.00636008
N 19.94227745 19.64323951 10.43420933 0.00418023 0.00170491 0.01920224
N 10.54707179 0.53841627 2.05931821 0.00016311 0.00125845 -0.00500867
N 19.11431259 27.04587591 13.59083067 0.00232941 0.00151539 -0.00116993
N 18.02821400 16.99230323 11.66270751 0.00320491 0.00062603 0.00807533
N 2.84092170 21.31519077 26.29304431 -0.00528269 0.00525273 -0.00675049
N 18.17922359 7.03638336 10.81148934 -0.00934790 0.00084396 0.00315493
N 10.56717791 21.28050755 2.01164487 -0.00669525 0.00316437 0.00221580
N 4.73026160 25.25657920 15.46768299 0.00695396 -0.00164715 0.00216919
N 11.66542937 25.71185614 5.37955595 0.00213564 -0.00782967 0.00051253
N 14.44837995 26.27552688 25.18543398 0.00787421 0.00094499 -0.00327731
N 23.11720157 20.18565253 4.89994169 -0.00198016 -0.00297075 0.00006342
N 19.85219469 6.32524916 20.16999427 0.00086566 -0.00744856 0.00476226
N 3.81460692 28.28817242 12.64865381 0.00592505 0.00046170 0.00288141
N 1.55711133 22.20963248 8.63387239 0.00412555 -0.01293461 -0.00655458
N 22.35547627 18.89955156 16.19870643 0.00141410 -0.00325157 0.00047921
C 12.90658834 3.37318255 13.03679927 -0.00122896 -0.00110225 -0.00088699
C 7.18136270 6.50369165 10.82130739 -0.00772440 -0.00554117 0.00590621
C 19.27381443 19.60056714 26.65663468 -0.00978492 -0.00229511 0.00014215
C 3.49815517 7.08006567 8.63166632 0.00096425 -0.00710200 -0.00780048
C 2.09012892 13.62279859 9.16956152 -0.00050687 0.00211313 -0.00820721
C 1.35391104 19.16454030 22.11349890 -0.01219448 0.01087109 0.00157418
C 8.48995975 20.32817591 15.16635128 0.00406258 0.00319651 0.00078826
C 3.48427748 1.38963787 4.86484012 -0.00188553 0.00509156 -0.00165095
C 11.74390658 3.97616156 12.54712318 -0.00170470 -0.00919578 -0.00616654
C 7.76941131 6.04554006 9.65242019 0.00062925 -0.00388447 -0.00546285
C 20.35494609 19.52167062 25.76133153 -0.00485535 0.00033600 0.00671223
C 4.38808525 7.15755671 7.60027139 -0.00001108 0.00133497 0.00254556
C 2.42567360 12.61054721 8.38033100 0.00606344 -0.00312467 -0.00323402
C 0.97276026 18.45281882 23.25275656 0.00213772 -0.00692954 0.00669302
C 8.30636160 19.48817146 16.27919022 0.00467631 0.00314675 -0.00261537
C 4.47515012 0.84857697 3.99859450 0.00549622 0.00028281 -0.00969189
C 11.36707326 5.23282293 12.99909362 -0.00426577 -0.00310929 -0.00741710
C 7.33115404 4.89163672 8.99960094 0.00612368 -0.00969650 -0.00125114
C 21.14601618 20.67411472 25.44246748 0.00108483 -0.01092380 0.00738449
C 3.86150349 7.49970935 6.34416845 -0.00560611 0.00519041 0.01099328
C 1.51609716 11.60683063 8.01397127 0.00361908 0.01526381 0.01040582
C 23.58542479 17.60647940 23.22936046 0.00676042 -0.00254694 0.00100724
C 7.74870269 20.13021437 17.46577650 -0.00495959 0.00011759 -0.00765567
C 5.02987414 30.17734759 4.31943524 -0.00089689 0.00958079 0.00108889
C 12.18491427 5.93038327 13.87167989 -0.00237799 0.01117634 -0.00155126
C 6.19952443 4.16759506 9.60932201 -0.00081472 -0.00549909 -0.00492285
C 21.15323404 21.78351848 26.32542807 0.00897453 -0.00287456 0.00099729
C 2.45570100 7.84363763 6.26861000 -0.00009392 0.00327390 0.00191510
C 0.18805188 11.81595117 8.45005137 0.00891800 0.00932847 0.00344915
C 22.81376034 17.62354506 22.10583867 0.01157739 -0.00254541 0.00061881
C 7.20350278 21.36712661 17.42439172 -0.01142430 -0.00962364 0.00007664
C 4.58414731 29.49710336 5.47027405 -0.01192737 0.00607882 0.00089452
C 13.27008728 5.35254905 14.34186549 -0.00565154 0.00137036 0.01186926
C 5.69194671 4.59450523 10.83841331 0.00882581 0.00085665 -0.01067158
C 20.34901024 21.73346247 0.00560414 -0.00159566 0.00838067 -0.00588062
C 1.54072351 7.59891939 7.31914714 0.00641853 -0.00363004 0.00210700
C 23.58275404 12.87395491 9.18205033 -0.00149566 0.01306708 0.00113875
C 23.19950753 18.38630705 20.95807496 -0.00174230 -0.00248484 0.00424962
C 7.57419098 22.19151895 16.36141230 -0.00303361 -0.00584660 -0.00850503
C 3.77534108 30.12100915 6.32317827 0.00203578 -0.00776502 0.01260902
C 13.63652443 4.09804843 13.92653970 -0.01043282 0.00280207 -0.00209801
C 6.16255161 5.74457439 11.47694427 0.00237527 0.00467300 0.00971059
C 19.36725326 20.61554774 0.16944266 -0.00194552 -0.00661229 -0.00292795
C 2.03606394 7.21352524 8.59587148 -0.00445069 -0.01615130 0.00187043
C 0.75389310 13.70714552 9.61274758 0.00441738 -0.00046319 -0.00091891
C 0.60151485 19.11211450 20.93862895 -0.00040341 -0.00237988 -0.00239897
C 8.21057272 21.69330419 15.24008705 0.00485659 -0.00456626 0.00095378
C 3.14658563 0.72413159 6.03481828 -0.00782448 -0.00693887 -0.01231170
C 15.46659728 2.45482235 13.93991473 -0.00133222 -0.00337083 -0.00337812
C 4.27888200 5.83706600 13.12699996 -0.00114057 0.00000980 0.00551728
C 17.50423950 19.69753071 1.52526770 0.00020532 0.00450981 0.00249477
C 0.02082989 7.32387154 9.86364171 0.00054661 0.00225159 -0.00664505
C 1.04699843 15.05272530 11.60562056 0.00466736 -0.00042092 -0.01169865
C 2.00219445 20.85121987 19.82099703 0.00583989 -0.00873043 0.00492714
C 7.64493763 23.57708817 13.72509527 -0.00247944 0.00540241 0.00029597
C 1.78808686 2.53472241 7.07549786 -0.00115875 -0.01060549 -0.00522884
C 0.13294412 24.72792576 18.63644042 0.00020081 0.00836329 -0.00471152
C 3.36656949 6.73057483 13.88452722 -0.00530112 -0.00444041 0.01289852
C 9.23834393 2.51266579 5.00959063 0.00005267 -0.00793044 -0.00115560
C 11.68930312 8.70901813 22.58321777 -0.00055507 0.00784563 -0.00571886
C 6.90618541 9.39082969 22.28729919 0.00204123 -0.01063958 0.00128494
C 2.16753850 21.62303208 18.63177638 0.00686858 -0.00858435 0.00151503
C 2.73379604 29.05522967 24.30424197 0.00432774 0.00153491 -0.00260248
C 15.00181827 10.56323047 8.97172805 -0.00251976 -0.00353584 -0.00596674
C 7.77714119 5.05833241 15.20770018 0.00169555 0.00703561 0.00578475
C 6.51444758 6.65720762 26.01497191 0.00593481 -0.00804416 0.00167431
C 2.56552898 9.49361734 24.19967726 -0.00472092 0.01220247 0.00850734
C 12.66519461 9.13428363 18.21886028 -0.00523607 -0.00265162 0.00857913
C 22.57764821 14.31377442 3.62695916 -0.00091582 -0.00555572 -0.00931452
C 6.79856313 10.25033720 12.56930608 0.00103074 -0.00434247 0.00441963
C 10.57782838 22.61017526 22.64688848 -0.00227527 0.00120704 0.00185377
C 12.54504998 10.46489078 10.81748900 0.00018438 0.00497230 -0.00086731
C 6.81419986 5.64167627 15.97601534 -0.00663145 -0.00048323 0.00801472
C 7.57398115 5.73102353 26.01542589 0.00670928 0.01543064 -0.00775199
C 2.77340312 8.13391144 24.23563296 -0.00199876 -0.00055439 -0.00458459
C 12.88238524 9.18517404 16.82529615 0.00646660 -0.01124009 0.00207623
C 23.55021636 14.34025652 4.55650664 0.00489723 0.00484166 0.00405957
C 6.64572085 10.23744511 11.17464267 0.00371438 -0.00494857 -0.00618778
C 11.36876308 21.42307003 22.83125633 -0.00781286 0.00227515 0.00352827
C 11.69875765 9.98808094 11.92750665 0.00832586 0.01648598 -0.00467315
C 5.59169848 5.02091621 16.07885765 0.00271637 0.00093865 -0.00247596
C 8.95756612 6.09544950 26.02656230 -0.00249052 0.00604161 0.00558794
C 2.19215013 7.31371128 25.19885284 0.00284307 -0.00084979 -0.00135781
C 11.91548196 8.69209188 15.89039065 -0.00172688 -0.00135845 -0.00178078
C 23.51797180 15.17966969 5.74228694 0.01003068 0.00081839 0.00591769
C 5.35318116 10.31452932 10.58575855 -0.00605489 0.00405614 0.00186426
C 11.61839756 20.95828661 24.10255949 0.00012134 0.00777981 0.01193489
C 10.86913211 8.86663699 11.71055862 0.00342064 0.00164521 0.00479085
C 5.44317543 3.72162036 15.68401207 -0.00221627 -0.00316122 0.01159432
C 9.11239343 7.46655478 25.97722281 -0.00114586 -0.00178090 -0.00023826
C 1.43921206 7.98119751 26.30622193 -0.00649313 -0.01152657 0.00072817
C 10.76598943 8.03476426 16.55137251 -0.00374435 0.00627194 -0.00718940
C 22.44449158 16.16310224 5.75093804 -0.00398938 0.00000886 0.00858512
C 4.24180464 10.32235714 11.45488774 0.00385938 -0.01228433 -0.00075462
C 11.08770963 21.68436978 25.16755758 0.00317666 -0.00020021 -0.00493640
C 10.82541557 8.27214568 10.51954397 0.01088334 -0.00547748 0.00249344
C 6.36383203 3.17795150 14.77755136 -0.00258046 -0.00634191 0.00101022
C 8.06978919 8.36797814 26.12003726 0.00222654 0.00247053 0.00547246
C 1.43414544 9.29767340 26.33651451 0.00440693 -0.00278000 -0.00828086
C 10.62640086 7.97141281 17.89893625 -0.00762419 -0.00222014 -0.00373760
C 21.35299845 16.08996335 4.92838283 -0.00521280 -0.00228982 0.00442926
C 4.42656774 9.96045998 12.83732299 -0.00203677 -0.00418970 0.00373920
C 10.16267883 22.64119634 25.02933213 -0.00621950 -0.00625172 0.00007900
C 11.44595080 8.75457417 9.36516330 -0.00340247 -0.00106864 0.00287866
C 7.49669211 3.84925577 14.46710541 -0.00249174 0.00040216 -0.00915127
C 6.76917762 8.01472315 26.16797910 0.00849440 -0.00668909 -0.00620839
C 1.91465842 10.13129178 25.27281211 -0.00990113 0.00559977 -0.00801294
C 11.56543943 8.55002898 18.78804818 -0.00155803 0.00568540 -0.00800276
C 21.40064276 15.20249000 3.84327973 0.00223088 -0.00110574 0.00755136
C 5.70112722 10.04773766 13.39480813 -0.00093944 -0.01185183 0.00539906
C 10.01857642 23.24816803 23.71899511 -0.00577381 -0.01122519 -0.01812567
C 12.26341874 9.81040595 9.56661162 0.00723841 -0.00191665 -0.00210977
C 8.25642265 2.28038218 12.80566961 0.00348977 0.00420885 -0.01059074
C 5.80438955 10.16040203 26.74934110 -0.00014931 -0.00050137 0.00210775
C 1.24089035 12.16378954 26.35205926 -0.00576340 -0.00360367 0.00757609
C 12.16768944 9.04132382 21.13358749 0.00662995 0.00693357 -0.00436142
C 19.17308673 15.98775740 2.85154659 -0.00305934 -0.00509708 -0.00244490
C 4.80742421 9.57977519 15.55945493 0.00050788 0.00419246 -0.00196487
C 8.80243479 24.97419134 22.37895107 0.00113768 0.00280772 -0.00596276
C 13.85243316 11.10140620 8.25049058 0.00302641 0.00487097 -0.00273811
C 12.62958261 21.30076130 12.50884438 -0.00151699 -0.00200935 0.00091107
C 4.54750233 10.92561765 26.92918179 -0.00365296 0.00148624 -0.00094510
C 10.95844651 23.44386018 15.92570848 -0.00245756 0.00979831 0.00154413
C 23.42536150 8.60613323 9.10020899 -0.00445631 -0.00365211 -0.00531721
C 22.94749004 27.70052522 15.09362880 0.00580797 0.00146910 -0.00773631