1920
Time=60000.00000005 pbc="T T T" Lattice="22.96537139 0.00000000 0.00000000 0.00000000 30.61401296 0.00000000 0.00000000 0.00000000 27.99565151" energy=-12191.79301816 virial="-48.95488735 26.85289798 -3.49611286 26.85289798 -85.56820206 23.77818161 -3.49611286 23.77818161 -12.91282541" stress="0.00129845 0.00150723 -0.00005122 0.00150723 -0.00027031 0.00124478 -0.00005122 0.00124478 0.00302861" Properties=species:S:1:pos:R:3:vel:R:3
O 10.56569412 6.50662108 12.83877198 0.00433821 -0.00544597 -0.00047695
O 8.76188791 3.90528607 9.32391581 0.00671170 0.01080499 0.01018570
O 21.80526493 19.75646442 24.58570545 0.00075549 0.00148879 -0.00152231
O 5.36646424 8.17786087 5.51087225 0.00895008 0.00629526 -0.00089171
O 5.10178529 11.77899943 8.09799457 0.00369890 -0.00369917 -0.00166036
O 22.48956432 16.54118465 24.53652575 0.00297284 -0.00178741 0.00301546
O 6.60039643 19.02573116 18.61912726 -0.00061819 -0.00303212 0.00966306
O 6.92619787 29.34490498 3.46985736 -0.00226066 -0.00092484 -0.00524752
O 6.36664055 1.62986164 14.32531465 -0.00447954 -0.01340928 0.00447498
O 3.46928072 5.04591047 13.19522767 -0.00513761 -0.00427222 -0.00157363
O 16.38910643 18.97125133 27.87425190 0.00077442 0.01007463 0.00625694
O 12.19243705 8.71141797 20.89330735 -0.00311950 -0.00597195 0.00163694
O 17.80147876 15.71896005 4.05014871 -0.00304767 -0.01245826 0.00188627
O 2.77127159 19.03447575 19.56682059 -0.00379127 0.00380227 0.00167169
O 5.63199433 23.18037049 14.31046617 -0.00125210 0.00978358 0.00041842
O 14.23277900 13.26413176 7.74514081 0.00465035 -0.00744571 0.00301572
O 5.07598911 7.11943573 17.14838462 0.00034742 -0.00335870 -0.00233500
O 9.28776238 5.40056738 26.26996144 0.00206077 -0.00448555 -0.00305620
O 2.64364145 6.38588180 25.95065343 -0.00473175 0.00134892 0.00985505
O 12.26347647 9.55310545 14.57835605 -0.00250999 0.00300156 -0.00357660
O 1.30117655 14.91296311 6.46338570 -0.00202155 0.00535352 0.00725366
O 5.93654380 9.93202690 9.70182015 0.00273569 0.00040393 0.00548657
O 11.70488930 20.35116285 25.06962371 -0.00003623 0.00421700 0.00102529
O 10.76993101 9.22136955 12.58418621 0.00257466 -0.00348667 0.00527627
O 14.16958237 1.41091532 14.33359203 0.00131127 0.00494512 0.00359629
O 6.72518807 11.06740195 26.69571506 -0.00041812 0.00723115 -0.00242239
O 0.66919244 11.69874428 0.73685245 -0.00273605 0.00524239 -0.00315926
O 22.76599836 6.87141362 10.29005880 -0.00203525 0.00210642 0.01144613
O 1.40473289 14.81734412 11.88858763 -0.00176772 0.00624453 0.00012579
O 3.55756304 10.46442050 15.49146475 -0.00281590 0.00312602 -0.00244806
O 9.68469016 25.31998325 21.68682166 -0.00382496 -0.00004561 0.00584217
O 2.55697476 3.92276868 6.56238906 -0.00192489 -0.00750184 0.00005782
O 7.04157124 24.86157493 8.95515617 -0.00146499 0.00159362 0.00184131
O 0.11114579 30.39564174 6.42104791 -0.00037147 0.00534401 -0.00506009
O 5.67782816 26.81126113 9.52693147 0.00344104 -0.00200846 -0.00052872
O 4.15440427 20.93228328 13.48269912 0.00042678 0.00451437 -0.00275490
O 3.23993111 2.55002698 12.19996252 -0.00477045 0.00223655 -0.00368963
O 17.95424205 29.11404812 27.62800992 -0.00074175 -0.00541479 -0.00277283
O 6.15344496 23.01774039 25.52697990 0.00334035 0.00330084 0.00147901
O 6.09622018 0.30597171 25.10339434 0.00268195 0.00459803 0.00743046
O 22.38835626 22.72906357 19.64986261 0.00614633 0.00448497 0.00088092
O 2.48005937 24.22057320 6.71253610 -0.00835949 -0.00102236 0.00281929
O 7.31633115 2.15288022 7.94818641 0.00113444 -0.00922600 -0.00275218
O 1.54269299 23.46113423 1.17832792 -0.00134765 -0.00267685 -0.00215854
O 7.65096885 8.31454291 22.83683387 0.00288070 0.00096221 -0.00890482
O 20.01700763 27.12399615 5.25354725 0.00915370 0.00131809 -0.00065343
O 4.44247513 29.04262097 24.30035096 -0.00444887 -0.00602418 0.00417025
O 17.20551600 28.20351639 20.04703808 0.00296512 -0.00127410 0.00367146
O 18.24753061 20.63943527 24.06676420 0.00692009 0.00436414 -0.00792300
O 20.32878421 25.45180031 26.54866204 0.00618980 -0.00044684 -0.00025656
O 14.49482952 28.05793845 20.45178990 -0.00504429 0.00728937 0.00987093
O 6.19346538 27.04832830 3.93533812 -0.00076451 0.00100247 0.00198115
O 7.86219970 2.11704675 22.01902859 -0.00917356 -0.00236136 0.00236549
O 0.47718714 21.43911977 23.13188703 -0.00058036 0.00467666 -0.00718504
O 4.85984028 14.35231217 18.77220513 -0.00437953 0.00284867 0.00804052
O 19.43562703 27.56294737 25.78354218 -0.00886731 0.00779111 0.00094738
O 9.78677429 20.66354216 12.29399623 -0.00353886 0.00267573 -0.00141607
O 1.13421332 30.15617840 1.21355295 0.00116538 -0.00221302 -0.00630720
O 12.55128496 24.43926770 15.47133074 -0.00672257 0.00183999 0.00250952
O 0.07112048 17.06688990 16.25859287 0.00026587 -0.00089824 0.00081176
O 22.13873908 28.04394136 12.78913335 0.00564871 -0.00287954 -0.00200531
O 1.50719917 26.62172326 19.28216214 0.00706162 0.00767691 0.00682189
O 3.55648949 16.79699759 11.70396876 0.00313639 0.00694068 0.00440687
O 1.74790833 4.36951787 27.18156797 -0.00407794 0.00035563 0.00065823
O 5.76156828 15.39846800 26.41808632 -0.00468216 -0.00307116 -0.00349704
O 8.63424889 7.97987788 8.00578656 0.00272688 -0.00678057 0.00064709
O 11.21997410 6.37970406 24.86906548 0.00334442 -0.00296019 -0.00190044
O 7.17667446 13.35033318 14.23183983 -0.00064107 0.00097812 0.00323156
O 8.54356763 12.45096818 3.95211277 0.00701087 0.00307896 0.01051880
O 15.79987407 15.64366522 6.67138104 -0.00047658 0.00204950 -0.00083869
O 13.98220522 7.30803869 11.47926225 0.00108665 0.00244806 0.00519030
O 15.20374088 14.88044000 16.42451289 -0.00012819 0.00918376 0.00160564
O 20.47457370 30.43370024 16.11898482 0.00215608 0.00412377 0.00129058
O 9.28812030 4.73471260 2.55050947 0.00580755 -0.00615735 0.00474562
O 16.80374965 4.30993102 22.43299370 -0.00368064 -0.00762244 -0.00096129
O 4.92659635 7.93424004 3.05212645 -0.00291306 0.00144921 0.00378629
O 5.98061463 17.90795168 26.11728954 -0.00210239 0.00648256 -0.00509696
O 19.72895660 10.43507736 6.02547288 -0.00164502 -0.00356871 0.00167103
O 17.09276250 2.15539788 9.47908193 0.00680411 0.00063900 -0.00907154
O 22.18123217 8.08338325 0.91219826 0.00433670 -0.00237256 0.00714432
O 15.76959772 1.98682766 21.91586082 0.00232565 0.00385888 0.00421024
O 2.43136833 8.95422665 21.30420996 0.00095733 -0.00583400 0.00343020
O 6.17952792 12.15026664 19.59869904 -0.00022647 -0.00755537 0.00842789
O 2.10403697 2.30077210 3.25360714 0.00096874 0.00321441 -0.00798912
O 4.36695151 21.01876991 20.53980673 -0.00187571 0.00231134 -0.00080409
O 12.26217913 28.84270009 14.75512105 -0.00034157 0.00081674 -0.00210637
O 4.99745670 23.48717416 21.08260985 -0.00070736 -0.00240724 0.00151298
O 16.12445382 8.36743813 27.07387719 0.00011410 -0.00149727 0.00716374
O 3.67753560 11.31219824 21.95681227 0.00463274 0.00639552 -0.00064029
O 7.99579757 6.87241508 19.33932184 -0.00241015 -0.00290875 0.01092240
O 10.92647528 13.84230618 25.47360157 0.00883550 0.00257393 0.00119580
O 10.53570870 12.26750719 19.95508700 0.00293437 -0.00028444 0.00067183
O 13.72918516 8.63276473 27.97334135 -0.00526661 -0.00608027 0.00357825
O 13.55374395 3.18718100 18.69842679 -0.00089733 0.00048261 0.00150652
O 8.79609548 27.11176357 17.01118010 -0.00346049 0.00054671 0.00123146
O 15.47848357 9.35219657 11.08798862 0.00298816 0.00481741 0.00153522
O 7.09442445 14.30703052 0.49837918 0.00306511 -0.00662313 0.00396704
O 11.08921566 15.03059441 11.33487035 0.00365153 0.00006096 0.00843437
O 14.50006622 5.91748861 1.61919139 0.00291058 0.00207844 -0.00007542
O 7.83962764 16.00570623 6.75878453 -0.00839241 0.00176284 0.00359199
O 13.35340424 2.21480091 9.07699537 0.00318279 0.00470203 0.00040965
O 16.92770316 18.40677017 15.62982136 -0.01159835 0.00983954 -0.00058909
O 6.98803709 18.24991650 13.01199096 0.00173362 0.00091017 0.00566995
O 9.74440675 17.54658899 6.24731364 -0.00739747 0.00392858 0.00257874
O 18.14849792 18.10286498 19.80117336 -0.01053670 0.00154094 0.00200186
O 8.25921911 10.50721027 8.50930938 -0.00434762 -0.00196221 -0.00574453
O 12.35909450 3.53541882 7.13593327 0.00559143 0.00034819 0.00626622
O 10.38591817 1.68008983 22.95527008 -0.01137020 -0.00785226 -0.00282087
O 2.59301973 0.74982376 19.44536174 0.00108545 -0.00308944 -0.00094865
O 10.93982695 19.93284824 16.97446499 0.01032195 -0.00041626 -0.00713315
O 5.94644447 18.21583975 5.51065036 0.00034863 -0.00228738 -0.01084587
O 13.10611932 16.18134179 21.65166099 0.00187304 0.00884851 0.00077271
O 18.23582168 13.15542236 23.61422645 -0.00187314 -0.00124630 0.00286526
O 21.00385017 6.74421646 12.20113955 -0.00083180 0.00137218 0.00201385
O 14.13042875 23.71886434 13.54945137 -0.00382653 -0.00495356 0.00319359
O 8.81101920 27.19329118 26.25907658 -0.00835133 0.00057984 -0.00072177
O 10.35244638 0.62382085 18.27136873 -0.00251412 -0.00109507 0.00365465
O 16.79320584 22.03151802 25.55048995 0.00302837 0.00143975 -0.00467365
O 11.05473436 15.35970379 20.22278167 0.00179457 0.00198523 0.00221217
O 14.60603038 21.50736340 24.39081818 0.00192920 -0.00197779 0.00303789
O 11.05307260 17.10313509 4.01716921 0.00101661 -0.00252056 -0.00394199
O 2.41246427 5.92585087 17.08824999 -0.00530592 0.00134572 0.00040166
O 17.19921210 27.48841319 9.03450164 0.00297244 -0.00046265 0.00346106
O 2.40234126 12.60060231 2.31278354 -0.00128518 -0.00419735 -0.00297228
O 11.01458290 28.08638375 12.64376221 -0.00086313 0.01192496 0.00068703
O 15.39826912 24.44142017 3.32298442 0.00141374 0.00349784 -0.00134659
O 8.38110432 16.99734767 14.57609561 0.00233094 0.00594430 0.00404779
O 7.36845010 23.48510029 5.49221554 0.00483000 0.00056018 0.00244906
O 0.26852940 2.68307592 6.75961450 0.00676710 -0.00556448 -0.00567632
O 1.10141162 12.23875529 11.72397064 0.00044306 -0.01397793 -0.00051432
O 8.42271373 1.11849386 25.80024933 0.00540530 0.00394087 0.00293385
O 21.13388285 12.54027419 0.87136077 0.00192588 -0.00081533 -0.00439577
O 13.22994112 14.66704044 9.50456961 0.00734747 -0.00626933 -0.00339627
O 5.87460608 17.18248874 3.12978866 0.00348875 -0.00130872 -0.00443962
O 20.91707647 8.01551596 6.63203056 0.00134734 -0.01122083 -0.00166202
O 17.92913253 5.52521129 5.46257632 -0.00188509 -0.00227832 -0.00533099
O 1.91657477 25.84685811 16.56583982 0.00498197 0.00727475 -0.00337804
O 1.05171793 8.22767082 16.53511122 0.00553848 0.01128496 0.00888557
O 10.49486456 29.81305198 4.96385141 -0.00337741 -0.00594773 -0.00725359
O 18.10971804 12.81735358 26.12935602 0.00210244 0.00048893 -0.00500075
O 20.16561689 6.55719645 18.49866997 0.00786848 -0.00055201 0.00103415
O 1.05104340 16.94328153 26.66080798 -0.00939639 0.00183197 0.00298284
O 18.63153128 4.04691907 11.00293479 0.00348543 0.00038516 -0.00261171
O 0.21672018 15.17735395 20.96903124 -0.00368605 -0.00561116 -0.00077085
O 4.30748253 0.98056371 15.82275632 0.00610923 0.00642783 0.00343269
O 11.23151433 17.35490840 25.38725272 0.00485390 0.00128293 -0.00262108
O 15.58538179 0.93002352 24.14943944 -0.00147011 -0.00338530 0.00045089
O 14.31012944 9.31100201 22.75328325 0.00312314 0.00204290 -0.00328030
O 19.29202618 11.92542785 21.55285112 0.00114329 0.00312471 0.00190340
O 1.08839610 1.10462870 21.40595099 0.00092229 0.00082738 -0.00049911
O 2.81144840 16.82523098 6.34874450 -0.00816960 0.00171523 0.00256839
O 20.77783613 9.74647224 25.91250070 -0.00295677 -0.00176255 0.00366763
O 20.65609106 0.51773859 12.00589349 -0.00032165 0.00466166 -0.00345682
O 7.71284317 17.44877773 20.20448078 0.00251806 -0.00748562 0.00002624
O 13.08686957 25.91902745 23.64805704 -0.00004798 0.00084920 -0.00472070
O 18.74179071 7.80973006 4.42893605 0.00455124 -0.00229470 -0.00092179
O 19.15367477 16.25748457 11.18808570 0.00059826 0.00230439 0.00171238
O 22.01807565 7.75206352 24.67525525 -0.00073954 -0.00428660 -0.00724153
O 1.34717373 21.80395053 10.36502021 0.00465258 0.00324138 0.00423382
O 21.49257991 30.57816608 1.76976148 -0.01056428 -0.00262152 -0.00333146
O 15.74569201 17.88008563 8.20652037 0.00073160 -0.00070067 -0.00754250
O 15.07265092 20.86907410 13.18840366 -0.00138498 0.00433184 -0.01175195
O 14.25719599 29.32007574 4.29538785 0.00151435 -0.00459401 -0.00456371
O 16.26339546 1.02358252 11.55778992 -0.00875063 0.00311352 0.00617874
O 22.96249024 26.44483212 10.74046772 -0.00397479 0.00124741 -0.00312242
O 5.29325070 21.12846868 3.96980379 0.00527354 -0.00505260 0.00004067
O 14.66329450 12.74778322 0.61205168 -0.00151416 -0.00311918 0.00487425
O 11.05765525 26.69791662 27.81419948 0.00175370 -0.00358673 0.00238471
O 19.01092849 14.00960735 15.63485848 0.00337292 0.00423988 0.00024791
O 21.51119248 18.72609001 9.57105880 -0.00154186 0.00498694 0.00141554
O 12.83374494 2.69260436 27.44122601 0.00228778 -0.00060013 0.00088124
O 22.47051826 18.65942098 3.26539728 0.00642585 0.01003116 -0.00430862
O 19.82652656 1.30272839 24.57579264 0.01179972 0.00330528 0.00403509
O 2.14306113 21.31721076 24.95994491 -0.00024471 0.00083859 -0.00244715
O 13.21091306 20.09602373 27.39629103 -0.00481587 0.00056653 -0.00137132
O 18.66326277 18.82606540 17.51326959 0.00086452 0.00094458 0.00037653
O 19.50494573 11.65523139 9.84305896 -0.00884720 -0.00027124 0.00331731
O 14.28449288 21.92940172 7.22503366 -0.00095413 0.00403653 -0.00162597
O 15.49857729 22.11878937 15.24091233 0.00479375 -0.00438820 -0.00056105
O 21.12064307 25.18971798 6.62903008 -0.00016344 0.00201848 0.00295614
O 15.22525237 3.93787853 27.96521757 0.00064775 -0.00500480 -0.00098322
O 1.87977643 22.65665090 12.86483112 -0.00432279 0.00361307 -0.00322619
O 15.83356012 4.27929201 17.79865265 0.00256903 0.00242044 -0.00147226
O 21.53701156 23.89831039 14.73784248 -0.00185792 0.00721689 -0.00290959
O 17.15354727 22.56368577 3.75667224 -0.00501013 -0.01016434 -0.00775588
O 12.57506069 29.29940019 6.47617958 -0.00702778 0.00558071 0.00079236
O 12.31136033 23.99052414 21.93100164 0.01268547 0.00439226 0.01185770
O 19.42998706 25.14934814 13.96234521 0.00231237 -0.00212862 0.00910180
O 16.52420550 22.75932965 8.93328582 -0.00094057 0.00223350 0.00024908
O 5.54403045 27.81318005 11.82549004 0.00195241 0.00376148 0.00100631
O 16.11882348 10.62473450 17.90176816 -0.00672718 0.01189771 0.00106633
O 13.12516735 21.20617057 1.69257950 -0.00108821 -0.00430442 -0.00448420
N 11.24757389 22.11393221 11.29046600 0.00189470 -0.00743024 0.00460176
N 5.36351989 6.34670607 13.06358735 0.00755837 0.00825297 -0.00095954
N 7.99041329 0.37147857 6.69640426 -0.00312507 0.00441722 0.00272327
N 1.79252651 7.42540331 9.71726521 0.00274703 0.00151375 0.00741198
N 22.54456559 29.54102757 14.55948988 -0.00420156 -0.00234496 -0.00214433
N 0.44580782 19.13861299 19.50336975 0.00029346 0.00228900 -0.00537916
N 2.99114439 27.33844316 23.93836004 -0.00791832 -0.00882696 -0.00099719
N 3.98476428 2.18443617 6.46571741 -0.01197691 -0.01257118 0.00969019
N 20.19102618 23.62587148 19.87692976 -0.00450417 -0.00065338 -0.00459780
N 5.64199400 9.22317981 27.59736561 0.00014323 -0.00909027 -0.00219684
N 11.25525515 26.11025424 16.39749035 0.00582926 0.00685968 -0.00137026
N 10.14025342 8.68887965 19.64186084 0.00529082 -0.00410295 0.00186225
N 5.85790928 7.12886745 23.60654191 -0.00636967 -0.00329101 -0.00017772
N 5.87288543 10.41906832 15.24884983 -0.00231548 -0.00523783 -0.00259768
N 4.36883356 16.58990961 13.66747487 -0.00020217 -0.00283876 0.00143428
N 13.41347894 11.07906208 8.01823520 -0.00666597 -0.00187514 -0.00003775
N 14.85904985 3.54386526 14.86587775 0.00435531 -0.00572119 0.00167569
N 3.01920807 25.93842734 8.18385780 -0.00211373 -0.00524175 -0.00806074
N 17.86237487 20.67435650 0.33470216 -0.00810603 -0.00621255 -0.00039234
N 2.24945600 17.18834384 17.12036043 -0.00418759 -0.00311598 0.00257872
N 0.48739367 14.52170217 9.79067817 0.00062892 0.00432049 0.00386380
N 18.86587127 29.07924325 5.16126444 0.00311071 0.00290869 -0.00780600
N 7.73980612 22.11059506 14.16580175 0.00016806 -0.00441793 0.00193160
N 2.04459419 2.28063697 0.20370465 0.00709608 0.00299064 0.00511573
N 7.41302093 3.55694777 13.61351282 -0.00020024 0.00016568 0.00187982
N 1.06602076 27.98236691 1.90767762 -0.00396894 0.00576496 0.00320751
N 1.20447529 11.71328227 26.45668884 0.00480674 0.00325289 0.00042584
N 2.51894637 25.40909343 0.22738674 0.00016520 0.00388246 -0.00467547
N 19.78515145 15.02353884 3.41536126 0.00847334 0.00244082 0.00114301
N 0.43291863 26.77884696 21.36717438 -0.00538854 0.00244226 -0.00940530
N 8.79432840 25.01614893 23.86726096 -0.00021338 0.00930000 0.00069828
N 19.49733347 28.14742283 20.26031489 -0.00395818 -0.00361807 -0.00667316
N 11.93415451 15.37547549 2.79942483 0.00403677 -0.00371553 -0.00487191
N 10.56319406 6.55858498 2.86495002 -0.00266646 -0.00416641 -0.00110436
N 12.01845091 5.76259352 6.48137233 0.00301583 -0.00220495 0.00374482
N 11.31738263 11.97591387 17.69761526 -0.01170836 -0.00051187 0.00583175
N 9.63845821 29.33396981 11.24044767 0.00413171 -0.00600805 0.00601844
N 20.39709712 12.62060115 5.89351358 0.00242531 0.00453282 -0.00358557
N 5.53858476 17.67976307 7.69310551 -0.00048233 -0.00187545 0.00121099
N 15.55800467 11.25944087 12.29160436 0.00001120 0.00492278 0.00709535
N 17.65048578 18.37126566 21.97982620 0.00838124 -0.01111126 -0.00096829
N 6.40761720 5.33951454 20.07226933 -0.00356695 -0.00741223 0.00083392
N 15.40623469 28.15216326 10.31906566 0.00129275 0.00305475 -0.00551273
N 5.96966473 6.12294895 2.16635526 0.00419529 -0.00771314 0.00606655
N 4.78801960 0.97491581 18.83092564 -0.00576003 0.00752643 0.01325389
N 11.97120454 3.39138931 16.96388018 0.00287605 -0.00421919 -0.00024055
N 10.33252678 15.78046314 14.74933673 0.00599780 -0.00150055 -0.00186217
N 20.59477466 6.98808197 2.03294146 0.00101175 -0.00685610 -0.00122195
N 3.15840817 13.59309493 22.04289530 -0.00039391 -0.00016064 0.00352684
N 8.08793382 12.55486316 7.38018586 -0.00296166 -0.00900951 0.00731740
N 16.69722136 5.20318625 24.64535599 0.00249768 -0.00538105 -0.00199887
N 4.10464347 13.67152934 3.42221668 -0.00048745 -0.00955935 -0.00238035
N 13.10473865 10.17173124 1.55609550 -0.00404322 0.00375492 -0.00494199
N 11.92982351 18.30808476 18.27816178 0.00353994 0.00348611 -0.00193761
N 16.81857540 4.00830898 8.18117387 -0.00127791 0.00506025 0.00467339
N 9.40609152 23.07940083 6.55974817 0.00221618 -0.00102820 0.00028999
N 18.95231140 0.19285323 17.60488327 -0.00206582 -0.00057956 -0.00208668
N 0.28022795 5.18645415 17.14372798 -0.00333126 0.00238216 0.00796523
N 9.78834469 12.80932234 23.96440538 0.00297382 0.00211373 0.00594225
N 11.70566107 30.42605554 22.76466197 0.00150199 -0.00350590 -0.00168625
N 7.48542143 19.10601912 24.76506938 0.00276934 -0.00052901 0.00053274
N 16.74241168 25.59458861 1.86192191 -0.00544989 0.00556116 0.00535911
N 6.79851964 27.75685007 17.89109209 0.00195033 0.00207898 -0.00546098
N 14.84000780 16.30061794 22.98219287 0.00223465 -0.00710282 -0.00864109
N 18.69284980 21.22407884 4.87919608 -0.00019990 -0.00400474 -0.00177050
N 22.80421794 10.18399274 16.80195605 0.00359262 0.00645860 -0.00388520
N 12.25939335 0.50135585 27.48649011 -0.00163432 0.00736662 -0.01124754
N 17.38077701 9.63159068 3.81213195 -0.00689806 0.00713086 -0.00761806
N 18.31878693 23.70389970 9.80332222 0.01200677 0.00274068 -0.00142121
N 0.72797853 17.01632376 0.91875946 -0.00626112 0.00225180 -0.00780641
N 13.86350788 17.95524333 27.85294211 0.00553727 0.00050385 0.00443870
N 19.87559243 1.34129924 2.48420203 -0.01126883 0.00272419 -0.00590599
N 19.24754810 11.69760632 15.35819086 -0.00226615 0.00731034 -0.00120921
N 6.95541941 16.34497009 22.13995132 0.01006174 -0.00107130 -0.00747709
N 12.75920481 23.33017345 19.87009133 0.00114263 0.00459276 -0.00724968
N 15.94656119 13.58637870 25.92448998 -0.00472423 0.00665063 0.00493941
N 20.24045857 1.85027349 26.75926815 0.00935981 -0.00067109 -0.00018684
N 22.25649619 6.03082519 23.19859148 0.00356240 0.00431222 -0.00380718
N 16.32292403 9.39523326 19.82179771 -0.00174744 0.00680851 0.00484098
N 22.46347527 13.93887648 22.71505287 0.00942999 0.01339316 0.00379368
N 22.06802125 2.29227967 12.12313755 0.00008641 -0.00320709 -0.00563554
N 19.51187739 19.55229730 10.16082084 0.00075772 -0.00372264 0.00323964
N 10.73056870 0.09128281 2.85327772 -0.00217344 0.00144138 -0.00122614
N 18.21234180 26.42807486 12.70465376 0.00642997 0.00345936 -0.00513240
N 17.42807114 17.44020527 11.85680529 0.01057601 -0.00045480 -0.00048827
N 3.53390230 21.56894698 26.68961498 0.00014711 0.00279889 0.00385226
N 17.88803952 6.19590672 10.96666616 0.00053105 -0.00570802 0.00164881
N 11.16370620 21.98282533 2.63549963 0.00295606 0.00350274 0.00173351
N 4.06524924 26.01355972 15.80154085 -0.00031559 0.00955611 -0.00323239
N 12.75333114 27.11493633 5.99818679 -0.00249296 0.00365571 0.01143608
N 14.66175770 26.21432211 25.29882885 -0.00347788 0.00675583 -0.00145791
N 0.04107599 20.38148238 4.63069824 0.00295401 0.00577826 0.00036364
N 18.79808408 6.47928297 20.24618348 -0.00605519 -0.00050021 0.00384357
N 3.48782779 28.01551906 12.98928804 -0.00100794 -0.00248043 -0.00217776
N 1.75589367 21.96619139 8.16959174 -0.00413716 0.00236353 -0.00506470
N 20.72245373 18.60645249 16.53179809 -0.00359435 -0.00324916 -0.00438050
C 12.85843611 3.68367862 13.60045532 0.00462115 0.00557187 -0.00407161
C 7.38956039 6.18492527 11.83945401 0.00800910 0.00142476 0.00201189
C 18.77625400 19.25323116 26.55198456 0.01075423 0.00356352 0.00451035
C 4.04141169 7.73731558 8.90450849 -0.00438879 -0.00325174 0.00402779
C 2.97777620 14.34892243 9.58103272 0.00390044 -0.00269698 -0.00708985
C 1.20715568 18.67753367 21.93545949 0.00525879 -0.00121430 -0.00200459
C 8.38497727 20.28588309 15.71637589 -0.00212521 -0.00152958 0.00647975
C 5.73975470 1.78666609 4.83383286 0.00861037 -0.00153703 0.00488175
C 11.77786960 4.39746571 13.14372535 0.00234912 0.00364653 0.00473104
C 8.08905720 5.66637313 10.78029957 -0.01244949 0.00196483 -0.00020121
C 19.72446262 19.04318019 25.58321907 0.00002784 -0.00503035 0.00720499
C 4.91777732 7.92739214 7.87395470 0.00420927 0.00092872 -0.00056781
C 4.04600579 13.73143577 9.03428374 0.01485975 0.01461405 0.00191245
C 0.95642949 17.89488886 22.99654632 -0.00203612 0.00195586 -0.00636872
C 8.22018435 19.59647979 16.96559057 0.00039286 0.00654482 0.00022203
C 6.25460441 0.91231733 3.94111541 -0.01399101 0.00405462 -0.01217568
C 11.62894332 5.80789671 13.28725883 -0.00252902 0.00024202 -0.00739268
C 7.76058665 4.51158182 10.17223708 -0.00702889 0.00225192 -0.00052890
C 20.72860793 20.01267580 25.37119841 -0.01138521 -0.00401471 0.00104114
C 4.48208155 8.03474328 6.56252434 -0.00269619 -0.00195595 0.00610815
C 3.94232271 12.50907991 8.50137857 -0.01014086 -0.00408395 0.00205443
C 22.70731137 17.29971334 23.25325661 0.00378524 0.00617572 0.00264927
C 7.04222427 19.94067441 17.68837311 0.00296754 -0.00373258 0.00206623
C 6.21661050 30.07590922 4.26494842 -0.00227954 -0.00734310 -0.00144809
C 12.77549730 6.42555170 13.85565506 0.00017369 -0.00283627 0.00189802
C 6.45251579 4.03716600 10.31163908 -0.00117909 -0.00294026 -0.00475907
C 20.63905947 21.18229232 26.12705159 -0.00354156 0.00680741 0.00436779
C 3.14008757 8.03472132 6.24687638 -0.00623199 -0.00354133 -0.00832487
C 2.61359435 11.92046858 8.34071723 0.00544139 -0.00221236 -0.00051857
C 21.76902494 17.31823285 22.24289068 -0.00893459 -0.00175456 -0.01748107
C 6.48090499 21.23839567 17.56383487 0.00319850 -0.00890823 0.00591939
C 5.17754576 29.60820435 5.11856627 0.00115690 -0.00161163 0.01329484
C 13.82881045 5.75731634 14.36855771 0.00226296 -0.00544853 -0.00605438
C 5.59198535 4.56531949 11.23219623 -0.00564971 -0.01366222 -0.00373044
C 19.63733006 21.45376642 26.97538758 -0.00447591 -0.00115573 -0.00103692
C 2.23185692 7.82157517 7.28250237 -0.00366639 -0.00488206 -0.00013306
C 1.52346705 12.60584435 8.77014603 -0.00266036 0.00308100 -0.00280855
C 22.02819007 17.96610411 21.06845585 0.00839504 0.00332464 -0.00063898
C 6.86394307 22.05927366 16.48000233 -0.00520527 -0.00324569 -0.00327749
C 4.49737930 30.60121425 5.88065713 -0.00487096 -0.00341033 0.00020859
C 13.87929770 4.28234269 14.34354817 -0.00162233 -0.01134203 0.00823277
C 6.04710691 5.76416066 12.03994474 -0.00107029 -0.00890088 -0.00055373
C 18.74667603 20.44242838 27.32549327 0.00474567 0.00079159 -0.01356941
C 2.68684522 7.69040086 8.62551555 0.00465893 0.00925445 0.00571638
C 1.70876746 13.87386921 9.39661690 -0.00983893 -0.00739917 0.00705330
C 0.29127454 18.57791887 20.80423981 0.00255579 0.00807026 0.00766801
C 7.67018555 21.45272441 15.45055710 0.00304826 -0.00214878 -0.00788675
C 4.84684869 1.36435311 5.78998787 -0.00018946 -0.00179549 0.00099621
C 15.06875954 2.17880619 14.67031858 -0.00558514 -0.00788340 -0.00718768
C 4.08457604 6.11033902 13.35368873 0.00784073 0.00370615 -0.00461694
C 16.87901137 19.80749032 0.60378643 0.00500027 0.00074756 0.00350252
C 0.51967466 7.71789535 9.77822357 -0.00664693 -0.00157030 0.00360957
C 0.69864910 15.26397965 10.94416439 -0.00630772 0.00117853 0.00804025
C 1.74230972 19.53427847 19.14905105 -0.00434959 -0.00784998 -0.00487932
C 6.65312664 22.96583013 13.68647109 -0.00855989 0.01012035 0.00323777
C 3.74864959 3.53220711 6.45732232 0.00830963 -0.00738091 -0.00356968
C 21.66888755 24.45141159 18.14209556 0.00180404 -0.00190789 -0.00515224
C 3.42680204 7.35095470 13.93747232 -0.00117831 -0.00710342 0.00173838
C 8.89413870 2.53513675 6.30006741 0.00628316 0.00146475 -0.00134678
C 10.16684035 8.12219010 21.91464466 -0.00623607 -0.00356581 0.00004415
C 5.81732140 9.54956058 23.67021519 0.00356766 0.00322701 -0.00433255
C 1.42115745 20.73738967 18.22120721 0.00092793 0.00948223 0.00229986
C 2.17413992 29.56111132 24.77789157 -0.00060536 -0.00592626 -0.00340796
C 15.64934328 11.52907214 8.68016149 -0.00086988 -0.00100518 0.00056762
C 7.71151439 5.45590926 15.23776173 0.01095776 0.00104785 -0.00491157
C 6.10996771 6.88072645 26.84514916 -0.00057093 -0.01691782 0.00908765
C 1.95283485 9.80125314 25.18558255 0.00132416 0.00530948 0.00135249
C 12.06656935 8.72305631 18.17154863 0.00203799 0.00169191 0.00179173
C 22.08138265 14.35069900 3.62443349 0.00505239 -0.00135863 -0.00078103
C 7.02744053 10.02965334 13.24283178 -0.00475884 0.00794369 0.01438215
C 9.95288077 22.90996756 23.14418491 0.00094745 -0.00280123 0.00925202
C 12.98422893 11.12601600 10.37979970 0.01383492 0.00069932 0.00051916
C 7.12332149 6.20585842 16.24980644 0.00514601 0.00715409 -0.00290461
C 7.06532596 5.96095977 26.53608192 0.00085931 0.00355330 0.00191131
C 2.14396751 8.43813196 24.96718960 -0.00384179 0.00426810 0.00067819
C 12.53029923 8.74948021 16.86201761 -0.00473888 0.00280186 -0.00545482
C 0.16450150 14.27212980 4.45738410 -0.00868564 -0.00868521 0.00077455
C 7.04379845 9.84690071 11.84457061 -0.00413763 -0.00828658 0.01057073
C 10.75924417 21.84738113 23.42960459 0.00554976 -0.00873141 0.00064833
C 12.38858659 10.69412076 11.54022645 -0.00251914 -0.00264498 0.00247383
C 5.75860812 6.14913968 16.51758058 0.00096535 -0.00270723 0.00301232
C 8.43949561 6.31616363 26.47271280 -0.00598792 -0.00808513 -0.01081361
C 2.10420399 7.59303116 26.04293325 -0.00776175 -0.00477752 -0.00482888
C 11.73688338 9.19288017 15.73553430 0.01319008 -0.00594554 -0.00155386
C 0.39297713 15.03965686 5.60295251 -0.00410582 0.00234270 0.00904626
C 5.92111834 10.11568991 11.10233810 0.00444852 0.00149632 -0.00200728
C 10.95785915 21.46392307 24.76754964 0.00092012 -0.00168098 0.00203938
C 11.34447760 9.66492684 11.47486980 -0.01201478 0.00892290 -0.00305732
C 5.01639541 5.02883030 16.04267932 -0.00257058 -0.00491485 0.00712695
C 8.82089563 7.62971924 26.75482657 0.00504369 0.00149114 -0.00563435
C 1.70839976 8.07479260 27.30295009 -0.00200122 0.00399825 -0.00444386
C 10.30381965 9.24161633 16.01437181 0.00380869 -0.00148124 0.00355100
C 22.34543620 16.08817206 5.68010778 0.00773851 -0.00543841 0.00666909
C 4.67898602 10.50520228 11.73590759 0.00019001 -0.00102834 0.00083650
C 10.24060093 22.14007864 25.81805970 0.00272257 0.00970651 -0.00522312
C 10.81729938 9.46190649 10.16976521 0.00544752 0.00057834 -0.00506353
C 5.69703498 3.99981969 15.31173838 0.00120106 -0.00361575 -0.00336961
C 7.82055159 8.59879918 26.94099478 0.00120283 -0.00179248 -0.00616127
C 1.41131141 9.41102283 27.42729930 -0.00255333 0.01213960 -0.00162680
C 9.82573805 9.09123065 17.30127662 0.00473018 0.00097697 0.00451108
C 21.21458102 16.15981120 4.92209225 -0.00775933 -0.01169117 -0.00235244
C 4.65610836 10.58359978 13.13274527 -0.00162861 -0.01029411 0.00276103
C 9.56757293 23.32739470 25.49266013 -0.00689845 0.00581423 0.00267946
C 11.65692870 9.76436534 9.06414202 -0.00350733 -0.00187929 0.00552454
C 6.88978204 4.33234171 14.62676569 -0.00474126 0.00315809 0.00011262
C 6.49795400 8.20651259 27.07570290 -0.00112917 -0.00304494 0.00375872
C 1.46043158 10.30314763 26.29913428 0.00525911 -0.00075557 0.00202017
C 10.69356489 8.91639205 18.32410475 -0.00490934 -0.00680813 -0.00372828
C 20.98596919 15.17582313 3.95847869 -0.00085978 -0.01210625 0.00021442
C 5.79473174 10.30447902 13.81728651 0.00299421 0.00085693 0.00370760
C 9.46709807 23.80104190 24.16706044 0.00039979 0.00263782 0.00273321
C 12.75323849 10.61458559 9.13608659 -0.00947872 0.00818088 -0.00283532
C 7.10181358 2.19650840 13.56393684 0.01210862 0.00072163 -0.00637120
C 5.90563577 10.61921878 27.47848120 -0.00383620 0.00567913 -0.00474556
C 0.86790956 12.33117258 27.57633077 0.00293409 -0.00286552 0.00471221
C 10.96982199 8.52789100 20.74053147 -0.00104829 0.00365700 -0.00449212
C 18.79793543 15.96463418 3.49406039 0.00191876 -0.00393210 0.00110600
C 4.82251388 10.44007988 16.00390489 -0.00390278 0.00379463 -0.00078646
C 8.83405885 25.58007455 22.54898998 -0.00654169 -0.00270684 0.00189327
C 14.28705140 12.08144655 8.07128337 -0.00543254 0.00267536 -0.00297255
C 12.14453933 20.13307243 12.40538587 0.01570502 0.00114951 -0.00405277
C 5.02985403 11.49132241 0.29688132 -0.00077897 0.00622047 -0.00010176
C 10.42234050 24.71750582 14.77980213 -0.00096922 -0.00340338 0.00141145
C 22.89840147 9.07942230 9.23220069 -0.00214673 0.00641935 0.00523060
C 21.20020795 27.58898057 15.01950399 -0.00308802 -0.00581545 -0.00205661
C 4.96046730 10.42633800 17.55539834 -0.00411302 0.00630080 0.00741739