1920
Time=6000.00000000 pbc="T T T" Lattice="22.64666904 0.00000000 0.00000000 0.00000000 30.45353426 0.00000000 0.00000000 0.00000000 28.27020740" energy=-12194.90712100 virial="-46.09407519 -3.73246538 8.46486352 -3.73246538 -26.79086447 16.84561598 8.46486352 16.84561598 -66.31974022" stress="0.00146887 -0.00021835 0.00032721 -0.00021835 0.00256224 0.00110406 0.00032721 0.00110406 0.00031849" Properties=species:S:1:pos:R:3:vel:R:3
O 10.02147837 6.77388371 12.40801207 0.00155855 0.00240830 0.00279778
O 8.01197032 4.04151009 9.37716764 0.00145091 -0.00421425 -0.00466062
O 22.39024363 19.84196939 24.46495098 0.00225228 -0.00219014 -0.00079994
O 5.41558880 5.73984173 4.93720664 0.00192512 -0.00340636 0.00185380
O 1.30035100 10.98736495 8.81866942 -0.00858051 0.00603011 -0.00903718
O 0.12872846 16.43583809 25.23273252 -0.00479772 -0.00294307 0.00133745
O 7.84197651 18.87979958 18.28355186 0.00013810 -0.00331335 0.00488100
O 5.62515183 30.02184222 3.73547212 -0.00284500 -0.00175225 -0.00273941
O 6.84496600 1.70791157 15.73076982 0.00797299 0.00102835 0.00187416
O 3.11491643 5.11956728 13.54846942 0.00547187 0.00468635 -0.00274328
O 17.17040659 18.73839446 27.97731229 -0.00148145 -0.00130124 0.00011992
O 13.36511335 7.74801647 20.52178658 0.00839674 0.00201675 -0.00348698
O 17.31483753 14.31239155 1.97014499 0.00257223 -0.00817528 0.00667525
O 2.14401302 20.62090076 21.12116795 -0.00730214 0.00256903 -0.00506845
O 7.47397041 24.91671516 15.80433002 0.00717573 0.00699227 -0.00246120
O 14.59733420 11.75803324 6.64111981 -0.00178003 0.01122817 -0.00020992
O 4.17938780 6.88615364 17.70608687 0.00534648 -0.00196299 -0.00018735
O 8.87537533 5.37494618 26.11343256 -0.00320844 0.00359093 0.00598747
O 2.79414976 5.99326314 26.09482896 0.00040911 -0.00670361 -0.00563333
O 11.90079406 10.23108486 14.81535868 -0.00632515 0.01161273 0.00893090
O 21.61591597 17.51516914 7.24090830 -0.00449192 0.00685925 -0.00299840
O 4.16588082 10.31743096 9.24813873 -0.01395504 -0.00348896 -0.00065952
O 12.05994536 21.12986931 25.80585144 -0.00001256 -0.00469596 0.00515648
O 10.93270082 9.06702607 12.61898058 0.00354666 -0.00660435 -0.00615517
O 13.96128940 1.85366870 13.15060742 0.00295348 -0.00797610 0.00131141
O 6.56953198 11.24841190 26.34068171 0.00156641 0.00364419 -0.00085595
O 1.10877427 11.91096140 27.49009182 0.01165921 -0.00798567 0.00173492
O 0.66749007 8.35674949 10.31588317 0.00116631 0.00015733 0.00818576
O 0.21660992 16.36971599 11.91928802 -0.00129673 -0.00808105 -0.00337330
O 3.19524018 9.82834162 15.34619993 -0.00312578 0.00909553 0.00458708
O 9.24737127 26.19019371 23.14159142 0.00053383 -0.00168211 -0.00093145
O 0.05866742 3.53290267 6.91447608 0.00416444 0.00633872 -0.00448463
O 6.76784006 24.78879771 9.62904291 0.00213221 -0.00816409 0.01386043
O 22.06191946 29.47475096 7.57123572 0.00176430 0.00369781 0.00234851
O 5.81152760 27.34052466 9.95540382 0.00348379 0.00579588 0.00467898
O 4.40851007 20.91918830 12.36506971 0.00098007 -0.00450469 0.00648960
O 1.91733859 3.17512372 12.32289403 0.00539155 -0.00616698 -0.00749617
O 17.20825224 29.03596011 27.07740240 -0.00359862 0.00686239 0.00503504
O 5.43905221 23.22301686 0.07405651 -0.00022889 -0.00554374 -0.00108783
O 5.73434399 0.39609676 25.30422400 -0.00054546 0.00051221 0.00017183
O 21.88816964 22.04237293 19.08664863 -0.00314823 -0.00560642 -0.00221649
O 2.59496745 24.26403166 5.91752343 0.00754380 0.00609308 -0.00343269
O 7.33511378 2.37592771 7.49788723 0.00211266 -0.01093408 0.00026961
O 2.46992407 22.92032762 1.39041899 -0.00119110 -0.00650226 -0.00099204
O 8.34337530 8.50748857 23.21870161 0.00595474 0.00271365 -0.00437222
O 20.29699249 27.37125519 4.31240731 -0.00270908 0.00193096 -0.00298498
O 5.21497896 28.54362086 24.97886696 -0.00717617 0.00159316 0.00212275
O 17.01797740 25.94180541 20.04001431 -0.00543767 0.00231979 -0.00068907
O 18.23617039 20.46661512 24.23280936 -0.00759874 0.00125326 0.00568708
O 19.76416399 25.57467675 27.20207557 0.00018058 0.00134491 0.00034588
O 14.52062642 26.84124869 20.68202762 0.00072158 -0.01195621 -0.00633654
O 5.49230909 27.56543312 4.36387670 0.00015496 0.00236396 0.00189506
O 7.99517914 2.35211953 22.32413283 -0.00552978 0.00049279 -0.00416995
O 1.23945951 21.82226438 23.42268955 0.00050712 0.00733278 0.00249812
O 6.89229055 15.32179957 17.85584369 0.00650360 0.00534748 0.00047025
O 19.21531852 27.71158330 25.74756117 0.00035813 -0.00487925 -0.00196290
O 10.20586380 19.89697742 11.83592594 -0.00814001 0.00387962 -0.00654851
O 0.60354292 30.08209501 1.23594733 -0.00833108 0.00631128 -0.00247345
O 12.81988388 24.57273381 15.10682492 -0.00612059 0.00455273 -0.00770519
O 0.91009696 16.69481400 15.54183245 0.00295187 0.00555341 -0.00130463
O 0.33397268 30.12173431 17.11111059 0.00289428 -0.00186641 0.00365151
O 1.65981291 27.23052173 20.07397329 -0.00330214 0.01105708 -0.00264505
O 4.38870011 16.28830367 11.26419167 0.00160610 0.00101236 0.00543546
O 2.34148941 4.69778168 0.01868276 0.00108467 0.00515369 0.00087395
O 5.73509880 15.36276037 26.28232829 -0.00424984 0.00003306 0.00341091
O 7.41924970 7.90639728 7.94727326 -0.00297161 0.00089708 0.00706675
O 10.63107153 4.43076554 24.54097575 0.00440283 -0.00154221 -0.00405004
O 9.09743158 14.59474025 12.08415358 0.00076896 -0.00394142 0.00135140
O 10.06068526 11.86686705 4.02627801 0.00250361 0.00681282 0.00841017
O 16.47152726 15.08731872 5.54937062 -0.00074856 -0.00502760 0.00069992
O 12.80474957 6.63065469 10.69551660 -0.00957141 0.00039256 -0.00196061
O 15.09324884 16.75095012 20.06594497 0.00134100 0.00227741 0.00178997
O 16.10554029 28.50873180 16.52792497 0.00391767 0.01093078 0.00069530
O 9.83717206 5.10679083 3.08827059 0.01018051 -0.00133560 -0.00288151
O 16.91706069 3.60338752 23.20237132 -0.00814790 -0.00178612 0.00422931
O 4.78484951 10.61386489 2.51427445 -0.00649172 0.00442766 -0.00459611
O 5.67247496 18.10445277 26.57352407 0.00330949 -0.01050768 -0.00270140
O 19.00406919 9.90395048 8.54147684 0.00509756 0.00241092 0.00204198
O 16.19748298 1.47105253 9.36913873 -0.00134487 0.00006501 0.00933087
O 22.19162789 9.07684319 1.79501861 0.00294204 0.00703087 -0.00252732
O 20.65075573 1.17554068 21.93683008 -0.00951543 0.00181100 0.00137188
O 2.60856151 9.80479069 20.91334593 -0.00566220 -0.00437332 0.00515462
O 6.99942967 12.94206871 18.76210889 -0.00960515 -0.00286885 0.00149893
O 4.69426218 4.41384432 0.97861735 -0.00235132 0.00403253 -0.00305714
O 4.68086846 21.81138814 21.37499075 -0.00225300 0.00006533 -0.00482384
O 11.93410278 27.96159910 14.55567423 -0.00193460 -0.00356969 0.00108970
O 4.29552031 24.47153619 21.98181016 0.00723934 -0.00201108 0.00649942
O 17.04283519 7.23979421 26.57241858 -0.00416309 -0.00516099 0.00302685
O 4.15930283 12.00266009 21.11678452 0.00748075 0.01075531 -0.00502846
O 7.96520666 6.93678478 19.79733303 0.00820661 -0.00517342 -0.00064379
O 10.42433856 12.28140656 25.64422053 -0.00226420 0.00602869 -0.00213667
O 9.24025508 12.10189440 17.74611376 -0.00049918 0.00569257 -0.00259920
O 14.87277985 8.04965527 27.48289422 -0.00603594 0.00409472 0.00042760
O 13.29080567 2.62414933 18.24912293 -0.00251792 -0.00644846 0.00041971
O 8.83800253 26.52359281 17.86727965 0.00528948 0.00870308 0.00895751
O 14.32330254 11.89562146 15.65530176 0.00878553 0.00239459 -0.00280663
O 5.90309740 14.11171776 0.38964236 0.00447386 -0.00999740 0.00272358
O 11.34510996 13.97015614 9.57013636 -0.00195768 0.01000932 -0.00994738
O 14.89017624 5.32566759 1.54578719 0.01186266 -0.00011047 -0.00278837
O 4.76274971 14.54562119 9.13398469 -0.00207298 0.00236614 -0.00575116
O 13.15899023 1.37190664 6.93323857 0.00494567 0.00120609 -0.00365025
O 13.77243899 19.92337385 13.98891162 0.00452381 -0.00521945 -0.01019316
O 7.60924797 18.35413101 12.83233138 -0.00773908 0.00485698 0.00095615
O 11.75082359 16.40333164 6.05512011 0.00717912 -0.00428471 0.00106791
O 19.01948141 17.71037193 20.08525857 0.00260478 -0.00694275 -0.00426602
O 6.44668851 10.30585325 7.97015206 0.00000758 -0.00823666 -0.00012901
O 11.99644638 3.46691703 6.49887371 0.00430091 0.00033112 0.00134071
O 10.58587592 2.39856769 21.96533607 0.00170548 0.00365302 0.00454052
O 5.38982985 2.05965014 20.96655814 -0.00365496 -0.00449012 0.00147399
O 10.92070828 22.44677613 18.94543156 0.00043027 -0.00534906 -0.01676788
O 6.63302556 17.97727526 5.25750246 0.00356776 0.00232897 -0.00034904
O 13.33724739 15.44149993 21.78028538 -0.00184349 -0.00131908 -0.00232404
O 18.16890611 12.42081606 23.20244620 -0.00250661 0.00231008 -0.00189819
O 21.26634868 7.18705681 11.18561246 -0.00782833 -0.00228089 0.00119616
O 13.82040431 23.27291841 13.24000220 -0.00197202 -0.00598178 -0.00333541
O 9.30304564 28.94463999 27.30800898 0.01186529 0.00226727 0.00035268
O 9.81558869 27.92864623 21.05492707 0.00552382 -0.00677699 -0.00460374
O 16.35855145 22.53175906 25.61389415 -0.00251906 -0.00406088 0.00292363
O 10.37714542 15.58097220 21.00577733 0.00580037 -0.00010015 0.00141458
O 14.32693199 21.09422679 24.79058936 -0.00615577 -0.00379358 -0.00048139
O 10.52204730 14.56087819 4.56308560 0.00192604 0.00255190 -0.00874829
O 1.44497737 6.27120473 16.92613280 0.00659046 -0.00201780 0.00527299
O 14.66855326 25.52175746 7.41863458 -0.00579133 0.00279208 -0.00613285
O 1.25934548 13.93924269 3.60934194 0.00368839 -0.00393419 -0.00207407
O 11.05683420 28.20714060 11.82270991 0.00460303 0.00128193 -0.00576092
O 13.56661127 24.87179797 2.66209762 0.00913650 -0.00871856 0.00390064
O 9.29438296 17.66024504 14.74652868 0.00372370 -0.00600783 0.00522681
O 8.17444177 21.53307046 4.97119327 0.00274750 0.00323851 -0.01067996
O 21.52986294 1.54458699 8.39160061 0.00125432 0.00867135 -0.00795648
O 21.19021193 13.03362095 11.79678458 0.00134012 0.00715192 -0.00162564
O 7.63108263 3.17817910 26.78659624 0.00068724 0.00266111 0.00513479
O 0.04656601 13.20633180 1.63669599 -0.00617740 0.00295494 0.00156332
O 13.75770139 13.46457027 8.93049806 -0.00976734 0.00230933 0.00625694
O 6.14815175 17.64585491 2.74727877 -0.00047289 -0.00013321 0.00123002
O 21.18952191 5.82760993 7.04982690 0.00253895 -0.00574704 0.00308587
O 17.11427261 5.29610033 5.80546334 0.01362508 -0.00455884 -0.00298827
O 2.52408530 25.40028598 17.43822794 0.00100236 0.00597857 -0.00047494
O 0.99552941 8.82009428 16.27664618 -0.00122387 0.00907281 0.00336907
O 9.77693750 29.39067403 4.57933248 0.00517747 0.00555630 0.00489362
O 18.73717603 11.81928690 25.62761442 0.00133002 0.00519665 -0.00507503
O 19.29993110 5.23613663 18.85903886 -0.00190316 -0.00427718 -0.00090390
O 0.91725919 16.30596045 27.75337649 -0.00632209 0.00158653 -0.00036687
O 18.65151890 5.00891211 12.21406993 0.00049731 -0.00669482 -0.00345023
O 0.47458380 14.91396375 20.18278489 -0.00231844 0.00017933 -0.01549912
O 4.64648207 0.62811944 16.23031304 -0.00145081 0.00325939 -0.00712158
O 11.48852661 17.15028967 24.58477249 0.00062920 0.00482574 -0.00190655
O 16.01022614 1.06271247 22.39133524 0.00347258 0.00460154 0.00267387
O 14.42542829 7.70029677 22.81952437 -0.00134160 0.00612893 0.00480300
O 18.77852665 11.35995974 20.21905612 -0.00770744 0.00315097 -0.00121416
O 3.06883909 1.18248306 22.04307252 -0.00074935 -0.00100438 -0.01664059
O 2.49536960 15.78085368 8.55302579 0.00035105 0.00479093 -0.00477231
O 21.12660021 9.54467391 25.33257578 0.00533432 0.00055355 0.00645904
O 18.46518049 1.36846214 14.12240547 0.00692088 -0.00026324 0.00693202
O 7.15648404 19.09861720 20.60665909 -0.00902111 0.00409086 0.00135573
O 14.27152378 25.79906370 24.04828033 0.00635575 -0.00510015 -0.00183724
O 19.66900650 9.08305842 5.21813685 -0.00048607 -0.00796410 0.00573132
O 19.23901062 15.86046475 11.81922652 0.00315610 0.00702975 -0.00386988
O 22.04147674 7.51582215 23.97939289 0.00184488 -0.00807210 0.00499689
O 2.83080819 21.76568822 10.34144223 -0.00347748 0.00344452 0.00320555
O 20.96518321 0.51119028 1.29476357 -0.00954528 -0.00043745 -0.00325658
O 14.12023131 16.10075577 7.37614391 -0.00936963 -0.00457458 -0.00061763
O 17.09706574 20.59539013 15.25839735 -0.00491546 -0.00294692 -0.00168105
O 12.92867950 29.92233563 5.43971326 0.00375513 -0.00035976 -0.01366418
O 14.20552191 29.86518141 12.70842067 0.00115423 0.00211187 0.00223898
O 0.73119545 26.42486852 11.29535453 -0.00645137 0.00633912 -0.00154391
O 6.02911649 22.67688020 4.44445921 -0.00009275 0.00524237 0.00128100
O 13.82820818 12.80754462 26.87927545 -0.00189008 0.00259419 -0.00471851
O 7.80801218 27.05158944 0.18782054 0.00050357 -0.00375419 0.00120212
O 19.97310122 12.38032744 15.48545694 0.00671562 0.00810864 0.00696674
O 20.02742459 19.13869651 8.56141006 0.01334525 -0.00506062 0.00900457
O 13.10963666 2.34908559 28.05835072 -0.00176549 -0.00679066 -0.00076624
O 21.27743287 17.89129758 3.31469226 0.00387634 -0.00712075 -0.00827331
O 19.89411680 1.62882345 24.59630781 -0.00470687 -0.00546060 -0.00118062
O 0.75018691 20.24687441 1.76729579 -0.00580500 -0.00001407 0.00307782
O 13.20498613 19.94596296 0.20170908 -0.00263702 -0.00514633 0.00330788
O 19.67403447 18.67720028 17.79779776 0.00039501 -0.00063540 -0.00506894
O 17.04698166 9.56262278 10.57368948 -0.00130156 -0.00291662 -0.00263929
O 13.45416487 20.79384134 8.21683971 -0.00048865 -0.00168178 0.00513664
O 17.85582421 22.44306167 16.81465053 -0.00290702 0.00348584 0.00361628
O 21.90269373 25.37698046 5.44443794 0.00195821 0.00247944 0.00384770
O 15.49087964 2.91358661 0.71843859 -0.00540170 -0.00198843 -0.00238377
O 2.78798673 22.66422037 13.38419187 0.00806063 -0.00510684 0.00086618
O 15.74419204 2.84603258 18.43170673 -0.00337997 -0.00015158 0.00358285
O 21.92516904 23.64333320 14.59618259 -0.00064502 0.00353700 0.00079175
O 15.30895771 21.76459652 4.25168376 -0.00386489 0.00364933 -0.00230960
O 10.50024494 27.00733004 4.88780232 -0.00269607 0.00483619 0.00168587
O 12.98336931 24.25567297 22.52737560 -0.00177637 0.00579170 -0.00381453
O 19.68083925 25.14410538 14.65144113 0.00357302 -0.00046445 -0.00475102
O 18.72496561 25.32835409 7.42279955 -0.00788739 0.00946391 0.00520740
O 4.78380489 28.62410557 11.87787286 -0.00008086 0.00837441 -0.00035502
O 16.45926214 9.22476014 18.12771853 0.00901947 -0.00292053 -0.00955019
O 11.66503295 21.96586025 1.03669076 -0.00142638 -0.00317756 -0.01128183
N 11.22851612 21.97269575 11.32893287 0.01019750 0.00507333 0.00963938
N 5.09756915 6.20864585 13.53937489 -0.00939924 0.00412607 0.00700642
N 7.40092095 0.50636233 6.02500435 0.00227738 -0.00478786 0.00288769
N 2.59586043 7.59730619 9.37254506 0.00090541 0.00172088 -0.00021275
N 22.13548482 29.46354782 15.07079649 0.00082864 -0.00727372 -0.00062829
N 0.82896944 18.86456991 20.35623851 -0.00717993 -0.00115267 -0.00191048
N 3.95963765 26.82838606 24.31120333 0.00184003 -0.00366349 -0.00025917
N 1.76484076 3.08744663 5.56322088 0.00109162 -0.00260226 0.00132903
N 21.31581978 23.52663764 20.67263017 0.00770900 -0.00899105 -0.00436538
N 5.69463696 9.48447028 27.48843069 0.00250695 -0.00019193 -0.00384281
N 11.14613494 25.25916492 16.52699918 -0.00232745 -0.00380764 0.00181358
N 11.16515586 7.73828193 19.68617422 -0.01430333 0.00518593 0.00224384
N 6.62043377 7.27111055 24.22901168 0.00100137 0.01308081 0.00358144
N 5.26569114 10.79327469 14.76665645 -0.00127099 0.00737601 -0.00141175
N 4.15850631 14.82587255 13.01026240 -0.00354017 -0.00456257 -0.00009106
N 13.02820320 10.38490768 7.60980317 -0.01101072 0.00205462 -0.01018348
N 13.60877509 3.25129248 14.86966384 -0.00483583 0.00067251 0.01205783
N 3.55748618 25.80864340 7.22541633 0.00490629 -0.00913294 0.00189005
N 18.26496046 20.82019608 28.03887510 0.00264853 0.00022414 0.01277675
N 3.03966231 17.00610858 16.14632313 0.00703535 0.00181724 0.00281732
N 22.19931819 16.10713367 9.73733855 -0.00435203 0.00086048 -0.00533851
N 18.34799439 28.64602080 4.25951799 -0.00586545 0.00158931 0.00215758
N 7.56368925 22.98890469 14.55718843 -0.00421107 0.00179783 -0.00014474
N 1.88100402 2.54471814 0.33498244 -0.00295715 0.00329083 0.00550271
N 7.43936852 3.68988975 14.65503304 0.00506280 -0.00172718 -0.00507584
N 0.59256460 28.17968529 2.41436418 0.00321700 -0.00033749 -0.00475557
N 1.79502905 11.41175408 25.27265048 0.00132420 0.00780723 0.00554696
N 2.28221374 25.13621737 0.80276403 0.00937857 -0.00763508 -0.00641088
N 19.21696976 14.58663955 3.05968240 0.00060825 0.00469219 0.00255680
N 0.47321891 27.27425697 22.00679508 -0.00354762 0.00544428 0.00673433
N 8.23894595 24.97303849 24.73274669 -0.00653521 -0.00845295 -0.00143375
N 18.96849278 26.98520677 20.25991574 -0.00059003 -0.00132604 -0.00092620
N 11.05842503 14.37577904 2.32692266 0.00990728 -0.00616634 -0.00440131
N 10.74221636 7.17628323 3.63096355 0.00246171 -0.00090671 -0.00132815
N 12.21374614 5.71261967 6.38355805 -0.00363744 -0.00328444 0.00276457
N 11.19318297 12.78239343 16.85329176 0.00798696 0.00510114 0.01188691
N 9.81277675 29.76056320 10.72131978 0.00465005 0.00919183 -0.01162519
N 19.89277092 11.97789564 8.77802490 0.00473533 -0.00167138 0.00405946
N 7.56176280 17.80564516 7.27720322 -0.00145138 0.01058840 -0.00400966
N 15.24174507 13.98164199 15.02425327 -0.00699943 -0.00126689 0.00074449
N 17.65145793 18.03913855 21.97876184 0.00058580 0.00663098 0.00110934
N 6.30546104 5.69014378 20.64351509 0.01156788 -0.00309447 -0.00184719
N 14.27425748 27.01649060 9.11400715 -0.01050125 0.00075047 -0.00560941
N 6.54109510 9.19960320 3.02018749 -0.00730252 -0.00437371 -0.00651515
N 6.44074240 1.40200166 19.06285001 0.00529730 0.00658495 -0.00647001
N 11.64859851 2.78255640 16.74642351 0.00381178 0.00515490 -0.00442959
N 10.89340963 16.26404627 15.46243131 -0.00293684 -0.00015115 -0.00043566
N 20.75334231 7.41223898 2.47556189 0.00122740 -0.00506511 0.00232637
N 3.27032585 14.07740015 21.33485580 0.00585135 0.00208090 -0.00877040
N 6.63747224 12.39331064 6.89840338 -0.00439758 -0.00112043 0.00177852
N 16.18494022 4.15718759 25.25630252 -0.00184158 -0.00585962 -0.00341978
N 3.53259020 14.55239164 3.72739581 0.00367166 -0.00040929 0.00994425
N 14.14335403 9.85418143 0.50699925 0.00120118 0.00206160 0.00485044
N 11.58691725 20.25258280 19.08908805 0.00206019 -0.00313871 -0.00017576
N 16.11923602 3.26969729 7.96559643 0.00374951 0.00392169 -0.00052652
N 8.96158170 21.01408438 7.11871109 -0.01347559 0.00149164 -0.00114029
N 17.12031291 29.51213751 18.28630061 -0.00147681 0.00320789 0.00034210
N 21.80790643 5.85956745 16.60853812 0.00450271 0.00222491 -0.00486249
N 9.29230511 12.99335968 23.73609593 -0.00132965 0.00464427 -0.00275993
N 11.29810869 0.17249929 22.29773597 0.00681864 0.00514315 -0.00161039
N 7.27941321 19.31589211 25.68303205 -0.00317233 -0.00793265 -0.00665600
N 15.55534912 25.70600614 1.89078050 -0.00051744 -0.00501216 -0.00086754
N 7.05716630 27.77597170 18.42638475 0.00498633 0.00148048 0.00196720
N 14.98700495 15.75897063 23.29773617 -0.00030214 -0.00498107 0.00917135
N 16.82419223 20.27640531 4.91292892 0.00389807 0.00117086 -0.01101306
N 0.40661908 10.95761013 16.48655769 0.00236558 -0.01147436 -0.00667429
N 12.18950831 0.20762833 0.02016922 0.01033733 0.00014903 -0.00231181
N 18.66013988 9.83104113 3.24272469 -0.00261513 0.00488232 -0.00147814
N 18.62407672 24.15943644 9.40139758 -0.00016793 0.00017880 0.00234706
N 0.78133837 16.75244730 1.78873093 0.00254400 -0.00371149 0.00467418
N 13.62953259 17.72616492 0.68130270 -0.00540689 -0.00590179 0.00258826
N 19.33339012 1.31639993 2.50880987 0.00135911 -0.00357939 -0.00570538
N 18.01210055 11.28225918 15.75269496 -0.00110900 0.00030901 0.00211987
N 6.38335774 17.82731322 22.34724752 0.00484450 -0.00577758 0.00111606
N 13.82786988 23.46522858 20.60006699 0.00351576 0.00610117 -0.00730125
N 16.46080034 11.90165136 25.79561913 -0.01296755 0.00218919 0.00203893
N 20.58896389 2.18289912 26.73796423 -0.00163851 -0.00227439 0.00205960
N 22.34725692 5.48826155 23.06411338 -0.00400160 0.00092941 0.00364072
N 16.31640090 8.14568083 20.13147219 0.00336234 -0.00247574 -0.01303592
N 22.57353163 13.72991092 21.95382667 0.00284391 -0.00982748 -0.00530294
N 20.11252201 2.99524434 13.51810798 -0.00881656 -0.00772488 -0.00580656
N 18.68821592 19.84634715 10.09255820 -0.00133151 0.00532154 0.00773326
N 9.67362354 0.51108844 2.94813667 -0.00364551 0.00256844 0.00227927
N 18.55090510 26.49422559 13.23948702 0.00394062 -0.00068641 -0.00113087
N 17.12739957 16.54321982 12.31696131 0.00199122 0.00359666 0.00221932
N 2.85057073 19.59577238 1.11022638 0.00010223 -0.00896522 0.00381922
N 16.94066999 5.89817336 10.87693162 0.00686149 -0.00316743 0.00356514
N 10.24655886 22.61085996 2.59752095 0.00528073 0.00365758 0.00546700
N 4.69433183 25.57166745 16.85138206 -0.00429388 -0.00098695 0.00425717
N 11.60729852 25.14951661 5.28839595 0.00527378 0.00600187 0.00438858
N 13.99184601 27.44830388 25.61339026 0.00162705 -0.00210725 -0.00054998
N 21.25956487 19.81421234 4.57220532 0.00244808 0.00392161 0.00193876
N 19.19215194 5.89042439 20.99351093 0.00363801 -0.00173169 0.00689597
N 3.33002619 28.24609561 13.66426121 -0.00425122 -0.00625652 -0.00197886
N 1.95711501 21.33650435 8.35068026 -0.00535116 -0.00292235 -0.00784392
N 21.57708625 18.56837866 16.42939402 0.00299990 0.00404266 0.00643342
C 11.86891688 3.63896883 13.08368078 0.00090621 0.00355788 -0.00526980
C 6.89557928 6.32113525 11.93401878 -0.00236817 0.00773026 0.00149217
C 19.56000172 19.21759369 26.69855303 0.00115167 0.01323340 -0.00611588
C 4.47671215 6.31305208 8.49798518 -0.00441090 0.00514027 -0.00469461
C 0.51987737 14.13466790 10.53404570 -0.00111899 -0.00800259 0.00065744
C 1.68580234 18.47923594 22.68425107 -0.00269134 0.00441966 0.00019523
C 8.49171737 20.83605395 15.23747653 -0.00050746 0.00011261 0.01238209
C 3.63474239 2.53558237 4.16745119 -0.00592167 0.00289560 0.00385431
C 10.93091290 4.56992193 12.54111049 -0.00347622 -0.01206211 -0.00663724
C 7.53098942 5.85331991 10.81530507 -0.00321094 -0.00366494 -0.00394810
C 20.71054159 18.94383793 25.88002126 0.00232550 0.00308370 0.01081820
C 5.07386842 5.69381232 7.39695506 -0.00258483 0.01050526 0.00527358
C 0.82863354 12.80187421 10.31520736 0.00649812 -0.00898662 0.00629970
C 1.36193537 17.95486147 23.87536352 -0.00284068 0.00001520 0.00691307
C 8.65333439 20.02205193 16.32796783 -0.00327193 -0.00207298 0.00113506
C 4.75011878 1.80196248 3.74002336 -0.00794222 -0.00043948 -0.00118270
C 10.82131995 5.85618062 13.08912808 0.00381854 0.01371401 -0.00390231
C 7.19118505 4.63888486 10.24633525 -0.00373580 0.00600704 -0.00248993
C 21.47024287 20.09779263 25.44617215 0.00810513 -0.00677512 -0.00210785
C 4.70446811 6.12056489 6.06485653 -0.00300156 0.00019766 0.00127264
C 0.81181098 12.23899819 9.03807983 0.00257054 -0.00209630 0.00357701
C 0.33492635 17.03520029 24.05921156 0.00625839 0.00354222 -0.00616472
C 7.77983656 19.93893829 17.44281947 -0.00585615 -0.00274161 -0.00267938
C 4.80102435 0.43934689 4.20105429 0.00614047 -0.00269724 0.00121965
C 11.38142787 6.11801808 14.38020837 -0.00491244 -0.00044994 -0.01110648
C 5.99077447 4.04593549 10.65386655 0.00589955 -0.00498223 0.00269958
C 21.25582775 21.35962585 25.99494424 -0.00146889 0.00573418 0.00411387
C 3.73238541 7.00782222 5.90625731 -0.00287199 -0.00818629 0.00250351
C 0.11956841 12.95958194 8.08525686 0.01236464 0.00938675 -0.00010716
C 21.98964929 16.82104511 22.98018611 0.00316895 0.00555314 0.00541995
C 7.06623244 21.10046601 17.69454330 0.00910241 0.00745527 0.00020072
C 3.99103637 0.02042944 5.28776103 0.00331562 0.00383850 0.00228297
C 12.35793389 5.26763019 14.84619286 -0.00503053 0.00514087 -0.00219861
C 5.32227121 4.49637866 11.85781922 -0.00702435 0.00108996 0.00098217
C 20.22329000 21.56495057 26.90835248 0.00215090 0.00041396 -0.00814648
C 2.94316815 7.41184629 6.95140156 -0.01280021 -0.00193751 0.00586745
C 22.34913569 14.23864528 8.31177102 -0.01467080 0.00096496 0.00185810
C 22.28990725 17.42996095 21.77843395 -0.00487157 0.01195457 -0.00692624
C 7.13307256 22.17194277 16.81374606 0.00534661 0.00119003 0.00589424
C 3.05958733 0.89129161 5.77591149 0.00237146 -0.00213795 0.00190920
C 12.69196926 4.08701821 14.17126829 0.00506713 -0.00456144 0.00273343
C 5.76549577 5.66947450 12.40908766 0.00038270 -0.00484856 0.00421660
C 19.37761772 20.45842758 27.25601559 0.00026726 -0.00058979 0.00249657
C 3.33839929 7.09237205 8.30420037 0.00319210 -0.01396084 0.00489257
C 22.63511318 14.90562496 9.54765417 0.00868097 0.00107819 0.01470033
C 0.72034797 18.28560751 21.62294534 -0.00079299 -0.00077718 0.00505716
C 7.66850549 21.97660361 15.50083575 0.00617298 -0.00302405 -0.00502780
C 2.87414768 2.16783898 5.18655608 -0.00099480 0.00473916 0.01099146
C 14.28170889 2.25225256 14.28827109 -0.00719121 0.00310136 -0.00055995
C 3.74379267 6.15095498 13.54750815 -0.00000818 -0.00376313 -0.00837378
C 17.37945549 19.84428403 0.23406430 -0.00137824 0.00941020 0.00695947
C 1.22796467 7.60455901 9.49811956 0.00303518 -0.00775517 -0.00406904
C 22.28833364 16.83516510 10.92589276 -0.00223351 0.00203357 -0.00453936
C 1.67048499 19.94402209 20.18942913 0.00845529 -0.00515631 -0.00354251
C 7.25411504 24.31202196 14.72990151 -0.00645503 -0.00268125 -0.00051958
C 1.20142781 3.15158201 6.83884214 -0.00652635 0.00533489 -0.00182582
C 22.17827898 24.33007989 18.56151833 -0.00193932 -0.00214888 -0.00687374
C 3.07211239 7.47744721 13.76176892 -0.00378148 0.00498101 -0.00404513
C 7.73205295 2.95168589 5.30640701 -0.00329617 0.00653561 0.00616093
C 11.75043789 6.63577725 21.67336502 0.00024205 -0.01312077 -0.00410753
C 6.43859680 9.73364282 23.81685527 -0.00260586 0.00527920 0.00303113
C 1.86466942 20.22507906 18.75644252 -0.00020230 -0.00342886 -0.00450045
C 3.48152313 28.93924332 23.36397045 -0.00791728 -0.00812435 0.00041965
C 15.38441424 9.64196298 7.75179148 0.00603411 -0.00295422 -0.00179998
C 7.10003138 5.75326488 15.77173654 0.00240449 0.00221156 0.01185230
C 6.12574038 7.28214473 27.34711409 0.00286389 -0.00110699 0.00081692
C 2.31940594 9.15200469 24.49516644 0.00115551 -0.01262565 0.00511991
C 12.62001571 8.68319470 18.06757105 -0.00546886 0.00835354 -0.00769639
C 21.19297370 15.18918775 4.42898046 0.00516640 0.00235234 0.00495580
C 5.99869888 10.46184388 12.40064857 -0.00276312 0.00265671 -0.00421720
C 10.22706693 23.70446518 24.04796799 0.00917234 0.01112369 -0.00862833
C 13.26429178 10.37018273 10.17423047 -0.00248815 0.00951363 -0.00173894
C 6.36960239 6.50857112 16.58201701 -0.00272736 0.00080394 -0.00162749
C 6.92624586 6.24257939 27.04465838 0.00106517 -0.00082842 -0.00284389
C 2.56087192 7.79568210 24.59957231 0.00127586 -0.00247390 -0.00140584
C 12.86148094 9.40134043 16.90623711 -0.00017875 -0.00332846 0.00465739
C 21.85014893 15.95529650 5.36524736 0.00015307 -0.00309136 0.00587123
C 5.69253187 10.28341734 11.06892733 -0.00359743 0.00096149 0.00291522
C 11.15665130 22.71253467 24.33424796 -0.00648771 -0.00234908 0.00132050
C 12.72264807 9.98721257 11.38446146 0.00844051 0.00212843 -0.00586752
C 4.98678395 6.16124677 16.88400509 -0.00973473 -0.00278515 -0.00329964
C 8.22958351 6.36856187 26.47955078 0.00390075 0.00068864 -0.00352555
C 2.39476528 7.25829576 25.88900829 0.00041728 0.00038175 0.00166869
C 11.69952302 9.62857439 16.09623813 0.01078704 -0.00130237 0.01078187
C 21.08895865 16.82599600 6.15261647 -0.00117482 -0.00919559 0.00424524
C 4.41701429 10.54276886 10.55657568 -0.01154589 0.00893230 -0.00155894
C 11.20540268 22.15089657 25.59673351 0.00263060 -0.00070334 0.01017481
C 11.46427747 9.39903487 11.52450462 0.00146938 0.00410429 0.00425216
C 4.44816199 4.95382231 16.42246443 -0.00703472 -0.01019842 -0.00488642
C 8.71635929 7.67372962 26.41677948 0.00542396 -0.00608337 -0.00094615
C 1.69117946 8.02244378 26.82639612 0.00862657 0.00530507 0.00553706
C 10.41137694 9.44070974 16.63234722 -0.00216519 -0.00652510 0.00367167
C 19.79259055 17.15710015 5.65200916 -0.01071406 0.00191657 0.00819815
C 3.35079689 10.80053925 11.44161080 -0.00213142 0.00144957 0.00013191
C 10.17015964 22.48527909 26.56773907 0.00693532 0.00143131 0.00056437
C 10.80205075 9.11457981 10.34496310 -0.00485594 0.01362496 0.00849676
C 5.23730819 4.17951393 15.64169132 0.01155514 0.00209770 -0.00186569
C 7.94262959 8.75943986 26.81312758 -0.00682411 0.00212914 -0.00100117
C 1.39756868 9.36941929 26.65962415 0.00389201 -0.00016853 0.00331030
C 10.20211290 8.78322517 17.82424001 0.00407307 -0.00324113 0.00537643
C 19.24873862 16.41443449 4.68001088 0.00118077 -0.00113178 0.01238129
C 3.68519744 10.85493317 12.82537676 -0.00348439 -0.01151620 -0.00736149
C 9.16573985 23.30726697 26.17287457 0.00067018 -0.00093586 0.00288918
C 11.46269005 9.28581711 9.11019420 -0.00586245 -0.01000753 0.00141465
C 6.58353096 4.60569560 15.32342689 0.00634432 0.00379383 -0.00414567
C 6.63399861 8.53583931 27.27411416 -0.00765380 0.00549533 0.00264554
C 1.88288110 10.01766539 25.46772477 -0.00486383 -0.00239759 -0.00073060
C 11.34450574 8.41521149 18.49633084 0.00343274 0.00922493 0.00119221
C 19.84851027 15.41130456 4.00944204 -0.00362143 -0.00691665 -0.00608681
C 4.97088127 10.67973000 13.32001212 -0.00571961 -0.00803202 -0.00064944
C 9.19718468 23.99086090 24.96534052 0.00280093 -0.00342236 -0.00240310
C 12.62810392 10.02503635 8.99658990 0.00525368 -0.00198456 0.00501661
C 7.39272367 2.32635232 14.77677091 -0.00653888 0.00404361 0.00054923
C 5.65623379 10.74857594 26.92945008 -0.01080304 -0.00427532 0.00157586
C 1.55237041 12.27182632 26.26537161 0.00383311 0.00336411 0.00498297
C 12.20470797 7.35925277 20.52787938 -0.00038318 -0.00238421 -0.00280911
C 18.16971088 15.08318122 2.28495594 0.00310592 -0.01177905 -0.00218911
C 4.33607676 10.53330004 15.67740113 -0.00205887 -0.00504234 0.00032224
C 8.36521416 26.07612183 23.90333250 -0.00035290 -0.00292676 -0.00486750
C 14.33116279 10.73338455 7.24605035 0.00346928 0.00467073 0.00354158
C 12.40839244 19.80194872 11.18082988 0.00004165 0.00063279 0.00365382
C 4.34557062 11.48791715 27.19229904 0.00031698 0.00187892 -0.00196260
C 10.54546951 24.61657563 14.32022501 0.00699654 -0.00172507 -0.00228059
C 0.22898567 6.93758070 8.51155084 -0.00094357 -0.00763036 0.00425123
C 21.85489654 28.09332812 17.13332919 -0.00015195 -0.00651210 -0.00306603
C 4.66199737 10.54569856 17.16192430 -0.00373876 0.00986884 -0.00470823