1920
Time=31000.00000001 pbc="T T T" Lattice="23.04030837 0.00000000 0.00000000 0.00000000 30.90094968 0.00000000 0.00000000 0.00000000 27.88116830" energy=-12189.47317034 virial="-43.15076448 -20.55329567 20.30903275 -20.55329567 9.00072820 65.18693297 20.30903275 65.18693297 46.03457360" stress="0.00153748 -0.00106484 0.00103060 -0.00106484 0.00417601 0.00336649 0.00103060 0.00336649 0.00604167" Properties=species:S:1:pos:R:3:vel:R:3
O 10.04170605 6.58343397 13.04057511 0.00798362 -0.00300791 0.00977622
O 8.03377053 3.99697323 9.62657843 0.00300900 0.00647533 -0.00158385
O 22.63569956 21.32805513 24.54468806 0.00307839 -0.00267205 0.00083430
O 5.35524136 7.14947086 6.26187825 0.00697826 0.00245949 0.00251568
O 2.78530586 10.65359998 7.81075231 0.00300553 -0.00716603 -0.00701940
O 22.85450048 16.53140983 24.29310684 0.00112635 0.00609296 0.01028759
O 8.26378952 18.70115250 17.44733476 0.00007984 0.00544789 0.00020133
O 5.73848899 30.57115051 4.27692122 0.00427775 -0.00893456 0.00414401
O 6.05152364 1.08730357 13.74922456 0.00000164 -0.00348381 0.00404690
O 2.62104845 5.34488087 12.84412273 0.00323364 -0.00447910 0.00022581
O 19.23587301 18.60434426 1.02265400 -0.00030831 0.00049096 0.00227296
O 12.85621030 7.68888072 20.59874342 -0.00511237 0.00320690 -0.00622226
O 17.60833127 14.02234301 1.39143658 -0.00293675 0.00414759 -0.00674341
O 3.16674500 20.10912575 20.27872704 -0.00222138 0.00131202 -0.00409931
O 5.90159114 23.94628474 15.18908518 -0.00096185 0.00696226 0.00043021
O 14.40554877 12.31090898 7.59594524 -0.00270130 0.00709643 -0.00887117
O 3.73056890 5.63522146 17.36996951 -0.00593793 -0.00572842 -0.00057739
O 9.05669349 6.03216106 27.26118565 -0.00454233 -0.00090162 0.00532686
O 2.45596378 5.93978999 25.91216603 -0.00842232 -0.01033912 -0.00358681
O 12.40772779 9.99258009 14.74724158 -0.00576277 0.00327507 -0.00409115
O 22.48454855 17.43315598 6.15386330 0.00055344 0.00334346 -0.00264494
O 5.11382938 10.34320294 9.96194947 0.00551440 -0.00542433 -0.00106405
O 12.71205719 21.04337169 25.59154837 -0.00247644 -0.00520235 -0.00062455
O 10.79869239 9.07238014 13.18536948 -0.00638862 0.00575070 0.00765903
O 14.75588848 2.04797609 12.77745670 0.00282443 0.00318771 -0.00100488
O 7.38758609 11.90664844 0.77832827 -0.00370417 0.00519815 0.00869733
O 1.54826300 12.07541326 27.73164172 0.00836678 -0.00663804 0.00099514
O 21.92464958 7.36751002 9.87867616 0.00543533 -0.00183663 0.00023879
O 0.43358908 14.70420300 12.20530842 0.00538310 -0.00264777 -0.00344174
O 3.48485311 10.29375682 16.01678149 -0.00367307 -0.00101958 -0.00046267
O 9.40954726 24.72996624 21.39438177 -0.00084243 0.00441665 -0.00387433
O 0.24417259 3.29487292 7.25046807 -0.00551165 0.01126731 0.00354633
O 5.72475692 24.99886769 8.70693351 0.00697074 0.00036877 -0.00856606
O 21.47270500 30.42021313 7.50330268 -0.00787653 0.00959650 -0.00853802
O 4.77063648 27.20081064 9.31028524 -0.00459119 0.00897923 0.00366662
O 3.90984316 20.32917636 11.52647918 0.01417820 -0.00185236 -0.00442946
O 2.79284238 2.73325333 13.27083051 -0.00104851 -0.00724908 0.00384386
O 18.85021933 29.73875004 27.07410490 -0.00421810 -0.00703463 -0.00013089
O 6.26914405 23.20295979 26.59953455 0.00272462 -0.00002152 -0.00738428
O 5.28193512 0.07264822 0.18337689 0.00318882 0.00754867 0.00456641
O 22.19581795 22.87245366 18.81095611 -0.00179251 -0.00089382 -0.00169191
O 1.45886635 24.99640353 5.85204833 0.00583119 -0.00750605 0.01131753
O 7.27635586 2.07616243 8.05689996 -0.00681065 0.00472361 0.01560615
O 2.62844032 24.20933880 0.13663884 0.00983224 0.00021629 -0.00450982
O 8.66398457 8.80406514 24.87457559 0.00107499 -0.00680521 0.00770418
O 19.25547836 26.87530684 5.06158623 -0.00120439 0.00178834 -0.00164757
O 6.42078847 29.62593119 26.14845141 0.01068157 -0.00447149 -0.00681395
O 17.00491061 27.93199316 20.18814762 0.00075912 0.01174704 0.00403183
O 18.62488924 20.09818452 23.28204298 0.00497853 -0.00084038 -0.00643938
O 21.90836360 26.07999746 26.04424213 -0.00145659 -0.00163559 -0.00575552
O 14.42123912 27.99850681 19.99252393 -0.00979360 -0.00603320 -0.00720103
O 6.01337543 28.12338935 3.67525202 0.00690746 0.00351607 -0.00139990
O 7.95485024 2.45030710 23.35193038 -0.00176991 -0.00295278 0.00126257
O 0.72741602 21.90312808 22.27680551 0.00037910 -0.00530315 -0.00606864
O 5.64192432 14.22363420 17.27327176 0.00477809 0.00302366 -0.00172916
O 20.18878402 27.80094662 25.66421105 -0.00087815 0.00003475 -0.00727361
O 9.67767753 20.20334238 10.74970542 0.00406491 0.00671506 -0.00249577
O 1.44934392 29.46530358 2.66500115 0.00205482 0.00124135 -0.00422979
O 11.89241505 24.92529796 15.33170962 0.00178450 0.00713109 -0.00517332
O 1.94634211 15.80434344 15.40809379 0.00216858 0.00248817 -0.00323462
O 0.37077806 28.61025471 16.00018327 0.00507992 0.00370796 -0.00499198
O 1.38616065 27.77639726 20.10462936 -0.00394486 0.00641785 -0.00470437
O 4.39633648 15.18682586 10.08695751 0.00033778 -0.00058727 -0.00050233
O 1.35054092 5.11141479 0.21779884 0.00536078 -0.00774322 -0.00441537
O 5.47422639 15.84893971 25.73154072 0.00489124 0.00457727 -0.00067301
O 8.19526772 7.68432466 8.53036845 0.00253313 0.00074673 -0.00297550
O 11.46699805 5.58089709 26.32927982 0.00112550 -0.00240835 0.00205320
O 8.40004591 13.65143383 13.49660355 0.00318174 -0.00190893 0.01017168
O 9.44182162 13.57895481 3.79311397 0.00111102 -0.00239562 0.00422819
O 15.00624723 16.37945040 3.90465736 -0.00513808 -0.00586973 -0.00029657
O 13.54628545 6.99601937 10.08509265 -0.00981386 0.00237296 0.00430506
O 16.57309138 15.17620507 16.52266553 -0.00241620 -0.00300458 -0.00135658
O 16.22705199 29.98247300 16.17154109 0.00206353 -0.00049121 -0.00351317
O 9.03485807 6.34933765 2.40971972 0.00617970 -0.00322186 0.00213752
O 16.12680286 3.50795380 22.94652423 -0.00637455 -0.00170847 -0.00384789
O 4.89519771 11.28392638 3.42546584 -0.00116168 -0.00454633 -0.01011057
O 6.54533219 18.10672496 25.08581984 0.00304724 -0.00346016 0.00084363
O 17.91800707 12.22297741 7.83860971 0.01305035 0.00099518 -0.00052972
O 16.32915314 2.03405129 5.12609332 0.00339144 0.00329924 0.00484707
O 22.72613789 8.84761700 0.92217649 0.00165090 0.00120146 -0.00340355
O 21.62782473 0.24963724 21.52909155 -0.00062017 -0.00002747 -0.00900067
O 3.22797892 9.16085656 21.60891658 -0.00129163 -0.00896837 0.00157644
O 7.01584060 12.36830962 18.38340474 0.00364434 -0.00850837 0.00091538
O 3.46408215 4.98629054 1.91733289 0.00459112 -0.00286713 -0.00398972
O 4.85776246 22.21987376 20.55339374 -0.00788170 -0.00314336 -0.00006214
O 12.09222518 29.26938094 14.57629953 0.00197713 -0.00520039 -0.00335358
O 5.45033447 25.03875949 21.18573477 0.00099406 0.00003118 -0.00663022
O 16.93066859 8.35444822 26.27758030 -0.00064829 0.00454449 0.01046167
O 4.26064374 11.41033555 21.49951130 0.00316846 -0.00699814 -0.00041245
O 8.53598628 6.10221397 19.06572439 0.00184675 0.00531106 -0.00371677
O 11.01986786 14.00050375 24.74198389 0.00120160 -0.00184970 0.00018736
O 10.69999143 13.10814426 19.22859131 0.00152871 -0.00479160 0.00114430
O 15.20034550 9.29391228 1.09617057 0.00363291 0.00496084 0.00630703
O 14.09899397 3.63733414 17.56240139 -0.00738076 0.00429083 -0.00513272
O 8.05303014 26.60483725 15.57606384 -0.00272868 -0.01102362 -0.00011762
O 15.77781025 8.95848758 15.18004765 0.00615220 -0.01343290 -0.00185496
O 6.87396111 14.51479235 27.06975711 0.00595520 0.00328939 0.00025019
O 11.77555857 14.19847621 10.46477423 -0.00324202 -0.00599935 0.00651184
O 15.02409528 6.91537807 2.34801356 0.00762009 0.00211949 0.00240986
O 5.70931073 14.77253089 7.56198757 0.00255168 -0.00939581 -0.00130898
O 12.98705032 1.34842954 7.37639097 -0.00740984 0.00585210 0.00270327
O 16.22011790 17.22065736 15.29622236 -0.00066023 0.00165133 0.00556371
O 7.78277566 18.19540635 12.47369699 -0.00070583 0.00114875 0.00149324
O 9.73208139 16.94070373 6.99776285 0.00360310 -0.00253224 -0.00367493
O 18.43787720 17.53164426 19.13542759 -0.00205646 0.00253649 0.00619558
O 7.16850690 10.35509114 8.49901030 -0.00734182 0.00428014 -0.00008642
O 12.33515464 4.00045322 7.19230747 0.00075573 0.00161901 0.00122982
O 10.33393222 2.59100755 22.41402938 0.00032202 0.00320134 0.00189790
O 5.21579303 1.83724295 20.82919085 -0.00021154 -0.00316623 -0.00928298
O 10.86419988 20.44056998 16.86552323 0.00299957 0.00526320 0.00235998
O 4.80550876 18.87545338 5.41079680 -0.00071890 0.00519164 -0.00143029
O 14.49980980 16.40716242 20.09271778 0.00244408 0.00471317 -0.00561844
O 19.69281151 13.21158158 23.51713348 -0.00396525 0.00839469 -0.00270304
O 20.10641448 6.74669142 11.77310178 0.00376524 0.00695748 -0.00027586
O 13.27203495 23.49910732 13.11273696 -0.00608291 -0.00581164 -0.01032408
O 8.86065222 29.23756795 27.23265712 -0.00108972 -0.00363913 -0.00081710
O 11.09224959 30.70393856 19.94792298 -0.00774489 0.00531836 -0.00051068
O 16.29972708 23.22390340 24.51183811 -0.00407912 0.00025467 0.00211941
O 12.06091209 16.40858602 19.89452219 0.00502203 0.00090074 0.00177210
O 14.79766648 21.05057996 24.21127180 0.00033424 0.00472206 -0.00417154
O 9.80106420 15.87585409 4.68635059 -0.01055345 0.00776110 -0.00093437
O 1.19439197 5.97757584 16.80757781 0.00199953 -0.00024974 -0.00197945
O 15.81413900 26.37605870 8.07214466 0.00305609 0.00701809 0.00397551
O 0.99569797 13.41853445 2.17845146 -0.00485586 0.00366602 0.00058812
O 11.03933262 28.61824003 12.47066674 0.00119977 -0.00249250 0.00090577
O 14.57507628 24.91615220 2.37545112 0.00414461 -0.00820989 0.00534876
O 9.03724038 16.54386717 13.98504228 -0.00256088 -0.00295822 -0.00588695
O 8.23584679 22.63511475 4.20406664 -0.00105021 -0.00250202 0.00777870
O 21.20847795 1.97311762 7.83508568 -0.00102432 0.00044102 0.00160157
O 22.65868704 12.06765328 12.13681975 -0.00224876 -0.00345283 0.00973259
O 7.61477084 3.97048438 27.07839004 -0.00612227 -0.00742149 0.00009716
O 21.95493308 13.14174558 0.31393778 0.00358723 0.00531534 0.00277070
O 13.84757809 14.50127550 9.03559441 0.00147782 -0.00095743 -0.00372119
O 5.28570752 17.85088280 2.73376030 0.00001460 0.00549690 0.00189410
O 20.60914638 7.60205704 5.84782161 -0.00328656 0.00178451 0.00660345
O 17.02868976 5.52313888 3.48847141 0.00056972 0.01259766 -0.00160817
O 3.25744788 25.41923452 18.64137907 0.00548172 0.00016137 -0.00012771
O 1.58885013 8.53145612 16.80390741 -0.00174227 0.00860695 -0.00284374
O 10.01128927 30.47662834 4.53674363 -0.00367612 -0.00304303 -0.00260205
O 18.10588948 12.33563116 25.28420125 -0.00489985 0.00201946 0.00212129
O 19.19494403 6.18214569 18.43832367 0.01052978 0.00205173 -0.00451043
O 0.22803063 17.39163154 26.52835088 0.00908347 -0.00048625 0.00702989
O 19.32728330 4.31192587 11.09315825 0.00013909 -0.00811073 0.00527024
O 1.06490082 15.17266439 20.27972506 -0.00416569 0.00334505 -0.00604784
O 4.64891197 0.22330239 16.01387214 0.00314250 0.00581783 0.00096839
O 11.68258828 18.53332744 25.13269483 -0.01003247 -0.00234324 -0.00703267
O 15.84172336 1.07178599 22.03565896 0.00023163 -0.00410811 -0.00285363
O 13.54508132 8.10863462 23.03326458 -0.00172502 -0.00001066 -0.00093045
O 20.17622628 11.64104793 21.54067951 -0.00242675 -0.00102076 0.00085740
O 2.87058739 2.20128198 22.01304920 0.00325329 0.00278602 0.00013447
O 1.97174934 17.77516785 6.50430963 -0.00019351 0.00438010 -0.00438579
O 21.20004493 10.02472376 24.86825067 -0.00294862 -0.00409707 -0.00251125
O 20.28878807 0.52404049 13.92920363 -0.00780579 -0.00339326 -0.00856579
O 7.74037777 18.51102222 19.95848659 -0.00574905 -0.00955831 -0.00422482
O 13.42894571 26.23923485 23.22675403 0.00219562 0.00299060 -0.00255902
O 19.19714493 9.70467248 5.16146677 -0.00487234 -0.00528668 -0.00624850
O 18.75091374 15.87109925 12.66113429 0.00005006 -0.00105929 -0.00726413
O 21.22895716 7.67630831 23.89157512 -0.00110855 0.00040798 0.00121833
O 0.55907260 22.43493936 10.11457972 -0.00466437 0.00025193 0.00365388
O 22.39368599 30.73862130 2.30134124 0.00905873 -0.00797230 0.00056446
O 14.36420947 18.45773961 8.21266320 -0.00192368 -0.00816968 0.00381166
O 16.16255570 21.08701856 13.66347900 0.00344051 -0.00766864 -0.00502233
O 13.78031249 30.28295046 5.56512284 0.00140164 0.00330855 -0.00305995
O 14.48539482 30.56373375 12.46176379 0.00497458 0.00297719 0.00240916
O 22.18736252 26.85957578 11.62357519 0.00819567 -0.00975312 0.00622229
O 5.60801431 22.42788426 4.35088364 0.00874568 -0.00423196 0.00270660
O 14.04862876 12.63699226 26.81392670 0.00029993 0.00701469 -0.00204988
O 10.56105234 27.59794208 0.52303206 -0.00835769 -0.00342824 0.00287862
O 20.08600601 13.71834812 14.93095433 0.00310186 -0.00251129 0.00240104
O 21.52442846 19.40421343 10.71668851 -0.00440379 0.00529150 0.00006296
O 14.82993276 1.66831981 27.55118664 0.00628290 -0.00567640 0.00188889
O 0.26238860 19.42699614 2.84166762 -0.00469722 0.00707712 -0.00382002
O 21.53146170 1.60068295 23.85668209 0.00592397 -0.00784574 -0.00107253
O 1.88910288 21.23881911 25.83070348 0.00609334 0.01103439 0.00455449
O 14.33414936 20.03971897 1.06579685 0.00088049 0.00663381 0.00137743
O 20.74173355 18.17204964 18.01165041 -0.00125655 -0.00306659 -0.00590390
O 18.72197009 10.54244752 9.51676694 0.00735865 0.00003538 0.00228575
O 13.35133652 22.15830779 8.49297147 -0.00728951 0.00230135 -0.00196522
O 17.45716120 21.94825780 15.60780936 0.00299599 0.00157116 0.00625046
O 20.47926207 25.38337346 6.72338459 -0.00408716 -0.00097209 0.01256742
O 17.02750810 3.00650761 27.75178260 -0.00368966 -0.00432143 -0.00266579
O 1.53739211 22.37561092 12.40384606 -0.00824420 0.00487271 -0.00636830
O 16.52204042 4.56933848 17.02017867 -0.00086378 0.00179747 0.00293811
O 21.89349359 23.80921629 15.21307228 0.00130272 0.00212774 0.00194254
O 16.31197559 22.45614748 3.69843466 0.00171091 0.00768766 0.00092180
O 10.03696340 27.92609095 4.77347081 -0.00699553 -0.00202587 -0.00290122
O 13.61215084 23.99897362 21.97680645 0.00041491 0.00292855 0.00593370
O 19.79476607 25.35824831 14.66390302 0.00122740 -0.00018611 0.00310879
O 15.89724297 22.99698053 8.98376986 0.00316747 0.00055203 -0.00502780
O 4.29798367 28.04198713 11.67736576 -0.00417097 0.00081308 -0.00695086
O 16.18378540 10.66335901 18.76739302 -0.00768250 0.00046938 -0.00720799
O 12.61703200 21.72086625 1.80041819 0.00090215 -0.00128897 0.00160775
N 10.11865683 22.40952149 11.07274131 -0.00177795 -0.00301187 -0.00080323
N 4.65896206 6.01076291 13.54065978 -0.01073064 -0.00555779 -0.00781227
N 7.55787939 0.42083026 6.53563465 0.00524695 -0.00367651 0.00062378
N 1.21122784 7.39868370 10.15693161 0.00473234 -0.00833050 -0.00790062
N 22.55234092 29.20459794 14.01251764 0.00116672 0.00878854 -0.00344382
N 1.22281316 19.05684644 19.61125190 -0.00667308 -0.00069149 -0.00614209
N 5.55995578 28.33800729 24.49346769 0.00590893 0.00139260 -0.00069501
N 1.89614003 3.31004809 5.71120632 0.00426218 0.00136969 0.00450832
N 21.14226347 24.16546557 20.33327033 -0.00418650 -0.00747825 -0.00132679
N 5.81270890 10.37210797 27.84529431 -0.00311144 -0.00964924 -0.00044004
N 10.75980385 24.95183286 17.24209456 -0.00417885 0.00192635 -0.00643806
N 10.82291433 7.73064317 19.46243913 0.00602191 0.00047287 0.00673680
N 6.66922430 7.70288870 24.71397406 0.00320426 0.00739293 0.00871126
N 5.68516049 9.87581534 15.63460815 0.00361713 -0.00460954 -0.00158311
N 5.07618160 16.07679387 12.17647239 -0.00367336 -0.00960621 -0.00930769
N 12.96274135 10.77191189 8.42887983 -0.00145298 0.00097535 0.00505749
N 14.73593051 3.88968500 14.15570955 -0.00148054 0.00263743 0.00402752
N 2.29537464 26.45280101 7.49132208 0.00443444 0.00154538 -0.00114723
N 18.38508706 20.53905097 0.13837561 -0.00885820 -0.00051636 0.00367178
N 3.36453235 17.47170266 16.21347442 0.00318962 0.00276604 0.00928288
N 22.98257661 14.81991813 10.02687671 -0.01115608 0.00617364 0.01105278
N 17.98573112 28.74316157 4.73916418 0.00326225 0.00074084 0.00540427
N 7.19816129 22.64028312 13.91949708 0.00311734 -0.00088356 -0.00699753
N 0.71759503 3.03013831 1.00804107 -0.00451969 0.00346071 0.00579907
N 7.35221746 2.98404381 14.13216704 0.00278470 0.00154300 -0.00424597
N 1.98495075 27.23326621 2.48091727 -0.00487918 0.00440965 -0.00715238
N 2.36739024 11.52410792 25.59670278 0.00035794 0.00356748 -0.00628860
N 3.57911679 26.03296822 27.06420835 -0.01034363 0.00579259 0.00147156
N 19.37643862 14.34271012 2.68172953 0.00420183 -0.01212670 0.00155057
N 1.60811189 27.40584634 22.34114449 0.00528201 0.00727054 -0.00452747
N 9.56936644 25.11062835 23.60485990 -0.00436118 -0.00422825 0.00140699
N 19.23913772 28.18048880 20.10537489 -0.00393343 0.00923472 -0.00136664
N 11.03530562 15.91096455 2.74047221 0.00286934 -0.00396288 -0.00452256
N 10.81346749 7.26708885 3.66725532 -0.00236237 -0.00491415 -0.00376822
N 11.98488000 6.25405346 7.04372647 -0.00165000 0.00277028 -0.00245086
N 12.13074363 12.79504374 17.43972871 0.00277382 -0.00054276 0.00873117
N 9.66286076 29.29997149 10.81616762 0.00254767 0.00802540 0.00354361
N 19.12940391 13.66488991 6.66620318 0.00042717 -0.00258812 -0.00564406
N 5.45957647 18.22884480 7.39871301 -0.00127298 0.00131290 0.00025119
N 15.47091216 10.62462306 13.66001354 -0.00062444 0.01050342 -0.00217370
N 18.17305149 18.13994213 21.32644358 0.00043680 0.00745873 0.00576245
N 6.58943110 5.08377271 19.84454980 0.00298427 0.00265105 0.00017817
N 14.49993245 27.49148339 9.57412190 0.00522664 0.00428564 0.00589300
N 6.43316331 9.59020520 3.04231461 0.00791547 0.00622337 -0.00471329
N 6.01349950 1.45311417 18.67486999 0.00040026 0.00046667 0.00233249
N 12.01008860 3.43665461 16.74166348 0.00537276 -0.00029295 0.00218280
N 11.29753211 16.49674422 14.65342842 0.00571811 -0.00764471 0.00238063
N 20.90091583 8.13491377 2.21928669 0.01065789 -0.00383979 -0.00090298
N 3.65785176 13.55294769 21.06217690 -0.01514888 0.00054024 -0.00353869
N 7.52933970 12.35017895 7.38885032 0.00361152 -0.00209243 -0.00809308
N 16.75769849 4.53392437 24.87315019 -0.00004930 0.00391086 0.00701369
N 3.07257097 14.00472549 2.79929480 -0.00486586 0.00746881 -0.01055774
N 14.10176056 11.06162386 1.98480986 -0.00305167 0.00165517 -0.00884847
N 12.75307309 20.24502166 18.29324979 0.00587202 0.00704930 0.00424632
N 16.21169409 3.83714995 6.43405076 -0.00112357 -0.00263812 -0.00858381
N 8.91726293 22.44629749 6.43165268 -0.01033002 -0.00076515 0.00413268
N 17.49796265 30.52997160 17.82864076 0.00294324 -0.00091389 0.00303015
N 21.90553477 5.82852041 17.04804474 -0.00697558 0.00236841 0.00258518
N 9.60169610 13.06836572 23.28030885 -0.00200385 0.00090649 -0.00895256
N 11.55550689 0.68934669 22.93684452 -0.00674081 -0.00489058 0.00303541
N 7.93228315 20.00431723 24.74692845 -0.01085111 -0.00152314 0.00866495
N 16.12285302 26.18130445 1.34309094 -0.00988097 0.00150682 0.00101330
N 8.54400596 27.73309138 17.54171205 0.00251217 -0.00146275 0.00040795
N 15.26633071 15.96347118 22.29600478 -0.00275001 0.00046672 -0.00783484
N 17.88130773 21.30478599 4.85994464 -0.00568932 0.00112668 -0.00201994
N 0.21114221 10.41111666 17.35688547 0.00144106 0.00402375 0.00357035
N 13.41534546 30.73744471 0.02830975 -0.00219367 -0.00826248 0.00724724
N 18.17571605 9.97899570 3.15852001 0.00303448 -0.00458845 -0.00267011
N 17.90056926 23.62401544 9.92469173 0.00448989 0.00354752 0.00246230
N 0.11924153 16.70986874 0.83119984 -0.00082165 -0.00408072 0.00073531
N 14.44251488 17.79921816 1.00215590 0.00140601 0.00401986 0.00132700
N 20.61421892 1.29746388 2.59083511 -0.00376131 0.00116563 0.00389261
N 19.86463819 11.47539476 14.93135073 -0.00432813 -0.00508033 -0.00010168
N 7.60225057 17.09690196 21.70111671 -0.00151131 -0.00067641 0.00379669
N 14.16972101 23.59308277 19.91231625 -0.01381864 -0.00470244 -0.01445310
N 15.88587516 12.89220175 24.67474256 -0.00582283 -0.01264301 -0.00381995
N 21.97611927 0.97586643 26.05507533 0.00427903 0.00121491 -0.00979838
N 21.90101938 5.82672123 22.89433250 0.00311978 -0.00785703 0.00013628
N 16.84419274 9.06875641 20.29096457 0.00709568 0.00486439 0.00213977
N 0.49837894 14.01290970 22.16615960 -0.00008578 -0.00730835 0.00505031
N 21.52682380 2.30979448 13.31331445 -0.00021740 0.00485314 -0.00686050
N 19.58018302 19.48737441 9.61920090 -0.00163495 -0.00414769 -0.00638356
N 10.19027988 0.73113064 2.62094911 0.00013239 0.00035136 0.00147996
N 18.63480464 26.81020517 13.43578031 0.00660838 -0.00071764 0.00231790
N 17.19398458 17.53111162 12.42168988 0.00261444 -0.01186569 0.00640977
N 3.70555108 21.09140327 27.17918436 -0.00096196 0.00883414 -0.00862373
N 17.64820398 5.49436517 9.97314523 -0.00090909 -0.00039006 -0.00350294
N 10.54580224 22.40682452 2.48369088 0.00528866 -0.00154572 -0.00287820
N 4.05910658 25.64605854 16.52425091 -0.00250301 0.00147395 0.00449593
N 11.07792891 26.04364441 5.39410459 -0.00036709 -0.00550175 -0.01126349
N 14.27329675 27.63138625 24.91984484 0.00075323 -0.00248600 0.00747987
N 22.24297554 20.67623344 4.39549999 -0.00367001 -0.01369546 0.00202021
N 19.00719965 6.07630126 20.70074184 -0.00954200 0.00438447 0.00048304
N 2.87364748 27.71716397 13.46888941 -0.00043501 -0.00448875 -0.00117591
N 0.69217662 22.79508639 7.82768670 -0.00320865 -0.00060447 -0.00631551
N 21.76683773 18.32188036 15.99758572 0.00720393 -0.00537282 0.00402847
C 12.54088856 3.92637169 12.96211317 0.00890353 -0.00394612 -0.00457946
C 6.68791734 6.19122745 12.14942044 0.00308656 -0.00427004 -0.00498408
C 19.80187544 19.67959381 26.23608428 0.00395148 0.00485986 -0.00079271
C 3.58199837 7.05149857 9.42489435 -0.01181294 -0.00876183 0.00197736
C 2.09053686 13.42578932 10.00551090 -0.00189233 0.00025718 -0.00218855
C 1.33708162 19.02448207 22.08555052 0.00959274 -0.00762255 -0.00787107
C 8.04272055 20.53070108 14.41900122 0.00482792 -0.00088844 0.00898903
C 3.73594795 2.69733923 4.29600279 -0.00590980 -0.00447682 0.00189212
C 11.39739314 4.60745952 12.63302164 -0.00613591 0.00394948 -0.00566084
C 7.62566293 5.62767789 11.25384145 0.00370833 -0.00142989 -0.00547054
C 20.90700606 19.80422179 25.31843090 -0.00079694 0.00005736 0.01043970
C 4.57154840 7.05551866 8.49495821 0.00206328 0.00749665 0.00297736
C 2.81648937 12.45872102 9.36725306 0.00465530 0.00092302 -0.00270965
C 0.88757219 18.46322127 23.35060452 -0.00973003 -0.00245670 -0.00274038
C 8.38703876 19.51757460 15.32380456 0.00604818 -0.00052059 0.00342586
C 4.67778481 1.75586370 3.95722736 -0.00436713 -0.00352844 -0.00360021
C 11.19640294 5.89456114 13.18133516 0.00111637 -0.00034132 0.00455108
C 7.19436431 4.58318259 10.48280889 -0.00374153 0.01249221 -0.00320228
C 21.60654254 21.04504904 25.41528008 0.00305484 -0.00052793 -0.00464299
C 4.33831035 7.16644678 7.13841828 -0.00547211 0.00407044 -0.00983773
C 2.20595971 11.69242339 8.34552664 0.00522988 0.00160193 -0.00363502
C 23.00826303 17.35373706 23.29766063 -0.00314370 0.00545380 0.00727403
C 7.84001091 19.69007893 16.63511282 -0.00441118 -0.00123015 0.00473060
C 4.90864722 0.54152861 4.63803061 0.00057446 -0.00738876 0.00004154
C 12.18673726 6.44886196 13.86993081 0.00335242 -0.00158895 0.00795797
C 5.88031667 4.10579564 10.56072183 0.00607507 -0.00799087 -0.00500645
C 21.04544734 22.18718873 26.12315646 -0.00878846 -0.00603241 0.00887446
C 2.97448262 7.30513535 6.79246464 0.00305305 0.00694146 -0.00422707
C 0.99516891 12.17252045 7.77638406 0.00207729 -0.01028237 0.00651401
C 22.41676262 16.98597948 21.96952834 -0.00260035 -0.00793878 0.00362251
C 6.96515875 20.68982815 17.02517302 0.00046662 0.00683869 0.00200483
C 3.99221612 0.27586158 5.79277397 -0.00397939 0.00175946 0.00524474
C 13.33466612 5.76621899 14.25168084 0.00516513 -0.00486269 -0.00014469
C 5.01108868 4.56731936 11.54187771 -0.00429071 -0.00784008 0.00568597
C 19.98372943 21.95052586 26.95167570 -0.00756519 0.00230118 -0.00912926
C 2.02057473 7.32415707 7.80038319 -0.00933288 -0.00075338 -0.00209602
C 0.24378985 13.18219952 8.34520522 0.00057759 0.00213932 -0.00550091
C 22.76229861 17.69168969 20.87737792 -0.00586015 0.00041744 0.00632225
C 6.80765145 21.73217511 16.15576832 0.00108700 -0.00520732 -0.00092993
C 3.06860652 1.18951227 6.16042301 0.00483483 -0.00079023 -0.00503797
C 13.58246086 4.45954559 13.80882585 0.00443664 -0.00901330 -0.00055228
C 5.40742162 5.62349635 12.41467634 -0.00038378 -0.00279375 0.00139453
C 19.34114436 20.70279064 26.96678942 -0.00302165 -0.00842044 0.00226232
C 2.25705437 7.23794539 9.14243843 -0.00723785 -0.00683115 -0.00160364
C 0.74192345 13.79238347 9.47683561 0.00403968 0.00263410 0.00763815
C 0.85584837 18.59145743 20.86457510 0.00807342 -0.00003130 -0.00256077
C 7.33317780 21.65329555 14.86423901 -0.00831940 -0.00749756 0.00419315
C 2.90682736 2.41325976 5.38374593 0.00436786 -0.00003464 -0.00146284
C 15.03167081 2.61555274 13.82555925 0.01197457 -0.00314976 -0.00779890
C 3.35790475 6.12893906 13.42952231 0.00134151 0.00876884 0.00582473
C 18.43585665 19.56683625 1.02731423 0.00772182 -0.00288218 -0.00293711
C 23.00235788 7.94841300 9.77485588 -0.00957156 -0.00020683 -0.00273428
C 22.85243994 15.20386997 11.28841533 0.00874814 -0.00300493 0.00438752
C 2.31481041 19.79135635 19.42349016 0.00105042 0.00123271 -0.00672749
C 6.25451871 23.70749277 14.04758486 0.00234562 -0.00152284 0.00172673
C 1.42987766 3.42861712 7.00172512 0.00166720 0.00315900 0.00317871
C 22.93808986 25.16947955 18.98409854 -0.00118545 -0.00366233 0.00229867
C 2.76158933 7.27097877 14.24386366 -0.00010683 0.00130830 0.00069893
C 7.79918810 2.84759484 5.85166393 0.01039363 -0.00810455 -0.00266847
C 10.90851576 6.62791249 21.59487847 -0.00487542 0.00364022 -0.00481463
C 6.74289932 10.08431534 24.26402396 0.00128397 0.00504994 -0.00320355
C 2.55243331 20.28407359 18.01131681 0.00352977 0.00252763 0.01061188
C 6.79666725 30.42641863 23.92265873 -0.00870432 0.00174031 0.01468589
C 15.21083111 10.76225515 9.20255966 -0.00289602 0.00105270 -0.00252469
C 6.81595048 4.74274121 15.65816405 -0.00084169 0.00488550 0.00192687
C 5.98691178 7.96747827 27.66518761 0.00356040 -0.00760864 -0.00096397
C 2.81531606 9.45348520 24.67696418 0.00293589 0.00998949 0.00049582
C 12.66009108 8.61515387 18.00553944 0.00592649 -0.00074942 -0.01049172
C 21.29973727 14.70081653 4.09837692 -0.00086578 -0.00717281 0.00644079
C 6.59506434 10.10597928 13.33239293 -0.00007382 -0.00013119 0.00745472
C 11.08036163 23.19066013 23.14938056 -0.00462164 -0.00094208 0.01270898
C 12.65277675 11.09225535 10.80923666 0.00577390 0.00142999 -0.00023758
C 5.93296387 5.29341404 16.61436238 0.00000757 -0.00779591 0.01205798
C 6.81782776 6.94765087 27.53925337 0.00247040 -0.00324316 0.00425857
C 2.73978187 8.07618800 24.68125460 -0.00002998 -0.00268993 -0.00263364
C 13.04059512 9.32968040 16.85505399 0.00901865 0.00572017 -0.00172579
C 21.90480325 15.39153024 5.08132273 0.00489308 0.00400617 0.00372858
C 6.48178581 10.21922042 11.95474710 -0.00080949 0.00006080 0.00064649
C 11.85870139 22.14086783 23.60782230 0.00162098 -0.00219440 -0.00341088
C 11.96172857 10.73968424 11.98969927 -0.00215124 0.00069747 0.00322942
C 4.55256446 4.96780942 16.61996145 -0.00270601 0.00177651 0.00157328
C 8.23104281 7.05598101 27.52113067 0.00528755 -0.00301596 0.00446135
C 2.37921957 7.26020995 25.84989710 -0.00186126 0.01025340 -0.00447803
C 12.07602247 9.70560107 15.91044658 -0.00310244 0.00278990 -0.00282519
C 21.91934807 16.76670314 5.14962545 -0.00864134 0.00495580 -0.00214345
C 5.21978978 10.24808754 11.31441959 0.00663572 -0.00368537 0.00017303
C 11.83745386 21.85445631 25.04662216 -0.00479408 0.00352095 -0.00539621
C 11.36767538 9.47595214 12.05231192 0.00447911 0.00708605 -0.00444788
C 4.13497423 3.97051023 15.68428793 0.00727211 -0.00004043 0.00691119
C 8.75353009 8.38663117 27.67843313 -0.00170842 -0.00380847 -0.01250945
C 1.78750704 8.04151037 26.89391722 0.00247101 -0.00508451 0.00385243
C 10.63298942 9.68028713 16.31966647 0.00836310 0.00297090 -0.00401825
C 21.12310961 17.39923122 4.10228962 0.00728001 0.00306256 -0.00006299
C 4.06407370 10.35841335 12.21574838 0.00335782 0.00459263 -0.00305295
C 10.82464201 22.48652256 25.73237734 0.00099731 -0.00134167 0.00367537
C 11.22449209 8.63472324 10.95723379 0.00063322 -0.00814536 0.00212291
C 5.03561865 3.35114926 14.87214908 -0.00663864 -0.00304292 0.00358538
C 7.94983647 9.48631764 27.79091722 0.00052984 -0.00959212 -0.00992796
C 1.93457944 9.49870648 27.02356191 0.00162153 0.00444161 -0.00782000
C 10.38483437 8.96640844 17.39562809 -0.00838052 0.00100659 0.00109436
C 20.32509779 16.63926307 3.24906265 0.01846146 0.00204865 -0.00321709
C 4.26008509 10.14168050 13.58690051 -0.00052457 0.00508383 0.00633526
C 9.99465429 23.48067290 25.20709993 -0.00845486 -0.00662911 0.00113619
C 11.59057945 9.13000722 9.72780290 -0.00479922 -0.01012936 0.00233895
C 6.39412868 3.69796085 14.89918494 -0.01127392 -0.00142479 0.00894324
C 6.55050155 9.22376197 27.71529039 0.00273022 -0.00126220 -0.00625306
C 2.43620659 10.14704306 25.88601661 -0.00035516 -0.00523271 -0.01045569
C 11.33813687 8.46947594 18.33942683 -0.00213177 -0.00252195 -0.00347704
C 20.24993849 15.20149349 3.30846907 0.00083104 -0.00168700 -0.00068712
C 5.51232185 10.03846335 14.22294243 -0.00319797 -0.00504355 0.00466463
C 10.27085412 23.97400876 23.97092048 0.00458506 -0.00108718 0.00506882
C 12.38716548 10.29281136 9.64401070 0.01035770 -0.01123924 -0.00085286
C 7.06058563 1.74831165 13.56004935 -0.00371578 0.00045205 -0.00259208
C 6.22893984 11.60694396 0.44361701 0.00778749 -0.00315582 -0.00655506
C 2.16062568 12.35611393 26.60660087 -0.00895156 0.00256857 -0.00211522
C 11.63460900 7.38164108 20.52538391 0.01169857 -0.00351750 0.00485847
C 18.52786185 14.74633423 1.71992394 -0.00271405 0.00178215 0.00040462
C 4.61037788 9.75523696 16.43434849 -0.01265010 0.00480869 -0.00483997
C 9.51840950 25.49772405 22.29544456 0.00483764 -0.00844223 0.00297338
C 14.20294137 11.33856578 8.31861067 -0.00502764 -0.00684488 -0.00456755
C 11.79759408 20.73419196 11.69195623 -0.00053892 0.00350860 0.00487024
C 5.08888950 12.55216031 0.59545347 0.00204171 -0.00080452 -0.01074863
C 10.00342585 23.42445680 15.51580201 -0.00727056 -0.00942680 -0.00122886
C 22.94035031 9.22971254 9.05520386 0.00115161 -0.01037885 0.00032985
C 21.74012549 27.30946817 15.20620030 0.00500838 -0.00162819 0.00662211
C 4.68967121 8.92231405 17.64676132 -0.00039925 -0.00502829 0.00397394