1920
Time=49000.00000003 pbc="T T T" Lattice="23.16527808 0.00000000 0.00000000 0.00000000 30.79187168 0.00000000 0.00000000 0.00000000 27.67174380" energy=-12189.12360036 virial="8.89887793 -7.72301373 -4.23261193 -7.72301373 -76.14062581 11.28741100 -4.23261193 11.28741100 -10.53100754" stress="0.00418028 -0.00047203 -0.00021631 -0.00047203 -0.00025784 0.00034624 -0.00021631 0.00034624 0.00298994" Properties=species:S:1:pos:R:3:vel:R:3
O 10.54376918 6.46083068 12.28763531 0.00576998 0.00018170 -0.00458550
O 9.33833456 3.12490549 8.84360627 0.00243171 -0.00682924 0.00579076
O 22.27652510 20.34270912 24.69012002 0.00136175 0.00619328 -0.00071921
O 5.46246300 5.94929258 6.39532734 0.00715493 -0.01136435 -0.00546134
O 2.17829688 9.81622180 8.44043629 0.00407140 0.00387040 0.00190117
O 0.04604776 17.00136220 24.80883277 -0.00214206 0.01044433 0.00014668
O 6.69569479 18.53613470 16.55240066 -0.00469416 0.00330078 -0.00563600
O 5.67543188 30.63377532 3.09245710 -0.00024985 0.00447359 -0.00145079
O 7.21501019 0.92931570 14.90139455 -0.00107272 0.00386230 -0.00434426
O 4.13786628 3.81590245 12.51032080 0.00059218 0.00362842 0.00009515
O 16.54632516 19.32364038 0.16212416 -0.00896182 0.00283172 0.00306076
O 13.35482551 8.19169163 20.68320711 0.00322946 -0.00392850 0.00897550
O 17.08690294 15.84839694 2.93139081 -0.00635324 -0.00302150 -0.00173201
O 2.83076347 20.00432067 20.14827600 0.00490695 -0.00524715 0.00443052
O 5.99061215 24.38568256 14.97593141 0.00496289 0.00148611 0.00005547
O 13.70646556 12.46894459 6.87116704 -0.00170822 -0.00199842 0.00033225
O 5.06568937 6.44912221 17.37990329 0.00072396 0.00132884 0.00785417
O 9.30014464 5.42368358 26.36762350 0.00775553 0.00103983 0.01003425
O 2.95351392 6.28741380 26.31143856 0.00438629 -0.00288339 0.00683545
O 12.80776644 9.10481372 14.36657990 -0.00123420 -0.00070614 -0.00057291
O 0.76948681 15.50711926 6.20499683 0.01030758 0.01348719 0.00132621
O 4.83361207 9.19135090 8.88826257 0.00712523 0.00263634 -0.00755628
O 11.83212102 20.68707827 23.59548690 0.00149985 -0.00213326 -0.00266563
O 10.80124905 9.02438684 12.81752696 0.00010972 -0.00623598 0.00294483
O 14.27169476 1.64027887 13.04704699 -0.00487941 -0.00359817 -0.00428410
O 6.87107536 11.27885374 0.13734072 0.00169083 -0.00510878 -0.00078352
O 0.60562692 12.21219155 0.01318418 0.00233496 0.01297158 -0.00353775
O 22.90511360 8.21646973 11.19013701 0.00632487 -0.00987991 0.00010389
O 21.61336168 14.63051853 10.90558633 0.00055149 0.00015440 0.00608434
O 3.82389564 9.20664237 14.87038030 0.00186024 0.00315418 0.00225837
O 8.46060250 25.13382063 20.71073453 -0.00035514 0.00177915 -0.00483963
O 0.91326998 3.24248270 8.25982781 -0.00520684 -0.00436191 -0.00242747
O 7.02046434 25.04474723 8.60521120 -0.00482423 0.00815968 -0.00658048
O 22.50263563 30.71774125 7.25185154 -0.00024690 -0.01123914 0.00415417
O 6.34563322 27.33861559 9.87812740 0.00370376 -0.00564465 -0.00179828
O 1.75915449 18.45658717 10.43618699 0.00143306 -0.00180322 0.00106314
O 2.49791653 3.59945070 14.57850020 0.00766300 0.00041333 -0.00034107
O 19.17488426 29.30071524 27.19849632 0.00074516 -0.00133142 0.00119903
O 7.06256595 23.16429588 25.79083186 -0.01051551 -0.00117195 -0.00949402
O 5.27674109 0.19398210 25.82154323 -0.00290954 0.00063115 0.00155148
O 22.30536227 22.98464939 18.15152025 -0.00175572 0.00261250 0.00310279
O 2.31119159 24.71531488 6.04399714 -0.00526535 0.00569785 0.00605545
O 7.19975172 2.36488561 7.37446144 -0.00571971 0.00033444 0.00348986
O 2.86088437 23.79060478 0.64352221 -0.00402743 -0.00123910 -0.00066062
O 8.59865503 8.57622471 23.58376077 0.00386009 0.00158468 0.00124903
O 20.21301854 27.43140452 5.52511544 0.00006189 -0.00106618 0.00394733
O 4.15222048 28.83091522 24.87633431 0.00584547 0.00083701 0.00385139
O 16.91892840 27.45814801 19.93909837 0.00099305 -0.00412431 -0.00230764
O 18.73525353 21.04818516 23.31426937 -0.00485930 0.00494398 0.00134532
O 20.80625101 25.19632610 26.79168333 0.00313813 0.00046333 -0.00168961
O 14.49087217 28.55770946 20.44252810 0.00566162 -0.00088082 -0.00447594
O 6.66905077 28.23654095 3.52243021 -0.00374278 0.00000344 -0.00326277
O 7.85095349 2.34885107 22.34693522 -0.00121500 0.00233871 -0.00576356
O 1.07208186 21.63638763 23.81183370 0.00075955 -0.00059817 -0.00298123
O 5.85468536 13.90476845 16.58175146 0.00389382 0.00093730 0.00061551
O 19.92104031 27.22292143 25.90064841 -0.00174701 -0.00062584 0.00204279
O 9.86027499 19.96473290 10.63179058 -0.00108647 -0.00472539 0.00652097
O 0.07508951 29.82542614 1.49766655 -0.00008508 -0.00404014 0.00494973
O 12.37243583 25.25018769 15.60832732 0.00947990 0.00144667 -0.00773442
O 0.45179873 16.14818210 15.81760489 -0.00918977 -0.00265654 -0.00193497
O 0.04198464 28.82631866 12.74390598 0.00016750 -0.00168107 -0.00169967
O 2.00202935 27.33408659 21.08311092 0.00003853 0.00937512 0.00113639
O 5.62829915 15.33292630 9.13425401 -0.00537943 -0.00345887 0.00261684
O 2.54293686 4.92355286 0.83127853 -0.00692480 -0.00563151 0.00787002
O 5.38226979 15.87414036 25.67128530 0.00305692 -0.00980028 -0.00158767
O 8.59057125 8.58474753 7.77136946 -0.00413202 0.00640579 -0.00826851
O 11.64876817 6.37607564 25.48244062 -0.00379881 -0.00032556 -0.00868368
O 7.98846972 12.90994907 13.23310278 -0.00269280 -0.00249236 0.00002922
O 10.78427257 13.24936537 4.57783271 -0.00016964 0.00062338 0.00089088
O 15.84505579 15.23039937 5.39744897 -0.00786420 -0.00362587 -0.00420313
O 13.53587893 7.56184789 11.09202202 0.00390784 -0.00067424 -0.00453769
O 14.55490380 14.32493826 16.75881118 -0.00040347 0.00245605 -0.00244109
O 16.26900314 28.90840091 16.44497062 0.00043926 -0.00173434 0.00154576
O 9.91452144 4.46696332 3.54478655 0.00158866 0.00217015 -0.00603880
O 16.97477572 3.53953578 23.17748303 -0.00262724 -0.00053232 0.00321592
O 5.25959376 10.56608753 3.59421325 0.00106772 0.00589963 -0.00340498
O 5.97537060 18.33583649 25.71144904 -0.00631086 -0.00069225 0.00009194
O 20.06646567 10.98719108 7.55571393 -0.00617634 -0.01084386 0.00059483
O 16.40866875 1.95259720 9.97218434 0.00540744 -0.00635697 -0.00717993
O 22.53835033 9.03520598 0.99257659 0.00625844 0.00802187 0.00314403
O 21.38115866 1.58936340 21.10505596 0.00233687 -0.00024413 0.00073930
O 3.09176588 9.29850316 21.10866060 0.00148527 0.00409530 -0.00378694
O 7.03674376 12.08748161 17.83352178 0.00602789 0.00097454 0.00432499
O 4.25709886 4.36088039 2.81678731 0.00178346 0.00690927 0.00087797
O 4.67065350 21.72072356 20.57203209 0.00466142 -0.00174548 0.00033406
O 12.47400751 28.87783142 14.82549601 0.00195574 -0.00704619 -0.00093264
O 5.08199012 24.27296480 20.42203331 0.00542359 0.00362355 -0.00139425
O 16.68612343 8.78403836 26.58440065 0.00747191 -0.00566476 0.00331488
O 4.66748780 11.71080594 20.98275055 0.00486553 0.00218344 -0.00801604
O 8.53802378 6.21384015 19.97432289 0.00969684 -0.00597073 -0.00036883
O 11.17668666 14.10305522 23.81330770 0.00114286 0.00461978 -0.00146626
O 10.73002708 12.08282271 18.73536387 -0.00743921 0.00074159 -0.00006753
O 12.11832045 8.73425287 27.48451130 -0.00506062 -0.00084677 -0.00080383
O 13.83253646 3.35042444 18.27995269 0.00270628 -0.00237197 0.00915017
O 8.50505128 25.94487031 15.08707149 0.00874281 0.00548710 -0.00448148
O 16.87826567 9.61884521 11.10271834 -0.00041660 0.00095774 0.00148661
O 6.65409300 13.82864205 26.66513872 0.00092647 0.00070808 -0.00798989
O 11.46439711 14.19315352 9.99661121 0.00089173 0.00464444 0.01046023
O 14.26904765 7.97823363 1.44572163 -0.00035594 0.00528763 -0.00470854
O 6.97723638 15.34411442 6.91880743 -0.00009551 0.00190485 -0.00250194
O 13.50770031 1.60922121 7.27961640 0.00142706 -0.00758849 -0.00568359
O 16.16972895 17.99544794 15.30443210 0.00231167 -0.00596285 -0.00418941
O 7.88733809 19.14534679 11.96373603 -0.00327535 0.00939851 -0.00193029
O 11.50370328 16.91658674 5.83864485 0.00368922 -0.01055424 0.00374403
O 18.00761210 17.76925830 18.63968471 -0.00994556 0.01346775 -0.00550064
O 6.90463260 10.35010756 7.92044642 0.01157190 0.00203573 0.00851359
O 12.46662789 3.75740777 6.05530726 0.00134358 0.01012042 -0.00483588
O 10.06067611 1.74438312 21.14996558 0.00571158 -0.00592794 -0.00314842
O 3.07045844 0.59267522 20.77118005 0.00478402 -0.00661400 -0.00362371
O 10.59262362 20.58425074 15.90963552 -0.00017307 0.00228818 0.00411490
O 5.48352760 18.01643226 4.90605900 0.00049049 0.00431762 0.00266403
O 13.45957708 16.74442792 20.91226758 0.00248349 -0.00181949 0.00152532
O 19.84526902 13.71691309 23.32395221 0.00182249 -0.00301558 0.01077275
O 21.20039447 7.14017335 12.78244744 0.00357683 0.00555580 0.00595122
O 13.43532139 24.21219916 13.63839124 -0.00048759 0.00634397 0.00818535
O 8.62354186 29.14764869 27.08894467 -0.00263673 -0.00214203 -0.00162293
O 10.35650387 29.74627860 19.15157468 0.00817397 0.00155685 0.00218928
O 17.10621086 22.24608874 25.55602163 0.00544234 0.00432962 0.00121251
O 11.37977790 16.67390578 19.50574658 -0.00608640 0.00565819 -0.00248278
O 15.17515434 22.25478320 23.88246172 -0.00016769 0.00364379 0.00585272
O 10.85570031 15.77919173 3.51851318 0.00691393 0.00137439 0.00197922
O 2.24077912 6.01613719 17.01230851 0.00575629 0.00960925 -0.00219227
O 16.24816053 27.12347879 8.74905757 -0.00131994 -0.00121340 0.00589432
O 1.54179159 13.32942051 1.94671671 -0.01080733 -0.00316643 0.00735929
O 11.10211989 29.37226449 12.49934548 0.00780817 -0.00353684 -0.00175234
O 14.23221976 24.53557401 3.07331214 0.00054506 0.01358919 -0.00051265
O 8.60720553 15.54876462 13.81710803 -0.00659606 -0.00326729 0.00524445
O 8.36108314 22.03010656 4.96694682 0.00304158 0.00964891 0.00280881
O 22.73514612 1.29740385 9.35252178 -0.00511107 -0.00820280 0.00734062
O 0.64384539 12.99002504 12.27675800 0.00474438 -0.00272912 -0.00485516
O 7.75732135 3.36689536 26.64747654 0.00168748 -0.00519164 -0.00127286
O 21.44257531 13.22610272 0.43564298 0.01142614 -0.00506973 0.00276243
O 13.48101804 14.54634865 8.35364941 0.00044931 0.00213884 0.00911787
O 5.49640438 17.69783134 2.30412322 0.00573572 0.00546994 -0.00191955
O 20.69871966 7.18591298 6.29966830 0.00449848 -0.00206003 0.00277111
O 16.96489848 5.56753426 5.46325915 -0.00790339 -0.00397690 -0.00730319
O 1.59506201 26.00560022 17.07038348 -0.00957585 0.00125236 -0.00016755
O 1.80728215 8.32631112 16.27519093 -0.00161713 -0.00043417 -0.00397048
O 10.74530754 30.15571876 4.90302374 0.00479604 0.00172098 0.00816081
O 18.49036431 13.00283300 25.55197682 -0.00510186 -0.00052539 -0.00572253
O 21.59938988 5.90097433 19.74677656 -0.00357070 -0.00107575 -0.00054376
O 23.08453385 17.94023748 27.20613119 -0.00051430 0.00265075 -0.00282701
O 18.64452373 3.57655799 11.14051249 -0.00237313 -0.00113226 -0.00470206
O 1.22835078 15.29574800 20.75090162 -0.00023720 -0.00303693 -0.00625462
O 4.65430892 0.66808441 15.54963979 0.00204504 0.00805738 -0.00717094
O 11.58275730 16.60327811 23.31466552 0.00010376 -0.00307046 -0.00414001
O 17.40015980 0.93501444 23.37425605 -0.00403635 0.00521587 -0.00038051
O 14.62026040 8.46075104 23.09443541 0.00371285 0.00156319 0.00212484
O 20.33215944 11.97150231 21.40529904 -0.00146748 -0.00568919 -0.00022695
O 3.09095534 1.34880618 23.31778802 0.00327560 -0.00725266 -0.00413357
O 2.33325623 17.51553336 5.61104220 -0.00650894 -0.00238651 0.00228617
O 21.90546915 9.57918958 25.19194097 0.00213892 -0.00516759 0.00256762
O 19.25165086 1.65984415 14.63273510 0.00302242 -0.00493384 0.00449294
O 7.22204565 18.61866379 19.24070254 -0.00896749 -0.00671870 0.00776034
O 13.25210220 27.18603534 24.06098340 0.00191369 -0.00960293 0.00010194
O 19.32290834 8.47010843 4.49090293 -0.00759719 0.00417959 -0.00041455
O 19.04728405 16.46867392 10.84225853 -0.00243004 0.00216408 -0.00417108
O 21.54591367 7.48943769 23.63446622 -0.00178256 -0.00005629 -0.00098262
O 1.47721031 21.91493237 9.96280656 0.00781355 -0.00832733 0.00427755
O 22.22432566 1.04678789 2.20147582 -0.00232790 0.00449738 0.00106881
O 16.05244840 17.41706037 7.53107933 -0.00568190 -0.00690099 -0.00239944
O 15.07614432 21.54989450 13.93776061 -0.00952906 -0.00470179 0.00618027
O 13.93625446 29.51914756 4.63455251 -0.00747142 0.00753125 0.00037217
O 14.96118635 30.58494727 11.11447106 0.00019594 0.00195473 -0.00953829
O 22.98093921 26.95019390 11.16748343 -0.00295744 -0.00279103 -0.00313862
O 5.98615853 22.67068259 4.59109317 -0.00241128 -0.00164682 -0.00201199
O 14.21877252 13.00664764 27.08952371 0.00738446 0.01164633 -0.00050816
O 9.30359131 27.14394289 1.08534036 0.00236179 0.00069344 -0.00343888
O 18.34086979 13.66235460 15.77705398 0.00141612 -0.00069410 0.00629586
O 20.70484010 19.86996971 8.91070689 -0.00936957 0.00741686 -0.00043052
O 13.43716147 2.80778483 27.46176552 -0.00195545 -0.00478843 0.00443910
O 0.85199139 20.13752814 3.09119987 0.00465679 -0.00063037 -0.00373917
O 20.25730712 0.41593031 25.94206716 -0.00285597 0.00045779 0.00356622
O 2.61986962 20.77079000 25.67018798 -0.00232343 0.00961370 0.00793606
O 13.14640903 20.42886571 25.80531702 -0.00325959 0.00114876 0.00820914
O 19.12228328 17.84355712 16.49299887 0.00279501 -0.00402798 0.00164334
O 19.17832965 12.23652735 9.53013850 -0.00840321 0.00796445 0.00132459
O 14.91525830 21.48847866 8.24959000 -0.00241032 0.00033122 0.00095872
O 16.29824606 22.04909124 16.27759344 -0.00538370 -0.00633242 -0.00912799
O 21.29195890 25.74010882 6.88980186 -0.00814272 -0.00388199 -0.00249744
O 15.79064927 4.14686285 0.65920282 0.00299480 -0.00131853 -0.00039186
O 2.08595913 22.99620374 12.26022163 0.00165911 0.00057312 0.00316600
O 15.83293059 4.35200320 17.17123360 -0.00338716 0.01008936 -0.00364067
O 21.23671151 23.47172788 14.54269377 -0.00495222 0.00438168 -0.00116347
O 16.43904958 22.90634689 4.21825076 0.00332560 0.00717079 -0.00324364
O 12.10164367 27.77111690 5.12404371 0.00271376 -0.00753466 -0.00103137
O 12.93967229 25.40917540 22.20187688 0.00084059 -0.00016389 -0.00401096
O 19.42276816 25.26006132 14.48522042 -0.00656435 0.00297082 0.01476027
O 17.33757986 22.39914091 8.83479428 0.00866014 0.00063628 -0.00032791
O 5.12404928 28.66175327 11.88768271 -0.00313042 0.00115167 0.00518953
O 17.76705236 10.38396681 17.96024143 -0.00285836 0.00286357 -0.00421406
O 12.69406785 21.81627302 0.15647634 -0.00067277 -0.00472304 0.00157162
N 10.93393099 21.91611782 10.81410076 -0.00814433 -0.00536565 0.00698616
N 5.79752567 5.33403444 12.59012722 -0.00868355 -0.00777534 0.00481970
N 7.15052980 0.68941684 5.86565092 0.00374326 0.00337284 0.00930783
N 1.67701388 7.39753255 10.38824263 -0.00049504 -0.00376072 -0.00768783
N 22.52860785 29.72821974 14.72371064 0.00034628 -0.00129034 0.01047482
N 0.83736118 18.98773510 19.75758070 0.00163160 0.00422351 -0.01113006
N 4.02307553 27.23463959 23.24299576 -0.00552179 -0.00413510 0.00079872
N 2.05328714 2.49577214 6.39201258 0.00375141 -0.00776669 -0.00106397
N 20.53956240 24.15329385 19.14816482 -0.00167795 0.00233948 0.00195882
N 5.64274619 9.43317179 0.23998823 -0.00237795 0.00000029 0.00267126
N 11.04752664 25.31014496 17.51864412 0.00023140 -0.00201203 -0.00881609
N 11.55912248 9.36696811 19.63847014 -0.00535102 -0.00472043 0.00170131
N 6.78219684 7.46045125 24.42101225 0.00070425 -0.00238202 0.00556427
N 6.08952192 9.37109104 14.34835634 -0.00549002 -0.00448474 -0.00004055
N 5.54248200 15.45464859 11.32782659 0.00153952 0.01061537 -0.00598766
N 12.55823173 10.81605414 7.91161267 0.00159381 0.00360956 0.00308020
N 14.25587788 3.20906870 14.79525766 -0.00742824 -0.01106354 0.00481999
N 2.81400736 26.33357484 7.73423664 0.00144757 0.00567098 -0.00055011
N 18.17117370 20.90542919 0.62798494 0.00524293 -0.00468614 -0.00083865
N 2.47289749 17.02292920 15.66310277 0.00299628 -0.00381530 -0.00011843
N 22.89629475 14.91443103 9.01303142 0.00197339 -0.00108286 -0.00201736
N 18.46787479 28.84650249 5.02320181 -0.00372871 0.00076486 0.00063250
N 7.02316853 23.06940073 13.37899426 0.00144531 -0.00205536 -0.01416774
N 1.39959319 2.91682698 1.03152715 0.00788561 -0.00240274 -0.00156286
N 8.21394694 2.90793079 14.46249388 -0.00655956 0.00732403 0.00087880
N 1.26017492 27.90055264 2.14934466 -0.00684251 0.00040962 0.00481783
N 1.91097346 11.78093841 25.83571995 0.00381515 0.00354720 0.00211159
N 3.94823799 25.50260389 27.20168241 0.00375730 0.00177208 -0.00237836
N 19.09471453 15.14749950 3.61036470 0.00362929 0.00139139 0.00188748
N 0.02752075 26.75628182 21.96224991 0.01109329 -0.00121394 -0.00604206
N 9.10566441 25.42323550 22.94175903 0.00190343 0.00753166 -0.01046291
N 19.10735198 28.17549024 20.47415418 -0.00660161 0.00632740 0.00098389
N 11.70871587 14.87545489 1.55797111 0.00269299 0.00366847 0.00459158
N 10.78160505 6.48577172 3.19650671 -0.00220996 -0.00369687 -0.00085438
N 12.83367624 5.97247358 6.58579824 -0.00165221 -0.00319494 0.00040978
N 11.97849167 11.72508175 16.83994605 0.00406800 -0.00300615 0.00136894
N 9.89050865 29.81078301 10.48353122 -0.00634651 -0.00000255 0.00223293
N 20.69330989 13.04658876 6.72598919 -0.00484813 -0.00060381 -0.00555862
N 5.31687329 18.43155452 7.16651318 -0.00274169 0.00428149 -0.00802349
N 16.40426530 11.19725988 12.67072984 0.00698465 -0.00033310 -0.00285127
N 18.05986390 18.52916271 20.85370068 -0.00587709 0.00467904 0.00282391
N 6.65719747 5.08287097 20.53121639 -0.00246099 -0.00255661 -0.00517627
N 14.24625918 27.90751311 9.62997965 0.00523065 0.00274403 -0.00427866
N 7.00888968 9.14689491 3.01887144 0.00283352 0.00191601 0.00097050
N 5.15122946 0.88996409 20.06027445 0.00061651 0.00701865 -0.00484164
N 11.79257674 2.99417662 17.20050462 0.00215530 -0.00688756 -0.00370408
N 10.71188605 15.10087989 14.10318848 0.00044591 -0.00178926 0.00396680
N 21.07912553 7.55972271 2.04188119 -0.00115468 -0.00218515 0.00385492
N 3.91139447 13.85575413 20.61634784 0.00382948 0.00085069 0.00025611
N 7.50362736 12.18221565 6.64458292 0.00518529 -0.00471436 -0.00141997
N 16.96659300 5.25304930 24.66468136 0.00176132 0.00212175 -0.00399267
N 3.38040737 14.14821912 2.89029323 0.00060617 0.00588234 0.00502800
N 13.42065494 10.54425372 0.43971543 -0.01213027 -0.00758610 0.00257193
N 11.46501149 19.53252025 17.76559130 -0.00607848 0.00324733 -0.01177998
N 16.53440871 3.75711941 8.43107705 -0.00319615 0.00541410 -0.00322490
N 10.05637038 22.15480365 6.43551045 0.00789412 -0.00591286 -0.00529227
N 17.42731897 30.13216067 17.91152512 0.00092102 0.00608351 -0.00347419
N 0.12787399 5.55631883 17.72912867 0.00457791 0.00308190 -0.00034777
N 9.79549148 12.65008063 22.72588193 -0.00197341 0.00514224 -0.00503590
N 11.15640056 0.02003747 22.27517624 -0.00281993 -0.00218457 -0.00140497
N 7.40991488 19.91557332 24.97157087 0.00079341 -0.00303338 0.00172892
N 16.06086133 25.55854303 2.13678472 0.00064722 -0.00089078 0.00325428
N 7.84730581 27.35953072 16.82780807 0.00400883 0.00236206 0.00299344
N 15.20020038 16.94205897 22.31207643 0.00427897 0.01148417 -0.00692149
N 18.34825776 21.90594562 5.05165869 0.00576499 0.00296613 -0.00508989
N 0.73843086 10.19278259 17.09827945 -0.00077470 -0.00589598 -0.01359844
N 13.08203124 0.43840082 27.21298896 -0.00605026 -0.00253092 0.00406603
N 18.09336827 10.26739431 3.63339016 -0.00145871 -0.00489837 0.00300532
N 18.76394789 23.73577155 9.90224623 0.00335455 0.00377254 -0.00138641
N 0.21883213 16.55871687 1.31615153 0.00386077 -0.00674217 -0.00551798
N 13.98156488 18.49619569 26.67386402 0.00252223 0.00276264 0.00147921
N 20.22552915 1.82592339 2.78806539 0.00255526 -0.00642484 0.00322380
N 19.59335373 11.80056917 15.08247495 -0.00780166 0.00166367 0.00927437
N 6.66069968 17.33822637 21.16281532 0.00211155 -0.00357135 -0.00820614
N 13.59795897 24.59274012 20.28399386 -0.00069847 0.00583741 0.00324255
N 16.33876891 13.46827562 24.73153272 -0.00815380 -0.00863442 -0.00088561
N 20.88067299 2.62783268 26.63268101 -0.01367894 -0.01031636 0.00776005
N 22.57009636 5.47039222 23.07898450 -0.00551005 0.00074618 0.00231542
N 16.41634299 9.34185369 19.52157173 0.00243640 0.00418429 -0.00046975
N 0.54833021 14.15630418 22.58859577 -0.00586933 -0.01212020 -0.00520125
N 20.26514771 3.49474436 13.73115235 -0.00487834 -0.00077542 -0.00783834
N 18.89852016 19.80863981 10.19006265 -0.00197696 -0.00354568 -0.00697115
N 10.51693369 0.67769702 3.01263421 -0.00316282 0.00003259 0.00133460
N 18.44445439 26.95661779 13.48900917 0.00550830 0.00432654 0.00678405
N 17.18681446 16.99535559 11.87420205 -0.00247982 0.00650986 0.00510330
N 3.80344004 20.82118759 27.58208747 0.00414869 -0.00124984 0.00059116
N 17.84360330 5.74333879 10.99468135 -0.00622419 -0.00218007 -0.00251961
N 10.99312718 21.92963092 1.74182216 -0.00327033 -0.00982386 0.00460712
N 3.87782066 26.10389710 16.55981309 0.00069704 -0.00251228 0.00166439
N 12.07061650 25.47227305 5.37074260 0.00127078 -0.00204433 0.00280375
N 14.91057652 27.38210191 25.62167440 0.00003286 -0.00411238 0.00926577
N 22.91268641 20.80201135 4.97621632 0.00016203 -0.00234386 0.00475322
N 19.66414694 6.48795567 20.86494173 -0.00092279 0.00116995 0.01040364
N 3.24076211 28.32613989 13.29157063 -0.01084429 0.01014930 0.00283580
N 1.70623401 22.48578139 7.77502607 0.00074217 0.00249339 0.00066256
N 21.33498060 17.98420716 16.03820935 0.00091053 0.00299377 0.00175001
C 12.47375035 3.63004538 13.19309100 0.00623390 -0.00308594 0.00156671
C 7.73046985 5.40704569 11.22603865 -0.00195657 0.00358959 -0.00473371
C 19.29854252 19.54505370 26.68311227 0.01171404 -0.00853245 0.00787684
C 3.87884107 6.56395529 9.68917468 0.00742284 0.00500124 -0.00327115
C 1.42798079 13.56535753 8.19689100 0.00985242 -0.00709085 -0.00369297
C 1.51080394 18.93188375 22.20564054 -0.00058862 -0.00139820 -0.00554313
C 7.86042371 20.87112177 14.06411064 0.00158732 0.00266071 0.00185107
C 3.17782681 2.25474858 4.33271637 0.00409226 0.00010383 -0.00795236
C 11.46287588 4.35189679 12.69088573 -0.00117404 -0.00054038 0.00272104
C 8.68126467 4.86461280 10.36513775 -0.00799137 -0.00071048 -0.00285410
C 20.35857954 19.41584514 25.82630991 0.00133222 -0.00307067 -0.00259908
C 4.86857508 6.22860468 8.68149034 0.00148758 0.00464708 0.00235800
C 2.09585405 12.22444476 8.13033177 -0.00997344 -0.00272328 -0.00318906
C 1.24850626 18.37857490 23.46609014 -0.00626628 -0.01211319 -0.00112956
C 7.76305099 19.68432870 14.77932476 -0.00282532 -0.00648900 -0.00062931
C 4.17001339 1.60773887 3.59258428 0.00291616 0.00820352 -0.00443605
C 11.28419517 5.69189242 13.11499077 0.00599434 -0.00218648 0.00026252
C 8.53225449 3.59484263 9.83837228 -0.00589823 0.00139778 0.00800629
C 21.24867899 20.53125906 25.50797757 -0.00379352 -0.00516401 0.00426492
C 4.55762226 6.23663291 7.37699673 -0.00042678 -0.00650787 -0.00329641
C 1.50352454 11.09453696 8.67563328 -0.00599180 -0.00489004 -0.00015904
C 0.21165813 17.44733183 23.58462620 0.00360801 -0.00019595 -0.00301905
C 6.74037288 19.58292460 15.75673542 -0.00504080 0.00164329 -0.00141066
C 4.74082956 0.37596707 3.90649005 -0.00756712 0.00130637 -0.00697095
C 11.83885635 6.06658666 14.26808490 -0.01011397 0.00162185 0.00238577
C 7.50694843 2.83447022 10.37770435 0.00212249 0.00626784 -0.00081316
C 21.00051345 21.72605373 26.09362823 -0.00085651 -0.00077496 0.00061985
C 3.24764977 6.57952332 7.02145986 0.00159683 0.00161211 0.00461872
C 0.20052446 11.21284994 9.31639459 -0.00292698 0.00498895 -0.00402576
C 22.50356515 17.15094398 22.52676267 -0.00763325 0.00034644 0.00940329
C 5.67013616 20.47934735 15.66825339 -0.00711540 -0.00063002 0.00229348
C 4.27494206 30.46360342 5.06247765 0.00247801 -0.00428556 -0.00365615
C 12.78948122 5.28399155 14.87620513 -0.00737757 -0.00033403 0.00052730
C 6.61728287 3.33549389 11.29266415 -0.00098403 -0.00470447 0.00326919
C 19.94732868 21.87767710 27.02748537 -0.00456108 -0.00279913 -0.00457477
C 2.30684309 6.90381998 7.99669840 0.00680617 -0.00136541 0.00303373
C 22.72680481 12.45535609 9.38045774 0.00357542 -0.00272673 -0.00927446
C 22.68122903 17.82255601 21.29645771 -0.00123758 0.00268964 -0.00808898
C 5.77219157 21.64271687 14.96899754 0.00575367 -0.00994722 0.00206525
C 3.34857478 0.37757047 5.88627911 0.00245023 0.00200910 -0.00574621
C 13.25160896 4.07851471 14.26277030 0.00586014 -0.00908343 0.00068998
C 6.64209285 4.70269653 11.74694161 0.00547634 -0.00025907 0.00610848
C 19.11433874 20.75235233 27.36375828 0.00230133 0.00111498 0.00051797
C 2.55780304 6.84693142 9.42584439 -0.00599540 0.00341678 -0.00899588
C 0.22520336 13.63144154 8.90947512 0.00184198 -0.00768120 -0.00308504
C 0.72824044 18.46720014 21.07594930 0.00168262 -0.00865191 0.00117995
C 6.89963392 21.89603425 14.16781484 -0.00251171 0.00376860 0.00301243
C 2.90559197 1.69523712 5.54862277 -0.00142252 0.00422097 -0.00266887
C 14.78596431 2.04877976 14.09365594 0.00098479 0.00187279 -0.00205617
C 4.58662111 4.89146615 12.94523546 0.00046628 -0.00232575 -0.00080799
C 17.04948024 20.15629755 0.91564319 0.00060686 0.00045745 0.01130856
C 0.38597122 7.62860165 10.36116509 -0.00484352 -0.00338237 0.00251748
C 22.17020798 15.34564731 10.09029997 0.00085389 -0.00280466 0.00312263
C 1.79873516 19.79776869 19.33965350 0.00216128 -0.00379567 0.00911540
C 6.49475255 24.20276895 13.84593473 0.00440555 0.00648937 0.00077473
C 2.01675955 2.73136526 7.70367875 0.00129786 0.00711697 0.00737641
C 21.63394983 25.00143458 17.12638186 0.00125012 -0.01221049 0.00948572
C 3.88132798 5.82295829 13.86429310 0.00457873 -0.00030539 -0.00382690
C 7.34687038 2.99090452 5.07552099 0.00760180 0.00228966 0.00258264
C 11.30396963 8.34414553 21.93964105 -0.00531279 0.00053885 0.00326974
C 7.08354053 9.90419854 24.77787241 0.00208081 -0.00275737 -0.00160276
C 1.53752286 20.40340947 17.96042027 -0.00558076 -0.00020871 -0.01150982
C 2.17632829 29.00700804 23.56846561 -0.00249658 0.00797203 0.00275971
C 14.91012569 11.09158116 8.50676566 0.00730579 0.00080653 -0.00073296
C 7.81740063 5.10556334 15.36623770 -0.00132705 -0.00007790 0.00262527
C 6.28951645 7.12274050 27.47543029 -0.00398742 -0.00571720 -0.00316252
C 2.83804386 9.78443036 25.04804096 0.00534131 -0.00093434 0.00217866
C 13.03592735 8.85968636 17.92391287 -0.00050496 -0.00422181 0.00373340
C 21.45295976 14.47254765 3.86717786 0.00867343 -0.00954778 0.00082791
C 6.74577766 9.31835115 12.05118731 -0.00970548 0.00016201 -0.00538695
C 10.45438750 23.70064678 21.97645615 0.01000154 0.00769678 -0.00684257
C 12.58162220 11.03897975 10.41486134 0.00235936 -0.00154954 -0.00269793
C 7.07757909 5.84985170 16.18432754 -0.00700742 0.00961345 -0.00004518
C 7.22908226 6.14534712 27.21550216 -0.00011131 -0.00637328 0.00937216
C 3.15820975 8.40757148 25.10471897 0.00729989 -0.00744331 0.00071120
C 13.32545622 8.82144813 16.63300688 0.01769396 0.00135388 -0.00459228
C 22.73823992 14.47781989 4.41996775 -0.00290828 -0.00371751 -0.00873321
C 6.42135393 9.14897118 10.71993922 0.00176331 0.00067173 0.00475749
C 10.95913196 22.35551910 22.16304400 0.01192759 0.00584470 -0.00192172
C 12.31058456 10.52480917 11.67082561 0.00517446 0.00005809 0.00472431
C 5.83096566 5.54793396 16.69303202 0.00303969 0.00631860 0.00869354
C 8.50654511 6.42192425 26.74037797 -0.00759853 -0.00123566 0.00682545
C 2.56046255 7.62790828 26.13926523 0.00090345 0.00523090 -0.00443665
C 12.38703353 9.02553931 15.63483912 -0.00234076 -0.00020800 -0.00102898
C 22.99005055 15.48577630 5.46348915 0.00130933 0.00443551 -0.00199076
C 5.10146393 9.36094942 10.24475319 0.00093506 0.00067634 -0.00294515
C 11.39019716 21.93669194 23.42872163 0.00741608 -0.00752073 -0.00030841
C 11.35787836 9.43819596 11.74919560 0.00075482 -0.00647238 0.00690892
C 5.32857395 4.22924522 16.24571012 -0.00377060 -0.00212222 0.00433207
C 8.93769940 7.78561153 26.80690767 -0.00725092 0.01205056 0.00496177
C 1.72287691 8.23276531 27.01900410 0.00137370 0.00121218 -0.00169728
C 11.02705465 9.06071205 16.06465690 0.00208576 0.00609025 -0.00326923
C 22.00050746 16.52773587 5.52188837 -0.01274133 -0.01208581 0.00913450
C 4.17276607 9.78486885 11.15003202 -0.00575410 -0.00106588 0.00459151
C 11.13370056 22.83291411 24.50053679 0.01018700 -0.00632883 -0.00547138
C 10.77235781 9.04085968 10.54997679 -0.00818218 0.00506227 -0.00311849
C 6.11757454 3.42108904 15.51627393 0.00047997 -0.00326526 -0.00238906
C 7.98249894 8.69299660 27.20333121 0.00425034 0.00012334 -0.00140603
C 1.24197237 9.58689892 26.87583209 -0.00134446 -0.00227924 -0.01191234
C 10.66605102 9.04041662 17.37955914 0.00269931 0.00563798 -0.01085295
C 20.76003503 16.43106100 4.92475204 0.00271553 -0.00456869 0.00207435
C 4.48233270 9.77834968 12.47192041 0.00440887 0.00183066 0.00675058
C 10.37148706 23.95002303 24.34597480 -0.00209781 0.00651446 0.00037758
C 11.26629928 9.36579683 9.30657936 0.00691490 -0.00376013 0.00865966
C 7.37653714 3.74531389 15.13591058 0.00678391 0.00654926 0.00672227
C 6.60198855 8.47028731 27.46258839 -0.00649320 0.00271449 0.01077733
C 2.02220355 10.34397909 26.02263838 -0.00497004 -0.00311606 0.00071816
C 11.71658067 9.01064989 18.33791444 -0.00374847 0.00313527 -0.00050311
C 20.41571195 15.35864102 4.06810339 0.01025062 -0.00551048 -0.00113147
C 5.73673988 9.43556374 13.01701477 -0.00135142 -0.00144109 0.00489783
C 9.96723052 24.41041798 23.06484854 -0.00128274 -0.00793119 0.00841649
C 12.23002112 10.38353327 9.22416773 -0.00307801 0.00044757 -0.00337975
C 7.91924290 1.64180075 14.20693725 -0.00403492 -0.00394690 -0.00145639
C 5.83427043 10.74528433 0.32810075 -0.00760493 -0.00748834 -0.00300282
C 1.40290372 12.55899158 26.75059776 -0.00212359 0.00481252 -0.00134172
C 12.21140489 8.69175156 20.70781776 0.00362846 0.00665883 -0.00372837
C 18.32937079 16.11440970 3.11540130 0.00166903 0.00435265 0.00771552
C 5.04788538 9.26318820 15.22958990 0.00109568 0.00164395 0.00034519
C 8.60526072 25.85971132 21.67295073 0.00688713 0.00245550 0.00146820
C 13.68071229 11.58556847 7.71452254 -0.00331791 -0.00636247 0.00530675
C 11.99014189 19.95423451 11.80175933 0.01029231 -0.00274643 0.01324316
C 4.59300398 11.60042852 0.56094981 -0.00172124 -0.00523809 -0.00322154
C 10.47465812 23.85605851 15.65846450 -0.00233548 -0.00127215 -0.00054824
C 22.75978753 7.20329766 9.09460984 0.00021309 0.00305048 0.00064666
C 21.84441713 27.51928853 14.15281610 -0.00883134 0.00343192 -0.00242362
C 5.30128291 9.45452945 16.62311155 0.00188357 -0.00167660 0.00826349