1920
Time=87000.00000006 pbc="T T T" Lattice="23.53520170 0.00000000 0.00000000 0.00000000 30.63540442 0.00000000 0.00000000 0.00000000 27.64577568" energy=-12191.36121833 virial="-60.54267657 0.61735658 17.28540694 0.61735658 -81.78849329 25.11016537 17.28540694 25.11016537 -39.26610464" stress="0.00040546 0.00004422 0.00086427 0.00004422 -0.00052553 0.00121779 0.00086427 0.00121779 0.00174910" Properties=species:S:1:pos:R:3:vel:R:3
O 10.41887469 7.22731962 13.03155809 -0.00170125 -0.00516656 -0.00009264
O 8.52628846 4.23569502 8.69503101 -0.00938430 -0.00145804 0.00667247
O 21.84457352 20.68321419 23.79377534 -0.00215647 -0.00158874 -0.01087143
O 5.82824979 8.32409584 5.86781103 0.00947134 0.00633153 -0.00138294
O 3.39608783 10.61629493 9.06078250 -0.00165800 0.00434523 -0.00640177
O 23.43728593 17.08014881 23.60441569 0.00517917 0.00016879 0.00301072
O 7.70504926 18.44459978 17.07881176 0.00450639 -0.00184596 0.00380506
O 5.99101674 28.54104521 4.64604834 -0.00589762 0.00427748 -0.00186143
O 6.06469503 1.79772825 14.21453785 -0.00570264 -0.00794003 -0.01207979
O 4.23008592 3.56567293 13.14589620 0.00156431 -0.00066376 -0.00040674
O 16.96328436 19.30186465 27.29741619 0.00141870 -0.00120039 0.00296684
O 12.84598361 8.85206981 21.44318469 -0.00405112 0.00290411 -0.00081867
O 18.53898570 16.61034397 1.98236221 -0.00853454 0.00466649 0.00770844
O 2.74363946 20.51498186 19.24535190 -0.00046900 -0.00175855 0.00494625
O 5.95932138 24.23390074 15.23333162 -0.00165330 -0.00181319 -0.00170777
O 14.09075514 12.43423338 6.79738404 0.00533856 0.00685749 -0.00338406
O 7.89470651 7.24395583 16.91314621 0.00154220 0.00037118 -0.00122858
O 9.09473267 4.94120298 25.97281033 -0.00072955 -0.00307351 -0.00490307
O 2.27430717 6.03871173 25.09061268 -0.00316090 0.00321590 -0.00194411
O 12.72259741 10.01586358 15.36853184 -0.00082956 0.00342702 0.00217882
O 1.14999440 15.18256679 6.28597763 -0.00661649 0.00776057 -0.00251086
O 5.77659846 10.56056324 9.83468273 0.00731264 -0.00852950 0.00035848
O 11.82196953 19.95157969 24.42996719 0.00070530 -0.00180418 0.00740665
O 10.98619449 9.70888042 13.04037965 0.00049856 -0.00199704 -0.00922853
O 14.59405678 2.35746735 13.82571420 0.00442024 0.00685057 -0.00400079
O 7.36887333 10.97629154 27.24367545 0.00336907 -0.00117232 -0.00296195
O 1.45289820 11.64561215 0.41697328 0.00427359 0.00285762 -0.00305379
O 22.99961529 6.94343375 9.96302726 -0.00170271 0.00246829 0.00534890
O 21.99140428 13.67930578 10.31113677 -0.00083862 0.00735235 -0.00611228
O 3.63012636 8.44012987 15.42184084 0.00182845 -0.00296127 0.00050318
O 8.82821158 24.59292654 21.25123644 0.00251734 -0.00410391 0.00370175
O 4.47688274 5.17004013 6.02305579 -0.00459681 0.00363570 0.00098297
O 6.50895848 24.16191557 9.78328123 0.00226906 -0.00333781 0.00667269
O 23.10575173 30.45118516 6.87249148 -0.00802748 -0.00300105 -0.00328071
O 5.99659412 26.67977268 9.88270466 0.00019230 -0.00160981 -0.00809788
O 0.38020264 17.69680379 10.47738437 -0.00120174 0.00352172 -0.00050052
O 1.74834724 2.54320343 12.19028773 -0.00026962 -0.00119036 0.00086503
O 18.45986455 28.84826100 26.70194198 -0.00127854 0.00549541 -0.00092326
O 7.41455388 22.88322270 25.60976237 0.00028927 -0.00113877 0.00167429
O 6.06815522 0.59652633 25.34254645 0.00472691 -0.00422732 0.00545427
O 23.29902461 22.91555504 18.73580597 -0.00132320 -0.00180909 0.00472936
O 2.46192584 24.81510047 6.71897301 0.00083507 0.00137270 -0.00449489
O 8.15879498 1.87616548 7.76639263 -0.00565180 0.00178995 -0.00867778
O 1.43674910 23.51481994 0.41742472 -0.00501017 0.00365485 0.00353275
O 8.33243833 8.20720589 22.88818013 0.00070814 0.00369880 -0.00499539
O 21.47922693 28.07771218 4.53180849 -0.00311116 0.00158272 0.00283192
O 5.27113268 28.91042532 24.56057379 0.00515895 0.00658124 -0.00018522
O 16.46386369 28.02777108 20.30143462 -0.00456974 -0.00149252 0.00116253
O 18.86583219 21.42224192 23.29541349 -0.01061048 -0.00205939 -0.01007103
O 22.60938347 25.15336979 26.86193676 0.00645237 0.00519784 0.00697351
O 14.04990024 28.48554263 20.76910345 -0.00250979 -0.00326603 0.00196714
O 5.03343165 26.33778073 4.93023843 0.00061254 0.00060991 -0.01108865
O 7.59385785 2.05404569 22.05692490 0.00223301 0.00480954 -0.00492576
O 0.59232503 21.43467889 23.14320993 -0.00369471 -0.00596162 0.00493344
O 5.78570014 14.76933287 17.92153828 0.00793033 -0.00391616 -0.00446214
O 20.32981346 27.40778576 25.31077236 -0.00228653 -0.00169815 -0.00506374
O 11.43071492 20.30456217 10.91373023 -0.00016417 -0.00538074 0.00195820
O 0.32261368 0.40449645 1.56404915 -0.00211496 -0.00560438 -0.00444097
O 11.96138877 25.71124608 15.39694239 -0.00912417 0.00263378 -0.00049294
O 23.45153205 15.99085132 16.55410272 -0.00537564 -0.00371926 -0.00690312
O 21.55536318 27.90825848 13.30401236 -0.00761965 -0.00491973 -0.00405744
O 2.96900033 27.01113547 21.48529786 0.00244888 0.00868722 -0.00464051
O 5.29113614 15.37260673 10.30231407 0.00115714 0.00210413 -0.00082571
O 1.18088565 4.81005419 27.12855819 0.00034090 0.00001382 -0.00223963
O 5.73370700 15.96387075 25.40331336 0.00108899 0.00744981 0.00834279
O 8.96230726 8.65941783 8.67269311 -0.00446072 -0.00344442 -0.00265757
O 11.03844303 6.05319351 24.76828880 0.00008566 0.00741699 0.00201644
O 8.74544326 14.07450003 13.37968168 -0.00029700 -0.00532233 0.00085728
O 9.55776892 13.25531383 3.44272130 0.00551637 0.00048889 0.00742087
O 15.45459116 17.01185012 5.08996583 0.00054517 0.00101426 -0.00036596
O 14.58387824 7.32106808 10.70330609 0.00509053 -0.00797122 0.00548268
O 14.86445224 13.67603158 16.71732650 0.00264462 0.00451300 -0.00474355
O 21.99381695 0.45465025 16.47953728 0.00076260 -0.00334503 0.00418563
O 9.79453349 5.60655347 3.14659430 0.00391061 0.00537384 0.00061268
O 16.42295576 3.19501463 23.08149427 -0.00918972 -0.00351176 -0.00340491
O 5.09127915 8.86344070 3.56055904 0.00319722 0.01414615 -0.00172988
O 6.26674040 18.48401844 25.67341460 0.00079880 -0.00231543 -0.00432473
O 18.54193043 12.01522258 7.55436961 -0.01073833 -0.00707961 -0.00182608
O 17.19730537 1.74908124 9.59836662 0.00566502 -0.00281221 0.00878852
O 22.97353850 7.13345358 1.48280193 -0.00073898 -0.00458090 -0.00307510
O 20.99519362 0.97998296 22.60780168 -0.00326588 0.00600071 0.00304913
O 2.85283100 8.72612701 20.72647638 -0.00128597 -0.00114618 0.00314703
O 6.47954481 12.59582240 18.65857154 0.00067134 0.00693892 -0.00127543
O 3.81012366 2.69134495 2.02178562 -0.00414083 -0.00188483 -0.00119398
O 4.85422050 21.56879900 20.12595386 -0.00968084 0.00541631 0.00834519
O 12.35445296 29.94727117 14.05541663 0.00104192 -0.00221723 0.00305356
O 5.69257420 24.18377556 20.59527976 0.00929569 0.00764847 -0.00493977
O 17.14810221 8.67690363 26.51198969 0.00349821 -0.01207235 -0.00251245
O 3.58096320 11.07894188 21.75638880 -0.00253434 -0.00445958 -0.00093346
O 8.66616884 6.58947724 19.34714781 -0.00429818 -0.00598689 -0.00463580
O 12.08473470 12.22802875 23.63763537 0.00888306 -0.00521464 -0.00460498
O 10.17861920 11.38876745 19.00278230 0.00548672 0.00213443 0.01388313
O 14.70078006 8.83143392 27.40925306 -0.00229238 0.00007125 0.00118988
O 14.28624046 3.00903920 19.18589106 -0.00551112 -0.00097940 -0.00524407
O 8.78557823 26.77564579 15.33000248 -0.00728413 -0.00316977 0.00349865
O 16.42923926 9.05203916 11.05580715 -0.00100412 -0.00327255 0.00298352
O 7.76027338 14.56817691 26.09649195 0.00219075 0.00150288 -0.00456881
O 12.43347367 15.13511721 10.06947160 0.00696306 0.00377873 -0.00268043
O 14.10353053 6.67486737 1.27081532 -0.00253314 0.00053402 -0.00235283
O 7.01755735 14.70565840 7.96698398 0.00934659 -0.00745429 0.00425113
O 13.51608979 1.13492932 7.02588234 -0.00510087 0.00531282 -0.00188390
O 16.84141711 17.79547188 15.50999823 0.00897545 0.00729299 -0.00623537
O 5.71562895 19.44644109 13.27781864 -0.00282067 0.00088557 0.00571394
O 9.37816870 16.57520382 7.57717728 0.00008716 -0.00467280 -0.00063173
O 18.07196779 17.13840626 19.44917779 0.00340165 -0.00204051 -0.00102466
O 8.14871282 11.29492757 8.73883378 -0.00136061 -0.01350484 0.00280527
O 12.70022726 3.77405661 6.78125742 -0.00221835 0.00129023 -0.00372650
O 9.93564655 1.47844440 21.49194102 0.00169176 0.00098905 -0.00660899
O 3.74047205 0.89450354 20.56622290 -0.00375611 -0.00185549 0.00322126
O 11.42365452 20.63749006 16.23361215 0.00085465 -0.00146897 0.00270464
O 5.00552870 18.74406095 5.74511278 -0.00542989 0.00114069 -0.00874694
O 13.87256765 16.08629802 20.82863502 0.00282107 0.00351882 0.00088608
O 19.69567771 12.12192973 22.89335545 -0.00254434 0.00479354 -0.00191781
O 21.24808329 7.00924376 12.20723332 0.00005752 -0.00264593 0.00653615
O 12.81228518 24.72770889 13.28892924 0.00021806 0.00626474 0.00252021
O 8.99564649 27.93750253 26.14922047 -0.00453926 0.00278984 0.00274538
O 11.00759826 0.17232695 17.83880429 0.00598813 -0.00131780 -0.00037083
O 17.06848807 22.72457492 24.46346851 -0.00064334 0.00420567 0.00861782
O 11.55869086 15.08300996 19.73912706 -0.00575013 -0.00388210 0.00108908
O 15.05492316 21.78139792 23.38537261 -0.00271111 -0.00187761 0.00127425
O 10.36268102 15.41170881 4.24344086 0.00871419 0.00026349 -0.00061866
O 0.48726210 5.53359354 17.45008369 -0.00231375 0.00134754 -0.00648716
O 15.39497479 26.92278214 8.13916903 -0.00053557 -0.00399770 -0.00198830
O 2.13990585 13.29923890 2.34854436 0.00037143 0.00519577 -0.00253737
O 10.30177872 30.01423239 12.51557216 0.00714429 -0.00126803 0.00282037
O 14.81979563 24.39213455 2.54089714 -0.00675677 0.00138936 0.00778404
O 9.34167622 16.60016734 14.09175208 0.00263391 0.00666317 0.00436065
O 9.24095339 22.24227890 4.57905700 -0.00033802 0.00058284 0.00881374
O 1.96542730 5.11695934 5.82502405 0.00424016 -0.00272747 0.00428835
O 0.14148829 11.54118986 11.26172475 0.00288051 -0.00319682 -0.00115425
O 7.97160489 2.77600577 27.03841773 0.00772716 -0.00688325 -0.00219940
O 22.53171833 11.74797436 0.90703904 -0.00038010 -0.00084836 -0.00090827
O 15.17272101 17.58567548 7.83885689 0.00269442 -0.00234896 0.00150141
O 5.73787841 17.74747300 2.49726113 -0.00057873 -0.00035478 -0.00353145
O 20.54645111 8.55112719 5.97999560 0.00598999 0.00396159 0.00113687
O 17.24692119 6.11924089 4.99514057 0.00518527 -0.00092450 -0.00603176
O 2.85245329 26.26362175 18.43110623 0.00308245 0.00258284 0.01385078
O 1.36968272 7.59095408 16.17929126 -0.00269269 -0.00111055 -0.00944915
O 11.06354203 28.91308779 5.08119603 0.00040268 -0.00253302 -0.00813561
O 18.87108338 12.54244220 25.76084312 0.00241241 -0.00135780 0.00792999
O 22.03609121 5.26777627 19.79313943 0.00227825 0.00363522 0.00063572
O 1.22696129 17.01468184 25.64755118 0.00081611 -0.01129725 -0.00305985
O 20.27338929 3.67557523 10.50680080 -0.00018967 -0.00526195 -0.00275772
O 0.70011967 15.58955825 20.77857591 0.00011053 -0.00861428 0.00075280
O 4.57973697 1.24193655 16.13387173 -0.00101926 0.01096640 0.00051003
O 11.45789941 17.44361221 23.06082453 0.00959776 0.00286693 0.00112290
O 14.76743150 1.39841536 24.08494076 0.00792442 0.00517017 -0.00762160
O 15.21951474 8.65428082 22.38534088 0.00131000 -0.00330275 0.00232229
O 20.91814057 11.27219339 20.56611501 0.00765786 0.00444667 -0.00242361
O 2.65102689 1.54580210 22.68364559 -0.00320879 0.00434952 -0.00147133
O 2.47592563 17.48239928 6.03204059 -0.00291660 -0.00361950 -0.00035610
O 22.41594408 9.68398645 25.21538766 -0.00105601 -0.00607997 0.00801118
O 21.41382061 1.01651827 8.33505687 -0.00670291 0.00692865 0.00313364
O 6.50729807 18.37969684 19.25513742 -0.00430069 0.00340338 0.00779315
O 13.34233642 26.04027000 23.48365642 -0.00631559 -0.00240107 -0.00057079
O 18.57253716 10.05880219 5.40418835 -0.00497875 -0.00289742 -0.00545719
O 18.52899955 14.79664901 12.51629817 -0.00001454 -0.00061009 0.00745848
O 22.06739906 7.59720147 23.80885774 0.00495340 -0.01082133 0.00249039
O 2.06364708 21.74148463 10.46061789 -0.00347572 -0.00539406 -0.00612586
O 21.39932332 0.38989584 2.00934430 0.00235328 -0.01417950 -0.00245269
O 15.10123731 19.40208091 6.13391212 0.00553562 0.00232815 0.00607519
O 16.32676204 22.20236154 13.71406431 0.00723191 0.00588763 0.00271861
O 14.00353887 28.92922394 4.66623845 -0.00157645 -0.00156754 -0.01182257
O 15.97623138 0.87467716 12.26079404 -0.00020181 0.00359955 -0.00797427
O 23.40467732 26.27788129 11.81123520 -0.00242686 0.00369263 0.00321717
O 6.34177531 20.48047014 3.77164140 0.00205909 -0.00350975 0.00412475
O 15.76532611 12.61503568 1.48728991 -0.00053938 0.01097664 0.00100128
O 10.57199006 26.62128254 0.16761361 0.01136611 -0.00316335 0.00273251
O 21.84765504 13.18609722 14.26479875 0.00240916 0.00250185 -0.00365469
O 21.70101830 19.03470864 9.50000673 0.00499040 -0.00215891 -0.00372451
O 12.99793880 2.56534730 0.06881218 -0.00272750 0.00156821 0.00423672
O 0.55069950 19.71101743 3.12356996 0.00201200 0.00036095 -0.00111728
O 19.32944937 0.49759439 25.49658544 -0.00591561 0.00466279 -0.00857614
O 2.14476636 21.02509928 25.14156301 -0.00846293 0.00137854 0.00228757
O 13.54003759 19.34768737 26.25744258 -0.00167545 0.00207375 -0.00792727
O 18.95842603 17.78726699 17.07555397 -0.00098524 -0.00005947 0.00547810
O 18.78895579 10.41760217 9.55241322 0.00126949 -0.00242370 -0.00847881
O 12.97780191 20.22558484 8.81135557 0.00301505 -0.00091643 -0.00328126
O 17.27678117 21.86997593 15.91639970 -0.00671623 0.00614435 0.00228952
O 22.04087525 25.34815243 7.65021794 -0.00064836 0.00207296 -0.00284630
O 14.88047575 4.09644097 0.62686814 0.00451564 -0.00092829 0.00501327
O 2.17080900 22.16116253 13.11905811 -0.00081797 -0.00093559 -0.00389661
O 17.11816223 3.12872008 18.42083021 0.01318594 -0.00092336 0.00921247
O 21.44118823 23.36880839 15.10896855 0.00031885 0.01109995 -0.00627341
O 18.07101026 23.33951209 2.26264924 0.00240118 -0.00709633 0.00453144
O 12.40004874 26.52644800 4.65588844 0.00393374 -0.00213202 0.00157108
O 13.34116126 24.30341358 21.99467727 0.00498119 -0.00057832 -0.00120565
O 19.72793528 25.17149304 14.49819496 0.00082428 -0.00634956 0.00388401
O 16.43213566 23.68200338 9.60669481 0.00157890 -0.00119108 -0.00583602
O 4.27461063 28.02095189 11.42870302 0.01217904 -0.00430852 -0.00396857
O 18.04647180 9.55146732 18.21544447 0.00028092 -0.00142949 0.00370050
O 12.31975566 21.03148844 0.41551839 -0.00134367 0.00726976 -0.00268529
N 11.57955746 22.47919021 11.53325683 -0.00749149 -0.00385232 0.00569980
N 5.49912647 5.47337867 13.22901799 -0.00227569 -0.00391823 -0.00522871
N 9.05172973 30.58995570 6.98322658 -0.00219718 -0.00735422 0.00559213
N 1.54336478 7.14061090 9.33873659 -0.00412448 0.00571120 0.00715047
N 22.73606312 29.06096228 14.94047726 -0.00507391 -0.00290530 0.00165994
N 0.70902249 19.48277561 18.83271386 0.00735987 0.00259411 -0.00583508
N 3.82933184 27.08134090 24.31025597 0.00064195 -0.01238907 -0.00257894
N 4.30044301 3.12271675 5.39542102 0.00038138 0.00271662 -0.00413317
N 21.65191092 24.46668645 19.46347668 0.00481829 0.00122807 -0.00251362
N 5.82068151 9.26307362 27.39645502 -0.00613070 -0.00598492 -0.00019781
N 10.87982723 25.29120536 17.36288551 0.00351053 0.01010279 0.00261210
N 10.86680923 8.27100928 20.34431966 0.00432570 0.00148983 -0.00427198
N 6.56299484 7.12749861 23.89269734 0.00339680 0.00018632 -0.00104524
N 5.64603136 9.43914642 15.35352765 -0.00098083 0.00957804 0.00255823
N 5.39405891 15.46804133 12.55161976 -0.00475580 -0.01311604 0.00168484
N 13.51046103 11.02307365 8.35964717 0.00476945 -0.00471397 0.00803845
N 14.82262859 4.36680543 14.98866709 -0.00879419 -0.00287209 -0.00962390
N 3.15075603 26.47184286 8.24173672 -0.00009072 0.00462600 0.00022699
N 18.26268734 21.00144949 0.41958557 -0.00220841 -0.00445620 0.00452851
N 1.92538380 16.13794325 15.53593991 0.00578357 0.00521004 0.00104001
N 0.12780928 15.07753223 9.52975878 -0.00349125 -0.00127556 0.00222825
N 19.38438623 28.95711057 4.54441953 -0.00772332 -0.00333369 0.00152920
N 7.19760532 22.97617473 13.85552204 0.00750473 -0.00295222 -0.00462992
N 1.34006883 2.54424078 27.55282677 -0.00498372 -0.00062023 -0.00558368
N 7.77437800 2.92511925 13.34678298 -0.00007270 0.00302224 0.00274775
N 1.20872747 29.13367339 2.65340592 0.00667651 -0.00923189 0.00039673
N 1.69905112 11.43517626 25.76228760 0.00357920 0.01174407 -0.00932169
N 3.34884166 24.65511649 0.01821985 0.00197725 0.00595388 -0.00046731
N 20.34741919 15.63621728 2.85601193 -0.00758887 0.00129416 0.00083109
N 0.69694053 26.78614969 21.70252428 -0.00091677 -0.00050434 0.00192170
N 9.48365041 24.92163245 23.44918432 0.00027850 -0.00102982 -0.00597274
N 18.73540840 28.02784354 20.02131335 0.00120946 0.00021522 -0.00896234
N 11.62950545 15.43607271 2.29098778 -0.00502818 -0.00220677 -0.00392773
N 10.79876933 7.49408355 3.48564802 -0.00510418 -0.00214422 0.00131127
N 12.78950014 6.01485484 6.73504889 0.00164670 -0.00456476 -0.00052398
N 11.85336665 12.28365708 17.63402286 0.00355310 0.00941713 -0.00605051
N 10.52745356 28.73829085 10.55546810 0.00749525 0.00018455 -0.00347837
N 19.67778663 13.58950048 6.25610479 -0.00042341 -0.00435018 -0.01157424
N 5.63251267 18.57650119 7.86832112 -0.00796049 0.00309183 -0.01330582
N 16.25100095 10.98104052 12.22111471 0.00575913 0.00025905 0.00215136
N 18.28905025 17.44334810 21.70222004 -0.00575192 -0.00627890 0.00973548
N 6.96425998 5.15619782 19.94522487 -0.00014127 0.00508583 -0.00112916
N 14.44610272 28.42894647 9.64807581 0.00431658 -0.00309656 0.00843016
N 6.67987001 7.27079911 3.00491295 0.00868278 -0.00128840 -0.00083978
N 5.69146960 0.87181894 19.58942509 -0.00098016 -0.00015015 0.00297453
N 12.88160627 3.70583640 17.41698456 -0.00674112 -0.00219523 -0.00077500
N 11.50713950 16.97492175 14.54585324 0.00298020 -0.00014517 0.00025625
N 21.16942799 7.94719802 2.73641484 -0.00285827 -0.00186851 0.00343563
N 3.12582943 13.22159486 21.14628089 -0.00686474 0.00383807 0.00474727
N 8.63563070 12.60705451 6.92380961 0.00810795 -0.00680210 -0.00282888
N 16.43038104 4.93871614 24.47301693 -0.00127273 0.00380525 -0.00829708
N 4.01575557 14.08999761 3.35790320 -0.00278142 -0.00657750 0.01211743
N 13.72772621 10.26996049 1.24889829 0.00665470 -0.00209847 0.00336224
N 12.38896177 19.90838995 18.14424920 -0.00185230 -0.00364016 -0.00128347
N 16.80584995 3.11602052 7.86865572 0.00506782 -0.00225154 -0.00124788
N 9.42981348 22.15038936 6.80027788 0.00591664 -0.00301838 -0.00424581
N 19.78385606 0.11522884 17.23108193 -0.01142913 0.00710910 0.00141674
N 23.33088502 3.85821500 16.14736299 0.00582659 0.00307673 -0.00093126
N 9.89464978 12.32712307 23.05208868 0.00260166 0.00332357 -0.00576753
N 11.56573407 0.10748450 22.29942562 -0.00185195 -0.00087743 0.00221580
N 7.79205420 19.60022734 24.50464497 -0.00234921 -0.00469509 0.00631842
N 16.35057514 25.59515915 1.45348774 0.00804720 0.00585665 -0.00540734
N 8.13056949 27.88802973 17.28913084 -0.00564978 0.00174405 0.00454210
N 15.40687976 16.31584202 22.55123518 0.00136238 0.00210973 0.00186600
N 18.81891911 23.19666138 4.41446062 0.00541432 -0.00568445 -0.00373773
N 0.77314135 9.76006258 16.45624863 0.00348803 -0.01142024 -0.00186553
N 12.30755237 0.38016887 27.40240009 -0.00827658 -0.00256910 -0.00319647
N 17.81308674 11.23751210 3.59209543 -0.00377192 0.00534245 0.01006784
N 18.45066320 24.08249151 10.45675582 -0.00616666 0.00284008 0.00756725
N 0.86794851 16.32829392 0.16968158 0.00700702 -0.00845164 0.00167707
N 14.71470626 17.55951584 27.01872906 0.00372258 -0.00318384 0.00520162
N 19.60096354 1.53812382 2.79326199 0.00023432 -0.00332202 -0.00435889
N 21.27015386 11.04133390 14.47369241 -0.00991735 0.00142650 -0.00072720
N 6.15907105 17.76510071 21.30531373 0.00852554 0.00109125 -0.00257579
N 14.12576608 23.51133118 20.11186940 0.00904744 -0.00177099 0.00079833
N 16.81379657 13.28750490 25.07986308 -0.00495683 -0.00029922 0.00297687
N 19.91140825 2.30601254 26.72163053 -0.00121465 0.00453362 -0.00229743
N 22.28271421 5.58399611 22.70811163 -0.00271803 0.00103902 0.00112310
N 17.06500200 8.64288942 20.06607566 -0.00146809 0.00173132 -0.00771937
N 0.09350903 14.36463564 22.54085042 -0.00818404 -0.00318741 0.00352604
N 22.63756061 2.40178993 9.65491696 -0.00603249 -0.00391294 0.00431456
N 19.60606893 19.57874827 10.19756101 0.00337115 -0.00141849 -0.00356516
N 10.56912142 30.24594156 3.33076216 0.00026672 0.00059591 0.00420821
N 18.66056697 26.64711239 13.09106245 0.00231816 0.00140020 -0.00017490
N 17.15199549 16.53879461 12.95243179 -0.00261993 -0.00040993 -0.00004680
N 3.58384171 21.15950531 26.84085076 0.00693063 -0.00492051 -0.00131324
N 18.56453511 5.11093553 10.15351416 0.00228722 0.00326196 -0.00643777
N 10.59977524 21.41121563 1.89054880 0.01091831 -0.00137804 -0.00674191
N 4.45759232 26.47919675 16.76217871 -0.00713660 0.00415014 0.00134941
N 12.53952294 24.25432331 5.03220776 -0.00839262 -0.00171438 -0.00478185
N 14.43223364 26.56732048 25.39610288 0.00045112 0.00238163 -0.00373180
N 22.74064068 20.50921002 4.80004113 -0.00213936 0.00087970 -0.00436173
N 19.83193193 5.73044024 20.46148823 -0.00024265 0.00241827 -0.00797454
N 3.14308251 27.64044268 13.37169180 0.00561857 -0.00113646 -0.00327523
N 0.93459908 22.20034153 8.50192317 -0.00371302 -0.00283583 0.00004162
N 21.27328321 18.00403028 16.73656036 -0.00339569 -0.00538224 0.00488744
C 13.12626950 4.72623415 13.20159498 0.00718530 0.00798099 0.00249581
C 7.20147634 6.04531397 11.62398015 -0.00444951 -0.00603865 0.01189333
C 19.54198678 19.61634515 26.39259988 0.00112035 0.00908248 -0.01086492
C 3.91139623 7.15218327 8.76321878 0.00001082 -0.00942709 0.00564496
C 2.17311970 13.95983027 9.96498567 -0.00674354 0.00258205 -0.00375441
C 1.47036848 19.05593467 21.04367660 -0.01003705 0.00464244 0.00039926
C 8.52645816 21.05262702 14.55844020 -0.00294686 -0.00531909 0.00042409
C 5.98446028 1.44810246 4.96113397 0.00129647 -0.00619880 -0.00385755
C 12.15873915 5.58793423 12.69868520 0.00055665 0.00299619 -0.00059071
C 8.04358232 5.75316289 10.49984700 -0.00255059 -0.00497397 0.00883185
C 20.48020987 19.57933853 25.37802913 0.00232354 -0.00011720 0.00064042
C 5.05318529 7.45790806 7.99925920 -0.00261187 0.00806646 -0.01250390
C 2.99189584 12.84529996 9.84972490 0.00057216 -0.00754167 -0.00123074
C 1.24059332 18.54718253 22.36288594 -0.00915863 -0.00513724 -0.00082926
C 8.59708125 19.93000589 15.34707821 -0.00450816 -0.00131434 0.00128120
C 6.55943592 0.17382835 4.81126734 -0.00659881 0.00184446 0.00606191
C 11.51286398 6.64095484 13.47228235 -0.00315657 0.00178910 0.00417360
C 7.76673084 4.61832317 9.75064117 0.00344309 0.00455413 -0.00255902
C 21.12565599 20.72793156 24.96653949 0.00009611 -0.00199159 -0.00322838
C 4.90010679 8.09737698 6.80753960 0.00356886 -0.00594563 -0.01362501
C 2.59187225 11.66269367 9.12814412 -0.00557513 0.00720407 -0.00861147
C 0.11661141 17.77025606 22.47688944 -0.00088220 0.00050392 0.00131483
C 7.62043801 19.57223911 16.33971722 -0.00548734 -0.01143573 -0.00693738
C 5.64803435 29.77274738 4.97785791 0.00573007 -0.00392954 0.00122867
C 11.97286381 6.72820396 14.76882644 0.00425346 -0.00138214 0.00331092
C 6.62354072 3.87670848 10.07165839 -0.00010648 -0.01094139 0.01146711
C 21.01684708 21.96613651 25.75292432 0.00340058 0.00242751 0.00711330
C 3.55561642 8.41219598 6.43654897 0.00076206 0.00185918 0.00486908
C 1.35243904 11.74398292 8.41277358 -0.00647577 -0.00271924 0.00033702
C 22.65403385 17.67148741 21.50619917 0.00451219 0.00101553 -0.00417634
C 6.58945405 20.47800191 16.49081840 -0.00335710 -0.01143674 0.00572724
C 4.38311778 30.04213370 5.45445132 0.00296544 -0.00803631 0.00896232
C 13.09559954 6.04660736 15.23566709 0.00805464 -0.00291889 -0.00421374
C 5.82231150 4.14866384 11.20201972 0.00128360 -0.00037367 0.00381873
C 20.02279664 21.96894034 26.73317977 0.00583428 -0.00418369 -0.00328159
C 2.41748989 8.20652520 7.26641958 0.00058321 -0.00546947 0.00848899
C 0.58066210 12.91474604 8.43736817 -0.00024756 0.00751321 0.00760665
C 22.78090309 18.26497700 20.28110731 -0.00127307 -0.00119245 0.00389752
C 6.46779303 21.63545138 15.73925870 0.00549551 0.00284693 0.00121211
C 3.91306829 0.64318785 5.75378594 -0.01194210 -0.00304364 -0.01269067
C 13.69628308 5.04918838 14.44192092 0.00677928 0.00822038 0.00124910
C 6.14154796 5.19889065 12.03422187 0.00118015 -0.00280026 -0.00633948
C 19.32804572 20.83664049 27.11999885 0.00939384 0.00864562 -0.00564558
C 2.60115407 7.52506864 8.40211362 0.00673741 0.00278853 -0.00958171
C 0.95538973 14.01187665 9.26764812 -0.00030943 0.00245898 -0.00342892
C 0.53877375 18.90957773 20.04074690 0.00569054 0.00259836 -0.00218611
C 7.39382931 21.84227124 14.71196911 0.00139358 -0.00322941 -0.00283717
C 4.74162295 1.74860481 5.43974803 -0.00558762 -0.00389727 0.00328480
C 15.22281444 3.13888356 14.59976260 -0.00181823 0.00013730 0.00083604
C 4.42601880 4.69662472 13.61548515 0.00725317 0.00421850 -0.00591849
C 17.13951933 20.28355128 0.41979747 0.00823160 0.00781583 0.00431179
C 0.32176622 7.67165480 9.59412056 -0.00604757 0.00471899 -0.00080064
C 22.32601566 14.76694104 9.71105381 0.00401073 -0.00109674 0.00124591
C 1.84240307 20.22068681 18.44290198 0.00337037 0.00334828 -0.00498785
C 6.61395212 24.11925118 14.22401909 -0.00131721 0.00219043 0.00491941
C 5.08415228 4.19568038 5.71688429 -0.00278788 -0.00616816 0.00174562
C 23.29439286 25.22799702 18.01957555 0.00058450 -0.00366377 0.00928911
C 3.64302606 5.30151366 14.72294230 0.00595393 0.00288106 0.00700307
C 10.21676618 2.13623741 6.78491962 -0.00067726 0.00683034 -0.00521205
C 11.22117520 8.01356887 22.73231276 -0.00119761 0.00351445 -0.00183047
C 6.72597069 9.54917634 24.04918106 -0.00035091 -0.00216350 0.00035135
C 1.82663284 20.66876002 17.01202852 -0.00006810 0.00354005 0.00311742
C 2.89262796 29.22894654 24.01733500 -0.00739319 0.00576902 -0.00345222
C 15.41337649 12.69521713 8.75189922 -0.00107430 -0.00197029 0.00654611
C 8.73780516 4.86213107 14.20158190 0.00500603 -0.00052021 -0.00106741
C 6.11654027 6.89559949 26.85551524 -0.00142078 -0.00774662 -0.00167089
C 2.46065484 9.59335596 24.55607366 -0.00478696 -0.00156313 -0.00560409
C 12.78539110 9.01566567 18.87260065 0.00806806 0.00798982 -0.00555299
C 22.37827030 14.51625752 3.60659217 -0.00245960 -0.00055789 0.00892989
C 6.77989252 9.99926111 13.31520419 -0.00647094 -0.00664365 0.00561820
C 10.42552079 22.78229936 22.53507920 -0.00165127 0.00466041 0.00007983
C 13.00960354 11.63767893 10.70505539 -0.00504114 0.00124120 -0.00861747
C 8.78609908 5.95331908 15.06529168 0.00510814 0.00258496 0.00343883
C 6.97445920 5.85782308 26.50817920 -0.00345369 -0.00311307 -0.00115824
C 2.49007113 8.26496975 24.20597612 0.00224445 -0.00309037 0.00639401
C 13.22091984 9.36803137 17.63463202 0.00077265 -0.00258657 0.00205099
C 23.36766771 14.39677080 4.46985091 -0.00940581 0.00387544 -0.00654060
C 6.89153396 10.26099148 11.94377586 0.00389591 -0.00441864 0.00594600
C 11.15054915 21.57530531 22.79599493 -0.00386156 0.00180904 0.00005028
C 12.46634661 11.22900393 11.85624201 -0.00701718 0.00761365 0.00216735
C 7.89499343 6.06272197 16.13898975 -0.00082461 -0.00259480 0.00571744
C 8.35362602 5.95589884 26.18954540 -0.00033868 -0.00584638 -0.00507162
C 2.22753223 7.38603816 25.21861068 0.00699361 0.00391802 -0.01012933
C 12.32648626 9.51381916 16.63887213 0.01204282 -0.00825964 0.00545761
C 0.21647422 15.35534125 5.47549175 -0.00070837 0.00131223 0.00288749
C 5.71881713 10.22494895 11.25746883 -0.00610799 0.00783267 0.00425156
C 11.39093558 21.16412201 24.12516826 0.00718574 0.00519606 0.00314196
C 11.65019849 10.05680212 11.97294511 -0.00071694 -0.00174679 -0.00866733
C 6.94635588 4.99880869 16.37208672 0.00673348 0.00031536 -0.00436579
C 8.77321354 7.31642824 26.11714907 0.00086675 0.00455421 -0.00209650
C 1.95674207 7.80574562 26.48925225 0.00487642 0.00626107 0.00050810
C 10.95089493 9.27791138 16.80835049 -0.01061547 -0.00299949 -0.00091746
C 22.84580864 16.46590278 5.48141996 0.00110281 0.00651017 0.00817002
C 4.46745688 10.02061156 11.82336059 0.00454512 0.00426529 -0.00681997
C 11.15996421 22.13436843 25.15591269 -0.00972018 0.00035154 -0.01656623
C 11.51478137 9.28855068 10.78923894 0.00495821 -0.00253404 -0.00099371
C 6.95161972 3.94415486 15.55888387 -0.00570780 0.00558324 -0.00650593
C 7.97527974 8.34812561 26.48541719 0.00394039 0.00122047 0.00004548
C 1.70112861 9.17764415 26.75684995 -0.00309786 0.00536455 -0.00271438
C 10.47796935 8.86933288 18.00449624 -0.00868957 0.00027936 0.00018392
C 21.74004259 16.57881214 4.67086633 -0.00790776 -0.00205902 -0.01079707
C 4.37783508 9.72802320 13.15044017 -0.00202468 -0.00846281 -0.00103439
C 10.61342736 23.38125852 24.91168582 -0.00329585 -0.00046850 0.00269190
C 12.09546473 9.66320093 9.63886672 0.00044209 -0.00166744 -0.00140340
C 7.77158551 3.85205145 14.32242244 -0.00276562 -0.00211006 0.00439145
C 6.64570908 8.23275981 27.05766319 0.00210057 -0.00030501 -0.00333002
C 1.82108395 10.08235679 25.66932761 0.00593732 -0.00440318 -0.01471782
C 11.41486069 8.80204028 19.07748264 0.00294994 -0.00025282 0.00406396
C 21.42553303 15.60132539 3.72491952 0.00502265 -0.00128730 -0.00736497
C 5.55075828 9.73107605 13.98632161 -0.01052542 0.00048010 0.00098807
C 10.20336243 23.72587382 23.62499178 0.00380218 -0.00506995 -0.00569610
C 12.99589532 10.74917758 9.63069850 -0.00214070 -0.00410610 0.00591410
C 7.07363834 1.80039889 13.52612673 0.00558431 0.00460768 0.00422287
C 6.23823426 10.61251692 27.33366254 0.00208804 -0.00393458 0.00183979
C 1.67664688 12.15392992 26.91661359 -0.00279328 0.00714923 0.00414433
C 11.70417947 8.36615275 21.41273258 0.00404808 0.00043282 0.00443543
C 19.66994495 16.70283138 2.30673795 0.00892755 0.00796247 0.00679478
C 4.61347352 9.05940333 16.03445221 0.00332745 -0.00092915 0.00018987
C 8.74947848 25.23378431 22.28606954 -0.00274260 -0.00867088 0.00100376
C 14.30319345 12.05088206 7.91508093 -0.00719941 -0.00023919 -0.00784387
C 12.85171859 20.89759453 12.81582731 0.00541130 -0.00564564 0.00540787
C 5.17455988 11.71798011 27.27983687 -0.00688845 -0.00544478 0.00551306
C 10.58409666 23.84489247 15.38847312 -0.00303228 -0.00225072 0.00101430
C 23.53162108 9.09281649 9.27267438 -0.00224303 0.01026024 -0.00862133
C 21.45069818 27.19976619 15.47194584 0.00293568 0.01101240 -0.00485032
C 4.74146610 8.87663967 17.54368177 0.00053092 -0.00445939 0.00630070