1920
Time=8000.00000000 pbc="T T T" Lattice="23.10528618 0.00000000 0.00000000 0.00000000 30.90889620 0.00000000 0.00000000 0.00000000 27.87946827" energy=-12192.83984786 virial="-108.76872270 -5.39174843 -5.52758899 -5.39174843 -122.12117053 11.82427353 -5.52758899 11.82427353 -118.84354997" stress="-0.00170354 -0.00028759 -0.00031708 -0.00028759 -0.00257098 0.00065254 -0.00031708 0.00065254 -0.00230257" Properties=species:S:1:pos:R:3:vel:R:3
O 10.44500694 6.33039076 13.63378476 -0.00409288 0.00198554 -0.01030235
O 8.73325439 3.11564366 9.78039435 0.00799535 -0.00874743 0.00118348
O 22.21802527 20.56888835 25.43897598 -0.00250836 0.00131172 0.00693531
O 5.67139855 5.86456795 5.08112992 0.00510207 0.01311429 0.00174788
O 2.02195990 10.79247957 8.18387471 -0.00630906 -0.00807759 -0.00053457
O 22.61119606 17.02833203 24.39641769 0.00029135 0.00368712 0.00109291
O 6.12793206 18.15515694 17.27148299 0.00173350 0.00274714 0.00153059
O 5.96989921 30.86739569 3.71711870 0.00605011 0.00082238 0.00612359
O 6.82766170 1.42863966 14.26302306 -0.00140959 0.00550922 -0.01304800
O 3.25428416 4.95586742 12.70317295 -0.00363839 0.00200483 0.00270738
O 16.86117049 18.77311528 0.36018012 -0.00279148 -0.00621706 -0.01076787
O 13.00259941 8.85408537 20.54677428 -0.00439938 0.00621070 0.00010990
O 17.37148171 13.93936793 2.07093426 0.00471484 0.00826979 -0.00813446
O 3.19777152 20.42905383 20.13287341 0.00491393 -0.00137681 0.00393601
O 6.42487893 24.25470045 15.27961550 -0.00258757 -0.00051989 -0.00083002
O 14.54773477 11.97193494 7.24448014 0.00102986 -0.00346494 -0.00395564
O 4.39415017 6.54961842 16.85780731 0.00775028 -0.00186196 -0.00696622
O 9.25814124 6.05498427 26.47348591 0.00014860 0.00107585 -0.00454663
O 3.62909013 6.45361539 25.49325704 0.00625729 0.00551291 0.00152909
O 11.72996569 9.68445311 14.07956732 0.00104859 0.00160676 -0.00428813
O 21.89554851 17.83611567 6.95864776 -0.00140936 0.00055014 -0.00022900
O 4.14379301 10.60647617 9.72437053 -0.00083233 0.00041614 0.00624854
O 12.78589843 21.41928173 25.51969536 -0.00191938 -0.00249293 -0.00039628
O 9.89692147 8.97482007 12.33610582 0.01326262 -0.00155091 -0.00413910
O 14.99524680 1.98013757 12.72790932 -0.00231307 0.00026716 -0.00108362
O 7.40127506 12.06290955 26.98955449 -0.00702627 0.00248146 0.00269037
O 1.03393937 11.85526084 27.57906331 -0.00025142 -0.00904318 -0.01035449
O 1.22579270 9.16306463 10.06385312 0.00484512 0.00764763 0.00172883
O 21.68790197 14.69724990 10.39647628 -0.00089453 0.00154341 0.00179045
O 3.04160914 10.37603173 15.95062364 0.00494766 0.00209820 -0.00204783
O 9.97499427 26.89155238 23.18921769 0.00070011 -0.00189036 -0.00168770
O 0.24630775 3.57628167 7.36373648 -0.00217282 0.00793830 0.00176172
O 7.07077239 25.10514924 8.43335864 -0.00757789 -0.00359744 -0.00870217
O 22.17418440 30.24132541 6.18350217 -0.00347143 -0.00432007 -0.00475884
O 6.06398108 27.29542094 9.35115180 -0.00029935 -0.00222150 -0.00229945
O 2.98608814 19.52775573 10.93962937 0.00449923 0.00373236 0.00000150
O 2.69403800 2.44990044 11.95273189 0.00354419 0.00191962 -0.00457362
O 17.75428639 28.74675995 27.22753974 0.00106467 -0.00394748 0.00179555
O 5.96252332 23.60495790 26.26352818 0.00401755 -0.00008723 -0.00164985
O 6.60706562 0.72511261 24.98626705 -0.00116253 -0.00319210 -0.00764257
O 23.09079545 22.32108894 20.01927088 -0.00609652 -0.00075582 0.00505215
O 1.95888088 24.48978389 6.38364146 0.00145565 0.00334883 -0.00533632
O 7.16604035 2.32434484 7.59431629 0.00582812 -0.00276775 0.00534212
O 1.85495482 24.08321488 1.15646789 0.00824833 -0.00022641 -0.00245818
O 8.39977820 9.05943705 22.31465980 -0.00308995 0.00401518 -0.00396737
O 19.77261318 27.19966029 5.09060531 0.00718459 0.00523607 0.00045027
O 6.25700283 29.30218990 24.09921756 -0.00668772 0.00132486 0.00258809
O 17.40034377 25.73604760 19.83427269 0.00261494 0.00670763 -0.00261414
O 18.20681327 20.65594551 23.87444313 -0.00694739 0.00698161 -0.00756853
O 20.95085954 25.48454565 26.57773020 -0.00297512 -0.00574789 0.00231444
O 15.60517330 27.90613251 19.95841196 -0.00537456 -0.00199493 -0.00102820
O 5.43033321 28.32793251 3.94373577 -0.00373397 -0.00889773 0.00257418
O 8.46231608 2.98657065 22.17408216 -0.00746436 -0.00199261 -0.00014166
O 0.41014365 21.96586394 23.70940545 -0.00208599 -0.00725465 -0.00448666
O 5.14747279 13.04051542 17.20577042 0.00167837 -0.00376721 -0.00483979
O 19.26742582 27.15334596 25.70305813 -0.00198761 -0.00066271 0.00070885
O 10.29097488 19.90552597 10.24091760 -0.00703356 -0.00484930 0.00558287
O 0.92755033 30.63445661 1.03069475 0.00660306 -0.00391719 0.00166336
O 12.38292603 23.73054585 16.01717265 -0.00016353 0.00542934 -0.00223543
O 1.30336999 15.96427167 15.63805927 -0.00539001 0.00744730 0.00787495
O 22.84492205 30.03292143 16.53027290 -0.00753586 0.00167765 -0.00774013
O 2.64701814 27.11762839 21.09054839 0.00315768 -0.00633655 0.00216852
O 5.31640528 15.83005842 10.01694142 -0.00162048 0.00378284 0.00173431
O 2.90805803 5.23577349 27.62781463 -0.00600175 0.00098142 -0.00173344
O 5.63956731 15.69517070 26.17662835 -0.00006886 0.00377739 -0.00650914
O 7.78745535 8.66119194 8.58096082 -0.00097005 0.00375532 -0.00537945
O 11.53452179 6.62231322 25.18105456 -0.00544455 -0.00176187 -0.00299549
O 9.20502251 14.21368369 12.01722471 -0.00697760 -0.01418460 0.00105042
O 10.10592715 12.69005988 4.10989041 -0.00120586 0.00110833 0.00164296
O 16.27369139 15.62008509 6.52231586 0.00123224 0.00100327 -0.00171802
O 14.35719967 7.75114127 10.51457579 -0.00042741 0.00406004 0.00098274
O 16.54230204 16.93408255 18.03591483 0.00754152 -0.00693203 -0.00066741
O 16.58657057 29.51753341 16.86650727 0.00593623 -0.00460958 -0.00728762
O 10.30576807 5.57194825 3.57037745 0.00379108 -0.00162114 -0.00481107
O 16.45102368 3.23097870 23.53106344 -0.00028859 -0.00443041 -0.00145615
O 5.33551557 10.72900555 2.65399276 0.00581333 0.00208008 0.00193378
O 6.36004355 18.15128946 25.96557063 -0.00756636 0.00475170 -0.00948778
O 19.77868828 10.44025464 8.30933867 -0.00698514 -0.01070574 0.00579695
O 14.98921111 1.60748449 8.70049419 0.00119249 -0.00166027 0.01251525
O 23.01732274 8.03304824 0.72944026 0.00494989 -0.00020522 -0.00467051
O 21.78941174 0.63323870 22.22911919 0.00618632 -0.00086289 -0.00064282
O 3.23804975 9.40385257 20.69523496 -0.00537398 0.00230910 -0.00304851
O 7.45197978 12.13787992 17.88888513 -0.00507910 -0.00070855 0.00161637
O 4.48277189 4.50368312 1.75277138 -0.01480746 -0.00367550 -0.00049574
O 4.74527618 22.30703645 21.17176334 -0.00876537 0.00637548 0.00052827
O 12.57440226 28.60545518 14.57561875 0.00212877 0.00299858 0.00374453
O 4.83056596 24.78615920 21.25650145 -0.00402099 0.00525331 -0.00569414
O 17.19849043 8.76505740 26.19318386 -0.00522963 -0.00524048 0.00255758
O 4.58190358 11.76319984 21.18254612 0.00616605 0.00420599 0.00501915
O 8.83850899 6.27979243 19.82985290 -0.00514754 0.00162283 0.00222271
O 12.32000130 14.07939038 22.80805162 -0.00796487 0.00122856 0.00078202
O 10.30036941 12.59120119 17.95599946 -0.00186538 -0.00032559 -0.00860690
O 14.90995279 8.87197161 27.22059210 0.00305646 0.00131490 -0.00124562
O 13.88459594 2.59663498 18.61396935 0.00148396 -0.00089578 -0.00405333
O 8.12239608 26.31987651 15.90528183 0.00433685 -0.00028315 0.00228812
O 14.60592029 11.57923137 14.95981040 -0.00217451 0.00276510 -0.00077957
O 6.26801707 15.83898079 0.95844162 -0.00236557 0.00319232 0.00379799
O 11.14260785 13.66403346 10.10521903 -0.00058135 0.00703956 0.00427802
O 15.78925703 5.99962369 1.67060899 -0.00099237 0.00933177 0.00011068
O 6.51693146 14.62714828 7.95828178 0.00154178 0.00448541 -0.00370622
O 12.69119358 1.25819885 7.48021076 0.00574793 -0.00047757 -0.00462486
O 15.32706684 19.21889950 14.51668312 -0.00113739 0.00298741 0.00196917
O 7.06416434 17.93085182 12.58864467 -0.00444279 -0.00248656 0.00447614
O 11.50359038 17.18274990 6.81497755 0.00268445 0.00533721 -0.01525186
O 19.14900992 17.74650711 19.88001062 0.00261251 0.00521520 -0.00006465
O 5.88801360 10.35091794 8.05401194 0.00861859 0.00733629 -0.00418298
O 11.80413797 3.28601538 5.74951781 0.00091307 -0.00344032 -0.00141947
O 11.01495164 2.90712469 22.76338880 0.00058769 0.00226660 0.00750096
O 5.71645777 2.11655364 20.48528690 -0.00698239 -0.00182841 0.00403303
O 9.47256832 20.83096888 16.77368125 0.00236348 -0.00363036 0.01121145
O 6.19701151 18.51630462 5.02367814 -0.00386574 0.00346521 -0.00771109
O 15.06975885 16.48460031 20.10116684 0.00364712 0.00486770 -0.00356187
O 19.54561472 12.70352889 23.25290491 0.00538379 0.00359605 0.00060941
O 21.04909150 7.05614811 11.44776587 0.00145589 -0.00209287 0.00070382
O 14.32013199 24.00260244 14.52183762 0.00635908 -0.00332596 0.00217602
O 9.42816508 29.45494418 27.36673408 0.00333036 0.00237602 0.00467679
O 10.67020112 28.71356188 21.33953227 0.00806144 0.00476574 -0.00071569
O 16.47919002 22.26970482 25.45164664 -0.01081284 0.00187584 0.00086458
O 10.30385692 16.87364197 20.60922295 0.00642744 0.00070447 -0.00480425
O 14.84509673 21.50975777 23.70930881 0.00553043 -0.00121799 -0.00478745
O 10.70654516 15.16680339 5.13380117 0.00385474 0.00095182 -0.00038488
O 1.90350727 5.77566579 16.20774665 -0.00151150 -0.00230802 -0.00075516
O 14.49579835 26.06884263 8.17070393 -0.00753421 -0.00101746 -0.00111315
O 1.73324236 14.26905367 2.24535890 0.00709140 -0.00171836 0.00217676
O 10.81698341 28.77865366 12.70721924 0.00283067 -0.00046951 -0.00520833
O 14.01831326 24.85720592 2.86360323 0.00200559 -0.00468144 0.00197098
O 9.00175644 16.62686797 14.01086625 0.00141645 0.01003789 -0.00225780
O 7.95915400 22.29709712 5.14057186 -0.00149109 0.00024728 -0.00506696
O 21.93187033 1.37637393 8.00841406 -0.00758757 -0.00195959 0.00683206
O 0.30286259 12.40048554 11.71344291 -0.00526772 -0.00116463 0.00292637
O 8.04035321 4.13224299 27.49430176 0.00689892 0.00046540 0.00475293
O 0.04961516 12.35704973 2.13655360 0.00177924 -0.00511136 -0.00047714
O 13.36389308 14.08251397 8.74679054 0.00173275 0.00181626 0.00203074
O 5.53183727 18.73701875 2.68419022 0.00978371 0.00528513 0.00008350
O 22.20433563 6.05722339 6.77868696 -0.00697441 -0.00013259 -0.00771437
O 18.34699878 6.39390570 4.75234142 -0.00090699 0.00705236 0.00610653
O 2.30804545 25.81978132 17.17174970 0.00498004 -0.00357094 -0.00432164
O 1.29072708 8.19687841 16.36233327 -0.00121541 0.00434193 0.00870547
O 9.97403668 29.55646395 4.76326713 -0.00447784 0.00348754 0.00060795
O 18.69928048 12.41488592 25.67113599 -0.00479411 0.00723262 -0.00243079
O 20.70080689 5.52118856 18.88406451 0.00740605 -0.00175896 -0.00070128
O 0.77856165 16.90287423 26.69313966 -0.00472954 -0.00589361 -0.00208967
O 18.11917945 3.01920765 10.36570262 -0.00748485 -0.00718249 -0.00129246
O 0.93414976 16.02296057 21.23532242 0.00991568 0.00141460 0.00664359
O 4.94194293 0.49400432 15.57698035 0.00129281 0.00665779 0.00570639
O 11.15473148 18.73458082 24.25215280 0.00092401 -0.01444877 -0.00003629
O 16.74815518 0.68066063 22.79173632 -0.00153280 -0.00480157 -0.00004503
O 14.92829137 8.66323919 22.19267447 0.00813647 0.00609672 0.00164050
O 20.07479820 11.42914184 21.05862122 -0.00657195 0.00356045 0.00110599
O 3.37837578 1.66839521 21.44306226 -0.01026920 -0.00181445 0.00026232
O 1.77897840 17.88589281 5.57873743 -0.00077170 -0.00188938 0.00237069
O 22.29396977 9.56498191 25.14477975 -0.00498482 0.00397027 -0.00439371
O 20.03781918 0.38254905 13.89532446 0.00196193 -0.00635018 0.00273764
O 6.54084116 18.80030269 19.79540344 -0.00058260 0.00918128 -0.00428646
O 13.15631197 26.31686281 23.74833584 -0.00328431 -0.00100289 -0.00234057
O 19.13137331 8.89022261 5.31978185 -0.00973917 -0.00425594 0.00573752
O 18.25036112 17.10557661 11.42648040 0.00321159 0.00767284 -0.00365139
O 22.00334016 7.59632964 23.27278138 -0.00047580 -0.00220777 0.00276692
O 2.02870759 21.93574398 10.33546160 -0.00241818 -0.00415002 0.00033331
O 21.50405465 0.34064781 1.37711445 -0.00867688 -0.00191858 0.00973962
O 13.93903338 17.62130429 7.68814614 0.00284390 -0.00230448 -0.00822459
O 15.67316056 21.74110106 13.70811134 -0.00153372 0.00077361 0.00282986
O 13.62714767 30.42906518 5.83160373 -0.00430114 0.00677677 0.00305800
O 14.39053394 30.43386384 12.17380612 -0.00106345 -0.00151194 -0.01134842
O 0.62297504 27.32676167 11.69290848 0.00138081 -0.00473608 -0.00124705
O 5.73080591 23.13219063 5.28603354 0.00192342 -0.00045331 0.00014619
O 12.52408388 13.16947686 26.10943664 0.00471933 0.00354522 0.00181507
O 8.25872691 27.26111473 0.74774901 0.00455362 -0.00634511 -0.00539028
O 19.34328290 12.59489562 14.66558074 0.00154348 -0.00211058 0.00010083
O 20.75888850 19.51948574 8.38617682 -0.00004462 0.00743513 0.01108830
O 13.74147469 2.95839129 0.36730989 0.00473965 -0.00183437 0.00372426
O 21.36257956 18.46240159 3.06515568 -0.00326810 -0.00271901 0.00151270
O 20.46626282 0.88506706 24.43041255 0.00016841 -0.00345980 -0.00306610
O 0.72266968 21.24011513 1.83202621 0.00171285 -0.00201303 -0.00495262
O 13.63400629 20.33819259 0.34719880 0.00357141 -0.00888314 -0.00106970
O 19.99247227 18.31024163 17.55505580 -0.00329182 0.00649514 -0.00631622
O 17.74103746 9.28005608 9.73004616 -0.00493716 0.00177301 -0.00232356
O 14.19612954 22.20454433 9.34264391 -0.00210291 -0.00747099 -0.00584784
O 17.80502474 21.60860283 16.80396885 0.00451765 -0.00076905 0.00995264
O 21.16731767 25.43166912 6.36469348 -0.00812910 -0.00286202 0.00295122
O 16.12937748 3.84732040 27.85111687 -0.00216173 -0.00716665 -0.00284493
O 2.61913150 22.86828803 12.62834261 -0.00119734 -0.00052037 0.00060400
O 16.49339328 3.06236107 17.86534433 -0.00551346 -0.00176259 0.00257756
O 21.89945999 23.91668287 15.13968180 -0.00103294 -0.00287401 -0.00506766
O 15.55682206 22.46469820 3.85469468 -0.00105436 0.00546943 -0.00269248
O 10.66678066 27.26523355 4.45673739 0.00367980 -0.00601652 -0.01174856
O 12.92104834 25.23161832 21.53433901 0.00052980 0.00811003 -0.00603837
O 20.07152779 26.32206910 14.80036457 0.00150120 -0.00080967 -0.00355411
O 18.30904771 26.51385711 8.62939203 -0.00814394 -0.00351353 -0.00301409
O 5.61591843 28.18277221 11.91325231 0.00057263 -0.00102209 0.00346094
O 17.07502949 9.43077307 17.86109961 0.00368803 0.00043496 -0.00404462
O 12.60805242 22.39118012 1.38183052 0.00396111 0.00088077 -0.00239134
N 10.29974520 21.76429930 11.50126239 -0.00494225 0.00468774 0.00415889
N 5.19562778 6.06102535 12.89820489 0.00019652 0.00367351 0.00553273
N 7.44764594 0.73920802 6.04863570 0.00701352 0.00431254 -0.00919770
N 2.93497609 7.65369106 9.52299062 0.00782052 0.00546021 -0.00617276
N 22.68938401 29.30710637 14.40802198 -0.00129827 -0.00260250 0.00164391
N 0.92944734 19.73271919 19.84260225 0.00677923 0.00808100 -0.00741041
N 4.32684454 28.20004256 23.67872517 0.00421525 -0.00069548 -0.00110756
N 1.90549763 2.97501025 5.94662456 0.00032476 -0.00312557 -0.00398726
N 21.75260735 23.90008500 20.98152956 -0.00672350 0.00133543 0.00279154
N 5.89831479 10.28780191 27.12823285 -0.00747274 0.00044589 -0.00096400
N 11.33819828 25.34827205 17.27997920 -0.00171082 -0.00014570 0.00318626
N 11.27576515 7.82342303 19.35138485 -0.00014111 0.00338613 0.00332869
N 6.94730285 8.05670026 23.74466980 0.00357619 0.00291480 -0.00344717
N 5.25534282 10.52278474 15.21860991 -0.01320003 0.00232676 0.00944290
N 5.01250703 15.64899226 12.35853615 -0.00181388 0.00491452 0.00325061
N 13.31066123 10.23758883 8.05564859 0.00430153 0.00620304 0.01110395
N 14.82960575 3.08523065 14.66358676 -0.00332283 0.00572350 0.00366843
N 2.87633354 26.39503479 7.43850464 -0.00052808 0.00594907 0.01874187
N 17.63338764 20.92116275 0.59939355 0.00048246 0.00127840 -0.00063990
N 2.61870018 17.72977986 16.20127581 -0.00269365 -0.00279240 -0.00294626
N 0.05848229 15.79674154 9.03933993 -0.00116987 0.00140640 -0.00292303
N 18.68432991 29.17568632 4.84533850 0.00207174 0.00032048 -0.00065528
N 7.29888203 22.54827290 13.93828289 -0.00079947 -0.00832689 0.00560243
N 2.29934116 3.00036013 27.70183722 -0.00636103 0.00368255 -0.00039576
N 7.67629211 3.48125566 13.77034096 0.00162710 -0.00115660 -0.01105579
N 1.16191493 28.52686439 1.96259510 -0.00069271 0.00096515 -0.00196372
N 1.90966833 11.88291445 25.44075644 0.00678148 -0.00475008 0.00604460
N 3.20696433 25.36637937 27.73789290 -0.00400491 -0.00036013 -0.00599953
N 18.93502155 14.75523732 3.41091619 -0.00633311 0.01645701 0.00196680
N 0.68566754 27.29766270 22.11418705 -0.00252939 0.00774878 0.00162678
N 8.87470704 25.04032025 23.97214480 0.00389612 -0.01157102 -0.00066511
N 19.01549014 27.22475465 20.19592798 0.00281267 0.00722380 0.00152327
N 11.47792096 15.28039407 2.87277219 -0.00901725 -0.00182055 0.01185496
N 10.77871194 7.86225522 3.99130781 0.00694101 0.00251659 -0.00186121
N 12.48358684 5.45789011 6.15111489 0.00296221 -0.00148716 0.01165276
N 12.03351131 12.74854165 16.56681142 0.00479866 0.00323959 0.00330054
N 9.34626210 29.53877426 11.18815580 -0.00507096 -0.00135777 -0.00479329
N 20.56633267 12.60780578 8.53229042 -0.00398467 -0.00139991 -0.00032271
N 7.08882848 17.90488764 7.01799732 -0.00285069 0.00734506 0.00215013
N 16.09205892 13.13922697 13.97653878 -0.00364253 0.00664829 0.00054172
N 17.88818602 17.83987017 21.82013367 -0.00495256 0.00298075 -0.00122395
N 6.85859770 5.19650369 20.01799373 -0.00963317 -0.00285404 0.00123792
N 13.38823016 27.17681368 9.85721941 -0.00847854 0.00606500 0.00634669
N 7.05341304 9.43955694 1.92469074 -0.00429212 0.00411571 -0.00268508
N 7.16772722 1.23339894 18.76160360 -0.00367875 0.00262293 -0.00032720
N 12.60289095 2.79478368 16.77768325 -0.00271631 0.01099517 -0.00149134
N 10.90391697 16.28534809 15.16920912 0.00277911 0.00541596 0.00386188
N 21.23796170 7.51898111 1.99022492 0.00480804 -0.00636723 -0.00418130
N 3.45286738 13.68004818 21.33819892 -0.00664950 -0.00534095 0.00190418
N 6.99698537 11.85730030 6.80923100 -0.00282390 0.00262060 0.00143673
N 16.84258753 5.10079541 24.81210023 -0.01426520 0.00952028 -0.00279037
N 3.63274991 14.46335659 3.34145426 -0.00534694 0.00471419 -0.00925669
N 14.38814491 10.24530870 1.15885632 -0.00232151 0.00045767 0.00557505
N 11.34943900 20.84289371 18.21694985 -0.00657911 -0.00518023 0.00572005
N 16.12178863 3.26184882 7.64200068 -0.00574580 0.00688917 -0.00010539
N 9.48936141 22.45317374 6.72697557 0.00338800 -0.00678399 0.01084697
N 17.66159415 30.72763733 18.37466381 0.00040808 -0.00106485 -0.00193436
N 22.77425214 5.26037212 16.42670104 0.00560700 0.00066853 -0.00284710
N 10.12647246 14.08580317 22.35500006 0.00123450 0.00603529 0.00466663
N 12.01247009 0.74806704 22.95239471 -0.01041131 -0.00334951 0.00696594
N 7.65731109 19.97587973 25.44238675 0.00381887 0.00683210 -0.00095414
N 15.98660641 25.68948247 2.02568878 -0.00381172 -0.01299364 -0.00093325
N 8.17680540 27.64433457 17.65705472 0.01090542 -0.00478133 0.00276401
N 14.94850113 16.27728373 22.41201689 0.00128234 -0.01163253 0.00329921
N 17.23087572 21.38666450 5.06058446 0.00051165 -0.00388679 -0.00583156
N 22.94414817 10.00862879 16.80096215 -0.00752155 -0.00507466 0.00046706
N 13.36720406 0.70990389 0.27058550 0.00214504 -0.00533346 0.00979215
N 18.26306130 10.29301536 3.66107099 0.00628089 -0.00008191 -0.00105112
N 18.84077273 24.97495406 10.24307018 -0.00651133 -0.00955048 -0.00205364
N 0.38539771 17.64315190 0.88959598 0.00184152 0.00190987 -0.00293659
N 13.90552085 18.03298883 0.17977223 0.00457641 -0.00450515 0.00388623
N 19.75581704 1.48023017 2.40701483 -0.00263483 0.00131814 0.00130532
N 18.36265659 10.57934059 15.07882796 0.00643708 -0.00125298 0.00547035
N 6.32966938 17.52476806 21.70671020 -0.00853844 -0.00599573 -0.00000896
N 13.98320944 23.88357683 20.12796569 -0.00114807 -0.00443503 -0.00047822
N 16.52657787 13.08420661 25.07693389 -0.00644124 0.00200892 -0.00685916
N 21.07120113 1.75713351 26.44394893 0.00589420 -0.00952845 -0.00189747
N 0.23436730 5.92528638 22.48462707 0.00225853 -0.00573863 -0.01088463
N 16.49884922 8.32669943 19.72984045 0.00163178 0.00355192 -0.00083539
N 0.20399324 14.49737773 22.72712973 -0.00258044 0.00540481 -0.00104548
N 21.00466248 2.42088356 13.31907464 0.00080170 -0.00714509 -0.00169109
N 19.46563258 19.81503531 10.27113997 0.00336509 0.00573987 0.00379311
N 10.00238664 0.49511268 3.43136706 -0.00252496 0.00191591 0.00002499
N 18.98042277 27.35471168 12.93525383 -0.00058731 -0.00190775 -0.00140599
N 16.18158594 17.48833292 12.30647001 0.00452882 0.01346253 0.00205510
N 2.85144077 20.96663460 1.07886998 0.00210587 0.01013687 0.00224173
N 17.88709044 5.32033362 10.07279909 -0.00319294 0.00161883 -0.00290613
N 10.60106951 22.39965150 2.56749829 0.00143955 -0.00249166 -0.00012752
N 4.25916572 25.79991576 16.03523043 -0.01202254 0.00305654 -0.00804219
N 11.92892573 25.57048705 5.50028349 -0.01145943 -0.00403671 0.00836832
N 14.20679883 27.51944609 25.40148891 0.00597687 0.00143933 -0.00654806
N 21.04115228 20.25088636 4.32187778 0.00057328 -0.00827782 0.00099842
N 19.28359954 5.88343144 20.67438461 -0.00641511 0.00420653 -0.00970070
N 3.61037579 28.25596704 12.88436377 0.00223259 0.01384436 -0.01643197
N 1.06424136 22.57047097 8.29304191 0.00800500 -0.00305992 -0.00630050
N 21.32668120 18.41197456 15.59734684 -0.00131932 0.00238619 0.00397561
C 12.81027933 3.48234248 13.30324488 0.00369404 -0.00254729 0.00479018
C 7.29953664 5.82958716 11.70733755 0.00339297 -0.00938977 0.00562166
C 18.87780460 19.67176588 26.71869246 -0.01119505 0.00562222 0.00268019
C 4.71605744 6.46249779 8.56796696 0.00446098 -0.01177777 -0.00303099
C 1.65537234 14.08030310 9.57373002 -0.00279890 0.00498850 0.00051709
C 1.55564775 18.92672050 22.07309985 -0.00662119 0.00327044 -0.01160893
C 7.27623912 20.13772463 14.38395416 -0.00550437 0.00368797 0.00260005
C 3.48738204 2.45351856 4.29630825 0.01135733 0.00023229 -0.00710136
C 11.65028532 4.21778516 13.07612209 -0.00271421 -0.00055224 0.00080355
C 7.99124170 5.15896508 10.76652422 -0.01187415 0.00358411 0.00767544
C 20.06602467 19.63139521 25.99611031 0.00152283 -0.00375586 0.00432318
C 5.34075288 5.97495936 7.42320588 -0.00170302 -0.00160423 0.00235893
C 2.19808297 12.78062773 9.36284432 -0.00614814 0.01059153 -0.00180136
C 1.19318603 18.28795789 23.16961318 -0.00531027 0.01284145 0.00705611
C 6.79366098 19.04837132 15.16021203 -0.00281603 0.00495879 0.00727731
C 4.42768594 1.66886229 3.65541499 -0.00586280 -0.00748578 0.00035864
C 11.57094529 5.49676101 13.55887113 0.00058725 0.00089283 0.00306635
C 7.74347780 3.83605176 10.42587166 0.00182807 -0.00277028 0.00225696
C 20.90545579 20.77461205 25.82319511 0.00825078 -0.00290108 0.00263062
C 4.89999960 6.28831241 6.17225662 -0.01140576 0.00383216 -0.00447696
C 1.74076408 12.06893723 8.23769929 0.00081859 0.00063718 0.00656875
C 23.01733880 17.73154724 23.34718106 0.00392180 0.00611601 -0.00579788
C 6.42609419 19.23796924 16.52259353 -0.00270886 0.00609516 0.00466965
C 4.85831561 0.45588655 4.19390566 0.00914031 0.00838954 -0.00469684
C 12.64770852 6.05558222 14.17585639 0.00445849 -0.01216898 0.00775760
C 6.47912933 3.29480150 10.68416141 -0.00309893 -0.00504743 -0.00499828
C 20.49852209 22.02850706 26.37240894 0.00747748 0.00037361 0.00234712
C 3.82396904 7.19249639 5.91645825 0.00497102 -0.00331119 0.00041359
C 0.81583308 12.59066445 7.28566397 -0.00100955 -0.01080530 -0.00018463
C 22.02648244 18.00668526 22.32937420 0.00321947 0.00527465 -0.00029902
C 6.07091803 20.54852910 16.80117223 -0.00761947 -0.00831868 0.00326515
C 4.04719210 30.82227599 5.35407795 0.00185020 -0.00666517 -0.00857328
C 13.73325943 5.21804137 14.57305314 -0.00387360 -0.00046882 0.00112501
C 5.64918478 4.02847941 11.48349419 0.00227754 -0.00117283 0.00186149
C 19.34543290 22.06150875 27.11738990 -0.00342406 0.00222603 -0.00035047
C 3.23803739 7.72147866 7.00148458 -0.00036283 -0.00640304 -0.00857707
C 0.35403630 13.88548737 7.54388422 0.00668949 -0.00014245 -0.00841914
C 22.38387057 18.60865993 21.16328688 0.00663445 -0.00500207 -0.00045308
C 6.31588788 21.65512720 15.97901721 -0.00386055 0.00380071 -0.00206586
C 3.20722025 0.77668972 6.01733850 0.00451203 0.00692488 -0.00501708
C 13.78292266 3.91536980 14.20168771 -0.00191287 -0.00706461 0.00481443
C 5.96170612 5.35808266 11.99158450 -0.00042995 -0.00179838 -0.00337652
C 18.62646249 20.87387996 27.45887960 -0.00213254 -0.00368422 0.00077001
C 3.58528322 7.20989945 8.31274240 -0.00993662 0.00280430 0.00984619
C 0.72893477 14.61571100 8.72219692 -0.00089257 0.00034168 -0.00596466
C 0.56973642 19.13208043 21.11265079 -0.00159128 0.00210076 0.01337190
C 7.04674764 21.47336465 14.80948800 0.01265883 0.00292653 0.00171678
C 2.88682740 2.08437300 5.49217868 -0.00097496 0.00089384 0.00033876
C 15.26914624 2.03439399 13.95557516 0.00320690 0.00166031 0.00010183
C 3.79791307 5.99295974 13.03294585 0.00345117 0.00366687 -0.00688706
C 16.93090177 19.78139589 0.99717783 0.00019553 -0.00465583 -0.00139057
C 1.55700242 8.06507508 9.56852147 0.00419591 -0.00265188 0.00246283
C 22.12352624 15.76541802 9.96595359 -0.00148905 0.00259838 -0.01114550
C 2.13437701 20.23777609 19.49484017 -0.00234633 -0.00268092 -0.00113313
C 6.88636986 23.81522512 14.21264135 0.00064413 0.01073793 0.00875290
C 1.45672363 3.20811259 7.20530408 -0.00439246 -0.00304391 0.00365420
C 0.02697970 24.33724351 19.00612997 -0.00289494 -0.01393819 -0.00455100
C 3.01151220 7.21608913 13.49258864 -0.00127483 0.00140884 0.00530951
C 7.87640987 2.96124891 5.48672503 -0.00307159 0.00052323 0.00515415
C 12.37350653 6.68249167 21.16142016 0.00150308 -0.00143711 0.00028823
C 6.93076909 10.62154326 23.28608120 0.00313060 0.00417506 0.00022635
C 2.15251835 20.79334950 18.07745531 -0.00497866 0.01043641 0.00331103
C 4.56251850 30.43936534 22.85603222 0.00085070 0.00270885 0.00423405
C 15.33710496 10.86697166 9.12227971 0.00193794 -0.00281660 -0.01098640
C 7.42569160 5.36988040 15.15972347 -0.00599878 0.00689522 -0.00048827
C 6.29202513 7.95318451 27.01051068 -0.00305367 -0.00104260 -0.00029860
C 2.92160714 9.95844584 24.25709847 0.00282363 -0.00005506 0.00530228
C 12.63546638 8.80529178 17.58855756 -0.00660747 0.00216428 -0.00180726
C 21.05510250 15.54462754 4.23714532 0.01121942 0.00532860 -0.00262977
C 5.89814728 10.07944127 12.84839598 0.00041720 -0.00166725 -0.00921894
C 10.77419522 23.63935215 23.43750748 0.00122134 0.00036697 -0.00779654
C 12.53011758 10.65358296 10.30621593 0.00871396 -0.00055979 -0.00104028
C 6.52950198 6.14115510 15.85183861 0.00298366 0.00126243 -0.00188262
C 7.11673092 6.84150271 26.81773416 0.00807867 0.00145633 -0.00000594
C 3.25915232 8.57298068 24.31648939 0.00612052 -0.00635911 0.00348527
C 12.74001542 9.36393452 16.31460784 -0.00145297 -0.00843793 0.00518582
C 21.75252478 16.34993545 5.09665507 0.00082187 -0.00201767 -0.00650975
C 5.65098535 10.11959258 11.52804211 0.00552308 -0.00339667 0.00276103
C 11.70711433 22.77484507 23.89372976 -0.00471128 -0.00394017 -0.00447752
C 11.64495084 10.25296239 11.35344004 0.00886748 0.00175100 0.00248889
C 5.20878899 5.78844659 16.02352599 0.00079645 0.00721006 0.00173293
C 8.41730150 7.03806668 26.42052015 0.00032635 -0.00430324 -0.00638501
C 3.17504682 7.72704167 25.45922502 -0.00783011 -0.00042208 0.00162385
C 11.67261749 9.30033975 15.40599081 0.00630648 0.00000081 -0.00556682
C 21.15423667 17.20084729 6.02137577 -0.00665531 -0.00904622 -0.00021915
C 4.36589560 10.50452626 11.00357372 0.00330512 -0.00091074 0.00801994
C 11.70767426 22.25841770 25.13269008 0.00135869 -0.00205035 0.00206788
C 10.77966683 9.12549198 11.45148151 0.00184274 -0.00410481 0.00979532
C 4.72520711 4.49892370 15.68937200 0.00320176 -0.00345283 0.00091430
C 8.88235766 8.43944745 26.10575730 0.00205152 -0.00345548 0.00535548
C 2.52281117 8.26697682 26.54895852 0.00319906 -0.00153524 -0.00402718
C 10.38159544 8.79621265 15.88744044 -0.00223143 -0.00055574 -0.00313522
C 19.83602638 17.40287048 5.94830949 -0.00061881 -0.00620159 -0.00100269
C 3.32737863 10.72469382 11.94998252 0.00143016 -0.00214988 -0.00019755
C 10.78948455 22.64836556 26.06323525 -0.00480953 -0.00865831 0.00756488
C 10.82801500 8.46317081 10.20334318 0.00175461 -0.00215104 -0.00218732
C 5.57572776 3.80241004 14.80552057 0.00012864 0.00315395 0.00175910
C 8.10453605 9.48134428 26.35633298 0.00627508 0.00505356 0.00474308
C 1.97992685 9.51511380 26.36211733 0.00641246 -0.00391506 -0.00724752
C 10.23453202 8.22229087 17.22009295 0.00703116 -0.00245052 -0.00826488
C 19.04835145 16.65853007 5.01818338 0.00162640 0.00322981 -0.00419066
C 3.62305641 10.68730535 13.30357378 0.00529141 0.01627659 0.00892103
C 9.80152851 23.51473632 25.60190750 -0.00034509 0.00411732 -0.00498044
C 11.51933192 8.85027223 9.04419041 0.00494267 0.00279204 0.00924519
C 6.86206177 4.19706296 14.57114181 -0.00785066 -0.00152492 -0.00104814
C 6.77705314 9.25514565 26.78581734 0.00508460 0.00231487 0.00095626
C 2.25465170 10.42483924 25.32665208 -0.00656334 0.01489483 0.00941148
C 11.40069812 8.33972308 18.03575546 0.00768272 -0.00186600 0.00206708
C 19.69506103 15.72899914 4.10377355 -0.00831877 0.00278506 0.00156334
C 4.91914656 10.39758008 13.81945787 -0.00358652 0.00062360 -0.00028357
C 9.87381557 24.13748931 24.29420444 0.00552223 0.00996476 0.00551526
C 12.51080881 9.92173258 9.10960663 0.00225848 -0.00157426 -0.00519782
C 7.47463483 2.19193415 13.56511461 -0.00276657 -0.00687564 0.00311849
C 6.29767694 11.60374022 27.27016792 0.00390474 -0.00102169 -0.00237463
C 1.54520418 12.48732155 26.56416693 0.00165373 0.00671794 0.01048994
C 12.29783600 7.87526663 20.29493755 -0.00387792 0.00181499 -0.00124717
C 17.92279752 14.92996154 2.52913763 -0.00346583 0.00537062 0.00069612
C 4.35809536 10.31073303 16.20262857 -0.00236898 -0.00287572 0.00158988
C 9.18332700 26.03503762 22.95518617 0.00741403 -0.00503321 -0.00124134
C 14.38686416 11.12299390 8.10938410 0.00599752 -0.00124244 -0.00194865
C 12.28791354 20.50758257 11.38982879 -0.00014348 0.01345392 -0.00401462
C 5.14499639 12.45294173 27.79901680 0.00144524 0.00515197 0.00056107
C 10.03267247 23.80236035 15.66178120 0.00253456 0.00205763 -0.00200819
C 0.52912729 7.07188562 9.13586340 -0.00781165 -0.00240119 -0.00274507
C 22.40610608 27.73781937 16.27315112 -0.00267066 0.00936022 -0.00291039
C 4.85669517 9.72143054 17.41709899 -0.00561012 -0.00788930 0.00103701