1920
Time=94000.00000000 pbc="T T T" Lattice="23.61968081 0.00000000 0.00000000 0.00000000 30.91282524 0.00000000 0.00000000 0.00000000 27.20221527" energy=-12192.05501252 virial="-29.88363612 -10.02316176 -37.17352138 -10.02316176 -37.00579010 -16.55625287 -37.17352138 -16.55625287 -64.47613798" stress="0.00214658 -0.00050950 -0.00183385 -0.00050950 0.00175049 -0.00088609 -0.00183385 -0.00088609 0.00053393" Properties=species:S:1:pos:R:3:vel:R:3
O 10.24679377 5.10557545 13.35442301 0.00231830 -0.00080331 0.00752133
O 9.44191674 3.93521793 9.65059828 0.00155206 0.00172051 -0.00093317
O 22.35962457 20.51288691 24.52808331 -0.00392658 -0.00617302 0.00568675
O 5.89681601 7.20373354 5.81081576 -0.00192989 0.00077236 -0.00511382
O 2.89361740 11.28979000 8.08466018 -0.00400495 -0.00231477 0.00264393
O 22.93607668 16.99560956 24.36166746 0.00014640 0.00191968 0.00149826
O 8.59157247 18.42487580 17.58027415 0.00387385 -0.00762040 0.00372346
O 6.60548813 29.08356678 3.57886200 -0.00406809 0.00031687 0.00682198
O 7.64744865 1.13908470 14.83111779 -0.00177841 -0.00505895 0.00443151
O 3.79608748 4.96168599 12.45679121 0.00517458 -0.00113823 0.00182840
O 17.34600626 18.81859198 0.79122111 0.00098494 -0.00940512 -0.01162465
O 13.27906698 7.00083126 21.16432616 -0.00032463 0.00359495 0.00425343
O 18.61320221 16.20762761 2.51196914 -0.00341558 0.00090672 0.00617382
O 3.05108074 19.65242617 20.03033018 -0.00259251 0.00069990 -0.00876433
O 5.56792467 22.96711488 14.39027713 0.00784607 -0.00395571 0.00069979
O 12.27092186 11.60928063 7.36932162 -0.00565158 -0.00686397 0.00037201
O 4.79912087 6.33959169 17.18110778 0.00772131 0.00346977 -0.00367661
O 9.58193549 5.23162684 26.13412069 0.00280063 -0.00529740 -0.00480328
O 3.70977980 7.20049818 24.37954425 0.00318843 0.00752428 -0.00200584
O 12.61995606 8.80079830 14.93519022 -0.00235499 0.00346370 -0.00391071
O 2.14910382 15.79750063 4.94693145 0.00383800 -0.00524019 -0.00144931
O 5.29952860 11.40735890 9.24393635 0.00598290 0.00574123 0.00065783
O 12.21142649 19.60590386 24.25104141 0.00100997 -0.00457250 0.00577564
O 10.82399424 7.65454468 13.54220160 -0.00444822 0.00110143 -0.00232721
O 14.83259313 0.83929717 13.89489428 0.00166651 -0.00332728 -0.00427232
O 8.32490980 11.30146725 26.73190365 0.00009522 0.00253538 0.00123254
O 1.06509676 11.94825988 0.66036975 -0.00089131 0.01046220 0.00616790
O 23.20183963 7.43385070 10.34892727 0.01140856 -0.00703878 0.00286515
O 21.72598272 15.33372842 7.40689155 -0.00352119 -0.00733937 0.00104685
O 3.27595480 10.06527750 15.09423836 0.00372991 -0.00390479 -0.00516547
O 9.92901307 24.15236746 20.41528393 0.00503651 0.00272945 0.00381318
O 4.45894644 3.85881030 8.17717119 0.00395652 -0.00460432 -0.00469682
O 7.35042309 24.72093349 8.47126247 -0.00814649 0.00047937 -0.00093837
O 22.19595998 30.76049338 7.16701792 -0.00452055 -0.00340498 0.00892564
O 6.02882132 27.43439350 9.62656377 -0.00124126 0.00347324 0.00282973
O 0.56065322 18.85973663 10.60192294 -0.00068411 0.00412375 -0.00339421
O 3.21560131 2.81455572 11.27390525 -0.00506341 -0.00201424 -0.00195721
O 17.89865057 29.89654647 25.86902354 -0.00070416 0.00296872 0.00689033
O 7.22828619 23.29741350 25.10206794 0.00693093 -0.00629199 0.00520333
O 5.68750835 30.69378295 24.75240852 0.00532549 -0.00667175 -0.00199874
O 23.25617653 22.46462184 18.84729391 -0.00182427 -0.00735415 0.00089642
O 2.41974459 25.48045401 6.24831079 -0.00111896 -0.00513227 0.00667397
O 8.74405322 2.07185736 7.92162017 -0.00884412 -0.00898871 0.00315159
O 1.60982357 23.63455148 0.06802499 0.00452194 -0.00259777 0.01017222
O 8.81190089 8.26837544 23.80567127 -0.00364544 0.00728169 -0.00204658
O 21.07682641 28.47870729 3.97430424 -0.00546336 0.00524074 -0.00537755
O 4.15921643 28.81549432 24.08227787 -0.00663913 -0.00453851 0.00107144
O 17.35234478 27.23060221 18.82318308 0.01007191 -0.00533652 -0.00671279
O 19.10369955 21.57815604 23.58879371 0.00131993 -0.00535600 0.00687395
O 20.93327723 26.33915758 25.98589471 -0.00783547 0.00219183 -0.00062440
O 15.14763957 28.57730578 19.04523991 0.00081565 -0.00301647 0.00073739
O 5.68385131 26.74315732 3.31034772 -0.00175312 0.00276139 0.00188902
O 7.79120378 2.27174754 22.47348952 0.00397977 0.00197183 0.00117625
O 0.39679709 22.73290180 23.04565030 -0.00032812 -0.00559615 -0.00303870
O 5.36201706 15.07797099 17.08986086 -0.00065981 -0.00495800 0.00069265
O 18.94618392 27.58075848 24.96866271 0.00522842 -0.00108799 -0.00377704
O 12.20575597 20.93585679 10.78603088 0.00307095 0.00141321 0.00032300
O 0.36207519 0.13573822 1.30046107 0.00162454 0.00724689 0.00511450
O 12.42637467 23.47610696 15.79752392 0.00252509 -0.00114301 -0.00358305
O 1.96078010 14.78145550 15.38121198 0.00201896 -0.00617442 0.00081384
O 23.24084512 29.13236481 13.36192777 -0.00054479 0.00189129 -0.00041301
O 1.80960227 27.42491591 19.29119212 -0.00554546 -0.00547990 0.00177816
O 4.74453454 16.12535613 9.41588871 -0.00280333 -0.00188298 0.00499379
O 3.84140825 5.58162473 26.51962782 -0.00211781 0.00261881 0.00316766
O 5.83964878 15.42713920 25.47067654 0.00489451 -0.00131602 -0.00100327
O 8.11205142 8.26242238 8.56685515 0.00295641 -0.00454440 0.00569997
O 11.39109662 4.76328499 24.41785364 0.00536591 0.00312143 0.00230020
O 8.19642041 14.60970513 12.61532071 -0.00133162 -0.00039279 -0.00063276
O 9.59633711 12.31332199 3.84806157 0.00482917 0.00427241 -0.00401742
O 14.67470059 16.98251459 5.66020905 -0.00886730 0.00003022 -0.00224902
O 15.13261223 6.75250382 12.01619373 0.00595930 -0.00400853 -0.00158975
O 15.75002433 15.55152815 15.30565736 0.00413241 0.00310879 0.00092544
O 22.76599269 1.83164606 17.07642230 0.00157093 0.00980271 0.00128626
O 10.31252045 4.84773968 3.70528426 0.00084769 -0.00119484 0.00206346
O 16.97343177 3.13677668 23.79067029 -0.00574273 0.00146523 -0.00012201
O 6.36579735 8.19274637 3.54342449 -0.00283918 0.00326103 -0.00608162
O 6.23641469 18.21015699 25.50636969 0.00413682 -0.00041146 0.00796131
O 17.89470114 12.13202214 8.41824421 0.00340105 0.00138781 0.00306123
O 18.07285165 1.80054856 9.58913132 -0.00177254 -0.00176460 -0.00205782
O 22.86825492 7.49376322 1.23815865 -0.00366467 0.00704786 -0.00648333
O 19.22201982 0.91740911 22.44672621 -0.00207261 0.00419070 0.00750220
O 3.14065397 9.56261028 20.16681470 0.00120688 0.00463671 0.00365875
O 6.71267648 12.89676516 17.37431295 -0.00076457 -0.00312569 0.00042618
O 3.93556874 2.63349511 2.23009203 -0.00090092 0.00102355 -0.00722104
O 4.81433971 21.62199341 20.27849841 -0.00818061 -0.00272965 0.00022165
O 12.41214027 28.85289712 14.19077200 0.00714900 -0.00311794 -0.00877558
O 4.76430092 24.27094794 19.85892633 0.00466732 -0.00543151 0.00275999
O 17.05146013 8.40046314 25.39370454 -0.00336088 -0.00682951 -0.00432835
O 4.26442458 11.68149795 20.34005946 -0.00009983 0.00020363 -0.00656498
O 8.58868015 6.23599133 20.07088467 0.00667798 -0.00161670 0.00131448
O 12.47534641 11.41294748 21.68044026 -0.00031477 -0.00130590 -0.01045978
O 10.50875394 12.33402400 18.17404453 0.00315811 0.00028777 0.00314643
O 15.07006128 9.56589683 26.43610375 0.00070665 0.00244008 -0.00367846
O 14.22329457 2.43370769 18.59654198 -0.00004543 0.00045453 -0.00132877
O 8.55320445 25.46703561 15.18269423 0.01222472 0.00262991 0.00176082
O 14.65972934 9.08943417 11.48720250 -0.00390067 0.00030018 0.00683730
O 8.07334298 13.93427170 25.25642169 -0.00423124 0.00499199 0.00138935
O 11.26902990 15.26154115 10.12168145 -0.00118543 -0.00123077 0.00213968
O 15.73545798 6.08403405 2.40878447 0.00225100 0.00581357 -0.00191472
O 6.23731085 16.13943887 7.47914633 -0.00214296 0.00238444 -0.00145607
O 13.77102936 1.04261453 7.61328453 -0.00454774 -0.00364221 0.00617846
O 18.50320580 18.11869466 14.65218461 -0.00442402 -0.00612810 0.00682387
O 6.21832276 20.12599790 13.06641631 -0.00025974 -0.00615773 -0.01083777
O 9.20650588 17.20168807 6.27628692 -0.00201466 -0.00304345 -0.00853319
O 20.12941569 19.61309394 18.85297141 0.00246130 -0.00565505 -0.00698525
O 7.45235368 10.76889990 8.39094134 0.00198003 0.00328043 -0.00742370
O 13.74617100 3.60727164 8.11702502 0.00186593 -0.00006761 -0.00415006
O 10.21193471 1.62731948 22.06762589 0.00090831 0.00541703 -0.00145046
O 3.28000043 1.20147394 20.39041468 -0.00008562 0.00434883 -0.00686155
O 12.79065412 20.05278875 15.94267429 -0.00055926 0.00055972 -0.00243331
O 5.54371635 19.77561243 5.41289720 0.00606678 -0.00639687 0.00553002
O 13.56570154 16.68133679 20.18411216 0.00519647 0.00616743 0.00010211
O 19.07371817 13.90364539 21.51783192 -0.00241317 -0.00377437 0.00741225
O 21.28417455 7.35569343 12.02748568 -0.00479514 -0.00003457 0.00730842
O 13.58463348 23.83086293 13.58618771 0.00234924 -0.00316433 0.00361128
O 8.55410635 28.10359374 26.09799301 -0.00012035 -0.00413475 -0.00173786
O 10.33748613 29.42814773 18.71653367 0.00818030 0.00650408 -0.00191382
O 17.10483706 23.04034715 24.47146667 0.00774706 -0.01031282 -0.00687289
O 10.30952835 14.85276665 18.63277116 0.00545044 -0.00513317 -0.00491329
O 15.36625766 21.96786347 23.08040890 0.00552412 -0.00888277 0.00100985
O 10.04676892 15.79406620 4.01112273 0.00602163 0.00885608 -0.00072508
O 1.89233814 6.02841857 16.73020758 -0.00721813 -0.00017876 0.00415626
O 15.97592613 26.55671957 8.68392403 0.00291980 -0.00646456 0.00532602
O 2.76550050 12.85145520 2.37031056 0.00080631 0.00024414 -0.00311848
O 10.65154894 29.48991227 12.58657832 0.00399490 0.00061142 0.00820360
O 15.39635129 24.14674508 3.21417584 -0.01354468 0.00230798 0.00001735
O 8.90495761 17.02241070 12.95850071 0.00103635 -0.00102672 0.00304991
O 7.56295013 23.27825691 4.78931269 0.00257772 0.00262673 -0.00421645
O 2.02315719 5.02878052 6.85884802 -0.00614055 0.00312389 0.00189149
O 23.32095436 11.68738246 10.79289483 0.00030358 -0.00118376 -0.00149734
O 8.07958298 3.19755208 26.89639505 -0.00254968 0.00304368 0.00543039
O 22.18843676 11.55016274 0.15755847 -0.00566753 -0.00031895 -0.00064612
O 13.33186669 16.03128507 8.60210387 0.00126729 0.00003481 -0.00020792
O 6.42238599 16.69442065 2.70938436 0.00600300 0.00224552 -0.00488157
O 21.10638421 8.25868182 6.36493339 0.00509003 -0.00253099 -0.00470308
O 17.79097102 5.71249480 5.68478326 -0.00299472 -0.00240728 -0.00075097
O 2.21891483 25.96095052 16.81117250 0.00142611 0.00354518 -0.01224305
O 1.24515647 8.55692842 16.10421536 0.00204744 -0.00490911 -0.00109188
O 11.32660665 29.03488766 4.64838521 -0.00038538 0.00432910 -0.00427075
O 18.93243206 12.86661680 23.87486844 0.00541642 0.00056295 -0.00053476
O 19.85739194 5.99788372 18.65105693 0.00279063 0.00236516 -0.00086056
O 1.03500646 17.02977039 26.60879922 0.00028566 0.00739521 0.00142321
O 19.52633919 4.10665947 10.89725275 -0.00469260 -0.00057743 0.00255553
O 0.31334047 15.49770338 19.79596831 -0.00482434 0.00143632 -0.00065308
O 5.11229164 0.56554444 15.78246360 -0.00629879 -0.01243743 -0.00697128
O 11.71705292 16.11022734 22.97221098 -0.00046160 0.00317754 0.00358432
O 15.78500340 1.19406889 22.67471191 0.00475877 0.00801735 0.00078943
O 15.69033336 7.31586196 22.19362308 0.00382781 -0.00033889 0.00191460
O 19.65263862 12.42340363 19.04185325 0.00232444 0.00329913 0.00356376
O 1.74805451 0.80204350 22.25835605 -0.00330098 -0.00044437 0.00108402
O 2.53533467 18.25579865 5.62004112 0.00041165 0.00326188 0.00745026
O 21.85252990 9.77402895 24.39660829 -0.00766505 -0.00120101 0.00707909
O 21.89694450 0.81770352 9.55659179 0.00148554 -0.00174250 -0.00105846
O 7.12343264 16.90353530 18.81158159 -0.00170239 -0.00435409 -0.00042684
O 13.40593543 26.35259847 22.82192843 0.00131260 0.00377615 0.01008899
O 18.82451950 10.16366229 5.31365891 0.00301111 0.00474826 -0.00306559
O 18.32247939 15.10807403 12.53996128 -0.00859833 -0.00150019 0.00204247
O 21.95234991 7.34554280 23.34697122 -0.00950424 0.00511836 -0.00759279
O 1.81503206 22.75301308 10.11812784 -0.00518623 -0.00001421 -0.00379222
O 21.53662948 0.08439579 2.29108401 -0.00070398 -0.00569391 -0.01307816
O 16.00320917 19.76066308 7.94236923 0.00437980 0.00561790 -0.01349824
O 16.48324925 21.16100407 13.97213092 0.00049158 -0.00581639 0.00351434
O 14.42589596 29.41986841 4.83239970 -0.00100351 0.00050016 -0.00239735
O 15.73063139 0.57491745 11.29650015 -0.00680728 -0.00039508 -0.00486710
O 22.89496051 28.08228644 11.09712242 -0.00181733 0.00519831 0.00373020
O 7.06557013 22.20881117 2.77603808 0.00480294 -0.00142608 -0.00453587
O 15.44912942 12.93205401 3.04322627 0.00282488 0.00267227 0.00020195
O 10.32983361 26.77419790 0.00216847 0.00170623 -0.00448933 -0.00300304
O 21.95921708 14.71098900 14.87414992 -0.00164665 0.00785961 -0.00200065
O 22.40509537 20.26817002 9.33750147 0.00043315 0.00711161 -0.01088189
O 13.30556676 2.17842319 27.00412507 0.00748476 -0.00149838 -0.00603679
O 0.25303542 19.66535336 3.45122847 -0.00014531 -0.00481503 -0.00379326
O 19.79421430 0.66918108 25.04057405 0.00407244 0.00309786 0.00126935
O 2.57796808 21.36241085 24.12434240 -0.00735321 -0.00385018 0.00622082
O 13.60065997 19.18691754 26.36813080 0.00650815 0.00261880 0.00078175
O 20.36425061 19.04043431 16.21403110 -0.00947324 -0.00223350 0.00249962
O 17.86828308 10.79249925 10.66584908 0.00282793 0.00374881 -0.00589513
O 12.97697425 20.46447212 8.33731608 0.00314694 -0.00165302 -0.00341337
O 17.42084480 22.48325170 15.83063486 -0.00359683 -0.00372708 -0.00164484
O 21.57878777 25.90796971 7.50148317 0.00398364 0.00024388 -0.00426929
O 15.10839929 3.81401891 0.67592279 -0.00441176 0.00189288 -0.00214522
O 2.39665538 23.19354488 12.54407265 -0.00030672 0.00093556 -0.00796049
O 16.10215464 3.54807279 17.46437777 0.01421706 -0.00409797 -0.00329394
O 21.66487817 24.83600513 14.40587864 0.00320273 0.00127472 0.00111535
O 18.27414372 23.13461667 2.82814179 0.00170841 -0.00148695 -0.00503546
O 12.94183209 27.12172934 4.70421911 -0.00106725 -0.00467240 -0.00425424
O 12.65661553 24.32080419 21.42701827 0.00453961 -0.00089550 -0.00427809
O 19.21396946 26.01179482 14.77914961 -0.00253606 0.00155250 0.00101706
O 17.11469495 23.13451572 9.80091294 0.00523600 0.00071333 0.00419915
O 5.05894499 28.70308738 11.69761799 -0.00465401 -0.00500127 0.00305420
O 17.53106452 9.84274675 16.94907655 -0.00843672 -0.00017111 0.00351509
O 12.67969282 21.05891907 0.63414442 0.00009238 0.00155669 -0.00587432
N 11.33478246 22.73332151 11.88814339 0.01113666 -0.00581231 -0.00323211
N 5.29941677 6.67261746 12.00083323 -0.00134763 0.00391336 0.00340353
N 9.33281276 0.04608742 6.81057193 -0.00377620 -0.00652240 -0.01068934
N 1.67654347 7.84308580 9.43547479 0.00235392 0.00127485 -0.00087697
N 23.45733280 0.09072436 14.67818716 -0.00393071 0.00318556 -0.00107090
N 0.82562572 19.35583064 19.53127169 0.00307412 -0.00870340 0.00280357
N 3.36596003 26.74347179 23.31510323 0.00011621 0.01387820 0.00706331
N 4.66003422 1.84280925 7.29912362 -0.00392188 -0.00609925 0.00448812
N 21.78204468 24.16235071 19.48502775 0.00168934 0.00609359 -0.00083626
N 6.61033218 9.77484340 26.91645035 -0.01113189 -0.01076878 -0.00229365
N 11.28564075 24.98973176 17.08179443 0.00126181 0.00051189 0.00206353
N 11.25185163 7.14631757 20.00583595 -0.01102871 0.00412896 0.00040612
N 6.65954767 7.66552263 23.21043581 0.01048956 -0.00266824 0.00087576
N 5.52261153 9.89986423 14.65048073 -0.00962192 -0.00821416 0.00281902
N 4.92242939 16.50208574 11.67947692 -0.00008504 0.00118499 -0.00529574
N 11.51748686 11.25365642 9.47910714 -0.00308321 -0.00583914 0.00504611
N 15.05700740 2.87725238 14.86214581 0.00834104 -0.00041945 -0.00206023
N 2.55300415 26.94422570 7.96077253 0.00030949 0.00581310 -0.00271696
N 18.27474813 20.81607515 1.16565980 -0.00496374 0.00416769 0.00292233
N 2.57206094 17.03435404 15.48035551 0.00296414 0.00805782 0.01000835
N 23.24962812 15.62103059 9.04441748 -0.00785362 0.00492171 0.00516748
N 18.87397729 29.06839344 4.10737217 0.00453058 -0.00629939 0.00797495
N 7.68243534 22.36396019 13.79925179 0.00529497 0.00973218 -0.00201506
N 2.35961682 3.89827543 26.52406594 0.00461681 -0.00062493 -0.00026006
N 8.47463056 3.22932351 14.35822031 -0.00788502 -0.00075286 -0.00232912
N 1.07267060 28.96110361 1.94815120 0.00452763 0.00150552 -0.00492736
N 1.34567659 12.14513946 25.58033093 -0.00683128 0.00556423 -0.00417286
N 1.51691412 25.86922032 27.04089825 0.00333409 0.00596396 0.00087296
N 20.42728234 15.35093974 3.53492689 0.00045717 -0.00397540 0.00377350
N 23.50286187 27.55139669 20.47243975 0.00316517 -0.00566122 -0.00260979
N 9.55353223 24.31267489 22.68491362 -0.00514085 0.00581957 0.00050037
N 19.15325467 28.39080484 19.50062275 -0.00434694 0.00176067 -0.00415620
N 11.34530569 14.65192132 2.46113523 -0.00766499 -0.00967133 0.00021508
N 11.38672106 6.75621054 4.33014006 -0.00179092 -0.00742689 -0.00339283
N 13.10047803 5.57438518 7.34742036 -0.00844560 0.00043515 0.00010797
N 11.39024874 11.74786348 16.16968381 0.00238711 -0.00120370 -0.00113133
N 10.13573439 28.91955464 10.39277126 -0.00238381 0.00240582 -0.00162242
N 19.08957905 14.09844476 7.63806572 -0.00874618 0.00109501 -0.00183759
N 6.02063535 19.19030293 7.56921747 0.00060288 0.00956837 -0.00107418
N 14.61414324 10.75329748 12.87661618 0.00068170 -0.00397715 0.00526397
N 18.71220119 19.38536397 20.70566114 0.00079607 -0.00352656 -0.00207435
N 6.46731771 5.32125771 19.87798033 0.00299647 -0.00191653 -0.00943154
N 14.52529640 27.83738118 9.97156808 -0.00426029 -0.00544597 0.00246172
N 7.68072447 6.71895806 2.31527266 0.00058635 -0.00249737 -0.00370684
N 5.27795627 0.96563857 19.51000386 -0.00045509 0.00329385 -0.00078125
N 12.25151525 2.49954878 17.31589864 -0.01219366 -0.00265328 -0.00253703
N 11.16608584 16.93756541 13.48385487 0.01014548 -0.00740334 0.00378139
N 20.72482963 7.68972270 2.28120938 -0.00657290 -0.00106009 0.00208374
N 3.28500735 13.72020886 20.81080402 0.00308017 -0.00371452 0.00412136
N 8.43787628 11.88852331 6.69232022 -0.00399596 0.00383108 -0.01050309
N 16.82368784 5.38417444 23.82795705 -0.00659597 0.00909292 0.00150950
N 4.81725546 12.70273363 3.43872144 0.00438025 0.00199220 0.00394194
N 13.37162440 9.45448524 0.71240762 0.00036490 -0.00787709 0.00281338
N 13.84717392 18.63992812 17.49650737 0.00196724 0.00031463 -0.00163638
N 17.81516261 3.59442135 8.25688495 0.00197940 -0.00153236 -0.00113005
N 9.56526228 22.77661844 5.65233829 -0.00282285 0.01083810 0.00682319
N 20.52958846 1.81439612 17.16997352 0.00223162 0.00611908 -0.00093845
N 23.30853630 5.49367396 17.00537356 0.00097079 -0.00036094 0.00761111
N 10.36736137 11.22219840 21.02700356 0.00427663 0.00076462 0.00334444
N 11.52798349 30.66406745 22.07547226 0.00409302 0.00070405 -0.00452888
N 7.91312106 19.39021115 24.40663487 0.00254831 0.00386573 0.00049638
N 16.59281283 25.72357966 2.09629656 -0.00058737 -0.00667278 -0.00826202
N 8.19243301 27.15643372 16.72057198 -0.00003830 0.00362182 0.00454846
N 15.15085469 16.57558762 21.77800788 0.00284013 0.00405575 0.00070103
N 19.51398909 22.56494891 4.66506756 0.00302511 -0.00395581 0.00125892
N 0.24055942 10.68475196 16.24296754 0.00383480 -0.00197593 0.00676089
N 12.57237773 0.03213070 27.00132348 -0.00401600 -0.00443972 0.00675583
N 17.84756918 11.42172611 3.64188436 0.00056868 0.00823677 -0.00586959
N 18.88195620 24.34865553 10.60457035 -0.01374243 0.01704767 -0.00325893
N 1.17179908 18.12318950 1.55645588 0.00635476 -0.00027576 0.00089031
N 14.59425213 17.36891017 27.17492434 0.01101904 0.00601280 -0.00232922
N 19.77533033 1.39020224 3.05637433 -0.00454630 0.01127623 0.00062941
N 21.17572581 12.49879083 14.71019086 -0.00250327 0.01279053 0.00526710
N 6.67129121 17.47029089 20.99607187 0.00928916 0.00399679 -0.00804135
N 13.50108920 23.36875581 19.59218723 0.00553760 -0.00260215 -0.01198867
N 16.67518904 12.72609133 23.45689427 0.00726066 0.00376311 -0.00456380
N 20.34081001 2.30154337 26.60027274 0.00227253 -0.00635047 0.00408241
N 22.59210572 5.30465475 23.78689864 -0.00622024 -0.00235265 0.00559059
N 17.42007544 8.86855290 18.94714058 -0.00547188 0.00872040 -0.01009862
N 22.80196154 14.27795916 21.36994144 -0.00099568 -0.00172669 0.00056591
N 22.19386312 2.80729382 10.54470125 -0.00137197 -0.00205044 -0.00172559
N 20.42002755 20.71609808 10.05803274 0.00313954 0.00149386 0.00494788
N 10.78184191 30.57828604 3.04361928 0.00138223 -0.00001246 -0.00589664
N 18.81007525 27.22199682 12.94722765 0.00034492 0.00310165 0.01045899
N 18.04135808 17.14050350 11.46442737 0.00623170 0.01286546 0.00353011
N 3.77983530 22.55222182 25.71587803 -0.00402369 0.00861838 -0.00066767
N 18.61417454 6.22156841 10.81294247 -0.00003319 -0.00109471 -0.00438362
N 10.73337673 21.42446688 1.62314373 -0.00479044 0.00901248 0.00055554
N 4.37567724 25.94903143 15.89246683 -0.00729645 -0.00198368 0.00105497
N 12.75131411 24.98417717 5.03704294 0.00101701 -0.00468052 -0.00492542
N 14.76786928 26.97550053 24.64707253 -0.00628611 -0.00053267 -0.00045592
N 23.20299034 21.14691311 4.95765979 -0.00275452 -0.00131427 0.00673074
N 20.80239709 7.11731703 20.43541886 0.00019379 -0.00579666 0.00477615
N 3.12228315 28.60300572 13.00193526 0.00812302 -0.00266849 0.00592139
N 1.50580013 23.10808649 7.90893550 -0.00316303 -0.00260335 -0.00648429
N 22.57225715 19.41231561 16.07484111 0.00099893 -0.00968218 -0.00586778
C 13.13826461 2.91259035 13.41743112 0.01010198 -0.00338734 0.00134037
C 7.61508572 6.58086187 11.39226757 0.00357057 0.00894665 -0.00057277
C 19.47385134 19.57985430 26.54259612 -0.00489055 -0.00435030 -0.00994453
C 3.86729791 7.33924462 8.91999468 0.00437727 -0.00862648 -0.00512548
C 1.74070019 14.39485647 9.46339612 -0.00036106 0.00578803 0.00773271
C 0.85576712 19.35081189 22.02790785 -0.00040417 -0.00315875 0.00205434
C 9.00037766 20.56251463 14.64796001 -0.00657017 0.00369128 -0.00308645
C 6.30251244 1.20909167 5.55401784 -0.00331657 0.00296189 -0.00235748
C 12.02533225 3.59244803 12.87011786 0.00340583 -0.00615342 -0.00494695
C 8.64323625 5.86115079 10.83926722 -0.00107622 0.00334446 -0.01090536
C 20.56823064 19.43774668 25.70266919 -0.00044371 0.01679420 0.01369506
C 4.87588062 7.06702820 8.02563375 0.00242416 -0.00018843 -0.01351545
C 2.60919930 13.38559943 9.05490796 0.00412130 -0.00279777 -0.00542964
C 0.63236688 18.63971380 23.17048899 -0.00192864 0.00893234 -0.00235477
C 9.20188033 19.53397044 15.57716435 -0.00642997 -0.01156924 -0.00993067
C 6.74566001 0.30115025 4.65708463 0.00637857 0.00604142 -0.00211423
C 11.46884173 4.63185549 13.62106718 0.00341845 -0.00675009 0.00106015
C 8.44967746 4.57468745 10.25744595 0.01010243 -0.01158617 -0.00035562
C 21.32959008 20.58978535 25.51560538 0.00394181 0.00099236 -0.00089549
C 4.85155443 7.41825825 6.64164316 0.00293568 -0.00315957 0.00221784
C 2.11673416 12.39456376 8.21790124 0.00310019 0.00624806 -0.00241024
C 23.18923310 17.68997726 23.21706204 0.00285731 0.00408350 -0.00136702
C 8.37539687 19.34361801 16.69235813 -0.01118634 -0.00652827 0.00991757
C 6.15734866 29.92944141 4.54577003 -0.00198811 -0.00151393 -0.00204900
C 12.25105586 5.29310971 14.55010687 -0.00868454 0.00266371 0.00013497
C 7.10495767 4.08296600 10.11925608 0.00093882 -0.00940815 -0.00147498
C 21.06160763 21.76004860 26.24005555 -0.00161082 -0.00499640 0.00974097
C 3.59235901 7.80430742 6.14988800 -0.00068441 -0.00356257 0.00557108
C 0.87674149 12.51146540 7.54747573 -0.00051105 -0.00075281 -0.00685443
C 22.42513937 17.53268835 21.99733556 -0.00825226 -0.00574721 0.00513111
C 7.19666940 20.17659838 16.71657459 0.00477367 0.00387940 0.00504260
C 5.04184080 29.77900434 5.28109265 0.00437636 -0.00004387 0.00716728
C 13.48723904 4.77453827 14.87666752 -0.00121981 -0.00192285 0.00572220
C 6.07464824 4.72614752 10.79666345 0.01409991 0.00209653 -0.00238129
C 20.04563230 21.82431803 27.15511439 -0.00502747 0.00104150 -0.00169665
C 2.58187371 8.20306445 7.09353469 0.00590111 -0.00702410 -0.01099594
C 0.23766883 13.66783188 7.69009688 -0.00171817 0.00714174 0.00484681
C 22.83698089 18.07112357 20.79676693 0.00409184 -0.00387999 0.00291100
C 6.94229752 21.04052095 15.69674948 -0.00274097 0.00294635 0.00225252
C 4.51600083 30.62598004 6.23178501 0.00282860 0.00305802 -0.01206219
C 13.93115429 3.54712340 14.39514131 -0.00283203 0.00791883 0.00486628
C 6.30636197 5.99247569 11.36022637 0.00313437 0.00736515 0.00242150
C 19.21011125 20.71157228 0.05450882 0.00438587 0.00129397 -0.00419094
C 2.65749474 7.81019957 8.44466414 -0.00018065 0.00639527 0.00501915
C 0.56104083 14.53388645 8.77840664 0.00036751 -0.00447673 0.00860042
C 0.34180874 18.87172122 20.75975587 -0.00156550 -0.01171502 0.00201872
C 7.84293832 21.33363526 14.69751364 -0.00026023 -0.00545820 0.00930180
C 5.14356875 0.95575741 6.31268428 -0.00197750 0.00116526 0.00385490
C 15.50106347 1.70015832 14.41858571 0.01090799 0.00855695 0.00273377
C 4.13395012 6.16055197 12.50782187 0.00073747 0.00218070 0.00372794
C 17.35741143 19.88973935 1.39300991 -0.00067346 0.00095508 -0.00091773
C 0.35146185 8.03400685 9.57888680 -0.00139949 -0.00118156 -0.00890423
C 22.13770398 15.98119717 8.37957309 0.00948911 -0.00589017 0.00006847
C 2.05966957 19.89356879 19.25525826 -0.00209346 0.00329727 0.00228091
C 6.60796293 23.16893255 13.78121211 -0.00330123 -0.00168003 -0.00759768
C 4.57970604 3.18687812 7.17393416 -0.00508449 -0.00582038 0.00011457
C 23.45420746 24.59658936 17.90286484 -0.00310560 0.00469854 0.00786430
C 3.17973881 7.18272528 13.12648637 -0.00417807 0.00061887 -0.00057337
C 10.68811028 1.94171717 6.45206009 -0.00723000 0.00695921 0.00326228
C 11.34987868 7.61805720 22.33411930 -0.00313385 -0.00564521 0.00381842
C 7.18187676 9.91284793 23.78145518 0.00682535 0.00761779 0.00231996
C 2.04322586 20.67430500 18.05447093 0.00568842 -0.00952192 -0.01183108
C 1.82413850 28.64423742 23.58643646 -0.00264045 -0.00210775 0.00158345
C 13.94411519 11.36096428 8.97503947 0.00567795 -0.01100766 -0.00850796
C 7.66949293 5.35878005 15.13082329 0.00140741 -0.00868556 0.00405272
C 6.71733523 7.43003553 26.69043270 0.01259266 0.00351635 -0.00525007
C 2.65574453 10.72354257 24.16520168 -0.01027843 0.00151106 -0.00254081
C 12.93710382 8.21901804 18.50777295 0.01208392 0.00006880 -0.00376848
C 22.62340707 14.33807087 3.69696938 -0.00237430 0.00952750 -0.00012234
C 6.54998348 10.69789963 12.55989819 0.00123861 -0.00029085 -0.00540013
C 10.51443849 22.06643435 22.07391668 0.00182082 0.00032260 -0.01205200
C 12.01245378 9.14314924 10.45419794 -0.01236269 -0.00043156 -0.00119555
C 6.79803695 6.18575719 15.76557500 0.00887120 0.00442795 0.00367866
C 7.45200071 6.34446076 26.36300494 -0.00728346 0.00077609 0.00520802
C 3.21011199 9.53998367 23.77830788 0.00469199 0.00250814 -0.01823520
C 13.30384236 8.52356081 17.17815414 0.00659406 0.00448020 -0.00191874
C 0.32154429 14.57987757 3.93268052 -0.00422271 0.00392409 -0.00074791
C 6.50094140 11.11668408 11.32610131 -0.00131236 -0.00634043 -0.00697787
C 11.29898104 20.90767401 22.40434603 -0.00230623 -0.00298652 -0.01024856
C 11.81298746 8.22481517 11.52484914 -0.01342942 -0.00439426 -0.00198305
C 5.71172095 5.67336282 16.41098771 -0.00481448 0.00305661 -0.00593932
C 8.90602338 6.25884867 26.38773401 0.00500058 0.00209786 0.00731754
C 3.31481046 8.47227916 24.63410353 -0.00607598 0.00180906 -0.00029005
C 12.26068773 8.58236202 16.24446207 -0.00275977 0.00514338 0.00294814
C 0.85347769 15.67188351 4.79221495 -0.00324404 0.00835979 -0.00602451
C 5.25353376 11.13597460 10.55407647 -0.00695889 -0.00024349 0.00972767
C 11.54142098 20.61195159 23.81103680 -0.00133472 -0.00980145 0.00366125
C 10.93776455 8.45807588 12.53533344 0.00151142 -0.00488894 -0.00762071
C 5.26064396 4.41713394 15.98751342 0.00534859 -0.00661459 -0.00284098
C 9.50858365 7.53147353 26.62076853 -0.00390294 0.00252099 0.00199106
C 3.04291315 8.83543741 26.01805928 0.00543942 0.00985371 0.00022091
C 10.92746247 8.44750210 16.65839555 0.00408008 0.01209635 0.00047005
C 23.56226167 16.61268394 5.08290418 0.00047651 -0.00715331 -0.00737770
C 4.09993662 10.80250132 11.30283522 0.00659690 0.01467116 -0.00960230
C 11.18209672 21.62146451 24.74960051 0.00027767 -0.00482155 0.00103367
C 10.36556295 9.74792137 12.56124666 -0.00575194 -0.00710724 -0.00351237
C 6.13249587 3.60602926 15.36421547 -0.00194949 0.00997704 0.00138244
C 8.78621608 8.67017053 26.82763686 -0.00614986 0.00828474 0.00061873
C 2.15782949 9.90733081 26.37917566 0.00434990 0.00454956 0.00041050
C 10.56114214 8.10162280 17.90165304 0.00261676 0.00058848 -0.00138766
C 22.23977290 16.54485183 4.54002589 -0.00289589 0.00335346 -0.00464255
C 4.15983987 10.53126672 12.64880947 0.00308813 -0.00220410 -0.00053844
C 10.54597000 22.74195903 24.32232161 0.00376382 -0.00973366 -0.00149569
C 10.51772003 10.69954821 11.49641684 0.00356922 0.00173355 0.00037237
C 7.48262035 4.00002416 14.95827851 -0.00498313 -0.00932708 -0.00119358
C 7.43404738 8.62617172 26.84453660 0.00059747 0.00510229 -0.00334857
C 2.12640811 10.91721840 25.41494471 0.00587180 0.00521295 0.00410325
C 11.57165255 7.83411015 18.88025707 -0.00526518 -0.00399599 -0.00268709
C 21.75600500 15.38508701 3.97425143 0.00360828 -0.00316949 -0.00161427
C 5.38285404 10.41914572 13.39623386 0.00218192 0.00505492 0.00221372
C 10.19628363 23.05694706 23.02792908 -0.00268366 0.00051733 0.00409824
C 11.39606840 10.39947052 10.46223501 -0.00366574 0.00085985 -0.00753022
C 8.10840634 1.90122625 13.96293898 0.00660484 0.00774241 -0.00064899
C 7.16860763 11.00661722 27.06948848 -0.00305213 -0.00807431 0.00883899
C 0.99749903 12.69598616 26.72685824 -0.00540570 0.00419327 0.00490965
C 12.05912953 7.27709769 21.11822353 -0.00999661 -0.00522612 0.00241554
C 19.73047737 16.39264602 3.04059732 0.00366152 0.01482967 -0.00430108
C 4.51137279 9.82400786 15.51199111 -0.00677774 0.00121603 0.00955375
C 9.49429838 24.77905101 21.39654986 0.00584872 0.00018665 0.00594795
C 12.55652217 11.39258848 8.53832847 -0.00662783 0.00096935 0.00640933
C 12.74900048 21.08479088 13.12948940 -0.00136953 -0.00172995 -0.00381729
C 6.26191488 12.05120852 0.33874827 0.00870027 -0.00260191 0.00245041
C 10.16273194 23.13531438 15.94793130 -0.00546414 -0.01608969 0.01066172
C 23.28579843 8.92678814 8.64759739 -0.00459530 -0.00119056 0.00203916
C 21.49934154 29.50502038 14.91797219 0.01208567 0.00443340 0.00600061
C 4.76753689 9.97097387 16.95151835 0.00467399 0.00758435 -0.00278490