1920
Time=92000.00000002 pbc="T T T" Lattice="23.42779983 0.00000000 0.00000000 0.00000000 30.66862017 0.00000000 0.00000000 0.00000000 27.84636407" energy=-12195.80612749 virial="-26.30949491 -14.70670738 28.87520437 -14.70670738 -22.25034264 9.42401474 28.87520437 9.42401474 -59.27615719" stress="0.00269285 -0.00076783 0.00138231 -0.00076783 0.00257334 0.00065100 0.00138231 0.00065100 0.00079635" Properties=species:S:1:pos:R:3:vel:R:3
O 9.83229920 5.69121349 12.62091048 -0.00385520 -0.00566664 -0.00599825
O 7.71875339 4.12493679 8.66521737 0.00177415 -0.00121426 0.00332087
O 22.69786007 20.07221128 25.52334764 0.00080865 -0.00464238 -0.00066825
O 5.33861665 7.92614241 6.47900834 -0.00247618 0.00344259 0.00023710
O 3.23256777 11.38674506 7.70077013 -0.00210551 0.00245374 -0.00050813
O 23.39182680 17.06946064 24.82358301 -0.00609670 -0.00228441 0.00394916
O 7.99111301 18.27336281 17.52206787 -0.00014962 -0.00017121 -0.00250179
O 6.09346272 28.89817489 5.02637671 0.00153858 -0.00470201 -0.00409076
O 7.03408611 1.65084662 14.38737972 0.00135632 -0.01199067 -0.00370865
O 2.31864592 4.72456323 11.77044257 0.01117043 -0.00187156 -0.01093044
O 17.45393426 18.65235200 1.21411327 0.00002025 -0.00781335 -0.00062436
O 13.53677107 9.36449127 20.96500337 -0.00712443 -0.00163503 -0.00570567
O 18.52084289 15.54739682 1.98128718 0.00584892 -0.00355724 0.00081460
O 3.17334813 19.70350577 19.80955532 -0.00999301 0.00246673 0.00188962
O 5.39549481 23.09811796 14.40461070 -0.00233124 0.00549352 0.01006252
O 13.85744119 10.46776827 7.51700044 0.00060224 -0.00100046 0.00195252
O 4.31769160 5.64883231 18.27670324 -0.00374470 -0.00201678 -0.00287410
O 9.00902715 4.80093988 26.30663810 0.00761434 0.00773913 -0.00299243
O 3.35221412 6.99559026 24.94683544 -0.00588596 0.00808907 -0.00282935
O 12.20929562 8.57146917 15.13123878 -0.00161833 0.00358912 -0.00348415
O 1.16588231 16.18809106 6.40558671 -0.00470191 0.00105782 -0.00509757
O 5.05549474 10.83740283 9.28187609 -0.00241316 0.00469381 0.00380786
O 12.00733654 19.89571147 25.30456050 0.00863221 -0.00463906 0.00254941
O 10.04791151 8.01151441 13.59559113 -0.01073794 0.00274701 0.00137706
O 14.16386548 1.26247713 13.43900086 -0.00068757 -0.00543278 0.00306401
O 7.63764161 10.70142947 27.64309090 0.00611189 0.00672013 0.00007287
O 1.47408585 12.32438840 0.01793443 0.00117759 0.01093966 -0.00421144
O 22.10931864 7.71581674 10.35181139 -0.00386566 -0.00154662 -0.00534908
O 21.03779296 13.91274652 8.96621737 0.00470657 0.00614693 -0.00627849
O 3.15589347 9.34980803 15.00349478 0.00185412 -0.00309923 0.00797168
O 8.82169454 23.97984941 21.96199049 0.00350008 0.00067342 -0.00308068
O 3.75818042 5.39954074 6.49436486 0.00635189 -0.00335552 0.00006791
O 6.93375369 25.32691652 9.55532172 -0.00284658 -0.00595897 -0.01019368
O 22.89509404 30.49005975 7.13025818 0.00088361 -0.00125981 0.00853356
O 5.78558887 27.66693204 9.73616875 -0.00584691 0.00193404 -0.00395988
O 23.16561687 18.01457408 10.48624767 -0.00127626 -0.00445368 0.00073751
O 1.76175288 2.15389775 12.15444276 0.00214951 -0.00345581 0.00017015
O 18.05910646 28.54761825 27.46895346 0.00109679 -0.00601596 0.00280133
O 7.02409282 22.76408638 23.92084361 -0.00438582 -0.00087146 -0.00638070
O 5.29478775 30.01481681 26.26131295 -0.00385351 -0.00392076 0.00216866
O 22.30542741 22.41770475 19.04270376 -0.00098540 -0.00333261 -0.00249635
O 2.69715249 25.12851477 6.66839559 0.00516983 0.00204489 0.00560255
O 7.41765690 2.19204646 6.86268578 0.00410747 0.00029978 0.00443087
O 2.03265840 23.53957614 0.11699057 -0.00182282 -0.00220063 -0.00301146
O 8.33399133 8.11748769 23.46679582 -0.00462117 -0.00379979 -0.00810431
O 21.05199721 27.30398063 5.13509390 0.00556606 0.00791659 0.00286063
O 3.54190296 28.15427410 26.06179097 0.00071177 0.00017896 -0.00888706
O 17.04473252 28.18235181 20.33919220 -0.00569749 0.00264284 0.00342009
O 19.23072516 21.26710400 24.35493530 0.00060490 -0.00457654 -0.00412977
O 21.29878922 25.06605697 26.73133479 -0.00461406 -0.00101286 0.00048714
O 14.86919650 27.53083890 21.43894857 -0.00275764 -0.00263235 0.00522041
O 4.57965162 26.92065922 5.02235630 -0.00582683 0.00526776 -0.00192559
O 7.30521296 1.97725418 22.80374570 -0.00334794 -0.00017986 0.00647169
O 1.70456880 21.71250572 22.73698935 -0.00501385 -0.00160528 0.00155127
O 6.23306554 13.80461238 16.86186021 -0.00035392 0.00333462 0.00992627
O 19.70586288 27.32936755 25.88151635 -0.00237134 0.00491653 0.00465343
O 10.75786075 20.65063928 11.57914290 0.00024991 -0.00365586 -0.00186900
O 0.42876826 29.97960667 1.58154136 0.00292377 0.00617180 -0.00086841
O 12.14704332 25.14590526 16.24053160 -0.01042630 0.01245706 0.00607493
O 1.01860665 15.10011260 16.15164343 -0.00209947 -0.00250308 0.00838759
O 23.38982970 27.92012023 14.48857115 0.00133504 0.00370694 0.00532387
O 2.23284222 27.37000925 20.02218671 0.00270145 0.00282944 0.00543043
O 5.64197866 15.50976318 9.81970887 -0.00904385 -0.00527284 -0.00511610
O 3.39943333 5.45645808 26.90687994 -0.00010951 -0.00217275 -0.00065320
O 5.47337123 14.95780835 25.67501584 -0.00444089 -0.01133630 0.00056059
O 8.32274593 8.27162372 8.39251782 -0.00371707 0.01311542 0.00025049
O 10.82520610 5.52443327 24.56824265 -0.00225165 0.00461873 -0.00568066
O 8.92041193 13.81707016 12.48908826 -0.00892747 -0.00928309 0.00291734
O 8.96950896 11.84077106 3.54092110 0.00213506 0.00110907 0.00064220
O 13.96703745 16.38806613 6.11174451 0.00357050 -0.00196606 0.00105104
O 14.58196039 6.94661811 11.22828299 0.00665075 0.01383106 -0.00023664
O 15.65771842 15.12080744 16.15680591 -0.00558423 -0.00616597 -0.00380059
O 21.45694965 0.90694877 17.52388139 0.00520272 0.00075323 -0.00938328
O 10.71221284 4.80803854 3.65122498 0.00763151 -0.00287007 0.00641138
O 16.57151601 2.85564451 23.39203136 0.00365171 0.00769492 -0.00044784
O 4.53493720 7.89048877 3.97578088 0.00093093 0.00047964 -0.00403192
O 6.70377132 17.36204574 25.36587556 0.00057594 0.00002150 -0.00081466
O 18.43390821 11.79394601 7.06102304 -0.00559591 0.00051883 0.00155234
O 17.13692735 1.44426312 9.49755084 0.00029670 -0.00356603 -0.00696137
O 22.63316972 7.94023230 1.47168783 -0.00393695 0.00116370 -0.00491171
O 20.35801693 1.45928883 23.71561170 -0.00616076 0.00317880 0.00305675
O 2.92035673 9.21275397 20.61232124 0.00199630 0.00226376 -0.00873412
O 6.73233502 11.48476882 17.89563684 -0.00765192 0.00319937 0.01045171
O 3.44213078 1.89776698 2.52763932 -0.00401843 0.00394120 0.00154254
O 5.27042026 21.02226610 20.01647971 -0.00413417 -0.00070678 -0.00634779
O 11.64434917 29.40441693 14.23708604 0.00084530 -0.00148223 -0.00513163
O 4.87296491 23.56508546 19.74936535 -0.00610752 0.00291786 0.00064270
O 17.29607796 8.38119359 26.03198588 -0.00858190 -0.00475653 -0.00141681
O 3.74488667 11.67566820 20.46267526 0.00487030 -0.00301981 0.00716869
O 8.88989117 7.08638691 20.80827367 -0.00312133 -0.00272294 0.00186233
O 11.27759853 10.70594392 23.78988371 -0.00491886 -0.00184628 0.00177611
O 10.47124421 12.54019551 18.11228374 0.00186414 -0.00392726 -0.00537609
O 14.92177971 9.40741515 26.91707189 0.00442677 -0.00419683 0.00030179
O 14.55732166 2.29733593 18.68496811 -0.00081670 0.00682038 -0.00037598
O 9.00657945 25.71032971 15.76306996 0.00046173 -0.00489312 0.00073436
O 16.07687637 9.02650272 11.81160021 -0.00589441 0.00094681 -0.00407654
O 7.84011086 13.62661221 25.79303572 0.00363775 -0.00112936 -0.00487522
O 12.03376829 14.66682967 9.89450545 0.00312853 -0.00913248 0.00546207
O 14.55849058 6.17587055 2.09309099 -0.00005193 -0.00358667 0.00354073
O 7.29043780 15.58833062 7.77837805 -0.00462287 -0.00945348 0.00244414
O 13.87244856 1.86439609 7.36990491 0.00297939 -0.00253725 -0.00116860
O 17.39853534 18.46406654 15.71545101 -0.00513351 -0.00258064 -0.00739441
O 5.34782395 20.71479433 13.05326551 -0.00387308 -0.00052583 -0.00506960
O 10.12685533 16.09845133 7.41214891 0.00509858 -0.00322235 -0.00084928
O 19.18026054 19.20288696 19.19642456 -0.00136658 0.00097816 -0.00327022
O 7.41421730 10.99942529 8.42061620 -0.00589592 -0.00739582 0.00048673
O 12.19986437 4.08545862 7.55596616 -0.00041344 -0.00823187 0.00588031
O 9.60112537 1.33889192 22.17665800 0.01040628 -0.00382129 0.00383778
O 3.67112362 2.08341970 20.86463423 -0.00287835 0.00544591 -0.00111551
O 11.65289272 20.45097889 16.49955867 -0.00260038 0.00692932 0.00355824
O 6.14350559 19.36496580 5.81072031 -0.00282078 -0.00163296 -0.00473017
O 13.82896789 16.33741270 21.05536136 0.00409918 -0.00119945 0.00796951
O 19.31272608 13.82679073 22.97067543 -0.00211034 0.00436452 -0.00414914
O 20.75290458 7.38271347 12.78894074 -0.00594217 -0.00554062 -0.00084707
O 13.55393198 24.58692011 14.13085321 -0.00384988 -0.00393828 -0.00275533
O 8.49584706 27.32837092 26.10824804 -0.00125306 0.00043243 -0.00404640
O 10.34513709 29.93684073 18.52712209 -0.00225197 0.00058287 -0.00584074
O 17.23709234 22.34970235 25.66222735 -0.00102072 -0.00331960 -0.00615952
O 11.62460745 15.48644730 19.69516921 0.00347199 0.00123778 -0.00100605
O 15.40894806 21.77816756 24.02288196 -0.00176418 0.00724972 -0.00312704
O 9.93914295 16.58519324 2.99182059 -0.00487178 0.00254545 -0.00036735
O 1.58437614 5.90083513 16.70790450 -0.01650081 0.00690663 -0.00312087
O 14.68668951 26.57821930 7.98819444 0.00315919 -0.00546578 0.00104553
O 2.55685619 13.69580324 1.93924702 0.00869477 -0.00168732 0.00384425
O 10.31871668 30.32244735 12.15226871 -0.00414947 0.00132135 0.00483853
O 14.52926238 23.73071273 3.59046846 0.00006572 -0.00003777 -0.00417532
O 9.61918337 16.17066898 13.56336772 0.00656930 -0.00127950 -0.00316184
O 9.48759345 22.07410668 4.79438554 0.00214368 0.00297117 -0.00488683
O 1.39997421 4.89126491 6.19288632 -0.00146406 0.00282595 -0.00339517
O 0.00613337 11.47507421 10.91723871 -0.00575493 -0.00094401 0.01330486
O 8.58401180 2.37060741 26.82204139 -0.01031276 -0.00552057 0.00548007
O 22.17780849 12.08123616 27.72631473 0.00538009 0.00082234 0.00636103
O 13.68138825 16.30567726 8.67222924 0.00847379 -0.00212303 0.00253590
O 6.99319601 17.79750714 2.32172662 0.00404735 0.00446573 -0.00727477
O 20.43827778 8.50991548 5.26571733 -0.00619587 0.00038827 -0.00271236
O 17.35709168 5.20572975 5.53494266 -0.00152271 -0.00445383 -0.00355782
O 2.44948821 25.59951291 17.57313787 0.00864823 0.00307758 0.00089932
O 1.01895595 8.43297060 16.31340090 -0.00088122 -0.00344350 0.00353576
O 10.69516854 28.75429955 5.21642855 0.00503749 -0.00425921 0.00345860
O 19.02806432 13.50135038 25.58473266 0.00995356 0.00540314 0.00154495
O 20.91687689 6.06901231 19.40363148 0.00164295 0.00296143 -0.00248564
O 1.53464140 17.32560556 26.93448270 0.00124767 0.00031486 -0.00517285
O 19.38243080 3.90963165 9.97450281 0.00498137 0.00788544 -0.00534731
O 23.38182545 15.66880659 20.14828096 0.00193573 0.00107031 0.00254154
O 4.95847942 0.62260881 16.11195357 -0.00112323 -0.00420829 -0.00506357
O 12.58492292 16.05926974 23.71777452 0.00757779 0.00577572 -0.01151168
O 14.99830777 0.91723606 24.52039319 -0.01086352 0.00511662 0.00360914
O 15.63427490 9.31612316 22.28814892 0.00058511 0.00904137 -0.00229990
O 19.16848119 12.26503485 19.87745617 -0.00242079 0.00190692 -0.00805144
O 2.51155280 1.73869409 23.15796991 -0.00091545 0.00940397 -0.00415851
O 3.32984916 17.69440038 5.91386688 0.00492415 -0.00186797 0.00000287
O 21.53266489 9.95036175 24.97284555 -0.00552539 0.00226426 -0.00761622
O 20.83453656 0.89202967 8.80001727 0.00524942 0.00454658 -0.00385086
O 7.83890708 17.99217442 19.87394456 -0.00234166 -0.00558598 -0.00398261
O 13.70781161 25.88299383 23.95338799 0.00044149 -0.00299636 -0.00388164
O 18.51400066 9.90965970 4.48393032 0.00066812 -0.00385067 -0.00226135
O 19.24697339 16.05923176 11.94325030 -0.00240216 0.00188124 0.00028374
O 21.04844302 7.45251444 24.57007402 -0.00204030 0.00190321 0.00917098
O 2.21449731 22.60051427 10.00738938 -0.00304909 -0.00510712 -0.00549249
O 21.71863512 0.70360993 2.12074048 -0.00241230 0.00736930 0.00112090
O 16.36390962 19.74030866 8.19927383 0.00099506 0.00165788 -0.00662743
O 16.05675597 22.07874022 13.62049123 0.00739030 -0.00173432 -0.00113215
O 13.81319026 28.95149690 4.61807698 0.00141073 0.00893482 0.00396488
O 15.54155225 0.08151063 11.33331782 -0.00100311 0.00337603 0.00345073
O 0.01573519 27.54312250 11.84982933 0.00073055 0.00758565 -0.00551766
O 7.17396963 20.73762382 3.55175030 0.00850692 -0.00223889 -0.00255376
O 15.33158396 12.60144371 2.18648886 0.00317025 0.00022996 0.00592950
O 10.28735344 26.94626539 0.11721374 -0.00180895 0.00651271 -0.00191070
O 20.67711618 14.31316448 13.39103296 -0.00548268 -0.00767320 -0.00021638
O 22.18764510 20.34022042 9.46104173 0.00184680 0.00666667 -0.00051968
O 12.69333558 2.44361010 27.75187615 -0.00493732 0.00886376 0.00132550
O 0.27357057 18.53824398 3.65230556 0.00523381 -0.00070738 -0.00611257
O 18.95802008 30.60350859 25.94767837 -0.00295724 0.00309721 0.00007902
O 2.93642736 21.52871488 25.08415210 0.00540314 -0.00285125 0.00031363
O 13.74702232 19.58206677 27.04263799 -0.00114382 0.00092446 0.00323962
O 19.89543972 18.37011588 16.57819991 -0.00815357 -0.00326654 -0.00470382
O 19.15214139 10.23622419 9.06196551 -0.00402869 0.00068100 -0.00803705
O 13.82056755 19.94991770 8.06724007 -0.00869824 -0.00438292 0.00093609
O 17.48616013 22.94511914 15.91542927 0.00673120 0.00028138 0.00672460
O 21.14455546 25.10153284 6.72690640 -0.00358364 0.00556434 -0.00002684
O 14.66231292 4.33832207 0.28627237 0.00733825 -0.00303890 -0.00237333
O 2.41978133 23.04749592 12.42778962 0.00436242 0.00603641 -0.00155581
O 17.00880545 3.44630065 18.55915949 0.00773665 -0.00072086 0.00882945
O 20.94758634 24.31214247 15.42585514 -0.00529691 0.00237278 0.00889770
O 20.03173649 23.35083632 2.75624111 0.00248532 -0.00433333 -0.00088560
O 12.55060538 26.88812454 5.38963534 -0.00209533 0.00102558 0.00269724
O 13.35654524 23.87971465 22.22438705 0.00719936 -0.00283713 0.00347681
O 18.59747422 25.28005330 15.94125770 -0.00315687 0.00635966 0.00283564
O 16.72158914 23.85589686 10.07948020 0.00159889 0.00914574 0.00032426
O 5.06738057 28.76410985 12.10611599 0.00395438 -0.00010265 -0.00342137
O 17.05661786 9.62985785 17.31385929 -0.00273566 -0.00192155 0.00460403
O 12.80829967 21.57087230 0.84372514 -0.00068001 0.00223989 -0.00245060
N 11.44566652 22.80940609 11.54329720 -0.00118822 0.00632967 0.00180567
N 4.29265766 5.45295327 12.70870358 0.00325347 0.00498895 -0.00197276
N 8.87985668 0.39151206 6.71280782 0.00243753 -0.00464574 -0.00293640
N 0.82893949 7.97284719 9.86814932 -0.00116007 0.00111599 -0.00224413
N 22.45027340 29.72017521 15.64862050 0.00022554 -0.00430160 0.00173066
N 0.84979779 19.52424041 19.83730051 -0.00045601 -0.00123832 -0.00959155
N 3.70890446 27.17768371 24.03368849 0.00000338 -0.00157388 0.00793680
N 3.88594811 3.26694616 5.95668085 0.00691616 0.00557495 -0.00321311
N 21.45944137 24.16951599 20.21288536 0.00856304 0.00605614 -0.00844369
N 5.93868549 9.12569923 27.80518979 0.01018619 -0.00340333 -0.00215836
N 11.32079462 24.61375536 18.26176957 0.00042153 -0.00446322 -0.00487263
N 11.89494488 7.86521970 20.69522660 0.00221357 0.00128952 -0.00497635
N 6.46109065 7.16169093 24.20544058 0.00136685 0.00982399 0.00587878
N 5.44144187 9.21215226 14.66711716 0.00666402 0.01079334 0.00733448
N 4.91601091 15.82082293 11.94134333 -0.00115421 -0.00124100 0.00375798
N 12.29213185 10.24277628 9.07838617 0.00839621 0.00533458 -0.00451485
N 14.43013322 3.30332913 14.36380262 -0.00469191 -0.00116583 0.00495952
N 3.17710263 26.50748001 8.36684609 -0.00273865 0.00112984 0.01062519
N 18.33545351 20.75731024 1.18984746 0.00257461 -0.00249343 0.00409076
N 2.26861822 16.93170455 15.47527657 0.00671058 0.00791136 0.00114672
N 22.83915520 15.22884388 9.11655968 -0.00722708 0.00653505 -0.00228726
N 18.91706607 28.02753494 5.10091019 -0.00230315 -0.00110565 -0.00411948
N 7.58517411 22.68578616 14.17308156 0.00231504 0.00970360 0.00311632
N 2.32540097 3.78934224 0.13972944 -0.00474401 -0.00673858 0.00101120
N 7.55345545 3.77833773 14.08312685 0.00120880 -0.00264703 0.00042569
N 1.32816367 27.84317204 2.27945261 0.00080103 -0.01303143 0.00203839
N 2.34477538 12.37918104 25.76035353 0.00160449 0.00084503 0.00383717
N 3.00294139 25.56444140 27.68614539 -0.00426454 -0.00220151 -0.00418205
N 20.42231860 15.09627781 3.01206626 0.00804163 0.00990083 0.00467022
N 0.29345075 26.71610762 21.11614702 -0.00868669 -0.00276918 0.00277099
N 9.60221116 24.81120032 23.91066973 0.00264713 0.00228058 0.00186604
N 19.31446041 28.44386678 20.48534314 0.00353461 0.00184086 0.00581405
N 10.83874965 14.44922530 2.40254513 0.00655996 0.00181595 0.01001485
N 10.29090211 7.02025190 3.37758163 0.00182726 -0.01103516 0.01332667
N 12.24930520 6.26242581 7.09372865 -0.00340711 -0.00537547 0.00212580
N 11.98763231 11.78502122 16.58763267 -0.00285966 -0.00291480 -0.00722737
N 10.22170231 29.27565843 10.14726480 -0.00062365 0.00046899 0.00017768
N 18.97661821 14.04408430 6.84152293 -0.00811454 -0.00143142 0.01070928
N 7.13093817 19.23404767 7.87812021 -0.00333789 0.00727995 -0.00820608
N 16.32622127 10.98635747 12.70217601 -0.00156366 0.00446997 0.00447030
N 18.39676494 19.05957830 21.33948054 -0.00174988 -0.00295154 -0.00249542
N 7.04973327 5.69008568 20.72692339 0.00661763 0.00945592 -0.00629148
N 14.46724922 27.85466589 9.85457006 -0.00574140 0.01191108 0.00302622
N 6.25058827 6.70095122 3.03549096 0.00112080 -0.00533167 0.00205631
N 5.40660188 1.66961260 19.60968161 -0.01066840 -0.00415245 -0.00719366
N 12.70025410 3.07730979 17.54524981 0.00381611 0.00208004 -0.00054736
N 11.62943695 16.78388900 14.26209796 0.00666642 0.00119011 -0.00389536
N 20.65991155 7.30948036 2.48037670 0.00040247 -0.00393544 -0.00039412
N 3.26366804 13.89288635 20.53675764 -0.00790532 0.00397768 0.00217470
N 8.29420965 12.25192465 6.64619276 0.00189162 -0.00590292 0.00039594
N 16.37145396 4.84095262 24.61701198 -0.00740944 -0.00448771 -0.00517218
N 4.29555221 14.37821306 3.14160163 -0.01142815 -0.00314953 -0.00989958
N 13.60884951 9.92156992 0.83330500 -0.00105415 0.00516032 0.00292356
N 12.46447790 19.06435028 18.11151427 0.00485445 -0.00554841 -0.00773297
N 16.94031925 3.08104424 7.92146892 0.00066460 -0.00296497 -0.00410660
N 10.11583362 21.81721384 7.01283192 0.00324231 -0.00169504 0.00006650
N 19.67976823 2.07723274 18.15247934 -0.00329214 -0.00658872 0.00750248
N 22.86788085 5.13800384 17.29908435 -0.00852904 0.00140180 0.00405064
N 9.37331476 11.32186764 22.79899854 -0.01193641 0.00336030 -0.00377063
N 11.33877163 0.28963372 22.97176143 0.00106287 -0.00919893 0.00594221
N 8.10488424 18.95148555 24.36425606 0.00204304 -0.00242920 -0.00024233
N 16.07949196 25.15340364 2.55901404 -0.00526981 -0.00013392 -0.00760064
N 8.58707030 26.98793838 17.67748263 -0.00373145 0.00376584 0.00064447
N 15.62053757 16.49766616 22.44562134 0.00442343 -0.00261807 0.00466143
N 19.91182469 22.31177564 4.74999552 0.00169586 0.00259792 0.00961210
N 0.03653858 10.51381305 16.30510227 0.00490466 0.00544345 -0.00081689
N 11.82154090 0.36571909 27.70486246 -0.00279664 0.00386574 -0.00340952
N 17.73072797 11.53057135 3.13497167 -0.00216564 0.00137937 0.00830594
N 18.90652490 24.31849206 10.61668897 -0.00253078 -0.00361869 -0.00130055
N 1.54447901 17.49832291 1.34296461 0.00772370 0.00228316 -0.00614832
N 14.61793498 17.80360099 0.33091206 0.00620621 0.00545152 0.00443754
N 19.60970971 0.83280239 2.79970081 -0.01017965 -0.00500418 -0.00399038
N 19.64883840 12.40047264 14.13363826 0.00006895 0.01198421 -0.00812929
N 7.47810221 16.38576776 21.51109668 0.01351668 0.01014111 0.00072119
N 14.13565191 22.97562480 20.41188099 -0.00066671 0.00598171 0.00718957
N 16.78116104 13.66756991 25.48017278 -0.00358585 -0.00153047 0.00058784
N 19.59021017 1.74407933 27.19612439 -0.00379517 -0.00053534 0.00890021
N 22.17969021 5.48114898 24.58090816 0.00018032 0.00244078 0.00105435
N 16.90502993 8.86045023 19.52965033 0.00671988 0.00255488 0.00271155
N 23.17719754 14.30521143 21.91281454 0.00562673 -0.00505482 -0.00320833
N 21.86900238 2.45438603 10.13907051 -0.00529344 -0.00227001 -0.00061859
N 20.10108728 20.78600789 10.09316287 -0.00107998 0.00042339 0.00988715
N 10.49166231 30.15847756 3.35835940 -0.00405972 -0.00727124 0.01118558
N 18.10983701 26.90727467 14.41559353 0.00773995 0.00029248 -0.00312513
N 17.73355592 17.69820574 12.18069358 0.00784536 -0.00358481 0.00641949
N 4.65042595 21.42706197 26.56003441 -0.00789334 0.01023491 -0.00033771
N 18.44689617 6.08470965 9.86851389 -0.00116989 -0.00488299 0.00273992
N 11.43256974 22.03028431 2.60962473 -0.00640291 0.00294730 0.00308541
N 4.59298818 25.69090110 16.64947229 -0.01168033 0.00766036 0.00417224
N 12.34037718 24.65020806 5.56768243 -0.00001641 -0.00569820 -0.00129782
N 14.90628797 26.26898051 25.95710230 0.00584110 0.00204230 -0.00148437
N 0.00586192 20.21827546 5.12135378 0.01012956 -0.01451374 0.00804822
N 20.22560425 7.10907544 21.25891056 -0.00408707 -0.00313919 -0.00144591
N 3.24762525 28.35591045 13.56197647 0.00356772 -0.00776059 0.00193098
N 1.59354590 22.54412524 7.82531664 0.00045892 0.00046735 0.00306659
N 22.24498781 18.79295621 16.13641397 -0.00225234 0.00012984 0.00540185
C 12.39561739 3.15245334 12.89433843 0.01197313 0.00370365 0.00715180
C 6.54788773 5.75696333 11.74132101 -0.00350151 0.00209860 0.00029873
C 19.34800393 19.43005775 27.17199005 0.01246934 -0.00537822 0.00423792
C 3.19334335 7.66616211 9.48896479 -0.00153743 0.00295061 0.00212139
C 1.63267604 14.40044223 9.30586307 -0.01182689 0.00229658 -0.00097968
C 1.64200150 18.82145995 22.05176265 -0.00198457 -0.00220669 0.00257700
C 8.68347044 20.63333985 14.89995726 -0.01160273 0.00375097 -0.00722829
C 5.68843484 1.80868057 5.00250024 -0.00756033 -0.00710031 -0.00570950
C 11.21827629 3.78084289 12.55817450 -0.00788409 0.00387715 0.00135343
C 7.34943865 5.40815531 10.74520429 0.00280123 0.00456668 0.00060805
C 20.57524949 19.24538258 26.44899323 0.00389550 0.00221636 -0.00149032
C 4.26068771 7.50332039 8.63747651 -0.00484361 -0.00082839 0.00241477
C 2.61243958 13.42750732 9.04043709 0.00109818 0.00176780 0.00010658
C 1.45697666 18.35761810 23.35955878 0.00020722 0.00541423 0.00267060
C 8.74976013 19.53750017 15.69390165 0.00399239 0.00340399 -0.01051651
C 6.18987384 0.58630090 4.67145713 0.00174565 -0.00414748 -0.00018639
C 10.85084872 4.97992859 13.12574872 0.00157130 0.00838194 0.00009143
C 7.07994464 4.28482900 9.84205858 -0.00329465 0.00316981 0.00600931
C 21.59811870 20.21960528 26.45223627 0.00189866 -0.00291732 -0.00062762
C 4.20403647 7.99667386 7.29104018 0.00147045 -0.00603350 -0.00261818
C 2.42234105 12.43697607 7.97437485 -0.00628914 -0.00802063 0.00293561
C 0.15740657 17.76304942 23.61075848 0.00522552 -0.00167138 -0.01545529
C 7.84154208 19.36133830 16.77184118 0.00247116 0.00233810 -0.00204564
C 5.48280941 30.07960379 5.13060374 -0.01239776 0.01069680 0.00348577
C 11.62856134 5.49077732 14.15862491 -0.00375660 -0.00613603 0.00190288
C 5.92121289 3.42355265 10.07862107 0.00065085 -0.00083506 0.00266721
C 21.31193439 21.41945320 27.04000767 -0.00764934 -0.00529892 -0.00085530
C 2.93743578 8.50757137 6.83896838 -0.00663417 0.00004203 -0.00843037
C 1.26838454 12.56974096 7.31334185 0.00198678 0.00604328 -0.01328575
C 22.64914636 17.82776633 22.60900408 -0.01345352 -0.00684656 -0.00175306
C 6.78362750 20.18233405 16.89632526 -0.00293115 -0.00798108 0.00709321
C 4.20434332 30.20107335 5.68021523 0.00253090 -0.00825162 -0.01302809
C 12.90490723 5.02239204 14.32756251 0.00158450 -0.00575450 0.00046301
C 5.04199866 4.02004473 10.97908097 -0.00083462 -0.00095505 -0.00142103
C 20.22574397 21.55338955 0.09446044 -0.00070437 0.00330716 0.00664356
C 1.81238244 8.32862324 7.61004034 0.00151230 -0.00603719 0.00641656
C 0.23948110 13.46580374 7.61341673 0.00718826 0.00181275 -0.00434871
C 22.88833754 18.31260787 21.31064148 0.00985886 -0.00098985 -0.00520941
C 6.62563289 21.24650326 15.92726983 -0.00316814 0.00599847 -0.00100089
C 3.72962297 0.81579324 5.84542295 0.00016855 0.00281261 0.00468141
C 13.19381941 3.75622604 13.86088047 -0.00549884 -0.00506301 0.00395511
C 5.25924374 5.13229863 11.83041600 0.00159684 0.00091468 -0.00513465
C 19.31062294 20.47128053 0.24122774 -0.01100531 0.00144025 -0.00761672
C 1.89735441 8.02985486 9.02896547 0.00470166 -0.00156442 -0.00099810
C 0.40008385 14.38426465 8.66999610 -0.00457860 -0.00429090 0.00168974
C 0.67151916 18.84787650 21.02347978 -0.00615209 0.00722419 0.00169396
C 7.58508847 21.50127650 14.95027830 0.00177931 0.00444412 -0.00324799
C 4.44286236 2.01713704 5.65047916 -0.00455412 0.00459714 -0.00522477
C 14.75058314 2.03514945 14.20507243 0.00293843 -0.00073209 0.00471179
C 2.93145642 5.49374252 12.54958839 0.00379700 -0.00041494 -0.00385309
C 17.42005246 19.83830726 1.60351513 0.00434887 -0.00827375 -0.00488525
C 22.95865623 8.37660552 9.76167798 0.01364171 0.00015475 -0.00377138
C 21.46077410 15.08129321 9.08063014 -0.00592866 -0.00282322 -0.00416075
C 2.10890962 19.89429835 19.22893129 -0.00888092 -0.00597720 0.00334015
C 6.51631423 23.48079327 14.09186355 -0.00083827 -0.00361854 0.00487511
C 4.47896640 4.47022889 6.09795640 0.00039410 0.00450831 0.00332651
C 22.87772585 24.65076855 18.27010419 0.01164625 -0.00626350 0.00436709
C 2.20871534 6.30929702 13.57781871 0.00245898 0.00140717 -0.00365578
C 9.70952014 2.75523475 6.58154175 -0.00274578 0.00613301 -0.00397095
C 12.87917214 8.14362154 22.89348599 0.00169489 0.00835185 0.00224111
C 6.54735710 9.57299427 24.12294915 -0.00411650 -0.01294901 0.00770402
C 2.08009600 20.52505711 17.85355911 -0.00048214 -0.00200800 0.00945913
C 2.25956930 29.09407583 24.30045322 0.00185815 -0.00391684 -0.00161399
C 14.63754185 10.87440945 9.71764380 -0.00691093 0.00686227 0.00247303
C 7.24331585 5.21781657 16.02756803 -0.00177799 0.00584506 0.00026209
C 6.26178306 6.69783323 27.46819716 -0.00494645 0.00571372 0.00818701
C 2.98639071 10.53765331 24.37455617 -0.00752462 0.00912759 0.00446797
C 13.29211523 8.16073649 18.66784295 0.00281519 0.00628298 0.01090784
C 22.67188888 14.79855032 3.61951589 -0.00689967 0.00348246 -0.00351273
C 6.51307095 9.72633036 12.39568248 0.00193518 -0.00416805 -0.00016298
C 10.75707209 22.70936041 23.33303829 -0.00023135 -0.00798801 -0.00268225
C 12.50803831 8.88322706 11.08937482 -0.00062566 -0.00918557 -0.00382196
C 6.51105229 5.59200293 17.08606653 0.00733480 0.00195739 0.00018985
C 6.95342809 5.53981611 27.18964504 -0.00015676 -0.00536276 -0.00454383
C 3.34693870 9.25834082 24.10269868 0.00879293 0.00493335 0.00308857
C 13.35228271 8.35658128 17.28187327 0.00035977 -0.00377743 -0.00769372
C 0.32379486 15.20571183 4.38445813 0.00154869 0.00062502 0.00391359
C 6.44851439 10.02087681 11.06219584 0.01292560 -0.00501916 -0.00137238
C 11.36776730 21.55230729 23.70644001 0.00205865 -0.00432346 0.00560025
C 11.83984780 8.22571770 12.07569349 -0.00177047 -0.00198524 0.00756753
C 5.20012726 5.19535206 17.25991578 -0.00489397 -0.00330734 -0.00053666
C 8.27830482 5.79980621 26.67561417 0.00345433 -0.01155518 0.00073006
C 3.07637201 8.32588810 25.10255952 -0.00425016 0.00015526 -0.00317790
C 12.22262183 8.20116827 16.46457636 -0.00369761 0.00986256 0.01177096
C 0.16873068 16.00458844 5.54934309 0.00022100 0.00369137 0.00974748
C 5.19737178 10.21282536 10.50118053 -0.00752347 0.01131075 0.00552837
C 11.49400919 21.08173199 25.00592832 0.00644418 -0.00471241 0.00715970
C 10.52447063 8.61295687 12.52783247 0.00217253 0.00058504 0.00452863
C 4.69419468 4.22947663 16.43040959 0.00441957 0.00028689 0.00439719
C 8.82064703 7.13380171 26.61805525 -0.00963424 0.00771398 0.00919959
C 2.68128452 8.81201713 26.44836126 -0.00174634 0.00305520 -0.00206619
C 11.03377186 7.86926139 17.15017243 -0.00431264 -0.00673627 0.00105700
C 22.29108325 16.63238353 5.89486794 0.00324517 -0.00780898 0.00063598
C 4.01823607 9.98797947 11.26782378 0.00967547 0.00593758 0.00538917
C 10.82602226 21.88364995 25.97469152 0.01440746 -0.00713933 -0.00999866
C 9.82033409 9.62099802 11.85483927 -0.00494325 -0.00095638 0.00404612
C 5.43311558 3.77965794 15.34263146 -0.00080195 -0.01090541 -0.00597195
C 8.07811318 8.21418166 26.97417243 0.00540929 -0.00783998 0.00233916
C 2.20754892 10.10763435 26.60540482 -0.00680719 0.00060930 0.00336026
C 10.96433282 7.56876665 18.51268030 -0.00224906 -0.01029066 0.00857148
C 21.32946980 16.36388543 4.94722381 -0.00760310 0.00318749 -0.00342117
C 4.18723540 9.62987276 12.59851273 -0.00547258 -0.00918688 -0.00287917
C 10.25827523 23.04840070 25.57581300 -0.00132117 -0.00722572 -0.00270139
C 10.49362388 10.13035429 10.72338759 -0.00640998 0.00305572 -0.00545520
C 6.80153508 4.21284728 15.17934119 0.00675528 -0.00096162 0.00171857
C 6.76227936 8.06107506 27.34214157 -0.00160976 0.00111508 0.00346254
C 2.55044638 11.00886306 25.66801330 -0.00374661 -0.00503802 -0.00016360
C 12.06226877 7.84973108 19.31876402 0.00355030 -0.00698184 0.00038656
C 21.44008748 15.45709300 3.79345303 -0.01012458 -0.00218992 0.00695017
C 5.36182483 9.50600850 13.26049726 0.00508931 -0.00590112 0.00487337
C 10.11850976 23.52311100 24.25161299 -0.00363096 -0.00677496 -0.00197699
C 11.82832459 9.80092158 10.33478496 0.00306438 -0.00435327 0.01362756
C 7.63870278 2.48890698 13.70283137 0.00359147 0.00250381 -0.00491367
C 6.44059917 10.46761461 27.81396865 0.00073985 -0.00225794 -0.00367555
C 1.73425137 12.99116335 26.81812536 0.00287156 0.00561471 -0.00522556
C 12.76849699 8.53376715 21.50327547 -0.00112940 0.00659272 0.00617032
C 19.52192461 15.98252609 2.50331846 0.00462274 -0.00786804 -0.00028423
C 4.38477719 9.32740907 15.47188324 -0.00538904 -0.00796491 -0.00320114
C 9.07727221 25.00091885 22.65569487 0.00190145 -0.00483884 -0.00679503
C 13.60409110 10.37809178 8.68024938 0.00416600 -0.00704721 -0.00636477
C 12.93082152 21.12802739 12.37058534 -0.00431964 -0.00778894 -0.01095548
C 5.42549092 11.45072435 0.21445220 0.00274868 0.00027308 0.00982850
C 10.61231205 23.33155594 16.32026073 -0.00185830 -0.00054999 0.00729597
C 22.60411888 9.50443138 8.87880843 -0.00502687 -0.00852437 0.00924653
C 22.09707177 27.38874110 16.36614727 0.00763941 0.00315944 0.00210954
C 4.55980118 9.29332259 16.98241272 0.00057550 -0.01254299 -0.00465033