1920
Time=1000.00000000 pbc="T T T" Lattice="23.34767578 0.00000000 0.00000000 0.00000000 30.31068550 0.00000000 0.00000000 0.00000000 28.24961679" energy=-12195.30102038 virial="-57.53706998 23.16898929 25.44525097 23.16898929 -48.27319589 28.33036808 25.44525097 28.33036808 32.40610060" stress="0.00094877 0.00116155 0.00113303 0.00116155 0.00107993 0.00138022 0.00113303 0.00138022 0.00545445" Properties=species:S:1:pos:R:3:vel:R:3
O 10.52685932 5.16696162 13.88027230 -0.00300894 -0.00006592 -0.00414451
O 8.30324809 3.79154180 8.52145394 -0.00575555 0.00082882 0.00078271
O 22.53356296 19.90220786 24.78106783 -0.00536212 -0.00278043 0.00290102
O 6.00416289 5.35609222 5.39048716 0.00704531 0.00098431 0.00096676
O 22.08228296 9.23860027 6.59601082 0.00022530 0.00721383 0.00194627
O 23.08094403 16.11072359 25.40189965 0.00464017 -0.00338792 -0.00057872
O 7.22195263 18.50999370 17.64919655 0.00456748 -0.01030531 -0.00172484
O 6.03253496 29.86200113 3.52964815 -0.00004002 -0.00252664 0.00716470
O 7.19864367 1.79080770 15.51962426 -0.00617727 -0.00346803 0.00404698
O 3.56834898 5.74387735 12.14187116 0.00666828 0.00081379 0.00215501
O 17.54948458 18.83359707 0.53162474 0.00100778 0.00899521 -0.00481412
O 13.78485337 8.65785974 21.00570828 0.00150591 0.01078888 -0.00755065
O 17.94763264 14.63624786 2.47394320 -0.00763570 -0.00101106 0.00261979
O 2.24023899 20.37513920 21.90656055 0.00417346 -0.00549832 0.00070773
O 6.53109188 24.18424252 15.11514295 0.01089906 -0.00152663 0.00207395
O 12.17554232 12.23995722 7.65108438 0.00414694 0.00431961 -0.00136276
O 5.43681172 7.01672788 18.58937465 -0.00374293 0.00118430 0.01193547
O 10.00205117 5.24006160 26.74994240 0.00112147 -0.00262228 -0.00495118
O 3.63163798 5.48974052 25.80226592 0.00649648 0.00133351 0.00377445
O 12.92102775 9.51338437 14.88140510 -0.00252752 0.01000052 0.00860392
O 22.91949306 17.80812108 7.32862593 0.00318532 -0.00344585 0.00219320
O 3.52251852 10.92213111 9.64495214 -0.00109856 -0.00093615 0.00091709
O 13.08939083 21.26606102 24.76663121 0.00113185 -0.00001868 0.00169035
O 10.85463981 7.82979788 13.57535460 0.00327232 -0.00283811 -0.00200047
O 15.85037140 1.65261917 13.60252128 -0.00670313 -0.00459151 -0.00801480
O 7.35610067 10.92954630 27.59867316 0.00160933 0.00296302 -0.00188883
O 0.86002873 10.90303940 27.72916222 0.01014718 0.00453027 -0.00339075
O 0.70196287 7.84615170 10.13715072 -0.00314627 -0.00062119 0.00278070
O 0.44023842 13.59028511 10.98296710 -0.00068511 0.00461197 0.00032297
O 3.19828832 10.45839355 15.95061558 -0.00532739 -0.00248210 0.00508953
O 9.73438541 26.34884678 22.58873944 -0.00312222 -0.00271267 0.00050797
O 0.43247240 3.56472445 6.79091455 0.00939776 0.00295866 0.01095238
O 6.86590695 24.61725455 9.27174575 -0.00034550 -0.00424771 -0.00071907
O 23.05579180 29.68030417 7.00448649 -0.00155605 0.00447048 0.00397283
O 6.15570201 27.15507280 8.69624690 0.00258067 -0.00009512 0.00219922
O 2.18543433 21.24404772 12.88962787 -0.00402369 -0.00277258 0.00647226
O 1.98217731 4.50249497 13.90633614 0.00222084 -0.00191222 -0.00486278
O 17.77923715 28.64759829 27.35041405 -0.00319985 -0.00326224 0.00270696
O 6.53307743 23.07459705 25.62652176 0.00332274 -0.00567211 0.00391233
O 6.52330836 29.97805644 25.94042109 -0.00346405 0.00073528 -0.00410748
O 21.72431406 22.57242903 18.58021844 0.00894582 0.00301563 -0.00142291
O 1.78594001 23.79522236 6.81980423 0.00034416 -0.00333796 0.00121519
O 6.78185749 2.77149728 6.52658661 -0.00573001 0.00346186 0.00132918
O 2.25073394 23.10008074 1.72583897 -0.00091357 -0.00490601 0.00940537
O 8.81565561 8.28344866 23.38678173 0.00229501 0.00748182 0.00103778
O 20.12233688 26.39012141 4.28290968 -0.00110313 -0.00303276 0.00168867
O 5.29432112 28.89198068 24.01292537 -0.00138272 -0.00053359 0.00843286
O 17.29803810 27.31924937 19.88412395 0.00400591 -0.00155038 -0.00277431
O 18.88193084 20.13319598 23.53201787 -0.00092481 -0.00659405 0.00043612
O 20.87425503 25.18119141 26.84456697 -0.00017021 0.00244681 0.00466208
O 14.83576101 28.01092464 20.14177804 -0.00717805 -0.00737447 -0.00489514
O 6.54010312 27.44376922 3.72932768 -0.00188641 -0.00631895 -0.00196780
O 8.44792614 2.43939788 21.91416343 0.00090329 -0.00500925 -0.00175301
O 0.62431239 21.76690841 23.41470961 -0.00019502 0.00581325 -0.00594237
O 5.35586715 14.43672844 18.46363875 0.00425671 -0.00241920 -0.00320994
O 19.51491800 27.32855306 26.13209344 0.00272575 0.00023185 -0.00141991
O 10.37060132 19.80092880 11.61310736 0.00655957 0.00217853 0.00842128
O 0.71489339 29.67018438 0.77232483 0.00580810 0.00375306 0.00457353
O 12.65126478 24.16944340 15.62126732 0.00657938 0.00362792 -0.01007141
O 1.09676989 16.24456703 16.18408277 0.00049861 0.00172618 0.00235252
O 23.26836348 30.09866197 17.85168276 0.00168644 0.00850407 -0.00530813
O 1.58630658 26.97270598 19.85552390 0.00328756 0.00343753 0.00102114
O 3.55757550 16.01289722 11.28399354 0.00120169 0.00820142 -0.00069403
O 2.91764125 4.51782488 28.22276603 -0.00075056 0.00235480 0.00567405
O 6.48294514 15.54720897 26.19333226 -0.00053911 -0.00808044 0.00939946
O 7.43081976 8.19386741 7.89401357 0.00482290 -0.00031351 -0.00124500
O 11.66845410 5.19177710 24.76312889 0.00782235 -0.00125426 -0.00044621
O 7.06560750 12.55027166 12.32833741 0.00103313 -0.00166902 0.00326163
O 9.83931056 11.80254021 4.20806931 0.00068674 0.00348385 -0.00381701
O 16.45011890 13.89444411 4.56639028 -0.00498338 0.00794797 -0.00534274
O 14.63978668 7.46235264 10.66385857 0.00550705 -0.00334416 0.00301543
O 16.69413473 15.17147803 18.93347767 0.00265854 0.00265961 0.00332951
O 17.13314759 28.72118634 16.59315938 0.00529968 0.00061556 -0.00267315
O 10.86857135 5.17876377 3.59888392 0.00210226 -0.00398650 -0.00054331
O 17.57217057 4.20767529 23.12080553 -0.00150845 0.00353942 -0.00223862
O 4.91481116 10.88893183 2.40781763 0.00436461 -0.00205545 -0.00667713
O 5.96063555 17.85710817 26.91226218 -0.00021506 -0.00082566 0.00114343
O 18.39474052 9.19440743 8.67118755 0.00466630 -0.00213082 0.00264550
O 16.89688171 1.58895991 9.68404756 0.00813384 0.00689299 0.00640757
O 23.30400984 7.51066214 1.16791671 -0.00077067 -0.00484303 -0.00296275
O 21.40148874 2.18651730 21.80522331 -0.00030748 -0.00474161 0.00523053
O 3.54281440 8.81993098 21.83815574 -0.00146289 0.00373415 0.00794878
O 6.50254476 11.95207454 19.00608714 -0.01255127 -0.00414601 0.00927429
O 4.60274251 4.39409459 1.74034018 0.00358554 -0.00449331 0.00638130
O 4.73134841 20.99002200 21.43951948 -0.00074841 -0.00032117 0.00062751
O 11.97045030 28.41550134 15.16648503 0.00404042 -0.00606460 -0.00828069
O 4.21225964 24.31220175 21.89619919 0.00903935 -0.00359988 -0.00340355
O 17.12813008 8.21582967 26.97766385 -0.00237449 -0.00449306 0.00380207
O 4.78270707 11.09835679 21.92314580 0.00315716 -0.00352117 0.00114357
O 9.32213802 6.95171331 20.78183455 0.00216211 -0.00598270 0.00501465
O 11.96369768 12.89198735 24.07942436 0.00217444 -0.00056286 0.00270849
O 9.73572710 12.67208616 17.99909625 0.00380721 -0.00130435 0.00469280
O 15.10354107 8.18919942 0.63944332 -0.00190603 -0.00611169 0.00312077
O 13.80110708 3.12080231 18.50466266 -0.01063566 -0.00394206 -0.00208687
O 8.87714288 26.19924332 18.05067792 -0.00338937 -0.00577984 0.00355753
O 14.69034588 11.20319245 13.91324470 0.00526051 0.00112823 0.00385974
O 7.72443733 14.29850509 27.90823251 0.00080857 -0.00869135 -0.00730637
O 9.51961585 14.67876339 10.29933378 -0.00317138 -0.00181396 -0.00710682
O 14.94511747 4.62532100 2.81785614 -0.00666253 0.00313347 0.00197612
O 5.16536335 15.48238168 8.96786432 0.01433279 -0.01006570 -0.00622711
O 12.87147981 3.31600974 9.10567003 0.00367342 0.00248958 0.00306322
O 13.84646418 18.69342772 15.99995008 -0.00695797 0.00499598 -0.00064467
O 5.16332760 18.93312667 12.62251855 0.00364589 -0.00135828 0.00623069
O 10.70815467 16.69676848 6.90782313 -0.01004438 -0.00030070 0.01002925
O 18.48852476 17.38121633 18.49854963 -0.00532552 -0.00506115 0.00014388
O 5.80053559 10.34107114 8.13505003 0.00581175 -0.00381786 -0.00048879
O 11.22735078 4.96530451 8.00767220 -0.00105350 0.00245036 -0.00134714
O 11.07197921 2.05051927 22.48483729 0.00199115 0.00480299 0.00012132
O 4.38605421 0.62469925 19.92257138 -0.00341352 0.00278669 0.00412137
O 9.94754535 22.96039379 17.92046178 -0.00178310 0.00061896 0.00419768
O 7.11165685 17.59673277 5.37945316 -0.00832105 -0.01016327 -0.00318725
O 13.96005059 16.41628876 20.78357350 0.00210828 0.00669891 0.00230280
O 19.20489937 13.09344979 23.09565809 0.00001372 -0.00070756 -0.00376260
O 21.93402124 7.09279819 11.30299821 -0.00615101 -0.00517726 -0.00049923
O 13.89713109 22.85533416 13.67586987 0.00121625 0.00383059 0.00287278
O 8.60801580 28.97931720 27.08900076 0.00651531 -0.00121403 -0.00441631
O 10.11834805 28.69130219 21.46160714 0.00327949 -0.00679017 0.00857351
O 17.13755784 22.36874603 25.41727182 0.01015541 -0.00553441 -0.00130178
O 11.66194690 15.52271334 20.37280608 0.00742888 0.00429863 -0.00883500
O 15.65546492 21.69111505 23.57983878 0.00042481 -0.00701328 0.00577273
O 10.37137330 14.49306576 5.37626111 -0.00817843 -0.00000253 -0.00200749
O 0.82810672 6.25313834 17.27954862 -0.00238856 -0.00178540 0.00691759
O 15.26985352 25.93937760 8.50297518 -0.00445175 -0.00278572 0.00562223
O 0.85053722 13.46785501 3.19697476 0.00127814 -0.00277730 0.00640108
O 11.08836695 28.17833241 12.26965282 -0.00535880 0.00016744 0.00360097
O 14.12232713 24.26896551 2.51780540 -0.00204748 0.00701137 -0.00004062
O 8.42618362 15.47988496 14.80438146 -0.00007665 -0.00678443 0.00516763
O 8.85707272 22.08099763 4.65359815 0.00529472 -0.00408181 0.00148170
O 22.88460250 1.76604872 8.24334313 0.00767440 0.00083783 0.00157198
O 22.38507881 13.08443960 13.12137844 0.00763152 -0.00142464 -0.00168282
O 9.07082109 3.06638685 27.28497012 -0.00377133 0.00557956 -0.00386509
O 22.86009542 12.77413362 0.89612445 -0.00503010 -0.00160817 -0.00427277
O 12.49919563 14.10997072 9.42645960 -0.00213931 0.00350526 -0.00306939
O 6.34590841 17.69216075 2.60413012 -0.00485698 0.00210776 0.00146726
O 22.06594670 5.54988725 6.25734169 0.00242265 0.00111308 0.00685144
O 17.34599842 5.10830562 4.76382150 0.00002626 0.00258903 -0.00191072
O 2.41310240 25.71708395 17.33308117 -0.00449427 -0.00419890 0.00172775
O 1.66913112 8.74857709 17.05594153 0.01005918 -0.00206338 -0.00047077
O 11.00477165 28.43011861 4.68961791 0.00290920 -0.00008918 -0.00543264
O 18.76832095 13.02055883 25.66539801 0.00408100 -0.00437930 -0.00730614
O 19.33621167 6.17306373 17.57229243 -0.00265644 0.00754156 -0.00141907
O 1.40074790 16.00354794 27.13482854 0.00575883 -0.00103772 -0.00588628
O 19.86150525 4.17954668 12.30350911 0.00408223 0.00624624 -0.00545255
O 0.58623088 15.05462007 21.06857494 -0.00054994 0.00425091 0.00088921
O 4.91244090 1.14812689 15.95641538 0.00174306 0.00458980 0.00539622
O 12.24588280 18.50324896 24.17883726 0.00720566 0.00010716 0.00388493
O 16.39497813 1.97836763 22.13568025 -0.00008702 -0.00005512 -0.00686258
O 15.06453276 8.69847803 23.19710897 -0.00482276 -0.00011075 -0.00557647
O 20.27914968 11.22137003 21.42306305 -0.00565458 -0.00174804 0.00569779
O 3.49508482 1.47045901 22.06447696 -0.00028838 0.00095438 -0.00244555
O 2.57569589 16.56254639 5.97995217 -0.00425917 0.00412253 0.00254949
O 22.08460292 9.00747082 25.42434458 0.00525761 0.00350349 -0.00629633
O 20.69473698 0.97498317 14.19318820 0.00085884 0.00230349 0.00312690
O 7.06423601 18.75641465 20.39826484 -0.00295422 -0.00162044 0.00018687
O 15.25007849 26.21426276 23.51956490 0.00328266 0.00214551 0.00144911
O 20.55578452 8.56986435 4.66697338 -0.00625102 0.00711035 0.00404112
O 18.96707890 15.14435929 9.57453186 -0.00570061 0.00950042 -0.01144657
O 22.19371796 7.12729679 23.85705016 0.00018961 -0.00001892 -0.00113672
O 1.46886253 21.07504558 10.52465708 0.00714731 -0.01372327 -0.00096964
O 21.65169542 30.20919694 1.70456427 0.00117791 -0.00472751 -0.00113941
O 15.89309359 15.81488053 6.86891581 -0.00075558 0.00461691 -0.00401789
O 16.32932091 20.25445809 14.38823423 0.00001342 -0.00105971 -0.01402253
O 13.67511372 28.29241144 4.46674063 -0.00263326 -0.00195922 0.00057446
O 15.71136920 30.29141231 11.53333677 0.00230397 -0.00244062 -0.00859201
O 0.34808745 25.87400522 11.07623683 0.00130949 0.00652581 0.00964366
O 7.21493586 23.21910198 3.36420931 0.00281416 -0.00153010 0.00320798
O 13.42012844 12.47513172 27.53692604 -0.00466296 0.00360165 0.00375566
O 8.92200152 26.46353116 27.35654985 0.00134126 -0.00463836 0.00121481
O 18.68647359 13.07412449 15.20161531 -0.00101339 0.00477939 0.00490760
O 21.31836686 18.43167421 9.45969746 -0.00789592 0.00236014 -0.01069036
O 14.53470824 1.94029564 27.85694099 -0.00228266 0.00557685 -0.00535195
O 22.34180533 17.98562138 2.85565575 -0.00336675 0.00191720 0.00129906
O 21.65866031 2.25040890 24.53192535 -0.00165410 -0.00637160 -0.01495737
O 1.88586380 20.32128347 1.43697686 0.00174939 0.00840675 0.00007158
O 14.37510680 20.01312224 0.13779616 -0.00055622 -0.00099191 -0.00071554
O 19.38194369 17.79375161 16.24976254 0.00549128 -0.00801997 0.00268566
O 16.11986448 9.58525685 10.53464997 -0.00911059 0.00127908 0.00568221
O 14.08764845 20.21543762 9.09349617 -0.00588675 -0.00194317 0.00029110
O 17.77080656 21.65293664 16.15538442 0.00100355 0.00088056 -0.00604364
O 22.50148059 25.18848529 5.39677558 -0.00529096 -0.00279399 0.00858903
O 16.97152638 2.90094751 0.45539355 0.00169359 0.00227422 -0.00039836
O 1.79307986 23.26364027 14.39732216 -0.00700857 -0.00041516 -0.00059532
O 15.80978455 4.76197725 17.98156998 0.00021453 0.00146076 -0.00358698
O 21.39809323 23.65778979 15.55446514 0.00009150 0.00723088 -0.00941003
O 16.60348116 21.69627871 4.39315386 -0.00024922 -0.00336579 -0.00663673
O 12.15276229 26.30161879 4.68980278 0.00909823 -0.00315300 -0.00256713
O 13.91309839 24.84803435 21.80690152 -0.01053652 0.00926834 -0.00273148
O 19.39612018 25.03397787 16.05100918 -0.00587508 -0.00539212 -0.00841102
O 19.32316021 22.11115508 8.47071857 -0.00305203 0.00806039 0.00022943
O 4.82581284 28.05828802 10.64291768 -0.00469772 0.00513896 0.00021950
O 15.47961885 10.53466163 19.60544958 -0.00370903 0.00540544 0.00139035
O 12.83645443 21.75852468 0.76741911 0.00268292 -0.00483026 0.00398492
N 11.18363715 21.92604357 11.36732112 0.00740614 -0.00730892 -0.00421486
N 5.67485171 5.86133583 12.81044712 -0.00135505 -0.00259637 -0.00197524
N 8.16425948 1.06125855 5.57899505 -0.00439371 -0.00684005 -0.00686365
N 2.75489799 7.11221322 9.45594215 0.00551204 -0.00556017 0.01130044
N 0.09153008 29.82126445 15.60592988 -0.00803177 0.00877739 -0.00449432
N 0.55048032 19.23760923 20.89560696 0.00468993 -0.00119574 -0.00449924
N 3.52871339 27.52470781 24.49710961 0.00445887 0.00136205 -0.00331836
N 2.14476766 2.97528860 5.43136147 -0.00785977 -0.00719668 0.00238942
N 22.05015571 23.62380015 20.56275256 -0.00224008 -0.00156945 -0.00248342
N 6.08552652 9.08170261 27.45196135 -0.00120515 0.00448620 0.00543895
N 11.27612278 25.39500587 16.99595793 0.00084942 0.00013204 -0.00042783
N 11.88503506 7.81438346 20.07263744 0.00977922 -0.00189531 -0.01958586
N 6.98327123 7.18998001 24.18309561 -0.00352548 0.00189693 -0.00656948
N 5.24055420 9.99097328 14.77579707 0.00005670 0.00721950 0.00091460
N 4.46102513 16.03229025 13.27665079 0.01316359 -0.00045880 -0.00772399
N 11.11368701 10.61133104 8.91934720 -0.01204201 -0.00381074 -0.00704739
N 15.54423904 3.36086281 15.03552138 -0.00048484 0.00772263 0.00029535
N 3.12717061 25.47682465 7.72683477 -0.00348184 -0.00176070 -0.00376589
N 18.48599932 20.87246994 0.22434207 0.00897924 0.00627016 0.00080609
N 3.13339242 17.22030236 16.70687950 -0.00295957 0.00878588 -0.00664703
N 22.80592645 14.23956013 9.07714058 0.00760808 0.00314972 -0.00266575
N 18.21934624 27.57713996 4.48839139 0.00218625 0.00438158 0.00097477
N 7.57806990 22.50845900 13.93359030 0.00238179 -0.01206812 -0.01137035
N 2.11175788 2.38971198 28.08835488 0.00849108 0.00184544 -0.00399596
N 7.76864269 3.83287002 14.74802086 0.00032692 0.00374363 0.00177430
N 1.35420006 27.67311550 1.52902167 0.00462479 -0.00502561 0.00309023
N 1.99868305 10.82114379 25.72329628 -0.00012556 -0.00521427 -0.01317431
N 3.01986248 24.81393771 0.41792847 -0.00716994 0.00224843 -0.00156852
N 19.91245833 14.86032380 3.59667908 -0.00048853 -0.00846373 -0.00925368
N 0.50584660 27.22955164 21.87649444 0.00368381 -0.00650760 -0.00222829
N 8.75542220 24.57924026 23.61829145 0.00479841 -0.00220303 -0.00095460
N 19.48666885 27.62422009 20.60916363 -0.00215370 -0.00383048 0.00811401
N 11.37983354 14.74527950 3.36887073 0.00675010 -0.00135111 -0.00351933
N 10.99894024 7.56301890 3.61103372 0.00266570 0.00588845 -0.00561408
N 12.10912073 6.72870803 6.95579681 -0.00358356 -0.00446331 0.00411209
N 10.89140500 11.74351458 16.18685950 -0.01157942 0.00009563 0.00423314
N 9.51464183 29.41105543 11.12002404 -0.00166411 -0.00138956 0.00587917
N 19.49551491 11.32373653 8.52696169 0.00071023 0.00032126 -0.00943332
N 7.23447146 17.74158428 7.58238660 0.00363267 0.00962253 0.00357798
N 14.75212757 13.56726202 13.98517623 -0.00143719 0.00206020 0.01097768
N 18.43998433 18.18487661 20.70110580 0.00899420 -0.00890114 0.00701527
N 7.58866804 5.45586843 20.43494924 -0.00738300 -0.00592915 -0.00494653
N 14.91075065 27.11440080 10.40807702 0.00034222 -0.00284904 0.00037551
N 6.66195021 9.50065224 2.42718419 -0.00239099 -0.00283880 0.00132327
N 6.23239100 1.52681914 18.92596534 -0.01034185 -0.00013518 0.00376739
N 12.20554568 3.46464423 16.86381862 0.00654909 0.00264699 -0.00254928
N 10.62577680 14.97622128 15.02838278 0.00012753 0.00695879 0.00196045
N 21.39754221 6.52629158 2.07279869 0.00629104 -0.00689507 0.00198597
N 4.09371873 13.30269683 21.65153182 -0.00046344 0.00708309 -0.00847938
N 6.82872385 11.58973959 6.58200607 0.00399874 0.00026903 0.00570746
N 17.10449638 5.35297618 25.00920003 -0.00083263 -0.00486219 0.00006454
N 2.04805513 13.12268143 5.11726492 0.01230989 -0.00006145 -0.00038532
N 14.45585202 10.27588900 1.28660506 -0.00069323 0.00321328 -0.00195831
N 11.18460693 21.90949158 19.49201499 0.00384489 -0.00327952 0.00374849
N 17.10693679 3.19670008 7.96253861 -0.00037694 -0.00560609 -0.01019204
N 10.00435985 22.06414609 6.55543534 0.00676411 0.00064918 -0.01027690
N 18.04093898 30.07959409 18.17498329 0.00201469 0.00127653 -0.00145920
N 21.96941094 6.18084212 16.66172269 -0.00250811 0.00189936 -0.00511132
N 10.23272930 13.25853832 22.73686816 -0.00464476 -0.00480723 0.00746392
N 12.17914576 0.04534307 22.94528798 0.00695035 -0.00043931 0.00496552
N 7.65714872 18.95704921 25.77826964 0.00358610 0.00138734 -0.00891088
N 16.22977442 24.99457974 1.98635252 0.00751512 -0.00426760 -0.00038218
N 6.92841057 27.36851906 17.95686466 -0.00646330 -0.00548462 -0.00830218
N 15.07685500 16.25934213 22.70765997 0.00551718 -0.00052850 -0.00045657
N 18.12405031 20.84710000 5.88288878 -0.00268579 0.00609791 -0.00122883
N 0.23405844 10.34997732 17.85793343 0.00430095 0.00166029 -0.00928223
N 12.92654315 0.40282989 27.98025172 0.00180511 -0.01144014 0.00325688
N 18.98769347 9.48247912 3.26437565 0.00004949 -0.00096352 -0.00190658
N 18.56057850 23.69577113 10.00162397 0.00783504 0.00908316 -0.00353768
N 1.10989125 16.47958236 1.14585151 -0.00089223 -0.00111409 -0.00023778
N 14.74372424 17.80396402 28.14554695 0.00018473 -0.00544009 -0.00350511
N 20.07752956 0.62985679 3.05753413 0.00869265 0.00584550 0.00087358
N 18.31303032 10.88776401 15.50724346 0.00947139 -0.00248549 0.00331595
N 7.12510144 17.57941070 22.32289605 0.00167302 -0.00631460 0.01155297
N 14.52585833 24.19775379 19.78082538 0.00188479 -0.00768390 -0.00959835
N 16.59051121 13.34668337 25.62067642 -0.00150038 0.00154835 0.00231491
N 21.78351488 0.91000647 26.46558834 -0.01140026 0.00593795 0.01187879
N 23.08668994 5.43063653 22.86757406 -0.00311971 -0.00325151 -0.01333490
N 16.85342223 9.32981297 20.95696611 0.00324640 0.00852234 -0.00118301
N 23.28202437 13.73475308 22.82829208 0.00251402 -0.00239571 0.00085468
N 22.12251450 2.64918200 13.62863256 0.00165517 -0.00547119 -0.00046950
N 20.03952859 17.80375593 11.24501330 0.01137552 0.00186673 -0.00498054
N 10.93529675 0.02223670 3.40455301 -0.00240355 -0.00644337 -0.00029638
N 19.01314701 26.68739126 14.52184950 -0.00156528 -0.00692244 0.00454101
N 17.53333421 15.28268446 11.31533671 0.00695650 -0.00074346 0.00608913
N 3.74638688 20.63474902 0.10468919 -0.01267027 0.00905894 0.00117085
N 18.70188715 5.32603948 10.68930662 -0.00780721 0.00452047 0.00288518
N 11.36293407 22.57897522 2.30632357 -0.00233479 -0.00478419 -0.00211949
N 4.54532750 25.82240355 16.43456556 -0.00541582 0.00103795 -0.00684619
N 12.78638127 24.44936132 5.67917883 0.00040252 -0.00943115 -0.00494106
N 15.37646910 27.72005944 25.20861320 -0.00592920 -0.00350478 0.00804022
N 22.61052382 19.82018740 4.23905077 0.00349126 0.00698979 0.01035822
N 19.18536576 6.07219925 19.85509777 -0.00062739 -0.00929520 0.00040586
N 3.55822379 28.13358256 12.52738726 0.00637765 -0.00098642 -0.00095469
N 1.28455884 21.44620289 8.35184068 -0.00152659 0.00182015 0.00236006
N 21.59645281 18.11981536 16.11480162 -0.00373314 -0.00030606 -0.00753772
C 13.50610558 3.06148995 13.85633272 0.00168606 0.00662592 0.00291376
C 7.67025387 5.52415009 11.58456703 -0.00517840 -0.00128753 0.00256648
C 19.67156466 19.34827957 27.04366945 -0.00027580 0.01005650 0.00742523
C 4.86073273 6.49557997 8.55297161 -0.00143915 -0.01340895 0.00284812
C 23.11789713 11.83672673 9.02702601 -0.00500146 -0.00449779 -0.00544584
C 1.23413134 18.33368420 23.10019578 0.00997973 0.00667108 -0.00338704
C 8.47292601 20.46760057 14.88209539 0.00210527 0.00223449 -0.00229076
C 3.88654172 2.51895268 3.85599592 0.00944798 -0.00570235 0.00663105
C 12.28567292 3.60115167 13.37312395 -0.00349284 0.00248771 0.00167014
C 8.38631774 4.97039887 10.58752780 -0.00901672 0.00622389 0.00291482
C 20.65944584 18.99427749 26.07727899 -0.00346579 -0.01222078 -0.00215880
C 5.62183605 5.95817928 7.65405928 -0.00608161 -0.00203904 -0.00427012
C 22.94449445 10.55806193 8.43554337 -0.01704684 -0.01013502 -0.00486562
C 0.94476140 17.75628289 24.28068139 0.01037899 0.00019868 0.00297309
C 8.52052521 19.47642758 15.81809433 0.00521123 -0.00456652 0.00604572
C 4.97693544 1.69434045 3.38148612 0.00358333 0.00100244 -0.00708838
C 11.87359693 4.88836545 13.86429235 -0.00718986 -0.00623777 0.00025327
C 7.78341357 4.08334983 9.71222883 0.00529812 0.00430155 0.00319860
C 21.41650890 20.11213184 25.58011600 0.00084861 0.00090335 -0.00470586
C 5.21816619 6.07237179 6.28118095 -0.00108670 0.00975401 -0.00325402
C 22.36339914 10.40435812 7.19786418 0.00060505 -0.00973259 -0.00157883
C 23.22314724 16.85757806 24.27933996 0.00017586 -0.00191513 0.00734642
C 7.66140148 19.62444427 16.98121991 -0.00288127 -0.00293272 -0.00424101
C 5.11983593 0.34885350 3.91542266 0.00295959 -0.00072811 -0.00143083
C 12.76709372 5.68968785 14.55268184 -0.00358414 0.00401354 -0.00096479
C 6.55752324 3.53031627 10.16200335 0.00173840 0.00352540 0.00443819
C 21.13509765 21.39181251 26.04590108 -0.01033290 -0.00283847 -0.00483905
C 3.99670188 6.75644128 6.00814339 -0.00180129 -0.00032688 0.00116652
C 21.90465205 11.61561552 6.50860787 0.00335357 -0.00306100 -0.00268012
C 22.30269888 16.89328592 23.18480805 -0.00224704 0.00081063 0.00305697
C 7.11802086 20.86715905 17.28652047 0.00875731 -0.00256058 0.01232934
C 4.16520413 30.22109962 4.86501338 -0.00559045 0.00069800 0.00308923
C 14.05493383 5.23799580 14.84521631 0.00645301 0.00517831 0.00755470
C 5.73406258 4.23723841 10.95742470 0.00720881 0.01756608 0.00072971
C 20.17311853 21.66271084 27.00838332 0.00005453 -0.00272239 0.00345335
C 3.15708077 7.21887841 6.98884048 0.00752412 0.00322002 0.00123121
C 22.05805448 12.81787661 7.13993757 0.00033339 -0.00643384 0.00721064
C 22.52540670 17.57515137 22.06780311 -0.01319016 -0.00693900 -0.00291831
C 7.24160729 21.87927173 16.34963149 0.00448724 0.00957184 -0.00595051
C 3.23427249 0.79984138 5.47184997 -0.00271589 -0.00204098 -0.00267327
C 14.35855672 3.86607517 14.57326622 0.00827117 -0.00094996 0.00243689
C 6.25634559 5.20501838 11.77359604 -0.00644429 0.00498134 -0.00128112
C 19.39817312 20.63843977 27.47207514 -0.00145157 0.00156373 0.00021049
C 3.60679332 6.86195558 8.33614907 -0.00190639 -0.00224246 0.00494899
C 22.76219331 13.01359328 8.43926822 -0.00805130 0.00915767 0.01003850
C 0.29144878 18.40693680 22.01216902 -0.00577408 -0.00729700 0.00278213
C 7.70964362 21.68080579 15.08002190 0.00589359 0.00737583 -0.00612573
C 3.15656438 2.06872515 4.97292546 -0.00386480 0.00175814 -0.00874051
C 16.21003669 2.24961606 14.61646942 0.00835619 0.00168116 -0.00522748
C 4.34333961 6.21067752 12.92693027 -0.00171022 0.00285739 -0.00181516
C 17.65999569 20.01726966 0.87212393 -0.00504688 0.00417211 -0.00954728
C 1.36683320 7.23299470 9.28203563 0.00009494 -0.00099996 0.00563856
C 23.20025219 14.42989700 10.36464581 0.00194539 -0.00211629 -0.00140880
C 1.65337461 20.11738021 20.88531733 -0.00087259 0.00385469 -0.00059841
C 6.82824544 23.62937971 14.00005512 0.00191676 -0.00045965 -0.00306360
C 1.61426911 3.13929073 6.66079258 -0.00864298 0.00502533 0.00240405
C 22.77420583 24.64964706 18.59766205 0.00074090 0.00621105 0.00262715
C 3.87288463 7.00747982 14.12230051 -0.00138239 0.00512468 0.00637081
C 8.92730420 3.33583225 5.35842976 0.00555159 0.00203598 -0.00686051
C 12.14641150 7.60020507 22.49967492 0.00449717 0.00296149 0.00595310
C 7.00721049 9.57140078 23.87303908 0.01081659 -0.00143598 -0.00259410
C 1.94473421 20.72897726 19.59279063 0.00015616 -0.00274482 -0.00264147
C 3.21805126 29.82629732 24.43941115 -0.00843804 0.00212779 -0.00742151
C 13.41914398 10.30535403 8.13465052 0.00326956 0.00257758 -0.00556939
C 7.97007669 5.50987120 16.40711778 -0.00548619 0.00002229 0.00138890
C 6.75646290 6.71679005 27.31601491 -0.00911879 -0.00898300 -0.00731784
C 2.84782877 8.87946417 24.62444413 0.00712276 -0.00431898 0.00065958
C 13.36035937 8.20820897 18.23428402 -0.00081710 0.00285535 -0.00586738
C 22.01394748 15.38023606 4.64248403 0.00765289 0.00269575 0.00497470
C 5.63121427 10.03807482 12.46646369 -0.00436743 0.00078118 0.00385973
C 11.18152026 24.08600623 23.33124948 -0.00494483 -0.00354595 -0.00114216
C 12.36318581 9.51962264 10.82605903 0.00099137 -0.00303599 0.00018389
C 7.40395410 6.36903392 17.29406914 -0.00432200 0.00035219 0.00768583
C 7.73965622 5.79943300 27.13559227 0.00075985 -0.01170818 0.01072032
C 3.11950354 7.44316298 24.52001361 0.00412018 -0.00321721 -0.00441122
C 13.67526168 8.66867541 16.95251821 0.00520328 -0.00513512 0.00389393
C 22.78163383 16.22772462 5.46612083 0.00475517 0.00067401 0.00201880
C 5.16925039 10.17590775 11.19446326 -0.00079938 -0.00376766 -0.00362731
C 12.14770963 23.05368395 23.48895161 0.00169362 0.00661613 -0.00081709
C 12.27524736 8.85779814 12.01150322 -0.00114190 0.00359099 0.00126590
C 6.00634651 6.31964051 17.52971997 -0.00287253 -0.00481259 -0.00144867
C 9.07125764 6.16201285 26.82326534 -0.00676543 -0.00721761 -0.01138130
C 3.07425412 6.70730766 25.70180711 0.00314469 0.00304394 0.00103239
C 12.67403646 8.84829111 16.06874470 -0.00000102 0.00405127 -0.01059382
C 22.19460083 17.08621386 6.38217914 -0.00577339 -0.00445775 0.00460501
C 3.87277093 10.65299291 10.92486426 0.00645752 -0.00163889 -0.00580113
C 12.02384053 22.06811740 24.50336167 0.00237044 -0.00067695 -0.00331217
C 10.96482132 8.51678661 12.55641593 -0.00516088 0.00040804 0.00560898
C 5.26793540 5.48400014 16.77596317 -0.00404541 0.00352541 0.00066997
C 9.30387125 7.50470644 26.62434425 0.00004731 0.00036464 -0.00333739
C 2.48415710 7.37164383 26.84126044 0.00598917 0.00026110 0.00283242
C 11.31977748 8.58206064 16.50482780 -0.00027463 -0.00069258 -0.00678311
C 20.79411156 17.15178613 6.34352020 0.00739794 -0.01168866 -0.00226341
C 2.95651909 10.72868020 11.96952109 0.00192675 -0.00087132 -0.00335570
C 10.87097278 22.10840801 25.37253141 -0.01120708 -0.00471621 -0.00018456
C 9.79883874 8.89045594 11.75049760 0.00513005 0.00022987 0.00274554
C 5.83097639 4.67290925 15.84818449 0.00405822 0.00432513 0.00395914
C 8.35075640 8.48623778 26.99731514 -0.00320777 0.00220340 -0.01045976
C 2.02717643 8.63847833 26.78956054 0.00784763 0.00854327 0.00646533
C 11.04806915 8.41378201 17.88152020 -0.00114339 -0.00270695 -0.00320688
C 19.99672054 16.44880598 5.46915463 -0.00334331 -0.00780559 0.00604449
C 3.43804785 10.64875379 13.34748018 -0.00708416 -0.00738655 0.00144100
C 9.96946151 23.05208422 25.13599354 0.00637080 -0.00117595 -0.00238294
C 9.89708611 9.64752950 10.64219907 -0.00282388 -0.00348891 0.01106638
C 7.21469142 4.58628247 15.73615545 -0.00563661 -0.00004467 -0.00322507
C 7.04940112 8.10788165 27.27532923 -0.00003303 0.00503539 -0.00190744
C 2.24269242 9.47232150 25.70191645 0.00200811 -0.00226958 0.01400213
C 12.10260439 8.10315481 18.71464501 0.00620202 -0.00381013 0.00142473
C 20.62252245 15.49759504 4.63927850 0.00168612 -0.00002257 -0.00309803
C 4.72726997 10.24704269 13.52575722 0.00194683 0.00747718 -0.00061560
C 9.98226422 23.97574704 24.05712624 -0.00877720 -0.00333615 -0.00222989
C 11.21039182 9.92551598 10.11119090 -0.00304714 -0.00006028 -0.00479102
C 7.48285043 2.52611105 14.55534533 0.00091449 0.00377742 -0.00189192
C 6.22190801 10.47158985 27.54041194 -0.00126210 0.00296998 0.00437207
C 1.53263025 11.49667988 26.79112774 0.00081466 0.00108425 0.00177025
C 12.71422924 8.07429870 21.20582656 0.00928670 0.00123439 0.00121290
C 18.89173373 15.36329444 2.83225355 -0.00756932 0.00005979 0.00212838
C 4.47642172 10.13923403 15.87020516 -0.00474114 -0.00286117 0.00090384
C 8.69030574 25.80170371 22.94240321 -0.00861944 -0.00047595 0.00609368
C 12.14306543 11.07564053 8.20133236 0.00097566 -0.01535658 -0.00093558
C 12.63978320 20.21496959 12.28709572 0.00727409 -0.00496409 0.00928365
C 5.05001607 11.31949974 27.48988583 0.00356134 -0.00499032 0.00218881
C 10.24527546 23.96586310 15.41210781 -0.00828383 -0.00120624 -0.00680861
C 0.67768793 6.47367653 8.15479220 -0.00072486 -0.00315221 0.00397089
C 22.91363167 27.87060478 16.97503083 0.00249638 0.00436928 0.00681560
C 5.23568957 9.87997107 17.05308248 -0.00367332 -0.00320721 0.00532568