1920
Time=43000.00000003 pbc="T T T" Lattice="23.39033621 0.00000000 0.00000000 0.00000000 30.36825345 0.00000000 0.00000000 0.00000000 27.87065915" energy=-12192.81900030 virial="-85.62527120 -39.90527932 -24.90788976 -39.90527932 -73.80021850 8.25484047 -24.90788976 8.25484047 -20.26355685" stress="-0.00052966 -0.00200070 -0.00131910 -0.00200070 0.00002217 0.00035019 -0.00131910 0.00035019 0.00286607" Properties=species:S:1:pos:R:3:vel:R:3
O 10.62627426 6.89339536 12.34432518 0.00130864 -0.00033499 -0.00588158
O 8.35893275 4.96097454 8.59941694 -0.00469610 -0.00371927 0.00323305
O 21.83349961 21.94612029 25.77052630 -0.00505094 0.00258005 -0.00004381
O 4.48130278 7.37045434 5.55420228 0.00312267 -0.00298010 0.00033351
O 2.21194048 10.51016137 7.71923598 0.00218269 0.01049530 0.00264519
O 22.55486832 16.84585203 24.96930848 -0.00668359 -0.00373542 0.00061808
O 8.10730843 18.40188144 17.96915902 -0.00479086 -0.00007170 0.00322573
O 5.93066211 30.20868883 4.12516093 0.00568961 0.00265292 -0.00536263
O 7.30658034 1.27269817 14.98684334 -0.00180887 0.00009548 0.00014029
O 3.25103539 5.28128893 12.47776519 0.01191702 -0.00168882 0.00315400
O 17.23036997 18.37214266 0.17468913 -0.00435357 -0.00000452 -0.00526920
O 13.06591410 8.18224538 20.90469250 0.00838860 -0.00127366 -0.00175569
O 17.71439502 15.18809382 1.94069762 -0.00080755 0.00613386 -0.00660240
O 3.19430131 18.91403059 20.45868190 0.00194606 0.00317489 -0.00238662
O 6.54925018 23.64089047 14.81367668 -0.00423734 -0.00683560 -0.00328882
O 14.75313786 12.91938483 7.08399544 0.00531132 -0.00819011 0.00484527
O 4.57200803 6.15182544 17.47566143 -0.00273875 0.00411716 -0.00554819
O 8.97253892 4.47455974 25.83405368 0.00577897 0.00331101 -0.00291869
O 2.41839652 5.77502876 26.02875433 -0.00711526 0.00420260 0.00540623
O 12.68525606 9.73722771 14.62078685 -0.00429047 -0.00675460 -0.00544384
O 0.29371520 15.81262097 6.75865278 0.00140659 -0.00375906 0.00502146
O 5.23828625 10.17102440 9.79560855 0.00059525 -0.00751784 -0.00456432
O 12.38011940 20.20063783 24.82819554 0.00255836 0.00069847 0.00083266
O 11.19940539 9.29541649 12.69527459 -0.00075834 0.00021602 -0.00301865
O 14.94266920 2.61129158 12.57667887 -0.00075818 0.00766280 0.00012567
O 7.27430473 10.36123150 27.64256852 0.00535941 0.00203067 -0.00217626
O 2.38085571 11.35515766 0.60092383 -0.00540892 0.00036852 0.00145793
O 0.00086165 8.05921527 11.69675056 0.00493242 0.00127339 -0.00448936
O 1.44430993 14.91622775 12.05312019 -0.00205949 0.00479400 0.00495585
O 3.19187940 9.47596695 15.81053939 -0.00213395 -0.00177291 0.00349068
O 8.31118827 23.93958518 21.49506800 -0.00207846 -0.00680857 -0.00228839
O 0.97931746 4.34297690 7.38621842 0.00392186 0.00460097 -0.00146249
O 6.25559302 24.80836078 8.93353182 -0.00164583 0.00330077 -0.00383690
O 0.10276352 30.07079556 7.76388597 0.00194531 -0.00104325 -0.00621348
O 5.59764879 27.25020747 9.60280785 0.00102984 0.00800308 0.00427707
O 3.71171146 20.79965389 10.64481395 0.00285687 -0.00218339 0.00133074
O 1.59821481 3.54895923 14.01145161 -0.00752834 0.00233984 0.00078118
O 19.15609714 29.04725797 26.71055081 0.00121210 0.00449219 0.00341730
O 6.67341681 23.13327673 26.19436903 0.00748048 0.00526149 0.00260217
O 5.86723460 0.83475645 23.81801968 -0.00567210 0.00086801 -0.00316603
O 22.09300177 21.51080218 18.88240552 -0.00476613 -0.00463182 0.00374360
O 2.70031209 24.27213099 5.72012264 0.00482895 0.00557241 -0.00285770
O 7.75305258 2.55705712 7.49206112 0.00341080 0.00207921 0.00339234
O 4.04605547 23.64821738 27.64667855 -0.00491049 0.00211814 -0.00046777
O 8.50389549 8.26114673 23.51196548 -0.00407865 -0.00137142 0.00709800
O 21.04326602 26.75258020 4.35753981 -0.00173594 0.00078498 0.00127717
O 5.58531845 28.77953108 22.83792357 0.00625595 0.00235119 0.01449670
O 16.68113752 27.29080778 20.15112553 -0.00486809 -0.00444630 -0.00350216
O 18.88432686 21.48420220 24.32040918 -0.00614950 0.00115425 -0.00274220
O 21.94492535 25.21650957 26.19202409 -0.00236292 0.00180664 -0.00359633
O 14.40367194 28.56815675 19.84277991 -0.00295630 0.00414151 0.00121329
O 4.82649549 27.98570991 4.52346600 0.00533554 0.00424546 -0.00344846
O 7.95544500 2.03404254 21.67262886 -0.00223231 -0.00484704 -0.00667503
O 1.44404229 21.41551872 23.34373823 -0.00763464 -0.00654129 -0.00164537
O 5.62919049 13.74850814 17.57875864 0.00765959 -0.00472101 -0.00336212
O 19.75338169 26.60408587 25.76645974 0.00308358 0.00229953 0.00217930
O 9.89567775 20.01432638 10.82126536 0.00654226 0.00400496 -0.00079998
O 0.90471410 29.85975043 1.50498909 -0.00532505 0.00578421 0.00579453
O 12.58164199 25.11934969 14.82288428 -0.00287769 0.01016810 -0.00674238
O 0.87929840 16.96555121 14.99802162 -0.00424317 -0.00990541 0.00986555
O 21.81687853 28.46758114 13.13733749 0.00102369 0.00360230 -0.00467264
O 2.24283577 26.80262809 19.86255926 0.00014875 -0.00807083 -0.00102246
O 4.72840343 16.09316353 10.44992282 -0.00306910 0.00308524 -0.00194669
O 2.47017403 4.12901376 0.18113967 -0.00225421 -0.01035338 -0.00173710
O 4.82861186 14.72190841 26.68592267 -0.00064249 0.00547060 -0.00452526
O 7.82933908 8.22197841 8.08985672 0.00091508 0.00871465 0.00193335
O 11.04659857 5.34256213 24.28490529 -0.00455024 -0.00248468 0.00904483
O 9.50311575 13.54352646 13.23784290 0.00732641 -0.01054134 -0.00135383
O 10.57238939 12.03967881 3.93205737 -0.00132913 0.00080100 -0.00491295
O 15.57911223 14.38055596 3.27424685 -0.00130411 0.00342454 -0.00313132
O 14.06095980 7.65592745 11.15989646 -0.00107567 -0.00643189 -0.00738008
O 15.20977845 14.98398553 16.02133083 -0.00227461 0.00507436 -0.00515808
O 16.43834669 29.01361546 16.66184272 0.00319144 -0.00472994 -0.00062058
O 10.21744016 4.49924402 3.59719108 0.00234518 -0.00022847 -0.00124959
O 16.69875611 3.59366745 22.10326770 -0.00694245 -0.00139182 -0.00138425
O 5.15801028 9.13851513 3.69057181 0.00344680 -0.00396372 -0.00212051
O 5.69252021 18.24637020 26.50706200 -0.01617341 -0.00284468 -0.00202681
O 20.41701627 12.07547005 8.55371058 0.00664708 0.00128008 0.00148595
O 18.18448692 2.96909916 10.31407235 -0.00193970 -0.00156030 0.00244707
O 22.22970758 5.98991656 0.85454358 0.01126377 -0.00636956 0.00720934
O 22.01688829 0.13774868 21.77810699 0.00257981 -0.00164810 -0.00783924
O 3.20820896 9.30048904 21.44270399 0.01093957 0.00972022 -0.00074920
O 7.55850981 12.18567829 17.84160809 -0.00241685 0.00175061 -0.00902493
O 4.32976473 3.19231887 1.69143100 -0.00826232 0.00382219 0.00749546
O 4.71278862 21.00615175 20.85298094 0.00275251 0.00080198 -0.00032539
O 12.07772868 28.69103023 14.42782931 0.00612205 -0.00207504 0.00028520
O 4.86547633 23.38826476 20.12000491 0.00301226 -0.00191571 -0.00508835
O 17.21088965 6.77239129 25.92086981 0.00024150 0.00165979 -0.00840693
O 4.34193788 11.97633543 20.83890752 -0.00035297 0.00196793 -0.00440965
O 8.40521326 6.60616989 19.01339424 0.00072682 -0.00024831 0.01084529
O 10.54393185 13.37735862 24.75929080 -0.00449263 -0.00150548 0.00601833
O 11.03721168 13.14926636 19.72983966 0.00030349 0.00882276 0.00127236
O 14.49255100 7.57135436 0.32817719 0.00065900 -0.00435699 0.01036617
O 13.98680015 3.64765457 17.61414579 0.00193403 -0.00260638 -0.00980361
O 8.71025912 25.74473552 15.50832647 -0.00467423 -0.00511500 -0.00033881
O 16.88842156 9.44511919 11.18994594 0.00131717 -0.00783209 0.00266391
O 6.85626918 13.11932042 27.28210375 -0.00834256 0.00888726 -0.00387059
O 12.64900902 14.31102427 10.06184144 -0.00216623 -0.00276262 0.00394247
O 14.41152944 5.15506572 1.61534047 0.00178568 -0.00094977 -0.00095516
O 6.04877365 15.42353138 8.39668168 0.00847802 0.00633937 0.00026090
O 14.47678647 1.84566707 7.21956981 -0.00970865 0.00191266 -0.00004431
O 16.19214761 17.26938144 15.29705709 0.00312979 0.00579428 0.00157676
O 8.34382545 18.13802056 12.93676873 -0.00058941 -0.00447069 0.00408125
O 10.65434344 16.35943614 6.25555132 0.00432390 0.00066749 -0.00218884
O 18.35837431 17.43765073 19.40105579 -0.00476956 -0.01024946 0.00880362
O 7.42537623 10.71207183 8.82879021 0.00340777 -0.00534010 -0.00487694
O 12.55819642 3.82817807 7.74641215 -0.00906078 0.00205644 0.00120154
O 10.25251209 1.87523611 22.26181590 0.01149665 0.00436707 -0.00460125
O 2.95625994 2.13587554 20.45015922 -0.00362581 0.00070541 0.00571453
O 11.82793833 21.37925275 16.93785151 0.00249561 -0.00220951 0.00783332
O 5.82271041 18.27583233 5.79188087 0.00349299 0.00145257 -0.01099392
O 13.42666662 15.70805490 22.40981941 0.01057269 -0.00578375 0.00036528
O 19.98936032 13.79877388 24.60235053 0.00104408 0.00484586 0.00308346
O 21.71203008 6.51188024 12.54228122 -0.00441008 -0.00456502 -0.00313351
O 13.54162577 23.34172416 12.80688615 -0.01063754 -0.00258322 0.00264068
O 8.86615779 28.79816307 27.28325048 -0.00020603 0.00321685 0.00385262
O 9.98071993 0.01298176 18.93200571 0.00549106 -0.00873614 -0.00438132
O 16.86266240 22.53699932 25.61638057 -0.00125549 0.00127210 -0.00350253
O 11.35118303 16.73872372 21.35304470 0.00926244 0.00152307 0.00408340
O 15.61754819 21.95011622 23.52690665 -0.00287460 0.01031315 -0.00157615
O 10.47967673 14.74087947 4.30566444 0.00196842 0.00384072 -0.00197639
O 2.04512446 6.56943545 17.88347060 0.00647982 -0.00260938 0.00896930
O 16.97665797 27.39143329 8.90292525 0.00313728 0.00387573 -0.00086446
O 2.05432927 12.97950274 2.44686124 -0.00224989 0.00009201 0.00838707
O 11.21037679 29.11845595 11.77577509 -0.00062097 0.00167525 0.00218213
O 13.91783599 24.73661935 2.62389129 -0.00549272 0.00210652 -0.00019984
O 9.72790011 16.34883423 15.23984964 0.00046440 -0.00140500 0.00090680
O 7.77091896 21.43562660 4.08678076 -0.00052571 -0.00239008 -0.00905494
O 23.18841071 2.18638542 8.43131277 0.00911219 0.00427710 -0.00356558
O 0.64571060 12.15444408 12.48501707 -0.00820337 0.00451866 -0.00365201
O 7.91517999 2.21535807 26.86720042 -0.00497865 0.01242600 -0.00518789
O 23.09459693 13.17655142 1.09652717 0.00280189 0.00125393 -0.00567160
O 14.71450628 15.41615322 8.17686559 0.00449579 0.00376727 0.00529570
O 6.09621737 16.98111480 3.24387959 0.00274531 0.00076938 -0.00515570
O 21.29866526 6.90176717 6.20206485 0.00704230 -0.00999615 0.00165376
O 17.28220258 5.13476093 5.59728423 0.00348894 -0.00260397 -0.00516980
O 2.51161940 25.07916322 17.30678131 -0.00141879 -0.01206815 -0.00085641
O 0.99659962 8.81196953 17.40628622 0.00999143 -0.00471100 -0.00129433
O 10.45937848 28.30008800 4.83036931 -0.00839501 -0.00652054 -0.00708490
O 18.15890461 11.95689551 25.87254052 -0.00048934 0.00080311 0.00202952
O 19.52237932 5.22609081 18.25686305 0.00341919 0.00919931 -0.00237895
O 1.03730750 16.96831318 27.22645747 0.00335452 0.00265625 0.00223014
O 19.94569757 4.75163375 11.81131654 -0.00100681 0.00434533 -0.00040658
O 0.97134036 15.33490720 21.38367293 -0.00099273 -0.00056561 0.00453670
O 5.39848908 0.04502297 15.88124029 -0.00288126 0.00615849 -0.00220491
O 9.96272295 15.83309876 26.02648995 0.00235551 0.00422190 -0.00910361
O 17.01623424 1.05366610 22.96269814 0.00069731 0.00048761 -0.01177307
O 14.28614317 7.99934101 22.95169942 0.00531846 0.00116120 -0.00431780
O 21.24803102 10.73630215 20.96813382 0.00389841 -0.00143644 -0.00023632
O 0.79456603 1.39500050 21.11337106 -0.00051563 -0.00073935 -0.00108424
O 2.33188448 17.09117373 6.06583822 0.00331931 -0.00675643 -0.00058562
O 22.21355161 9.83759952 26.30555636 0.00137116 0.01410114 -0.00467340
O 19.77768870 1.39116959 13.62338147 -0.00374339 -0.00186306 0.00093243
O 7.78640276 18.53576176 20.44668530 0.00578624 -0.00054185 0.00601469
O 13.05445925 26.43903565 23.40012047 -0.00136547 0.00238584 -0.01432081
O 20.36662355 8.66659083 4.64322798 0.00179857 -0.00156641 -0.00453793
O 19.65905183 16.06333858 12.40172566 0.00027034 -0.01495148 0.00811676
O 22.56211419 7.62479788 25.05821528 0.00474384 -0.00639827 0.00120228
O 1.39631150 22.25022509 9.93972767 -0.00668663 -0.00024989 -0.00115791
O 21.93601377 0.15486693 2.10332693 -0.00558715 -0.00391105 0.00146670
O 14.42820545 17.25297306 6.45637162 -0.00956160 -0.00644479 0.00369562
O 16.17049988 20.83518541 13.87453513 0.00003256 -0.00310164 0.00216193
O 13.33336369 28.28858311 4.65281938 -0.00011386 -0.01024154 0.00112292
O 14.76894237 0.03509844 11.83408096 0.00213656 -0.00035478 0.00199271
O 22.61012837 26.58316487 11.02799402 -0.00424750 -0.00822160 -0.00146737
O 5.24339610 21.82120754 4.30598138 0.00216357 0.00891886 -0.00159174
O 14.11715615 12.18517206 27.19730495 -0.00017442 -0.00290839 0.00569359
O 7.95457138 26.60715224 0.49484927 0.00010856 0.00731235 0.00696932
O 20.28740725 14.08522011 15.41463408 0.00029361 -0.00385699 -0.00791223
O 22.03375785 18.69298827 9.86386404 0.00144863 0.00169811 0.00893524
O 13.74916135 2.25174223 27.77599104 -0.00000331 0.01510704 0.00781348
O 0.16235712 19.60855850 2.58268857 0.00170915 0.00794422 -0.00281276
O 20.41649184 0.24803033 24.93468153 -0.00498377 0.00349269 0.00727763
O 0.85834103 21.72093973 25.72646194 -0.00216319 0.00255266 -0.00085461
O 13.35296462 19.73502203 27.63225183 -0.01124836 -0.00282061 -0.01211581
O 20.31286962 18.34569051 18.01153790 0.00217881 0.00170452 -0.00663758
O 19.91578335 10.20319386 10.43759245 -0.00276993 0.00410612 -0.00005201
O 14.60668335 20.60370348 8.89026425 0.00502428 0.00411496 0.00409379
O 17.46049613 22.26209546 15.77668135 0.00084183 0.00482661 -0.00328820
O 22.56261352 25.47345781 6.14081619 0.00159609 0.00014057 -0.00409708
O 16.18936000 2.97767468 1.02459009 0.01218610 -0.00008809 -0.01211952
O 1.68599932 22.69881819 12.39641189 -0.01067338 0.00356083 0.00896967
O 16.01648525 4.96433638 17.10179494 -0.00453774 -0.00555052 0.00361904
O 21.80026554 23.12456828 14.19460470 -0.00325858 0.00223552 0.00058069
O 16.42277222 23.13464074 4.82653411 -0.00652804 0.00570734 0.00536849
O 10.95348691 25.87726831 4.48494400 -0.00381949 -0.00293536 0.00241059
O 13.23743316 24.31595673 21.90407936 -0.00227228 -0.00588051 0.00852600
O 19.82477011 24.81540768 14.25926093 0.00131828 0.00208022 -0.00317421
O 16.73979417 22.02320073 9.52715704 -0.00397758 -0.00023143 -0.00346102
O 4.41606611 28.39786083 11.56314358 0.00012068 0.00097084 -0.00054996
O 18.56985443 10.70270405 18.29435064 0.00855068 -0.00103785 -0.00991829
O 11.58585314 21.11648957 0.76999367 0.00535150 -0.00374279 -0.00257518
N 10.69880850 22.17403678 10.61581697 -0.00196628 0.00338851 0.00107037
N 5.26437656 6.32198616 12.96666839 -0.00362520 -0.00283107 -0.00244286
N 8.11995084 0.62527905 6.31528290 -0.00707583 0.01595657 -0.00229344
N 1.30118722 7.49061127 10.05147864 -0.01297839 0.00465607 0.00151798
N 22.84402113 28.93881645 15.11984447 -0.00160811 -0.00778688 -0.00459349
N 0.94155198 18.93362039 20.05692593 -0.01049261 -0.00898608 0.00107237
N 4.31953244 26.82599057 22.99007739 0.00043437 -0.00132742 -0.00162672
N 2.85499241 4.07558464 6.26011364 0.00358377 -0.00342162 0.00687483
N 21.38171385 23.49090055 19.73824252 0.00368081 -0.00272436 0.00335907
N 5.83222538 8.66031593 27.72742304 0.00098075 -0.00431301 0.00446811
N 11.40102947 25.01875535 16.86941931 -0.00387283 0.00514209 0.00781685
N 11.19550968 7.88595155 19.68606215 0.00134378 -0.00620843 -0.00102894
N 6.60498689 7.04437600 23.94386756 -0.00008568 0.00233393 0.00827341
N 5.42676136 10.08897812 15.30178381 0.00921534 -0.00067454 -0.00174641
N 5.57641366 16.01441131 12.54490960 -0.00737076 0.01473029 -0.01059696
N 13.33800391 11.49475318 8.13675740 0.00413935 -0.00182744 -0.00725035
N 14.64782967 3.86697412 14.42965498 -0.00208860 0.00216437 -0.00122213
N 3.65925714 25.81870695 7.18562988 -0.00235447 -0.00623742 0.00016999
N 17.20611514 20.57654937 0.52970628 -0.00241672 0.00498086 -0.00135055
N 3.08236963 17.72963134 15.26243963 -0.00883944 -0.00101253 -0.00878216
N 23.30355277 14.73817776 10.37737946 -0.00407630 0.00838395 -0.00280857
N 19.28135948 28.25819124 4.30507788 0.00120600 0.00078009 -0.00417459
N 8.15532857 22.24086469 14.03708832 -0.00885066 -0.00286273 0.00555146
N 2.57127107 1.85379802 0.24900000 -0.00249653 0.00866859 0.00595918
N 7.34129989 3.28104283 13.75161608 -0.00280820 0.00429660 -0.00991797
N 1.72266631 27.82456688 1.99518873 0.00046232 0.00113841 0.00277398
N 2.03998991 11.20795004 26.12720373 -0.00806678 0.00420733 0.00199429
N 3.66324370 25.87711152 27.47014348 -0.00543738 0.00315034 -0.00591410
N 19.39662910 14.90791172 3.47372618 0.01027693 -0.00376291 0.01805771
N 0.44917592 26.30413887 21.09142409 -0.00388750 0.01038422 -0.00639548
N 8.88137270 24.43088197 23.66706098 -0.00072160 0.00157455 0.00233473
N 18.95590774 27.50953940 20.41582202 0.00182530 0.00397760 -0.00608409
N 11.37575320 14.89981655 2.21326923 0.00458753 0.00058394 -0.00573068
N 10.94989729 6.65107652 3.68263284 0.00829014 0.00239446 0.00352805
N 12.90669391 6.05970135 6.92938273 0.00185980 0.00729174 -0.00111711
N 12.61939900 12.78922152 18.05147048 -0.00768044 -0.00485892 -0.00656291
N 10.41819841 28.94702230 9.59120125 0.00192134 0.00352948 -0.00332092
N 19.20180225 13.49906633 7.29004958 0.00013991 -0.00328311 0.00499966
N 7.37307525 18.01751225 7.44737314 0.00456087 -0.00161515 -0.00023545
N 17.01846580 11.10344871 12.67695813 0.01092918 0.00266477 -0.00226522
N 17.75625356 17.96129546 21.57460382 -0.00066320 -0.00050232 0.00573177
N 6.61017836 5.39133795 19.93861494 0.00090129 -0.00546179 0.00018001
N 14.75844321 27.78986679 9.58381335 0.00978436 -0.00683868 0.00428118
N 6.95993707 8.08957074 2.65445212 0.00102512 -0.00953229 -0.00417494
N 4.64437179 1.77120379 18.96792493 0.00326983 -0.00382217 0.00169849
N 12.07722647 3.49611137 16.52443757 -0.00310748 0.00924971 -0.00111565
N 11.84032701 15.99521649 15.90341757 0.00042287 -0.00166241 -0.01086870
N 20.79770207 6.87798051 2.30028483 0.00068296 -0.00056760 -0.00089682
N 3.61803679 14.10603377 21.33554023 -0.00396979 0.00412790 -0.00123749
N 8.21543930 12.31919335 7.46473054 -0.00650116 -0.00314010 -0.00551358
N 16.61934254 4.82599413 24.01359335 -0.00559713 -0.00675179 -0.00296034
N 3.92988711 13.72114875 3.50748859 0.00174918 -0.00473710 0.00807678
N 15.03828887 9.69909362 1.19870130 -0.00276456 -0.00706572 -0.00651941
N 12.83372872 20.06846630 18.55231770 -0.00318085 -0.00447145 -0.00351887
N 17.20624628 3.98641583 8.47512135 -0.00421704 -0.00064561 0.00494775
N 8.71685101 21.56199890 6.11597959 0.01072008 -0.00957714 0.00404416
N 17.60740362 29.84665099 18.22864606 -0.00698039 -0.00510750 0.00249376
N 23.22668492 5.86184111 17.81333406 -0.00490125 0.00795036 -0.00685075
N 9.50517512 12.27840126 22.99215827 0.00492036 -0.00686053 0.00218182
N 10.84400063 30.03028471 22.13936913 0.00436998 -0.00753498 -0.00683305
N 7.40306192 19.42048774 25.47442340 0.00438087 -0.00808399 -0.00735567
N 15.69370440 25.91936857 1.82204160 0.00435506 0.00270088 0.00184406
N 7.79260692 27.12154891 17.09400792 0.00299795 -0.00507161 0.00385937
N 15.39480222 16.39478544 23.26499981 -0.00623308 -0.00453553 0.00182881
N 17.85701486 21.41235992 4.90481503 0.00618143 0.00090290 -0.00112207
N 22.87769083 10.48308111 17.72121378 0.00423544 0.00005382 -0.00193197
N 13.44616480 0.03415064 27.32267862 -0.00244447 -0.00883566 0.00133592
N 19.13775068 9.52098308 2.87268509 -0.00003738 0.00479649 -0.00512635
N 18.62023101 22.85060892 10.19249545 0.00516159 -0.00135960 -0.00127208
N 0.81053525 16.99808446 1.54835028 -0.00111407 0.00036370 -0.00076923
N 14.21542879 17.71725366 26.98418290 -0.00501590 0.00092284 -0.00225618
N 20.01409487 1.28943737 2.68762161 -0.00480530 -0.00589594 0.00246503
N 19.86612431 11.91411922 15.58588939 0.00137305 0.00049908 0.00567841
N 6.52631196 17.53713522 22.05736328 0.00945367 -0.00621171 -0.00411787
N 14.01300093 23.37147577 20.04099995 0.00851069 -0.00282224 0.00187300
N 16.25994461 12.75751198 24.91300363 -0.00317451 0.00007145 0.00435023
N 21.01517401 1.89253153 26.46973245 -0.00122591 -0.00470261 -0.00628602
N 23.06518112 6.26358283 23.41848685 0.00019670 -0.00480375 0.00166872
N 17.45357546 9.49737085 19.89464091 0.00579017 -0.01193724 -0.00155566
N 0.27680610 14.18814615 23.15701744 -0.00370510 -0.00280211 0.00220424
N 21.67603598 2.62888747 13.62203384 -0.00177043 0.00653382 0.00958210
N 20.09597942 19.15449964 10.51158870 0.00262905 -0.00414983 -0.00380852
N 10.06475139 30.08305785 3.47532010 -0.00113093 0.00510155 0.00186468
N 18.78566032 26.69945104 13.53887107 -0.00320662 -0.00491448 -0.00823163
N 17.61960545 17.02572146 12.63269633 -0.01023281 0.00054099 0.00620352
N 2.56918114 21.48307752 27.20057199 -0.00084116 0.00166298 0.00099875
N 18.54440675 6.29546566 10.84762798 -0.00517818 0.00381413 -0.01128562
N 9.92237291 21.63103779 2.35062243 -0.00608121 0.00320507 -0.00008441
N 4.47337735 25.07373292 16.32483891 0.00754984 -0.00158476 -0.00038812
N 12.18699117 24.00867366 5.21897865 -0.00762455 -0.00236967 0.00311503
N 14.70729526 26.68252613 24.96943945 0.00233102 0.00375855 0.00798041
N 22.36182481 20.11555367 4.44605310 -0.00552800 0.01248401 -0.00541612
N 18.78534533 5.79562936 20.36527722 0.00158384 0.00647929 0.00158833
N 2.95280497 28.04558522 13.34379146 0.00169440 0.00453776 -0.00197691
N 1.39307802 22.25196581 7.66343819 0.00351149 -0.00331440 0.00213149
N 21.97871754 18.16992080 16.54279163 0.00694839 0.00011630 -0.00277691
C 12.50284977 3.89444072 13.19730233 -0.00500590 0.00519417 0.00359331
C 7.25691352 6.51892627 11.70693237 0.00369096 -0.00236489 0.00665986
C 19.20014846 19.82493619 27.13655483 -0.00010559 -0.01039462 -0.00472940
C 3.44057182 7.69947976 9.03217250 -0.00091388 -0.00215212 0.00277510
C 2.00302602 13.56645553 9.69755574 -0.00089757 0.00741056 0.00327975
C 1.30834196 18.33919837 22.49497601 0.00494259 -0.00294254 -0.00899167
C 9.13152838 20.27979820 15.12731543 -0.00676474 -0.00563800 0.00326392
C 5.02659984 3.28040447 5.24569634 -0.00001746 -0.00621158 0.00159259
C 11.56819773 4.69995905 12.58561562 0.00184045 0.00011356 0.00332261
C 8.00161311 6.24353570 10.56477270 -0.00095064 -0.00632643 -0.00299671
C 20.47901907 20.17608309 26.53002546 0.00229298 0.00162225 -0.00811257
C 4.28707291 7.66788340 7.83267244 -0.00989875 0.00319167 0.00263855
C 2.46314125 12.41537822 9.06640044 0.00129051 0.00195703 0.00629110
C 0.89042471 17.93277674 23.68122370 0.00508293 0.00188948 -0.00391927
C 9.17273817 19.29659591 16.08114183 -0.00059821 -0.00914902 0.00575508
C 5.83280089 2.21272372 4.75654654 0.00418496 -0.00362306 -0.00046237
C 11.41318903 6.07193619 13.00336204 0.00079789 -0.00391011 -0.00684788
C 7.54598323 5.25987393 9.65526983 -0.00649896 -0.00401129 -0.00002233
C 20.90335236 21.50341947 26.62922857 -0.01003366 0.00824541 -0.00736578
C 3.66274597 7.59255847 6.61834608 -0.00257782 0.00567617 -0.00568944
C 1.58827451 11.62374164 8.38453664 -0.00565646 -0.00005334 0.00210282
C 23.01919180 17.38403660 23.75733127 0.00140958 0.00604960 -0.00047389
C 8.17001014 19.34770855 17.05989746 0.00395615 0.00056633 -0.00234308
C 5.41038882 0.82082646 4.78882978 0.00369834 0.00773358 -0.00407385
C 12.18799982 6.46644942 14.06534855 -0.00140539 -0.00036207 -0.00441591
C 6.38552625 4.53282057 9.96421773 -0.00149757 -0.01156067 -0.00972274
C 20.26938866 22.35814186 27.53593368 0.00234015 -0.00420021 -0.00608464
C 2.20385814 7.46411360 6.53865349 0.00033330 0.00318547 0.00233114
C 0.19775246 11.88500270 8.14470548 0.00247377 -0.00817242 0.00108257
C 22.25786917 17.20050724 22.51501552 0.00294570 0.00663621 0.00822012
C 7.19595144 20.37958095 17.08229453 -0.00026600 0.00496837 -0.00286410
C 4.28126142 0.60282269 5.52827278 -0.00413221 0.00011776 -0.00217552
C 13.20652557 5.72900908 14.55963428 0.00310803 0.00544821 0.00666317
C 5.66371349 4.86492756 11.03840843 -0.00300686 -0.00380431 -0.00083709
C 18.98648306 22.02059837 0.22203882 0.00000575 -0.00001982 -0.00484053
C 1.50364892 7.29390083 7.68351248 0.00352813 0.00633169 0.00287092
C 23.25635652 13.17135334 8.59912628 -0.00011208 -0.00666113 -0.00540208
C 22.62899368 17.81842333 21.34947722 -0.00346435 -0.00315240 0.00172333
C 7.23016104 21.40107042 16.21033281 -0.00366639 0.00551206 0.00513831
C 3.31902549 1.61028793 5.84717043 0.01845810 0.00349386 -0.00375260
C 13.46996311 4.46843099 14.06650682 0.00878317 0.00221841 0.00072806
C 6.09418310 5.90015720 11.93685533 -0.00415064 -0.00482141 0.00409490
C 18.46010165 20.75101456 0.00009059 0.00781038 -0.00548128 -0.00885205
C 2.07263398 7.55043305 8.91011493 -0.00054157 0.01265619 -0.00851569
C 0.58003066 13.78762387 9.59913027 0.00154662 -0.00294603 0.00058572
C 0.52834152 18.39171430 21.26780609 -0.00505805 -0.00280392 0.00145849
C 8.21672020 21.33522702 15.06024046 -0.00241870 0.00294033 0.00636099
C 3.73603903 2.96211265 5.79241664 0.00444475 0.00464615 0.00017978
C 15.20137808 2.86365838 13.73346231 -0.00159905 -0.00343945 -0.00611743
C 3.93959806 6.14846626 13.21820373 -0.00202673 -0.00390636 0.00103539
C 16.77274349 19.33811138 0.77038304 -0.00349958 0.00961702 0.00130557
C 0.28260861 8.22730198 10.51070071 0.00427630 0.00615913 -0.00699691
C 0.33281906 15.16289036 11.61665623 0.00275961 -0.00447619 0.00663464
C 2.21191576 19.28530890 19.82128142 0.00400119 0.00635266 -0.00191408
C 7.36014069 23.36724120 13.97794885 -0.00759433 -0.00768132 0.00328732
C 2.11060407 3.92433447 7.36439958 0.00946329 -0.00997497 0.00326662
C 22.97982855 23.51594978 17.92414784 -0.00744405 0.00607852 0.00818761
C 3.44694679 7.00681976 14.31532718 -0.00018105 -0.00364763 0.00139793
C 9.68758248 2.55203634 6.05137175 -0.00841349 0.00272967 0.00327554
C 10.83501458 8.01883267 22.08661225 -0.00898058 -0.00264444 -0.00669017
C 6.64368148 9.49262001 24.25926006 0.00250354 0.00082258 -0.00388582
C 2.37119575 20.25357385 18.67813461 0.00448456 -0.01517269 0.00293392
C 3.10771432 28.79592710 22.87619951 -0.00047752 0.01019294 -0.00097870
C 15.70511379 11.79816094 8.93341644 0.00714028 0.00112932 0.00552923
C 7.20598001 5.10413065 15.23237504 -0.00143064 -0.00228335 -0.00142697
C 6.13758246 6.40203109 26.86659298 0.00289782 0.00113062 0.00178678
C 2.46458261 9.22782425 24.85156567 -0.00445494 -0.00132667 -0.00377287
C 12.97643751 8.78363565 18.21656599 0.00595289 0.00113992 0.00723870
C 21.76710793 14.72066507 3.89696310 -0.00918932 -0.00375669 0.00404378
C 6.60667775 9.90113016 13.21424180 0.00961491 0.00029147 0.00436046
C 10.40400466 22.74648854 22.91532523 0.00090068 0.00075652 -0.01521265
C 13.22802094 11.30527865 10.52836002 0.00240917 0.00554215 0.00682923
C 6.56664014 5.80197724 16.22340564 -0.00480144 0.00016382 0.00209035
C 6.93208690 5.38574030 26.64248013 0.00104669 -0.00304597 -0.00257125
C 2.53245627 7.81378132 24.82094311 0.00448955 -0.00110188 -0.00197671
C 13.29799049 9.20962995 16.93996537 0.00265744 0.00351980 0.00107365
C 22.79784229 14.85680657 4.82423938 -0.01093625 0.00070804 0.00436911
C 6.48442201 10.06085758 11.84706860 0.00722359 0.00595945 0.00700638
C 11.29764825 21.71700792 23.16511622 0.00327305 0.00495056 0.00739354
C 12.62352119 10.76022436 11.60198871 0.00639577 0.01172334 0.00833254
C 5.13732284 5.44838126 16.52637888 -0.00257103 -0.00033693 -0.00342742
C 8.30519226 5.47923237 26.19179605 0.00181077 -0.00698038 -0.00036301
C 2.21428769 7.10450915 25.97408068 0.00376490 0.00639685 -0.00665002
C 12.36637118 9.32918927 15.83624820 0.00944477 0.00227238 -0.00525569
C 22.71712725 15.77846392 5.96825783 -0.00415550 -0.00430753 0.00164471
C 5.25026499 10.14653704 11.08854595 0.00314081 0.00435889 -0.00063931
C 11.43113954 21.17336068 24.51080794 0.00615415 0.00591931 -0.00255675
C 11.69810874 9.68719059 11.54596681 0.00439842 -0.00545668 -0.00277256
C 4.55049812 4.40442031 15.82651534 -0.00247202 -0.00533737 0.02058453
C 8.73188979 6.80179566 26.34720582 -0.00317015 -0.00062861 -0.00520608
C 1.53202730 7.74537270 27.12099777 -0.00200207 0.00691281 0.01037336
C 11.00715532 8.92189812 16.13253914 -0.00382369 0.01136721 0.00065478
C 21.58920783 16.67552935 5.99644845 -0.00313874 -0.00781939 0.00471164
C 4.05837315 10.23864556 11.90253384 -0.00231617 -0.00561927 -0.00026543
C 10.63969050 21.67379538 25.47555154 0.00321285 0.00972237 -0.00884370
C 11.22822597 9.26501046 10.26379766 -0.00609603 0.00242559 0.00057889
C 5.18478769 3.79958126 14.85583689 -0.00452881 0.00043343 -0.00470333
C 7.94623380 7.91800308 26.76841943 0.00629905 0.00064772 0.00747702
C 1.42418928 9.09224053 27.09371813 0.00371829 -0.00476353 -0.00880474
C 10.67660159 8.44888493 17.37080802 -0.00337365 0.00426205 0.00590960
C 20.48580600 16.31401549 5.20232123 -0.00403232 0.01037954 -0.00103439
C 4.17469075 10.02691671 13.25374973 -0.00153399 -0.01299180 0.00332904
C 9.81087643 22.78802483 25.23898932 0.00382006 0.01481957 0.00531370
C 11.97985036 9.73711588 9.18192360 0.00000113 0.00670722 -0.00147267
C 6.61514056 4.06147161 14.58534997 -0.00315608 -0.00680204 0.00175348
C 6.63066629 7.70082080 27.20943274 0.01154298 0.00265660 0.00155559
C 2.06517430 9.82569484 26.07289429 -0.00279105 0.00659370 0.00311304
C 11.59638386 8.47270352 18.51203043 -0.01142726 0.00412842 -0.00070696
C 20.52944791 15.40985714 4.11525796 -0.00011660 -0.00077090 0.00191119
C 5.38908469 9.94659446 13.96234520 0.00040407 -0.00490656 0.00297117
C 9.69263195 23.32700927 24.00674747 -0.00105977 0.00227860 0.00889601
C 12.89601422 10.83194676 9.25462885 -0.00648241 -0.00252215 0.00804724
C 7.36675261 1.91794450 13.88025548 -0.00391418 -0.00358272 0.00715982
C 6.10269846 9.95560002 27.71046978 0.00557724 0.00564608 -0.00231157
C 2.14435273 11.90470295 27.30657361 -0.00136735 0.00259044 0.00873796
C 11.83186161 8.01098934 20.85475543 -0.00980921 0.00462819 0.00656137
C 18.59716437 15.67918466 2.68755242 0.00262761 -0.00180152 -0.00244021
C 4.44816534 9.87880965 16.12577876 0.00562743 -0.00124886 -0.00620289
C 8.49631004 24.75376227 22.35952683 -0.00322413 0.00037855 0.00465636
C 14.53566078 12.11286008 8.00026064 0.00593605 0.00128045 -0.01264636
C 12.06892555 20.64823858 11.75339912 0.00015978 -0.00085755 -0.00853157
C 4.99252181 10.80168476 0.08663107 0.00095480 -0.00644161 0.00181006
C 10.76724015 23.55801494 14.99867867 -0.00311136 0.00207106 0.01123120
C 23.02035806 9.14523460 9.66878943 0.00973607 -0.00271537 -0.00028242
C 21.54922525 26.89639425 15.07421986 0.00004730 0.00178926 0.00499349
C 4.76406775 9.68248594 17.60338474 0.00642506 -0.00742352 -0.00295615