1920
Time=19999.99999999 pbc="T T T" Lattice="23.04209055 0.00000000 0.00000000 0.00000000 31.38899673 0.00000000 0.00000000 0.00000000 27.79287828" energy=-12191.31924486 virial="-113.80449761 26.05958780 -19.02490473 26.05958780 -56.35388690 24.46723972 -19.02490473 24.46723972 -81.45840366" stress="-0.00184338 0.00121166 -0.00083228 0.00121166 0.00079002 0.00140574 -0.00083228 0.00140574 -0.00045117" Properties=species:S:1:pos:R:3:vel:R:3
O 9.71702977 6.56993574 12.58716582 -0.00577312 0.00127587 0.00289805
O 7.91023210 4.66784050 8.45940407 -0.00737278 0.00468393 -0.00301980
O 22.24760640 21.28458172 23.62535689 0.00268675 -0.00889962 -0.00404750
O 3.87918956 5.77371161 5.30267713 0.00351153 0.00421909 0.00314477
O 0.50509648 11.26482099 6.25845727 0.00760653 0.00522342 0.00458489
O 22.83363867 16.94759887 24.21886791 0.00858676 -0.00132221 -0.00027602
O 6.91037399 18.98776584 17.00855379 0.00291238 0.00199723 0.00513602
O 5.21568471 30.29147970 3.60252342 0.00020058 -0.00266643 0.00351261
O 6.94136841 1.24120634 14.23479983 -0.00818847 0.00567734 0.00248424
O 2.95028669 5.28940754 12.29861418 0.00003821 -0.00152879 0.00281812
O 17.44149200 19.67339021 27.39362986 -0.00280022 -0.00176381 0.01402135
O 12.70265233 7.89640542 20.53947710 0.00161957 -0.00483435 0.00134068
O 17.23139775 14.88046682 2.61885343 0.00498228 0.00820860 -0.00351254
O 2.21138461 21.81458490 20.62960930 0.00869918 -0.00092969 0.01492540
O 6.23854697 25.01819714 15.90885826 -0.00239821 0.00099571 0.00383172
O 13.66076565 13.06072580 7.84711860 -0.00079249 -0.00675753 -0.00618361
O 3.90914667 5.77396877 17.39239422 -0.00055514 0.00270588 -0.00119112
O 9.62490662 5.63782784 26.14583893 -0.00744434 0.00426603 -0.00531630
O 2.77784423 6.67567954 26.32745593 0.00338566 0.00255850 0.00415189
O 11.41299576 9.64006278 14.70301750 0.00318719 0.00236422 0.00267149
O 22.69396668 18.34211320 6.30898861 -0.00437167 -0.00532072 0.00186740
O 4.22488706 10.88202220 9.93076677 -0.00802301 -0.00138839 0.00805240
O 12.27588566 21.21028480 24.73544974 -0.00478430 -0.00050862 -0.00252418
O 9.74780370 9.14578559 12.76147288 0.00343272 -0.00427693 0.00547248
O 14.23694490 2.15921613 12.52015734 0.00444842 -0.00536438 -0.00042652
O 7.22730139 11.45517018 27.79057048 0.00247203 0.00137826 0.00552397
O 0.10582935 12.54205109 26.75152028 0.00501676 -0.01143422 -0.00812761
O 0.02711794 8.13666592 9.85470873 0.00303537 -0.00067556 -0.00909627
O 21.84254331 15.27608081 12.01710406 -0.00198144 0.00857792 0.00249645
O 2.89243581 9.59196147 15.47242893 -0.00008790 0.00372064 -0.00977055
O 8.39101828 25.23978696 21.73980525 0.01063897 -0.00654130 -0.00654676
O 0.33960698 3.41118817 7.52201474 0.00255308 -0.00157537 -0.00101769
O 6.16621081 25.53925583 9.06336147 -0.00345591 0.00404880 -0.00121198
O 22.66964982 29.97829488 8.43482745 0.00091845 0.00404475 -0.00401113
O 6.20791283 28.34034627 8.82955103 0.00128419 0.00054961 -0.00032660
O 3.43532387 21.50726205 11.69294953 0.00234077 -0.00365990 -0.00667326
O 3.13112862 2.56200780 12.26911161 -0.00786672 0.00581439 -0.00422724
O 18.90329809 29.55706506 26.46106210 -0.00382388 0.00390719 -0.00295843
O 6.83768332 23.55776983 25.65123616 -0.00044761 0.00268181 -0.00221040
O 6.05724362 0.68140948 27.63746577 -0.00171246 -0.00188240 -0.00252872
O 22.62173754 22.61797468 18.16869843 -0.00651822 -0.00326527 0.00349625
O 2.81246835 24.36143567 7.27644222 0.00551798 0.00503721 0.00471090
O 6.45723137 3.04501014 7.38709492 -0.00015493 0.00492945 0.00645791
O 4.28909586 23.60636435 26.98360297 0.00493823 -0.00420231 0.00677170
O 8.16592874 8.51229532 23.40613771 -0.00638742 -0.00331227 -0.00534395
O 21.11435598 27.96391864 4.30170691 0.00973266 -0.00031836 0.00156947
O 6.42628377 29.65683080 26.52323575 0.00655698 0.00357793 0.00004403
O 16.90324371 27.65781065 20.42260300 -0.00428590 -0.00481520 -0.00360211
O 18.57440075 21.47330922 23.37408188 0.00390377 -0.00551991 0.00592747
O 22.06039712 25.88943091 25.65407432 -0.00703477 -0.00091054 -0.00058587
O 14.35010567 28.19989302 20.24033481 -0.00370128 0.00153902 -0.00457306
O 4.85147849 27.86286115 3.97039727 0.00586829 -0.00713892 0.00011990
O 7.28851151 2.16472159 23.28970183 -0.00368675 -0.00120834 -0.00312411
O 0.80775599 23.09222858 22.47767683 -0.00258666 0.00887932 0.01368119
O 5.32718161 14.53710522 17.16268319 0.00371522 -0.00475702 0.00501236
O 20.72890277 28.11149176 25.11048080 0.00083748 -0.00200526 0.00035424
O 9.83446674 21.00364555 12.12348392 0.00700911 -0.00176295 0.00156664
O 1.85930261 29.74709084 2.06028889 -0.00655967 -0.00608822 0.00284542
O 12.60203428 25.12956860 15.20496441 0.00148045 0.00106814 -0.00432586
O 0.04204866 17.40484645 14.98385621 -0.00202934 0.00599378 -0.00415088
O 21.59625371 30.99690418 15.56609570 -0.00135487 -0.00755795 0.00570503
O 1.52147405 29.21687314 20.69955000 0.00333057 0.00005264 -0.00526691
O 4.72453851 16.57707461 9.62805692 0.00451366 -0.00396943 0.00251196
O 1.70622372 5.44782383 0.47604441 0.00024321 0.00396467 0.00085317
O 5.90218148 15.88097367 25.06129148 -0.00191778 -0.00038767 -0.00909369
O 8.40166411 8.57030912 8.06370253 0.00199367 0.00012718 0.00087040
O 11.85885928 6.68537505 26.10127912 0.00260745 -0.00431182 -0.00131485
O 8.56130070 14.34010287 12.69547015 0.00353167 -0.00934613 0.00137826
O 9.50312860 13.42578061 3.32980398 -0.00096727 0.00394820 -0.00464692
O 15.43181346 16.22353650 5.53771151 0.00267371 -0.00126006 -0.01034725
O 14.23299547 7.35140692 10.68460769 0.00333695 0.00940920 0.00283049
O 16.30393881 15.50104591 16.46152964 -0.00287114 0.00094806 0.00251468
O 16.25994276 30.86557036 16.34594476 -0.00245786 -0.00610946 0.00065968
O 11.44779397 5.45826280 3.27408395 0.00522891 -0.00242609 0.00969742
O 15.85236079 3.32890876 22.27949558 0.00344818 0.00086594 -0.00062237
O 5.24081811 11.09675512 2.92379795 -0.00171353 0.00343506 0.00078423
O 6.04213410 18.34389551 24.87007708 -0.00831625 -0.00070878 0.00104805
O 19.05283129 11.26537111 7.74110715 -0.00122862 0.00451952 0.00186501
O 16.07047525 2.20878939 5.83590842 0.01039595 -0.00094148 -0.00127509
O 22.66851989 8.38505330 1.90919529 -0.00539405 0.00431635 -0.00610401
O 20.88691838 0.49553814 22.28881368 -0.00758119 -0.00539289 0.00087036
O 2.54582802 8.95442733 20.68117474 0.00081191 -0.00738878 0.00197057
O 6.73215724 12.47266880 18.04827849 -0.00093351 -0.00833534 -0.00818337
O 3.75831837 4.89288029 2.23231531 0.00529817 -0.00489874 -0.00797307
O 4.56645829 22.70267235 20.71769389 -0.00281611 0.00019386 0.00219123
O 11.94850959 29.91939787 14.85691160 -0.00116440 -0.00105317 0.00421344
O 4.32416809 25.26935575 20.91079050 0.00240597 0.00140575 0.00780036
O 16.97631222 8.63591967 26.72845022 -0.00197391 -0.00091404 0.00537370
O 4.26474703 11.50924972 20.55049260 0.00646005 -0.00432004 -0.00903852
O 8.38847619 6.24463279 20.60098662 -0.00709969 0.00077684 -0.00364419
O 10.98332285 13.41155028 24.56842542 0.00160801 -0.00062452 -0.00069194
O 10.49885691 11.42476946 18.08914952 -0.00386618 -0.00694372 0.00312639
O 14.66018036 8.84877557 0.63441669 0.00147750 -0.00220609 -0.00471703
O 13.44223683 3.68954863 18.40461427 -0.00295043 -0.00593515 -0.00581705
O 8.84326091 26.92116138 16.83151840 0.00010069 0.00238389 -0.00111960
O 16.12332410 9.60794359 14.69200359 0.00175986 0.00700440 -0.01044349
O 6.27935799 13.94403131 26.73841352 -0.01125861 0.00626781 -0.00455596
O 10.39528977 14.23152795 10.73587593 0.00174950 0.00672900 -0.00029617
O 16.50007777 5.76462245 2.44617353 0.00250979 -0.00132779 0.00230682
O 5.91204181 15.34725918 7.70385435 0.00390378 -0.00097224 0.00283225
O 14.78668698 0.82452868 7.71828851 0.00255339 0.00123001 0.00263606
O 16.29486433 17.88348715 15.25121443 0.00146617 0.00154578 -0.00364267
O 7.05139088 17.91229268 12.80070619 0.00170407 -0.00497610 0.00132033
O 10.80125951 17.21525772 5.98901248 -0.00003093 -0.00002836 -0.00734749
O 17.87673880 18.72389275 19.47214779 0.00753536 0.01302174 -0.00332607
O 6.10117460 10.33235016 8.23974555 0.00066245 -0.00326338 0.00495153
O 12.14212855 2.97521728 6.27446983 0.00389241 -0.00486474 -0.00397805
O 9.83232930 1.85795779 22.70781582 -0.01230540 0.00605293 0.00125103
O 4.80837634 1.92792347 20.72917055 -0.00923218 -0.00882041 -0.00693073
O 10.73904810 19.88613180 17.13382597 -0.00199304 -0.00116837 0.00111360
O 6.15823038 18.49549841 5.23232554 -0.00599291 -0.00279667 0.00442563
O 13.60507682 17.08697040 20.96491745 0.00451833 -0.00025195 0.00730930
O 18.85731343 13.30852191 22.86662080 -0.00810518 0.00420335 -0.00035652
O 21.44021576 6.51527538 11.11113856 -0.00344789 0.00718208 -0.00010225
O 13.59041902 24.18750655 12.93959495 -0.00537198 -0.00202432 0.00088419
O 8.88375357 29.63619033 27.41256702 -0.00272724 -0.00602889 -0.00836075
O 10.32935313 30.38972293 20.15118663 0.00557634 0.00621689 0.00852150
O 17.19108704 23.16342771 25.41046374 0.00369580 -0.00589431 -0.00213781
O 11.18024975 16.58724684 20.30625239 -0.00355494 0.00750422 -0.00587405
O 14.83136448 22.06948601 24.90187837 -0.00624904 -0.00652076 0.00075462
O 9.98285688 16.22359607 3.40203177 -0.00368510 0.00194698 0.00112006
O 1.18754835 5.69787235 16.75043547 -0.00455584 0.00031903 -0.00425922
O 15.21791869 27.03934892 7.35640850 -0.00155433 -0.00353617 0.00016045
O 1.17634744 14.15451753 3.23905611 0.00495977 0.00210726 0.00730730
O 10.81632487 29.89895168 12.22801723 -0.00734188 -0.00359284 0.00280106
O 15.02212396 25.98209390 2.84125717 -0.00289035 0.00476881 0.00342943
O 9.17672847 17.08646619 14.22360902 -0.00461818 0.00444900 -0.00188712
O 8.26443216 22.95676995 4.68302422 -0.00060255 -0.00387003 -0.00601053
O 22.21067785 1.17233888 8.50431129 0.00533303 -0.00240174 -0.00581991
O 21.47353556 12.64021453 12.42251723 0.00375858 -0.00322936 0.00436244
O 8.74489697 3.59692277 27.10047791 -0.00218829 0.00607004 0.00772701
O 22.68181667 13.57779666 1.29787084 -0.00312961 -0.00138913 0.00123792
O 12.57541340 15.35432998 9.21028106 -0.00574360 0.00478607 -0.00559440
O 6.04095044 18.65544515 2.61094186 -0.00202859 -0.00616686 -0.00387272
O 22.08059122 5.61649119 6.82550255 0.00813384 -0.00403360 -0.00282517
O 18.28660764 5.23662390 4.50679636 -0.00342013 0.00647206 -0.00253316
O 2.01353958 26.67093513 17.30683584 -0.00949681 -0.00291796 -0.00726289
O 0.59893416 8.19566482 16.55955799 -0.00274400 0.00459094 -0.00104766
O 10.42871742 30.59822710 5.06588426 0.00301905 0.01247931 -0.00208063
O 18.40368830 12.53968457 25.33613247 0.00290700 -0.01058841 0.00124932
O 19.37245982 6.47277071 17.94667529 -0.00925254 -0.00178624 0.00626166
O 1.05035067 17.33973722 26.48675208 -0.00157017 -0.00094947 0.00689434
O 18.29291671 3.82063014 11.48597012 0.00105874 0.00400662 -0.00233859
O 0.77119100 15.31031262 20.43295063 -0.00604443 -0.00003025 0.00258892
O 4.66441846 0.82967077 15.66072366 -0.00503323 -0.00031728 0.00672519
O 10.99956255 18.99479298 24.55326575 0.00219591 -0.00344983 -0.01105977
O 14.63737279 1.13368593 22.20514504 -0.00789783 -0.00803188 0.00532907
O 14.56827060 8.18318775 22.33916618 -0.00859208 0.00863903 0.00036373
O 19.30512646 12.04237133 20.65252746 -0.00207160 -0.00497332 0.00533024
O 3.12066529 2.83973392 22.75597517 0.00230031 0.00064027 -0.00308415
O 2.58974938 16.98510227 6.22558096 0.00488180 -0.00018763 -0.00217734
O 21.22849605 9.65569025 24.77511966 -0.00147490 -0.00216082 -0.00284182
O 18.62711430 0.81440224 13.91147714 0.00738085 0.00493551 -0.00356254
O 7.16466837 18.58733424 19.47228754 0.00271807 0.00220440 -0.00577562
O 13.30239808 26.58765964 23.93749236 -0.00152088 -0.00248188 -0.00310264
O 19.57631864 10.00857524 5.13182433 0.00422355 0.01011056 -0.00309107
O 18.60160632 15.79883131 11.45121605 0.01139104 -0.00755574 -0.00168597
O 21.98468431 7.22547362 24.38044780 0.00229798 -0.00428136 -0.00022363
O 0.78546334 21.33136612 10.39324616 0.00083196 0.00678391 0.00187065
O 0.21482843 0.28061179 2.14691340 0.00397316 -0.00463278 -0.00851846
O 13.00278211 18.28173220 7.54301561 0.00237675 0.00366541 -0.00117402
O 15.96004949 22.07637786 13.46083552 0.00049865 -0.00265122 0.00046180
O 14.12719720 29.93660657 5.08711683 -0.00456621 -0.00392333 0.00224144
O 14.34210671 31.06278174 12.39954655 0.00123208 -0.00034446 -0.00290455
O 22.67084567 27.89608103 11.38919486 -0.00783609 0.00160770 -0.00480125
O 5.79684005 22.79189156 4.11423672 -0.00043613 0.00271742 -0.00899252
O 13.23621497 13.21897165 25.97221377 -0.00298721 -0.00121853 0.00245393
O 10.91999758 28.19151739 0.29008528 0.00240662 -0.00139519 -0.00013401
O 18.89797644 14.20561776 14.56825746 -0.00469500 0.00813918 -0.00427293
O 21.29099789 19.69727595 10.83440653 -0.00564265 0.00043112 -0.00445937
O 14.43810417 2.56063490 0.26014993 -0.00563456 0.00583147 0.00185315
O 0.89034650 19.29750627 2.45445837 -0.00523964 0.00443270 -0.00049709
O 20.03941641 0.43022737 24.74669906 0.00037248 0.00540916 -0.00079248
O 1.57767192 20.05978746 0.11858369 0.00630603 -0.00027172 0.00012622
O 13.69775818 20.57799633 0.53821404 0.00157901 -0.00168533 -0.00636753
O 19.14627795 19.43115479 17.46712553 -0.01008891 0.00067353 0.00145498
O 17.31880269 10.26368232 9.64924078 -0.00025881 -0.00067461 -0.00273940
O 14.09904394 21.70546672 7.79089087 0.00612961 -0.00846787 0.00284581
O 17.30606118 22.22487415 15.88153545 -0.01166513 -0.00185085 -0.00350836
O 21.01669711 25.60948398 5.75329397 0.00343137 0.00263534 -0.01057756
O 16.40850719 3.98321898 0.35605432 0.00842699 -0.00066042 0.00464963
O 2.53161096 23.62125845 13.19133749 0.00202041 0.00016755 -0.00249521
O 15.27165975 4.94034258 16.91617067 -0.00590718 0.00422536 -0.00032606
O 21.35765864 24.44799191 14.60523365 0.00336612 0.00254972 -0.00061332
O 16.22276005 22.25081880 3.92119183 0.00131095 -0.00174751 0.00242980
O 10.79568659 28.12283517 4.88740509 0.00401809 -0.00341239 -0.00091605
O 13.57157937 25.03126646 22.10412570 0.00679772 0.00100111 -0.00423563
O 19.19828560 25.82267819 14.84108105 0.00472841 -0.00722844 -0.00323492
O 16.66173379 23.87302879 9.04749484 0.00346645 0.00362414 0.00888463
O 5.00407776 28.97663142 11.07557222 -0.00036210 -0.01173153 -0.00294022
O 16.61065561 11.02642733 18.37363614 -0.00001237 -0.00587636 -0.00344566
O 12.24914252 22.14545705 1.81055705 0.00683646 -0.00081323 -0.00733540
N 10.58566669 23.00484783 11.32480507 0.00014665 0.00059647 -0.00078111
N 4.92929237 6.31848706 12.74240999 -0.00272752 -0.00247456 0.00340706
N 7.45452465 1.44727356 6.04850771 0.00117752 0.00662237 0.00098797
N 2.33435697 8.06308061 10.14799283 0.00581912 -0.00794408 -0.00171460
N 22.68471644 29.97969889 13.88469165 -0.00249239 -0.00312884 -0.00491176
N 1.24145455 19.96815121 19.69736847 -0.00356457 0.01166770 0.00605186
N 6.40063618 28.82552296 24.38022378 0.00834332 0.00178152 -0.00267669
N 1.81225826 2.74613713 5.92408815 -0.00201929 -0.00402151 0.01343280
N 21.20761890 24.07379250 19.26046827 0.00818318 0.01148628 0.00350784
N 5.95119768 9.46434750 27.60365351 -0.00018282 -0.00222081 0.00015130
N 10.96516831 25.25012125 16.87785810 -0.00839073 0.01161910 -0.00376966
N 10.52168131 8.06735002 19.84035134 -0.00193558 -0.00498659 -0.00081532
N 6.35405209 7.44735076 24.35175101 0.00573989 0.00224156 -0.00029136
N 5.13585294 10.05960251 15.21933389 0.00460316 0.00171986 0.00223506
N 4.67738598 16.57193210 11.86924499 0.00819594 -0.00026527 0.00220862
N 12.51617112 11.18485552 8.48151964 -0.00493299 0.01142020 -0.00269233
N 14.09575223 3.73018959 14.22253589 -0.00408328 -0.00987265 -0.00421926
N 3.74869895 26.48513756 7.46542987 0.00303425 0.00396067 0.00119448
N 18.82975981 21.49276482 0.06388579 -0.00733938 0.00260014 -0.00063103
N 2.23076818 17.72679671 15.56153150 -0.00482925 0.00168828 -0.00092018
N 0.35908402 14.88217534 10.44007743 0.00076235 -0.00160308 0.00543891
N 19.22223855 29.29637131 4.14760188 -0.01076337 0.00719670 -0.00398173
N 7.26578630 23.81952962 14.34658699 -0.00409074 0.00055604 -0.00228851
N 1.15155508 3.19766020 0.62716074 0.00360101 0.00365517 0.00544161
N 7.91772822 3.29160684 14.30099361 0.00230549 0.00425951 -0.00109830
N 1.80926724 27.43169435 2.43021536 -0.00031871 0.00001212 0.00700924
N 1.68925794 11.90338075 25.20385235 -0.00321068 0.00068195 0.00572004
N 4.19548744 25.87210681 26.63742111 0.00343047 0.00094141 -0.00535493
N 19.49517929 15.17554064 3.09101667 -0.00163950 -0.00125548 -0.00965107
N 1.79860521 28.44971617 22.95334729 -0.00467395 0.00190656 -0.00096121
N 9.29843881 25.73588274 23.77789811 0.00180991 -0.01053407 -0.01270459
N 19.17510688 27.29089563 19.95095578 -0.00366489 -0.00086583 0.01083367
N 10.91800240 15.54051559 1.44819482 -0.00906670 0.00280595 -0.00240909
N 10.91003148 7.69812274 3.02804928 0.00369625 0.00170529 0.00061560
N 12.91341938 5.04904103 6.83998093 -0.00864009 0.00209808 0.00360926
N 11.91335774 12.79497289 16.90032851 0.00340877 -0.00044493 0.00179363
N 10.15238418 30.35572934 10.08529105 0.00292396 0.00246188 0.00846426
N 19.59091601 13.47575274 7.92936009 0.00021977 0.00454069 -0.00147747
N 7.15284897 18.25483945 7.29816657 -0.00984110 -0.00089017 0.00375763
N 14.19142775 10.86775936 14.07894391 -0.00150642 -0.00188284 0.00365838
N 18.05959989 18.83152634 21.75766660 -0.01191599 0.00134515 -0.00281550
N 6.54829458 4.93373286 20.68542958 0.00313405 -0.00653312 0.00414173
N 15.02120465 28.18099658 9.31958722 -0.00365546 -0.00629480 0.00482840
N 6.89537711 9.47215161 2.91623120 -0.00043447 -0.00263581 -0.00290701
N 5.63285558 1.49213674 18.65578212 0.00044798 -0.01172014 0.00361692
N 11.56812683 3.59753549 17.07445049 0.00422838 -0.00358099 0.00359800
N 11.34101045 17.34670049 14.86740927 0.00140850 0.00906736 0.00617964
N 20.66592333 8.27298370 3.07718747 -0.00387933 -0.00048985 -0.00571105
N 3.49969014 13.65562204 20.63047633 0.00787756 -0.00251346 -0.00046336
N 6.62744569 12.25377536 7.02462629 0.00237761 0.00253147 0.01012860
N 16.57480532 4.60809516 24.11819452 0.00147695 0.00307557 0.00776156
N 3.40751281 14.15608070 2.92251512 -0.00795312 -0.00308844 0.00205604
N 14.19497497 10.69615627 1.86909241 -0.00828579 0.01104238 -0.00702933
N 12.49032730 20.12968727 18.56524415 0.00408804 -0.00876459 0.00010049
N 16.66138831 4.12046673 6.93385895 0.00887205 -0.00383200 0.01055153
N 8.78469172 22.30218379 6.85166673 -0.00787291 0.00510618 -0.00279631
N 17.50516773 0.33245611 17.94071138 -0.00231239 0.01003561 -0.00100758
N 21.89683311 5.57790577 16.57198164 -0.00813038 -0.00032223 -0.00554026
N 9.73288534 12.94658495 22.84948903 0.00467586 0.00038170 -0.00042741
N 11.70426564 0.83117327 23.30932188 0.00030989 0.00711293 -0.00367154
N 7.56946842 20.02691157 24.55099130 0.00622860 -0.00220504 0.00676036
N 17.24925194 26.05963010 2.21530035 0.00199187 0.00231161 -0.00350548
N 7.99621889 28.57998314 18.18010923 -0.00405862 -0.00300943 0.00590935
N 15.27676707 16.93989554 22.61194288 -0.00642653 0.00306440 0.01086533
N 17.34321213 20.98449694 5.44008078 0.01460357 -0.00310264 -0.00073666
N 0.26053527 10.45756522 17.15468176 -0.00167778 0.00113334 -0.00955947
N 13.59408480 0.45762501 27.76030097 -0.00449317 -0.00407794 -0.00384632
N 18.29945249 10.96541362 3.42731999 -0.01433432 -0.00791311 -0.00149252
N 18.33116025 24.48056491 10.37243584 0.00161875 0.00327172 -0.00345308
N 1.13955267 16.83599001 0.92557105 0.00178310 -0.00291542 0.00138962
N 14.30622245 18.41789450 0.15504730 0.00206604 0.00711798 0.00104845
N 21.18588501 0.97738238 2.53221034 0.00920231 -0.00516007 0.00006955
N 19.14217024 11.97941467 14.65119517 0.01069130 -0.00493410 0.00377957
N 6.97885185 17.02017244 21.29453336 -0.00304019 -0.00466194 0.01149920
N 14.31481516 24.19835858 20.10531170 -0.00674431 -0.00220692 0.00182541
N 16.20828715 12.96290723 24.94636606 -0.01837699 -0.00598696 -0.00237783
N 21.05750165 1.79488997 26.27235468 0.00167610 0.00671704 -0.00027527
N 21.18303297 5.41108074 23.44243693 -0.01015974 0.00342011 -0.00375102
N 16.43066611 9.37833725 19.95774632 -0.01129202 -0.01143358 -0.00555147
N 0.44463292 14.21792888 22.36885030 -0.00299212 -0.01173561 0.00949827
N 20.23648542 2.42278514 13.51814501 0.00090020 -0.00615349 0.00428666
N 19.72524074 20.71035820 9.69288252 -0.00825895 0.00464416 -0.01050211
N 10.48157889 1.06840815 3.79203084 0.00229316 0.00035192 -0.00746940
N 18.10941604 27.02170408 13.24621325 -0.00406205 -0.00593736 -0.00597744
N 16.95139337 17.21178331 12.17919171 -0.00320007 0.00223543 -0.00115216
N 3.63263133 20.77703839 27.26276399 0.00527312 -0.00238411 0.00367651
N 17.77965369 5.75852974 10.47454187 0.00316926 0.00608120 -0.00064213
N 10.36021475 23.17352123 2.67194801 -0.00441700 -0.00080764 0.00434585
N 4.32171634 26.82072477 16.98027053 0.00475603 0.00233382 -0.00019376
N 12.15039390 26.38101357 5.38821224 -0.00660317 -0.00520596 0.00471101
N 14.87483462 27.69375320 25.20525685 -0.00448976 0.01370289 0.00352110
N 22.86609369 20.59328393 3.79453381 0.00672215 -0.00182247 -0.00247843
N 19.07299418 6.50727222 20.15845582 0.00465139 0.00067711 0.00131937
N 3.69948357 29.03551582 13.00239663 -0.00408738 0.00410138 0.00966021
N 1.98046862 22.03697910 8.58048955 0.00395160 0.00020418 0.00016003
N 21.06546781 19.08149529 16.34619272 -0.00312544 0.00330196 0.00625071
C 12.17874695 3.81528566 12.77102644 -0.00237666 0.00605775 0.00498543
C 6.95245627 6.43739400 11.45739553 -0.00612823 0.01216134 0.00314989
C 20.04857264 20.22148835 26.28870470 0.00149757 0.00295298 -0.00874053
C 4.06429148 7.59005237 8.54573905 0.00304965 -0.00761392 -0.00598597
C 1.01795092 12.72366109 9.61052691 0.01268259 0.00142151 0.00131243
C 1.67629336 19.26899308 22.06022470 -0.00791321 0.00953450 -0.00096709
C 7.62893339 21.42015009 14.43380724 0.00114026 -0.00454486 0.00407871
C 3.48501606 2.06696745 4.32299690 -0.00750621 -0.00523919 0.00175252
C 11.10782675 4.51604887 12.34987136 -0.00219345 0.00606298 -0.00768062
C 7.61772966 6.06669263 10.29538855 -0.00187811 -0.00005934 0.00741092
C 20.83696683 20.08950940 25.16918077 0.00344334 0.00097301 -0.00006715
C 4.48544313 6.98695486 7.35198031 0.00376242 -0.01059290 -0.00501338
C 1.21283524 11.89026106 8.55091189 -0.00609258 -0.00186347 0.00591751
C 1.20161612 18.59288258 23.17321293 0.00232683 -0.00609707 -0.00421773
C 7.60073170 20.17757598 15.10650814 -0.00497568 0.01139497 -0.00136916
C 4.30934173 1.14714890 3.70325252 -0.00257355 0.00524720 -0.00517701
C 10.83000362 5.76638003 12.87027012 0.00555283 -0.00443076 -0.00173454
C 7.17091946 4.96736649 9.51055826 -0.00369508 -0.00223819 -0.00138272
C 21.45701425 21.24102402 24.69306689 0.00130418 0.00124058 0.00428354
C 3.46861194 6.47071943 6.44088360 -0.00154853 -0.00663428 0.00797578
C 0.53025964 12.15775773 7.32080072 -0.00223247 0.00360123 -0.00733763
C 0.11029223 17.74791336 23.12111723 -0.00263390 0.00848203 0.00222396
C 7.18035901 20.11718556 16.41521186 -0.00507054 0.00715936 0.00780433
C 4.55041738 31.24623522 4.29607793 -0.00727343 -0.00340801 -0.00014884
C 11.58038930 6.28002455 13.94658681 0.00812471 -0.00894110 -0.00370663
C 5.80739970 4.46244676 9.67318319 0.00232557 -0.00809766 0.00311469
C 21.39344152 22.41587885 25.47275979 0.00162741 -0.00571508 -0.00308354
C 2.18212198 6.77238273 6.61508719 0.00619379 -0.00059499 -0.00557197
C 23.02696069 13.42387842 7.01936162 0.00131739 -0.00235721 0.00610983
C 22.42109334 17.63363966 21.86602626 0.00147147 0.00701756 -0.00095781
C 6.87545012 21.42129116 17.11724182 -0.00958543 -0.00271292 -0.01049762
C 3.91532650 30.96291288 5.55242615 0.00194893 -0.00876194 -0.01234535
C 12.59953472 5.52836455 14.53800049 0.00195566 -0.00544539 -0.00521451
C 5.13989409 4.94771825 10.76318370 -0.00135965 -0.00501739 -0.00507844
C 20.61152749 22.57167429 26.56820292 -0.00067375 0.01001969 0.00164411
C 1.76765505 7.41578637 7.85149254 -0.00690258 -0.00110199 -0.01156708
C 22.96060496 14.31291959 8.04779271 -0.00880087 0.00461218 -0.00695264
C 22.68775758 18.57576622 20.92125953 -0.00585324 -0.00856344 -0.00203466
C 6.84275857 22.59948194 16.44010707 -0.00590580 -0.00143024 -0.00040703
C 3.08810211 0.48787580 6.12528780 -0.00521329 0.01006593 0.00222667
C 13.01158328 4.38167972 13.73706981 0.00304096 -0.00888746 0.00261055
C 5.64390345 5.92750247 11.63966640 -0.01021368 -0.00706495 0.00578941
C 19.79837193 21.44325970 26.91849950 -0.00045163 -0.00605063 0.00796499
C 2.68731248 7.70519917 8.81195490 -0.00369678 -0.00104606 -0.00597210
C 0.36943253 13.96130776 9.31794811 0.00399888 0.01623476 0.00006770
C 0.81458940 19.34242524 20.92382948 -0.00457644 -0.00252630 0.00855196
C 7.20124174 22.62081385 15.03618038 0.00509691 0.00646651 0.00987022
C 2.81490620 1.79729556 5.50296442 0.00177961 -0.01122583 -0.01457090
C 14.52378191 2.52476943 13.67418762 0.00223002 -0.00617034 -0.00725185
C 3.60281991 5.99463687 13.06608837 -0.00099674 -0.00736921 -0.00176959
C 17.74545604 20.61904523 0.26137187 -0.00229384 -0.00767441 -0.00107017
C 1.02075655 8.38354988 10.57147564 -0.00178567 0.00336055 -0.00077026
C 22.29104384 15.56417191 10.90605081 -0.00560188 0.00290744 -0.00420271
C 1.90444221 21.12764495 19.60115456 0.00382898 -0.00157161 -0.00496064
C 6.77826352 24.99406569 14.84340317 0.00365899 0.00389322 -0.00049673
C 1.51738293 3.07637335 7.15982603 0.00382167 -0.00096297 -0.00205479
C 22.82348489 24.90694207 17.66247259 0.00141282 0.00204821 -0.00393729
C 3.01677718 6.74825993 14.22097032 -0.01642011 0.00225674 0.00441094
C 7.58124448 3.72634875 5.46824854 0.00296354 -0.00661345 -0.00382992
C 11.00530826 7.67316007 22.16386878 -0.00651150 -0.00356711 -0.00432691
C 6.49720128 10.00207294 24.35576408 -0.01297104 0.00080039 0.00561048
C 2.41264972 21.50987773 18.18243359 0.00151844 -0.00045836 0.00631724
C 6.29142645 31.23586465 24.67419662 0.00195497 -0.00362594 0.00402366
C 14.69581590 11.42937684 9.39684502 -0.00140550 -0.00568310 0.00681752
C 7.21092639 4.92352631 15.92102394 0.00064775 0.00870569 0.00316345
C 6.63332082 7.15521931 27.48105308 0.00415288 0.00024882 0.00287058
C 2.54337244 9.77015367 24.46126886 0.00812899 -0.00910398 0.00036512
C 12.22714430 8.48098151 18.05458482 0.00583806 0.00022043 -0.00790660
C 21.83462309 15.92636304 3.76882283 -0.00340909 0.00274056 -0.00641424
C 5.98885641 10.29006123 13.00915934 -0.00756119 0.00131648 -0.00563597
C 10.74000281 23.88170595 22.92515185 0.00046189 -0.00322162 0.00418984
C 11.72374283 11.47173401 10.80988579 0.00066733 -0.00437187 0.00370626
C 6.18843772 5.69528103 16.56900562 -0.01023085 -0.00574642 0.01094471
C 7.56864879 6.17344649 27.24314521 -0.00303178 -0.00329833 -0.00431645
C 2.82973758 8.46875892 24.76778374 -0.00511637 -0.00713257 -0.00437291
C 12.32721558 8.85759788 16.71394880 0.00514352 0.00671574 -0.00075604
C 22.63217178 16.76170039 4.47065822 0.00174550 -0.01162952 -0.00296868
C 5.78501771 10.45953322 11.67214814 0.00161961 -0.00270800 0.00654021
C 11.48123324 22.79191783 23.26563145 -0.00661774 -0.00014304 -0.00187548
C 11.02588490 10.91885860 11.83526386 0.01427524 -0.00164568 0.00452507
C 4.84373671 5.24879529 16.53650081 0.00732420 0.00424001 -0.00375000
C 8.87726026 6.48404091 26.81943051 -0.00508211 0.00709651 0.00399279
C 2.38795329 7.85814392 26.01191299 0.00030854 -0.00337584 -0.00215403
C 11.22150961 9.11036547 15.92344585 0.00138147 -0.00217573 -0.00785671
C 21.93881711 17.61561846 5.39598336 -0.00248477 0.00194823 0.00932398
C 4.52076342 10.97189624 11.18872157 -0.00276186 -0.00367125 -0.00232728
C 11.52585282 22.23466598 24.56676192 -0.00295038 -0.00472710 -0.00011606
C 10.40113265 9.62248002 11.80053448 -0.00619831 0.00154926 -0.00251722
C 4.54440654 4.24604369 15.62748652 0.00214248 -0.00293748 0.00322532
C 9.19811915 7.87797039 27.07571016 -0.00587570 -0.00540774 0.00171378
C 1.39549432 8.56297430 26.74524604 0.01056132 0.00029774 0.00354824
C 9.95819548 8.86521854 16.41183665 0.00415622 -0.00219161 0.00411478
C 20.52403791 17.82593811 5.39690349 0.00074764 0.00765826 0.00001102
C 3.50802065 11.26226055 12.07763287 -0.00732677 -0.00015389 0.00885837
C 10.84653083 22.99244140 25.59914082 0.00823207 -0.00410303 0.00531940
C 10.55455666 8.82265706 10.61164757 -0.00149270 0.00382077 -0.00528620
C 5.51639845 3.61525071 14.82665417 -0.00919843 -0.00374848 -0.00737918
C 8.25485614 8.84702389 27.23734276 -0.00791273 -0.00342515 0.00384824
C 1.01690452 9.82591711 26.36007500 0.00576594 -0.00228927 -0.00213347
C 9.81791474 8.34929072 17.66530363 -0.00297444 -0.00183567 0.01139859
C 19.78689065 17.13761600 4.41418473 0.00232747 0.00286788 0.00659765
C 3.62791151 10.89414492 13.36235559 0.00443894 -0.00468712 0.00483823
C 10.19497312 24.21308448 25.31958493 0.00063563 -0.00388791 0.01145160
C 11.17721793 9.45563245 9.58232733 0.00153051 -0.00437676 -0.00015463
C 6.85047501 3.91454401 15.00834005 -0.00248895 0.00320852 -0.00342113
C 6.97395970 8.50747090 27.52005872 -0.00413382 0.00656638 -0.00273989
C 1.67313824 10.47849155 25.34201891 -0.00194866 -0.00821051 -0.00538941
C 10.89149572 8.35752664 18.55995766 0.00143802 -0.00334759 0.00187583
C 20.39716765 16.09758997 3.65870187 0.00446702 -0.01006723 0.00214284
C 4.91264084 10.43851489 13.91610334 0.00621433 -0.01230875 -0.00337250
C 10.01098180 24.56139052 23.90098030 0.00614895 0.00412092 -0.00249330
C 11.85058323 10.72908756 9.61826881 -0.00575336 -0.00894744 0.00322402
C 7.55249646 2.07648345 13.59291391 0.00150281 0.00410947 0.00392251
C 6.13492060 10.86906218 27.74592698 -0.00271728 0.00938254 0.00634485
C 1.22798474 12.76375852 26.05174730 0.00732203 0.01239861 -0.00273500
C 11.47758697 7.89879866 20.80045769 0.00446975 0.00500497 0.00169704
C 18.26735912 15.50990083 2.55014822 -0.00107050 0.00061732 0.00320036
C 4.11826705 9.65455191 15.99505440 0.00757507 0.00018646 0.00626349
C 8.78314650 26.11306387 22.45750741 -0.00550316 0.00130766 -0.00644935
C 13.59385601 11.99572774 8.50700947 -0.00821893 0.00259433 0.00349371
C 12.23867015 21.26867213 12.14784838 -0.00999369 -0.00202012 0.01354729
C 4.80158357 11.54657082 0.00615723 -0.00013535 0.01286257 0.00843229
C 10.82598829 23.53963142 15.08651320 -0.00064675 0.00715507 -0.00107992
C 0.85644168 9.13727353 11.84059447 -0.00269039 0.00655288 0.00156617
C 21.62588661 28.58245377 15.60021629 -0.00410763 0.00698232 -0.00017534
C 4.17258635 9.20817814 17.42065861 -0.01120878 0.00080774 0.00055033