2160
Time=93000.00000001 pbc="T T T" Lattice="20.56080851 0.00000000 0.00000000 0.00000000 29.12541147 0.00000000 -4.72122498 0.00000000 35.44226661" energy=-13801.66973794 virial="-80.52045190 -17.99724778 31.85926501 -17.99724778 -26.74091890 -21.80592174 31.85926501 -21.80592174 -11.64425414" stress="-0.00145224 -0.00081639 0.00148494 -0.00081639 0.00100726 -0.00107179 0.00148494 -0.00107179 0.00164861" Properties=species:S:1:pos:R:3:vel:R:3
O 0.54654554 8.42171784 2.82930575 -0.00727058 0.00009657 -0.00157950
O 2.03531775 3.69926291 3.79652697 -0.00153263 0.00103153 0.00500921
O 4.54471693 0.78845367 9.56601998 0.00317409 0.00106648 0.00065385
O 3.61315852 5.71460775 8.47295452 -0.00349914 -0.00103468 0.00266281
O 1.42643426 4.73704296 9.66929371 -0.00284788 -0.00592200 -0.00060823
O -0.32816489 9.82548872 8.39731058 0.00087818 0.00370974 0.00449947
O 3.94238713 4.66848773 2.40562378 0.00180851 0.00069329 -0.00046881
O 5.84862912 0.00283525 3.82638457 0.00288213 -0.00130205 0.00110946
O -0.89938753 8.33546845 14.33930389 -0.00218353 0.00824585 0.00234908
O 0.16642064 4.02974430 15.02480681 -0.00136431 0.00273867 0.00393184
O 3.07456053 1.16928595 21.12376130 0.00055335 -0.00410857 0.00035899
O 1.87226800 5.95557901 20.09816303 0.00518597 -0.00481420 -0.00074338
O -0.16739785 5.16218798 21.24219185 -0.00393328 0.00134334 -0.00517850
O -1.77553997 9.71251806 19.99236007 -0.00576220 0.00423560 0.00701896
O 2.41778270 4.96870618 13.76033486 0.00096614 -0.00218747 -0.00133958
O 3.91723672 0.07208722 15.28421421 -0.00629751 0.00073593 0.00252712
O -2.63657192 8.56091273 26.26393420 0.00182905 0.00282712 0.00838151
O -1.24281985 3.82853692 27.25927530 -0.00020475 0.00123251 -0.00220770
O 1.53313292 1.14578658 32.86291074 -0.00046786 -0.00562021 -0.00206926
O 0.39809597 5.74090461 31.94712998 -0.00271092 -0.00743405 0.00217718
O -1.56507270 5.18624937 33.52286416 0.00320116 0.00456915 -0.00375304
O -3.66958092 9.84367488 31.89976908 0.00188022 0.00111126 0.00497110
O 0.76637323 4.82114594 25.79694281 -0.00230007 -0.00492561 -0.00061531
O 2.59658173 28.76485632 27.30892719 -0.00136137 0.00102537 0.00247022
O 0.80349279 18.58183091 2.13716877 -0.00014810 -0.00044992 0.00002026
O 1.72750686 13.59232796 3.60801915 -0.00650319 0.00389154 -0.00075282
O 4.59493572 10.93600944 9.16911337 -0.00318777 0.00018483 0.00148591
O 3.26281487 15.15776080 8.23411457 0.00183104 -0.00376714 -0.00123067
O 1.24475988 14.49352453 9.82006429 0.00419176 0.00329477 -0.00254720
O -0.13269973 19.52189550 8.23696052 -0.00280969 -0.00055270 0.00111792
O 4.01703015 14.29016436 2.53230710 -0.00473847 0.00158642 0.00596246
O 5.45898767 9.52131322 3.80863672 -0.00408060 -0.00223828 -0.00469696
O -0.85351291 18.28458627 14.32206981 -0.00272392 0.00045018 0.00316058
O 0.28138544 13.42808071 15.17711856 0.01028047 0.00974855 0.00627247
O 2.96136219 10.58464809 21.34376923 -0.00052026 -0.00027271 -0.00287080
O 1.58636815 15.77885555 20.23812929 -0.00273114 0.00778634 0.00259051
O -0.27520832 14.50275883 21.60196265 -0.00143748 0.00046259 0.00009999
O -1.90729527 19.29469184 20.00458897 -0.00007660 0.00352438 -0.00220750
O 2.28604682 14.51041622 13.85110584 0.00006383 0.00074886 -0.00137956
O 3.84070976 9.99257719 15.36754928 -0.00324131 -0.00699681 0.00058028
O -2.67851299 18.28077949 26.16634368 -0.00182715 0.00398230 -0.00165377
O -1.34727193 13.69366162 27.63409863 -0.00570088 0.00721078 0.00230486
O 1.04382006 10.57849286 33.14616624 -0.00142741 -0.00148435 0.00052409
O 0.34432963 15.23485840 31.68092083 0.00123904 -0.00071725 -0.00092697
O -1.93293046 14.35553870 32.88346654 -0.00723149 -0.00226501 -0.00078575
O -3.61543774 19.52383839 31.40846478 -0.00323867 -0.00055415 0.00287717
O 0.75876104 14.38353838 26.05583176 -0.00363581 -0.00514666 -0.00516612
O 2.32876257 9.55660964 27.38645152 0.00110895 -0.00109530 0.00039596
O 0.95319527 27.93248953 2.46608320 -0.00541919 -0.00574502 0.00383430
O 1.84692166 23.01335666 3.38566934 0.00091070 0.00065542 -0.00932192
O 4.73724358 20.70220470 9.21576402 0.00019481 -0.00624936 -0.00089121
O 3.41448337 25.22678597 8.17477025 -0.00115555 0.00329076 0.00059311
O 1.39533709 24.33589038 9.49522559 -0.00777121 -0.00135218 -0.00120535
O -0.20900105 28.81487232 8.00274037 -0.00386705 -0.00475414 0.00346178
O 4.19620298 23.62406900 2.60914671 -0.00428219 0.00069108 -0.00285550
O 5.37047148 19.20765582 3.53854549 0.00431737 -0.00258494 -0.00116988
O -0.92286939 28.00567791 14.00545737 0.00152260 0.00519894 -0.00227709
O 0.36309956 22.96646259 15.26181772 0.00154179 -0.00299142 -0.00805372
O 3.13188853 20.47032234 21.08455364 0.00051664 -0.00210519 -0.00229360
O 1.83289362 25.54254278 19.98487697 0.00099173 0.00194720 0.00186452
O -0.09380758 24.17128463 20.93812691 0.00242687 -0.00223358 -0.00216621
O -1.83027940 29.06004005 19.56412050 0.00627227 0.00154479 -0.00138381
O 2.25019262 24.22156430 14.05673787 -0.00006862 0.00352972 0.00131685
O 4.10438890 19.44093907 15.70570996 -0.00082552 0.00007715 0.00092768
O -2.20994465 27.94829398 25.74249729 0.00010250 0.00146091 -0.00162642
O -1.28954093 23.35970703 26.91854038 0.00170517 0.00067591 0.00708978
O 1.46703143 20.76192374 32.81556699 0.00172986 -0.00007178 -0.00231094
O 0.14036647 25.47934603 31.87451118 0.00175259 -0.00247212 0.00203666
O -1.59223862 24.26120998 33.06607875 -0.00102133 -0.00035192 0.00332190
O -3.19458798 29.02053337 32.09983886 -0.00251704 -0.00427678 0.00409388
O 0.80110053 24.56221435 25.46565057 0.00197526 0.00096328 -0.00277466
O 2.21124254 19.19072176 27.36064204 -0.00170154 0.00425576 -0.00311799
O 7.59557218 8.59081151 2.68334785 -0.00676059 0.00764604 0.00294877
O 8.90106324 3.81285554 3.21944265 -0.00441507 -0.00138417 0.00565081
O 11.59352039 1.18028696 9.31555346 0.00112466 -0.00063176 -0.00570024
O 10.11896832 5.94750301 8.69638475 0.00251740 0.00170405 -0.00470529
O 8.36611364 4.74269863 9.98417237 -0.00055329 -0.00364470 0.00058679
O 6.53916108 9.82579863 8.18779623 0.00480640 -0.00041623 -0.00096349
O 10.87439259 4.91820299 1.83884149 -0.00358493 -0.00300647 -0.00217643
O 12.40242534 0.19434579 3.71592204 -0.00163433 -0.00385555 0.00439408
O 5.97737425 8.89487765 14.36508074 0.00048190 0.00474522 0.00337166
O 7.31708734 3.76517625 14.98211376 -0.00202224 -0.00042780 -0.00021455
O 9.66667501 1.54069384 20.85790902 0.00466340 0.00584047 0.00127490
O 8.82120193 6.13109070 20.48452402 -0.00443315 -0.00023085 0.00170097
O 6.66098503 5.00574048 21.51996697 0.00177562 -0.00077702 -0.00753200
O 4.88980388 9.70874665 20.03762260 0.00212469 0.00545110 0.00039386
O 9.35349302 5.07491870 13.93999398 0.00671266 -0.00161914 0.00366141
O 10.68759422 28.60929264 15.24203602 -0.00052960 -0.00187996 0.00058283
O 4.43087783 8.88046151 26.08116723 -0.00499231 -0.00534580 -0.00626063
O 5.74734768 3.67213151 26.97022612 -0.00245064 0.00624768 -0.00222623
O 8.45433635 1.18007414 32.50825879 0.00382473 -0.00379085 0.00040323
O 7.16078733 5.75453974 32.03738802 -0.00062498 0.00386447 0.00184134
O 5.05485986 5.28933723 33.17970002 0.00368994 -0.00810805 -0.00712844
O 3.18387545 9.71721981 31.41762719 -0.00435057 -0.00342084 0.00231289
O 7.75162242 4.98839993 25.92143018 -0.00080577 0.00197866 -0.00186427
O 9.48201917 0.05594475 27.27480048 -0.00144472 0.00772053 -0.00025080
O 7.52010135 18.41821189 2.29892323 0.00168089 -0.00177848 0.00616433
O 8.60209665 13.38462511 3.32157853 -0.00505772 0.00436354 -0.00141444
O 11.12554319 10.48178646 9.58136282 -0.00253608 -0.00094367 -0.00348925
O 10.41892054 15.42240224 8.31922108 -0.00256151 0.00517409 -0.00095903
O 8.43143086 14.23942573 9.59675926 0.00188385 0.00435159 0.00274629
O 6.42845490 19.04985966 8.40479042 0.00595914 -0.00332458 -0.00093992
O 10.76179604 14.48475866 2.41300939 0.00570788 -0.00373440 0.00503830
O 12.46818636 9.51381303 3.86846879 -0.00024662 0.00100184 0.00134341
O 5.99530442 17.85688795 14.38175248 -0.00147418 -0.00468900 0.00522078
O 6.98700518 13.64075635 15.41399172 -0.00418499 -0.00235311 0.00364728
O 9.73711884 11.01535959 21.28718885 -0.00057838 -0.00441116 0.00234290
O 8.65999597 15.76309760 20.32322846 -0.00081966 -0.00389462 -0.00096168
O 6.55959881 14.76667820 21.51184154 0.00150868 -0.00587007 0.00415850
O 5.15531739 19.13635642 19.99246194 0.00536281 0.00180908 -0.00147439
O 9.08473057 14.49817489 14.22683984 -0.00098836 0.00447662 -0.00231373
O 10.67584750 9.33857891 15.43765444 -0.00729314 0.00257730 0.00222636
O 4.54404559 18.64844560 26.08063966 0.00119143 0.00280901 0.00181180
O 5.88244804 13.20698445 27.02292679 0.00209259 0.00194265 0.00533305
O 8.26441603 11.09113075 32.87614552 0.00518674 -0.00044926 -0.00061438
O 6.94365692 15.87847405 32.23046230 0.00966387 -0.00461494 0.00189633
O 4.87117559 14.56060330 33.10525970 -0.00053804 -0.00485047 0.00005624
O 3.26694172 19.24182562 31.81719107 0.00075584 0.00102351 -0.00251157
O 7.64320119 14.71580749 25.91416409 -0.00333943 -0.00024967 0.00532218
O 9.16246965 9.28641769 27.18665425 0.00071230 0.00016088 -0.01078456
O 7.71341568 28.36043840 2.21580481 -0.00682762 -0.00318391 -0.00566288
O 8.72077421 23.09270936 3.64130644 -0.00006472 0.00159866 0.00062970
O 11.39053403 20.55761054 9.49176925 -0.00250371 0.00430928 -0.00268950
O 10.26798556 25.80008078 8.46949583 0.00795124 0.00164209 0.00428301
O 7.98509863 24.92302289 9.27277520 0.00190029 -0.00153543 0.00306507
O 6.76040566 0.42942639 8.38797174 -0.00361487 -0.00265741 0.00077589
O 10.83016692 24.55012584 1.96803342 -0.00166684 0.00064521 -0.00038360
O 12.06897926 18.91815456 3.39020976 -0.00355243 -0.00195773 0.00381495
O 5.99131218 28.07228598 14.14725360 -0.00648833 -0.00002542 -0.00227882
O 7.14075602 23.16195421 15.56240196 0.00890774 -0.00324795 -0.00240306
O 9.92815899 20.83807325 21.04157149 0.00078404 0.00621154 0.00196512
O 8.81783959 25.31343495 20.08185333 -0.00373142 0.00114200 -0.00068346
O 6.74140901 24.44175029 21.14299290 -0.00402133 0.00116503 0.00098333
O 4.85871314 0.22187417 19.64206144 0.00205828 -0.00062243 0.00347036
O 9.36523140 24.09413828 14.06167754 -0.00077191 0.00447648 0.00108298
O 10.84346146 19.54868698 15.23947206 -0.00543035 0.00336897 0.00659359
O 4.51556026 28.18820399 25.78467520 -0.00143360 0.00022001 0.00019801
O 5.55459479 22.98502186 27.07403826 -0.00139307 0.00574459 -0.00241498
O 7.97133034 20.13141582 33.27712377 0.00562509 -0.00145153 -0.00265399
O 7.23747619 25.48914362 31.93336715 0.00079106 -0.00034523 -0.00560145
O 4.98578161 24.49053284 33.11757447 0.00339498 0.00250246 0.00395179
O 3.60185840 29.05849450 31.60627806 -0.00784051 -0.00491853 -0.00343431
O 7.69087746 24.17395955 26.25162418 0.00306392 -0.00667462 0.00434703
O 9.23486497 19.12638287 27.15232211 0.00427364 0.00072319 -0.00491806
O 14.50903267 8.46678296 2.37867723 0.00151786 -0.00226644 -0.00654205
O 15.82975681 3.72582081 3.12315830 0.00552461 0.00298016 0.00601974
O 18.46885581 0.77230677 9.42808217 0.00445927 0.00033591 0.00801994
O 17.10979166 5.75356379 8.38446764 0.00495665 0.00444065 0.00222571
O 15.14245095 4.94854964 9.78757806 0.00108251 -0.00017294 0.00105941
O 13.35349735 9.70600309 8.39852860 0.00583185 0.00273069 0.00318592
O 17.91122293 4.95317880 2.20431714 -0.00593476 -0.00470692 0.00525714
O 19.29335770 29.12259122 3.44163119 -0.00153509 0.00418197 0.00402243
O 12.84769455 8.53471940 14.37375465 0.00124191 -0.00259048 -0.00058585
O 14.02526706 3.49632666 15.01145346 -0.00191755 -0.00336879 0.00378079
O 17.01868448 1.44907964 20.94559330 -0.00618142 -0.00106505 -0.00472313
O 15.55549149 5.78049683 20.14956605 0.00240059 -0.00196529 0.00542704
O 13.38555743 4.69790597 21.24007584 -0.00176496 0.00246093 -0.00189510
O 11.95965859 9.94577934 20.28800298 -0.00213032 -0.00133558 0.00348653
O 16.15813015 4.71166812 13.97850310 0.00011446 0.00321436 0.00317236
O 17.78019316 28.90150923 15.47074792 -0.00054215 0.00223386 0.00455028
O 11.26495406 8.28715089 26.22303919 -0.00149887 0.00563209 -0.00495881
O 12.37206356 4.11491178 27.13024665 0.00570147 0.00503754 -0.00095783
O 15.29304566 1.32075093 32.81639541 0.00011001 -0.00075013 0.00005165
O 13.99108779 6.07936825 32.28785138 -0.00071334 0.00125175 0.00181091
O 12.00352628 4.74978267 33.22863276 0.00395413 -0.00010069 -0.00160908
O 10.04189670 9.57356658 31.72523059 -0.00408781 -0.00159891 -0.00104322
O 14.48944318 4.78189220 25.86042226 -0.00728755 0.00250230 -0.00291704
O 16.23692052 29.01379914 27.09933428 0.00192714 -0.00108044 -0.00025472
O 14.44436637 18.16723667 2.60384329 -0.00009042 0.00264712 -0.00698674
O 15.58547942 13.15980112 3.51285597 -0.00287892 0.00621440 0.00144907
O 18.13614416 10.71294115 9.42271163 -0.00336894 0.00141399 0.00651837
O 17.06641376 15.57956584 8.35272556 -0.00414432 0.00131305 -0.00393684
O 14.97409891 14.81978512 9.64665473 -0.00257898 0.00416788 -0.00109076
O 13.35888550 19.49529065 8.19054381 0.00056880 -0.00190202 -0.00106502
O 17.46385575 14.54260779 2.41514287 0.00009781 -0.00426929 0.00163315
O 19.10476958 9.57522918 3.89460027 -0.00338834 0.00020563 -0.00742825
O 12.85086333 18.27212854 14.20707696 0.00236960 0.00038781 -0.00141837
O 13.90051296 13.46037114 15.46873337 0.00379516 0.00176198 -0.00332441
O 16.77579584 10.70772878 21.27920382 -0.00640612 0.00080573 0.00047060
O 15.34523721 15.53942548 20.16115447 0.00865460 0.00340915 -0.00123295
O 13.45512055 14.57747172 21.59433436 -0.00271546 -0.00248460 -0.00203535
O 11.80589226 19.31078613 20.06300340 -0.00583025 -0.00034707 -0.00416421
O 16.14097427 14.06900876 14.29407319 0.00236255 -0.00472921 0.00473636
O 17.91089867 9.50816196 15.77417981 -0.00557536 0.00016331 -0.00106208
O 11.36041401 18.20103582 26.26362238 -0.00523071 0.00536498 0.00393735
O 12.24958371 13.35041933 27.15784072 0.00269104 -0.00659761 0.00050698
O 14.86538071 10.94628799 33.22749378 0.00815711 0.00309665 -0.00500777
O 13.77588879 15.87667701 31.92619937 -0.00105194 0.00183570 -0.00505732
O 11.57179617 15.02221813 32.98110336 -0.00088079 0.00519739 0.00490740
O 10.23593951 19.78394001 31.82156313 0.00965037 0.00041336 -0.00588505
O 14.58965975 14.17854926 26.13951472 -0.00414261 0.00603048 0.00094958
O 15.95077544 9.74346774 27.47934164 0.00450398 0.00748826 0.00235854
O 14.45583566 28.23663212 2.52842857 -0.00310136 -0.00577662 -0.00208913
O 15.58444878 22.83434790 3.18890864 0.00552170 0.00262476 -0.00039042
O 18.29001150 20.38888517 9.32906505 -0.00279314 -0.00476677 0.00279222
O 17.16282805 25.17891898 8.06066614 -0.00010302 0.00165857 -0.00218693
O 15.09815403 24.19260166 9.41487221 0.00632280 -0.00334870 -0.00347027
O 13.68723740 0.16257027 8.08251667 -0.00474502 0.00329348 0.00177096
O 17.64068558 24.19041833 2.42724643 0.00268771 -0.00025583 0.00343931
O 19.31023137 19.38073222 3.63524241 0.00625916 0.00591697 -0.00085654
O 12.95573261 28.05109895 14.10443899 -0.00313294 0.00150458 -0.00144985
O 13.90448290 23.10388659 15.31424991 0.00058798 0.00316791 -0.00099119
O 16.58342959 20.32641669 21.47550629 0.00088645 -0.00368699 -0.00244843
O 15.33101258 25.53348602 20.14479552 0.00227022 -0.00256178 -0.00353912
O 13.56632928 24.17713158 21.45913698 -0.00469440 0.00815654 -0.00254100
O 11.82975391 0.09354341 20.08151891 0.00054387 -0.00388887 0.00425438
O 16.00508412 24.22158192 13.94904733 0.00765475 -0.00205923 -0.00139944
O 17.47615877 19.21342778 15.57126688 -0.00291577 0.00422018 -0.00212389
O 11.48880180 28.18773688 25.99774001 0.00500401 0.00474493 -0.00581293
O 12.47186685 23.27099733 26.98876526 0.00150849 0.00149526 -0.00503506
O 15.04068157 20.79740764 32.79798032 -0.00453698 0.00360564 0.00385189
O 13.89624084 25.59875926 31.88154449 -0.00279299 0.00600877 0.00147835
O 12.03314747 24.47180349 33.27112801 -0.00514506 -0.00371120 -0.00082797
O 10.41559536 29.05917722 31.45587700 -0.00240362 0.00205027 0.00325840
O 14.55363637 24.30445969 25.80952689 0.00371883 -0.00120299 0.00154582
O 15.94030585 19.64090153 27.22586142 0.00309386 0.00025887 0.00381630
H -0.34912021 8.92463742 2.92303539 0.00091948 0.00268410 -0.01666457
H 2.82271687 3.95947740 3.29917949 -0.01586073 -0.00956983 0.02342646
H 5.44579036 0.66638340 9.16563179 0.01073264 0.00967081 0.00921647
H 2.75739199 5.29304539 8.66133689 0.00740143 0.00318225 0.02248508
H 5.58807433 8.17939023 1.11451638 0.01867610 0.01188427 -0.00306874
H 3.84200674 3.52785391 5.44475155 -0.01675928 0.01438481 -0.02449036
H -0.09162805 1.40459534 11.03776785 0.00139259 0.01317536 0.00470166
H 1.50968919 6.16766398 7.04875239 -0.00459732 0.00859907 0.01304721
H 4.14564629 6.81038210 10.71868853 0.01797995 -0.00246100 -0.02143566
H 3.82839665 1.64703363 7.44946769 0.00382345 0.00252337 -0.01523012
H 1.45439987 2.90810421 1.21811095 -0.01612876 -0.01053707 0.00557505
H 1.33843582 7.82340910 5.19136750 0.00883666 0.01869908 -0.00117380
H 2.81954251 5.49039692 0.23409701 0.01924147 -0.01741499 0.00591119
H 0.06043634 0.34098372 5.90109393 -0.00444368 0.00201736 0.00080809
H 2.65610014 4.25919219 11.81869870 -0.00816794 0.00456594 0.00840072
H 5.41007719 8.92994975 5.91845393 0.00348694 -0.02441032 0.01309457
H 2.55186865 6.78435773 2.22239508 0.01524971 0.01108830 0.00399048
H 0.23398364 1.74936264 4.11189787 0.01011765 0.02661626 -0.00830192
H 2.51917995 2.53339939 10.17137292 0.00162597 0.00653333 -0.01198979
H 5.43332358 7.42623547 7.83390745 0.02797062 0.00046896 -0.01216017
H 5.19153457 5.00933422 9.76733364 -0.00937877 0.00865959 -0.02170870
H 2.83671721 28.94727368 8.43148031 0.00012709 -0.01494974 0.01006500
H 0.46278801 4.28101481 2.42694844 0.00151624 0.02295479 0.01102962
H 2.18339037 9.46813141 3.95465438 0.00075012 -0.01885727 -0.01298019
H 7.87744582 3.73295190 7.74282982 -0.02062904 0.00793794 0.01350801
H 2.42123243 8.31295755 9.41795039 0.00175786 0.00665327 0.02301941
H 0.00607523 5.98784426 3.80538312 -0.00740172 -0.01953842 -0.01825927
H 5.60957710 1.25976078 1.71491030 0.03268067 0.02013988 0.00498857
H 19.50123438 3.55359447 7.88841431 0.02263220 0.01043610 -0.00128278
H 0.78812298 7.51857862 9.19205016 -0.02214328 -0.00573448 -0.00673391
H 6.55118921 6.22379216 3.78347006 0.00661322 0.01101059 -0.01968856
H 3.90068886 0.84547292 1.51160142 0.02107435 0.01860982 -0.03137374
H 0.10768693 2.44957030 8.49546789 -0.00402636 0.00836072 -0.00082743
H 1.02385086 8.69097866 10.52723412 0.03018549 -0.02688166 -0.00281241
H 4.89799045 6.85110489 3.53106057 -0.00699984 0.00352044 0.00125126
H 4.25711030 2.19047504 2.45635786 -0.00336387 0.00231903 0.01170458
H -1.73908765 8.64543635 14.77626243 -0.03273876 -0.01866619 0.00508044
H 1.02021778 4.42161613 14.56767284 -0.01005548 0.02198113 -0.01329634
H 3.89512045 0.76720034 20.75773355 -0.01683965 -0.02732214 0.00809814
H 1.03541545 5.62782027 20.47307339 0.00497149 -0.01760737 -0.01751783
H 4.08893830 8.45070911 12.46485668 0.01408342 -0.00007237 0.00573216
H 2.06519219 3.74573740 16.73773537 -0.00010930 -0.01351394 0.01650554
H -1.63215966 1.63283323 22.86526558 0.01022218 0.01639299 -0.00095835
H -0.25259779 6.43704115 18.54142694 -0.00284439 0.00599059 0.00231511
H 2.52933484 6.93046956 22.42240985 0.00786138 -0.00349353 -0.00388786
H 2.27061665 2.08812300 18.61740146 -0.01169762 -0.01991571 0.00178398
H -0.16026626 3.15563524 12.91136838 0.00367812 0.00326755 0.00824341
H -0.29095294 7.87837911 16.67831906 -0.01859571 0.00732662 -0.00716371
H 1.26867910 5.46201085 11.72321923 -0.01357035 0.01620626 0.00958952
H -1.74048107 0.89270217 17.68908750 0.00558522 -0.02125826 -0.01110917
H 1.01853304 4.35289324 23.65037918 0.01327785 0.01078821 -0.02803266
H 3.78214826 9.11280521 17.70293494 0.01891337 -0.02855793 -0.01708758
H 1.20251328 6.93679832 13.47172378 -0.00213858 -0.01001264 0.02729469
H -1.59803109 2.22221257 15.52371538 0.00790198 0.00648588 -0.00397988
H 1.05838863 2.80324937 21.75122941 0.01325614 0.01696960 0.02588450
H 3.90393341 7.25244583 19.18271537 0.00798857 -0.00967456 0.00330042
H 3.46986943 5.22357850 21.38064938 0.00002077 0.00963343 0.00822913
H 1.27680183 0.64740426 19.82715009 -0.01083098 -0.01910676 -0.01654063
H -1.28088101 4.74509789 13.88857299 -0.00563853 0.00473259 -0.01448683
H 0.60357657 9.67065191 15.56421799 -0.00525739 0.00268063 0.00886023
H 5.21383360 2.76175774 20.23796545 0.00670964 0.01588928 -0.00701172
H -0.69289324 8.90792691 22.25642390 -0.00049791 0.00022010 -0.00774971
H -2.01986651 6.18451189 15.58353702 0.01186363 -0.00194302 -0.00749398
H 3.47173371 1.12791140 13.04286306 -0.01446795 0.01381631 0.00131303
H -1.86226680 2.91304592 19.83805224 -0.02422597 0.00710681 -0.01997849
H 0.94235829 8.52784980 21.54432736 -0.00700667 -0.00874126 0.01323300
H 4.13865909 5.66381382 16.13750421 -0.01046277 0.01596390 -0.00905356
H 1.69509933 1.01687600 13.24571078 -0.00851845 -0.00531205 0.00790725
H -1.22821369 4.35537054 18.91261194 0.03445728 0.01191362 0.01274198
H -0.40043272 7.56176405 21.10673108 0.01865167 -0.00602184 -0.02600385
H 4.51043684 6.94626542 15.06052553 -0.01801717 0.01483242 -0.00363284
H 2.57751809 2.35367847 14.03291966 0.00686575 -0.02517801 -0.02194905
H -3.51263647 8.91599249 26.63202279 -0.01009797 0.00881004 0.00727130
H -0.35278414 3.88734068 26.81083392 0.00718625 -0.01676713 0.00632748
H 2.50205200 1.02398296 32.60768262 -0.00258726 0.02021446 0.00678867
H -0.43315743 5.50819894 32.46166055 0.01438953 -0.00908803 0.02703729
H 2.57007311 8.58209714 24.50717257 0.01216545 0.00164374 0.01259109
H 0.91013348 3.20719062 28.73696941 -0.02210858 -0.01014077 0.00358025
H -3.55957047 1.11373069 34.72048938 0.00675898 -0.01466922 -0.01970893
H -1.82595794 6.39239350 30.56266018 0.00849586 -0.00160120 -0.01755396
H 0.82788857 6.73584926 34.54708952 -0.00676945 0.00843628 0.01385044
H 0.93557621 1.48353740 30.43516521 0.02142585 -0.01645378 -0.00302662
H -1.91049333 2.91049601 24.98661632 -0.00315649 0.00584243 -0.03275810
H -1.90226179 8.15075475 28.79111778 -0.00145353 0.00753385 0.02360668
H -0.36962972 5.72815692 23.51612045 0.02467849 -0.01124191 -0.00406071
H -3.24419732 0.72795844 29.60455189 0.01080899 -0.01477532 0.00945124
H 4.16370881 4.33208839 0.01749620 -0.00271377 0.02073191 -0.01600852
H 2.28731589 8.62727180 29.12770913 -0.01233352 -0.00421497 -0.02010413
H -0.55733397 7.30070520 25.41201451 0.00787277 0.01911706 -0.00609403
H -3.19671269 2.32923123 27.90803140 0.02067019 0.00533811 -0.02657046
H -0.56112486 2.67203039 33.51909513 -0.02361135 -0.01047820 0.01930749
H 2.47106075 7.11296440 30.98495811 0.02473285 -0.00459140 -0.00615797
H 1.94072897 5.08415650 33.21737839 -0.02569695 -0.01477573 0.00881127
H -0.09495663 0.25006468 31.80898042 0.02633573 -0.01893859 0.02397874
H -2.86177722 4.53384703 25.91613435 0.01057847 0.00770878 -0.01482051
H -0.81765470 9.51224810 27.46931889 0.00332156 -0.02322739 -0.01364959
H 4.43317203 3.46465368 31.55834876 -0.01708894 0.02954497 -0.00318924
H -2.71321862 8.78825363 34.28008237 -0.02173102 0.02275509 0.01997105
H 15.36072590 5.47849571 28.13371693 0.00167704 0.00453441 0.00662583
H 0.29205630 0.94798158 25.61101102 -0.00740437 -0.00672068 -0.00101219
H -3.36561213 3.02557566 32.35878749 0.01000852 0.01438829 0.01278152
H -1.31956256 8.02105774 33.42135649 -0.03458615 -0.02232433 0.00969288
H 1.63640867 5.60698365 28.19118326 0.01209494 0.01098944 0.01533829
H 1.34602903 2.16434729 26.44025856 0.00623920 -0.00981712 0.01514354
H -1.88985235 3.55582315 31.53640330 -0.00936242 0.00753508 -0.01136280
H -3.06381705 7.62139723 33.04722991 -0.02522717 0.00573258 -0.02720876
H 3.21983999 6.02128167 27.40730483 0.01116834 -0.02820483 -0.01191871
H 2.00007663 1.03389210 25.30533571 0.01254388 0.00630721 -0.01850198
H -0.03439357 18.70807498 2.68786224 0.02385823 0.02473922 -0.03497270
H 2.62306163 13.99606078 3.36088521 -0.01429750 0.01933707 0.00955300
H 5.43844465 10.44530439 8.97452385 -0.01050433 -0.00152222 0.00393523
H 2.41316206 15.02536699 8.72093238 0.00452651 -0.01271471 -0.01698437
H 5.57686310 18.09699726 0.41867970 -0.01768264 -0.00864902 -0.02373121
H 3.85945153 12.61704557 4.75063177 0.00063370 -0.01250289 -0.01277689
H -0.57353471 10.87444790 11.20356441 -0.00850700 0.00878767 0.00433083
H 1.24000949 15.73020170 6.61954014 0.00110251 -0.01508826 -0.01523759
H 4.48621906 16.25223664 10.31916731 0.00987575 0.00593600 -0.00045780
H 3.76114925 11.49798960 7.01122397 -0.01008183 -0.01361982 0.01068284
H 1.08989641 12.99513636 1.15423256 -0.00088746 -0.00897725 -0.02173781
H 1.20613455 17.36115966 4.91198361 -0.03006043 0.01428175 -0.00606357
H -1.86823360 15.61566963 34.85296301 -0.01119984 0.01042118 -0.01458592
H -0.33314012 10.45064486 6.22126148 0.00282205 0.01287141 -0.00370632
H 2.70502804 14.21662218 11.74029585 0.02065409 0.00635204 0.01394419
H 5.26871895 18.39729064 5.63587271 0.00851643 0.01019542 -0.01007605
H 2.82354260 17.18444774 1.30347989 -0.01502596 0.00591258 0.01370401
H -0.42096416 12.06967542 4.29884502 -0.01091387 -0.01107222 -0.01254201
H 2.95264052 12.93004934 9.50926020 0.01585747 0.00671381 -0.00564420
H 5.34741753 16.63048006 7.41689487 0.00629450 0.01125700 -0.00649075
H 5.24327005 14.45332273 9.59968583 -0.01361173 0.01481342 0.01046552
H 2.78702867 9.91751440 8.09143491 -0.00771246 0.00180762 0.00999973
H 0.15059198 14.76047009 2.11994506 -0.02486295 -0.01432692 -0.00090524
H 2.20972812 18.89856653 3.58859641 -0.01119086 -0.00353457 -0.01834837
H 7.76100329 13.31195085 7.35177273 0.00861009 0.02437430 0.00698866
H 1.37782067 17.19854727 9.34568912 -0.02202190 -0.01426308 -0.00620571
H 18.25088862 15.66516516 4.65437009 0.01732697 0.01576305 0.02359548
H 2.97395483 10.91766740 2.31046263 0.01098685 -0.01906911 -0.00259446
H -0.18031461 12.49366522 8.24327916 -0.00662534 0.00866893 0.01361252
H 0.63955746 18.50477282 10.51663856 -0.00207538 -0.00101774 -0.00790885
H 4.87866116 15.26708069 4.64630071 -0.01172098 -0.01688735 -0.00406546
H 4.68606793 11.28512749 2.00099523 0.02040106 0.00260991 -0.00507631
H 0.85521667 13.61140068 7.47857153 -0.00319135 0.01426575 -0.00934544
H 2.36379817 18.49109905 10.11711519 -0.00276402 0.00772015 -0.02917899
H 6.60089465 15.61827272 4.07077550 0.02690654 0.02396058 0.02593815
H 3.98494731 9.76893005 1.37776862 -0.00059816 -0.00178119 0.01838253
H -1.68920336 18.48718759 14.75439836 -0.00490061 0.01858908 0.01572956
H 1.12727543 13.82026182 14.84863980 0.00621643 0.00348224 0.00877345
H 3.84761446 10.44400584 20.84017590 0.00669390 0.00507955 0.00694998
H 0.73172914 15.36106319 20.55515468 0.00240192 0.00522440 -0.00191495
H 4.17766047 17.62444533 12.33115296 -0.01377294 0.00070751 0.01915704
H 2.07108000 13.36604894 16.99115811 0.00250001 0.01301936 -0.01650929
H -1.88650548 10.97467257 23.04426595 0.00918211 0.00994267 0.01595494
H -0.23856283 16.03352229 18.36880942 -0.00906945 -0.00252717 0.01014452
H 2.42752170 16.72698716 22.65153497 -0.01309378 -0.01235954 -0.00029459
H 2.35716511 11.72843365 18.76230493 -0.01296808 -0.00874095 -0.01699413
H -0.44972527 12.49480221 12.96522548 -0.00895354 -0.00695245 -0.01823203
H -0.04672349 17.39024192 16.38742891 -0.00507714 -0.00491559 0.01264032
H 1.06648767 15.16810404 11.60189591 -0.01907886 0.00146125 0.00686095
H -1.79648144 10.53900461 18.09670643 -0.02908263 -0.00613317 -0.01081548
H 0.68595715 13.44705519 24.01491475 -0.00961454 0.01194445 -0.01352379
H 3.95768341 18.62513446 17.57373329 -0.02655345 -0.00498008 0.00140206
H 0.95004593 16.41676555 13.87288519 0.00667607 0.02116937 0.00842325
H -1.74429788 11.88035008 15.87632351 0.02016317 0.01373350 0.02526834
H 0.72492394 11.76399323 22.44646276 -0.00007276 0.00594985 -0.01903534
H 3.74609883 17.10279818 19.63102240 0.00167266 -0.01868284 -0.02570617
H 3.37893911 14.82587752 21.61583952 -0.01184906 -0.00806072 0.00209474
H 1.47593828 9.54987446 19.76887897 0.00751584 -0.00770194 0.01850075
H -1.29941132 14.32209834 14.10184793 0.00836462 -0.02339620 0.01004947
H 0.99224694 19.27117769 15.48355609 -0.00855772 0.00485069 -0.00958916
H 4.55379619 12.71484174 20.28324685 0.00596380 0.03149572 -0.01146422
H -1.10181688 17.72005945 21.81371353 0.00581608 -0.02336115 0.01708591
H 16.88258334 16.68311951 15.11485511 -0.00335961 0.01123083 -0.00254481
H 2.71637569 10.36345534 13.00903621 0.02018877 -0.02456020 0.02612895
H 17.75154156 13.45986759 19.78140223 0.01952093 0.00466816 -0.01806717
H -0.47245317 19.21500772 22.43110589 0.00116468 -0.00004573 -0.00448057
H 4.87707268 15.81559485 15.44735485 -0.00350659 0.01121922 0.02552700
H 1.14973765 10.24216573 13.55820560 0.00095275 0.01976927 -0.01097257
H -1.49047992 12.34151202 20.42901859 -0.00901989 0.00216538 0.00321293
H 0.62487569 18.06273503 21.45586673 0.00005475 0.01260671 0.01411285
H 3.46580211 16.81674296 15.19558300 0.00875675 0.00320600 -0.00290292
H 2.03428852 11.82515447 13.83985937 0.00275673 -0.00770840 0.00553837
H 16.92031280 18.52938779 26.29475364 -0.01733656 0.00289280 0.00815125
H -0.52628657 14.16351279 27.23151662 0.01360354 0.00642868 -0.00257594
H 1.94746040 10.33426982 32.72963092 0.04397868 -0.01318278 -0.01386595
H -0.49924785 14.80163569 32.02368540 0.02141312 0.03275132 0.00911338
H 2.49208460 18.23286745 24.47079170 0.00650536 0.02780241 -0.00622003
H 0.72901215 12.98375551 29.23305389 0.00911113 0.00886855 -0.02402514
H -3.75373267 11.18395499 34.93949487 0.00146276 -0.01391421 -0.01225156
H -1.93170840 15.94241962 30.45495999 -0.01017296 -0.00090007 0.00830481
H 0.91907108 16.35786508 34.10604978 -0.01339147 0.00597614 0.00081463
H 0.67286134 11.33899493 30.90888805 -0.00134841 -0.01376980 -0.00229967
H -1.92957010 12.35438750 25.01661408 -0.00718772 -0.00747107 -0.01089917
H -1.92015062 17.60339074 28.67565170 -0.02869290 0.03576649 -0.00654482
H -0.55039488 15.22738011 23.58981539 -0.01958757 -0.00395671 0.00953749
H -3.47539746 10.33934805 29.69840659 0.00202903 0.00689681 -0.01359255
H 3.84531974 13.75112671 0.28229040 -0.01489035 0.00154192 -0.02224725
H 2.15646015 18.57703584 29.32970166 0.04820092 0.01582185 -0.01408724
H -0.50244719 16.99591445 25.34230232 0.00233128 0.00003908 -0.01016850
H -3.34951112 12.11271829 27.99512169 0.00640958 0.01912935 -0.00855746
H -0.94172111 11.90043401 34.07590872 -0.00078446 0.01665269 -0.00721205