2160
Time=48000.00000003 pbc="T T T" Lattice="20.61225287 0.00000000 0.00000000 0.00000000 28.90678216 0.00000000 -4.73078487 0.00000000 35.58594424" energy=-13803.54151720 virial="-108.69018166 35.67684737 71.88584172 35.67684737 -21.75209790 5.45254790 71.88584172 5.45254790 -24.63573090" stress="-0.00282515 0.00165622 0.00340251 0.00165622 0.00123606 0.00033230 0.00340251 0.00033230 0.00122423" Properties=species:S:1:pos:R:3:vel:R:3
O 0.86309357 8.68021450 2.32401018 0.00143217 -0.00049826 0.00057543
O 1.71744370 3.61774363 3.34375001 0.00309096 -0.00011559 0.00019960
O 4.72469932 1.02197550 9.52371072 0.00022373 0.00357259 -0.00178175
O 3.09744177 5.90750738 8.35837862 -0.00199492 0.00174593 -0.00007584
O 1.19652730 5.00821946 9.78896541 0.00327842 0.00168102 0.00218688
O -0.26580381 10.17215173 8.49018029 -0.00263919 -0.00029374 0.00065975
O 3.73713789 4.75109534 2.20763987 -0.00134744 -0.00778878 -0.00101049
O 5.60172456 0.07301134 3.84530531 0.00051927 -0.00040053 0.00639821
O -0.65798322 8.58642501 14.37967571 0.00448189 0.00240024 -0.00618444
O 0.11122876 3.89842381 15.57693345 0.00316545 0.00176409 0.00315426
O 3.04178611 1.00189983 21.15482805 -0.00718425 -0.00352655 0.00473965
O 1.88799042 5.94672973 20.18287140 -0.00327453 -0.00322563 -0.00455869
O -0.28531104 4.66446042 21.57618530 -0.00352114 0.00011599 -0.00456616
O -1.82808451 9.57377867 20.04386578 -0.00417718 -0.00616354 -0.00248291
O 2.18803314 4.56138129 14.23799405 -0.00120895 -0.00371742 -0.00230182
O 3.86190842 0.01376862 15.47535917 -0.00375152 -0.00298244 0.00689613
O -2.78012400 8.14761651 26.26512602 0.00416280 -0.00034224 0.00069388
O -1.28063115 4.06078199 27.43632852 -0.00047209 0.00105827 0.00009050
O 1.38337807 1.22939085 32.88220927 0.00160304 -0.00062055 0.00224892
O 0.42041383 5.79906206 31.88443703 -0.00322459 0.00676312 0.00375719
O -1.81874158 5.06685865 33.19415564 0.00008491 0.00404358 0.00229376
O -3.33748467 9.64699444 31.89547092 0.00063452 0.00015240 0.00096056
O 0.73613491 4.77098164 25.82394610 -0.00000559 0.00071281 0.00240405
O 2.08315791 28.48137910 26.90571378 0.00409441 0.00098620 0.00010655
O 0.63559257 18.16006744 2.19407225 0.00370124 -0.00409469 0.00229021
O 1.75634797 13.37870384 3.58080445 0.00227534 0.00054616 0.00560946
O 4.54294340 10.69285027 9.57306177 0.00195837 0.00364326 -0.00408950
O 3.43987552 15.57381003 8.28996679 0.00363133 0.00487390 0.00178842
O 1.38983104 14.57691344 9.56987797 -0.00098789 -0.00307675 -0.00126487
O -0.04814829 19.63327004 8.41001766 0.00533015 -0.00132732 0.00067493
O 3.85172483 14.57409809 2.03843676 0.00174978 0.00350482 0.00046636
O 5.56626085 9.65567924 3.70221860 0.00367823 0.00011058 -0.00941603
O -0.87106430 18.09680705 14.41350655 0.00327856 -0.00622150 -0.00086475
O 0.27895578 13.40112519 15.36592627 -0.00733660 -0.00589979 0.00374090
O 3.00976965 10.84287356 20.86888000 0.00353957 0.00244682 0.00102584
O 1.96625669 15.47278347 20.43109891 0.00657240 -0.00037134 -0.00077561
O -0.30619161 14.60358592 21.44977911 -0.00247670 0.00390866 -0.00004547
O -1.74487370 19.42010457 20.38192288 0.00522329 0.00042473 0.00202926
O 2.52713074 14.40299119 14.22276493 0.00182138 0.00286545 -0.00246975
O 3.91852260 9.62659066 15.24689451 0.00881088 0.00018020 -0.00348998
O -2.27078016 18.21656827 26.33326303 -0.00096066 -0.00463854 0.00755010
O -1.18656480 13.06345267 26.96758515 -0.00358850 0.00328871 0.00516733
O 1.37906037 10.72189964 33.17949097 0.00806236 0.00545002 -0.00032422
O 0.24920492 15.54310478 32.11230503 -0.00229120 0.00396650 0.00345472
O -1.95787286 14.45069399 33.09922746 -0.00162412 0.00725773 0.00044218
O -3.26289776 19.30267458 32.16196734 -0.00240666 -0.00219963 0.01209233
O 1.01636093 14.19426108 25.96930266 -0.00377612 -0.00262348 -0.00125837
O 2.35016999 9.68390590 27.28001641 0.00616981 0.00309990 -0.00101538
O 0.86000683 27.74241477 2.49504263 0.00008446 0.00243613 0.00806977
O 2.23476214 23.16930585 3.74576027 -0.00217761 0.00388133 0.00005840
O 4.41139130 20.06591769 9.75366565 -0.00172441 -0.00305555 -0.00198343
O 3.34509705 25.04473799 8.32355623 -0.00245747 -0.00059244 0.00774715
O 1.32114141 24.07068999 9.59466259 0.00517264 0.00459693 -0.00338878
O -0.27407143 0.12743946 8.24034590 0.00037451 -0.00113472 0.00309580
O 4.16190910 24.07085726 2.28865338 0.00539956 -0.00111809 0.00019971
O 5.55732237 19.44173717 3.88771281 0.00064953 -0.00227032 -0.00236911
O -0.91771709 27.88516963 14.15214135 0.00324206 -0.00027312 0.00235058
O 0.49260268 23.07851945 15.78061386 0.00246421 -0.00261921 -0.00727666
O 3.11769041 20.23174769 21.41496887 0.00458051 -0.00340287 0.00491944
O 2.06725077 24.85911598 20.01826838 -0.00393396 -0.00059260 0.00572351
O -0.06271580 24.10144778 21.44757704 -0.00179515 -0.00072887 0.00218564
O -1.78845151 0.09829298 20.21982304 -0.00292073 0.00270868 0.00421198
O 2.35006676 24.05346711 14.40276232 0.00212343 0.00342572 0.00264667
O 4.00371723 19.20290382 15.69103110 -0.00217782 -0.00764783 0.00041409
O -2.32906257 27.74700202 26.09760823 0.00448009 -0.00370624 -0.00240677
O -1.08810011 22.59398576 27.19443823 -0.00088845 0.00227123 0.00110731
O 1.60886940 20.32784457 33.14588482 -0.00339026 0.00113508 0.00157042
O 0.25815164 25.06464346 31.92927260 -0.00046656 -0.00021794 -0.00307282
O -1.83576388 23.90033729 33.19169086 -0.00860520 -0.00925891 0.00040011
O -3.45866126 0.04892494 31.76512457 -0.00134320 -0.00075267 0.00692262
O 0.78001690 23.98948079 25.88469599 -0.00421923 0.00301144 -0.00455856
O 2.37192007 19.14872272 27.17135507 0.00168277 0.00337337 0.00257150
O 7.49763403 8.59413824 2.58249105 -0.00200748 0.00292601 0.00086501
O 8.63347449 3.98099087 3.59825168 -0.00428369 -0.00382107 0.00565441
O 11.30708431 1.06405730 9.43302746 -0.00452596 0.00096077 -0.00283840
O 9.98713836 6.23536850 8.45645473 0.00308983 -0.00447292 0.00378905
O 8.07842586 4.87870546 9.42027426 0.00335454 0.00253435 0.00044090
O 6.54712802 9.73205516 8.09750912 -0.00507651 -0.00335020 0.00366702
O 10.86839756 4.75281133 2.32903657 -0.00131151 0.00954163 -0.00320702
O 12.34155136 28.80840584 3.51865611 0.00202800 -0.00450356 0.00001658
O 6.10354148 8.45343854 14.33356450 -0.00459136 0.00108360 -0.00443275
O 6.92675756 3.82070108 15.49530961 0.00125544 -0.00056881 0.00944875
O 9.86790556 0.86215854 21.44846347 -0.00395339 -0.00246869 -0.00281918
O 8.72857335 5.76886583 20.08801672 0.00102433 -0.00234431 0.00279702
O 6.63343825 4.79185804 21.41073327 0.00080801 -0.00125469 0.00698857
O 5.08895675 9.67310401 20.04675166 0.00121906 -0.00503677 -0.00475046
O 9.01253780 4.77503570 14.23750811 -0.00646608 -0.00354690 0.00049635
O 10.77133484 28.80559524 15.34442967 0.00248695 -0.00303794 0.00162196
O 4.64486754 8.49297178 26.07734974 -0.00226691 -0.00217982 0.00437964
O 5.62843882 3.75109411 27.07446744 -0.00555841 0.00045034 0.00600037
O 8.10250266 1.37772457 32.76334892 -0.00235432 0.00460817 0.00149161
O 6.86284829 6.10060404 32.42744670 -0.00282600 -0.00164753 0.00445926
O 4.98660321 4.67583287 33.46819133 -0.00258981 -0.00042460 -0.00212561
O 3.40835305 9.70608836 31.87633688 0.00194922 0.00276003 -0.00584311
O 7.65466797 4.85030457 25.94780307 -0.00117929 -0.00399374 -0.00346545
O 9.49166180 28.57342614 27.34878571 -0.00373160 -0.00395697 0.00146590
O 7.70919418 18.30504947 2.32774805 -0.00094899 0.00346353 -0.00272754
O 8.63775667 13.51520251 3.44257154 0.00385722 -0.00467681 -0.00520555
O 11.24700958 11.00480478 9.36521750 0.00221520 -0.00443469 -0.00679024
O 10.13557409 15.78235143 8.39878261 0.00082083 0.00766916 -0.00030219
O 8.20508416 14.55776667 9.58470775 -0.00241998 -0.00521334 0.00064530
O 6.52368192 19.51949338 8.50372104 0.00490027 0.00144230 0.00182164
O 10.67655118 14.60080886 2.21994956 0.00048695 0.00012623 0.00478785
O 12.31463204 9.35782309 3.66094853 0.00265312 -0.00434746 -0.00845125
O 6.03179620 18.22606870 14.37621117 0.00231279 0.00079131 0.00072972
O 7.19403520 13.35907986 15.54756520 0.00638225 -0.00439274 -0.00025768
O 9.65655725 10.63445258 21.18362060 -0.00585464 -0.00179087 -0.00036093
O 8.61778033 15.49919884 20.27660206 -0.00464961 0.00079589 -0.00269514
O 6.84380072 14.38960227 21.75014076 0.00279457 0.00063592 -0.00031646
O 5.11489723 19.47186409 19.88618523 0.00015916 -0.00006330 -0.00438172
O 9.22179464 14.35106284 14.30311825 0.00020226 -0.00131376 -0.00574461
O 10.83922269 9.47209960 15.31303248 -0.00151566 0.00359615 0.00579043
O 4.69346220 18.22076253 26.19380590 0.00480984 -0.00708724 0.00435692
O 5.80648720 13.48392336 27.32375348 0.00053644 0.00461369 0.00305874
O 8.15487726 10.81757877 33.19659893 -0.00126880 -0.00321051 0.00088559
O 7.25264043 15.40422236 32.00931970 -0.00176829 0.00042937 -0.00270200
O 5.05398404 14.38565773 33.41295291 -0.00025066 0.00269439 -0.00280652
O 3.44327430 19.10638131 31.58003757 -0.00082036 0.00406202 -0.00230870
O 7.91263383 14.36116745 26.09115896 -0.00307812 -0.00299854 -0.00352757
O 9.47067119 9.50683014 27.53310536 0.00051538 0.00139292 0.00353402
O 7.69299931 28.03050827 2.11812705 0.00098879 -0.00500783 -0.00058837
O 8.82495923 23.18550412 3.61628354 0.00275627 0.00096358 -0.00328557
O 11.50146638 20.16517799 9.67788035 -0.00118376 0.00212110 0.00007248
O 10.22446211 25.08413327 8.32875178 0.00445705 0.00515801 0.00174773
O 8.26738388 24.16759885 9.81111462 -0.00439630 -0.00503831 0.00159202
O 6.68859132 28.61190832 8.23977621 0.00683264 -0.00150945 0.00062845
O 10.77293549 24.19893375 2.12557298 -0.00352462 -0.00033438 0.00140954
O 12.49100695 19.47487224 3.59129142 -0.00305873 0.00402342 0.00152507
O 5.91104321 28.06913018 14.22894322 -0.00134667 -0.00419902 0.00102862
O 7.42122263 23.27813773 15.21978651 0.00150157 -0.00435752 0.00014976
O 9.70939314 20.54543414 21.07247735 0.00031978 0.00579702 -0.00261387
O 8.89970090 25.09980843 20.15012857 0.00025604 -0.00028204 -0.00098911
O 6.79261342 24.22035092 21.42286750 -0.00367705 -0.00212003 0.00358031
O 5.21381338 28.82450569 20.12900710 0.00254454 -0.00277404 0.00451416
O 9.30775547 24.26174601 13.97948556 0.00419515 0.00138836 -0.00489368
O 10.79419555 19.05193463 15.60944859 0.00858866 -0.00004092 -0.00355109
O 4.44963427 27.80483321 26.17682475 0.00406753 0.00287699 -0.00665602
O 5.70439887 23.34883854 27.14757464 -0.00206892 -0.00594510 -0.00118218
O 8.42749125 19.94263510 33.50116611 0.00175731 -0.00014284 -0.00144606
O 6.86634619 25.45648542 32.35569828 0.00911337 -0.00570176 -0.00322731
O 5.08016365 23.97779082 33.32202230 0.00022423 -0.00114097 0.00319653
O 3.34773061 28.89483398 31.71067486 0.00198985 0.00123069 0.00348583
O 7.81994546 23.84714737 26.02690508 0.00076922 0.00225511 0.00546134
O 9.33559409 19.30586631 27.46232088 0.00624051 -0.00444578 -0.00053284
O 14.39725205 8.52026177 2.39596085 0.00164256 -0.00679219 0.00150733
O 15.45460410 3.78683070 3.47824436 -0.00104746 -0.00124215 -0.00174510
O 18.17819403 1.31616538 9.26493916 0.00232857 0.00026532 0.00424856
O 16.85299691 6.31485123 8.53042739 -0.00592807 -0.00649000 0.00449822
O 14.84067629 4.94981005 9.50445873 0.00175456 -0.00449408 -0.00076823
O 13.36580284 9.92895970 8.25862378 0.00029132 0.00425954 -0.00153167
O 17.62194948 4.40431895 2.23730591 0.00004436 -0.00451299 -0.00147203
O 19.21770628 28.47310985 3.72664352 -0.00504418 0.00865613 -0.00004374
O 13.02373970 8.52456546 14.25432104 -0.00101376 -0.00101440 0.00287709
O 13.84236863 4.01082745 15.47363832 0.00105244 0.00637080 -0.00557769
O 16.65459914 1.31848683 21.07713044 -0.00468880 0.00315904 0.00601310
O 15.70861353 5.65653074 20.12457096 -0.00298120 0.00537893 0.00194452
O 13.41809044 4.90317653 21.22170843 0.00310153 0.00435185 0.00165680
O 11.75309700 9.51933115 19.90547561 0.00097385 0.00189393 0.00382109
O 16.19807562 5.26703849 13.99481862 -0.00102674 0.00612999 -0.00140447
O 17.71057380 0.11337837 15.43580499 -0.00006507 0.00325734 -0.00246349
O 11.35215374 8.68448980 26.05121111 0.00262681 0.00618022 0.00551575
O 12.43531636 3.43746327 27.01257028 -0.00343161 -0.00069987 -0.00207001
O 15.11987079 0.83479812 33.23457548 0.00050374 0.00543920 0.00000770
O 14.15694648 5.73506876 31.89635659 0.00174233 -0.00193455 0.00489348
O 11.85648808 5.15142539 33.13685323 -0.00576368 -0.00182607 0.00539616
O 10.39762417 10.13923350 31.99282137 0.00502816 0.00074719 0.00759185
O 14.58994436 4.49692858 26.14626938 0.00423450 -0.00244906 -0.00602943
O 15.82219655 28.39717313 26.81000050 0.00374980 0.00410894 0.00311484
O 14.47249332 17.84463843 2.32296022 -0.00316611 -0.00596509 0.00314561
O 15.76926365 13.53666254 3.72905513 -0.00271934 0.00104680 -0.00481844
O 18.16568813 10.82532197 9.60802624 -0.00511368 0.00064329 0.00371687
O 17.24280224 15.62028346 8.31195249 0.00327068 -0.00359448 -0.00065072
O 15.03888665 14.61534716 9.44612614 -0.00067750 0.00147418 -0.00270493
O 13.56135088 19.45191865 8.24010789 0.00201535 0.00231021 0.00012170
O 17.67327751 14.31702566 2.25186960 -0.00129133 -0.00093787 0.00446651
O 19.21840750 9.49854551 3.67059525 -0.00344274 -0.00221017 -0.00469522
O 12.87529123 18.15090390 14.35473472 -0.00567010 -0.00088712 0.00005818
O 14.08856531 13.11655696 15.32098431 -0.00012351 -0.00004739 0.00423025
O 16.74966125 10.52553953 21.34466103 0.00133166 0.00255843 0.00397071
O 15.38771563 15.60882846 20.40795047 -0.00117960 0.00417813 0.00138331
O 13.47335659 14.20865011 21.51833865 0.00213248 0.00037007 0.00255999
O 11.93035257 19.20308246 20.36243191 -0.00091801 0.00001111 -0.00575652
O 16.23440054 14.45785924 14.45800020 -0.00588818 0.00069367 -0.00569342
O 18.03490272 9.48157283 15.77925062 0.00460094 0.00459044 0.00066404
O 11.30830096 17.96901614 26.07050398 0.00203281 -0.00253638 -0.00127406
O 12.54876695 13.39528771 27.14695543 0.00254019 -0.00074619 -0.00056852
O 15.21594135 10.74971397 32.99084643 -0.00057093 0.00351500 0.00493449
O 14.12090884 15.50672043 31.92994375 -0.00200277 0.00350536 -0.00684937
O 11.90342931 14.19726914 33.16708042 -0.00552293 0.00625641 0.00123264
O 10.50159282 19.40052473 32.02401304 -0.00077379 -0.00090011 -0.00015867
O 14.57999682 14.28695304 25.93720751 -0.00138131 0.00339315 -0.00448111
O 15.85324828 9.84673937 27.32272263 -0.00173856 0.00249261 -0.00379948
O 14.54489264 27.71706096 2.40188634 -0.00300212 -0.00373078 -0.00057547
O 15.75738711 23.06203676 3.27343451 -0.00817591 0.00369524 0.00053558
O 18.31655076 20.31786310 9.47985286 -0.00159529 -0.00375016 -0.00602197
O 17.08699477 25.24426600 8.46910110 -0.00061667 0.00546101 0.00272989
O 15.08597465 23.97389075 9.70045841 -0.00174890 -0.00034772 -0.00263545
O 13.44752545 28.89673185 8.49136247 -0.00347471 0.00180376 0.00030357
O 17.88258630 24.08178490 2.10904473 0.00088763 -0.00101963 -0.00189233
O 19.29205538 19.24743070 3.56637026 0.00042326 -0.00441129 -0.00984879
O 12.84592909 27.71637216 14.43963803 -0.00300771 -0.00399385 0.00239382
O 13.93373731 22.89943484 15.63467401 -0.00481315 -0.00426860 -0.00114786
O 16.83035777 19.94738658 21.74136923 0.00112083 0.00524047 -0.00235496
O 15.65598619 25.10583747 20.00198677 -0.00256322 0.00122561 -0.00469745
O 13.70608837 24.21194798 21.34564483 -0.00920164 -0.00102050 0.00249031
O 11.91400582 0.13925277 20.01273980 0.00389161 0.00017423 0.00345475
O 16.19822991 23.90941979 14.37410592 -0.00046022 0.00380612 -0.00346907
O 17.59875649 19.12738051 15.49221840 -0.00054195 -0.00291855 0.00202793
O 11.51651834 27.53594592 26.11534777 0.00573530 0.00383018 0.00048557
O 12.46965800 22.94900045 27.13183710 -0.00156238 -0.00059866 0.00244159
O 15.08342986 20.13963049 33.13117147 -0.00652136 -0.00220156 -0.00773188
O 13.90944003 25.36423202 32.10950372 0.00359540 -0.00014147 0.00118742
O 11.86539336 23.90486334 33.12267159 -0.00055978 -0.00065414 0.00220195
O 10.33982829 0.14233792 32.00430867 0.00053444 0.00282685 -0.00142753
O 14.51369057 23.97450108 25.93022085 0.00045096 -0.00001082 0.00074445
O 16.28930891 19.18953483 27.34060516 -0.00015985 -0.00464760 -0.00010729
H 0.00465744 9.05220347 2.65689576 0.05289895 -0.01728985 0.00507289
H 2.52057220 4.19914937 3.18419521 0.00134825 -0.01837366 0.01521521
H 5.64386269 0.83522146 9.20981775 0.01734693 -0.00780186 -0.01250756
H 2.20821071 5.78228022 8.72007459 -0.00774141 0.01910916 0.01250818
H 5.67920084 8.48522613 0.71176455 -0.01411516 0.00505035 0.01711960
H 3.64369289 3.47965517 5.00631792 -0.00069728 -0.01127742 0.00505054
H -0.40268783 1.57793228 10.77010805 -0.00069326 -0.00354120 -0.00746124
H 1.43948427 6.11719303 6.34223804 0.00790832 0.01677070 0.00530056
H 3.80581184 6.64874092 10.84250448 0.02055648 -0.00025226 -0.01562411
H 3.74671619 2.03121424 7.03857203 0.00936335 0.01340265 -0.00523275
H 1.04881384 2.82613241 1.30732230 0.00141698 0.00853028 0.00868284
H 1.57525694 7.97249292 4.54347801 0.00883376 -0.00425499 -0.02571339
H -1.95797430 5.46444718 35.41666475 -0.00657593 -0.01464595 -0.00525100
H -0.09882022 0.60366319 6.22916500 -0.00518499 -0.02063073 -0.02255376
H 2.53231098 4.17796110 11.81941838 -0.01526514 0.02744787 0.02770534
H 5.33404307 9.19796492 6.00846982 0.02193511 -0.00352690 0.01557465
H 2.82334665 7.30499983 1.53465463 -0.00873649 -0.00366287 -0.01448347
H -0.22972770 2.16822932 4.13110351 0.00739910 -0.01155600 -0.00326782
H 2.65681527 2.57862845 10.14587298 0.00351294 0.02440733 -0.00439311
H 5.03180165 7.69168260 8.02780580 0.00345619 -0.00917610 0.00703126
H 4.89660836 4.89365005 9.80762650 -0.00357220 -0.01512879 0.00228697
H 2.88451664 0.20463726 8.18604088 0.00344350 -0.01651595 -0.01061407
H 0.15142577 4.56952399 2.29480667 0.00023405 -0.00277445 0.01189101
H 2.41001725 9.56266613 3.67528732 -0.01066956 0.00834729 -0.01107476
H 5.47570510 3.96688438 7.73016478 -0.02187593 -0.02329389 -0.00992884
H 1.71794427 9.50465716 10.54843087 -0.01034153 -0.00580226 0.00080621
H 19.87004855 5.20387037 4.38577261 -0.00787334 -0.00524158 0.00548540
H 5.04094266 1.56830078 1.83793499 0.00809583 -0.00850735 -0.00837045
H -0.84935941 4.44373520 7.48169646 -0.00719040 -0.00443665 0.00533690
H 1.76209309 8.00521911 9.72963588 -0.02540995 -0.00692906 -0.00718129
H 4.59435694 5.68178237 4.58803463 0.01456577 0.00588757 -0.00346406
H 3.56605372 0.60471527 1.60469764 0.02279437 0.03113842 -0.00805708
H -0.81172793 2.91871140 8.51903443 0.00880510 0.01002702 0.01665037
H 0.21418323 8.60270398 10.45595693 -0.00991055 0.00750382 -0.01833952
H 6.28762879 5.32635605 4.20906773 0.00210278 -0.00503216 -0.00489568
H 3.47631081 1.91373775 2.68775176 -0.01671892 0.02495144 0.00297339
H -1.54018172 8.96715770 14.77203378 -0.01188637 0.00575516 0.03295215
H 0.97778693 4.17261337 15.17667922 -0.02101286 -0.00217356 0.01721408
H 3.91879968 0.59684162 20.94213551 0.00751834 -0.01428555 0.02215651
H 1.06495491 5.56501721 20.47872976 -0.02835558 -0.00790201 -0.00535401
H 3.93676639 7.96802863 12.93800208 -0.01230888 -0.00482410 -0.03626550
H 2.12873748 3.48930606 17.20990034 0.01556185 -0.00882881 0.00398566
H -1.93667319 1.37386801 22.94540714 0.00422994 0.00353065 0.00823539
H -0.22839892 6.30380785 18.53745599 0.03168588 0.01862378 -0.01868127
H 2.52288391 6.78578262 22.51358708 -0.01023164 0.03499183 0.00274896
H 2.32014017 1.62996018 18.87377486 0.00286492 0.00065555 -0.01633138
H -0.35575321 2.89005721 12.94252657 0.01493806 0.00793840 0.01387282
H -0.15501319 7.73024195 16.49521502 0.00264225 0.00854945 -0.03890036
H 0.94175126 5.20563353 11.92330588 -0.02600868 -0.01044041 -0.00212876
H -1.70684468 0.53280637 17.95855913 0.01690163 0.02118459 -0.00368030
H 1.03502735 4.31118965 23.67984378 -0.03018380 0.00168123 0.00065612
H 3.86333756 8.97645133 17.41634153 0.01474222 0.01346745 0.00034003
H 1.10845925 6.84786620 13.82372558 0.00367371 -0.00193038 -0.03723676
H -1.91643492 2.45126819 16.26661927 -0.01547315 -0.02065339 0.02538949
H 1.06827534 2.54152194 21.73937649 -0.01660931 0.01079414 0.00220426
H 3.85847965 7.47872548 19.38006526 -0.01412021 -0.01297946 -0.01349350
H 3.33407819 4.79604016 21.43869045 0.03352165 0.00663471 -0.00335654
H 1.23166837 28.76996597 20.18629209 -0.00348236 0.00249426 0.00083964
H -1.33095491 4.46804099 14.26369865 -0.00686275 -0.00267542 -0.00060657
H 0.79511787 9.74744391 15.63819482 0.02112681 -0.01387981 0.00667245
H 5.37068594 2.76988988 19.91957635 -0.00464299 -0.00079992 -0.01538061
H -0.74680894 7.65071329 21.55380848 -0.00460325 -0.00274233 0.02473305
H -2.01105411 5.55523529 16.19912602 -0.01593506 -0.02233292 -0.04311245
H 3.28230143 0.95622110 13.37818819 0.02514613 -0.02041589 0.00316263
H -2.57211144 3.61103658 19.54681509 0.00722153 0.01658833 -0.00560475
H -0.64027945 9.20279254 22.50284648 0.02384743 -0.00902397 0.01879843
H 4.16038463 5.03149451 16.55936525 0.01618293 0.01894888 0.00548997
H 1.53050413 0.98238504 13.55089200 -0.00929671 0.00054598 -0.00128978
H -1.43361770 2.50856200 20.47595142 0.01308502 0.00260857 0.01465926
H 0.80043552 8.51062694 21.77317931 -0.01597289 -0.03388151 -0.00574242
H 4.33503477 6.43765158 15.64463749 -0.03363940 0.01092278 -0.00365625
H 2.58190620 2.31999377 14.17429937 -0.01650172 -0.00335516 0.01321148
H -3.49455051 8.86171347 26.33083500 -0.01673340 0.00334205 0.00770642
H -0.38036367 4.52243940 27.28521494 -0.01644757 -0.01343448 0.01453362
H 2.26561172 0.69634071 32.55689938 0.00338678 -0.00006315 -0.00424666
H -0.47740596 5.45319143 32.27947095 0.01398474 0.01224501 -0.00804527
H 2.69186567 8.21197652 24.42638055 -0.00637986 -0.01112284 -0.00579940
H 0.86638464 3.29213822 28.98423660 -0.00186715 0.01309254 -0.01113607
H -3.67135411 1.04437071 35.11283491 -0.01697212 0.01245287 0.01753950
H -1.39537777 5.90339339 30.05649044 -0.00582206 0.02943395 -0.00874624
H 0.88033709 6.87207870 34.40649857 0.00012710 -0.01510234 -0.01290084
H 0.64288994 1.76064868 30.98110071 -0.02961314 0.00023553 -0.00134217
H -1.98351612 3.16114305 24.74699122 0.00153548 -0.00653263 0.00294669
H -1.62591059 7.65984166 28.30323404 -0.00454097 -0.02557894 0.01507987
H -0.52116858 5.40961889 23.37452841 -0.01025088 -0.01199120 0.00835709
H -3.26860701 0.81662366 29.79571855 -0.00795507 0.00946957 0.01448611
H 3.96610675 4.16677770 0.03847686 0.01829001 0.01040381 -0.01067627
H 2.20030801 9.16502644 29.44486755 0.00393231 0.01236317 -0.01176534
H -0.52645970 6.86563146 25.41236269 0.01212576 -0.02247143 -0.01709072
H -3.27245810 2.52166869 28.08934062 0.02712492 -0.00130652 0.01907279
H -0.55605401 2.88616489 33.60021759 -0.01638734 -0.00645746 0.00218561
H 2.32018419 7.53839287 31.24932580 0.03952774 -0.02476357 -0.02606791
H 1.85620575 5.05088007 33.28595195 0.02067138 0.01954926 -0.01276721
H -0.41566514 0.29860238 32.14781323 -0.01998705 -0.00340820 0.00685297
H -2.91305915 4.76005944 25.86316207 -0.00987031 -0.00038228 0.00986808
H -0.77620778 9.33704881 27.26746334 0.00643436 -0.01510982 -0.01151621
H 4.06924908 4.01261323 31.07225805 -0.00507622 0.00914063 -0.00703527
H -2.58350576 7.94821631 33.73416657 -0.00877673 -0.00743541 -0.00549250
H -3.66386265 5.65748060 27.80764178 0.02435580 -0.00532184 0.00855696
H -0.43292851 1.22322288 25.66199837 -0.01381457 -0.00728339 0.00334866
H -2.22768134 3.63262410 31.43908613 0.01390175 0.01684430 -0.01253550
H -1.35170360 9.13239497 34.08275570 0.00802821 0.01478074 0.01448261
H 1.57392905 5.86140510 27.98391321 -0.03339175 -0.00502001 0.02578949
H 1.00100938 2.10217706 26.19454017 0.01330258 0.00639509 -0.01350961
H -3.89279225 4.07682346 31.08660503 -0.00023845 0.01560547 0.00788244
H -0.99771428 7.71509351 32.98344728 0.00978598 0.00607945 0.01180449
H 3.27560493 5.66337635 27.49076217 0.00463991 -0.01009688 -0.00205145
H 1.12985577 0.94755100 24.81231779 -0.00158032 -0.00580357 -0.00233276
H -0.25132596 18.45929940 2.53836891 -0.01552502 0.01404899 -0.02142604
H 2.66908880 13.69883728 3.38043880 -0.00416953 0.00330423 0.00359638
H 5.41675637 10.45042143 9.19181973 0.01142212 -0.00591046 -0.01182122
H 2.59997265 15.30589627 8.81302982 0.00999578 -0.02210322 0.00409031
H 5.73047601 17.96551078 0.60790047 0.01152182 -0.01624429 0.02762523
H 3.88357247 12.86444908 5.12423705 -0.00922800 0.01690582 0.00151230
H -0.43133880 11.20242499 11.16158028 0.00069676 0.02482751 -0.03247045
H 1.69357764 15.61383959 6.53118759 -0.01305870 0.00257218 -0.00166619
H 4.09436820 16.58981892 10.64467653 -0.01343695 0.02569971 0.02477883
H 3.76875177 11.48915363 7.14810911 -0.00849339 0.01623267 0.01472461
H 1.07603510 12.19817811 1.27574677 0.02620784 -0.00448257 -0.02810420
H 1.37373422 17.24361908 4.65940743 -0.00001664 -0.02039120 -0.01074255
H -2.17363932 14.91182641 35.43675185 -0.02200343 0.00127368 0.00278814
H -0.12500236 10.13357954 6.17315853 0.01491577 0.00719813 0.01776699
H 2.68035868 14.28421882 11.70681824 -0.00063568 0.01294794 0.00580021
H 5.34262955 18.72343681 5.69539505 0.01478040 0.01033360 0.00212903
H 2.68542029 16.74486954 1.42378784 -0.00306352 0.01490919 0.01818193
H -0.18925819 11.79464718 4.38678364 -0.00401179 -0.01977290 -0.01566151
H 2.63060398 12.59273463 10.17243397 -0.01125974 -0.03629673 -0.01349562
H 5.54086424 17.03824500 7.53312064 0.00949867 -0.02282998 0.02272235
H 5.11019186 14.83078944 9.64171973 -0.00624768 -0.00179857 0.03878302
H 2.86200526 9.72212699 8.26399409 0.00566822 0.00654685 0.02577650
H 0.14483738 14.17863526 2.15990870 0.02198462 -0.02152357 0.01565158
H 2.38442959 19.10841658 3.54969237 0.01347041 -0.02634640 -0.00375096
H 6.84382154 12.35051072 8.45881038 -0.01066772 0.01296374 0.01682460
H 0.76241415 18.38168066 10.66809511 -0.00031476 -0.00053864 0.01484323
H 19.64382839 16.51052890 3.50159673 0.01050138 0.01167109 -0.02762317
H 3.19874801 10.63958604 1.81249228 -0.00320769 0.01669938 0.01348703
H 0.02703612 13.90713427 7.25989058 0.01449169 0.03042155 0.00625271
H 2.18558486 17.69686364 9.64436094 0.00515803 -0.01137428 0.02290581
H 5.60509986 16.50948910 3.65653232 0.00598928 0.00540600 -0.02457248
H 4.11255042 11.99223911 2.42066761 -0.04540675 0.01690469 0.00210253
H 19.31026296 13.29684746 8.25038489 -0.00094970 0.01636634 0.02231958
H 0.46782190 17.08012870 9.42831587 -0.01099035 -0.02706668 0.01974175
H 4.51886612 15.45921909 4.58220848 -0.01254073 -0.00000846 -0.00598530
H 5.08716758 10.93600930 1.57566152 0.00862787 0.00899905 0.02960646
H -1.72940113 18.56199269 14.63214570 -0.00186682 -0.00331863 -0.02051335
H 1.20412385 13.78444630 15.02657993 0.02555246 0.00242397 -0.00815932
H 3.80210499 10.31427494 20.68115234 0.00651624 -0.05550885 -0.00518951
H 1.05264520 15.22121732 20.64206456 0.00241665 -0.00202528 0.00016155
H 3.96681783 17.75546945 12.70098411 0.01105783 0.01942671 -0.00434866
H 2.43978573 12.85387573 16.74044210 -0.00621264 -0.01070490 -0.00328427
H -1.86791783 10.92278510 22.91161688 0.01289127 0.00403318 0.03184412
H -0.06034613 15.78224152 18.49636713 0.00611259 -0.02258799 0.01450552
H 2.76648099 16.26056715 22.53047539 0.01661850 -0.02364849 -0.01844665
H 2.35263193 11.39527657 18.87294889 0.00721796 0.02128895 -0.01047179
H -0.39644479 12.48990361 13.19841856 -0.00573302 -0.01356573 -0.01927229
H -0.09299641 17.46057751 16.77872945 -0.00563102 0.00203133 0.02033286
H 1.21336758 15.04087062 11.90897949 0.00728835 -0.01690690 0.00525250
H -1.80462185 10.73206659 18.19146425 0.01309746 0.00466230 -0.01329225
H 1.26066114 14.03346339 23.66773291 0.01209712 0.00962054 -0.00193144
H 3.98134736 18.52887084 17.80838184 -0.01023011 0.01228188 -0.01737031
H 1.10782177 16.75803233 13.69377833 -0.01243492 0.00933575 0.00550488
H -1.68888794 11.88909659 16.12405304 0.02569421 -0.00987744 -0.01229322
H 1.07395946 12.44351125 21.66534895 0.01407650 -0.01754739 -0.01729374
H 3.98732451 16.92647349 19.56379210 0.02017565 0.00208508 0.00650298
H 3.54567774 14.45863762 21.70852920 -0.01615343 -0.02179034 -0.00477872
H 1.32909248 9.74596616 19.99433839 -0.00600840 -0.01897536 0.00755595
H -1.30210411 14.26992623 14.30844584 0.01295423 -0.01096084 -0.01214892
H 0.96124231 19.26102799 15.66121221 -0.00921204 -0.00543081 0.00966266
H 4.87870008 12.59581827 20.28611294 0.01019558 -0.02040819 0.01975049
H 0.71250768 18.14695346 22.06871293 0.00451006 0.01561980 0.00965408
H -1.82433779 16.19566601 15.50675064 0.03434002 0.00260802 -0.04433608
H 2.29004450 11.87565172 14.66176082 0.00835613 -0.01588687 -0.00037554
H -1.26812297 13.54737005 19.24592906 0.00925809 0.02340447 0.01665695
H -0.47162135 16.96525230 21.38336422 -0.01919972 -0.00435126 0.00967105
H 3.51056177 16.76924061 15.17708193 -0.02169165 -0.00228791 0.00101319
H 2.98960698 10.86261264 13.25959906 -0.01446869 0.02099402 -0.01122461
H 17.89840706 12.93060710 20.16634600 -0.00503807 -0.00992203 0.00720929
H -1.04625691 18.18838047 22.49540148 0.01931659 0.00713405 0.01376600
H 3.39953179 15.36976232 16.42478774 0.00640385 0.01709779 0.00773217
H 1.21711541 10.72775707 13.86053864 -0.01708851 0.01596706 0.01367417
H -3.13568465 18.59218584 26.69009118 0.01579121 0.00518414 0.00007570
H -0.37083294 13.54678704 26.66171473 0.01493579 0.01462532 -0.00689251
H 2.27498969 10.43853495 32.90884293 0.00558761 -0.00951044 0.02531121
H -0.58025908 15.15314824 32.47937076 0.02328038 0.00047122 -0.00273517
H 2.67281113 17.92639901 24.45399574 0.01365462 -0.01224090 0.00855498
H 0.81420079 12.86724618 28.69881154 -0.02006969 -0.00933856 0.00979882
H -3.55445265 11.00872661 34.76239664 0.03497942 -0.01195964 -0.00961217
H -1.64216897 15.63806141 30.47316103 -0.01414104 0.00221546 0.00189030
H 1.03631840 16.37617234 34.34311774 0.01933856 0.00406181 -0.00248159
H 0.71420337 11.75324885 30.87422757 -0.00653693 0.00809210 -0.00857555
H -1.88569398 12.38594350 24.86151039 0.00682162 -0.03243382 0.00298780
H -1.61793841 16.94687071 28.23269448 -0.00194845 -0.00926679 -0.02515217
H -0.38148301 15.13300424 23.60910248 -0.00650267 -0.00300755 -0.01186200
H -3.18951366 10.19102782 29.89194159 -0.01656846 0.00479852 -0.01164531
H 4.33204532 14.06600967 0.14789944 0.00190670 -0.00648428 0.00517312
H 2.23296678 18.46052517 29.46982462 -0.01722037 -0.00512256 -0.01527610
H -0.18977385 16.60483015 25.39822819 0.01849727 -0.02209427 -0.00209974
H -3.19064588 11.61246190 27.78404360 0.00426213 0.00897523 0.01589932
H -0.66764111 12.33316092 33.80170251 0.01802086 -0.01015221 -0.01549591