2160
Time=88000.00000005 pbc="T T T" Lattice="20.66756011 0.00000000 0.00000000 0.00000000 29.03834676 0.00000000 -4.71673348 0.00000000 35.37486332" energy=-13802.26768196 virial="-41.00934610 -10.39697520 31.68781694 -10.39697520 -31.11300604 -6.24016398 31.68781694 -6.24016398 -62.86614629" stress="0.00039834 -0.00053387 0.00152485 -0.00053387 0.00084315 -0.00029326 0.00152485 -0.00029326 -0.00078967" Properties=species:S:1:pos:R:3:vel:R:3
O 0.83892068 8.93028376 2.04448380 -0.00119208 -0.00427881 0.00325807
O 1.68361016 3.76674266 3.29254881 0.00662604 0.00294569 -0.00041219
O 4.61673024 1.28695596 9.44599940 0.00153611 -0.00057092 -0.00164059
O 3.32912235 6.01616997 8.36629519 0.00124380 -0.00113710 0.00115634
O 1.13621603 4.56264378 9.10546565 -0.00020478 0.00342947 0.00016416
O -0.24178303 9.60129781 8.13265727 0.00135017 -0.00082890 -0.00157684
O 3.63687762 4.79995806 2.01923671 0.00410582 -0.00068707 -0.00070130
O 5.60273033 0.01186893 3.81758733 0.00085107 0.00129218 -0.00426421
O -0.92219636 8.35155776 14.02855448 -0.00306964 -0.00302043 0.00157684
O 0.23448193 3.64549941 15.46626349 -0.00248827 -0.00529101 -0.00399170
O 2.88020086 0.79613371 21.51877072 0.00037863 -0.00387968 -0.00047688
O 1.96822237 5.98086044 20.12193720 -0.00453800 0.00816277 0.00343598
O -0.13396294 4.74606094 21.31058296 -0.00256368 -0.00362163 0.00065249
O -1.95727293 9.94314279 20.06766142 0.00853715 0.00159427 0.00043895
O 2.24805620 4.81004470 14.18816974 -0.00387396 -0.00288066 0.00548257
O 3.96848222 0.14432160 15.40607095 -0.00037812 0.00272272 0.00009201
O -2.35745991 8.42108980 25.74841633 -0.00135123 0.00179612 -0.00008149
O -1.21798833 3.64036857 27.07536525 -0.00008988 -0.00359677 0.00175061
O 1.27817882 0.94261558 32.98818553 -0.00148732 0.00082027 0.00055812
O 0.34654713 5.88243328 31.79485189 -0.00316785 -0.00347903 0.00091463
O -1.96209770 5.16672955 32.83883456 -0.00308812 0.00273572 -0.00835670
O -3.31024190 9.56937846 31.59924292 0.00013655 -0.00134859 0.00264011
O 0.71791468 4.95815695 25.89307051 0.00160319 0.00048159 0.00451535
O 2.46795576 0.11986043 27.25354175 0.00523716 0.00376839 -0.00450486
O 0.89630641 18.35861638 2.45130339 -0.00537219 0.00625790 -0.00041946
O 2.09385058 13.56131447 3.65145252 -0.00008614 -0.00055585 -0.00155109
O 4.35265797 10.73603721 9.51622025 -0.00273092 0.00729598 -0.00031349
O 3.43312241 15.67559225 8.44066796 -0.00047736 -0.00468570 -0.00007923
O 1.26813247 14.66952649 9.41357072 0.00180045 -0.00332965 -0.00227299
O -0.32470370 19.36886148 8.16468162 0.00354514 0.00323554 -0.00027943
O 4.18654822 14.49325415 2.38347474 0.00120101 0.00087464 0.00232991
O 5.59925691 9.57908875 3.57357999 -0.00260786 0.00281169 0.00107621
O -0.86709209 18.08321407 14.51174453 0.00107533 -0.00110022 -0.00696414
O 0.39488613 13.24316835 15.16960272 -0.00427027 0.00396212 -0.00148711
O 2.99318173 10.71126521 21.08977174 0.00246174 -0.00874658 0.00098262
O 1.97505890 15.38222706 19.98430600 0.00103892 0.00801078 0.00245598
O -0.20199072 14.68686887 21.32560456 0.00089073 -0.00407509 0.00209973
O -1.84335245 19.42595361 19.88101334 0.00072533 0.00018451 0.00180657
O 2.56258368 14.24971222 14.38295776 0.00557993 -0.00878001 0.00226585
O 3.86961333 9.48242193 15.37236287 -0.00261775 -0.00157538 0.00132186
O -2.45316331 18.53940064 25.86891700 -0.00486148 -0.00012295 -0.00614153
O -1.27190329 13.41379476 27.15093831 -0.00040129 -0.00113482 -0.00239335
O 1.35254018 10.78051656 32.95663073 0.00159723 0.00587527 -0.00094543
O 0.27329396 15.59229317 31.66997752 0.00437328 0.00132513 0.00703386
O -1.65584266 14.48067311 33.12240968 -0.00174700 -0.00267686 -0.00298454
O -3.34071890 19.37370881 31.55506252 0.00254243 -0.00535215 -0.00258839
O 0.89685412 14.45692736 25.93903146 0.00072271 0.00470344 -0.00164585
O 2.40091537 9.37394709 26.90672315 0.00135701 -0.00351533 -0.00444354
O 0.78251231 27.79852739 2.54089406 -0.00347085 0.00467666 -0.00669938
O 1.96186044 22.99208666 3.58145937 -0.00782621 0.00386980 -0.00110607
O 4.55459553 20.28033148 9.30651085 0.00736717 0.00512311 0.00489736
O 3.36022137 25.44182059 8.42779412 -0.00330212 -0.00596268 -0.00200693
O 1.47983393 24.17209489 9.60398625 -0.00016893 -0.00139082 0.00466529
O -0.17705229 0.08245045 8.17645840 -0.00082925 -0.00157949 0.00110110
O 4.19247896 23.74379519 2.56315926 0.00022353 0.00043604 -0.00143607
O 5.82058329 19.16153641 3.65671131 -0.00243340 -0.00149192 0.00072768
O -1.07183012 27.93628540 14.03402286 0.00061275 0.00390250 -0.00402789
O 0.21444152 23.04819229 15.13991088 0.00150570 -0.00312674 -0.00108446
O 3.07418727 20.51273613 20.97825427 -0.00229151 -0.00281341 -0.00355694
O 1.71064714 25.25306984 19.88850065 -0.00050172 -0.00334983 -0.00440632
O -0.51229951 24.80074238 21.18084742 0.00493652 0.00182593 0.00296430
O -1.86629501 0.02259124 19.95821371 -0.00076131 -0.00420150 0.00304549
O 2.41314879 24.19295791 14.00973037 -0.00225167 -0.00189990 -0.00030193
O 3.80730560 19.43581955 15.39993330 0.00034756 0.00035648 -0.00011491
O -2.52374378 28.30489792 25.86542571 -0.00338895 0.00238523 -0.00241595
O -1.26799691 23.53998670 27.12839332 -0.00439925 0.00103504 -0.00664269
O 1.50133563 20.37301195 33.04725162 0.00112115 0.00445346 0.00283660
O 0.13541619 25.57866337 32.06104528 0.00008248 0.00022156 0.00144921
O -1.83200502 24.16142374 33.16042264 0.00387306 -0.00605354 -0.00187571
O -3.48990194 0.40827680 31.92313498 -0.00452297 -0.00194375 -0.00166958
O 0.95714213 23.84630770 25.99450100 -0.00248893 0.00298491 0.00451391
O 2.36431501 19.35186245 26.92769850 0.00253422 0.00495883 -0.00458140
O 7.88631141 8.81078369 2.24677931 -0.00028146 0.00294557 0.00354993
O 8.56707041 3.96373788 3.53491922 -0.00154564 0.00166353 0.00139705
O 11.50467122 1.29921536 9.21907311 -0.00373659 -0.00055586 0.00022720
O 10.09432129 6.24589854 8.50475016 -0.00429627 0.00009491 -0.00070961
O 8.13607080 4.86690312 9.47701184 -0.00579020 0.00295716 0.00483192
O 6.74089259 10.22786085 8.41498619 -0.00401454 0.00076913 0.00396274
O 10.81784633 4.64850107 2.31935574 -0.00466309 0.00253566 -0.00225451
O 12.33579867 0.02254588 3.58595269 0.00220218 0.00096788 0.00072760
O 5.96127691 8.60023395 14.12008159 -0.00451263 -0.00321489 -0.00048160
O 7.35035835 3.54783475 15.16122655 -0.00214243 0.00233107 0.00135518
O 9.79599664 1.27729968 21.18676071 0.00524555 -0.00166790 0.00947419
O 8.80322837 5.62124982 20.15644117 0.00508132 0.00575206 0.00133653
O 6.71042743 4.78421008 21.33531280 0.00030191 0.00106859 -0.00911895
O 5.24618347 9.78701754 20.11207609 -0.00238690 0.00205834 -0.00189299
O 9.07421221 4.91436589 14.03099315 -0.00167199 0.00250365 0.00011111
O 10.94399814 0.40921548 15.64526026 -0.00652899 -0.00981790 0.00022015
O 4.56819215 8.68145485 25.63432727 -0.00006727 0.00422733 -0.00349115
O 5.72615480 3.79468797 27.20959271 0.00524930 0.00158511 0.00354343
O 8.08268876 0.73430446 33.24716216 -0.00107922 0.00549917 -0.00397715
O 7.09123368 6.09718593 31.87925400 -0.00019955 -0.00116591 0.00203780
O 5.00898846 4.83704915 32.88111625 -0.00081266 -0.00058793 -0.00089177
O 3.56754096 9.65520180 31.90135884 0.00293217 -0.00224110 -0.00208879
O 7.89167688 4.91048747 26.13856464 -0.00173048 0.00021087 0.00120291
O 9.12279640 28.80754481 26.95729563 0.00308628 -0.00783193 -0.00454081
O 7.85637343 18.35134730 2.46767509 0.00475870 -0.00632719 0.00196325
O 9.08124979 13.14026780 3.23111876 -0.00050712 0.00381617 0.00125531
O 11.93010841 10.82429898 9.62173395 0.00129170 -0.00251392 -0.00440680
O 10.25935097 15.81480571 8.62481466 0.00469153 -0.00092125 0.00590706
O 8.26506051 14.42144591 9.66175053 -0.00479535 0.00013605 0.00536936
O 6.75858117 19.20727000 8.05489726 0.00282803 -0.00139894 -0.00152037
O 11.14386860 14.64443850 2.44939974 0.00460886 -0.00130152 -0.00760198
O 12.55343670 9.75684411 3.76449877 0.00392847 -0.00449101 -0.00399214
O 5.85709987 18.22715302 14.37712086 0.00274757 -0.00246724 0.00958388
O 7.21223962 13.14087691 15.12736988 -0.00475961 0.00875228 -0.00137761
O 10.03852728 10.85546263 21.11212599 -0.00043127 0.00507438 0.00302508
O 8.91505868 15.41629867 20.06895727 0.00195665 0.00467650 0.00576330
O 6.61876646 14.73914911 21.09583971 -0.00060485 0.00474645 0.00299871
O 4.97438592 19.01232099 19.97907544 -0.00668202 0.00038955 0.00662106
O 9.39756057 14.27875346 14.20024569 0.00492210 0.00154295 -0.00281175
O 10.82774405 9.48845032 15.37369458 -0.00052411 -0.00191300 -0.00483257
O 4.29456921 18.20601719 25.81876762 0.00979982 0.00117208 -0.00229799
O 5.50382993 13.44928068 27.19291321 0.00020384 -0.00105641 0.00314263
O 8.50740583 11.15045929 32.79545628 0.00072225 0.00275796 -0.00393284
O 7.05651046 15.93478365 32.07092408 -0.00085287 0.00028113 0.00081553
O 5.14852348 14.58327000 33.26079530 0.00161875 0.00378113 0.00472507
O 3.52860047 19.47213577 31.63174035 0.00269666 -0.00511514 -0.00029366
O 7.47050229 14.10094350 25.55750954 0.00119890 -0.00080668 0.00193509
O 9.11366001 9.48733236 27.03401779 0.00124479 0.00361605 0.00126868
O 7.67869674 28.14237691 2.08759641 0.00269512 0.00209793 -0.00364766
O 9.27372895 22.68763121 3.29686879 -0.00062268 -0.00178452 0.00010395
O 11.52057732 20.75066237 9.31595554 -0.00116263 -0.00509730 -0.00101013
O 10.30681749 25.00101664 8.08091099 -0.00162544 0.00325827 0.00168356
O 8.21786380 24.38586483 9.59404563 -0.00219211 0.00813024 0.00188644
O 6.62680540 0.18093547 8.32328249 0.00497949 0.00641903 -0.00380697
O 10.95682327 24.44009031 2.44287315 -0.00018010 -0.00019660 0.00000239
O 12.63325333 19.06911204 3.51215599 -0.00253654 0.00126655 0.00431148
O 5.96511292 27.86824422 14.33872078 0.00338899 -0.00225939 -0.00013255
O 7.18281393 23.05951613 15.27885842 0.00118424 0.00379233 0.00044647
O 9.93877323 20.42876395 21.18126124 -0.00666996 0.00006275 0.00302854
O 8.79839073 25.17824330 19.82038737 0.00190686 -0.00010746 -0.00256094
O 6.61286546 24.45209041 21.13803482 0.00216221 -0.00055970 -0.00221384
O 5.14799306 0.33520748 20.21881892 -0.00024856 -0.00064015 0.00116661
O 9.23310542 24.14922535 14.24632635 -0.00214681 0.00501568 0.00651408
O 11.02272319 19.23321502 15.48198767 -0.00207545 0.00242603 -0.00023804
O 4.47242909 27.73107696 26.07798487 0.00454738 0.00053102 0.00270537
O 5.48510184 23.41269172 27.14273404 -0.00326495 0.00194049 -0.00270605
O 8.35638761 20.33616686 33.17247129 0.00356986 0.00390167 -0.00890463
O 7.14416577 24.81873454 31.56240177 0.00493481 -0.00004192 0.00149010
O 4.90976279 23.98247484 33.23112941 0.00016954 -0.00488922 -0.00266254
O 3.54041233 0.18510374 31.99380384 -0.00110579 0.00068558 0.00282645
O 7.76289894 24.27150330 25.55814941 -0.00022149 0.00043666 0.00552942
O 9.47027917 18.98886776 26.92712249 0.00010703 0.00256692 -0.00097653
O 14.70211985 8.80477189 2.48360466 -0.00436745 0.00020394 -0.00044539
O 15.46109546 3.65102533 3.21754210 -0.00432815 0.00217737 -0.00061276
O 18.33772481 1.13821670 9.09537714 -0.00488967 0.00256942 0.00457008
O 17.09286258 5.74421124 8.23657502 0.00286378 -0.00156468 0.00499808
O 14.85090407 5.02535917 9.53518655 0.00035084 0.00190025 -0.00080602
O 13.75512511 9.58335390 8.24331856 0.00171419 0.00211621 0.00273826
O 17.63626258 4.81248578 2.30190852 0.00306718 -0.00206955 0.00177990
O 19.09319930 28.76565044 3.21673390 -0.00518411 -0.00179905 -0.00006059
O 13.04454300 8.48656504 14.63204112 0.00312475 0.00477035 -0.01061390
O 14.17074008 3.70721118 14.98828971 0.00328967 0.00057259 -0.00577441
O 16.79902763 1.48593098 20.85124590 -0.00406466 0.00488429 0.00200827
O 15.70846878 5.55223094 20.41626596 -0.00755016 -0.00279550 -0.00135610
O 13.48593411 4.94443160 21.49329517 -0.00168900 -0.00683108 0.00478706
O 11.82085362 9.44954389 20.01999056 0.00404450 -0.01087831 -0.00309813
O 16.36145421 4.67534544 14.09538962 0.00466376 -0.00166081 0.00285584
O 17.61943747 28.85647134 15.28784149 0.00450162 0.00285405 -0.00177531
O 11.26857275 8.50699272 26.14972070 -0.00086571 -0.00233337 0.00152040
O 12.56961128 3.79415655 27.09107523 0.00647783 0.00221806 0.00070290
O 14.91040223 0.98623830 32.99655987 -0.00094921 -0.00463130 0.00211323
O 13.99984621 5.85242668 31.85143701 0.00287623 0.00196049 0.00323261
O 11.84425354 5.12829863 32.86661722 0.00010694 -0.00352789 -0.00334856
O 10.44637560 9.67266029 31.71662875 -0.00297996 -0.00300142 -0.00492438
O 14.75982948 4.80111417 25.98108176 0.00329100 -0.00626249 0.00527430
O 15.93386713 0.06236013 26.94284331 0.00174590 -0.00516202 -0.00256835
O 14.85559948 18.48568924 2.30390000 -0.00137385 -0.00350150 0.00133888
O 15.93296645 13.48133955 3.66794642 -0.00185683 0.00461081 -0.00577272
O 18.44635146 10.53435547 9.51856309 0.00059965 -0.00374015 0.00166696
O 17.33284666 15.55811680 8.38199505 0.00419159 -0.00521534 0.00841600
O 15.15028274 14.57917324 9.83580443 0.00424266 -0.00185565 -0.00612173
O 13.62152755 19.61045434 8.32207940 -0.00265118 -0.00320087 0.00038626
O 17.89941498 14.53853788 2.23104336 0.00076601 -0.00149418 0.00471276
O 19.40229388 9.43608080 3.55891411 -0.00281304 -0.00344220 0.00723370
O 13.24386115 18.55260003 14.21508302 0.00140551 -0.00473560 0.00224145
O 14.28351248 13.41751332 15.59423762 -0.00100760 -0.00154268 -0.00808430
O 16.61703220 10.31802339 21.76953939 -0.00358640 -0.00288911 -0.00191199
O 15.80929573 15.69885367 20.23922084 -0.00392437 0.00182598 -0.00919660
O 13.68805672 14.51765356 21.19316607 0.00568382 0.00386905 0.00232043
O 12.16381425 19.39294961 20.19682499 0.00475107 0.00082191 -0.00268026
O 16.30973125 14.39663317 14.25525258 0.00813883 -0.00043366 -0.00258323
O 17.79769488 9.08214276 15.66573397 -0.00383961 0.00194223 -0.00238960
O 11.76845067 18.13102083 26.01507014 -0.00101704 -0.00332854 -0.00072765
O 12.45922876 13.46975715 27.05625698 0.00402634 -0.00025648 0.00179251
O 15.20606472 10.92398719 32.87980805 0.00180078 -0.00602737 0.00011617
O 14.32268581 15.64021013 31.71971464 -0.00288620 0.00329347 0.00008186
O 12.31289371 14.56785528 32.98442498 -0.00311895 -0.00035573 0.00160244
O 10.36964177 19.58021274 31.66157624 -0.00428474 -0.00087980 0.00465539
O 14.60795259 14.58872437 26.09031080 0.00333045 0.00203944 0.00458481
O 16.06973910 8.99872812 26.87088889 0.00467664 0.00503634 0.00123637
O 14.33239811 28.02618729 2.47876465 0.00390253 0.00144749 -0.00932882
O 15.81945188 22.84525058 3.37824097 -0.00518885 0.00038523 0.00122584
O 18.49426411 20.36668070 9.38916455 -0.00114853 0.00326165 0.00478673
O 17.08986740 25.00028009 8.02211991 -0.00368639 0.00139782 -0.00354763
O 15.11149493 24.57214662 9.45031277 -0.00295732 -0.00143769 0.00084850
O 13.27857724 28.94790564 8.01701920 0.00177541 -0.00344025 -0.00203644
O 17.99490454 24.37448050 2.08792354 0.00410130 0.00232753 0.00097328
O 19.24864246 19.38299166 3.49383311 0.00446043 0.00007253 -0.00120709
O 12.60855924 27.82656472 14.47739992 0.00859717 0.00147152 0.00116665
O 13.92626126 23.14213748 15.44033967 0.00332737 -0.00650884 -0.00900455
O 16.88177161 20.56338568 21.21449518 -0.00883693 0.00380686 -0.00507240
O 15.56821965 25.23267918 20.00183671 -0.00197666 0.00648589 0.00196386
O 13.32913744 24.16778865 21.14299810 0.00329395 0.00234235 -0.00079681
O 11.89589721 0.32242274 19.80940525 0.00188256 0.00405192 0.00169490
O 16.01616444 23.99440778 13.87979297 -0.00085405 0.00271914 -0.00094378
O 17.62005874 19.09569587 15.38899218 -0.00113357 0.00636648 0.00451024
O 11.20270561 27.99836079 25.62655684 -0.00194270 -0.00170249 -0.00227528
O 12.44426894 23.20889583 27.05067543 0.00038098 0.00084091 0.00223936
O 15.38013892 20.56212602 32.81089717 -0.00331738 0.00285152 -0.00274604
O 14.01702798 25.45378284 31.81610191 0.00450744 0.00356396 -0.00005115
O 11.93963353 24.44452691 33.13966169 0.00369462 0.00840552 -0.00151376
O 10.09426338 28.87220838 31.35272272 0.00706737 -0.00280105 0.00423184
O 14.56186510 24.50813624 25.72312088 0.00594049 0.00251607 0.00277733
O 16.32814167 19.67167855 27.28440660 0.00151275 -0.00762519 0.00060834
H -0.04321844 9.12054602 2.39046124 -0.00767479 0.01757910 0.02755261
H 2.45866133 4.36082172 3.10431521 0.01802556 -0.00016220 0.01969641
H 5.44610472 0.74837756 9.26035167 -0.01547377 -0.00765219 -0.00074805
H 2.54992491 5.46816226 8.54364233 -0.01047590 0.00244502 0.00442843
H 5.75712418 8.34061068 0.77100105 -0.02089714 -0.01221713 -0.00104675
H 3.67353798 3.74014578 5.02364575 0.02181024 0.00071349 -0.00830188
H -0.16970717 1.57148886 10.55742030 -0.01597600 -0.01155238 -0.00976372
H 1.23692923 6.68069281 6.83599110 0.00064926 0.01893645 0.00765341
H 4.06191999 6.76163586 10.46894711 0.01295766 0.03163529 -0.03518845
H 3.80791519 2.15003221 7.03470619 0.00840456 -0.00962634 -0.00281323
H 0.97646812 3.09953710 1.12397861 -0.00062686 0.00303398 -0.00031266
H 1.21301586 8.03612203 4.90922007 0.01121255 -0.00025113 -0.01353740
H -2.06929301 5.49840369 35.14334377 -0.00828892 0.00646416 0.01844870
H 0.01927741 0.37472960 5.74945923 0.00974468 -0.01338361 0.00436273
H 2.45305720 4.42267753 12.05231464 0.00375940 -0.01782905 0.00142350
H 5.37076352 9.18107016 5.80828610 -0.01883368 0.01391476 0.02127524
H 2.89188762 7.52675154 1.15049599 -0.01470767 -0.00357834 0.00815611
H -0.21510291 2.26842799 4.10335481 0.00258604 0.01293920 0.00331083
H 2.50187999 2.57418405 10.20317466 0.00643407 0.01689473 -0.01805970
H 5.31454428 7.44043881 7.61619763 -0.01853011 -0.00684564 -0.02229991
H 5.01494782 4.85525188 9.61649547 0.01524606 -0.03604494 -0.02563550
H 2.96958674 0.31121020 8.16161809 0.01847897 -0.02104221 0.01901984
H 0.12716363 5.17743391 1.98146026 0.00624180 0.00650322 -0.01105670
H 2.44715392 9.56938327 3.58232773 -0.01330963 -0.00835200 -0.00122518
H 6.67551713 4.16805171 7.18268693 0.03060965 -0.01227180 0.00598138
H 0.75366730 8.90023576 10.50579312 -0.01953302 -0.00430500 -0.00572187
H 18.55031530 5.79234913 4.53939252 -0.00681890 -0.00605090 0.01380919
H 3.08502445 0.74245675 1.85278622 0.00665364 -0.00193644 0.02468867
H 0.11205850 3.97397205 6.82336663 0.01978933 -0.01010296 -0.01046898
H 2.38112620 9.24042598 9.96207111 -0.00933695 -0.00529974 0.01063877
H 5.42458071 7.12005092 3.19845874 -0.00083797 -0.02796555 -0.00531259
H 3.84854473 2.09509909 2.41036700 -0.02792589 -0.01317758 0.01951243
H 19.13199035 4.07319586 7.41720414 -0.00761725 -0.00964632 0.00034515
H 1.53006299 7.63502596 9.42910049 0.00454435 -0.00642835 -0.00130853
H 4.40474045 6.00278181 4.23439661 0.00085476 -0.01330113 0.00538379
H 4.90365994 1.07932546 1.52283140 0.00587811 -0.03840996 -0.01234391
H -1.76530165 8.59524412 14.51869238 -0.00554454 -0.01543543 0.01167501
H 1.10318639 3.96653155 15.26679391 -0.00177467 0.03407770 -0.01503678
H 3.72229634 0.73630817 21.05391191 -0.01766886 0.03849323 -0.01726230
H 1.13527565 5.65132093 20.51957428 -0.00046862 -0.00646985 -0.00191970
H 4.06864738 8.30391994 12.39850242 0.00515109 0.01663475 0.01506821
H 1.99759281 3.36457563 17.37420946 0.00855181 0.01225312 -0.03084347
H -1.91626419 1.53979527 22.67445279 0.00952232 -0.01417326 -0.00654376
H -0.05486307 6.17405884 18.41845523 0.00132129 -0.00276972 -0.00887502
H 2.55799238 6.47473585 22.37826659 0.00710823 -0.02679083 -0.02340284
H 1.93853660 1.46849708 19.14032391 -0.01894368 -0.00949383 0.00251527
H -0.28761345 2.86195446 12.59972604 0.01374439 -0.00895332 -0.03637398
H -0.26052225 7.97666289 16.61281103 -0.00030781 -0.00890328 -0.00428370
H 0.99595884 5.32977360 11.31620262 0.01536243 0.00073835 0.03591290
H -1.74736246 0.06503001 17.43308109 -0.00798905 -0.00824536 -0.01032145
H 0.88163312 4.12283925 23.66694495 -0.00604049 0.00666253 -0.00499828
H 3.73666161 9.23254196 17.66802668 -0.00131015 0.01343720 0.01197887
H 1.05347944 6.96452442 13.27745669 0.00008393 -0.01538221 0.00881181
H -1.71000189 1.91604491 15.85896013 0.02760443 0.00185076 0.02882164
H 0.91071387 2.49547065 21.91684212 0.02415870 0.01489012 -0.01147471
H 3.74934848 7.68155301 19.51509897 0.03687607 -0.00136950 0.01668831
H 3.61866293 4.44214208 21.49871168 0.01512066 -0.00529465 -0.00150748
H 1.16700050 28.65308021 19.68612751 -0.02879464 -0.00780716 0.00281864
H -1.21707246 4.29732617 13.88981330 0.00367781 -0.00001904 0.01238895
H 0.72675694 9.60265426 15.52243941 -0.01704413 -0.00645569 -0.01382189
H 5.56502422 4.48291170 18.83065770 -0.01230670 0.00127916 0.00346701
H 0.53268462 8.49351283 21.65445809 0.00201031 0.01402695 -0.00401762
H 17.55811262 6.61870585 15.55760779 0.00505830 -0.00284116 -0.00287637
H 2.62363386 0.64956704 12.97760822 -0.03247603 -0.00407515 0.02084986
H -1.05332919 3.76653109 18.90342505 -0.02585807 0.01471413 0.00581777
H -0.73794996 7.42585348 21.01124234 -0.00121325 -0.01780567 -0.00326378
H 4.56780565 6.20990015 15.96643247 -0.02409053 0.00667357 0.00704997
H 1.26417324 1.28419611 13.97559449 -0.00109549 -0.01167086 -0.00453423
H -2.61425741 3.32728496 19.63213789 -0.00305915 0.01278265 0.00344746
H -1.12463738 8.72371485 22.24270091 -0.01409973 -0.01542686 0.00354302
H 3.35260913 7.22005120 15.08012737 0.00040137 -0.00121171 0.00571478
H 2.88092033 2.01498284 13.94787419 0.00991748 0.01295106 0.00753486
H -3.23493661 8.54890762 26.21751835 0.01917688 0.04278534 -0.00712400
H -0.46778856 4.32067639 26.91991178 0.00690658 0.02416936 0.01008999
H 2.13377369 0.58881347 32.58671990 0.01621214 -0.02278948 -0.01717718
H -0.54054012 5.66004518 32.09193412 0.01113117 0.00939467 0.00883342
H 2.47516698 8.11244437 24.08141081 -0.00714772 -0.01620113 -0.01908948
H 0.65158122 3.33896805 28.73209287 0.00258049 0.02114857 -0.00203383
H -3.72786043 1.50408333 34.57040554 -0.02651786 -0.02855040 0.02585616
H -1.58755532 6.18218905 29.90389774 0.01304930 -0.01268464 0.02867364
H 1.04376544 6.78533291 34.12909744 -0.00172209 0.03547150 0.00827432
H 0.55915781 1.83929760 30.84093200 -0.02093217 -0.01250084 0.00786598
H -2.03172147 3.18769342 24.72376599 -0.00413445 0.01081169 -0.01037713
H -1.64946993 7.86412664 28.22100568 -0.02264010 0.00868116 0.02284879
H -0.39743148 5.22782305 23.16324953 -0.00624016 0.01077919 -0.02549427
H -3.52054964 1.03350147 29.88370083 -0.01819137 0.00420425 -0.00229511
H -0.95491301 4.10758509 35.34696923 -0.00676646 0.01878803 0.00722282
H 2.36246111 9.10799869 29.27200410 0.00837937 0.00730634 -0.01870890
H -0.42088778 7.01440306 24.96879840 -0.00447866 0.04727324 0.02628345
H -3.29057250 2.22989468 27.80155382 0.00214545 0.00012891 0.01127004
H -0.83952986 2.54127361 33.40341336 0.00031835 0.00523448 0.00606183
H 2.29704724 7.50326927 31.16554115 -0.00337421 0.03436988 0.00851933
H 1.93625327 4.77914908 33.27748942 -0.01782848 -0.02141190 0.00395233
H -0.31570126 0.17067191 31.94272311 -0.00504207 -0.00597241 -0.02787486
H -2.72726201 4.90663592 25.58053257 -0.01131641 -0.02212135 -0.00200193
H -0.70934540 9.82564200 27.14694807 -0.03225647 -0.00810417 -0.00594292
H 4.10434562 4.04430305 30.65015473 -0.02565650 -0.02033116 0.00771795
H -1.65640747 7.44523413 33.04711569 0.03370831 0.01842967 -0.00022993
H 15.58191383 5.51007466 28.23523234 -0.02206504 -0.00438692 0.00689138
H 0.93600070 2.44278819 26.58761278 -0.00913972 0.00316724 -0.00816767
H -2.68796326 2.61456045 32.18246985 -0.02328952 -0.00551300 -0.00949077
H -2.78367442 8.60247644 33.91132483 0.02069235 0.00025978 0.00015211
H 3.10168574 6.65809335 27.21405394 0.01531266 0.01818125 -0.02387968
H 1.78009141 1.63130942 25.28767255 -0.00032343 -0.00278437 -0.01531168
H -2.82863065 3.85025018 30.89156861 -0.01132004 0.01592172 0.02067678
H -1.09359134 9.04378509 33.84160199 0.00499961 0.00333842 0.01021555
H 1.43882396 7.18733733 26.97360000 0.00406888 -0.01565257 0.03100848
H -0.07810676 1.33551868 25.62129637 -0.02826451 0.01392425 -0.02171499
H 0.08467908 18.80259106 2.79190643 -0.00482227 0.01435859 -0.00792287
H 3.02268448 13.92583706 3.42584912 -0.00983737 0.02184468 0.00088190
H 5.23289923 10.40047231 9.13772836 0.02420437 0.00351208 0.00251466
H 2.55744151 15.48740662 8.79178360 0.00190508 0.01416764 -0.01273949
H 5.80465146 17.94393985 0.96189595 -0.00005013 -0.01151137 0.04518993
H 4.06650068 13.11887419 5.23554109 0.00406168 -0.02763991 0.00888342
H -0.29030225 11.02905464 11.36343672 0.00611831 -0.01412147 -0.00041232
H 1.57874032 15.78677266 6.49192397 -0.01893818 -0.00863995 -0.00119274
H 4.09207381 16.47279299 10.74955485 0.00838998 -0.00306332 -0.02848344
H 3.97909987 11.54092516 7.21855272 -0.00332288 -0.01252212 -0.01194097
H 1.16350384 12.58063584 1.32144381 -0.02891247 -0.00008390 -0.01689425
H 1.50527905 17.50219549 4.74119134 0.02617269 -0.00506480 0.02392983
H -1.78757713 15.10918980 35.28837873 -0.00609123 0.01564893 0.00591778
H -0.04198259 10.39031063 6.15212248 -0.00971295 -0.01448674 -0.01263338
H 2.57018344 13.87755969 12.15948035 0.02000533 -0.00241664 -0.00562397
H 5.43606360 18.77498147 5.65720478 -0.00077033 0.01671671 -0.03240296
H 2.91810187 16.77089251 1.68861885 -0.00028842 0.02532395 0.00134120
H 0.01620796 11.87841490 4.24213490 -0.02209477 0.01342499 0.02254225
H 2.57755203 12.66225182 10.15995643 0.00209661 -0.00271977 0.00485832
H 5.43950244 17.15897475 7.75985746 -0.01708071 -0.01167261 0.01089512
H 5.08042861 14.90690781 9.59239794 0.01604182 0.00709885 -0.02396160
H 3.01038301 9.94397417 8.31258036 0.02742234 0.00496790 -0.01354101
H 0.36161495 14.78887075 2.32062905 -0.00295489 -0.02124586 -0.00658514
H 2.69368507 19.32906417 3.48677158 -0.00089813 -0.00534307 0.02172047
H 7.16379621 14.02439903 7.11565267 0.00248694 0.01449844 0.00487555
H 1.96233899 17.55564284 9.61238468 -0.02280053 0.01667415 -0.00520390
H 18.17376852 16.45349184 3.70884164 0.01024337 0.01019822 0.01253359
H 3.21763336 10.56994392 1.77926460 0.00718271 -0.00074717 -0.01126869
H 0.14172532 12.24911202 8.68571109 -0.00773500 -0.00792606 0.00750735
H 0.34578501 16.99530868 8.98446781 -0.00172246 0.00963948 0.01127043
H 5.11199720 15.30658393 4.69585395 -0.01560285 -0.00590010 0.02934727
H 3.82707819 11.93459694 2.71442526 -0.00823736 -0.00781998 0.00954401
H 0.38873662 13.47701691 7.45885642 -0.02299356 -0.00638082 0.00784469
H 0.41797682 18.17935825 10.27550735 0.00768366 0.01399983 -0.01348462
H 6.82003496 15.22188298 4.03111109 0.01316471 0.00177415 -0.00488835
H 4.96431449 11.12365013 1.60022517 -0.00782608 0.01402587 0.00635348
H -1.75350299 18.39949924 14.78362194 0.02193115 -0.00876264 -0.00068729
H 1.28151907 13.72571184 15.03742408 0.02243388 -0.00345171 0.00390981
H 3.92839932 10.32674464 20.93380674 -0.02149994 0.01975079 0.01535357
H 1.04067081 15.10309946 20.30251559 -0.00722532 0.01079979 -0.01177352
H 3.95934759 17.65284725 12.70985785 -0.00687324 -0.03232031 0.00767868
H 2.30919170 12.88977629 17.00754019 0.00398981 0.02070159 0.01680381
H -2.14699216 10.86446347 23.31021573 0.00579988 -0.01172922 0.01690110
H -0.12527579 15.84380976 18.44729412 0.04065188 -0.00828413 0.00065065
H 2.41792275 15.96005214 22.38644503 0.01108961 0.01625578 0.02244465
H 2.36597680 11.49827522 18.84200279 -0.02725290 0.01427002 0.02285522
H -0.12623290 12.77278508 12.87438659 -0.00461827 -0.02157978 -0.00656592
H -0.07492157 17.16310105 16.33942785 0.00794919 0.00203586 0.00250701
H 1.21392537 15.15224866 11.83853203 -0.00612854 0.00379943 -0.00823379
H -1.65448788 10.33593663 17.90823127 0.01413689 0.03622404 0.01609662
H 0.95683800 13.87342584 23.71458931 0.01271610 -0.00210639 0.00526511
H 3.73421757 18.70146274 17.35357897 -0.01872606 0.01110409 0.00804253
H 1.11805371 16.60322351 13.79733620 -0.01272639 -0.01494374 0.01419284
H -1.65271889 11.80130396 15.83186212 -0.00399740 0.00481672 0.01490008
H 0.99354315 12.45168984 21.77303815 -0.03507648 0.00804031 0.00845008
H 3.98350083 17.07463122 19.20438656 0.00670430 0.01153138 -0.00575837
H 3.48247081 14.19585295 21.42664221 -0.00686653 -0.00930031 0.00542778
H 1.30488409 9.98347523 20.06661874 -0.02258514 -0.00877029 -0.00603845
H -1.26128078 14.27744043 14.15651779 0.01494775 -0.00575135 -0.00345154
H 0.67638705 19.05785019 15.35209432 -0.00307375 -0.01936265 0.00674049
H 4.24605400 12.68187341 20.12804462 -0.01333059 0.02459231 -0.00412498
H 0.68598518 17.82591510 21.19399424 -0.00552378 -0.00446041 0.00755580
H -2.15268745 14.78749801 16.50380755 0.01124056 -0.01732505 -0.03324261
H 1.50450384 11.41641233 14.24790204 -0.01756800 -0.02093786 -0.01290158
H 17.85642060 13.12037256 20.09586855 0.00470705 0.00473588 0.01492654
H -0.95565251 17.44423320 21.40253507 -0.00060186 0.00623911 -0.01144909
H 3.20399322 15.50424567 16.38454084 0.00855647 -0.02055105 0.00265015
H 3.40447785 11.55688523 13.91516462 0.00480136 0.01559136 0.00128864
H -1.10822955 12.75902982 19.73826370 0.00306665 -0.00449897 0.01161658
H -0.41339986 18.87349568 22.24616559 -0.00565170 0.02018773 0.01831083
H 4.70078320 14.86601236 16.43894251 -0.02707937 0.00855110 0.00621657
H 2.39091699 10.41223525 12.96204886 -0.01124438 -0.01240714 0.00531622
H -3.30693706 18.89971857 26.29533736 0.02228352 -0.01108459 -0.00833502
H -0.38950823 13.77937450 26.90338117 -0.01261612 -0.01059272 0.01379005
H 2.28424962 10.41681799 32.82783577 -0.03256620 0.02311754 -0.01896197
H -0.54593853 15.18818831 32.18114440 0.00169012 -0.01033180 0.01024728
H 2.37336589 17.69930627 24.13222935 -0.01061769 0.01248061 -0.00131563
H 0.70640750 13.13056892 28.83384581 -0.00146031 -0.00180497 0.01777379
H -3.47506532 11.16064408 34.66503293 0.00532633 -0.00892253 -0.01058646
H -1.70852498 15.98377685 29.93927885 0.00160603 0.01457640 -0.00378828
H 1.06159135 16.45225170 34.31556103 0.01600036 -0.00250571 0.00950521
H 0.82466668 11.35573035 30.46000851 -0.03194667 0.00503347 0.00790700
H -1.95245284 12.66454624 25.08522673 0.01032543 -0.01890654 0.01720242
H -1.79290560 17.76435640 28.28171300 0.01156188 0.02108145 0.02063323
H -0.35081428 15.15297619 23.60245018 -0.00441810 0.00746499 0.00038740
H -3.16264775 10.30692387 29.73462063 0.00316339 -0.00269152 0.01247854
H 4.32436073 13.89593236 0.32665254 0.00621940 -0.00980632 0.02259141
H 2.23969712 18.85211360 29.38567335 0.03884089 0.00876394 0.00225541
H -0.37111941 16.94024480 25.52647482 -0.00057709 -0.00175682 0.02109669
H -3.26240561 11.80017587 27.82809838 -0.02619862 -0.01790940 -0.01352863
H -0.68567931 12.08520936 33.95530407 0.03328321 0.01112876 -0.00426921