2160
Time=55000.00000004 pbc="T T T" Lattice="20.59667620 0.00000000 0.00000000 0.00000000 28.94778956 0.00000000 -4.72909378 0.00000000 35.56050742" energy=-13801.70071900 virial="23.50509306 7.02449640 54.84132948 7.02449640 -0.18609520 1.81981039 54.84132948 1.81981039 23.02988728" stress="0.00344578 0.00034148 0.00262339 0.00034148 0.00221261 0.00007597 0.00262339 0.00007597 0.00338626" Properties=species:S:1:pos:R:3:vel:R:3
O 0.66971434 8.55697390 2.45577485 0.00041889 0.00263242 -0.00525047
O 2.02547309 4.10309753 3.27022924 -0.00128692 -0.00199911 -0.00117774
O 4.62963912 1.13232113 9.47345944 -0.00867767 0.00277473 -0.00279368
O 3.13618197 5.95378708 8.58907937 -0.00350509 -0.00251543 0.00443716
O 1.25910798 4.56473722 9.54945744 0.00228834 -0.00091565 0.00436834
O -0.15719641 9.67819650 8.32720025 -0.00285707 -0.00006525 0.00062653
O 4.12242829 5.11533382 2.05492673 -0.00285499 0.00059295 0.00225217
O 5.46040881 28.84298173 3.35856191 0.00091834 0.00168180 0.00074769
O -0.90559557 8.51713698 14.39842346 -0.00211001 0.00058132 0.00297699
O 0.29812855 3.74540098 15.15112184 0.00016290 0.00300651 -0.00043710
O 2.57247118 1.32050989 21.10161051 -0.00728976 -0.00488487 0.00693175
O 1.80651796 6.36046612 20.39159756 -0.00249356 0.00100778 -0.00540736
O -0.43133290 5.40909563 20.99378254 -0.00310043 0.00238172 -0.00318606
O -1.62812406 10.11211575 20.23863494 -0.00052205 -0.00238340 -0.00367024
O 2.40268288 4.84839679 13.99016904 -0.00097086 -0.00486441 0.00385739
O 3.86462313 28.61007623 15.30547958 -0.00132619 -0.00453302 -0.00009810
O -2.15883196 8.50953397 26.08715758 0.00505742 0.00260353 0.00511661
O -1.18225142 3.80466055 27.02700023 0.00022662 -0.00389942 0.00709855
O 1.35903896 1.06054403 33.11048637 -0.00395427 0.00088810 0.00086047
O 0.45613722 5.75865114 31.98379741 0.00417739 -0.00083474 0.00157010
O -1.80475210 5.00048069 33.51111868 0.00224327 0.00106844 -0.01002934
O -3.29831890 9.70526638 32.02795092 0.00496645 -0.00099337 0.00166534
O 0.94273680 4.85438723 25.97503257 0.00329988 0.00339954 0.00447077
O 2.53306733 28.61437724 27.46774286 0.00869135 0.00101538 -0.00146894
O 0.78080680 18.86946488 2.20916989 -0.00128512 0.00286456 -0.00292026
O 1.88524515 13.44655109 3.81257218 0.00189318 0.00032646 0.00110869
O 4.59933512 10.73150340 9.85233287 -0.00419823 0.00018120 -0.00611594
O 3.22706342 15.41949009 8.20908115 0.00532521 0.00193943 0.00079410
O 1.08438317 14.73559800 9.51524707 -0.00084814 0.00485611 0.00445106
O -0.06552218 19.46484649 8.13169894 0.00270290 -0.00085672 -0.00083686
O 4.03055712 13.99976065 2.35869975 0.00368201 0.00249980 -0.00227632
O 5.59843941 9.50919707 3.81248859 -0.00298600 0.00308726 -0.00290184
O -0.64777904 18.20715086 14.44060016 0.00010011 0.00363170 -0.00302746
O 0.33320757 13.25938562 15.06290311 -0.00662962 -0.00159928 -0.00185497
O 3.19947981 10.62008864 21.03420457 -0.00198912 -0.00164707 -0.00940471
O 1.93773805 15.72658022 20.17789584 0.00138661 0.00120870 -0.00036083
O -0.43561030 15.24331212 21.05172703 0.00095821 -0.00194415 0.00046508
O -1.94690759 19.66265273 20.06024215 0.00452360 0.00182591 0.00083543
O 2.41599892 14.50689274 14.42410644 -0.00345862 -0.00286727 0.00217429
O 4.02331750 9.40444916 15.28927563 0.00228873 -0.00076581 -0.00618138
O -2.41294713 18.03097012 26.30085709 -0.00273013 0.00167483 -0.00278763
O -1.14500706 13.28443299 27.07324921 0.00325789 -0.00184250 -0.00057572
O 1.56213545 10.67205942 33.14761855 -0.00415760 -0.00027489 -0.00263428
O 0.16789637 15.50091775 32.29175521 0.00596841 0.00207836 -0.00051493
O -1.74675925 14.58626959 33.79069018 0.00229420 0.00546825 0.00124104
O -3.43467769 19.38481723 32.13622594 -0.00003225 -0.00180308 0.00152886
O 0.82453614 14.40917081 25.75002268 -0.00103244 0.00286003 -0.00173232
O 2.52881476 9.70589262 27.48072492 0.00074320 0.00326286 -0.00167988
O 0.88094110 28.40749712 2.29971758 -0.00384568 0.00093868 0.00051710
O 1.87926767 23.02667863 3.46202321 -0.00056046 0.00429231 -0.00183806
O 4.45876412 20.36714740 9.02419510 -0.00037478 0.00053679 -0.00386815
O 3.41066401 25.33508323 8.06766582 -0.00049707 -0.00149833 -0.00073245
O 1.29835969 24.51957093 9.34586644 -0.00408614 -0.00674203 -0.00284332
O -0.06294094 0.16849949 7.91631291 -0.00029995 0.00107698 -0.00097030
O 3.74743720 24.03045036 2.11865074 -0.00142578 -0.00107156 -0.00058910
O 5.40943448 19.14781982 3.51106023 -0.00093631 0.00005619 0.00190414
O -0.98432988 27.76106016 14.18867414 -0.00393890 -0.00373971 -0.00170041
O 0.37170194 23.24801917 15.38535785 -0.00257274 -0.00925787 0.00235972
O 2.90722727 20.36840469 21.43119914 -0.00409363 -0.00035368 0.00252067
O 1.68285000 25.34075480 20.42446914 0.00028965 -0.00084610 -0.00162553
O -0.38990305 24.24303576 21.18926990 0.00194788 -0.00037207 0.00189763
O -1.91136552 0.22049138 19.84973253 0.00143132 -0.00148213 -0.00531471
O 2.35836547 24.02834049 13.94528402 -0.00001672 0.00318128 0.00162051
O 3.98672226 19.48873056 15.53136275 -0.00322513 0.00377192 -0.00208518
O -2.43023850 28.00750933 26.05069918 0.00440443 -0.00151564 -0.00152596
O -1.35672525 23.09995751 27.24699085 -0.00180086 -0.00457034 0.00346174
O 1.53594984 20.48324033 32.98061593 -0.00785070 0.00294491 -0.00322056
O 0.08937263 24.86797359 31.76965714 0.00027353 0.00009572 -0.00313197
O -1.82295167 24.49521220 33.24721564 -0.00014915 -0.00376226 -0.00242263
O -3.39822640 28.81165848 31.68977824 -0.00341101 -0.00181987 0.00435377
O 0.76027216 24.22172245 26.08575522 -0.00176904 -0.00230203 0.00375078
O 2.40558005 19.20338235 27.35396699 0.01128819 0.00160903 0.00245701
O 7.82061440 8.99007121 2.15786180 0.00446728 0.00193152 0.00321357
O 8.93321916 3.50031819 3.18286989 0.00033310 0.00316365 0.00172257
O 11.53393921 1.04809241 9.47718128 0.00542023 0.00001159 -0.00624705
O 10.21256520 5.56418114 8.13169975 0.00211847 0.00763976 -0.00144424
O 8.08425359 5.01099545 9.38720317 0.00307305 -0.00056768 -0.00027647
O 6.84385070 9.77785190 8.67180201 -0.00363816 0.00277842 0.00359581
O 10.90420570 4.86281733 2.10506840 0.00057578 -0.00264396 0.00246210
O 12.32880066 28.86333577 3.53391277 -0.00125603 -0.00294535 -0.00275551
O 6.18501635 8.55088369 13.98205715 0.00034875 0.00318031 0.00109959
O 7.17029840 3.44817639 15.27490614 -0.00095119 -0.00707945 0.00177062
O 9.61381041 1.21210915 21.34314163 -0.00225627 -0.00390045 -0.00081545
O 8.68480595 5.93813302 20.21325027 -0.00278687 0.00245612 0.00208128
O 6.63989660 4.92688674 21.40404052 -0.00245485 -0.00108418 -0.00757126
O 5.40963320 9.65151417 19.92739356 -0.00344556 0.00173096 -0.00045004
O 8.96676901 4.63123274 13.74244542 -0.00098360 0.00205747 -0.00117847
O 10.50493291 28.64632528 15.35833558 0.00041590 -0.00473778 -0.00429451
O 4.47749283 8.35182444 26.34907401 -0.00139431 0.00062413 -0.00546332
O 5.42742868 3.84221676 27.46265256 -0.00061223 0.00110906 0.00139598
O 8.45444593 1.01562559 33.01005392 -0.00072339 -0.00727697 0.00354225
O 7.24621883 5.74204579 32.19420270 -0.00064812 0.00415210 0.00001131
O 5.09991371 4.94501967 33.36437636 -0.00230785 0.00570519 0.00008285
O 3.61447475 9.72029156 31.99037695 -0.00451313 0.00174206 0.00148895
O 7.60509364 4.67708880 26.12495123 0.00157401 0.00796725 0.00694481
O 9.25967600 28.91483896 27.57029768 -0.00467472 0.00095690 0.00461874
O 7.75613934 18.28134930 2.36653762 0.00129821 0.00178933 -0.00100571
O 8.75682968 13.11785931 3.59675330 0.00567344 -0.00153687 -0.00142881
O 11.65588709 10.58916438 9.32313250 0.00298403 -0.00843964 0.00021775
O 10.15773998 15.09809239 8.41258602 -0.00040789 0.00184820 -0.00008879
O 8.04457611 14.24015723 9.73955759 0.00125466 0.00097598 0.00149446
O 6.46758390 19.18017711 7.98518006 0.00221924 -0.00105625 -0.00337139
O 11.04486487 14.60343241 2.76105644 -0.00235114 -0.00375373 0.00077799
O 12.47644800 9.62371643 3.74393419 0.00359458 0.00323924 -0.00067529
O 5.88926946 18.11991048 14.40327208 -0.00025458 -0.00035448 0.00270184
O 7.12973337 13.69230405 15.61056158 0.00193408 0.00332749 0.00106402
O 10.24082076 10.98336871 21.18270185 0.00073714 -0.00130843 0.00400685
O 8.78061315 15.59352704 20.21559018 -0.00114174 -0.00699624 -0.00446291
O 6.81260306 14.24408554 21.64800326 0.00142044 0.00402566 0.00203679
O 4.93241210 19.33041703 20.06909683 0.00213605 0.00209441 0.00290153
O 9.12087391 13.82733961 13.97354067 -0.00160655 -0.00048834 0.00010718
O 11.03147165 9.32004836 15.34131705 0.00123147 0.00549827 -0.00254575
O 4.46818782 18.47167540 25.83068926 -0.00180319 -0.00653944 0.00551511
O 5.59832957 13.41497569 27.12080600 0.01183578 0.00066438 0.00516451
O 8.30983377 10.88839489 33.36858284 0.00005779 0.00105491 -0.00078493
O 7.16417172 15.20945169 32.31122262 -0.00757603 0.00348254 0.00439115
O 4.55450668 14.62259885 32.95672160 -0.00948885 -0.00191000 -0.00279920
O 3.43995175 19.13746054 31.94281115 -0.00586193 -0.00185178 -0.00172660
O 7.79902077 14.21356000 26.06119906 -0.00611347 0.00090996 -0.00269448
O 9.33322498 9.65824336 27.75070136 -0.00151008 -0.00111448 -0.00128928
O 7.71820618 27.86160713 2.42410885 -0.00204608 -0.00299227 -0.00209520
O 8.78147170 22.85303337 3.41994828 -0.00093434 0.00069227 0.00588833
O 11.22687715 20.08790486 9.36705338 -0.00359789 -0.00466850 -0.00167635
O 10.29880671 25.10896429 8.18798089 0.00222571 -0.00297171 -0.00357215
O 8.23213687 24.19945216 9.46519429 -0.00609431 0.00113413 -0.00647018
O 6.74126566 0.25158803 8.28134463 -0.00056708 -0.00054876 -0.00340962
O 10.94800876 23.79522693 2.46231460 -0.00228999 -0.00599948 -0.00071752
O 12.27513700 18.85747680 3.90102366 -0.00156738 -0.00075226 0.00897866
O 5.98582995 27.76556599 14.07497311 -0.00448334 0.00251183 -0.00521480
O 7.11076427 23.06052336 15.34677618 0.00367581 -0.00007720 -0.00251413
O 9.66437541 20.30217154 21.22897109 -0.00056191 0.00220007 0.00222630
O 8.52726048 25.24684397 20.32242403 0.00464963 0.00432967 -0.00395892
O 6.58907439 24.03775189 21.54244033 0.00066303 -0.00016518 0.00154578
O 4.74651976 28.85132885 20.04599767 0.00207318 -0.00147055 0.00315349
O 9.16869080 23.67918088 14.00094143 0.00419138 0.00856757 -0.00298099
O 10.73630486 19.21915174 15.42845018 0.00667056 0.00206826 0.00400892
O 4.63870605 27.88258721 26.11406187 0.00068650 0.00339735 0.00239993
O 5.70227709 23.12552583 27.32644330 0.00634131 -0.00441441 -0.00083862
O 8.40628438 20.70716163 32.96472597 0.00511780 -0.00542896 -0.00507259
O 7.06775456 25.06847356 32.04554403 0.00113475 0.00116851 0.00505968
O 5.09671611 23.99006590 33.57747334 0.00443717 0.00361309 0.00333982
O 3.63663539 0.27103277 32.17271113 0.00153382 0.00454507 -0.00013388
O 7.68927924 24.10050045 25.95334559 0.00739635 0.00134284 -0.00321433
O 9.08392102 18.99092537 27.28195844 0.00410301 0.00379714 -0.00624245
O 14.43312187 8.79310752 2.20339899 -0.00461615 -0.00007786 0.00445318
O 15.42727102 3.65618668 3.18351589 -0.00118190 0.00009820 0.00025191
O 18.36987593 0.84906134 9.30687837 0.00219759 0.00242655 0.00131087
O 17.00523622 5.97025630 8.61706574 -0.00238997 0.00564496 -0.00348729
O 15.10748355 4.63025581 9.50616678 0.00321981 0.00701417 0.00176085
O 13.32079855 9.17334326 8.05539709 0.00182261 0.00322729 -0.00224800
O 17.67484687 4.56481962 2.22833863 0.00672913 -0.00177149 0.00038387
O 19.16894668 0.17144515 3.66228321 -0.00133685 -0.00386742 -0.00142125
O 12.97450184 8.66660569 13.79805697 0.00565190 -0.00308298 0.00136250
O 13.80455356 3.94755513 15.45645894 0.00142373 -0.00851937 0.00653928
O 16.72236932 1.19923887 21.39838243 -0.00136320 0.00686078 0.00005073
O 15.53789757 6.08293364 20.29566793 0.00294430 0.00157786 -0.00125885
O 13.43885580 5.04864497 21.51828388 -0.00285003 -0.00131326 -0.00074317
O 11.87275429 9.72601922 19.84875830 -0.00757266 0.00305563 0.00089999
O 16.14726126 4.61277278 14.10855252 -0.00241246 -0.00358657 0.00091537
O 17.41244938 0.16735747 15.27206786 -0.00498414 0.00361158 -0.00532751
O 11.41600466 8.67138416 26.35464854 -0.00331323 0.00449128 0.00724493
O 12.68144001 3.48427185 27.03111086 0.00389286 0.00325424 0.00643066
O 15.69067045 1.48903159 32.84735854 0.00257444 0.00023621 0.00317602
O 14.22873011 5.91838668 31.79179967 -0.00326929 -0.00102389 -0.00514756
O 12.00747564 5.15053129 33.14003540 -0.00156100 0.00022159 0.00703152
O 10.46222650 9.73498129 32.00329026 -0.00233870 -0.00519079 0.00047143
O 14.68561800 4.91056272 26.27009747 -0.00328472 -0.00366988 -0.00344696
O 16.00146514 0.05727930 27.37539253 -0.00201879 -0.00346519 -0.00144955
O 14.45560221 18.41773317 2.50257569 -0.00150744 0.00035035 0.00289116
O 15.84540082 13.34657334 3.90384851 -0.00348997 -0.00060673 0.00626442
O 18.33055684 10.79180482 9.52245902 -0.00016405 0.00395156 -0.00099331
O 17.01114967 15.56078291 8.39587953 -0.00146633 0.00495013 0.00171313
O 14.97249337 14.49493366 9.57779595 -0.00857746 -0.00084921 -0.00520221
O 13.54661534 19.37000143 8.19403339 0.00344807 -0.00152204 0.00267289
O 17.84829767 14.21386251 2.41515443 -0.00551993 -0.00372238 0.00442621
O 19.07342443 9.41303117 3.70404079 0.00314606 -0.00998245 0.00611780
O 12.69960952 18.30429032 14.02560844 0.00216886 0.00195660 0.00021623
O 13.92939650 13.49203788 15.30064639 -0.00473841 -0.00131992 0.00446461
O 16.63518607 10.62793210 21.23291631 -0.00456841 0.00238744 0.00535090
O 15.47985097 15.52569713 20.18907087 -0.00492060 0.00567897 -0.00403385
O 13.67255844 14.56662692 21.73012742 0.00070105 0.00117683 -0.00235862
O 11.92467502 19.61527088 20.08735243 -0.00309750 0.00169183 -0.00258815
O 15.97641700 14.52966914 14.12630238 -0.00502222 0.00028378 0.00161775
O 17.77042079 9.92661262 15.79313699 0.00313441 0.00113680 0.00057096
O 11.29429350 17.97005584 26.41062669 0.00212226 -0.00480413 0.00711944
O 12.72453274 13.40461450 27.32035577 -0.00494426 -0.00153559 -0.00260274
O 15.28914183 10.54468847 33.19119818 0.00191840 -0.00192214 0.00379577
O 13.91245332 15.86385921 32.60736327 0.00342840 0.00057089 0.00340691
O 11.85987576 14.38664710 33.57178134 -0.00267526 -0.00264508 0.00532374
O 10.20720430 19.29318102 31.62789573 -0.00123566 0.00164999 0.00375893
O 14.82452401 14.41170316 26.15945525 0.00588171 -0.00101199 0.00026572
O 16.20393212 9.28504771 27.07632693 -0.00420193 -0.00710036 -0.00330386
O 14.49846063 28.00545787 2.15075919 0.00277990 -0.00521963 -0.00162647
O 15.67364893 23.08456651 3.53885590 -0.00127841 -0.00187726 0.00383048
O 18.30680827 20.08088683 9.54465765 0.00174691 -0.00216236 0.00414168
O 17.08521256 25.28767329 8.29702012 0.00078397 0.00119496 -0.00505988
O 15.15146496 24.02623606 9.48150809 0.00127093 0.00031650 -0.00232327
O 13.54628014 0.27111301 8.21995278 -0.00124369 0.00016769 -0.00001886
O 17.23371865 24.25713386 1.96335790 -0.00463961 -0.00116429 -0.00133246
O 19.28518972 19.26566008 3.65070526 0.00262094 -0.00302956 0.00022846
O 12.79143920 27.52781292 14.29508901 0.00200947 0.00382866 0.00008106
O 13.98873308 22.91020108 15.29881977 -0.00465571 0.00367759 -0.00310729
O 16.53992035 20.50583173 21.25594775 -0.00034691 0.00410493 0.00334499
O 15.46196361 25.22843679 19.99767240 0.00512058 -0.01154049 0.00402064
O 13.47147639 24.27932800 21.45058810 0.00453616 0.00790934 0.00041684
O 11.86075273 0.30870576 20.36460115 -0.00562968 -0.00155858 -0.00153155
O 16.09694582 23.83655165 14.14266547 0.00181033 -0.00371932 -0.00288072
O 17.67846120 19.28240359 15.40104881 -0.00114563 -0.00196222 0.00027463
O 11.28935930 27.91041186 26.30409274 -0.00572418 0.00365733 0.00443943
O 12.55755643 23.06466925 27.00423710 0.00162351 0.00059938 0.00175185
O 15.31263519 20.77920528 33.06036988 -0.00677557 0.00312128 0.00073303
O 13.96504369 25.42116250 32.27946733 -0.00270145 0.00142868 -0.00694557
O 11.84307941 24.17017470 32.95760391 0.00418213 -0.00267830 -0.01019097
O 10.36259695 28.82142565 31.53364408 0.00069011 -0.00018236 -0.00407547
O 14.47068395 24.29079799 25.90519417 -0.00532997 0.00099354 -0.00295910
O 16.01441752 19.40424026 27.46455848 -0.00305330 0.00670822 0.00474279
H -0.23274795 8.70660589 2.90790396 0.00161351 0.01493596 0.03147784
H 2.88487687 4.41606896 2.84657083 -0.01009385 -0.00621656 -0.00901068
H 5.46803624 0.72717458 9.08502708 -0.02839175 0.00132856 0.00382759
H 2.28384629 5.44451256 8.77227378 0.01649299 -0.00935557 0.02192021
H 5.72878139 8.09718086 0.96189145 -0.00333844 0.00530466 -0.01459929
H 3.86948413 4.03816744 4.98833610 0.00041605 0.00903003 0.04777357
H -0.18762095 1.38626399 10.90632279 -0.00396529 -0.00521305 -0.03025947
H 1.50157139 6.17195097 6.73879734 0.00459348 0.01555184 0.01025568
H 4.19533733 6.69377260 10.37041437 0.00483311 0.01210847 0.03108952
H 4.01840365 2.55634080 6.89910906 -0.00145018 0.02096272 0.01050528
H 1.17443861 2.81296120 1.35868188 -0.00196615 -0.01999509 0.01675443
H 1.43285174 7.68296331 4.90329176 -0.00034296 0.01084588 -0.02085871
H 2.60267806 5.22132708 0.14841221 0.01983094 0.00364332 -0.02245346
H 0.11265065 0.96808640 5.88185397 0.01442044 0.01027376 0.00929165
H 2.58670951 4.21033895 12.07849716 -0.00329242 0.00190237 -0.00272290
H 5.49557644 8.73456891 5.82870613 -0.00036439 -0.00093913 -0.02269117
H 2.72778950 6.98647444 1.74562503 -0.01132266 0.00208793 -0.02368597
H -0.12590291 2.56854405 4.23500236 -0.00138867 -0.00587684 -0.01469215
H 2.71758703 2.69440677 10.17886714 0.02654884 -0.00057573 -0.01504438
H 5.36354362 7.19724267 7.82136570 0.02390625 -0.01078003 0.02053946
H 4.92542744 4.76567352 9.43896163 -0.00851393 0.03675034 0.02201950
H 3.08196789 0.48081266 7.99814364 -0.00238320 0.01155075 0.01021760
H 0.25292499 4.81932894 2.20615462 0.00437891 -0.01249523 0.00343808
H 2.43965077 9.58567565 3.75264944 -0.00056338 0.00189430 -0.01052101
H 5.71356808 3.02242131 8.17794997 0.02226624 -0.04572772 0.01311196
H 1.84218558 7.69783960 9.58344459 -0.01459713 0.00993778 -0.00388583
H 18.54314944 5.94091986 4.48587164 0.00199497 0.01945926 -0.00471484
H 4.36690508 2.42807746 2.31304350 -0.01927367 0.02328670 0.01334840
H -0.01006853 4.21546128 7.29820189 0.02988874 0.00207092 -0.01015835
H 0.30502407 8.16883260 10.29820621 -0.00087332 -0.00374337 0.00155798
H 4.92086297 7.13979149 3.48841435 -0.00816762 -0.01814563 -0.02506467
H 4.42786063 0.88824225 1.20564205 0.00225234 0.00682931 -0.00822942
H 19.02758832 3.92376770 8.05866554 -0.00402622 0.03888078 0.03184504
H 1.53456071 9.20078517 10.73853015 0.00399877 -0.01345507 0.02334139
H 5.37162012 5.76769542 4.61815655 -0.00553597 0.02835541 -0.02987910
H 2.93622692 1.51199112 2.07568196 0.00900851 -0.00081901 0.01786949
H -1.77302969 8.95241568 14.73916413 -0.01241169 0.01951148 0.00621421
H 1.14986156 4.25819662 14.90768124 -0.00122728 0.01637676 -0.01735583
H 3.40093869 0.91497260 20.74563742 -0.00744157 0.00245801 -0.01041602
H 0.90658291 5.96912904 20.61282576 -0.00712406 0.00610162 -0.01396614
H 4.16352447 8.04145145 12.52564989 -0.01113627 0.00113320 0.00661348
H 2.31030344 3.50155956 17.05080016 0.01607618 -0.00655961 -0.00373564
H -2.04263943 1.30811606 23.28468048 0.00896936 -0.00298477 0.00681543
H -0.03624827 6.57469481 18.56562928 -0.03457575 -0.03826377 -0.00321326
H 2.59192418 6.84245976 22.63241010 -0.01662707 -0.00514529 0.03496403
H 2.21371445 2.32574712 18.83775487 -0.00156826 -0.01532735 0.00750722
H -0.28701069 2.83206676 12.82601723 0.02025285 0.04277443 0.01212592
H -0.14914702 7.98357674 16.70989725 -0.03783021 -0.00656729 0.03935441
H 1.06371707 5.25036343 11.87683998 -0.01166750 -0.00018518 -0.03162354
H -1.82758329 0.98406914 17.87995759 -0.00219855 0.00214016 0.01062065
H 1.14321329 4.51884611 24.06194828 0.03078192 -0.00513860 -0.00659551
H 3.83324214 9.19910606 17.40969811 0.00429085 0.01685583 -0.00193335
H 1.24370573 7.00855276 13.55386971 0.01275828 0.00322578 0.01502921
H -1.75383166 2.49367436 15.93292856 0.00181005 0.01037807 0.00895807
H 0.91891310 3.03899057 22.00292211 -0.01818162 0.00091065 -0.01080353
H 3.94705590 7.66891188 19.37161938 0.00049438 -0.00969551 0.03164587
H 3.50360595 4.95287604 21.57659408 -0.00009950 -0.00448431 -0.00381046
H 1.24441721 0.18064878 19.85560113 -0.00952603 -0.01043985 0.02247672
H -1.28652818 4.44146486 14.07835811 -0.02102211 0.03424953 0.01404784
H 0.89420037 9.71993489 15.53428418 0.03784542 0.01506423 0.03570942
H 5.68533139 4.25812493 19.03608740 0.01101946 0.00369045 -0.01290478
H 0.78887285 8.58034100 21.72827630 -0.03149046 -0.01391189 -0.01027804
H -1.86334897 6.14517426 15.45503751 -0.00136294 -0.01651325 -0.02603897
H 2.33520533 0.49572533 13.16399624 0.00471082 -0.01400307 -0.00034888
H -2.62166915 3.15946305 20.09420318 -0.01346384 0.00112806 0.00653071
H -0.54468103 7.64440474 20.85323264 0.01281941 -0.00996438 0.00260630
H 3.94458253 7.24333739 14.81082967 0.00594644 0.01320549 -0.02224915
H 1.24250283 1.13769135 14.35639293 0.02281152 0.00163171 0.01827390
H -0.95898018 2.69348325 20.22282867 -0.00785116 -0.01891967 0.00064901
H -0.85354277 8.69565286 22.25360384 0.00967792 -0.01033661 -0.01779987
H 3.09843662 6.33181602 16.09426998 -0.00010001 -0.01844342 0.02551049
H 2.82398393 1.92431053 14.06419126 0.02017563 0.01740122 0.01106346
H -3.05620194 8.78134358 26.44188088 0.02165433 0.02706838 -0.02691613
H -0.33356479 4.16840315 26.83299423 0.04040770 -0.02599824 0.00120532
H 2.16262904 0.67305122 32.71030956 -0.02133201 0.01076582 0.00122266
H -0.42803758 5.49201917 32.42326727 -0.01292270 0.01486815 0.03114870
H 2.49475877 8.20502834 24.60316404 0.00743176 0.00104592 0.02071935
H 0.82304571 3.29832604 28.67587318 0.00035420 -0.05642745 -0.03091812
H -3.31750033 1.31115302 34.78141722 -0.01637120 0.00419923 -0.02250813
H -1.64755828 6.18954170 30.46190620 -0.00592614 0.02375799 0.00502133
H 0.90821676 6.47826824 34.67415238 0.00355469 0.00498990 0.00038419
H 0.57078334 2.00671857 30.72322263 -0.00692420 0.00389213 -0.02626962
H -2.03439188 2.97053337 25.03987261 -0.02663684 -0.00737461 0.01745559
H -1.62824046 7.78378642 28.56013944 0.00287255 0.00719732 0.00582029
H -0.39236219 5.19043142 23.39349396 0.00762413 0.01004345 0.00053592
H -3.26463970 0.71526553 29.69475473 0.00063652 -0.01018262 0.01014596
H 4.16858308 4.29421440 0.19187352 0.01940285 -0.02002092 0.01752283
H 2.38323446 9.16836570 29.71446565 0.00219812 0.00393906 0.00814415
H -0.29269349 6.91771439 25.39688114 0.00303240 0.02842156 0.00811673
H -3.11521664 2.15722051 27.64500413 0.00160494 0.00890569 -0.01744842
H -0.52688734 2.54915455 33.79672596 0.03135197 0.00554679 0.00103445
H 2.12882187 7.48478981 31.73187913 0.00276919 -0.00290884 -0.03291810
H 2.06593413 4.73172914 33.50765186 0.00036658 0.01718414 0.01655736
H -0.28793534 0.31132146 31.76954499 -0.00100911 0.01505511 -0.00827124
H -2.84278961 4.70771094 26.02216434 -0.01483070 0.00785172 0.00964693
H -0.57190269 9.36508139 27.44649101 -0.02916982 0.00921588 0.00017020
H 3.70532310 2.67119774 32.21860406 -0.01640074 -0.05257263 0.00709385
H -0.70027726 8.54352675 33.75676337 -0.00989299 0.00855668 0.00007310
H 15.94380319 7.11024911 27.10470149 0.00959766 0.00893627 0.00649671
H 2.15020111 1.05393739 25.49344543 -0.01114991 0.00285239 0.01009382
H -2.81289964 2.71509155 31.99135616 0.00870362 0.00107480 0.00228413
H -1.92316668 7.51769997 32.98764891 0.02123806 -0.00219302 0.00218527
H 2.38226529 6.91540579 27.14293870 -0.00665834 -0.01706303 -0.00427224
H 0.41805523 0.86946598 25.41385046 -0.00065006 0.01860495 -0.02464150
H -2.80197702 4.17220237 31.07777294 -0.01856560 -0.00299458 0.01365751
H -2.43044333 8.77765850 34.10688925 0.02462607 0.01256703 0.00271623
H 1.96703532 5.71629308 28.23035818 0.00902953 0.00966133 -0.02173280
H 1.06370506 2.10417219 26.45257965 -0.03820649 -0.00432371 0.01204787
H -0.05930571 19.02356749 2.67757769 -0.00203673 0.00578883 0.00883946
H 2.65832454 13.67298199 3.23016309 0.00641383 -0.02194310 -0.00381545
H 5.46506108 10.30534887 9.63935158 0.04116196 -0.00151256 -0.01607423
H 2.36541938 15.13390664 8.66403500 0.00170891 0.01749647 -0.01092674
H 5.63722571 18.00751648 0.71617233 0.00458823 0.00717298 -0.00761253
H 4.04381142 12.67899214 5.24095845 0.02155995 -0.02085767 0.01026504
H -0.39871819 11.09716003 11.19970678 -0.01830234 0.00455422 0.01127134
H 1.23945086 15.87809580 6.59743090 0.00701667 -0.01359912 -0.00871168
H 3.90637249 16.36998486 10.65463358 0.00651492 0.02782533 -0.00906099
H 4.04471014 11.17533791 7.08630382 0.00084875 0.01592992 -0.00317138
H 1.56469997 12.65584324 1.01125428 0.02068809 -0.00476339 0.01827976
H 1.17436618 17.45173870 4.73053239 0.02335486 -0.00297581 -0.01393565
H 2.90531067 15.53711922 0.02871947 0.01792563 0.00260560 -0.00689317
H 0.10484727 9.84208063 6.09363384 0.01192374 0.01348269 -0.01908396
H 2.59536886 14.06063891 12.18554298 -0.00333791 0.01034213 0.01024442
H 5.37029092 18.39437608 5.46052626 0.00441214 -0.00020062 0.01270331
H 2.81688263 17.25229648 1.72949150 0.00827778 -0.01464460 0.01073971
H -0.17016881 11.84240868 4.52733692 -0.01060011 0.00193434 0.00930096
H 2.66564345 12.50355512 10.30469045 -0.00595678 0.01674625 0.01667555
H 5.38137966 16.62461044 7.10955545 -0.00752951 -0.00899824 0.00199010
H 4.94472842 14.83083893 9.46791301 0.00050809 -0.00913286 0.01835130
H 2.93710963 9.81598451 8.48498639 -0.01038704 0.01194558 0.01002077
H 0.43963834 14.27239454 2.24150002 0.02321493 0.01350623 0.00714285
H 2.26818877 19.42751249 3.86136716 0.02394708 -0.01030443 0.00637677
H 6.71302345 13.30801534 7.36238689 -0.01609608 0.01663821 -0.00619203
H 2.45582581 17.86623976 9.35175539 0.00796227 0.02641888 0.02166762
H 18.93183762 15.22508453 4.63254040 -0.01516800 0.00236590 -0.00428587
H 5.06320483 11.55308285 2.36114521 0.00113532 0.00326227 -0.00964816
H 0.59586076 12.85729015 8.02615126 0.00812845 -0.00131434 0.01741491
H 0.78410289 17.27942383 9.37966522 0.01073908 0.00245218 0.01639494
H 4.34183335 15.72764041 4.07906991 -0.00635455 -0.00272001 -0.01015009
H 4.04189626 10.30386184 1.55392790 -0.00547598 0.00928470 0.00706966
H -0.41510230 14.04148476 7.20094552 0.01851366 0.02824479 0.01625261
H 1.23820257 18.56788970 10.53161153 -0.00671458 0.00043563 0.01688176
H 5.76084256 14.87704181 4.74615896 0.00619831 0.01653382 0.01478468
H 3.19234594 11.33584888 2.79771916 0.01952365 0.00531911 -0.00144497
H -1.55102731 18.69547569 14.75242422 -0.01459954 0.00572504 -0.00577994
H 1.19748334 13.74757660 14.86892292 0.02513063 0.01508351 -0.00340920
H 4.05948807 10.32445672 20.75225829 -0.01395081 0.00281761 0.02895169
H 1.06359957 15.49143501 20.54753818 0.00119220 0.01061036 0.02037633
H 4.06861528 17.98936213 12.60465448 -0.00195581 -0.01524204 -0.01230684
H 2.39421690 12.89084331 16.49879279 -0.00113872 0.02222615 -0.01633543
H -1.84820080 10.92259347 22.93016795 -0.02348343 -0.00950080 -0.02249047
H -0.13203521 16.08593067 18.46682678 0.00506326 0.00276726 -0.00322693
H 2.54328682 16.22290341 22.52671676 -0.01826922 0.00543756 0.00799473
H 2.56578549 11.88188825 18.72327201 -0.02397205 -0.00991385 0.01898902
H -0.55784325 12.54624968 13.27254894 -0.00720288 -0.01403133 -0.00359742
H -0.19615295 17.62812057 16.71386752 -0.00619665 -0.00283604 0.01572841
H 1.08437998 15.09748721 11.71890676 0.00451675 -0.00600277 -0.00456698
H -1.37395057 10.23203440 17.94648732 -0.01002422 0.00714488 -0.02543129
H 1.23020795 13.85107735 23.46700164 -0.00245964 -0.00620180 0.00305873
H 3.86130938 18.90335595 17.74841234 -0.00538201 0.01419145 0.00187127
H 1.25224952 16.75473271 13.53926890 -0.00406208 0.01586963 0.01218576
H -1.74921355 11.79396542 16.05449105 -0.00448190 -0.03048292 -0.00206773
H 1.17155114 12.03571413 21.69950401 -0.01729726 0.00079349 0.02434739
H 4.06485610 17.12396215 19.28854996 0.00228226 -0.01086347 0.00201833
H 3.72575816 14.55984585 21.32446089 0.02783969 0.00759558 0.00498251
H 1.56708747 9.97265966 19.92581100 -0.01598099 0.00624485 -0.02167183
H -1.46648849 14.40184371 14.19411015 -0.00462601 0.01427154 0.01484967
H 0.83998312 19.42248589 15.56867636 0.00174994 0.00698433 0.01086480
H 4.46347382 13.75842181 19.50107148 0.00532347 0.00964442 0.02867618
H 0.60790048 18.15629809 21.42073531 0.00095141 0.00685658 0.01178677
H 16.87772855 15.39627349 16.51684670 -0.01547456 0.00874826 0.03164832
H 2.53716086 10.17593862 12.97578889 -0.00915215 -0.01098641 -0.00073956
H -1.22406401 12.59353103 20.30585066 -0.01810808 -0.02332821 0.02111140
H -0.64811168 17.21072999 20.76920561 -0.01160259 -0.00110087 -0.00148822
H 4.94732426 14.91459544 16.31222854 0.01738404 -0.02462263 -0.01828924
H 1.71258572 11.32570412 13.89513063 -0.00955531 0.00508578 -0.00421837
H -1.14203977 13.68627595 18.92713157 -0.02347356 -0.00839792 -0.01648259
H -1.03938791 18.33464820 22.11797175 -0.00299395 0.00696518 -0.01123864
H 4.26176428 16.47270050 15.70183265 -0.00800379 -0.01723689 0.00036223
H 3.50586183 11.37752632 13.74641991 -0.00445098 0.00558676 -0.00090531
H -3.10487244 18.74792896 26.58789060 0.00238727 -0.01636199 0.01523514
H -0.28377412 13.75243231 26.84632272 0.02214829 0.00896102 -0.00342585
H 2.32022113 10.21727794 32.70288351 0.02803247 0.02672798 0.00735901
H -0.66780945 15.03743256 32.69188211 -0.00152893 -0.00425685 0.03041831
H 2.45027245 17.86652627 24.15036734 0.00224809 -0.00501233 -0.00458029
H 0.75566248 13.15122426 28.87864234 -0.00361077 0.02530260 0.00233964
H -3.27327127 11.03612054 34.77260900 0.00812835 -0.02072444 0.00372727
H -1.80427997 15.78361398 30.51277685 0.00269319 0.00473267 0.01132317
H 0.80972034 16.32184591 34.40972973 0.00374444 0.00419976 -0.00348514
H 0.67698921 11.73487899 30.83245615 -0.01979177 -0.00220812 -0.01476638
H -1.73120791 12.88414393 24.57462056 -0.04832515 0.00010729 0.00394551
H -1.80766887 17.35445308 28.58964913 -0.00807244 0.00010794 0.00078512
H -0.34813777 15.19264340 23.30348889 -0.00522153 0.00865100 0.01436135
H -3.10364988 10.22392884 29.88985288 0.01111346 0.01554784 -0.00637974
H 4.02012124 13.30651306 0.42066944 0.00938506 0.01586121 0.00358430
H 2.25146299 18.40651808 29.48029603 -0.01309444 0.00011606 0.00202380
H -0.29487039 16.87996589 25.29416589 -0.02332819 -0.00727398 -0.01221588
H -3.04651265 11.54009675 27.66196646 -0.00727217 -0.00412050 -0.01509935
H -0.58673907 11.75412852 34.26423941 -0.01246332 -0.01023919 0.00850107
H 2.17838623 16.90414634 31.56859393 -0.01318986 0.01769653 0.00357340