2160
Time=70000.00000007 pbc="T T T" Lattice="20.66204335 0.00000000 0.00000000 0.00000000 29.00441732 0.00000000 -4.72578716 0.00000000 35.51079647" energy=-13801.51084423 virial="-59.18663589 19.08909703 36.54726013 19.08909703 -52.01337866 -9.59822080 36.54726013 -9.59822080 -60.47793668" stress="-0.00033771 0.00082299 0.00173821 0.00082299 -0.00023912 -0.00048677 0.00173821 -0.00048677 -0.00048426" Properties=species:S:1:pos:R:3:vel:R:3
O 0.80668286 8.46880326 2.66932094 0.00356800 -0.00320215 0.00122923
O 2.16664025 3.50469599 3.18045779 0.00298878 -0.00249287 -0.00234156
O 4.76494495 1.30582476 9.16358482 -0.00120866 -0.00471484 0.00058115
O 3.75918422 5.71999377 8.04846538 0.00849285 0.00566890 -0.00607030
O 1.49802405 4.98786235 9.38984301 -0.00664415 -0.00219866 0.00304283
O -0.08813073 9.87007274 8.22644983 -0.00192007 -0.00041064 0.00156846
O 4.04756353 5.01934799 2.13026123 0.00194213 -0.00061737 -0.00740164
O 5.78439730 28.92186568 3.74688690 0.00111118 -0.00084324 -0.00185378
O -0.51778803 8.59461207 14.45106254 0.00190806 0.00023376 -0.00153637
O 0.56456368 3.50028000 15.26301050 -0.00022627 0.00338315 -0.00941499
O 3.27349232 1.25474287 21.19780338 0.00287889 0.00316378 0.00311938
O 1.96685307 5.84965139 20.39549193 0.00105093 0.00107124 0.00255844
O -0.31043847 4.65685939 21.49634714 -0.00410568 -0.00450047 -0.00099966
O -1.70345290 9.73371792 20.05035150 0.00336178 0.00123494 -0.00475624
O 2.58303351 4.70234023 14.26150554 -0.00226563 0.00159136 0.00180992
O 4.11116162 28.85203151 15.45806860 -0.00577020 0.00251041 -0.00036030
O -2.23316107 8.83342066 25.96340118 0.00412838 -0.00136169 0.00042430
O -1.18767626 3.56660519 27.21607092 0.00484194 0.00538221 -0.00674409
O 1.50801273 1.09360594 32.85751418 0.00866703 -0.00127720 -0.00058735
O 0.57812800 5.85985885 32.03377947 -0.00160528 -0.00111001 -0.00081398
O -1.55092493 4.85975620 33.27089201 -0.00049770 0.00189708 0.00074896
O -3.39769258 9.98193829 31.93994462 -0.00075147 0.00100741 0.00169143
O 1.00129580 4.74770774 26.23207386 -0.00091721 -0.00139750 0.00127468
O 2.30711129 28.96208520 27.22294325 -0.00370034 0.00150934 0.00059370
O 0.58966371 18.38365604 2.25473464 -0.00518646 -0.00017079 -0.00092271
O 2.11634998 13.65418953 3.55419069 -0.00278272 0.00086211 0.00258474
O 4.80644854 10.71724813 9.40880279 -0.00004545 0.00662512 -0.00088708
O 3.27873775 15.48760345 8.35279215 -0.00841423 -0.00360815 0.00119823
O 1.33352487 14.49580140 9.76142602 0.00200880 0.00808354 0.00068322
O -0.18931941 19.49202822 8.65697785 0.00086018 0.00074069 0.00439763
O 3.96784031 14.58351306 2.11623622 0.00127598 -0.00067754 0.00327705
O 5.73393072 9.63214639 3.41574921 -0.00286918 0.00073373 0.00139004
O -0.94578347 18.33121123 14.09658285 0.00239929 -0.00140417 -0.00251415
O 0.48512198 13.63630114 15.46473757 0.00679225 0.00400005 0.00061892
O 3.21766486 11.03390716 21.09509451 0.00117311 -0.00417327 -0.00137835
O 1.86987946 15.52891159 20.15042180 -0.00110394 0.00001739 -0.00232816
O -0.42053834 14.87492823 21.18166873 0.00122143 -0.00023120 -0.00505930
O -1.86576600 19.46920580 20.20636238 -0.00022772 0.00306334 -0.00027415
O 2.33510960 14.40907129 13.94878935 -0.00809193 0.00000875 -0.00350777
O 4.28070673 9.68861406 15.98334595 0.00178108 -0.00260182 0.00010098
O -2.55695651 18.22460900 26.15835370 -0.00617858 -0.00358256 -0.00067300
O -1.20567698 13.50937895 27.12968593 0.00607689 0.00116157 0.00188963
O 1.45064358 10.82099699 32.91564136 0.00465845 0.00350567 0.00093374
O 0.25148537 15.51508101 32.23648489 -0.00212483 -0.00081188 -0.00407327
O -2.05811712 14.21624205 33.34362270 -0.00297362 -0.00078392 -0.00194547
O -3.62096001 19.36953138 31.88098652 -0.00078559 -0.00451135 -0.00096112
O 0.69470242 14.59358451 25.93545832 0.00246849 -0.00354788 0.00539947
O 2.41545383 9.77835710 27.54984786 -0.00015532 -0.00108322 0.00007973
O 0.69282396 28.04079456 2.61103854 -0.00263354 -0.00055866 0.00536078
O 1.88680998 22.75131749 3.58858460 0.00281852 0.00082515 -0.00021145
O 4.36966078 20.29141065 9.46030266 0.00150914 -0.00307841 -0.00012471
O 3.09669586 25.11478240 8.20350266 -0.00159626 0.00117319 -0.00117517
O 1.13945865 24.16480357 9.45218151 -0.00167380 0.00612715 0.00043153
O -0.21613789 0.22484702 8.20037016 -0.00171508 0.00626927 0.00588598
O 3.84554191 24.00362987 2.44299041 0.00668442 -0.00157694 -0.00128335
O 5.37715836 19.24345566 3.65690586 0.00381159 -0.00355795 0.00022196
O -0.74762222 27.75878152 14.53174083 0.00239854 -0.00219611 -0.00211376
O 0.37783537 23.15376747 15.37147123 -0.00026635 0.00148688 0.00091611
O 3.14594461 20.51464223 21.06050954 -0.00232352 -0.00118885 -0.00485179
O 1.92174271 25.07094359 20.29089037 0.00389849 0.00102570 0.00532482
O -0.24039448 24.07517386 21.53818847 -0.00597961 0.00120492 -0.00607453
O -1.93101426 0.10551367 20.25030152 -0.00007770 0.00009058 0.00098825
O 2.26383737 24.02076618 14.12159740 -0.00551490 -0.00194068 0.00432302
O 3.91310850 19.08064650 15.34638326 -0.00196369 -0.00296925 -0.00003269
O -2.48799405 27.94703499 25.91248532 -0.00332927 -0.00185267 0.00009594
O -1.31003699 23.25751388 27.23657715 -0.00309776 0.00482862 0.00420328
O 1.08052496 20.47338804 33.07772869 -0.00504807 -0.00001020 0.00417033
O 0.20158996 25.01405109 31.85376306 0.00402605 0.00478762 0.00184912
O -2.14638077 24.59595104 33.27178360 0.00025923 0.00250491 0.00071899
O -3.51241524 28.92313843 31.54742461 0.00423140 0.00004895 -0.00215138
O 0.80733401 24.24308380 25.75324873 -0.00703919 0.00047225 -0.00233975
O 2.09559914 19.03865591 27.20355359 -0.00211141 0.00032293 0.00875951
O 7.74994451 8.26959268 2.48078699 -0.00154634 -0.00326748 -0.00303930
O 8.80069492 3.67291891 3.32671895 0.00665618 0.00357117 0.00078791
O 11.44695456 1.36027714 9.33966575 0.00231008 -0.00124001 -0.00010899
O 10.58094997 6.01546760 8.47009176 0.00769333 0.00326978 -0.00295349
O 8.15352512 5.36882590 9.18468209 -0.00470215 0.00539116 0.00371457
O 6.81983891 9.72907314 8.25502352 0.00506784 -0.00273666 -0.00261400
O 11.10571130 4.77430273 2.56322394 -0.00109911 -0.00510550 -0.00237189
O 12.55007192 0.05744039 3.62454939 0.00677981 -0.00275892 0.01266845
O 6.13627878 8.56634739 14.29088232 0.00481441 -0.00358965 0.00223902
O 7.09119660 3.82765553 15.31358563 0.00338048 0.00121514 -0.00523501
O 10.10166633 1.30540732 21.08159764 0.00495595 0.00216801 -0.00243076
O 8.79240662 5.94111648 20.05762353 -0.00182830 0.00046601 -0.00576056
O 6.79257899 5.11411017 21.59134156 -0.00406869 0.00047017 0.00212250
O 5.08177679 9.71102076 19.98245007 0.00766926 -0.00236234 -0.00161020
O 9.33338731 4.78927403 14.22965137 0.00072312 -0.00201947 0.00471823
O 10.90926085 28.97590682 15.39051011 -0.00589518 -0.00175723 -0.00311259
O 4.56154166 8.91404433 26.33630551 0.00417368 -0.00236107 0.00092555
O 5.86278443 3.66654147 26.92536435 -0.00280026 -0.00111450 -0.00141945
O 8.28344753 1.04306537 33.29898499 -0.00167524 0.00017863 -0.00061280
O 7.36839547 5.86559193 31.95217459 0.00337289 -0.00349507 0.00423409
O 5.10876366 4.86809559 32.85003916 -0.00014526 0.00594652 0.00363374
O 3.84139347 9.92475554 32.20064652 0.00010448 -0.00259342 -0.00180676
O 7.89818880 5.03649017 25.70539791 -0.00242851 -0.00284669 0.00389660
O 9.37649804 28.97593891 27.19605843 -0.00482014 -0.00070122 -0.00164485
O 7.55568471 18.33034309 2.36712113 -0.00138927 0.00499021 0.00036787
O 8.86767529 13.42826953 3.55039624 0.00504907 -0.00303834 0.00283707
O 11.48826705 10.80354328 9.35672194 -0.00490476 0.00532588 0.00149007
O 10.23709420 15.70053595 8.39823242 0.00147545 -0.00079604 0.00031039
O 8.17010339 14.59682145 9.49396816 -0.00441309 -0.00464722 -0.00194856
O 6.44826882 19.54944110 8.15211035 0.00177985 -0.00769198 -0.00057967
O 10.88047115 14.56256837 2.29758430 -0.00078737 -0.00054223 -0.00565917
O 12.42161606 9.80809672 3.67158516 -0.00269992 -0.00438631 -0.00168019
O 5.92806920 18.18294128 14.14325035 -0.00435878 -0.00444446 0.00229871
O 7.38576314 13.37396773 15.33493115 -0.00074053 -0.00113571 0.00076755
O 9.91628008 10.59994618 21.34385889 0.00465152 0.00299757 0.00566105
O 8.59582572 15.50378346 19.98234267 0.00396909 0.00085772 -0.00261015
O 6.69930842 14.38928370 21.68000258 -0.00606860 0.00084327 -0.00294484
O 5.06693719 19.32197284 19.91314191 -0.00318926 -0.00724875 0.00023446
O 9.36239474 14.52202298 14.15434105 0.00343769 -0.00194628 0.00114795
O 10.89921778 9.58401014 15.36558236 -0.00012462 -0.00359020 0.00458391
O 4.24254839 18.08236823 26.21101189 -0.00501572 -0.00020352 -0.00123846
O 5.78662478 12.98099363 27.03499219 -0.00673310 0.00053660 0.00757278
O 8.65842715 10.69138200 33.28006659 -0.00152600 0.00471202 -0.00188125
O 6.88416339 15.69525282 32.12746444 -0.00102679 -0.00151492 0.00108173
O 5.16453732 14.31770127 33.59750237 -0.00494901 -0.00292568 -0.00414508
O 3.24732915 19.60151245 32.11699959 -0.00559921 0.00296372 -0.00087456
O 7.74220961 14.30918180 26.02043166 -0.00187297 -0.00562617 -0.00109123
O 9.44409531 9.53015307 27.18154536 -0.01122377 -0.00409182 -0.00414376
O 7.59177657 27.88104559 2.42136336 -0.00292171 -0.00143808 -0.00520365
O 8.67286627 23.27566686 3.69468363 -0.00397380 -0.00009169 0.00564154
O 11.41770716 20.50234738 9.40238059 -0.00174213 0.00414484 -0.00012471
O 10.16236329 25.42574005 8.46025741 -0.00684365 0.00322092 -0.00240690
O 8.17996678 23.92349539 9.55722924 -0.00354878 -0.00032796 -0.00282763
O 6.68737761 0.03050877 8.25234819 -0.00085613 -0.00677278 -0.00068241
O 10.71234752 24.35647965 2.01492719 0.00349480 -0.00435856 0.00779834
O 12.32464671 19.59980668 3.88248501 -0.00386788 -0.00123343 -0.00500325
O 6.09474000 28.28680262 13.73465810 -0.00045755 0.00553282 0.00044922
O 7.29440891 22.77256336 15.04618161 -0.00113534 -0.00475382 0.00488991
O 9.82954789 19.96367378 21.31958586 0.00250742 0.00098674 -0.00091722
O 8.68539575 25.10317653 20.02208553 -0.00498135 -0.00094346 0.00527557
O 6.55732334 24.16674110 21.47187811 -0.00728991 -0.00578196 0.00059417
O 5.29569454 0.09818699 20.19025405 -0.00166177 0.00103998 -0.00097376
O 9.38052510 23.98988884 14.21235403 0.00198532 -0.00669136 -0.00163950
O 10.79102118 19.56201121 15.55814089 -0.00002999 -0.00031043 0.00246041
O 4.54138596 27.86673760 26.21165339 -0.00449306 0.00074631 -0.00233671
O 5.46568196 22.74525932 27.00015413 -0.00210782 0.00058043 -0.00179422
O 7.99383032 20.14144108 33.15030825 -0.00309579 0.00075066 -0.00325620
O 7.03635294 24.93374584 31.70652479 0.00056293 -0.00291110 0.00474257
O 4.75497909 24.57752842 33.01827503 -0.00459539 -0.00041091 -0.00113376
O 3.39031267 28.91282483 31.60773085 0.00932564 0.00300995 -0.00009651
O 7.54949568 23.65839865 25.74740424 0.00020809 -0.00154189 0.00349691
O 9.11304325 19.06861648 27.16743035 0.00609883 -0.00300245 -0.00700862
O 14.61792532 8.70367102 2.37135499 0.00416003 0.00043427 0.00106489
O 15.84362679 3.79757873 3.38254925 0.00518366 -0.00014637 -0.00236754
O 18.26433260 0.99871263 9.62508837 0.00295961 0.00595626 0.00252937
O 17.39514176 5.81934770 8.34785420 0.00242721 0.00316143 -0.00390252
O 15.30860937 4.92266670 9.60106386 -0.00381728 -0.00017179 0.00233360
O 13.79209055 9.81141709 8.42639463 0.00268785 -0.00111880 -0.00167987
O 18.02562321 4.73397549 2.34983684 0.00268545 -0.00283435 0.00452869
O 19.18531208 0.06547165 3.74163751 -0.00067680 0.00273462 0.00022041
O 13.03625683 8.60433148 14.10730554 0.00001812 0.00130017 -0.00251132
O 14.34792619 3.64012092 15.26001866 0.00658818 0.00155297 0.00518487
O 16.51863866 0.80344560 21.35367090 -0.00167837 0.00374257 0.00000841
O 15.74318005 6.28702883 20.43159803 0.00131775 0.00185876 -0.00284669
O 13.68901700 4.78481163 21.05552580 -0.00103079 0.00168783 -0.00286285
O 12.05645354 9.60913761 20.14745029 -0.00513377 -0.00228685 -0.00416419
O 16.34019313 4.59142253 14.22859358 -0.00052779 -0.00537569 0.00393974
O 17.86487658 0.02634650 15.65157185 -0.00329974 0.00279981 -0.00213515
O 11.55767609 8.52001995 25.83349645 -0.00148409 -0.00082883 0.00596409
O 12.46099182 3.86853621 27.15938973 -0.00104857 0.00280816 -0.00066464
O 15.23636726 1.15008325 33.05006271 0.00519562 -0.00429264 -0.00037924
O 14.22538910 5.99640865 32.09275253 0.00252505 0.00552868 0.00578304
O 12.16080013 4.89070157 33.11966803 0.00087210 0.00047672 0.00172517
O 10.56756083 9.62060636 31.94951867 -0.00627327 -0.00290745 -0.00744671
O 14.52081111 4.73079892 26.03757498 -0.00147543 -0.00167096 0.00002391
O 16.35080700 0.01153990 27.40251665 0.00086290 -0.00104552 -0.00106181
O 14.23437179 18.17808015 2.76206890 -0.00025547 0.00379011 -0.00227995
O 15.84272909 13.38708070 3.66833876 -0.00199478 0.00394523 -0.00236440
O 18.42446731 10.92490470 9.42526904 -0.00570720 -0.00166833 -0.00167613
O 17.07595366 15.62322741 8.48398794 -0.00686633 0.00311820 -0.00093562
O 14.95762240 14.69458130 9.42232292 -0.00802321 0.00084280 0.00493668
O 13.51164284 19.22151056 8.37242070 0.00406675 -0.00181490 0.00105811
O 17.72467538 14.60485860 2.44268584 -0.00091622 -0.00123179 -0.00069778
O 19.21117853 9.38963694 3.55738199 0.00087017 0.00327007 0.00428148
O 12.75935059 18.05514176 14.51181265 -0.00555824 -0.00244634 0.00113793
O 13.99987794 13.41723217 15.38562625 -0.00398314 0.00128857 0.00026177
O 16.88511502 10.74564046 21.27176026 0.00324057 0.00506187 0.00292611
O 15.50481610 15.37755276 20.37194137 -0.00485985 -0.00284899 -0.00236644
O 13.45234646 14.65623226 21.46144376 0.00319560 0.00265828 0.00045530
O 11.85586817 19.34983522 20.04499819 -0.00080512 -0.00277766 -0.00461717
O 16.00604208 14.29289076 14.13810706 -0.00407822 -0.00500009 0.00140210
O 17.92247977 9.54933601 15.53972366 0.00308606 0.00373120 -0.00233201
O 11.13260213 18.06198068 26.09991890 0.00303107 0.00180198 -0.00428118
O 12.50585252 13.27784684 27.14520556 0.00018940 -0.00398622 0.00078416
O 15.13932806 11.14031713 33.13466582 0.00496757 -0.00385320 -0.00793786
O 13.73882799 15.59307442 31.96372964 -0.00102332 -0.00432498 -0.00351443
O 11.81671568 14.61427973 33.48356941 0.00082719 0.00643887 0.00517378
O 10.00630672 19.25438397 31.73331285 -0.00019630 0.00199585 0.00042955
O 14.68071472 14.09730543 25.93442231 0.00087111 -0.00143625 -0.00419789
O 16.20839557 9.17852238 27.30310626 -0.00105262 0.00004859 -0.00506537
O 14.52606935 28.16137012 2.20325854 0.00286156 -0.00382747 -0.00283831
O 15.42079739 22.94346283 3.56735972 -0.00485894 0.00197702 0.00506082
O 18.08774673 20.65408829 9.43029284 -0.00231346 0.00111180 0.00037755
O 17.04357389 25.46791993 8.38884675 0.00405012 0.00559061 -0.00718935
O 14.94555819 24.29291511 9.40106564 -0.00180326 0.00505757 0.00445979
O 13.61778939 0.17186763 8.23639706 -0.00003674 0.00322581 0.00087138
O 17.46270467 23.93562394 2.38105567 -0.00562241 0.00204748 -0.00501294
O 19.19184808 19.25495887 3.57990491 0.00011015 -0.00497776 0.00597273
O 13.01221574 28.08855644 14.24391876 0.00763003 -0.00560696 -0.00009401
O 14.12518191 23.32882778 15.58897135 -0.00042583 0.00160361 0.00115492
O 16.62384659 20.23529295 21.42521723 -0.00144516 -0.00080202 -0.00186355
O 15.72023989 25.35203749 20.36505979 -0.00324550 0.00032218 -0.00591532
O 13.57754485 24.18361657 21.32011799 0.00236304 -0.00227361 0.00384402
O 12.03273479 0.19560318 19.73186431 0.00469308 -0.00159976 -0.00124750
O 16.05160595 24.08922791 14.37367708 -0.00000248 -0.00552854 0.00327518
O 17.71738339 19.08088943 15.57345329 -0.00214097 -0.00038032 -0.01184397
O 11.42406321 27.96903332 25.80821900 0.00209089 0.00031072 0.00800507
O 12.33259521 22.97641764 27.23589528 -0.00583755 -0.00033463 -0.00683750
O 14.86477813 20.51654207 33.17415763 -0.00037254 0.00082605 -0.00139477
O 14.06987783 25.27817375 31.93459723 -0.00165514 -0.00229912 0.00370585
O 11.95335095 24.41830720 33.02149048 0.00048105 0.00014852 0.00719557
O 10.50212317 0.31212012 32.15474856 -0.00858972 0.00191740 -0.00407699
O 14.48117334 24.04839579 25.88186738 -0.00385730 -0.00001027 0.00824248
O 16.20579996 19.45458736 27.51313932 -0.00782187 0.00046161 -0.00504562
H -0.10864196 8.61384758 3.07963166 -0.00245833 -0.00127184 -0.01807323
H 2.98492356 3.96981083 2.96299079 -0.01001699 0.02125771 -0.01346688
H 5.55662575 0.73644010 9.03293402 0.00611790 -0.00797922 0.00158379
H 2.81269327 5.39338120 8.12213881 0.00165451 -0.00884307 -0.00599081
H 5.94851459 8.26862359 0.51275921 0.00021414 -0.01609907 -0.00101360
H 3.97539443 3.40094036 5.03102107 0.01729018 -0.00426235 -0.00757833
H -0.38167342 1.54943097 10.94763862 -0.00524754 0.00560780 0.00916638
H 1.90996764 5.95216898 6.17977033 0.00022425 -0.01951363 -0.01314802
H 4.12200133 6.62686891 10.75123928 -0.00239888 -0.00727455 0.00233759
H 3.76263609 1.89898656 7.08250942 0.00513591 -0.00719331 -0.00979384
H 1.39134295 2.79427607 1.18125221 0.01586715 -0.02946810 -0.01275731
H 1.72528893 7.66674074 4.60709227 -0.00199111 -0.01558111 0.00144031
H -1.62892821 5.61560640 35.40727510 0.01871483 0.00300767 -0.02271240
H -0.09127485 0.69539163 5.85173961 -0.02715875 0.00607017 0.00866559
H 2.78424387 4.27589191 11.80454103 -0.01104159 0.02482967 -0.00655622
H 5.66525306 8.89148847 5.51190833 -0.02616741 -0.00025769 0.02495029
H 3.01968059 7.41750857 1.39370084 -0.01023061 -0.01048812 -0.00652456
H 0.08908577 2.16792234 3.83848444 -0.00062737 -0.00381893 -0.00478611
H 2.69245492 2.55817445 10.04452846 0.00045552 0.01636475 0.00186495
H 5.69304890 7.61006129 7.51330022 0.00804817 -0.00242261 0.00571158
H 5.04862769 5.23373487 9.61591255 -0.00806885 0.00524772 -0.00516081
H 2.93883832 28.96033966 7.85140515 -0.00477528 0.02756209 -0.00500867
H 0.47647230 4.63298244 2.41512707 -0.01248868 -0.00857927 0.00063178
H 2.58163579 9.66983433 3.70692898 -0.01203477 0.03014183 -0.01843362
H 5.68516254 3.35260092 8.08926405 -0.02372967 0.01061965 0.01133806
H 1.40935322 7.81732569 9.72045300 0.00059316 0.01865087 -0.01971085
H -0.25108952 5.44106941 4.39183239 -0.02242259 -0.00364348 0.02430012
H 4.27774531 2.30982013 2.64485704 -0.00746006 -0.00631294 0.00854146
H 0.51228450 3.84235185 7.37047127 -0.00940480 -0.00047286 0.02208467
H 0.69653726 9.20955838 10.52717992 -0.01464638 -0.00924392 0.00807231
H 6.69537082 5.53137610 3.96763269 -0.00173542 -0.01295237 -0.01867924
H 4.91153678 1.16828703 1.43113958 -0.03966236 0.01630745 0.03339659
H 19.38207084 3.95134531 7.97170516 -0.00989158 0.02089370 -0.01194824
H 2.39756157 9.22874187 10.11959985 0.00144843 0.00079003 0.02100154
H 5.42291162 6.90281167 3.47139870 0.00226993 -0.00976713 -0.00156102
H 3.11614081 1.00698999 2.04936232 0.01606990 0.00648868 0.00221531
H -1.41673311 8.96570444 14.73023350 -0.02924682 -0.00388030 0.00824431
H 1.30247420 4.15959346 15.20287435 0.01088338 -0.01064550 0.00245087
H 4.17276167 0.84235914 20.91846284 0.00212949 0.00617855 -0.00891429
H 1.05279300 5.57076831 20.50045699 0.04459157 0.00702439 0.00508733
H 4.09483445 8.35027239 12.55127452 -0.00452446 0.02931400 -0.01705127
H 2.35230440 3.32790246 17.10187006 -0.03160382 -0.01491903 0.00850625
H -1.94055669 1.46434680 22.95790193 0.03457620 0.00303697 -0.00438112
H 0.00328534 6.04196001 18.62636124 -0.01948520 0.00650517 0.00679267
H 2.62927227 6.85628304 22.73598375 0.03822163 -0.00452595 -0.00117276
H 2.32059751 1.53768138 19.01423981 0.02064292 0.01149233 -0.00175093
H -0.24643403 2.84023122 13.12276926 -0.01082689 -0.02115542 -0.01609328
H 0.22370434 7.43070360 16.46842008 0.00997739 -0.00318805 -0.01601938
H 1.44090954 5.45707325 11.84583609 0.01305137 -0.01148765 0.01035679
H -1.64998635 0.54667271 18.05568684 0.00761062 -0.01114701 -0.01364682
H 1.05028460 4.09335839 24.10096394 -0.00446158 -0.00928011 -0.00553650
H 4.02996113 8.84861961 17.83966495 -0.02147431 -0.02089533 -0.01295290
H 1.59953154 7.00489197 13.63635323 0.01019775 -0.02472636 0.02176416
H -1.49404925 2.00546339 15.91826431 0.00650314 -0.02143907 0.02268517
H 1.08877028 2.59319225 22.09182869 -0.01829751 -0.00502345 -0.01221732
H 4.12898465 7.14660795 19.44683416 0.00467657 -0.00198510 -0.00406633
H 3.61445679 5.17276230 21.54629475 -0.02407174 0.01440164 -0.00361833
H 1.28120043 28.95431074 20.03855913 -0.00070743 -0.00895194 0.01103473
H -1.15778489 4.89207610 14.19308266 -0.01433276 -0.03909296 -0.01140553
H 1.14968488 9.67533233 15.75881979 0.00969311 -0.04915044 -0.00342228
H 5.45667291 2.97463373 20.23686128 0.02212502 -0.02793215 -0.00558442
H -1.21987815 8.21709379 21.82703266 0.01495947 0.01125435 -0.00068823
H -1.97205691 6.06373652 15.80235062 -0.00456072 -0.01054039 -0.01483503
H 3.35020931 0.99705609 13.38368353 0.02032328 0.01848123 -0.00285968
H 17.89563897 4.10828114 19.57509672 -0.00435070 -0.01391819 -0.02365553
H 0.29698781 8.90716247 22.16250350 0.01074916 -0.01299433 -0.00626186
H 5.18134459 6.20245008 15.38221079 -0.02977314 -0.01534879 0.03103448
H 1.61450333 0.72139397 13.72270685 -0.00689618 0.01520121 -0.00149130
H -2.15949361 2.76772886 20.44639895 0.01096707 -0.00804654 0.01430302
H 0.31768310 7.63858002 20.79507206 0.00711070 -0.00892421 -0.00220686
H 3.43383600 6.79432920 15.53936433 0.00371275 -0.00542628 -0.01526344
H 2.47454621 2.02600727 14.43770921 0.01827591 -0.00254965 -0.02044658
H -3.08788297 8.97686411 26.47924465 -0.01033185 -0.00759822 0.00066199
H -0.30517632 4.05627643 27.29196838 0.01630781 -0.03222242 0.00942405
H 2.28298702 0.64940123 32.40735938 0.00765546 -0.00695144 0.00310055
H -0.29335361 5.52405698 32.45236998 0.00968548 -0.01024364 -0.00166222
H 2.60762304 8.54781315 24.57033913 -0.01511818 0.00430020 0.01301153
H 0.72093265 3.10044038 28.89912016 -0.01328938 0.01111442 -0.00237516
H -3.33658882 1.53016142 34.65926019 0.01909693 0.00103766 0.01849339
H -1.53661903 6.01942567 30.35212180 -0.00142636 0.00421235 0.00580886
H 1.22112513 6.87428748 34.09889323 -0.01143322 -0.01610912 0.02707596
H 0.60710627 1.51838925 30.87539865 -0.01755752 0.01224659 -0.00567582
H -2.04863630 2.97048233 24.78805572 -0.00451893 -0.00199207 0.01918252
H -1.63827392 7.54790654 28.48720693 0.02012013 0.01648940 -0.00892785
H -0.26266340 5.46433346 23.61098491 -0.00121337 0.00622643 -0.02017841
H -3.29844557 0.33797768 29.59485687 0.02091386 -0.01428829 -0.01264333
H -0.45480565 4.25170403 35.49041466 -0.01386565 0.01307919 -0.00140210
H 2.30626878 8.99095956 29.43122286 -0.00315664 -0.00930992 -0.00061665
H -0.21820578 7.17282235 25.31271457 -0.02261236 0.02812257 -0.00206222
H -3.25583724 2.18663721 27.71175351 0.00027022 0.01874029 -0.02056129
H -0.48948588 2.48364303 33.55263010 0.02147850 -0.00879276 0.01225208
H 2.61535157 7.21946311 30.94805425 0.00104314 0.01678225 -0.01280607
H 1.96809749 4.97827992 33.07792548 0.02114222 -0.01255275 -0.01235908
H -0.44114920 28.76063674 31.76240735 -0.01810699 0.01001160 -0.00783328
H -3.01490959 4.78573638 25.75919519 -0.00395192 0.00795766 0.02652048
H -0.73857934 9.68352932 27.33296017 -0.03424494 0.00385588 -0.04620356
H 4.13220321 3.51881225 30.91044670 0.00099834 -0.01245680 -0.01723727
H -2.81741667 8.55326243 33.89806646 0.00943466 -0.02315121 -0.00280610
H 15.59279665 5.87468175 28.16087569 -0.01466499 -0.00250173 0.00632836
H 1.48683159 1.00201645 25.05301772 0.02121483 0.02256371 0.00736936
H -3.03553038 2.54170948 32.53203419 0.01583939 -0.00640951 0.04293896
H -1.16230324 8.61857686 33.72456075 -0.02504346 -0.00698488 -0.00649937
H 2.04553466 6.48515939 27.88958437 -0.00184210 -0.01330356 -0.00799540
H -0.12999238 0.91232083 25.34149054 0.02370625 -0.01503116 -0.02395735
H -2.51352308 3.64141121 31.14332792 -0.00389142 -0.02024083 0.01641719
H -2.09621563 7.43101289 32.70393861 -0.01014116 -0.00264806 0.01708112
H 2.71747917 5.08284447 28.52174553 0.02482419 0.00973358 0.03487758
H 0.82637258 2.19770451 26.13055020 0.01888141 -0.02795272 -0.01416195
H -0.26320512 18.72227948 2.51162910 -0.00443776 0.00303653 0.00273828
H 2.99093600 13.82934657 3.06826881 -0.00093080 0.00652183 -0.01985028
H 5.61581272 10.15611848 9.30879299 -0.01403566 0.01792618 0.01464120
H 2.47387418 15.16621816 8.76803688 -0.01156328 -0.01857155 0.00222557
H 5.52695329 17.86386550 0.72291185 0.01362125 0.02204328 -0.01490177
H 4.14668559 13.13557844 5.36452647 0.03148104 0.00770283 0.00988914
H -0.29819177 11.18232147 11.33536410 -0.02656352 0.00429842 -0.01900084
H 1.13391135 16.13397339 6.87438100 0.00244493 0.00547524 0.02231480
H 3.95251056 16.23266232 10.62343763 0.01534253 -0.01458938 -0.03171180
H 4.13433653 11.29064965 6.90524355 0.02284462 0.01471040 0.01198743
H 1.37211925 13.09540290 1.07931876 -0.01340454 -0.00931413 -0.00684695
H 1.24435926 17.55596817 4.91390281 -0.00826569 0.00171006 0.01059588
H -2.09366834 15.43348222 35.12780944 -0.00382549 0.01978440 -0.00513598
H 0.13295944 10.37266441 5.98641394 0.00756651 -0.02631049 0.00246737
H 2.56679876 13.66057026 12.02105912 -0.01343716 0.00238549 -0.01243036
H 5.23917532 18.77155533 5.87403716 0.00360139 -0.00079489 0.01620470
H 2.52939675 16.70664672 1.57282891 -0.02305316 0.01672360 0.01084588
H 0.17722903 12.12232020 4.15972289 0.02309377 0.00408847 0.00716890
H 2.77879096 12.09466728 10.09619624 0.01440796 0.01216061 -0.01388637
H 5.25714542 17.20829562 7.69928380 0.00028297 0.02126315 -0.00963047
H 5.02237947 14.34057967 9.78143200 0.02569464 0.00230516 -0.00911223
H 3.17716171 9.39756553 7.80213043 -0.00344932 -0.01647793 -0.01017122
H 0.22858381 14.72686494 2.45452618 0.01420492 0.00392861 0.00577898
H 2.20859974 19.21711633 3.76425260 -0.01142636 0.00276923 -0.00006940
H 5.84478818 12.62756992 8.24267141 -0.01442943 0.00841650 0.01336886
H 1.12270650 17.06918002 9.74765734 0.02629377 0.02019744 0.03196568
H 19.55997438 16.53065903 3.71080913 0.00372671 0.01240515 0.00667507
H 4.80513429 10.86221339 1.42548172 -0.00336143 -0.01645997 0.01118492
H 0.29033274 12.25984029 8.46847362 -0.01513293 -0.00438299 -0.04047420
H 0.64812426 18.42725626 10.87815501 -0.00898312 0.00470020 0.00111256
H 6.49212101 15.21485179 4.07226486 0.01102411 -0.00259875 -0.01999999
H 3.09494547 10.82220085 1.98751771 -0.00424016 0.01213782 0.00584585
H 0.76036085 13.60685858 7.46392028 0.00375502 -0.01640721 -0.01952587
H 2.41346770 18.10704971 10.32927627 0.02124909 0.00330151 0.01547372
H 5.55065116 16.58989234 3.68155181 0.00253289 0.02320107 -0.00841953
H 4.39774368 12.01984142 2.68185263 0.00025432 0.01988194 0.00626178
H -1.80283692 18.41997623 14.58519270 0.00202053 0.00777001 0.01431658
H 1.27006501 13.85427688 14.92250244 -0.01140943 0.02825990 0.00152338
H 4.08885235 10.54835566 21.01098161 -0.01005908 0.01587622 -0.00948597
H 0.99845096 15.17651171 20.53414804 -0.02768826 -0.01469608 -0.01730186
H 3.81535978 17.73485074 12.56539119 -0.00007156 0.01499645 -0.00400179
H 2.36447750 13.15935578 17.07458454 0.01921882 -0.00355817 0.00451364
H -1.77521609 11.31905732 22.70851635 0.00550836 0.02499661 0.00803844
H -0.25210788 16.03118334 18.77280767 0.02055770 -0.00250952 0.00490295
H 2.46814013 16.37143080 22.52812982 0.02255892 0.00027105 0.00814369
H 2.55587552 11.25448779 18.73366994 0.02981387 0.00024533 0.00832240
H -0.37089995 12.65774043 13.02067894 0.01558764 -0.00700309 0.00827656
H -0.33049587 17.23165750 16.84156640 -0.01701034 -0.00724976 -0.00089265
H 0.94280626 14.93332782 11.77602241 0.00128793 -0.02528389 -0.02457525
H -1.58015465 10.46374458 18.10885323 -0.00258387 -0.02001700 -0.00674908
H 0.81287915 13.74825032 23.74715506 -0.00957924 -0.02037164 0.01773712
H 3.80441605 18.47920033 17.40184280 0.02023879 -0.00204249 0.00792002
H 0.96332544 16.69542496 13.51698690 -0.01731745 0.01472602 -0.00058271
H -1.79734073 12.18762034 16.40733599 -0.00779976 -0.00700005 0.02286743
H 1.05976254 12.55143510 21.65799177 -0.00362561 -0.02416539 -0.01208009
H 4.03026719 16.72653863 19.14307913 0.01494570 0.01070256 0.00838508
H 3.56765486 14.51050380 21.45655212 0.01549828 -0.01797231 -0.01182046
H 1.47005892 9.66879473 19.84023717 0.01487352 -0.00889653 -0.00318347
H -1.45993436 14.65384746 14.06077794 0.01381088 -0.01451102 0.00968938
H 0.67319905 19.23418670 15.52719605 0.03035485 0.02501658 0.01152914
H 4.27822197 12.97427650 20.06677446 0.00359626 -0.00318906 0.00997683
H 0.27451232 17.48732318 21.31366083 -0.01249198 -0.00281133 -0.00130684
H 17.63189511 16.67613561 15.35260612 -0.03116622 0.00678601 0.02710089
H 3.01032586 10.59122048 13.53981824 -0.00562542 0.01684296 0.01029257
H -1.53250949 13.57720859 19.00612926 -0.00938555 0.00234112 -0.00780429
H -1.22902390 17.94422471 22.07322728 -0.00051561 -0.00254329 0.02662189
H 2.89488703 16.48597423 15.24838507 0.01893274 0.01552657 0.01310146
H 1.83121660 11.22822384 14.53569590 -0.00686250 0.00360586 -0.00158946
H 17.64421949 13.32315403 19.95944496 -0.01616914 -0.02226103 -0.00299113
H 0.20544141 18.88215652 22.41082580 -0.02643890 -0.00832991 0.00350982
H 3.06945670 15.22828206 16.39082132 0.01737441 0.01494795 0.00167342
H 3.51651891 11.83208743 14.78080579 -0.00828342 -0.03121685 -0.02340893
H -3.40213565 18.61948300 26.50772765 0.00503347 0.01812555 0.00317852
H -0.38409039 13.94786542 26.90191842 0.00872424 -0.03891156 0.00455897
H 2.34745960 10.46560112 32.70322144 -0.00415589 0.00703649 0.01175922
H -0.62754120 15.12773413 32.40111578 0.01409229 0.03679867 -0.00574329
H 2.50635240 17.94028928 24.33832123 0.00551551 -0.03386717 -0.00334596
H 0.96011646 12.77151044 28.74503763 0.01680398 0.01942790 -0.01508784
H -3.43772535 11.56403581 34.69822646 -0.01229868 -0.00375683 0.00909571
H -1.96326917 16.01092122 30.65321627 -0.00387818 0.01612909 0.00234730
H 1.18478387 16.57415210 34.10541682 0.00591278 0.01383308 -0.00765888
H 0.73549769 11.40781437 30.69820547 0.00602623 0.01548372 -0.01398073
H -1.82006440 12.85092292 24.75777126 -0.00392535 0.00006861 -0.00574624
H -1.95110201 17.65629278 28.85110206 0.00224415 0.02772870 0.01729693
H -0.67801503 15.20638049 23.29444970 -0.00478928 -0.01493319 0.00944703
H -3.30100719 10.35739454 29.75359818 -0.00384474 0.00348578 0.01335176
H 4.31719348 13.98822984 0.16575007 0.00173654 0.01341067 0.01421426
H 1.85082238 19.08388458 29.73032999 -0.02799032 0.02066351 -0.00727460
H -0.46467496 16.91675016 25.08564076 -0.00207640 0.03232981 0.00209504
H -3.36450579 12.03290187 28.00872354 0.00554599 0.00727207 0.00426013