2160
Time=62000.00000005 pbc="T T T" Lattice="20.56692732 0.00000000 0.00000000 0.00000000 28.93695540 0.00000000 -4.74180284 0.00000000 35.75189618" energy=-13800.82388616 virial="-22.97958511 2.15645862 99.39962521 2.15645862 -47.08404713 1.66039591 99.39962521 1.66039591 -49.10044210" stress="0.00107480 0.00006455 0.00467379 0.00006455 0.00002920 0.00013457 0.00467379 0.00013457 -0.00003206" Properties=species:S:1:pos:R:3:vel:R:3
O 0.60807961 8.58085496 2.27012271 -0.00081023 0.00153938 -0.00378181
O 1.89651707 3.69408569 3.24370449 0.00179557 0.00028344 0.00143470
O 4.73190290 1.27847998 9.26382006 0.01002111 -0.00556111 -0.00052876
O 3.57803547 5.75350305 8.31575941 0.00002561 -0.00236244 -0.00082939
O 1.30168029 4.94120468 9.77677653 0.00199873 0.00054576 0.00383289
O -0.19912155 9.42276179 8.16868343 -0.00264385 0.00221029 0.00333864
O 3.86456357 4.92392840 2.17921877 -0.00008742 0.00419066 0.00201230
O 5.53876447 28.93073673 3.35386599 -0.00402462 -0.00492591 -0.00023141
O -1.10467299 8.30259585 14.62927417 0.00052789 -0.00188453 -0.00388806
O 0.60290889 3.92446182 15.49894058 -0.00339955 -0.00121136 0.00488656
O 3.12364726 1.34704152 21.31314468 -0.00309898 0.00299554 -0.00151847
O 1.62752519 6.21110848 20.61020219 -0.01090040 -0.00150648 0.00546901
O -0.24035152 4.83863803 21.89855715 -0.00458752 -0.00406560 -0.00094712
O -2.05786107 9.93447171 20.09861138 0.00571412 -0.00128389 -0.00420609
O 2.40753996 4.87763777 13.88477507 -0.00124658 -0.00079241 0.00009516
O 4.04466571 0.00566689 15.86104295 0.00361713 0.00733931 0.00203492
O -2.30030793 8.68214816 26.33739736 -0.00533351 0.00220879 0.00587343
O -1.03901534 3.46444215 27.19464803 0.00077848 -0.00456912 -0.00111974
O 1.32266563 0.88713391 33.39607039 0.00064837 0.00163833 -0.00200058
O 0.53735930 5.44510203 31.69799549 0.00788103 0.00305396 0.00198104
O -1.52210881 5.13055506 33.34250989 0.00316125 -0.00316172 -0.00532760
O -3.32816427 10.06880930 32.05303177 0.00809118 0.00475514 0.00455777
O 0.90267964 4.94208450 26.08754912 0.00061587 0.00209232 -0.00464382
O 2.35420607 28.81408676 27.55995404 0.00288742 -0.00236883 -0.00152693
O 0.80552805 18.20354827 2.45305797 -0.00364453 -0.00439174 -0.00614042
O 1.96140313 13.32123613 3.68262112 0.00093607 0.00420869 -0.00539765
O 4.27979242 10.52268258 9.48514128 0.00608481 -0.00325885 -0.00156596
O 3.36208070 15.63971620 8.40451143 -0.00199845 0.00191904 -0.00740716
O 1.43872207 14.42459760 9.54069534 -0.00067434 0.00083837 -0.00008944
O -0.17858621 19.56647504 8.08728754 -0.00484570 -0.00469290 0.00116722
O 3.90593503 14.01649542 2.16921550 0.00303959 0.00037883 0.00637277
O 5.29462187 9.44164648 3.45540704 0.00224992 0.00652415 0.00071696
O -0.75241123 18.33416177 14.16901525 0.00094116 0.00432937 -0.00102403
O 0.36801349 13.39735964 15.31776775 -0.00459597 -0.00622672 -0.00595649
O 2.81249360 10.80461482 21.23861372 -0.00215869 -0.00043898 -0.00391285
O 1.95686347 15.46212678 20.32970591 -0.00154599 -0.00130059 -0.00323247
O -0.13481802 14.83940520 21.63963779 0.00207602 0.00029933 -0.00412618
O -1.82733303 19.43257104 20.31334283 0.00366906 -0.00159751 0.00237462
O 2.31919200 14.48856742 13.90613241 0.00051694 0.00330539 -0.00202584
O 3.81208248 9.60428775 15.55861581 -0.00045236 0.00180209 -0.00183949
O -2.43160123 18.20653243 26.43509673 0.00324242 0.00605074 0.00387892
O -1.30042039 13.34828458 27.14611088 -0.00113570 0.00370166 0.00252686
O 1.54236600 10.97396114 32.85470443 0.00204436 -0.00115578 -0.00210929
O 0.31148769 15.13615321 32.38478434 -0.00788341 0.00242230 -0.00115752
O -1.83232237 14.53219012 33.56292799 0.00291314 0.00337368 0.00092739
O -3.51130668 19.26879846 32.44915534 0.00068728 -0.00375937 -0.00080835
O 0.97020392 14.35397191 26.03098877 0.00425690 -0.00175748 0.00280601
O 2.55050618 9.70710528 27.32799797 0.00479975 -0.00013404 -0.00019288
O 0.87442664 27.62209777 2.48086453 -0.00054262 0.00100348 -0.00475347
O 2.02795567 23.05435447 3.33511573 -0.00001600 0.00013012 -0.00117681
O 4.46217357 20.49638975 9.60595788 -0.00003794 0.00296620 -0.00554114
O 3.37632349 25.19819033 8.08733782 -0.00036071 0.00556992 -0.00528021
O 1.53009823 24.19657727 9.61862454 0.00842011 -0.00098988 -0.00278095
O -0.18501095 0.45005507 8.35321958 0.00251778 0.00179344 0.00321058
O 4.04098235 24.19600361 2.22374701 -0.00109014 -0.00247241 0.00071369
O 5.55006897 19.29470883 3.67223412 0.00436832 0.00107758 0.00330228
O -0.73720718 28.06457838 13.99511130 -0.00107690 0.00062021 0.00477215
O 0.16135853 23.08087355 15.62198009 -0.00070676 -0.00158268 -0.00361767
O 2.82461725 20.56910919 21.73790429 0.00184995 -0.00288468 -0.00281832
O 1.79778276 25.41473896 20.66582433 -0.00177290 -0.00813532 -0.00339677
O -0.69321609 24.67660326 21.26970273 0.00532500 0.00390944 -0.00117204
O -1.75544734 0.38059360 20.29208454 -0.00083252 0.00346121 -0.00351608
O 2.46902399 24.08584456 14.30512112 0.00384848 0.00130199 0.00353432
O 3.96723738 19.08927417 15.49115021 0.00205771 0.00492976 -0.00344597
O -2.60160836 27.85078432 26.38742059 0.00257730 -0.00155357 -0.00083975
O -1.24630995 22.80952454 27.66479549 0.00166284 -0.00478637 -0.00401792
O 1.61631795 20.31931194 33.31339499 -0.00475931 0.00122574 0.00391612
O 0.29619701 25.12187782 32.24377567 0.00410201 0.00054631 0.00683286
O -2.01471109 24.40804043 33.32076052 0.00143485 0.00130485 -0.00912973
O -3.48776351 0.11416450 31.88724217 -0.00186371 -0.00207718 0.00924408
O 0.87188606 23.92741828 26.65547281 0.00059179 -0.00212604 -0.00219238
O 2.23267686 18.93019015 27.61475162 0.00048822 -0.00013473 -0.00367309
O 7.36492533 8.91083825 2.02011775 0.00181980 -0.00103950 0.00410763
O 8.57931085 3.84062769 3.57128461 -0.00556939 -0.00020483 0.00122125
O 11.32246292 1.16652612 9.36603718 0.00089661 0.00456208 0.00034258
O 10.23188436 5.58645821 7.79210617 0.00116925 0.00259083 -0.00206068
O 8.25696802 5.24934782 9.39815770 -0.00481446 -0.00052812 -0.00016779
O 6.71488219 9.86754082 8.44613766 -0.00227961 -0.00120404 0.00348047
O 10.73241758 4.39562600 2.22830834 -0.00363469 -0.00398885 -0.00723840
O 12.20710176 0.01108255 3.53083857 -0.00115329 0.00198859 0.00274485
O 5.94512411 8.36642195 14.64329834 -0.00326059 -0.00173387 0.00072728
O 6.95269401 3.75960980 15.35856146 -0.00226670 -0.00388157 -0.00197328
O 9.83287596 1.33046138 21.15714191 0.00013608 0.00202847 0.00500692
O 8.72461673 5.97621323 20.39112347 -0.00218262 0.00117216 0.00219402
O 6.58558172 4.73775231 21.46396178 0.00092838 0.00597082 0.00277665
O 4.92426564 9.86989298 20.27621091 -0.00246591 -0.00145629 0.00471306
O 9.14708720 4.86193837 14.16762857 0.00004065 0.00172874 -0.00399599
O 10.54332970 0.08240239 15.30523059 0.00045141 0.00039012 -0.00433188
O 4.68488115 8.58264291 26.21367903 -0.00196256 -0.00501922 0.00151702
O 5.50600185 3.56160658 27.12396034 0.00537720 0.00096304 -0.00311255
O 8.43842361 0.94494557 33.31053517 0.00436548 -0.00172695 0.00310186
O 7.27289845 5.86578961 32.22193772 0.00046736 -0.00091789 0.00178048
O 4.90414327 5.31947255 33.23584823 -0.00935867 -0.00059678 0.00290958
O 3.41659374 9.55153518 31.86235506 0.00372067 0.01000762 -0.00179316
O 7.67308597 4.98759375 26.01960685 -0.00180246 -0.00016117 -0.00342419
O 9.30067069 0.18699357 27.62037684 0.00023266 0.00367786 0.00023781
O 7.70183642 18.03399015 2.77553228 -0.00203924 0.00004488 0.00267280
O 8.69083678 13.49893282 3.67384006 0.00349019 0.00119273 -0.00632517
O 11.40223479 10.52649749 9.76703232 -0.00022286 -0.00936867 -0.00539495
O 10.20183457 15.42825609 8.58799811 -0.00070733 0.00034682 -0.00396789
O 8.06157757 14.25250693 9.63891802 -0.00450605 0.00113446 -0.00267657
O 6.66104412 19.48338517 8.40124256 -0.00165997 -0.00076712 0.00222260
O 11.01524059 14.24438371 2.24580461 -0.00325563 0.00195320 -0.00263873
O 12.25200526 9.28473497 3.08947083 0.00151339 -0.00166755 -0.00204553
O 6.04204607 18.45785922 14.08709059 0.00092440 0.00223743 -0.00302372
O 7.22140607 13.32116214 15.40024781 0.00045728 -0.00870225 -0.00302835
O 9.66629006 10.71839686 21.34030344 0.00034174 -0.00956208 -0.00065615
O 8.63038684 15.65427989 20.24690613 0.00442776 0.00723873 0.00239739
O 6.75063394 14.40607840 21.58383229 0.00474289 -0.00020039 0.00182318
O 4.81373876 19.52569725 20.10698788 0.00003197 -0.00290358 0.00108281
O 8.98016749 14.52019711 14.01873851 -0.00190620 -0.00066407 0.00552141
O 10.73456267 9.73330173 15.43757948 -0.00794803 0.00429936 -0.00153084
O 4.31619464 18.01747219 26.33398981 0.00016300 -0.00403382 -0.00580631
O 5.67716155 13.33254996 27.13010355 0.00692268 0.00073859 0.00927197
O 8.11236358 10.33080628 33.42536627 0.00047907 -0.00185573 -0.00454240
O 7.14605500 15.19483938 32.20042901 -0.00218966 -0.00652538 -0.00380817
O 5.06095724 14.63152522 33.59969553 -0.00345790 -0.00586948 -0.00098636
O 3.52974711 18.74749082 32.28464928 -0.00052260 -0.00159625 -0.00976684
O 7.81735704 14.50749925 26.24860098 0.00127157 0.00145962 -0.00183441
O 9.22132669 9.45588890 27.54212532 0.00085329 0.00119765 0.00018607
O 7.58638356 27.64550364 2.57414036 0.00184175 0.00073544 0.00219053
O 8.83758149 22.58744598 3.34477229 -0.00250008 0.00052002 -0.00131323
O 11.59978525 20.70552165 9.30565876 -0.00062674 -0.00205147 0.00814417
O 10.33824326 25.15225243 8.52149034 0.00351663 0.00215111 0.00144223
O 8.28394434 24.26860022 9.68994544 0.00667181 0.00509072 0.00793261
O 6.44649257 28.71762683 8.03464468 -0.00653061 0.00084478 0.00634937
O 11.03481395 23.77572105 2.41962906 0.00014361 -0.00147564 0.00810842
O 12.48009072 18.86930558 3.86460034 -0.00457429 -0.00364743 0.00305878
O 5.96908694 28.29916745 14.15064040 0.00152728 0.00706890 0.00037425
O 7.22032295 23.41673199 15.93626592 0.00011442 -0.00181229 0.00244399
O 9.69013524 20.41461739 21.43453676 0.00291451 -0.00270644 0.00268241
O 8.66190119 25.68052255 20.40301098 -0.00589396 0.00221948 0.00166847
O 6.76100117 24.47723107 21.68247682 0.00514491 0.00218951 -0.00436528
O 5.01541708 28.84361582 20.08586915 0.00716072 -0.00164038 0.00853408
O 9.20034386 24.06974366 14.12984230 0.00335735 0.00353506 0.00261662
O 10.88233364 19.52414007 15.72584888 -0.00221606 -0.00588918 0.00758479
O 4.56614088 27.81730488 26.65812673 -0.00288085 0.00112734 -0.00608511
O 5.19928260 23.09756721 27.59167798 -0.00409875 0.00179358 0.00406089
O 8.45733294 20.57572741 33.09440691 -0.00155585 0.00125381 0.00142167
O 7.28181457 25.23347267 32.08473230 0.00135898 0.00042924 -0.00376778
O 4.93438648 24.50106016 33.23915157 0.00260278 -0.00126442 -0.00214306
O 3.33733108 0.17975516 32.03208599 -0.00768678 -0.00007802 0.00671271
O 7.53772167 23.89168658 26.41194875 0.00523042 -0.00542966 0.00497793
O 9.10920332 18.89958445 27.37866109 0.00248319 -0.00038751 -0.00520587
O 14.60954075 8.71118706 2.23703786 0.00384175 0.00162162 -0.00155604
O 15.32993558 3.84337576 3.81602357 0.00094756 0.00740196 -0.00403675
O 18.28707800 1.14263249 9.63145977 -0.00455959 0.00147210 0.00519900
O 16.93612583 5.85704757 8.08375924 -0.00326821 0.00164717 -0.00324585
O 14.82141494 4.86246159 9.38579297 -0.00129929 -0.00333655 0.01109484
O 13.27234022 9.64495643 8.20119064 0.00267451 -0.00476930 -0.00038008
O 17.66083752 4.47335739 2.43529477 0.00059820 -0.00215509 -0.00350973
O 19.17747020 28.59802147 3.64608221 -0.00332760 -0.00209739 -0.00189294
O 12.82094170 8.71173049 14.05730731 0.00035858 -0.00371881 0.00510716
O 14.01153339 3.93583034 15.54302999 0.00375682 -0.00090974 0.00241845
O 16.63034462 1.24930754 21.45713758 0.00607401 -0.00121434 0.00265755
O 15.36518986 6.21646243 20.22331027 -0.00375172 0.00330878 0.00097701
O 13.51835587 4.89374045 21.65992427 -0.00335966 -0.00473085 -0.00175142
O 11.89729825 9.71288484 19.86370314 0.00059456 0.00117365 -0.00084535
O 16.18369248 4.65577650 14.18731091 -0.00545357 0.00292423 -0.00379059
O 17.27328633 28.42228956 15.18681866 -0.00830875 -0.00245352 0.00138485
O 11.39689673 8.60167058 26.43942492 -0.00182350 0.00117479 0.00203922
O 12.47574303 3.41036846 27.00286576 -0.00541265 0.00295286 0.00472711
O 14.81348989 0.83732885 33.44929898 -0.00320348 0.00267085 -0.00434836
O 13.95243568 5.73936066 32.50637478 0.00470226 0.00284566 -0.00168720
O 11.79422357 4.58524935 33.54783566 -0.00027484 -0.00213625 -0.01140256
O 10.18735477 9.38588841 31.94904689 -0.00124621 0.00359334 0.00311293
O 14.75217362 4.60500271 26.40820078 0.00164631 -0.00290700 0.00187869
O 16.06454792 0.17574424 27.64552442 -0.00677181 -0.00174480 0.00383887
O 14.75441319 18.28513824 2.32778161 -0.00039176 -0.00357130 -0.00046769
O 15.61419627 13.29195033 3.68323216 -0.00326953 0.00449775 -0.00143752
O 18.37619604 10.53627673 9.53288608 -0.00269308 -0.00330639 -0.00164389
O 17.08992951 15.78873617 8.42348300 0.00445720 0.00538865 0.00315817
O 15.08589976 14.72908992 9.68598432 0.00447760 0.00538060 0.00506411
O 13.42200450 19.37292355 8.24887393 -0.00281008 -0.00328590 -0.00304534
O 17.59057903 14.08203593 2.38459631 -0.00528104 0.00449480 -0.00016850
O 19.34971559 9.76122282 3.75556384 0.00039463 -0.00035488 -0.00001774
O 12.80578402 18.37311186 14.40330938 0.00131757 -0.00710766 0.00056243
O 14.12897446 13.49170482 15.26898373 0.00419139 0.00181325 -0.00633725
O 16.48051548 10.88355231 21.48918968 -0.00112186 0.00199186 -0.00487492
O 15.64610132 15.65082141 20.38716439 -0.00206590 -0.00433039 0.00464915
O 13.50512000 14.53744517 21.17264941 -0.00015353 0.00337646 -0.00182462
O 12.00683434 19.38925768 20.04107161 0.00035259 0.00486951 0.00360339
O 16.33721536 14.22210886 14.19855509 -0.00743357 -0.00519682 0.00333975
O 17.62085809 9.81348459 15.46654753 0.00032446 -0.00299342 -0.00093024
O 11.27789440 18.21651469 25.84007518 -0.00078289 0.00515570 -0.00062989
O 12.39610224 13.27065682 27.35872481 0.00345656 -0.00337883 -0.00162884
O 15.10631251 10.50881493 33.37303289 0.00046850 0.00598169 -0.00329403
O 13.80028503 15.34517863 32.33004393 0.00516774 0.00184686 0.00272719
O 11.85505035 14.21283279 33.63455318 0.00146118 -0.00315109 0.00141711
O 10.00454714 18.84636594 32.03241580 -0.00169089 0.00407962 0.00039858
O 14.42762565 14.45175990 26.31460577 0.00461321 -0.00152089 0.00386868
O 16.23495135 9.47141363 27.83088146 0.00228737 0.00230221 0.00228431
O 14.41967882 27.78211149 2.49818934 -0.00064000 0.00238123 0.00233890
O 15.79052383 23.48077285 3.99283681 0.00543139 -0.01048013 0.00076143
O 18.13154877 20.28191645 9.74181419 -0.00188414 -0.00367852 0.00379425
O 17.26918641 25.12599043 8.72164695 -0.00518460 0.00222945 -0.00074000
O 15.15351929 24.17508324 9.87087973 -0.00023046 0.00492957 0.00298106
O 13.35282833 0.06764112 8.37213821 0.00209168 -0.00050084 0.00135891
O 17.83136266 24.05525808 2.44437710 -0.00105747 -0.00383294 -0.00053002
O 19.52348184 19.40366806 3.88953313 0.00405523 -0.00505328 -0.00173085
O 12.82754245 28.06408313 14.27543389 -0.00194949 -0.00210422 -0.00147757
O 14.08447377 23.08013194 15.24205701 -0.00390560 -0.00032387 -0.00150258
O 16.60734387 20.43793965 21.30394454 -0.00049963 -0.00046081 0.00502623
O 15.03596808 25.66395566 20.49124021 0.00196104 -0.00266288 -0.00408255
O 13.19703489 24.27311068 21.56457603 -0.00242796 -0.00216656 -0.00259826
O 11.77506521 0.15742518 20.08626524 0.00051375 -0.00662902 0.00502254
O 16.24108936 24.14066730 14.16231503 0.00214603 0.00602755 0.00129499
O 17.50911426 18.91936912 15.38099981 0.00221734 0.00651892 -0.00205877
O 11.26505450 27.68903060 26.38162785 -0.00188789 -0.00019763 0.00247646
O 12.51509477 22.94323852 27.79066677 -0.00376517 -0.00144666 0.00058968
O 14.88423117 20.17069013 33.73615704 -0.00875999 -0.00186145 0.00375766
O 13.95244669 25.07284893 32.12492852 -0.00026040 -0.00611782 0.00817962
O 11.73897777 24.40945362 33.36093455 -0.00378497 -0.00020400 0.00392798
O 10.34016427 28.91241442 32.00376413 -0.00322728 -0.00092364 0.00036030
O 14.50366545 23.64893855 26.31011566 -0.00140128 -0.00039251 -0.00140711
O 15.94576957 19.15692230 27.77164000 0.00002388 -0.00265898 -0.00409153
H -0.23261391 8.95166382 2.63280532 -0.03999632 0.01311988 -0.00857066
H 2.76759639 4.13249281 3.00606867 0.02790827 0.01098447 0.00835088
H 5.42308719 0.58246815 9.00304455 0.01400577 0.01539920 0.01122228
H 2.66452556 5.66440512 8.76881261 0.00444526 0.02933380 0.01790781
H 5.56064743 8.41689040 0.33534323 0.01026240 0.00927072 -0.01734032
H 3.94731872 3.54662377 5.06608781 0.01731548 -0.00609036 -0.02030236
H -0.26375912 1.34551989 11.31061286 0.02657527 0.00446131 -0.01381384
H 1.59146938 5.95868562 6.60879376 -0.01915240 0.04617052 -0.00709122
H 4.20239648 6.90302716 10.69183871 0.02477168 0.03472279 0.04049156
H 3.79352896 1.94938253 7.00282619 0.00165486 -0.00137144 0.00434586
H 0.99497426 2.80380768 1.40733238 -0.02279542 0.01044995 0.00679899
H 1.51429634 7.34308686 4.58937578 -0.01129358 0.00474648 0.01553537
H -1.81018998 5.58214592 35.57503057 0.02134782 -0.01353956 -0.02729953
H -0.07068671 0.68029267 5.87084147 -0.00529104 0.00636412 -0.00617713
H 2.62363482 4.02264527 12.03759143 -0.00179820 -0.00442603 -0.00857015
H 5.30177608 9.05751424 5.60018247 -0.00177788 0.01809361 0.01446896
H 2.71405219 7.31497043 1.61530464 0.00871494 0.01190526 0.00745790
H -0.16148492 2.49537315 4.31674629 0.02439780 -0.00101406 0.01812831
H 2.82791776 2.66271615 9.95450277 -0.00665922 -0.01563788 -0.03077972
H 5.44185569 7.60528275 7.62411448 -0.00703373 -0.02874783 -0.00241750
H 4.98924104 5.19980881 9.65136827 0.01093811 0.02375406 0.00230049
H 2.97564937 0.13061203 7.92553564 0.01126498 0.01669914 -0.00501906
H 0.29645793 4.75400705 2.11204566 0.03535851 -0.02490285 0.01043587
H 2.15536738 9.38626611 3.73967763 -0.00881032 -0.01818274 -0.00520722
H 6.79433954 2.83135900 8.68445969 -0.01470051 0.00065641 -0.00995716
H 0.78826425 7.34602944 9.53534911 -0.00434957 0.01131681 0.00678254
H -0.44223300 6.33330442 3.55371185 -0.01609973 -0.00030304 -0.00662810
H 4.00744943 0.59133243 1.06151099 -0.02118555 -0.00341105 -0.01224274
H -1.01318163 3.05310215 8.62862486 0.02016955 0.01366080 -0.00500396
H 0.72986975 8.66787723 10.52649165 -0.01092483 -0.02556403 -0.02267167
H 6.19980441 6.84540047 3.00535028 0.00278700 0.00688454 -0.00570346
H 3.16164702 1.82410185 1.88237755 -0.01274148 -0.01729435 -0.02124844
H 0.75273114 2.75367179 8.62888567 0.00078686 0.00097867 0.01479291
H 2.31384557 8.23700699 9.82465716 0.00761836 0.00139044 -0.01949339
H 4.72711036 6.69303922 3.87698656 -0.00997380 -0.00180521 -0.02549741
H 4.95136862 1.84341939 1.84231005 0.02487284 -0.00315474 -0.00040378
H -1.84968987 8.96133945 14.81215943 -0.02210644 0.02088577 -0.02335265
H 1.46807865 4.28270770 15.10018474 -0.00522100 -0.00368031 0.00496675
H 3.95401154 0.88140810 21.07165674 -0.00337190 -0.00964097 -0.01614402
H 0.79543044 5.63676920 20.85508946 -0.00715096 -0.02858067 -0.00224531
H 4.02741047 8.22876280 12.89429267 0.01709548 0.01749675 0.02767479
H 2.46565332 3.41839270 17.18534898 0.00858668 -0.01931165 0.02281062
H -2.09890813 1.31186735 23.37113839 -0.00015367 0.00068061 -0.01528699
H -0.30317199 6.36996484 18.61612895 -0.02303750 0.00613084 0.00466346
H 2.63628152 6.60583842 22.60307845 0.01582137 -0.01512546 0.01377361
H 2.40790638 1.87049711 19.07580404 0.01317812 0.01429305 0.00588631
H -0.24489622 3.11603694 13.11913120 -0.02354809 -0.00560574 -0.01757828
H -0.06177489 7.99478584 16.74277584 -0.01531561 -0.01975053 0.02406210
H 1.16722772 5.67361893 11.75594095 0.00155500 -0.01617680 -0.01012293
H -1.59140721 0.69740918 17.85488737 -0.00443403 0.00131420 -0.00818492
H 0.90961802 4.06826258 24.27190155 0.01281605 0.02788996 0.00713921
H 3.82910836 8.92755528 17.72819867 0.00127161 0.01027556 -0.02313681
H 1.02671331 7.10990428 13.89642276 0.00642721 0.02041578 0.01919357
H -1.47421928 2.33233807 16.02010442 -0.01018084 -0.00268863 0.00686919
H 0.97374068 2.67389427 22.02912835 0.00187302 -0.00945610 0.01675585
H 3.62206868 7.77710836 19.87029328 -0.00115380 0.00178929 -0.02775186
H 3.43845029 4.78648706 21.82213648 0.00825634 -0.02415553 -0.01811847
H 1.37646160 0.09400431 20.15850367 -0.00870068 0.01667198 -0.02669130
H -1.23122970 4.66948393 14.37395602 -0.02262304 -0.01879603 0.00968627
H 0.60988191 9.68714366 15.78912132 0.00724995 -0.00173764 -0.00731513
H 4.34022197 3.23470542 20.00143385 0.00812227 -0.00097730 -0.00540543
H -1.19180195 7.77674587 21.52467953 0.01853270 0.00285114 -0.01828241
H 17.17375727 7.15496914 15.26814228 0.02192453 -0.00045312 0.02128301
H 3.16214012 2.22112156 14.37050893 -0.00808535 0.00740073 -0.02873076
H -1.68409820 2.76862632 20.39520324 -0.00273768 0.00479666 -0.01769616
H -1.12750617 9.22720803 22.51088979 -0.00526188 0.00797543 0.00625882
H 2.94197395 6.24116389 16.14150479 0.00660423 -0.00406596 0.00255287
H 3.18074924 0.82706828 13.37509251 0.01296015 0.00209662 -0.01573529
H -0.68293184 3.95734936 19.58533902 -0.01789709 -0.00408040 0.00060944
H 0.45734540 8.48906578 21.70296486 -0.00034679 -0.02905807 -0.00119886
H 4.63727631 5.79137788 15.96505245 0.01377098 0.03178721 -0.02191468
H 1.57763481 1.26538129 14.16021783 0.00031518 0.02317520 0.02133752
H -3.14913421 8.83302985 26.89383509 0.04377618 -0.00237098 0.00816364
H -0.33998548 4.09751353 26.90819012 0.03852159 -0.01315453 -0.00757203
H 2.16966399 0.62995846 32.98979979 -0.01424046 0.00017003 -0.00514029
H -0.16310062 5.31226461 32.37960713 -0.01036695 0.01111972 0.04342159
H 2.60877225 8.39166125 24.47930899 -0.01094071 -0.00407445 0.01867416
H 0.98245774 3.18784238 28.98266834 -0.01175278 -0.01487691 -0.00164902
H -3.81409993 1.08418379 35.23105430 0.00001107 0.01144610 0.00266821
H -1.78399491 6.37826339 30.44960620 0.00410584 0.01848440 0.00805551
H 0.82610656 6.69918439 34.23423980 0.00908739 -0.00481113 0.00449823
H 0.68373211 1.91689338 30.95744586 -0.01898002 0.00630578 -0.01719947
H -1.80048626 3.22148588 24.98455927 0.00541097 0.00116292 -0.03122639
H -1.65650200 8.01554219 28.75369290 -0.00664990 -0.02437430 -0.02838446
H -0.52896768 5.35980428 23.85355096 0.00330405 -0.00410699 0.00067515
H -3.28922232 0.85047178 29.86731804 0.00044075 0.03776048 0.00227965
H -0.81105157 4.10008257 35.67569728 -0.01395933 -0.00458434 0.02150445
H 2.29230773 9.17506305 29.69357876 0.01331724 -0.01334828 -0.00342720
H -0.33789203 6.97666498 25.65989670 -0.01561327 0.00345780 -0.01502561
H -3.01985203 1.94431935 27.87265339 0.00056473 -0.00224986 0.01191350
H -0.92058395 2.19661155 34.20731075 0.00752825 -0.00866051 -0.01334973
H 2.37640331 7.32575501 31.34026288 0.00460286 0.00712876 0.01571151
H 1.87171940 4.46035274 33.80625324 0.00159536 -0.01553209 -0.00341674
H -0.29123951 0.36982201 32.12122255 -0.02167534 -0.00074125 0.01307518
H -2.76985108 4.70801159 26.12634160 -0.00014753 0.04163103 -0.00752644
H -0.55951099 9.61107393 27.53927183 0.00800238 -0.02902059 -0.02926637
H 4.02669708 4.17327931 30.98616411 0.00896058 -0.00917264 -0.00636595
H -2.86317462 7.81701465 33.29783314 -0.00875726 0.02908666 -0.01273313
H 15.57544936 7.08907108 27.41691557 0.01431073 -0.01408631 -0.00086404
H 1.07595243 1.97813295 26.24690909 -0.00508169 -0.02093537 0.03035163
H -3.85958701 3.84516697 31.54431013 0.00548450 -0.02338475 0.00373104
H -2.05964102 8.91097612 34.17540421 0.00732261 0.01563605 -0.01437059
H 3.07293478 6.95051098 27.31063492 0.00387672 -0.00101582 0.00839579
H 1.66404564 0.59463278 25.28661511 -0.00117708 0.02777515 -0.01703835
H -2.71514890 2.73997117 32.40421633 0.00962056 0.00915606 0.00224175
H -1.08530137 7.94734370 33.05420869 0.01320801 0.01525922 0.01627594
H 1.50101607 6.40797535 27.94410069 0.01430535 -0.00250378 0.00594675
H -0.06133712 0.93537491 25.67325383 -0.00569971 -0.01520359 0.02091187
H -0.08469414 18.56381469 2.69251621 -0.01179176 -0.00047340 0.01125154
H 2.78071400 13.50327771 3.26285474 -0.00002254 -0.00572537 -0.01053566
H 5.17026827 10.13544839 9.30968700 0.00279840 0.00629577 0.01047463
H 2.58463888 15.10930242 8.79956007 0.01268237 -0.00625611 -0.03087711
H 5.85802480 18.03596332 0.87988961 -0.00566919 -0.01863005 0.03284982
H 3.88300343 12.81579737 5.25026660 0.00210387 -0.01072484 -0.00418696
H -0.36032625 10.90378513 11.11847054 0.00329338 -0.02749465 -0.01050850
H 1.41255357 15.85362909 6.57134462 -0.01975038 -0.00466623 -0.00547442
H 3.99793226 16.23874247 10.85600443 0.01759023 0.02917809 -0.00594171
H 3.85549902 11.41356499 7.18023367 -0.03419132 -0.01035040 0.02814026
H 1.10400083 12.41832596 1.19691803 -0.00067125 0.00405099 0.00029020
H 1.48473453 17.34732685 4.71510453 -0.00111584 0.01199800 -0.03379149
H -2.15202050 14.74290395 35.55447376 0.01126440 0.01452997 -0.00136929
H -0.21218484 10.25639824 6.14256765 0.00476328 0.00872509 -0.00516285
H 2.48519067 13.84777220 11.97909231 -0.02028031 0.01328807 -0.01927937
H 5.59592229 18.39881449 5.66677887 -0.00894783 -0.01030204 -0.01358706
H 2.71644840 16.37957194 1.83610105 0.01871137 -0.00403103 0.00724796
H -0.13498942 12.01130715 4.47895742 0.01100005 -0.01254530 -0.00971131
H 2.28891251 11.86355638 10.22418304 0.00051922 0.00881697 0.00213098
H 5.32872919 17.03261857 7.76489225 0.00564816 0.01545494 0.01680910
H 4.90524754 14.42844884 9.74252734 -0.00708297 -0.00650785 -0.02083761
H 2.98008618 9.60036437 8.23298476 0.01787784 -0.01857577 0.00787757
H 0.09716914 14.36315161 2.13700834 0.00264711 0.00012371 0.00287450
H 2.40522486 18.95795315 3.66048615 -0.00132437 -0.01127155 -0.00762966
H 6.88519483 12.15873888 8.41712495 0.02402646 0.00091067 0.00108670
H 1.67484927 18.54432165 10.18446914 -0.00681114 -0.00511934 -0.00480737
H -0.39855889 15.43588433 3.85146895 -0.00351147 -0.00547342 0.00725697
H 2.65887409 10.80407321 2.26094408 -0.00257970 -0.00468697 -0.00538924
H 19.45836889 13.50398061 7.60080100 0.00678203 -0.00280242 -0.01769616
H 1.56038545 17.12112775 9.05549363 -0.00095748 0.00232957 -0.00131009
H 5.38507485 16.39386850 3.31126528 0.00104796 0.01637779 0.01264440
H 4.14409950 11.80517384 2.64081123 0.01790187 0.00097593 0.02425648
H 0.37550623 12.60903444 8.05058691 -0.03804988 0.00803293 -0.00595014
H 0.12303045 17.81938460 9.76415913 0.01601624 -0.01880559 -0.01383879
H 4.62963029 15.32115520 4.46751073 0.01577331 0.00020363 0.00622426
H 4.29205489 10.73484861 1.34764772 -0.01206620 0.00798658 -0.00087382
H -1.64845248 18.70692702 14.34447382 -0.01046224 0.00933317 -0.00565720
H 1.26174208 13.80061244 15.15506729 0.01517517 0.00473916 0.01829151
H 3.69766306 10.48538075 20.98704720 -0.02116981 0.01183972 -0.02939667
H 1.04481354 15.22522023 20.75597695 0.01937921 0.00210002 0.00831786
H 3.97446984 17.99579783 12.66650757 0.02997860 -0.00209712 0.00518013
H 2.10415420 13.33203293 17.31674564 0.01230860 -0.01748449 0.00361452
H -2.26295991 10.96616807 23.36488848 0.01264655 0.01086308 -0.00290831
H -0.03695607 15.80225403 18.71078961 0.02333455 0.02047002 -0.01934889
H 2.37496601 15.93886833 22.70607094 -0.01392355 -0.00570003 0.00846639
H 1.95669653 11.88266449 19.28677436 -0.01156819 0.01023976 -0.00971905
H -0.27224969 12.76903946 12.87960783 -0.00366142 0.01080639 -0.01210242
H -0.10180418 17.66256421 16.89621101 -0.00549716 -0.00372592 0.00230128
H 1.30759179 15.27457675 11.56109491 0.01007551 -0.01376088 -0.01276537
H -1.81051526 10.33910693 18.03029030 -0.02863694 -0.02147189 0.02227306
H 1.12535192 14.15674936 23.78516506 0.00975419 0.00018078 0.00668983
H 3.88680532 18.76596323 17.80928069 0.00062452 0.00861472 0.00097113
H 1.16595253 16.90445436 13.48528244 0.01151780 -0.01353319 -0.00489092
H -1.58602513 11.60513454 15.96270885 0.02083499 -0.02048936 -0.00457865
H 1.10978860 12.71041266 21.74706483 0.01230551 -0.01239729 -0.00963797
H 4.07140631 16.94796519 19.59288592 -0.02400417 0.00096785 -0.00231381
H 3.55578365 14.65314443 21.35086788 0.01102095 -0.02087569 -0.01836293
H 1.07908425 9.97150944 20.21371358 -0.00376810 0.00360627 0.01750410
H -1.20114312 14.63056905 13.71199833 -0.01206188 -0.01595964 -0.01276896
H 0.92643630 19.01661093 15.77167295 0.04026083 -0.01103230 0.00599825
H 4.54214451 12.89181945 20.03268732 0.01025225 -0.00601866 0.00106029
H -0.36400181 17.25883079 21.74085176 0.00311653 -0.00529289 0.00533371
H 17.01550386 15.78548540 16.06134310 0.00783116 0.01597437 -0.00531637
H 1.42325626 10.60779677 13.88124444 -0.01619506 0.00613056 0.01705561
H -1.61780156 12.40802946 20.62820640 0.02156317 0.00905706 -0.00156849
H -1.19018585 18.50845563 22.63257447 -0.00374765 0.00633741 0.02276550
H 4.16082723 16.43758769 15.22643948 -0.01142082 0.00057225 0.00782406
H 2.03424671 12.03691147 14.69798091 -0.01403384 -0.02122496 -0.00776907
H -0.76200844 13.57571034 19.43199536 -0.00327963 0.00311212 -0.00018728
H 0.59904808 18.65602220 22.31128803 -0.01891498 0.00387734 -0.00876840
H 2.68240347 15.75088230 15.95766417 -0.00304626 -0.00523385 -0.00833096
H 3.18235822 10.92540953 13.67175015 -0.00251575 0.01985666 -0.00822302
H -3.27130913 18.64230880 26.69896942 -0.00155917 0.01248751 0.01986939
H -0.41998299 13.72584610 26.89507691 -0.00920263 -0.00678074 -0.01430096
H 2.32339467 10.37427332 32.63123726 0.01391373 -0.00794981 -0.01811620
H -0.57938451 14.88464508 32.85894760 -0.00221838 -0.01019097 0.01843840
H 2.34281109 17.59032993 24.55452523 -0.00083888 -0.00337182 0.00872519
H 0.70170181 13.12883890 28.75838613 -0.00905514 -0.00889403 -0.01580116
H -3.40759107 11.13341354 35.11415142 -0.01068415 0.01984965 0.00914271
H -1.87629564 15.55721179 30.85251029 0.00129939 0.03131139 -0.00102895
H 0.99136937 16.56698827 34.84823703 -0.00939225 -0.00248521 -0.01124180
H 0.72901056 11.64300247 30.81794895 0.01994594 0.01481208 -0.00215094
H -2.18581279 12.60857404 25.13947076 -0.00192427 -0.02082887 -0.01620308
H -1.85003976 17.16959010 29.02124021 0.01118871 -0.02519978 0.00252905
H -0.39408819 15.23150128 23.73617501 -0.01198906 0.01805999 0.01266583
H -3.15352495 10.33428014 30.02100202 -0.01075725 -0.00993234 -0.01949265
H -0.61536575 13.60731592 35.60805667 -0.01582058 -0.00763629 -0.01748628
H 2.29414652 18.11822994 29.73110304 -0.01878582 0.00691016 0.01082824
H -0.46868907 16.80886359 25.62252763 -0.00897249 0.01215132 0.01522922
H -3.21635026 11.87215579 27.88392837 0.01224881 0.02420784 0.00373889
H -0.42262937 12.50864247 33.69641938 -0.01787303 -0.01784798 -0.01512426