2160
Time=35000.00000001 pbc="T T T" Lattice="20.57286064 0.00000000 0.00000000 0.00000000 29.14531660 0.00000000 -4.71841612 0.00000000 35.40010700" energy=-13802.47552657 virial="-49.84297304 -4.02645312 76.72225238 -4.02645312 -9.79455511 16.91429479 76.72225238 16.91429479 -28.22178163" stress="-0.00005088 -0.00022164 0.00363750 -0.00022164 0.00180477 0.00083218 0.00363750 0.00083218 0.00100348" Properties=species:S:1:pos:R:3:vel:R:3
O 1.05190957 8.68786033 2.31411511 0.00212919 -0.00119642 -0.00498190
O 2.04330680 3.59651150 3.38005978 0.00024146 0.00430557 0.00789083
O 4.69649848 0.98214089 9.59077656 -0.00118562 -0.00677916 -0.00352956
O 3.16277036 5.58505859 8.12396474 -0.00536554 0.00215152 -0.00271560
O 1.41873397 4.64589222 9.85298691 0.00127305 -0.00493096 -0.00469845
O -0.12335814 9.63646307 7.99417513 0.00199060 0.00292402 0.00229801
O 4.02670960 5.04637175 2.31242326 -0.00527413 0.00166425 -0.00551202
O 5.43183437 28.72662251 3.68101943 -0.00090941 -0.00578749 0.00393891
O -0.69995914 8.61721974 14.27377595 0.00150756 -0.00641254 -0.00011691
O 0.16442428 3.66417416 15.31059932 0.00339140 0.00401948 0.00695039
O 3.15044465 1.14236496 21.14598289 -0.00706267 0.00560576 0.00193112
O 1.76450903 5.91431972 20.03276394 -0.00408945 -0.00089709 0.00423666
O -0.34229838 4.72846583 21.53967640 -0.00605733 0.00844123 0.00019420
O -1.89034550 9.91713488 19.90506054 0.00018558 -0.00069267 -0.00422295
O 2.25292245 4.57748152 14.20554689 -0.00164486 -0.00481422 -0.00237979
O 3.71535885 29.05348246 15.44751124 0.00490003 -0.00311157 0.00003386
O -2.60523729 8.56674992 25.93187619 -0.00339480 0.00273093 -0.00200006
O -1.26214984 3.75976362 26.88151642 -0.00099079 0.00232997 -0.00102514
O 1.38951551 1.22830041 32.95780639 0.00308805 -0.00497930 0.00323578
O -0.15368535 6.18026983 32.06547748 0.00377465 0.00043376 0.00059730
O -1.96374585 4.66749884 33.05286786 0.00190729 0.00323292 0.00666347
O -3.53577582 9.73247972 31.97268896 0.00103688 -0.00197792 -0.00227045
O 0.79923446 4.98500137 25.66979126 -0.00083472 -0.00086504 -0.00331822
O 2.37283157 29.02449036 26.97009407 -0.00601684 -0.00240781 0.00251223
O 0.93720708 18.13783369 2.24669935 -0.00274476 -0.00119673 0.00159633
O 1.96857298 13.36733601 3.32299393 0.00021189 -0.00688231 -0.00443810
O 4.52563888 10.75197171 9.37184770 -0.00017204 0.00294202 -0.00031221
O 3.31363733 15.58620590 8.21607345 0.00361531 0.00310346 -0.00331116
O 1.33994820 14.58909909 9.64233687 0.00421549 0.01116029 0.00758763
O -0.21344679 19.48156316 8.21439073 -0.00761798 0.00437964 0.00118004
O 4.18750096 14.42404113 2.41177041 -0.00118110 -0.00825332 -0.00302745
O 5.82599180 9.37993898 3.86162594 0.00051934 -0.00518540 -0.00066181
O -0.96522745 18.52542271 13.99901776 -0.00272765 0.00097946 -0.00173349
O 0.26543071 13.50267961 15.25510310 0.00549816 -0.00372724 0.00435267
O 2.98519814 10.74133277 21.35915389 -0.00212766 0.00098986 0.00248828
O 1.70553368 15.87442466 20.08391515 -0.00210590 0.00195188 -0.00053466
O -0.38102214 14.91380426 21.19595425 0.00023347 0.00610411 -0.00340741
O -1.88958062 19.51264788 20.08594686 -0.00441629 0.00112687 -0.00171914
O 2.44452823 15.10860884 13.64845418 0.00134174 0.00427133 -0.00257072
O 4.07539058 9.89599141 15.65274216 0.00178983 -0.00138479 -0.00604588
O -2.59873789 18.40810396 25.91985822 0.00039771 -0.00063313 -0.00239648
O -1.42777657 13.47306062 27.25545889 0.00014161 0.00330860 -0.00247066
O 1.42980680 10.89685279 32.82599432 -0.00032109 -0.00354622 0.00224234
O -0.01256750 15.62951025 31.85965492 0.00066525 0.00190830 0.00305697
O -1.83673369 14.39619917 33.17887127 0.00119706 0.00480057 -0.00085813
O -3.41074121 19.19376284 31.69326531 -0.00323891 -0.00149482 -0.00158082
O 0.81874417 14.25274892 26.10747394 -0.00192609 -0.00521074 0.00515724
O 2.29125801 9.85216065 27.38662073 0.00314049 -0.00581488 0.00112514
O 0.86631540 28.02714189 2.11735503 -0.00078300 -0.00079008 -0.00149419
O 1.90154718 22.94265912 3.32843145 -0.00388816 -0.00223240 0.00418314
O 4.66338348 20.62344336 9.47170235 0.00638537 0.00612504 -0.00001705
O 3.09331744 25.42802281 8.36752709 0.00318409 0.00030351 0.00035302
O 1.27599870 24.32351259 9.68684848 0.00222929 0.00051260 -0.00219930
O -0.27061232 0.20244529 8.28666448 -0.00349372 0.00228176 -0.00001737
O 4.23479271 24.07091941 2.55021278 -0.00231304 -0.00066076 -0.00125022
O 5.59924832 19.15452840 3.51342307 0.00319027 -0.00078498 -0.00145541
O -0.93265086 28.14529017 14.33116033 -0.00545998 -0.00505710 0.00207044
O 0.08697390 23.19908986 15.38198834 0.00480219 0.00846662 0.00281183
O 2.82808079 20.50215107 21.36962204 -0.00363701 -0.00078369 -0.00001624
O 1.98825004 25.28180949 20.22334070 0.00105100 0.00099680 0.00161438
O -0.19489057 24.16639645 21.01207020 -0.00806453 -0.00033086 0.00585163
O -2.00106710 28.90153404 19.98673327 -0.00267709 -0.00382823 -0.00097106
O 2.35320475 24.14150011 14.13702651 0.00016198 -0.00439992 0.00308651
O 3.94400148 19.43198379 15.44431910 0.00297227 0.00657596 -0.00254056
O -2.22480438 28.00662488 25.96917669 -0.00030006 -0.00352146 -0.00671663
O -1.12587741 23.19885130 27.08080136 -0.00180810 0.00058489 0.00372784
O 1.39599795 20.63100859 33.06268073 -0.00365438 0.00883568 -0.00099975
O 0.28923324 25.80312985 32.03031175 -0.00482182 -0.00198584 -0.00210878
O -1.66899546 24.28935821 32.89672516 0.00562441 0.00685765 -0.00623192
O -3.23915286 0.33528953 31.77681088 0.00231009 -0.00521683 0.00741589
O 0.98126528 24.07538498 26.13236292 -0.01117540 -0.00139113 -0.00069669
O 2.10253467 19.03867800 27.07266340 0.00471634 -0.00383781 -0.00024156
O 7.70926335 8.56611938 2.17451955 0.00072679 -0.00059697 -0.00065263
O 8.82978883 3.46567999 3.72502066 0.00529397 0.00541082 0.00012600
O 11.66064568 0.89524728 9.76856780 -0.00060880 0.00056270 0.00438659
O 10.43422760 5.90309822 8.39089250 -0.00214023 -0.00240013 0.00823264
O 8.28444135 4.86474464 9.75210731 0.00456505 -0.00313715 -0.00529391
O 6.59561727 9.71036199 8.30222198 -0.00087324 0.00086517 -0.00230469
O 10.87474738 4.44840339 2.50139283 -0.00191225 -0.00142347 -0.00240990
O 12.36931673 28.93752417 3.48969511 -0.00148040 -0.00260289 0.00499921
O 5.81754520 8.48385258 14.33039231 0.00028602 -0.00349823 -0.00340902
O 7.21315627 3.74511206 15.46097611 -0.00505432 -0.00344152 0.00326909
O 9.76244201 0.98200603 21.56344708 -0.00298073 0.00331461 0.00002554
O 8.42149327 6.29803226 20.02209661 0.00801097 0.00132475 -0.00252986
O 6.57034749 5.18507298 21.30364583 0.00057414 0.00552935 -0.00329162
O 4.85223171 10.00448470 19.75834595 -0.00457141 0.00620162 -0.00221208
O 9.14993752 4.71731446 13.99450738 0.00032911 0.00490297 0.00104545
O 10.83024301 0.09367141 15.51196368 -0.00177044 -0.00367571 0.00133076
O 4.15127020 8.96218675 25.77886132 -0.00202145 -0.00232130 0.00057548
O 5.45817455 4.04656894 27.30153867 -0.00243949 0.00042914 0.00210922
O 8.42300140 0.95051184 33.10726702 0.00142203 -0.00052394 -0.00027435
O 6.86556399 5.96927561 31.68282170 -0.00272393 -0.00360146 -0.00285972
O 4.95440210 4.81077383 32.85307460 -0.00226684 0.00365481 0.00121398
O 3.33352955 9.47192365 31.67264783 -0.00504152 -0.00305972 -0.00406219
O 7.37731632 4.98654078 25.83284489 0.00182697 -0.00186889 -0.00349568
O 9.22989091 29.11436652 26.74499645 0.00056749 -0.00337669 0.00445914
O 7.73437278 18.37571300 2.33120850 -0.00381888 -0.00010185 -0.00162372
O 8.87613903 13.18893222 3.47661666 -0.00739880 -0.00050262 0.00028957
O 11.61657280 10.97111780 9.58629826 0.00225963 0.00290309 0.00015180
O 10.54365935 15.49938703 8.08496540 -0.00328853 -0.00058343 0.00344721
O 8.36707468 14.74574227 9.36802673 -0.00130445 -0.00473619 0.00698231
O 6.60013492 19.36531455 8.07288295 -0.00250960 -0.00541125 0.00091589
O 10.90364308 14.43363056 2.48016910 0.00178686 -0.00287706 -0.00250120
O 12.41971652 9.49644573 3.49758075 -0.00183059 -0.00195578 -0.00212523
O 6.05846211 18.47330765 14.10124975 0.00262834 -0.00257598 -0.00321986
O 7.03363030 13.57542962 15.23978582 0.00961019 0.00267173 0.00037260
O 9.60333023 10.76104536 21.23944775 0.00367231 0.00355978 -0.00143645
O 8.75793125 15.74967518 20.28794434 -0.00242137 0.00169718 -0.00079236
O 6.61842751 14.71964789 21.25229514 0.00093683 -0.00001751 -0.00180364
O 4.98782057 19.63697768 20.12150469 0.00273025 -0.00500675 -0.00132391
O 9.16520665 14.70884911 14.05928506 0.00220645 0.00105675 0.00067332
O 10.60709456 9.77000968 15.06246325 -0.00147477 -0.00373827 -0.00218010
O 4.30983671 18.24316963 25.90885185 -0.00065677 0.00494114 0.00118792
O 5.34175126 13.65242891 27.11527749 -0.00797551 -0.00053576 0.00275147
O 8.15593484 11.12887473 32.87137485 0.00395573 0.00006896 -0.00140429
O 7.03552716 15.86971447 31.71832333 -0.00093109 -0.00431516 0.00488846
O 5.08181846 14.72170421 33.00782583 -0.00042689 -0.00187749 -0.00156520
O 3.54004892 19.60765480 31.84861175 0.00306156 0.00059816 0.00641299
O 7.55370150 14.22866549 25.99288581 -0.00117742 -0.00118061 -0.00634607
O 9.09907056 9.68806903 27.20933936 0.00411450 -0.00045378 0.00462808
O 7.53365689 27.71582184 2.53367912 -0.00328012 0.00185048 -0.00170142
O 8.79926592 23.35751853 3.70278439 -0.00462103 -0.00033081 0.00379941
O 11.27281013 20.55397941 9.23222453 -0.00075276 -0.01114526 0.00203097
O 10.18199408 25.29345242 8.29758418 0.00635020 -0.00717112 0.00212350
O 8.17826597 24.49200410 9.83665840 0.00068650 -0.00014082 0.00057407
O 6.75924881 0.00182677 8.35769043 -0.00605983 -0.00253020 0.00199192
O 11.00787405 24.04579256 2.50072447 -0.00084328 -0.00124444 0.00027398
O 12.57963746 19.56424066 3.67422548 -0.00046968 -0.00198951 0.00108027
O 5.97767252 27.98369572 14.71612104 -0.00131762 0.00323933 0.00770531
O 7.10991037 23.31074663 15.54245754 -0.00213638 0.00013569 0.00771372
O 9.77373048 20.30334787 21.46618973 0.00310993 -0.00782838 0.00226113
O 8.99045180 24.93699230 19.85336725 -0.00246683 0.00317726 -0.00018266
O 6.84026258 24.35371718 21.11261555 0.00129250 0.00276403 0.00409410
O 5.16907683 29.01512105 20.05028156 0.00519700 -0.00226715 0.00389991
O 9.37890230 23.87511908 14.26492247 0.00458229 0.00358230 0.00663610
O 10.59354390 19.25817217 15.36347639 0.00186863 0.00488884 0.00482805
O 4.62515260 27.95645006 26.09499829 -0.00022701 -0.00480975 0.00781676
O 5.69424540 23.22917643 27.18315940 -0.00031742 -0.00374584 -0.00554654
O 8.32756880 20.63919412 33.17126197 -0.00349666 0.00052168 0.00551692
O 7.20414021 25.55408816 31.72927895 -0.00575112 0.00769788 0.00105217
O 5.26283967 24.49913840 33.06859047 -0.00019374 -0.00097940 -0.00181340
O 3.51018142 0.02653935 31.75683374 -0.00130830 0.00804147 0.00100659
O 7.85516956 24.17709528 25.99026111 0.00131286 0.00212219 -0.00053807
O 9.18133599 19.31243539 26.82743591 0.00771955 -0.00032294 -0.00121804
O 14.37748363 8.35908359 2.46298470 0.00209283 -0.00764948 -0.00042220
O 15.93399132 3.84801344 3.49697215 0.00280169 -0.00563895 0.00047439
O 18.16405087 1.05819932 9.58298970 -0.00193420 0.00216418 -0.00146637
O 17.26623199 6.02135312 8.37226266 -0.00484420 -0.00033335 -0.00230371
O 15.09102487 4.84995111 9.51640880 -0.00139537 -0.00473213 0.00287106
O 13.49734101 9.89976463 8.37725383 0.00229292 -0.00649974 0.00104831
O 17.92508711 4.83447403 2.43709113 -0.00206175 0.00169871 0.00843470
O 19.42274775 29.01302256 3.44395795 0.00546788 -0.00206193 -0.00244259
O 12.86433384 8.56965143 14.24367407 -0.00194664 -0.00227822 -0.00427781
O 14.03445577 4.30508581 15.64502371 -0.00367650 -0.00423119 -0.00019508
O 16.53700380 1.16582005 21.20589676 0.00462309 0.00196191 -0.00219232
O 15.65179370 5.67422243 19.86001734 0.00477571 -0.00098360 0.00238727
O 13.38343992 5.18049205 21.26163748 -0.00102087 0.00073012 -0.00283670
O 11.70059933 9.79368824 20.00269316 0.00205043 -0.00006251 -0.00088262
O 15.97284645 5.01530988 14.01788903 0.00113435 -0.00089740 0.00027578
O 17.74556838 0.34419996 15.73715962 -0.00248366 0.00065954 -0.00313998
O 11.41800176 8.84739352 25.82086370 -0.00442425 -0.00138627 -0.00645238
O 12.37667879 3.55832354 26.82634039 0.00108786 -0.00164319 0.00354892
O 15.08802376 0.94447740 33.22226984 0.00100027 -0.00090315 0.00032594
O 13.91827592 5.69854319 31.92291180 -0.00266065 0.00145685 -0.00796398
O 11.85620763 4.77117592 33.00812537 -0.00250414 -0.00112375 -0.00182915
O 10.08262268 9.65124538 31.79402035 -0.00340645 0.00402979 0.00672672
O 14.36930479 4.82776647 25.93930489 -0.00668690 -0.00282296 -0.00087642
O 15.91350938 28.87780792 26.72758581 -0.00189890 -0.00673471 0.00122253
O 14.55047240 18.41686225 2.45765602 0.00599443 0.00262949 0.00055932
O 15.64268753 13.28413644 3.42984529 0.00652470 -0.00585990 0.00131851
O 18.43921749 10.75247408 9.25878969 0.00014217 0.00300520 0.00341731
O 17.19755783 15.80561658 8.50871491 0.00203331 0.00179411 -0.00223918
O 15.14401299 14.38188785 9.70581473 0.00391714 -0.00424185 0.00254442
O 13.51356302 19.72265557 8.11143940 0.00055462 0.00007915 0.00530715
O 17.71633054 14.46549371 2.25069113 -0.00297047 0.00879564 -0.00424641
O 19.31768621 9.46598762 3.31448163 0.00427713 0.00203234 -0.00222508
O 12.86468524 18.34536354 14.11223648 -0.00149228 0.00211975 -0.00065314
O 13.83965298 13.52601851 15.40281692 0.00553993 0.00152853 -0.00017178
O 16.51855334 10.86842443 21.10640225 0.00439259 0.00211185 0.00257325
O 15.35190828 15.28380385 19.79076382 -0.00287520 -0.00383758 -0.00167276
O 13.37988593 14.49104235 21.29474077 0.00176337 0.00476028 0.00088413
O 11.69958787 19.44062615 19.93026121 0.00486965 -0.00284753 -0.00137845
O 16.15875004 13.96111673 14.10220343 0.00543295 -0.00610124 -0.00528907
O 17.70203754 9.41907397 15.35830209 -0.00316088 -0.00046281 -0.00604244
O 11.35295628 18.41700136 25.93874304 0.00126742 0.00075732 0.00098520
O 12.36015990 13.43263693 27.14315947 0.00154416 -0.00030303 0.00242874
O 15.07926161 10.79354216 33.02980953 0.00562406 0.00159404 -0.00552711
O 13.89808209 15.59795551 31.68997662 -0.00443202 -0.00266555 0.00096546
O 11.85815452 14.78653456 33.15440394 -0.00633167 -0.00067428 0.00059705
O 9.97522916 19.54009649 31.60437010 -0.00319891 0.00408663 0.00063901
O 14.50800992 14.43849697 25.80868296 0.00181572 0.00077865 -0.00174803
O 15.97396501 9.63883097 27.33730034 0.00058241 -0.00214363 0.00077060
O 14.44512250 28.21395647 2.26445931 -0.00086327 0.00645153 0.00750099
O 15.63269518 23.41219285 3.53289060 0.00125547 0.00187115 -0.00307470
O 18.43331508 20.61379236 9.41771642 0.00649523 -0.00178501 0.00149382
O 17.22775533 25.43754707 8.38904277 -0.00485910 0.00050529 0.00949640
O 15.02368561 24.54766849 9.42918778 0.00515761 -0.00432408 0.00629236
O 13.42866821 0.30980963 8.08414157 -0.00175899 -0.00300155 -0.00202673
O 17.86380001 23.81270565 2.32025682 0.00348392 -0.00168071 0.00166306
O 19.58375289 19.08968544 3.44763897 0.00907140 0.00309900 0.00057266
O 12.75732145 27.90839836 14.25573584 -0.00502519 -0.00536944 -0.00034735
O 14.11622933 23.00326869 15.21971864 0.00543817 -0.00004532 0.00531730
O 16.75395638 20.34331372 21.36730231 -0.00604303 0.00414128 -0.00313110
O 15.35699342 25.11259151 19.87956722 0.00180632 -0.00310051 -0.00248537
O 13.59562321 24.09129802 21.43873422 0.00242957 -0.00025593 0.00546945
O 11.83048137 0.48396780 20.10267516 0.00405097 -0.00067589 0.00071582
O 15.81291314 24.49102851 13.93287301 0.00232312 -0.00141852 -0.00163310
O 17.66962676 19.33216357 15.46116236 -0.00576388 -0.00055542 -0.00120948
O 11.51997608 28.27393869 25.78207285 0.00183094 -0.00140947 -0.00490847
O 12.61818932 23.41846404 27.30426861 0.00442844 0.00403208 -0.00225521
O 15.07212680 20.39311054 32.78729244 0.00122614 -0.00165593 -0.00583885
O 14.13613426 25.47626604 31.90081342 0.00432396 0.00485053 0.00128136
O 11.97864657 24.55309489 33.01274263 -0.00527836 0.00269663 -0.00285618
O 10.42028063 29.04395424 31.74508021 0.00498140 0.00119819 -0.00242395
O 14.58452648 24.59166407 25.88565099 -0.00369336 0.00358464 0.00026357
O 16.31563149 19.49176342 27.49182652 -0.00001423 0.00178259 -0.00419509
H 0.14327588 8.93006027 2.70889841 0.01082359 0.00901374 -0.00629789
H 2.88644386 3.96661765 3.01430863 0.01231069 0.02033312 -0.00446217
H 5.51681113 0.52598926 9.17828773 0.00140066 -0.00213748 0.01749614
H 2.38398853 5.24268500 8.65567284 -0.00009726 -0.01395984 -0.01657635
H 5.70456993 8.07441225 0.81157791 -0.03427903 -0.00427977 -0.00906739
H 4.08539804 3.11161200 4.97281196 0.00346506 0.00373439 0.00103481
H -0.55490873 1.35931579 11.26018249 -0.02288271 -0.00044778 -0.01847567
H 1.29171749 6.33670185 6.43301666 -0.00640977 -0.01746985 -0.00792193
H 4.32686058 6.75528873 10.33868435 -0.01629430 -0.00729982 -0.01703065
H 3.98302419 1.62006149 6.94075148 -0.01129694 -0.00851676 -0.03928383
H 1.17867894 2.87460905 1.25140776 -0.00307252 -0.00233180 0.01113189
H 1.46832523 8.07043204 4.72293812 -0.00783776 0.00554974 0.00711090
H -1.96561617 5.28162188 35.24482861 -0.02345312 0.02955059 -0.00233172
H -0.05864359 0.57394130 6.03409199 -0.00213946 -0.02762014 -0.00283884
H 2.40239351 4.08755719 11.92995552 0.02165595 0.01279770 0.02419277
H 5.58084643 8.68043824 6.08786924 0.03033668 -0.01072405 -0.00746752
H 3.00807002 7.13646156 1.38030408 -0.01569716 0.02644889 0.01800173
H 0.01791449 2.20368833 4.19412949 -0.00857308 0.02239830 -0.00174287
H 2.45573212 2.44634324 10.12069757 0.02135654 0.00291481 0.00383981
H 5.23499258 6.99799141 7.66442513 0.00595120 -0.01823873 0.02007638
H 5.09335748 4.68432178 9.60185539 -0.01279116 0.00348328 -0.01910656
H 2.87029870 0.01792924 8.25846733 0.00701373 -0.00330668 0.00201967
H 0.42226729 4.80554686 2.21425904 -0.01931243 0.00018630 0.01807671
H 2.72446799 9.65112179 3.56760585 0.00742537 0.02283090 0.01459586
H 7.53489893 3.93959451 7.42251914 0.01313017 -0.00316287 -0.01191991
H 1.23938319 7.45404648 9.18917041 -0.00163981 -0.01716009 0.00513111
H 19.13724368 7.22346775 3.36575103 -0.00638026 0.02321964 0.00907294
H 4.64410445 0.37978357 1.34299177 -0.01764621 0.01222623 -0.00090815
H -0.03357594 2.48899145 8.76583815 0.02272732 -0.01361192 0.00795302
H 0.38250062 8.55565484 10.41508004 -0.01585565 0.00823761 -0.00241996
H 4.67046146 5.93710708 4.49551210 -0.01448950 -0.01528545 -0.00297285
H 3.10184191 1.16303339 2.03832510 -0.00117797 0.00097282 -0.00482046
H 0.49959526 3.71502055 7.63682680 -0.00793118 0.02568007 -0.00273943
H 2.22721155 8.56528693 10.02905874 0.00120165 0.01049436 0.02845591
H 6.13556971 4.96349230 4.56233775 -0.00909640 0.01980841 -0.02883852
H 4.72789309 1.79811006 2.34744384 -0.00658840 -0.02713936 -0.00879343
H -1.66634089 8.88070075 14.58038425 0.00180754 -0.02305898 0.02679628
H 1.08285756 4.04230619 15.19086348 -0.00105154 0.00380092 0.01750021
H 4.08986366 0.73699630 21.04030689 -0.00501723 0.00315988 -0.01361392
H 0.90111693 5.74317179 20.31499777 -0.00078443 0.01641829 0.00149911
H 3.97651806 8.10140541 12.53068154 0.00106461 -0.02406161 -0.00044851
H 2.33062977 3.11501355 16.80103796 -0.01248558 0.00453536 -0.00991198
H -2.08894621 1.44123996 22.89422426 0.00650084 0.01507346 0.00618059
H -0.33063419 6.49461932 18.50404700 -0.00413178 -0.01146576 0.01350772
H 2.17643546 6.64979424 22.46504641 0.02679276 -0.03137789 -0.00201953
H 2.34232851 1.35387974 18.61017360 -0.00190370 -0.00281955 -0.02832010
H -0.56999747 2.95767908 13.25830717 0.00178337 0.01517113 0.01209317
H -0.07377974 7.67820734 16.22463713 -0.01078104 0.00012751 0.00866778
H 1.21679171 5.54957512 11.66277515 -0.00026568 0.00881133 -0.00433039
H -1.91614085 0.70648711 17.88116138 -0.01965665 0.01587038 0.02032445
H 1.01843266 4.38326578 23.70514120 0.01309756 0.00323405 -0.01109924
H 3.60088422 9.23005127 17.48831396 -0.00493275 -0.00515870 -0.00845168
H 1.30618025 7.23075304 13.31249217 0.03039521 0.00459422 -0.02710373
H -1.88123716 2.71227343 16.43604996 0.01828975 -0.01293787 0.00673012
H 1.00311778 2.67188071 21.75017874 -0.00938116 0.02244366 0.01916585
H 3.60777612 7.77278587 19.50201607 -0.00830994 -0.00937220 0.01223977
H 3.47663432 4.76820173 21.33281714 0.02636388 0.00387795 0.01731693
H 1.21893212 28.99453100 19.71748390 0.01044085 0.01623686 -0.00644387
H -1.41774534 4.68965988 14.10192055 -0.01100474 0.00242168 -0.02467724
H 1.01395549 9.51809674 15.19690125 -0.02018393 -0.00371886 -0.01439166
H 4.44249892 4.09793542 19.26476540 -0.01693190 -0.00427469 -0.00501036
H -1.10618071 9.02101730 22.23992850 0.03547221 -0.00099207 -0.02033206
H 17.31087390 7.14433561 15.33388640 0.00377132 0.00016315 0.01153191
H 2.85393829 1.03068575 13.12121422 0.01102157 0.02479523 0.02543413
H -1.82778197 2.70503067 19.98523501 -0.01602023 -0.03839295 -0.00662172
H 0.51076058 8.49355374 21.53031416 0.00241261 -0.01077466 0.01235883
H 4.66426680 5.22443324 16.09573777 0.00479006 -0.01898978 0.01767025
H 1.18080700 0.52325427 13.58244901 0.01590730 0.02961581 -0.00659607
H -0.69114594 3.73511663 19.21811250 -0.01237321 -0.02199250 -0.02029761
H -0.98714027 7.60201672 21.05490214 -0.01001090 0.00605774 -0.00352275
H 4.24414627 6.74352181 15.28710023 -0.02249505 0.05385389 -0.00560630
H 2.05901331 2.08557290 14.20990834 -0.00629353 -0.00824500 0.01942592
H -3.47053254 9.03101265 26.05833386 0.02376367 -0.00859205 0.01836462
H -0.42329741 4.22581123 26.55910100 -0.02325531 0.01318578 0.00138375
H 2.15104134 0.64048548 32.69478935 -0.02922345 -0.01072268 0.02979534
H -0.89834770 5.51879325 32.14182141 0.00646446 0.00208882 -0.01414660
H 2.12702125 8.30419257 24.20191959 0.00107889 0.01163897 0.01942024
H 0.68893052 3.72381914 28.55753551 -0.01275029 0.00500475 0.01528820
H -3.53849533 1.23276868 34.88442753 0.00773433 -0.01375314 -0.01050882
H -1.91115242 6.23876901 30.21228032 0.01473818 -0.00923916 -0.00367946
H 0.77242649 6.38432410 34.39188008 0.00412769 -0.01027221 -0.00104362
H 0.86644889 2.05130718 30.43927935 -0.03136722 -0.01621542 0.00004764
H -2.15625307 2.92932814 24.93671778 -0.00943091 -0.00098605 0.00457002
H -1.93195787 7.60547594 28.08998432 -0.00955619 0.00842099 0.01142079
H -0.63663158 5.41394415 23.57018848 0.00458820 0.01212392 -0.00551630
H -3.17455619 0.90623508 29.89152288 -0.00986346 -0.00624927 -0.01671850
H 4.37143241 4.39721645 0.27109336 0.02256322 -0.02769167 0.00013171
H 1.97610603 9.00011964 29.28541389 -0.00136911 -0.01026269 0.04581781
H -0.60183595 7.28845675 25.22539701 0.01784718 0.00456551 0.01983660
H -3.17007384 2.16080729 27.74126671 -0.00906025 -0.02787514 -0.01742636
H -0.61621880 2.62652869 33.80065957 -0.01735530 -0.00893805 -0.00738953
H 2.11675829 7.27747242 31.00344276 0.00233299 0.00136878 -0.00888719
H 1.81957056 4.55152933 33.18541198 0.00930599 -0.00026869 0.00153716
H -0.11779153 0.12873953 31.42839485 -0.00288259 0.00833423 0.01717257
H -3.06610455 4.58357163 26.08738957 -0.00314201 0.00623897 -0.00854510
H -0.88876921 9.56082544 27.13691035 0.01393120 0.02044759 0.00672513
H 2.31749467 3.73849200 31.28459140 0.00348507 0.00667333 -0.00938627
H -2.59019927 7.60521452 33.22240380 0.01264805 0.01171489 -0.03365898
H 15.95817195 7.30098657 26.73555978 -0.01295269 0.01334681 -0.00290977
H 1.81810206 1.10364787 25.02803425 0.02342725 0.02293947 -0.01594386
H -3.83846842 2.72422766 31.89110823 0.02222119 0.00361811 -0.02946485
H -2.29038326 8.91800494 34.35633236 -0.01118376 -0.02205540 -0.02293011
H 1.76214608 7.41437542 26.54253796 -0.00075321 -0.02532409 0.01086420
H 0.04490015 1.00743645 24.98842824 -0.03270935 -0.00773525 -0.01624414
H -2.83014309 3.63726728 30.83135390 0.03326237 0.01805606 -0.00894084
H -0.92869394 8.33298994 33.30113342 0.00116348 0.02020289 -0.01516739
H 1.74235388 6.32716320 27.86584543 -0.00925087 0.00600404 0.01461601
H 0.78032265 2.27636110 25.90290018 -0.03918225 0.01808067 0.01039179
H 0.12740458 18.63455661 2.62713185 -0.00049042 -0.00392327 0.00057480
H 2.90789498 13.69396320 3.09613551 -0.00915294 -0.01807656 -0.02826627
H 5.40279806 10.32940699 9.20775013 -0.02225016 -0.00117222 0.02603874
H 2.43696954 15.17507457 8.37053927 0.01358362 0.00346019 -0.00301411
H 5.60404603 17.96744999 0.68456834 0.00552029 -0.00684297 0.01044867
H 3.92925396 13.20243982 5.16342613 0.00470784 -0.00904636 -0.02024494
H -0.24465815 10.91104569 11.00457821 -0.00503617 0.02844627 0.00009103
H 1.52675245 15.69180816 6.31029993 -0.04779042 -0.00708959 -0.01558360
H 3.99825500 16.41729327 10.60185847 -0.01345330 -0.01831944 0.03722369
H 4.03851708 11.60345085 7.10274596 -0.00238554 0.00774323 -0.00784756
H 1.29522346 12.60196311 1.17071932 -0.00840459 0.02559132 -0.02093562
H 1.59832909 17.38409004 4.59447540 0.00074587 -0.00959039 0.00625900
H -2.00539972 14.79339389 35.27264135 0.00100377 0.00357649 0.02309139
H 0.18790276 10.12810775 6.03811935 -0.00670906 0.00318381 0.00301942
H 2.62684607 14.07379525 11.81682815 -0.01720830 0.02555391 0.00663890
H 5.49711544 18.57420183 5.70406008 -0.00988744 0.00703817 0.01609872
H 2.83362609 16.66884421 1.42746865 -0.02530748 -0.01804685 0.00476976
H 0.07542477 11.82400079 4.11314161 0.00494831 -0.00411438 -0.04202358
H 2.60663988 12.11542438 10.10154414 -0.00865934 0.01850309 -0.00257376
H 5.44160330 16.89084391 7.50652171 0.01776910 0.02930987 -0.00446837
H 5.14929887 14.56960171 9.59387836 0.01428600 -0.00732093 -0.00166051
H 2.95037358 9.76575786 8.31295224 -0.00364619 -0.00036978 0.02500615
H 0.28766414 14.57291143 2.19138918 0.00694729 0.03415227 -0.01139414
H 2.50319900 19.33048293 3.84603603 0.01795086 0.01952529 0.01108859
H 5.59531092 13.61394976 7.88273602 -0.03545422 -0.00185610 0.01230183
H 2.17282768 18.87566974 10.44366579 -0.03690486 -0.01132078 -0.02600603
H 19.76568992 15.05271344 4.39471653 0.01171674 0.01820656 -0.01425345
H 5.39234768 10.66122729 1.63513582 -0.01111862 0.01836245 -0.01983629
H 19.47273114 13.32699964 7.95710475 0.01906313 0.00803196 -0.00027360
H 1.19599697 17.54221318 9.92713923 -0.01350681 0.00093457 0.02268525
H 6.49669758 16.37515699 3.58459324 -0.00490850 0.00299074 -0.00395673
H 3.60542427 10.62801066 1.85576658 0.00543385 -0.00015963 0.03141791
H 0.31062599 12.26157624 8.53198169 -0.01631192 0.01867045 0.00082446
H 0.39836870 18.97700704 10.66671621 -0.00372221 -0.00450026 -0.00952720
H 4.86180529 16.08083714 3.97793512 -0.00763193 -0.00811733 -0.01715338
H 4.74487485 11.85983683 2.77861424 0.01193969 0.00374545 -0.02249046
H -1.81794781 18.76931539 14.45555359 0.01938922 -0.00963590 0.00038145
H 1.11342309 13.79683223 14.87704295 0.01299671 0.00603999 0.00716582
H 3.87428653 10.54547604 20.94232035 -0.01813091 0.00153715 0.00732780
H 0.85775232 15.54633839 20.43780509 -0.00563671 -0.02543124 -0.00688022
H 4.03100999 17.69868506 12.68202135 0.00801978 -0.00110398 -0.02201465
H 2.40967634 13.05904404 16.84245341 0.01498768 0.00213007 0.00400142
H -2.01687610 11.18112290 22.68286102 0.01082738 -0.03525153 -0.00925646
H -0.19842802 15.95414585 18.23343565 -0.01902716 -0.01583363 -0.00684240
H 2.66587812 16.46815054 22.12783973 0.00035179 -0.01101198 -0.00697191
H 2.22643067 11.59032815 18.91641127 0.01015772 -0.02134883 -0.00124327
H -0.21505944 12.69191629 12.79252990 -0.01257676 0.01344497 -0.00581389
H -0.05839191 17.48697622 16.15992416 0.02471532 0.00130271 -0.00111514
H 1.21491631 15.39862140 11.62339584 0.04842943 -0.00971255 0.00336319
H -1.49959378 10.12526084 17.67238253 -0.00905566 -0.02693546 0.00225829
H 0.95767782 13.97578116 23.57606482 0.00716896 0.02781785 -0.01972731
H 3.58222575 19.24760960 17.66717222 0.03672223 -0.00182810 -0.01484490
H 1.15582194 17.06690868 13.33293830 0.01401749 0.01053548 0.03433171
H -1.54745471 11.78953590 15.80050500 -0.00758358 -0.03070282 -0.02291047
H 0.93692228 12.32435681 21.96802122 0.00668399 0.04519802 0.00239946
H 3.65131607 17.56675021 19.46109529 0.00474419 -0.01372038 -0.01965263
H 3.52279678 14.46953866 21.24641513 0.01717884 -0.00554670 0.03188624
H 1.29046475 9.83527590 20.09081451 0.03062261 -0.01191170 0.01124528
H -1.23772564 14.32350612 13.89662901 0.01417037 -0.01953095 -0.01368473
H 0.83272693 19.67652393 15.28305790 -0.02255001 0.01813404 0.01501923
H 4.45781613 12.78513252 19.82279909 -0.01826596 0.04013561 -0.01077022
H 0.31473944 17.55042880 21.40424534 -0.00982339 -0.00125772 -0.02096140
H 17.67158081 14.86231882 16.29917339 -0.00351873 0.01827053 -0.01004345
H 2.22461495 10.56910134 13.25429410 -0.02572940 0.01048677 0.00625874
H -0.53120160 13.27306353 19.36888647 -0.00330017 -0.00197006 -0.02164679
H -1.43800234 17.56015983 21.71594162 0.00397647 0.01547778 -0.01588798
H 3.50534598 16.68968727 15.44281836 -0.00109111 0.00718379 -0.00709407
H 1.98669107 11.90845409 14.39109433 0.02235825 -0.00907531 -0.00298771
H -2.34634012 13.57329677 19.18258542 -0.00297050 0.03524718 -0.01020430
H -0.34311525 18.78829893 22.47042368 -0.00232265 0.03735645 -0.00249607
H 3.51146176 15.11134053 16.12397977 -0.00064347 -0.00455721 -0.02408637
H 3.63393098 11.55983054 13.81398695 0.01975713 0.01207484 0.00398222
H -3.38703831 18.81953912 26.45744038 0.01425230 -0.01174469 0.00526509
H -0.46975440 13.66369202 26.98526632 -0.01954044 -0.01126492 0.03399052
H 2.18745347 10.44993425 32.47511183 -0.02342316 -0.00993769 -0.00425610
H -0.89021596 15.21385331 32.14023100 -0.00524464 -0.01467442 0.00370677
H 2.31252873 17.69038916 24.48251421 0.00361660 -0.00472030 0.00112553
H 0.51609889 13.15585464 29.07916953 -0.01875838 -0.04867214 0.01888740
H -3.48790806 11.16966559 34.81948584 -0.00559829 0.01873510 -0.01448626
H -2.00870200 16.19805989 30.28276213 0.01302162 0.00530999 0.00044232
H 0.93406947 16.25561275 34.22997889 0.00827830 -0.01785645 -0.00318356
H 0.57448021 11.21654545 30.70888291 0.02852443 0.00165637 0.00455049
H -1.99161891 12.63881353 24.78725958 0.00917556 -0.00935165 0.00876272
H -1.92121956 17.57191189 28.18341010 0.02147938 -0.02089527 -0.00376536
H -0.49404590 15.15198425 23.53547050 -0.00920281 -0.01181032 0.00916580
H -3.42403053 10.19532417 29.73276774 -0.02164727 -0.00138498 -0.01506117
H 4.15787562 13.73239546 0.24247214 0.02013527 0.01157447 -0.00518812
H 2.06471665 18.65569324 29.38422334 0.00267884 0.01713284 0.01579957
H -0.57734788 16.90845789 25.18511703 0.00740241 0.02586006 -0.01881450
H -3.34974857 11.80909158 27.80274123 -0.01653520 -0.00863045 0.01068758