2160
Time=76000.00000007 pbc="T T T" Lattice="20.57540408 0.00000000 0.00000000 0.00000000 28.90011191 0.00000000 -4.74393893 0.00000000 35.78411449" energy=-13801.15950906 virial="-54.31581186 -4.71982667 75.93984184 -4.71982667 -47.57788106 -10.56334689 75.93984184 -10.56334689 -86.37128042" stress="-0.00011915 -0.00029321 0.00357870 -0.00029321 -0.00005719 -0.00047992 0.00357870 -0.00047992 -0.00179493" Properties=species:S:1:pos:R:3:vel:R:3
O 0.79750100 8.79986527 2.34092220 -0.00052381 -0.00209054 0.00119097
O 1.91018848 3.75916324 3.43541351 -0.00112822 -0.00403151 0.00280979
O 4.19984207 0.96532667 9.52696077 0.00172432 0.00141885 -0.00154919
O 3.52830524 5.83637183 8.43836843 0.00159235 -0.00246226 -0.00016143
O 1.48537454 4.83900714 9.91613276 0.00560938 -0.00354192 -0.00008297
O -0.15387788 9.79078432 8.18998072 0.00120572 -0.00405047 -0.00362499
O 3.74474391 4.85828919 2.16151614 -0.00256786 -0.00103078 0.00132887
O 5.30233327 28.75066627 3.23621389 0.00090039 -0.00337364 -0.00704602
O -0.86145443 8.45333128 14.51560263 -0.00257342 -0.00249520 0.00160086
O 0.46982950 3.58238995 15.62557564 0.00347062 -0.00225165 -0.00074292
O 3.14759242 1.14174871 21.33100570 0.00342706 -0.00528771 0.00341740
O 1.82584645 5.81932727 20.43501211 0.00296808 0.00229294 -0.00314607
O -0.18410677 4.44678831 21.81726510 -0.00012891 -0.00066437 0.00230738
O -1.82775228 9.83661642 20.22418227 0.00145118 0.00647932 -0.00042373
O 2.52037708 4.79921543 14.28824314 -0.00261191 0.00032402 0.00102997
O 3.95716024 28.70182302 15.45382332 0.00120682 -0.00022417 -0.00290223
O -2.73260942 8.63455611 26.14188574 -0.00230808 0.00224105 0.00058817
O -1.22175056 3.67068917 27.55679059 0.00283545 0.00045619 -0.00354023
O 1.39406029 1.20294849 33.32588389 -0.00150389 0.00258519 -0.00323367
O 0.08483534 6.15565927 32.47411510 -0.00789325 0.00334323 -0.00082621
O -1.78939339 4.81852357 33.56952359 0.00050882 0.00002014 0.01106806
O -3.16386473 10.16942364 32.06951702 -0.00256084 -0.00056256 -0.00098351
O 0.68554662 4.65464252 26.21730752 0.00377735 0.00080835 -0.00486829
O 2.43308753 28.38055178 27.54175738 0.00249519 0.00117278 -0.00226540
O 0.65994952 18.65825477 1.92399832 -0.00256481 0.00032082 0.00076475
O 2.10372269 13.69298339 3.74645161 -0.00257911 0.00168058 0.00086358
O 4.63500287 10.82294305 9.48196307 -0.00293906 0.00255301 -0.00116074
O 3.09996056 15.63147387 8.53353639 -0.00285702 0.00527285 -0.00162119
O 1.26091804 14.31052512 9.58320955 0.00013197 0.00346317 0.00328313
O -0.52546361 19.46587689 8.03655995 0.00047026 -0.00514491 0.00162086
O 3.96183663 14.39797487 2.14106765 0.00464200 -0.00288012 -0.00456493
O 5.60324636 9.66220884 3.64014524 0.00947911 -0.00520010 -0.00001029
O -0.84278888 18.29250701 14.10694248 -0.00597615 -0.00462620 -0.00146211
O 0.14015964 13.21473305 15.26764776 0.00368678 -0.00765902 -0.00002089
O 2.77159882 10.49439966 21.54517915 0.00183301 -0.00238164 -0.00246933
O 1.64821155 15.59904297 20.25252659 0.00006678 -0.00400777 0.00243590
O -0.11627992 14.41120523 21.69909675 0.00023577 0.00243283 -0.00572274
O -1.83261629 19.82061094 20.12790294 -0.00205203 -0.00223044 -0.00107897
O 2.35190777 14.16491730 14.38572110 0.00323736 0.00050720 0.00138907
O 3.90568587 9.38662376 15.63585585 -0.00503012 0.00382820 0.00244394
O -2.37700704 18.27356738 26.22982801 0.00228417 -0.00043460 0.00134635
O -1.07547174 13.44962123 27.17021320 0.00650274 -0.00379874 0.00422910
O 1.41095118 10.81672380 33.05676898 0.00024913 -0.00169334 -0.00315992
O 0.08972454 15.43073789 32.18099371 -0.00098988 0.00050593 -0.00059563
O -1.84032950 14.45078970 33.67747629 0.00014869 -0.00269360 0.00085409
O -3.25168902 19.04002278 32.02867341 -0.00192853 0.00543764 -0.00284886
O 0.92869388 14.63683607 26.11646946 0.00306677 -0.00022402 -0.00200713
O 2.35100557 9.63413668 27.59450413 0.00194406 0.00176032 -0.00185998
O 0.86567242 28.19787655 1.85798135 0.00455405 -0.00033562 -0.00293570
O 1.81849568 23.50908872 3.68224915 0.00105363 -0.00012473 -0.00253494
O 4.29633116 20.06409417 9.49474213 0.00186488 -0.00427944 -0.00318340
O 3.22628883 25.48030695 8.47357199 -0.00063882 -0.00174932 -0.00186356
O 1.26048825 24.12886624 9.58201374 0.00119165 0.00059466 0.00616497
O -0.30105040 0.16102538 8.28820217 -0.00016573 -0.00479320 0.00165944
O 3.89037331 24.08427574 2.16826623 -0.00373258 -0.00216778 -0.00416281
O 5.49901661 19.09274185 3.54219508 -0.00469818 0.00824668 0.00158400
O -0.87886612 27.39736626 14.58537927 0.00246058 -0.00623673 -0.00411542
O 0.09210620 23.16366179 15.09562250 0.00675150 -0.00090337 -0.00171793
O 3.07102960 20.50163956 21.33467208 0.00014778 0.00292924 0.00262423
O 1.76163580 25.14045264 20.34761337 0.00012839 0.00215687 -0.00393312
O -0.31443460 24.10198000 21.29522741 -0.00053973 0.00041625 0.00597551
O -1.79270295 28.65721413 20.20893775 0.00002593 -0.00180930 0.00550625
O 2.34174713 23.87829328 14.18285815 -0.00057541 0.00243831 0.00571961
O 3.89729643 19.46420585 15.45824685 -0.00292866 0.00214032 -0.00133938
O -2.30414141 27.61587107 26.34903536 -0.00089115 -0.00678212 -0.00317711
O -1.11648701 22.34941999 26.88012287 0.00606350 -0.00212327 -0.00282937
O 1.33465196 20.19780735 33.37903490 0.00604516 -0.00582460 -0.00369787
O 0.22326886 25.05585323 32.32615133 -0.00175297 -0.00127983 -0.00172776
O -1.87356200 24.08394305 33.56098103 -0.00481404 -0.00088417 -0.00058180
O -3.48884239 28.69778096 32.39669048 -0.00186934 0.00016988 0.00206146
O 0.97746667 23.62891518 26.36857877 0.00293709 -0.01009332 0.00095989
O 2.61959142 19.24072248 27.49029694 -0.00170457 0.00547386 0.00043767
O 7.57196026 8.39360881 2.56522184 0.00095595 0.00327622 -0.00224883
O 8.50438020 4.33556263 3.84827274 -0.00265663 -0.00155483 -0.00301978
O 11.40092210 1.13558458 9.37576741 0.00229724 -0.00138856 0.00812838
O 10.18713210 5.81084855 8.37902734 0.00431567 0.00589233 -0.00516740
O 8.17960186 4.95049734 9.84244217 0.00341353 -0.00648004 0.00355462
O 6.69173195 9.75631112 8.30286229 0.00296578 -0.00083570 -0.00210272
O 10.53672503 4.92804928 2.16341546 -0.00104848 -0.00086401 0.00096685
O 12.53718389 28.75003586 3.53127869 -0.00442507 -0.00190969 0.00003055
O 6.22356056 8.66888562 14.53233819 -0.00064926 -0.00319550 0.00829581
O 7.34926753 3.59337350 15.48696242 0.00259539 -0.00608493 -0.00197300
O 10.02522996 1.33954059 21.19839515 -0.00307582 -0.00252030 0.00035266
O 8.82301831 5.76248460 20.35294960 -0.00110852 0.00179783 0.00308648
O 6.58689012 4.81284492 21.39263992 -0.00611903 -0.00085860 -0.00142096
O 5.02150553 9.69838984 20.34087916 -0.00141736 0.00096729 -0.00666683
O 9.31311139 4.82271749 14.16923014 0.00089827 0.00192443 0.00010671
O 10.84403801 0.03308064 15.76814213 -0.00850409 0.00164576 0.00083327
O 4.21962465 8.32052815 26.41637033 -0.00608269 0.00595197 0.00064174
O 5.60611270 3.76753617 27.40817066 0.00084630 0.00277446 0.00242855
O 8.18791600 1.24375850 33.31531685 -0.00364593 0.00275239 -0.00745141
O 7.22447546 5.81273304 32.29771085 0.00085587 0.00042486 -0.00021016
O 4.91933966 4.87818940 33.55691859 0.00063939 0.00096976 0.00288692
O 3.53151181 9.60320359 32.34242534 -0.00332802 0.00272478 0.00250459
O 7.72244578 4.75547885 26.03710626 0.00182003 0.00016461 -0.00163671
O 9.27197116 0.05503721 27.39711992 -0.00057292 -0.00177346 0.00310226
O 7.67135443 18.25042745 2.28531302 0.01270297 -0.00382409 0.00460903
O 8.81960894 13.29241303 3.30817792 -0.00281714 -0.00651255 0.00583337
O 11.54807573 10.70656374 9.42322644 -0.00471286 -0.00351915 0.00074608
O 10.07000369 15.43454888 8.57545962 -0.00185514 0.00402190 -0.00364569
O 7.90681315 14.48245162 9.36042795 -0.00280428 -0.00471642 -0.00219327
O 6.43566544 19.11320216 8.33546664 -0.00340311 -0.00084672 0.00660512
O 10.82581793 14.73599764 2.09896492 0.00410786 0.00028473 0.00144399
O 12.49840451 9.51104787 3.78858007 0.00170348 0.00456531 -0.00255319
O 5.83093765 18.04587676 14.51173368 0.00068259 -0.00160030 0.00248831
O 7.31714757 13.23199767 15.54850494 0.00474572 0.00015160 -0.00678786
O 10.14012305 10.82902848 21.58475410 0.00050804 -0.00172611 0.00856570
O 8.68972260 15.46209379 20.34882494 -0.00172993 -0.00236265 -0.00015181
O 6.29229019 14.88722076 21.23541471 0.00249792 0.00323455 0.00279877
O 4.97107975 19.34175560 20.02195082 -0.00309803 0.00150930 0.00184610
O 9.38161832 14.07032030 14.25495034 -0.00042470 -0.00617078 -0.00406304
O 10.94497934 9.52113518 15.70004660 -0.00378968 -0.00231327 -0.00370182
O 4.58226678 17.80454305 26.45077641 0.01091638 0.00498131 -0.00029966
O 5.53843465 13.42030178 27.74199092 -0.00432954 0.00437413 0.00830687
O 8.41875396 11.04454818 33.40119816 -0.00444659 -0.00043805 -0.00399121
O 7.09537887 15.69820363 32.35640233 0.00084301 -0.00284572 0.00041468
O 5.06659368 14.70290722 33.35806174 0.00016602 -0.00342021 -0.00259586
O 3.33448589 19.33486081 32.13472157 0.00476945 0.00055726 0.00133938
O 7.82605158 14.15488074 26.43841507 0.00157018 0.00179570 0.00693079
O 9.16089699 9.26749515 27.52248795 0.00491755 0.00094753 -0.00120372
O 7.59115129 28.00998629 2.41456127 0.00019495 0.00374771 -0.00236909
O 8.63227122 23.05519095 3.65381951 -0.00462140 -0.00237481 0.00444276
O 11.18224384 20.22748779 9.34594776 -0.00027727 -0.00327570 0.00301177
O 10.19883552 25.41789643 8.46311515 -0.00438119 -0.00453370 0.00111425
O 7.99833851 24.30819202 9.38816070 0.01187865 0.00387021 0.00289029
O 6.46308791 0.28288453 8.03874806 -0.00185554 0.00518796 0.00472456
O 10.68171292 24.16504912 2.47758777 0.00515035 0.00087300 -0.00351599
O 12.34515458 19.24310667 3.86918983 -0.00023019 0.00039384 -0.00092228
O 5.90448885 27.80423484 14.10687361 0.00143019 0.00418166 0.00327577
O 6.84766003 23.11723640 15.32948350 -0.00055060 -0.00254072 -0.00156403
O 9.79699307 20.06769073 21.45555546 -0.00276290 -0.00207689 0.00698943
O 8.67176202 25.32215438 20.50253262 0.00329381 -0.00306689 -0.00216289
O 6.56475514 23.89177853 21.68276236 0.00260135 -0.00095630 0.00078554
O 5.17243274 28.57994191 20.35386315 -0.00399566 -0.00478667 -0.00153721
O 9.21354093 23.83699957 14.55623975 0.00479597 -0.00204985 0.00121224
O 10.58610233 19.04106061 15.47544575 -0.00539815 -0.00577288 -0.00162802
O 4.81767950 27.81610343 26.38317029 -0.00247270 0.00517168 -0.00292568
O 5.62692032 22.83450375 27.39389077 0.00345397 0.00010239 0.00122447
O 8.36689392 20.44603056 33.51039244 0.00356956 0.00805476 0.00406923
O 7.06612170 25.23653552 31.96916475 -0.00138231 0.00204589 -0.00521707
O 5.13862601 24.34952803 33.43602015 -0.00073266 0.00140803 0.00114828
O 3.45341235 0.30643204 32.08005717 0.00521765 0.00055267 -0.00102542
O 7.65610453 23.68997885 26.15619809 -0.00198828 -0.00108328 -0.00162577
O 9.30686076 19.36849419 27.67952634 0.00329313 -0.00026018 -0.00414961
O 14.47418792 8.44604723 2.44970771 -0.00465029 0.00281367 -0.00026470
O 15.63526848 4.04637545 3.53383791 0.00545048 -0.00305011 0.00218818
O 18.20806656 1.25094378 9.40245598 -0.00872623 -0.00201926 -0.00943220
O 17.34090362 5.96931493 8.39883729 0.00171388 0.00504479 0.00316578
O 15.00653377 4.91239308 9.46473837 -0.00208280 -0.00140136 -0.00602482
O 13.58481993 9.32661676 7.82795058 0.00162666 -0.00198634 0.00279915
O 17.91067480 4.89139235 2.46889293 -0.00257381 -0.00664419 -0.00154268
O 19.09702065 28.82575637 3.42194714 0.00547090 -0.00447526 0.00242797
O 13.05055765 8.23950658 14.51729552 0.00038621 -0.00322129 0.00700794
O 14.20473470 3.70141086 15.62371892 -0.00500369 0.00117242 -0.00025302
O 16.82512585 0.90396608 21.80868137 0.00043759 0.00338608 -0.00197393
O 15.75675528 5.69594001 20.37055449 0.00010265 0.00008766 -0.00173608
O 13.56973799 4.73373363 21.31331966 0.00123685 -0.00069679 -0.00184239
O 11.77011325 9.54397006 20.05260947 0.00082567 -0.00245613 -0.00220913
O 16.21683327 4.44856770 14.40031811 0.00477574 0.00338010 0.00284099
O 17.66435684 28.56342352 15.62415440 0.00443166 -0.00226658 -0.00368260
O 11.34225653 8.41752454 26.28155182 0.00234229 -0.00014304 0.00206957
O 12.61201464 3.62407217 27.34186176 0.00182988 0.00140308 -0.00228153
O 15.12292112 1.41003716 33.20817532 -0.00081678 -0.00011759 -0.00240604
O 13.98116705 5.73507348 32.14889400 0.01219391 0.00307343 0.00211470
O 11.71960925 5.23953222 33.14571299 0.01188572 -0.00621192 -0.00116183
O 10.51424040 9.85334591 32.32620792 0.00034858 0.00398407 -0.00063790
O 14.45107560 4.84486648 26.22742670 -0.00266514 -0.00103208 -0.00129882
O 16.15908621 28.47922737 27.57661148 -0.00421718 -0.00617643 0.00109607
O 14.47033830 18.46028007 2.63268460 0.00670404 0.00507863 -0.00324485
O 15.43667647 13.67512423 3.65667596 0.00035123 0.00335014 0.00263058
O 18.33381849 10.74954293 9.43639796 0.00022210 -0.00459988 0.00715675
O 16.88661255 15.38687391 8.19818676 -0.00361100 -0.00586392 -0.00304263
O 15.09922763 14.42374383 9.76084144 0.00727992 0.00469832 -0.00083671
O 13.34852737 19.13402939 8.31209438 0.00145095 0.00787573 0.00523948
O 17.64983463 14.05186444 2.47347549 -0.00251233 0.00571151 0.00363904
O 19.15769922 9.68847547 3.64787992 -0.00417787 0.00490996 -0.00353692
O 12.63363054 17.93903451 14.54843550 0.00362557 -0.00149444 -0.00516822
O 14.01236613 13.27101083 15.43220935 -0.00421393 -0.00623060 -0.00861347
O 16.68788503 10.84389470 21.26717102 -0.00068235 0.00033074 0.00347825
O 15.64661960 15.66301040 20.38436278 -0.00204518 -0.00346620 -0.00340678
O 13.45363363 14.61158173 21.38876322 0.00115118 -0.00001744 -0.00111661
O 11.69455925 19.43424976 19.85163937 -0.00450331 0.00473278 -0.00312536
O 16.09788563 14.43751461 14.27778154 -0.00259653 -0.00531189 -0.00341953
O 17.65459379 9.45601560 15.78718384 0.00152444 -0.00472179 0.00220001
O 11.31342620 18.23965580 26.21266584 -0.00046099 -0.00394074 0.00710900
O 12.47090664 13.59186015 27.56109240 -0.00394515 0.00166039 0.00111448
O 15.39095527 10.82288127 33.60362373 -0.00135204 -0.00402125 0.00558024
O 14.00821165 15.49228503 32.38262853 0.00607647 -0.00301480 -0.00118608
O 11.87220171 14.53896450 33.90725237 0.00119975 0.00576407 -0.00344239
O 10.35980564 19.34430005 32.26749548 -0.00575927 -0.00270463 -0.00202688
O 14.61726987 14.35685034 26.22530423 0.00152285 -0.00280366 0.00258792
O 15.81646155 9.66015751 27.38881775 -0.00540512 -0.00249614 -0.00168223
O 14.56717115 27.73427314 2.29011834 -0.00450765 -0.00047192 -0.00286767
O 15.59741654 22.93458027 3.64164554 -0.00589517 -0.00312440 -0.00510107
O 17.98638455 20.29504177 9.39396454 -0.00469970 0.00181590 0.00476214
O 17.20772757 25.13246372 8.08225341 -0.00536609 0.00258989 0.00444126
O 15.09595079 24.52852579 9.51003723 -0.00080433 -0.00324153 0.00391653
O 13.70576938 0.35788612 8.39803313 0.00501152 -0.00128040 0.00613584
O 17.32442374 23.70387226 2.03527117 0.00630326 0.00207076 -0.00435568
O 19.41605684 19.05799617 3.80933246 0.00157367 -0.00155694 0.00087753
O 12.75289416 27.90277573 14.42307923 -0.00377639 0.00174794 -0.00032850
O 13.92894365 22.95982429 15.17357298 -0.00040324 0.00009682 0.00413293
O 16.42290575 20.41340190 20.99067881 -0.00704617 -0.00427011 0.00340917
O 15.38398432 25.13275076 20.41835710 -0.00244574 0.00146949 0.00357721
O 13.34727200 24.02039652 21.55584073 0.00772965 0.00052737 0.00264331
O 11.86291651 28.59314939 20.10479429 0.00023214 0.00522580 0.00457331
O 15.86156840 24.32894986 14.00044973 -0.00474066 0.00032785 -0.00429840
O 17.55576315 19.02747607 15.34123277 0.00074935 0.00674363 0.00336734
O 11.08877917 27.61476353 26.35703701 0.00120876 -0.00296218 0.00642625
O 12.57010755 23.14636061 27.64339011 0.00034901 0.00086000 0.00040971
O 15.30881692 20.04013564 33.54998257 0.00324918 0.00327378 -0.00567935
O 13.75527922 25.13639746 32.26641333 -0.00307216 -0.00651352 -0.00248044
O 11.65019577 24.09909018 33.27591867 -0.00386925 -0.00098996 -0.00689984
O 10.39572812 0.41546913 32.11478673 0.00450216 -0.00028096 -0.00016673
O 14.58292436 24.02545713 25.98075165 -0.00031946 0.00286120 -0.00401272
O 15.95811729 19.07458853 27.55863040 0.00441389 0.00388251 -0.00851116
H -0.09535254 9.16304461 2.66513575 -0.00645344 0.02050708 0.00920848
H 2.80273391 4.19225057 3.16627416 0.00294000 0.02315761 0.02438948
H 5.10517714 0.76889671 9.01907800 0.01220789 0.00431293 -0.01689350
H 2.66817449 5.46495661 8.87968439 -0.00943899 0.00582885 -0.01764745
H 5.66245230 8.36071546 0.54020402 0.00901985 -0.01490707 0.01676614
H 3.91977001 3.17891549 4.98667143 0.00687263 -0.02745479 -0.02335119
H -0.42942597 1.39771282 11.12842700 0.02362387 -0.03079643 -0.03261237
H 1.60642739 6.07273257 6.59294663 0.02682666 -0.02113663 0.01604556
H 4.20837741 6.85412854 10.82966088 0.00240968 -0.00817441 0.00463077
H 3.61116400 2.21893461 7.27337505 0.00481330 0.02506957 0.00341148
H 1.32989555 3.15733696 1.06786569 0.02806887 -0.00519603 0.01844499
H 1.62468016 7.58248410 4.67392617 -0.02539949 -0.01002107 0.01131092
H 2.85615367 5.53505338 0.00320119 0.00056864 -0.01297029 0.00426934
H -0.19332795 0.59798317 5.95676616 -0.00117105 -0.00989857 0.00851685
H 2.38052839 4.08610410 12.10815944 -0.00756963 -0.00238495 -0.01631460
H 5.42223995 9.08924101 5.91022613 -0.02171337 -0.01899866 0.00632108
H 2.82810072 7.15848585 1.78264708 -0.00463029 0.00985789 -0.01199271
H -0.09750621 2.23561011 4.11587727 0.00423272 -0.02024989 0.00685989
H 2.33652982 2.53040476 10.30303521 -0.01951128 -0.00188109 -0.01661240
H 5.54156759 7.26544716 7.60882425 0.01097158 -0.01545763 -0.02980454
H 5.00982437 5.40401201 9.64351379 -0.01727198 0.00561593 -0.00471447
H 2.81872995 0.00438937 8.26756893 0.00663169 0.00033032 0.01774731
H 0.47168085 4.94796247 2.12626037 -0.00460520 -0.02440681 -0.00531214
H 2.44711851 9.56200981 3.59447773 -0.00760472 -0.00696198 -0.00504023
H 7.36055676 3.80305460 7.62194758 0.00194446 -0.01017647 -0.01222121
H 2.11477912 8.42718691 10.09454576 -0.00791212 -0.00022769 0.00225802
H -0.00304617 6.13080063 3.84998564 0.01392642 0.00939054 -0.00802651
H 3.73377361 2.18877136 2.32097744 0.00967591 0.00445514 -0.00654471
H 0.94728160 3.51978181 7.69520162 0.00752365 -0.00485053 0.01154672
H 0.80593598 7.43072498 9.40677010 -0.01663203 -0.01088709 -0.00542165
H 4.56025917 7.12243203 3.26265358 -0.01853710 0.01040977 0.01188412
H 4.16421151 1.01561115 1.08446006 0.01491977 -0.00102465 0.00987659
H -0.45404404 4.48057049 7.41081225 -0.00540362 0.03385512 0.00249980
H 0.37487002 8.78491324 10.40358509 -0.01205367 0.00556781 0.01529914
H 4.56326635 5.94008397 4.49170197 0.00042025 -0.00692362 0.00279566
H 2.55238212 1.02180271 1.96187336 0.02704211 -0.01155030 0.01153617
H -1.74575929 8.88524050 14.57213297 0.00375405 -0.00177014 0.00290289
H 1.30753658 4.01020116 15.33530635 0.00436769 0.02489933 0.03103379
H 4.02953864 0.68464112 21.13601336 0.00181404 0.01023207 0.01514421
H 1.01125309 5.18862784 20.38327136 0.01043924 0.00119528 0.01902643
H 4.13393729 8.35477429 13.00523626 0.00979645 0.03521639 0.03568478
H 2.52786016 3.22939463 17.21910053 -0.00568961 -0.01685306 -0.01375354
H -1.69615971 1.62391459 23.36531445 -0.02938379 0.01641251 0.00497274
H -0.24994417 6.28499590 18.64789868 -0.00747665 -0.00708136 -0.00437992
H 2.44941572 6.35978113 22.67751749 -0.01415029 0.01303498 0.00097189
H 2.50970622 1.40543676 19.09796166 -0.02903971 -0.01820365 -0.01344914
H -0.36298839 2.90290887 13.15077945 -0.01379055 -0.00676134 -0.00656404
H -0.19428143 7.93577248 16.93189833 -0.00766214 -0.00223302 0.00756010
H 1.34027560 5.68246950 11.85288414 0.00153720 -0.00611022 -0.01085230
H -1.74624174 0.80796627 18.44284851 -0.00803906 -0.01845638 0.01198899
H 0.84853070 3.95678972 24.02944088 0.00801188 0.01824232 -0.01523850
H 3.88954719 9.04657214 17.88924850 -0.02246668 -0.00315089 0.01729216
H 1.07210800 6.98446694 13.79117327 0.00805579 0.02575683 0.01055232
H -1.57991781 2.13971951 16.45063343 0.00420535 -0.02095714 0.02172330
H 1.04304315 2.52349466 22.04326249 0.00005518 0.00569592 -0.00772707
H 3.71234929 7.37474250 19.80716844 -0.00950695 -0.02077549 0.02704359
H 3.48681492 4.63937934 21.74995943 -0.01805599 0.00423501 -0.00839639
H 1.39974443 0.11365139 20.42707642 0.01644457 -0.01822306 -0.01792969
H -1.20004110 4.95447425 14.18370582 0.00218464 -0.01279317 0.01741166
H 0.68301483 9.56648941 15.77107061 0.00495424 0.01615036 -0.00191372
H 4.50802823 2.76586375 20.14086743 0.01063331 0.02398265 0.00634648
H 0.84168851 8.34208453 21.47412578 -0.00338625 -0.00198342 0.00173716
H 17.33750211 5.63466108 16.67964597 -0.03332932 0.01915046 -0.02168865
H 1.92167224 28.85177523 13.23128114 -0.02193888 -0.02263933 0.00065975
H -1.36360834 2.35352026 20.38580689 0.00512363 -0.00126157 0.00445004
H -0.68854458 7.50090280 21.09632825 0.04276963 0.02552609 0.00654010
H 3.62328283 7.07274090 15.53202297 0.01052719 -0.01718602 0.00278629
H 1.63020608 1.53593650 14.03751184 -0.00773208 0.00534402 -0.00206385
H -1.18379852 3.73028073 19.44911375 -0.02117848 -0.00828774 -0.00702759
H -0.56508708 8.64822674 22.45869245 -0.00684107 -0.03163065 -0.02540772
H 3.61594439 5.60550717 16.55546741 -0.01783831 0.00909163 0.00965355
H 3.19591461 1.16015043 13.21473735 0.00378831 0.00002664 -0.01082633
H 16.98901979 8.88048677 26.47721266 -0.01835019 0.02235286 -0.00801766
H -0.36045912 4.04776659 27.18733473 0.03583877 0.02543331 0.00286743
H 2.33309349 0.87912389 33.10739160 0.00158840 0.01641142 0.00902284
H -0.73667680 5.64204175 32.89431605 0.00669682 -0.01941089 0.01949519
H 2.35070585 7.89269078 24.63921818 -0.00148355 0.02528016 0.00347804
H 0.80316835 2.99582825 29.19618678 -0.00407928 0.00390647 0.00325535
H -3.50525483 1.57771354 34.94836080 -0.01746756 -0.00588605 0.00261134
H -1.73635963 6.32125796 30.76917143 -0.00433302 0.01644892 0.02850990
H 0.83529104 6.53970130 34.74537377 -0.02433865 -0.00614214 0.01443709
H 0.55363228 1.49758948 31.09989772 -0.03569909 -0.00046394 0.00479986
H -1.87520930 3.21307819 25.23129329 -0.00579050 0.00478019 0.02932347
H -1.64279846 7.56197767 28.63311839 0.02045765 0.00737704 -0.01517585
H -0.47876838 5.49230661 23.86752193 0.01869576 0.02251846 -0.00610092
H -3.53786584 0.73436823 30.02363525 -0.00029281 0.00914859 -0.00368983
H 4.05013813 4.32378832 0.11656860 -0.02472493 -0.02509234 0.03661880
H 2.26123297 8.99043066 29.67949029 0.01844460 -0.00251353 -0.04638351
H -0.62284446 7.10758987 25.68093069 0.02082829 -0.01774013 -0.00596739
H -3.15338317 2.04101327 28.09226744 0.01467104 0.01254425 -0.01078930
H -0.69587906 2.64638076 34.05677971 0.00102340 0.00188592 -0.00874228
H 2.31753803 7.44903994 31.62702259 0.00303357 0.00053638 0.01132559
H 1.69289354 4.59502886 33.88356277 0.01442515 0.00940503 -0.00806009
H -0.32062571 28.75934021 32.18624759 -0.00782237 -0.01055240 -0.01527721
H -3.00510933 4.83089884 26.38600559 0.00962440 -0.01183098 0.00056201
H -0.93037936 9.58760317 27.56936405 0.00057695 -0.01164495 0.00026474
H 3.98719996 2.56941473 32.71137415 -0.02238603 -0.03002404 -0.00132089
H -2.25432805 9.08026577 34.40401056 -0.03739168 -0.01047453 0.00481795
H 15.06111243 6.01457452 28.28916271 -0.01444105 0.02152696 -0.00075762
H 2.16593516 1.33524734 25.95570839 -0.02240140 -0.00549708 -0.00824522
H -3.59467930 2.71194436 32.24071015 0.01264914 0.00493969 -0.01542699
H -0.56180160 8.94733554 33.50674552 -0.01328407 -0.01571564 0.00548961
H 1.89542515 6.92618937 27.30695490 -0.02950878 0.00864212 -0.00925776
H 0.39686144 0.76331735 25.65454201 0.00068227 0.02401145 0.01272514
H -2.32871638 3.61762802 31.34958182 0.02444927 0.00759844 0.00696897
H -1.79021073 7.85630024 33.21261252 -0.01006040 0.00705435 -0.00481359
H 1.36870351 5.64809662 28.40250509 -0.02250806 0.01885358 -0.00623273
H 0.76114125 2.01759000 26.87312484 0.00976972 -0.00487151 -0.03034372
H 0.03247190 18.70606374 2.67606153 -0.01012334 -0.03180213 0.00192259
H 2.86643884 13.78632815 3.08181549 -0.00912846 -0.00032741 -0.00132782
H 5.59862251 10.51224446 9.27080663 0.00727046 -0.00279106 -0.00708921
H 2.33502669 15.02848465 8.68511977 0.00596794 0.01073573 -0.00334946
H 5.66370680 17.81559610 0.59833667 0.01702243 -0.00129664 -0.01319018
H 4.13013722 12.93228398 5.06982569 0.00828267 0.01632379 0.00062812
H -0.44079215 11.10927733 11.36570673 -0.00579379 0.02063817 -0.01704245
H 1.40416844 15.66711799 6.34885989 -0.00506234 -0.00389315 -0.02511702
H 4.02172528 16.34678292 10.62554717 0.00851258 0.02356380 0.02678167
H 4.03548970 11.29729015 7.01585970 -0.01127475 0.01186211 -0.00327128
H 1.26492394 12.73295998 1.47381441 0.01377342 -0.00583323 -0.01535147
H 1.58141774 17.29091212 4.60095616 -0.00873264 -0.01796664 -0.00413230
H -2.08213333 15.24358904 35.69252460 0.02712536 0.01385233 0.00729907
H -0.01871741 10.35839047 6.09545892 -0.00612826 -0.00341932 -0.00275615
H 2.50224729 13.49824179 12.25122664 0.01712198 -0.00252222 0.00075286
H 5.23337359 18.78946593 5.99315198 0.00391275 0.01644473 -0.01584284
H 2.65091669 17.00422368 1.56553058 0.00347008 -0.01709944 -0.00610995
H 0.04471133 12.08952181 4.27687736 0.00745454 -0.01751818 -0.00497520
H 2.50128136 12.09312013 10.35070735 -0.00748061 -0.00199305 -0.01604373
H 5.24422827 17.00601165 7.76475434 -0.01521832 -0.00079135 -0.00103620
H 4.78367422 14.37161487 9.79907768 -0.02003593 -0.00008579 -0.00578242
H 2.93633421 9.29763700 7.94485960 -0.00832210 0.00817391 0.00755572
H 0.13583220 14.88685208 2.25336489 -0.01534145 0.01433514 -0.01874146
H 2.33865819 19.27740289 3.89432584 0.00874843 0.00590647 0.01488879
H 6.36038049 12.27001663 8.18505156 0.01418791 0.00493895 0.02261912
H 1.96219863 18.13463656 9.49816899 -0.02039088 -0.03673382 -0.00390621
H 18.88893868 16.85087690 3.30309408 0.00521860 0.01105461 -0.01053673
H 4.24278083 11.63211615 2.18622686 -0.01693351 0.01323750 -0.01967511
H 19.48636424 13.63673116 7.56034761 0.00516341 0.03135595 -0.00155555
H 0.63573483 17.02743661 8.89344370 -0.00326411 0.01801342 -0.00273639
H 5.75449808 16.49582314 3.19048977 0.00557707 0.00546324 -0.00856448
H 4.37519322 10.28373277 1.16306190 -0.00080688 -0.00356576 -0.02075151
H -0.60342304 12.18783595 8.45158213 0.00852556 0.01217399 0.00669696
H 0.30751035 18.14678636 10.21204888 -0.01446009 -0.00530116 -0.01509770
H 4.72936400 15.44880445 4.28716593 0.00105316 0.03363057 0.00357265
H 2.82772432 10.55499663 2.09659194 -0.00439688 0.02769084 -0.00766705
H -1.69857882 18.71657946 14.36832868 0.03382055 0.01947283 -0.00672644
H 1.01513030 13.59614049 14.95945771 -0.00437754 0.00517164 -0.01210606
H 3.61916419 10.12683050 21.22845448 -0.00492691 -0.00123999 0.01889924
H 0.81857328 15.09656936 20.71513524 0.00485694 -0.01367166 -0.00197224
H 4.00241077 18.04390631 12.70858742 0.00534724 0.00346800 0.00348526
H 2.06106334 13.18614255 17.05425057 0.01609491 -0.00862960 0.00590476
H -2.20267526 10.78689379 23.15924186 0.01220709 -0.00683676 0.02395679
H -0.41567673 16.17580312 18.81629361 0.01972697 0.01681686 0.02119991
H 2.48908233 16.15628376 22.73498051 -0.00079570 -0.00841521 -0.00888791
H 2.13148919 11.59287996 19.09468725 0.00291899 0.00741823 0.00129579
H -0.40518618 12.71291207 13.22022904 -0.01607193 0.00418585 -0.01850352
H -0.30619558 17.50755908 16.75834553 0.00135133 -0.01048549 0.01208673
H 1.13266679 14.90009220 11.72094868 -0.01048322 0.00969090 0.01174667
H -1.74482272 10.26137793 18.23429627 0.00279670 0.00244759 -0.03907775
H 1.03738682 13.75857660 24.30545366 0.00478246 -0.02814199 -0.00374508
H 3.63810762 18.85590757 17.86380424 0.01237168 -0.04129211 -0.00331768
H 1.16340211 16.63506985 13.49783226 -0.01617783 0.03158936 0.00705016
H -1.76273400 11.68656328 16.16359608 -0.02331777 0.00271480 0.00933605
H 0.89451927 12.16420797 22.34095606 -0.03206760 0.01774368 0.00777083
H 3.71346073 17.13436950 19.69363113 0.00796726 -0.00030087 0.00984430
H 3.34606963 14.51827036 21.59473790 -0.02257360 0.01337515 -0.00279604
H 1.38097087 9.98753700 20.23143216 0.04401342 -0.02524357 0.00316802
H -1.35282029 14.67216983 14.10213860 -0.01087770 0.00260203 -0.01980422
H 0.84496172 19.08883424 15.48619244 0.01209568 0.00986749 -0.00401287
H 4.58206591 12.44566866 20.48452160 -0.00431114 -0.02513483 0.00680944
H -0.98513333 18.57875395 22.24160214 0.00537188 0.00569713 -0.01283039
H 18.26474205 14.83197781 16.33773212 -0.00087347 0.01545816 -0.02119769
H 3.55340608 10.84654142 13.82721858 -0.01257841 -0.02944260 0.00690042
H -0.84818288 13.98964696 19.25104910 -0.02508913 0.01072627 0.00362031
H 0.72021166 18.11314860 21.46478955 0.02473593 0.00293871 -0.00951817
H 4.79474476 15.51046272 15.94095036 0.01996079 -0.01582464 -0.00174598
H 1.87007968 10.33185006 13.61550252 -0.00716970 0.00688381 0.00630396
H -2.46824330 13.24246019 19.65334508 -0.00567199 0.00781959 0.01339049
H -0.69994911 17.35876527 20.86644825 0.00753916 0.00012312 0.00956157
H 3.50718669 16.45868042 15.43849586 0.00752784 0.02228359 0.02800332
H 2.13925909 11.79769309 14.56690099 0.00823631 -0.02000323 0.01964922
H -3.21691091 18.62628540 26.50703914 -0.01052525 0.00907317 0.02533818
H -0.30603005 14.01560758 26.89739770 0.00100417 -0.00986171 0.00905183
H 2.12884912 10.21315427 32.85003346 -0.00752619 0.00776722 0.00883421
H -0.81485859 15.09971878 32.48346549 -0.00717081 0.01721243 0.01235140
H 2.48126563 17.74370724 24.76225256 0.00346381 -0.00581429 -0.00183007
H 1.01813027 13.05963950 28.57242155 0.01628097 0.00228505 0.02154638
H -3.43950642 11.12656902 35.56993975 0.01410899 0.01181759 -0.00217324
H -1.90042161 16.02595787 30.46964834 0.00613843 0.00240405 -0.00349313
H 1.08532336 16.21489725 34.54584688 -0.00079553 0.00553575 -0.00212539
H 1.02339039 11.69644906 30.85013004 0.00169286 -0.01739867 0.00275690
H -2.06680820 12.28544088 25.20639435 0.00765626 0.00259124 -0.01791498
H -1.65404522 17.31471150 28.43248523 -0.01900562 -0.01542710 0.00471353
H -0.28517485 15.11412656 23.71586529 -0.00757075 -0.01755510 -0.01010526
H -2.98980123 10.48042982 29.82212438 0.01786298 -0.00679667 -0.00652058
H -0.65679216 13.77508192 35.66898168 0.01729369 -0.00652863 -0.00185276
H 2.28095995 18.50634681 29.72777776 -0.01297179 0.00660027 -0.00705398
H -0.24100536 16.73441969 25.36494879 0.01938886 0.00383047 0.00167179
H -3.08453273 12.00972772 28.04386842 -0.00694382 0.00713662 0.01215668
H -0.71276523 12.04510919 34.11494281 0.01837781 -0.00120218 0.01544569