2160
Time=34000.00000001 pbc="T T T" Lattice="20.57306425 0.00000000 0.00000000 0.00000000 28.96705227 0.00000000 -4.74189569 0.00000000 35.75329635" energy=-13802.90002942 virial="-126.34708243 26.19550234 37.94329930 26.19550234 -41.90681776 -4.70108883 37.94329930 -4.70108883 -70.24424291" stress="-0.00351922 0.00121750 0.00186960 0.00121750 0.00016693 -0.00020007 0.00186960 -0.00020007 -0.00110344" Properties=species:S:1:pos:R:3:vel:R:3
O 0.75504818 8.52173692 2.28155538 -0.00118761 -0.00213513 -0.00452243
O 1.87719594 3.64002342 3.58174931 0.00070187 -0.00067882 -0.00365897
O 4.67173293 1.05357431 9.51398564 -0.00226706 -0.00260200 -0.00135515
O 3.36996580 5.92056938 8.61935406 -0.00288796 -0.00266070 -0.00011823
O 1.26883420 4.80940921 9.72486733 0.00068497 -0.00100383 -0.00231565
O -0.37952008 9.53475119 8.13229319 0.00388211 -0.00154733 -0.00356255
O 3.95414659 4.43921523 2.43397669 0.00360131 0.00501630 -0.00034250
O 5.23384231 28.79806677 3.78924906 0.00026435 -0.00176358 0.00477652
O -0.88653154 8.62423344 14.41782050 -0.00278418 0.00076748 0.00149947
O 0.35990460 3.52836655 15.36672054 0.00094890 0.00258225 0.00389834
O 2.89461166 0.89896572 21.31765581 -0.00880725 -0.00257236 0.00366548
O 1.81276904 6.13984227 20.14506036 0.00851304 -0.00171885 -0.00095460
O -0.00488425 4.99201801 21.36323262 -0.00206569 -0.00104534 0.00489174
O -1.83403499 9.52345197 19.97195420 0.00466456 -0.00128952 0.00541714
O 2.19560069 4.80130080 14.21051323 -0.00302847 -0.00183437 0.00608623
O 3.92073287 0.04247565 15.48790800 -0.00422671 -0.00306133 0.00215718
O -2.38170824 8.25702493 26.26857569 0.00181743 0.00006725 -0.00348027
O -1.13208251 3.59260792 27.22913228 -0.00131668 0.00465488 0.00465182
O 1.63616502 1.26870086 33.20010151 -0.00419723 -0.00537935 -0.00192153
O 0.05920344 6.52801651 32.41655098 0.00414564 -0.00055887 -0.00252945
O -1.71760412 4.78087729 33.23882009 0.00087166 0.00674004 0.00092691
O -3.43798671 10.01530155 31.96958374 -0.00298570 0.00022518 -0.00401617
O 1.08662486 4.80635128 26.08407653 -0.00020450 -0.00537799 -0.00275990
O 2.15120676 28.71787428 27.14716669 -0.00270950 -0.00628127 -0.00439949
O 0.79064520 18.16343677 2.54654698 -0.00275536 0.00358761 -0.00365013
O 1.76477198 13.17596022 3.37637993 0.00178647 0.00674750 0.00627277
O 4.41333520 10.69562747 9.34299131 0.00139703 0.00065850 -0.00313613
O 3.37517393 15.52905497 8.27293691 -0.00737774 -0.00182202 -0.00060791
O 1.53274892 14.58767825 9.66326501 0.00233256 0.00033706 -0.00006119
O -0.06169836 19.28912910 8.25431513 0.00331352 0.00330019 0.00279436
O 3.94089935 14.04573764 2.43413933 0.00247005 -0.00155845 -0.00296277
O 5.51771442 9.64702245 3.95148953 -0.00257785 -0.00337151 -0.00148103
O -0.77906132 18.35278988 14.10253325 0.00504434 0.00113326 0.00161948
O 0.43820379 13.66900482 15.51589351 0.00835998 0.00218989 0.00136813
O 2.91887284 10.77316306 21.19033854 -0.00259229 -0.00488672 0.00483397
O 1.82191017 15.20065469 20.14523084 0.00307249 0.00108229 -0.00418017
O -0.43051892 14.76845129 21.07986033 0.00165475 -0.00107063 0.00095604
O -1.78770753 19.14294500 20.10556212 -0.00200397 0.00218074 0.00597539
O 2.68800288 14.35900712 14.21135213 -0.00673707 -0.00135539 0.00528735
O 3.88137565 9.65464046 15.53996617 -0.00434181 -0.00298008 -0.00078061
O -2.38981324 18.04989736 26.28524512 -0.00286192 -0.00468087 0.00028854
O -1.30972553 13.41531742 27.24033072 -0.00140118 -0.00040878 -0.00142968
O 1.41826897 10.49821194 33.38890850 -0.00214568 0.00016150 0.00215968
O 0.10188789 15.77287234 32.47981358 0.00640343 -0.00549505 -0.00059364
O -1.82860163 14.45523187 33.45712660 -0.00241214 -0.00139125 -0.00033483
O -3.47772486 19.59228466 32.39690950 -0.00124842 -0.00206662 -0.00593010
O 0.79874794 14.32098689 26.00941751 -0.00253035 0.00225146 -0.00216904
O 2.36510165 9.61609474 27.39650050 0.00281922 0.00023920 0.00110527
O 0.51342904 28.44957461 2.19786724 -0.00248935 0.00135063 0.00301813
O 1.99967237 23.03806191 3.70446259 0.00115310 0.00170192 -0.00330583
O 4.48202533 20.46193046 9.75142112 -0.00231034 -0.00342189 0.00062044
O 3.05115853 25.44835012 8.65216890 0.00469514 -0.00346021 -0.00138680
O 1.30820041 23.92544874 9.53063366 -0.00195684 -0.00029566 -0.00254397
O -0.45800043 0.12391716 8.37795817 -0.00510078 -0.00140303 -0.00084417
O 3.78836358 24.07351239 2.21499644 0.00266296 0.00072484 -0.00224022
O 5.48707756 19.10548427 3.54934939 -0.00231441 -0.00012487 -0.00094448
O -0.86242271 27.98960093 14.04151185 0.00031676 0.00531717 0.00395403
O 0.26992334 22.89417432 15.37823826 0.00462050 0.00371981 -0.00280461
O 3.30083660 20.71530185 21.00892930 -0.00106647 -0.00116880 -0.00120912
O 1.80859423 25.46678824 20.46413093 -0.00005983 0.00673979 0.00570118
O -0.14159837 24.15867282 21.71338601 -0.00571452 0.00652451 0.00223037
O -1.74131526 28.54697511 20.11499064 0.00019080 -0.00073467 0.00086958
O 2.26929863 24.13758687 14.20164362 -0.00561955 -0.00365017 0.00774563
O 3.89662825 19.23655169 15.59175524 0.00480546 0.00594686 0.00850299
O -2.63127627 27.69924062 26.11323863 0.00113335 0.00135665 0.00107141
O -1.30677850 22.86022863 27.20834416 -0.00285282 -0.00246797 0.00509042
O 1.40704241 20.70084481 33.11212353 -0.00060171 0.00231662 0.00433288
O 0.17661549 25.47501527 32.25019328 0.00381900 -0.00038258 0.00612363
O -1.96820965 24.71349134 33.62784012 -0.00482618 0.00364939 -0.00427728
O -3.40975557 0.16165292 32.06299492 0.00065878 -0.00188865 -0.00737491
O 0.83752198 23.89989886 26.03887118 -0.00069276 -0.00247348 0.00578527
O 2.28892336 19.32071099 27.50801351 -0.00026188 0.00064393 -0.00199069
O 7.62198061 8.31471481 2.68384598 0.00179181 0.00144321 0.00305949
O 8.64203576 3.87389543 3.69712564 -0.00035602 -0.00068390 -0.00099167
O 11.28025440 1.06599757 9.52647075 0.00036522 -0.00225145 -0.00180512
O 10.34563626 5.78782380 8.25698557 -0.00343352 -0.00679499 0.00416572
O 8.14621774 5.10720069 9.66065963 -0.00648425 0.00157174 -0.00311353
O 6.56381738 9.86779082 8.36682685 0.00154219 0.00193725 0.00171807
O 10.75886667 4.60547529 2.43002706 0.00112085 0.00092102 -0.00123881
O 12.07465660 28.63831236 3.87465883 -0.00117578 0.00039584 -0.00001377
O 6.05298344 8.65497662 14.64171343 0.00484337 -0.00296117 0.00149282
O 7.26187683 3.88859016 15.59565606 -0.00122599 -0.00066449 0.00259057
O 9.68249505 1.16633625 21.26318196 -0.00425022 0.00426367 -0.00293330
O 8.81083216 5.55276342 20.06115322 -0.00163820 0.00106748 -0.00154588
O 6.62467426 5.00929394 21.40083716 0.00017491 -0.00647084 0.00556606
O 5.27429747 9.80230752 20.38662919 -0.00162057 0.00228218 0.00205251
O 9.28220600 4.78467422 14.24333892 -0.00127291 -0.00377946 -0.00242868
O 10.79873543 28.89558188 15.30437838 -0.00466855 0.00195557 -0.00173155
O 4.37641463 8.44458521 26.18783390 0.00478665 -0.00235532 0.00053783
O 5.67397325 3.56334176 27.18240456 0.00169362 -0.00257024 -0.00409617
O 8.25482506 1.44956717 33.29370083 0.00560416 -0.00323053 -0.00150361
O 7.10291135 6.00989896 32.39148847 -0.00010377 0.01125990 0.00305329
O 4.65463045 5.26682234 33.17689846 0.00236598 0.00425944 0.00222772
O 3.53667614 9.99813139 32.00585518 0.00260045 -0.00251916 0.00153845
O 7.70828527 4.97937555 26.06766264 -0.00085994 -0.00487909 0.01059949
O 9.17995470 28.88551498 27.85550596 -0.00220545 -0.00078248 -0.00585890
O 7.82896015 18.28244821 2.45317817 -0.00340410 0.00091543 0.00260549
O 8.68246352 13.33307070 3.48896677 -0.00782573 -0.00073246 0.00230396
O 11.56561248 10.68069076 9.57534886 0.00293023 -0.00038219 -0.00019339
O 10.27018972 15.73651746 8.52991095 0.00796826 -0.00011487 0.00405064
O 8.39591560 14.41560710 9.47951042 0.00369099 -0.00586342 0.00462939
O 6.40478259 19.56093637 8.12618842 -0.00495616 0.00143782 -0.00569415
O 10.76990733 14.34017044 2.38798702 -0.00003596 -0.00229480 0.00307902
O 12.38333867 9.69958477 3.69305472 0.00221345 -0.00267646 0.00429989
O 6.04275641 18.10166834 14.18445490 0.00195390 -0.00180958 -0.00195835
O 7.12432466 13.48258196 15.67123921 0.00424201 -0.00089630 -0.00280225
O 9.87046428 10.87314254 21.28114060 -0.00661027 0.00322906 -0.00086190
O 8.78473771 15.36584584 20.14932511 0.00660516 0.00285451 -0.00351421
O 6.72044872 14.67079746 21.70097177 -0.00669340 0.00213011 -0.00023787
O 4.96547120 19.16206354 19.81103902 0.00008396 -0.00262061 0.00154030
O 9.42301003 14.07326429 14.26570883 -0.00152428 0.00395912 0.00032814
O 10.95881858 9.72078757 15.83631437 -0.00237543 -0.00362402 0.00495531
O 4.35867989 18.32563590 26.21518098 0.00447443 0.00521875 0.00257956
O 5.56975996 13.43130793 27.21083121 0.00372752 -0.00012850 -0.00256821
O 8.23158680 10.89186974 33.29611816 -0.00395534 -0.00180029 -0.00037351
O 6.90733353 16.04053982 32.44409937 0.00276614 0.00359400 0.00443198
O 5.09902133 14.50978456 33.55239308 0.00002762 -0.00072153 -0.00741584
O 3.34873801 19.30679754 31.90062235 -0.00745109 -0.00033951 -0.00228282
O 7.50164430 14.57118671 25.90695516 -0.00652611 0.00230616 -0.00032734
O 9.33582848 9.48547889 27.56224474 0.00006734 0.00587998 -0.00036888
O 7.44519390 27.83412311 2.51215889 -0.00177283 -0.00090021 -0.00352286
O 8.56158735 23.28889705 3.56608049 0.00019023 0.00151368 -0.00745949
O 11.22990317 20.08855480 9.41104860 -0.00582399 -0.00154307 -0.00078871
O 9.97979737 25.22537699 8.39734466 0.00259289 0.00144999 0.00276382
O 7.92693314 24.32858208 9.53733907 0.00047033 -0.00571326 -0.00458814
O 6.65934281 28.78539465 8.28864051 -0.00062901 0.00320740 -0.00654119
O 10.71319183 23.97392868 2.17703525 -0.00383273 -0.00219882 0.00379715
O 12.44540498 19.22501652 3.61959121 -0.00479758 -0.00371693 0.00163220
O 6.11357548 28.19427064 14.38248850 0.00195540 0.00090208 0.00591805
O 7.23488037 23.13483518 15.54805474 -0.00131245 -0.00417497 0.00627152
O 10.01419024 20.67271074 21.24110518 0.00043872 0.00099508 -0.00129221
O 8.45191589 25.14136303 20.16378259 0.00224100 -0.00317385 0.00432881
O 6.58559088 24.20525072 21.50433822 -0.00010247 0.00010203 0.00355420
O 5.00599483 0.13742872 20.19396195 -0.00087974 0.00326313 0.00085169
O 9.25425851 23.88798555 14.07448811 -0.00203832 0.00527300 0.00171730
O 11.17432487 19.32798046 15.66019761 -0.00137062 0.00521585 -0.00254494
O 4.46579987 27.65099766 26.56010160 0.00197690 -0.00013994 0.00020041
O 5.61063146 23.34305330 27.48899298 -0.00307791 0.00020716 0.00250088
O 8.12739510 20.45679648 33.27672825 0.00211250 0.00281807 0.00566181
O 6.95304019 25.29989576 32.52268198 -0.00588856 -0.00412184 0.00018143
O 4.85975916 24.09141316 33.52338787 0.00295535 -0.00448453 0.00091540
O 3.47006059 28.92188585 31.92751593 -0.00135130 -0.00133181 0.00728758
O 7.58989240 23.86801078 25.97386891 0.00357290 -0.00358783 -0.00235915
O 9.21881162 19.26302458 27.49300682 0.00083057 -0.00360970 0.00094973
O 14.59793874 8.51128815 2.69209492 -0.00002017 0.00573766 -0.00533471
O 15.54039536 3.74095218 3.46318390 0.00253531 -0.00082581 -0.00437603
O 18.24470417 1.14720608 9.68566856 -0.00806258 0.00260005 -0.00560983
O 16.97205598 6.02215833 8.52229940 0.00168588 0.00115536 -0.00078497
O 15.00777899 4.78112359 9.54366100 0.00268996 0.00314493 -0.00053397
O 13.59130555 9.59120745 8.22970407 -0.00047116 0.00106741 0.00092679
O 17.52322203 4.63170166 2.17617191 -0.00423357 0.00161617 -0.00256618
O 18.96573110 0.01361246 3.73317863 -0.00215552 0.00214980 0.00314592
O 12.72731057 8.72650565 14.46636663 -0.00020298 0.00114550 -0.00323623
O 14.09358637 3.93248636 15.76525871 -0.00048720 -0.00535429 0.00328651
O 16.75207660 0.71601883 21.46235739 -0.00206946 -0.00052710 -0.00487904
O 15.45601437 5.88294132 20.41771965 0.00345343 0.00332768 -0.00191694
O 13.56131477 4.80709581 21.82017089 -0.00345089 -0.00580343 0.00296465
O 11.93478682 9.67410280 20.00553641 0.00415563 -0.00056081 -0.00478018
O 16.07105903 4.80380678 14.49389652 0.00461335 -0.00235121 -0.00197298
O 17.77960459 28.76498794 15.64825643 -0.00783666 0.00447829 -0.00297090
O 11.40788197 8.60043139 26.19878387 0.00046616 0.00295901 0.00399798
O 12.49367765 3.92656278 27.38862808 -0.00427736 -0.00016650 -0.00848536
O 15.15766051 0.94758560 33.29320614 -0.00107507 -0.00439907 0.00173778
O 14.05731789 5.90309078 32.08478973 0.00036936 -0.00466734 -0.00487645
O 11.87257171 4.98148222 33.41594608 -0.00318301 -0.00670348 0.00015030
O 10.16027120 9.67899203 31.91049193 0.00019890 0.00567479 -0.00247435
O 14.64086641 4.42909669 26.08800455 -0.00018477 -0.00108945 0.00179582
O 16.14479200 28.76393508 27.61260589 0.00111956 -0.00429176 0.00316751
O 14.46574645 18.33362915 2.38859903 -0.00352322 -0.00089728 0.00220953
O 15.69730069 13.42344251 3.79022548 -0.00921128 -0.00285919 -0.00805664
O 18.46154175 10.75961617 9.63667671 -0.00477381 0.00156753 0.00183341
O 17.31374860 15.35195100 8.04152796 0.00229684 -0.00280445 0.00134643
O 15.17045886 14.84517299 9.43236375 0.00087601 -0.00518790 0.00342611
O 13.66393200 19.86875930 8.22521905 0.00063615 -0.00195417 0.00256593
O 17.62174249 14.24048021 2.22115285 0.00472911 -0.00049113 0.00210658
O 19.16548423 9.26928483 3.59303565 -0.00198921 0.00180338 0.00044837
O 13.00942989 18.25429732 14.33776334 0.00104500 0.00485739 0.00412833
O 13.96078127 13.35730562 15.30579716 0.00267047 -0.00280761 0.00274365
O 16.61816234 10.67535910 21.20135494 0.00259728 -0.00303597 -0.00185240
O 15.46406501 15.65803959 20.37744639 0.00455285 0.00325798 -0.00043011
O 13.45138288 14.53206838 21.55422816 -0.00171791 0.00113010 -0.00055677
O 12.08008537 19.47020533 20.19286643 -0.00090183 -0.00017103 -0.00298661
O 16.19900308 14.65375978 14.15943459 0.00040449 -0.00177856 0.00610320
O 17.75421107 9.54859215 15.82447718 0.00464361 0.00281839 0.00391843
O 11.32125760 18.18545375 26.42611571 -0.00049531 0.00277197 0.00486896
O 12.57036611 13.43923916 27.58325187 -0.00070271 0.00171438 0.00450262
O 15.02057270 10.79591909 33.13490497 -0.00183962 -0.00474540 -0.00670029
O 13.96974072 15.63122499 32.15820588 0.00212497 0.00363469 -0.00399954
O 11.84085791 14.88247480 33.41606708 -0.00276640 -0.00519880 0.00083909
O 10.50749904 19.62734523 32.60469920 0.00124208 -0.00188313 -0.00190348
O 14.48703954 14.31989010 26.00032338 0.00570966 -0.00190372 0.00376737
O 16.24996976 9.59150868 27.39057019 -0.00281746 -0.00005674 -0.00390706
O 14.24471030 28.09736040 2.41604816 -0.00054761 -0.00299663 -0.00449837
O 15.45771505 23.04742262 3.26613059 0.00434192 0.00330954 -0.00262167
O 18.41068368 20.40821786 9.34318352 -0.00345777 -0.00341373 0.00033636
O 17.01927250 25.12225612 8.31605290 -0.00419557 0.01011052 -0.00598792
O 14.96336758 24.14812150 9.89241373 0.00796115 0.00357269 -0.00030722
O 13.33380633 0.08200594 8.26713530 -0.00279506 0.00920745 -0.00186678
O 17.44802886 24.49830377 2.13466418 -0.00452746 0.00275094 -0.00220227
O 19.30220921 19.51289296 3.81653923 -0.00631421 -0.00558127 0.00430817
O 13.04598769 27.78026824 14.71963932 -0.00434509 0.00225698 -0.00459291
O 13.94604853 22.96360769 15.20576857 -0.00109262 0.00047769 0.00294003
O 16.97870122 20.11105133 21.60159904 -0.00397312 -0.00043134 0.00258004
O 15.60856457 25.06640272 20.31105511 0.00224198 0.00042020 -0.00245800
O 13.31310837 24.10752506 21.52496939 0.00051589 0.00293913 0.00043067
O 11.89383084 0.18109631 20.31974696 0.00376014 -0.00124471 0.00097242
O 16.10726369 24.00408273 14.20780096 -0.00366333 0.00352980 -0.00788346
O 17.80177936 19.46964668 15.80873972 0.00343524 0.00190348 0.00295669
O 11.25400208 27.74826192 26.36509017 -0.00326566 0.00534624 -0.00372268
O 12.27066658 23.24425142 27.58983744 -0.00200460 0.00094555 -0.00059359
O 14.90546195 20.43162256 33.55793644 0.00141979 0.00094407 -0.00410652
O 13.76880464 25.34950235 32.59188818 -0.00481415 -0.00037898 0.00272248
O 11.86842780 24.19851713 33.73610580 -0.00617286 0.00433106 0.00006899
O 10.21536435 0.24668589 31.91302537 -0.00147630 0.00740453 -0.00026304
O 14.43891480 23.90161998 26.07781023 -0.00260214 0.00368330 0.00035084
O 16.04165536 18.82715930 27.36365210 0.00441811 -0.00996480 0.00242981
H -0.08482464 8.85830389 2.72207750 -0.00603101 -0.01972457 -0.01116726
H 2.76936245 3.84444147 3.13170216 0.00743063 -0.02003958 -0.02061547
H 5.53726487 0.64684577 9.25815819 0.01720914 0.02288693 0.01277238
H 2.51371039 5.48477210 8.93568076 0.00926711 -0.02460087 0.01268644
H 5.68165776 8.32826010 0.79156994 0.02206264 0.00638232 0.00021431
H 3.78066020 3.22150100 5.31482870 -0.00052087 0.02763767 -0.01345639
H -0.43323362 1.41695997 11.50111036 0.01552747 0.00621289 0.00117375
H 1.65054327 5.94343148 6.74502896 0.00560470 0.01155000 0.01036843
H 4.04599502 6.90688446 11.12034126 0.01413834 0.00357742 0.00152024
H 3.86905611 1.50944730 7.06265504 -0.00687269 0.00452069 -0.00414605
H 1.18199487 3.03507444 1.06887256 -0.00332326 0.01801142 0.03270168
H 1.49237217 7.49047761 4.87361547 -0.00678614 0.01454682 -0.00349204
H 2.59442507 5.11659192 0.01841531 -0.01687512 0.00357568 0.00566364
H -0.17823905 0.49920315 6.18455861 -0.00591474 -0.00626615 0.01644737
H 2.31002227 4.00957720 12.05385757 0.01244616 -0.03492855 0.00389050
H 5.28045578 9.21472793 6.09938216 0.01696694 0.01783173 -0.00651909
H 2.62968324 6.61672992 1.74702613 -0.01678682 -0.01503890 0.00590907
H -0.10122263 1.98742511 4.16123134 0.01472707 -0.00701513 -0.00168146
H 2.57463010 2.43196628 10.16006283 0.01067200 -0.00049900 -0.03737993
H 5.39787362 7.63066198 7.96048397 0.01299700 0.00784033 0.00790822
H 5.08783566 5.41398884 9.75081722 -0.02469578 -0.00081495 0.00634288
H 2.71298783 28.92953362 8.43185583 -0.00390063 -0.00784286 -0.00817125
H -0.00242894 4.91179647 2.19201231 0.00218003 0.01032762 -0.00670163
H 2.37198601 9.31500678 3.79201135 0.00297951 0.00638644 0.03032326
H 7.16946495 3.92669640 7.67908482 -0.02180572 0.01546684 -0.01600036
H 0.79294217 7.43643347 9.54303311 -0.01094357 -0.01385712 0.01694517
H 19.72131233 5.49240886 4.22622628 0.02127799 -0.02860207 0.03362396
H 4.27151173 0.68895436 1.42543511 0.00746555 0.02123277 -0.00862086
H 19.38940438 4.07390094 8.02470417 -0.02575291 0.00150941 -0.01968605
H 0.59840752 8.84349077 10.62531487 0.00880201 -0.02340553 0.03738806
H 4.64794918 5.71884882 4.65843717 0.01096528 0.00600168 0.01229420
H 2.88522827 1.37980184 2.26515842 -0.02830727 -0.01587599 0.00637085
H -0.59342645 2.67018103 8.73125905 0.00138546 0.01630567 -0.01568196
H 2.16274659 8.36473820 9.91990859 -0.02227921 -0.01552078 0.01184686
H 6.30382861 5.16052111 4.36239403 0.01226468 0.01726811 0.01293712
H 4.59548102 2.01026017 2.61245913 0.00109379 -0.00146266 -0.00171507
H -1.84287189 8.92350263 14.65866045 0.03722166 0.00845323 0.00791700
H 1.21971591 4.05184800 15.21533740 -0.02217408 -0.00215019 -0.00010949
H 3.82180729 0.67325918 20.97716328 -0.02317554 -0.00351511 0.00728069
H 0.92944611 5.75461411 20.38556459 -0.03544885 -0.00824104 0.02039062
H 4.02386922 8.20918817 13.13834547 -0.01286989 0.00919688 -0.00575888
H 2.09914735 3.45116250 17.12683772 0.00552292 0.01216955 0.01477865
H -1.84178767 1.08313043 23.20992075 -0.00145223 0.02449495 -0.00876684
H -0.32843213 6.77263586 18.81803300 -0.00043368 -0.01231583 0.00450640
H 2.44844960 6.45515257 22.58496470 -0.02003325 0.00132131 -0.02147580
H 2.13504876 1.87472815 19.03512869 0.01444159 0.00261121 -0.00173426
H -0.48582553 3.08371875 13.24243223 0.01548603 0.01706763 -0.01974509
H -0.30261374 8.19913118 16.73412390 -0.01984192 -0.00385409 -0.01004303
H 1.32928655 5.62076155 11.86714401 -0.00555120 -0.00598332 0.00045473
H -1.69705137 0.34976691 17.81422166 -0.02552094 0.00848903 -0.00293229
H 1.21229541 4.27459195 23.97745255 -0.01036288 -0.00104592 0.04620973
H 3.74820115 9.12834501 17.36580797 0.00915664 0.00766517 -0.04610232
H 1.16296377 7.02204724 13.81236281 -0.02803995 0.01507331 -0.02067880
H -1.81288865 2.25867988 16.23624559 -0.01823987 0.00834812 -0.00354366
H 0.97245711 2.76690319 21.99730804 -0.00329942 -0.00946214 -0.02662755
H 3.78854161 7.74895058 19.59464496 0.00274976 0.00636806 -0.00163270
H 3.42985507 4.83313128 21.38261000 -0.04584480 -0.00744924 -0.00611096
H 1.28324924 0.11624558 20.18822514 0.01872881 -0.01450354 0.00207783
H -1.43077454 5.03576690 13.94985904 -0.00508854 0.00062255 -0.00455138
H 0.73561176 9.53513716 15.34148435 -0.01690043 -0.01338315 -0.02064963
H 4.37998918 3.91966125 19.51844881 0.00644014 0.03294799 0.01251491
H 0.04040593 7.82392873 21.49473939 0.00775433 -0.02949428 -0.00044326
H 16.95520094 5.57488795 16.80940148 -0.02371958 0.01990036 -0.01556518
H 3.05818254 1.00120989 13.20695914 -0.01504645 -0.02313480 0.00317980
H -0.88837052 3.83016551 19.08121959 0.00890334 -0.00041961 -0.01332638
H -1.27349714 8.73514957 22.32767693 -0.00067053 0.00963707 0.01953987
H 2.78581856 6.28386172 16.09412506 0.00125613 0.00030923 0.01241289
H 1.40986238 1.10806821 13.95092487 -0.00352452 0.00779957 0.00976535
H -2.43012983 3.32596697 19.82888011 0.01845242 0.01457004 0.01746049
H 0.43551708 9.42868049 22.20489917 0.03801449 0.00467905 -0.00235375
H 4.14165192 5.31962973 16.52531073 -0.00280173 0.01205279 0.02912952
H 2.76976575 2.42076235 14.27150224 0.01284435 0.01415460 0.00180224
H -3.24810617 8.68682987 26.35141517 0.00816728 -0.02846054 0.00239140
H -0.29931676 4.01967370 26.88253403 -0.01638863 0.00642163 -0.00038854
H 2.41262305 0.71792227 32.84764351 0.02563780 0.00507565 -0.01844209
H -0.56950582 5.77243635 32.41025545 -0.00649085 0.01430487 -0.00934867
H 2.26749779 7.74483274 24.78671453 0.01436313 -0.01498779 -0.02239456
H 0.55831307 3.61750474 29.11787013 0.00027411 0.01489832 -0.01082664
H -3.64765325 1.29675682 34.94050448 -0.00124817 0.00171561 0.00026619
H -1.89367749 6.67231512 30.61345470 0.00319559 -0.00742344 -0.01750354
H 0.62148140 6.56973841 34.87513257 -0.00700499 -0.01186922 -0.01475124
H 0.78025298 1.76689240 30.99505602 0.02123278 -0.00049983 -0.00465006
H -1.83610737 2.81824485 24.93045893 -0.01920565 -0.00175654 0.00156010
H -1.56087912 7.72813058 28.37421001 -0.00241362 -0.00520055 -0.01289687
H -0.25089377 5.20341397 23.77258368 -0.01695274 0.03205544 0.02337052
H -3.28428704 0.62339403 29.88601205 0.00788397 0.01028250 -0.01292559
H 4.11010403 4.08254789 0.13005846 0.00500050 -0.01529111 -0.02117097
H 2.18312155 9.43153699 29.61919360 0.01590020 -0.01302017 0.00692418
H -0.39156563 6.64644195 25.67144252 0.00708323 -0.00322595 -0.00515439
H -3.14235139 2.06247434 27.78644950 -0.00321056 -0.00513176 -0.00754799
H -0.51937444 2.64522932 34.00701498 0.01792657 -0.01239951 0.01580735
H 2.19354565 7.89112526 31.49586537 0.02818919 -0.00748266 0.00445165
H 1.56622893 5.09437792 33.70475033 -0.00049078 -0.01721975 0.01010528
H -0.23022267 0.09524055 31.89130797 0.00998255 -0.00338009 0.00962312
H -2.82818878 4.58340574 25.96469076 -0.00763659 -0.00276290 -0.00721832
H -0.67963364 9.46678640 27.19324194 -0.05007099 -0.00866446 0.01422415
H 4.00667594 3.58350767 31.31599046 0.01160350 -0.01212809 0.00087185
H -1.04154279 8.41351551 33.71281189 0.01677564 0.00534236 0.00332981
H 16.08695234 6.75629340 27.05961750 0.02502628 0.00457432 0.00661429
H 1.48659979 2.16278278 26.62486176 -0.01157606 -0.00684158 -0.01123630
H 16.09110019 3.69345929 31.95899898 -0.01115666 0.00881938 0.00938358
H -2.37692586 7.59594148 32.94256929 -0.00356237 0.01370667 -0.02138271
H 2.02261832 6.60488184 27.80495019 -0.05482138 0.01398343 0.00314682
H 1.13539071 1.16071508 25.15864995 0.00072344 -0.01272787 -0.00883366
H -3.07095305 2.64531488 32.32366198 -0.00538850 0.00208171 -0.00380614
H -2.66119054 8.86550497 34.23028123 0.00383927 -0.01034134 -0.01747405
H 2.79402742 5.04425395 28.31935454 0.01636436 -0.01476037 -0.01428427
H -0.17116611 1.77283254 26.14018980 0.04008616 -0.00488366 0.00039364
H -0.02449983 18.58505430 2.77711777 0.02205793 -0.02000759 -0.01392322
H 2.64246190 13.60794472 3.16198535 -0.00324984 0.02274081 -0.00178111
H 5.23305921 10.32374524 8.93558389 0.00685586 -0.04290215 -0.00685951
H 2.58365629 15.14824330 8.66773754 -0.00239680 -0.03600446 -0.00157918
H 5.81803668 18.03571322 0.79625125 -0.00636619 0.00553273 0.01486942
H 3.72036975 12.93216194 5.06512060 -0.00044311 -0.01666362 0.00091531
H -0.27696944 11.12150152 11.45802465 -0.01417743 -0.00136854 -0.00480364
H 1.37764873 15.92143060 6.65349046 0.00963120 0.00000067 -0.00982852
H 4.12273118 16.21942851 10.49553572 -0.00455320 0.00996192 -0.00737938
H 3.71154587 11.71890322 7.24940605 -0.01475873 0.03202225 -0.00766492
H 1.11665587 12.45002385 1.05922096 0.00320557 -0.03275202 0.00088065
H 1.37728246 17.63077264 4.71490146 0.01533663 0.00905160 0.00574564
H 2.73231084 14.90297349 0.10831222 -0.00225363 0.01113852 -0.01021582
H -0.04649942 9.95971499 5.98487233 -0.02424779 0.00371198 -0.02267485
H 2.71252252 13.98699512 11.92056588 0.00351544 -0.00748078 -0.03093387
H 5.42749003 18.52304828 5.53583343 -0.02160138 0.00054160 -0.01305095
H 2.82630839 16.61262911 1.78021391 0.00784491 -0.01163598 0.01059568
H -0.09825053 11.57778539 4.11107279 -0.00679065 -0.00548789 -0.01561196
H 2.49680320 12.41086683 10.15779364 0.01818975 0.01287186 0.02064496
H 5.34581716 17.06415978 7.51018102 -0.01675782 0.00444991 0.00600541
H 5.17856521 14.25178302 9.55614722 -0.00000700 0.01501064 0.00858322
H 2.78574429 10.04806629 8.45941702 -0.00892323 -0.01328347 0.00384131
H 0.07483201 14.23025106 2.23553945 -0.01724069 0.00569387 0.01194303
H 2.33449337 18.99643868 3.49254500 -0.00018566 -0.00118507 0.01948494
H 7.67425600 13.40504975 7.14780180 0.01135053 -0.01433427 -0.00526865
H 1.23130617 16.97420866 9.44942948 0.00248118 0.00705215 0.01402790
H 18.74531452 15.14296674 4.55684927 -0.01666934 0.00556226 -0.00181680
H 4.77588897 10.76016670 1.58072816 0.01144956 0.00846582 0.00827902
H 0.61630312 12.13968379 8.88817853 -0.02533074 0.00096451 -0.00232076
H 0.67521132 18.27920384 10.53383260 0.01215935 -0.00285565 -0.01016802
H 5.77953974 16.18555787 3.62833953 0.01004149 0.00400763 -0.00404225
H 2.98542428 10.49372839 2.14241851 -0.00286534 0.00960325 0.00163766
H 0.45973895 13.30104470 7.52753291 -0.00832333 -0.01526821 -0.02276318
H 2.38141698 18.23889460 10.21692171 0.02350649 0.01891973 -0.00790092
H 4.56847487 15.27295911 4.48799899 -0.00244780 0.00168518 0.00399425
H 3.98979361 11.77661808 2.76813227 -0.00637280 0.00308424 -0.01411102
H -1.60391138 18.69019339 14.53526715 0.01830161 0.00548442 -0.01920923
H 1.30982930 13.87808796 15.13812255 0.00884137 -0.01873784 -0.00981638
H 3.73930456 10.25701239 20.94510316 -0.01139164 -0.01434560 -0.00583677
H 0.90501577 15.07197983 20.41099316 0.02372868 -0.01107381 -0.02334919
H 3.97682478 17.54690248 12.46838695 0.00941293 -0.01605292 0.00885757
H 2.40811368 13.10675334 16.96985146 0.02102167 0.00598242 -0.01794204
H -1.95501580 10.94104990 22.90549627 0.00898535 -0.01134770 -0.00959954
H -0.30706734 15.72618512 18.48087775 -0.00596641 0.00883712 -0.01261206
H 2.40991134 16.36783552 22.51842187 -0.03921141 0.02551669 -0.00970160
H 2.49931228 11.66420589 19.00604952 0.00768258 0.00184933 0.01397407
H -0.28454363 12.60141121 13.20388465 -0.03480018 0.00131657 0.02658428
H -0.19901983 17.04375440 16.49001754 0.00652064 0.01897517 0.00482951
H 1.34285994 15.21048683 11.72510995 -0.05250791 -0.01053541 -0.00621616
H -1.56984698 10.40802678 18.06455716 0.00816502 0.00266470 0.00167584
H 0.98805416 13.92084058 23.68516638 0.02821549 -0.01173062 -0.00086360
H 3.78326705 18.46259229 17.61757153 -0.01194110 0.01094401 -0.00093967
H 1.28067883 16.91796083 13.52089998 0.01213797 0.00108253 -0.02348155
H -1.75032447 12.12448994 16.31250829 0.00522660 0.02492801 0.01785613
H 1.08519750 12.06393250 21.87019174 0.00583083 -0.02175169 -0.00376159
H 3.90130013 16.78679248 19.45296383 -0.01539256 0.01978389 0.01147984
H 3.66911845 14.58291171 21.56106243 -0.01451119 0.00464069 -0.01252790
H 1.32989427 9.88118262 20.06487325 0.05367571 0.01170958 -0.01437779
H -1.22357789 14.73933808 14.06554360 -0.01554412 -0.02521595 -0.02466855
H 0.80114369 18.85623207 15.32326289 0.02837540 0.00599139 -0.00983905
H 5.65392718 12.07989626 20.84160252 -0.05186697 0.01595713 0.00085356
H 0.21856366 17.10880923 21.23929366 0.02193852 -0.00076966 -0.00247562
H -2.02405049 15.50742214 16.09506592 -0.01269687 0.00151272 0.00582938
H 2.72613699 12.02468769 14.52445124 -0.01588927 -0.01464697 -0.01347398
H -1.46770640 13.40614470 19.14180558 0.02380923 -0.00237800 -0.01130521
H -1.01561343 17.82536824 22.30223771 -0.01633043 -0.00569390 0.00690758
H 5.38921006 15.18068666 15.81743321 -0.00277701 -0.00446978 -0.00276968
H 2.95017212 10.75369436 13.36295196 0.01113839 0.02770347 0.00001529
H 17.76329029 12.79853697 20.16814366 -0.00360864 -0.01314682 -0.00531532
H 0.54182115 18.72338602 21.92017182 -0.00501535 0.00571226 -0.00497141
H 4.18716537 16.35775181 15.27406229 0.00568920 -0.00359946 -0.00622325
H 1.33061335 11.17032992 14.02629514 0.00614821 0.00885204 0.01353312
H -3.25506994 18.41840018 26.60871419 -0.01246764 0.01091757 -0.01647648
H -0.38251842 13.81121442 26.95488750 -0.00005240 -0.00062616 -0.00722950
H 2.25315917 10.40153704 32.88254370 0.01414414 -0.00869733 -0.02193050
H -0.75575169 15.36488346 32.66079427 0.00660866 -0.01441027 -0.01071353
H 2.61775073 18.04833068 24.37530185 -0.00264363 -0.00639805 -0.00074098
H 0.64306765 13.27360364 29.02863051 0.03348117 0.02820089 -0.01659460
H -3.56926257 10.97539323 34.72265469 0.00371702 0.00307307 0.01285728
H -1.73180074 15.91161894 30.66098972 -0.02953373 0.01561707 0.01326144
H 0.82873709 16.23518459 34.85256762 0.00055074 0.00085097 -0.01658827
H 0.74728980 11.67578450 30.88362896 -0.02210069 -0.00034567 0.00877425
H -2.10723941 12.29382132 25.10299310 -0.01284898 -0.00197105 -0.02222072
H -1.88591994 17.43066443 28.82313248 -0.00830215 -0.00708187 -0.01086486
H -0.37522735 14.81728406 23.91106435 0.00894423 -0.00547604 0.00471313
H -3.15858443 10.24005186 29.75720695 0.01707885 -0.00632052 0.00659915
H 4.21605732 13.87746534 0.09921256 -0.00436061 0.00007810 -0.00440425
H 2.10204840 18.82435992 29.66011107 -0.01830945 0.00407111 0.01321130
H -0.29281083 16.67704081 25.48678603 -0.01066535 -0.01357085 -0.01787008
H -3.02157427 11.56878654 27.69440968 -0.00311825 0.00593735 0.02233854