2160
Time=16000.00000000 pbc="T T T" Lattice="20.51238942 0.00000000 0.00000000 0.00000000 28.95377701 0.00000000 -4.73416519 0.00000000 35.63681745" energy=-13804.16900581 virial="-34.26062605 30.68159705 67.89907059 30.68159705 -95.94446118 3.30748921 67.89907059 3.30748921 -79.74979847" stress="0.00099949 0.00147588 0.00335150 0.00147588 -0.00228198 0.00011268 0.00335150 0.00011268 -0.00161502" Properties=species:S:1:pos:R:3:vel:R:3
O 0.62311182 8.52879091 2.50547276 0.00210814 -0.00260703 0.00279123
O 2.08196177 3.75075062 3.72704951 0.00198712 0.00077625 0.00236626
O 4.60720434 0.95778943 9.56800758 -0.00980671 0.00063618 0.00542499
O 3.53048265 5.61366936 8.33739431 0.00048919 0.00650772 -0.00013203
O 1.36366738 4.64704575 9.60047068 -0.00112305 -0.00077935 -0.00360743
O -0.48888595 9.67641138 8.31464740 0.00050217 0.00103182 -0.00403211
O 4.00222201 4.43734932 2.31946948 -0.00255749 0.00447771 0.00069929
O 5.66155903 28.71513334 3.69641263 -0.00681752 0.00121342 0.00318332
O -0.99755717 8.13307596 14.52718547 -0.00603970 -0.00510504 0.00268884
O 0.35440728 3.70002254 15.49755968 -0.00181890 -0.00487042 -0.00147443
O 3.19523111 1.09726873 21.00513043 0.00136519 0.00279090 0.00375915
O 1.72520073 5.69508663 20.28856563 -0.00246470 0.00192869 -0.00121272
O -0.31499429 4.85440930 21.65810732 -0.00205801 0.00242017 0.00402113
O -1.89781016 9.64232225 20.32374838 0.00480082 -0.00636556 0.00418039
O 2.56007917 4.63492997 14.37472569 0.00483547 0.00516311 -0.00645601
O 4.10874745 28.84528507 15.57725014 -0.00444464 0.00767542 0.00229596
O -2.36269203 8.50968381 26.34925611 0.00976730 -0.00219088 0.00316310
O -1.20972826 3.85513424 27.28599838 0.00069084 -0.00991447 0.00083491
O 1.55832572 1.27114502 32.96682568 0.00345021 0.00311129 -0.00278093
O 0.20572407 5.90526120 32.10626706 -0.00110489 -0.00128332 -0.00439661
O -1.71286647 5.09996097 33.47105193 0.00318964 0.00228856 -0.00247076
O -3.28699508 9.96170242 32.07159257 -0.00106454 -0.00712834 0.00114002
O 0.93045418 4.66864459 25.86870936 -0.00055300 -0.00393732 -0.00581280
O 2.37620278 28.77948727 27.36527376 0.00013288 -0.00125525 0.00436483
O 0.67813490 18.51300689 2.21081203 -0.00197150 0.00072981 0.00099548
O 1.76940646 13.38105013 3.68572841 -0.00169845 -0.00227142 -0.00169256
O 4.40089541 10.69763890 9.34335142 0.00317667 0.00447774 0.00252157
O 3.31601873 15.35595860 7.97441190 -0.00236619 0.00311953 0.00221619
O 1.27840798 14.47379681 9.48885132 -0.00108154 0.00118384 -0.00444113
O -0.32527293 19.27246842 8.20384227 0.00053221 -0.00470884 0.00796179
O 3.55914172 14.36203048 2.19438269 0.00059858 0.00584766 0.00457109
O 5.40269504 9.80169991 3.94951039 0.00329927 -0.00145133 -0.00326262
O -0.75229619 18.31725521 14.20131361 -0.00340167 0.00261461 -0.00376158
O 0.09063259 13.33301848 15.45892675 -0.00330229 -0.00449922 0.00546780
O 2.82302812 10.46934717 21.49509349 -0.00329797 -0.00259761 0.00437465
O 1.89652448 15.28947884 20.06328558 -0.00401579 0.00478052 0.00493412
O -0.44418790 14.55123625 21.34721419 0.00540361 -0.00005114 0.00554994
O -2.02139244 19.14314570 19.94611858 0.00097252 0.00466769 0.00375790
O 2.43865467 14.18771985 14.43367204 -0.00087062 -0.00153854 0.00080072
O 3.89551082 9.47022080 15.62052006 -0.00127509 -0.00280884 0.00017898
O -2.42389339 18.15771251 26.31845905 -0.00271244 0.00164085 0.00221009
O -1.30279399 13.24068715 27.30514138 -0.00205707 -0.00080175 0.00540613
O 1.26056119 10.69170588 33.19711569 -0.00044238 0.00341959 -0.00136293
O 0.16278244 15.57885140 32.15887435 0.00320894 -0.00396378 -0.00264828
O -1.71018601 14.36957560 33.50537049 0.00089388 0.00037264 -0.00086351
O -3.42535975 19.53521638 32.16241195 -0.00371604 -0.00168406 -0.00138177
O 0.68204215 14.37301328 26.07864122 0.00481156 -0.00369429 -0.00034167
O 2.39898142 9.70726149 27.47135482 -0.00000229 -0.00255369 -0.00016521
O 0.85382535 28.00875805 2.33513561 -0.00512945 -0.00007278 -0.00217598
O 1.89420444 23.22989898 3.63982398 -0.00082554 0.00266434 -0.00204303
O 4.85750758 20.42770741 9.10415533 0.00144349 0.00304187 -0.00022155
O 3.39743939 25.11355937 8.32804492 0.00786386 0.00239661 -0.00061691
O 1.30380402 24.09168201 9.69853143 0.00244652 0.00176131 -0.00321897
O -0.11871935 0.01428779 8.29258947 0.00403593 0.00109416 -0.00497304
O 4.01793763 23.86096000 2.54342005 -0.00205148 -0.00313003 -0.00212869
O 5.54596512 19.31904298 3.60433236 -0.00161213 0.00255179 0.00527263
O -0.71754079 28.05347844 14.28033195 -0.00320215 0.00049712 -0.00009799
O 0.18793406 23.12291388 15.48011680 0.00085603 -0.00567956 0.00261637
O 3.10983085 20.14862459 21.48043040 -0.00412124 -0.00271994 0.00100414
O 1.73916091 25.17659539 20.20456152 0.00121578 -0.00196269 0.00301407
O -0.37706079 24.20068237 21.43263722 0.00368858 -0.00434597 0.00269704
O -1.71141160 0.14500040 20.19854675 -0.00346190 -0.00127388 -0.00230577
O 2.27863151 23.55849025 14.03972315 -0.00169589 0.00332265 -0.00280330
O 3.91747694 19.24853548 15.56024144 -0.00032659 -0.00206426 0.00114309
O -2.46862307 27.67792161 26.25736266 -0.00206114 -0.00022066 -0.00352785
O -1.09014118 23.15339318 27.52329607 0.00041003 -0.00457628 -0.00553812
O 1.48206174 20.44220816 33.22101968 -0.00066243 0.00532587 0.00077565
O 0.40113965 25.20013988 32.12809627 -0.00267790 0.00042807 -0.00018616
O -1.89039714 24.34765145 33.08411493 -0.00441693 0.00121876 -0.00364566
O -3.45585324 28.80787038 31.93961557 -0.00158069 0.00063404 -0.00362418
O 0.78325203 24.17701986 26.04251031 0.00253003 -0.00177664 -0.00297120
O 2.63188762 19.09702156 27.44775474 -0.00264235 -0.00337037 0.00053773
O 7.30080520 8.56179510 2.66752909 0.00060035 0.00652957 0.00033354
O 8.89468387 3.63601431 3.29725418 0.00177191 -0.00386802 0.00451382
O 11.44562746 1.33232561 9.35247377 0.00553424 0.00462258 -0.00085452
O 10.36151373 5.98310574 8.31882171 0.00132246 -0.00104147 -0.00521951
O 8.18602073 5.06088601 9.42060011 0.00204051 -0.00508592 -0.00204376
O 6.45968006 9.72287842 8.27806712 0.00294542 -0.00026187 0.00705292
O 10.77791018 5.03891267 2.22176832 0.00271639 -0.00806691 0.00713025
O 12.55321666 0.28676910 3.63243890 -0.00368347 -0.00030534 0.00155601
O 5.80917342 8.45169547 14.20876788 0.00058427 0.00533243 0.00117404
O 7.39365750 3.48323504 15.40437167 -0.00014984 -0.00099907 -0.00550115
O 10.03130310 1.13878862 21.37181304 0.00033762 -0.00329518 -0.00017547
O 8.54902198 5.83608855 20.10881924 -0.00063972 0.00087758 0.00084430
O 6.62786746 4.60365388 21.51803013 0.00573310 -0.00027472 0.00221000
O 4.79733475 9.48733965 20.03008938 0.00635396 -0.00422016 0.00318419
O 9.18890640 5.04313442 14.20236863 -0.00456841 -0.00241523 0.00115450
O 11.00318856 28.63397495 15.66606404 -0.00198946 -0.00486512 0.00643505
O 4.57959461 8.51943014 26.28357956 -0.00135627 -0.00067438 -0.00242815
O 5.63064307 3.60121627 27.36546188 0.00024813 -0.00470647 0.00064599
O 8.26258925 1.08527772 33.30582810 0.00581207 -0.00198294 0.00175174
O 6.95663059 6.07538450 32.30074949 0.00045204 -0.00268337 0.00285640
O 4.89084763 5.03048947 33.56345155 0.00092021 -0.00060463 -0.00006039
O 3.30068896 9.57414094 31.98577392 0.00221704 0.00093123 0.00280121
O 7.61467816 4.58889908 26.01438926 0.00028411 0.00748430 -0.00169621
O 9.28093584 0.01232437 27.41298184 -0.00228053 0.00212453 -0.00386644
O 7.61027073 18.48693853 2.32988395 0.00274874 0.00197300 0.00155380
O 8.61781162 13.31552149 3.53546505 -0.00385623 -0.00188605 -0.00239651
O 11.21238108 10.66139313 9.39040590 -0.00001667 0.00213815 -0.00634757
O 9.98608767 15.80141983 8.70251284 0.00255548 -0.00283898 0.00142609
O 7.94768573 14.50289056 9.51153408 0.00170910 -0.00360060 0.00222410
O 6.54113241 18.94248836 8.11743008 -0.00016404 -0.00253525 0.00008230
O 10.77691160 14.27660706 2.37017608 -0.00534501 0.00477323 -0.00707050
O 12.27153732 9.72650442 3.49149476 0.00622097 0.00042558 -0.00400809
O 6.06922279 18.35366503 14.25959186 0.00037121 0.00592217 0.00034987
O 7.14920878 13.26177799 15.47421179 0.00289602 -0.00092100 0.00685905
O 9.81511040 10.74769561 21.29387699 0.00593459 0.00239916 -0.00058872
O 8.58632808 15.61190988 20.09367496 -0.00331465 -0.00776927 0.00329540
O 6.36655956 14.83777482 21.07324207 -0.00255069 0.00360944 -0.00118217
O 4.92446983 19.37094454 19.75091053 -0.00492637 -0.00136104 -0.00514557
O 9.10568710 14.48509223 13.93561719 0.00048419 0.00165840 0.00016184
O 10.74989818 9.77862820 15.55398993 0.00033667 -0.00303900 -0.00124240
O 4.51864570 18.01014500 26.23417874 0.00015812 -0.00462363 -0.00318847
O 5.57396620 13.32587879 27.06392807 0.00046108 -0.00248177 0.00247652
O 8.06599862 10.72830770 33.19043904 -0.00551188 0.00099661 -0.00165223
O 6.99824050 15.46993534 32.19655469 0.00167593 0.00377490 0.00085536
O 4.89436910 14.57234855 33.52399110 0.00030849 -0.00472103 -0.00485249
O 3.61007037 19.13871867 32.17577936 -0.00199570 -0.00163321 0.00079261
O 7.66087339 14.37359840 26.04232059 0.00138177 0.00057766 0.00066600
O 9.33175846 9.57862618 27.48452419 0.00259478 -0.00409559 0.00222794
O 7.63186798 28.17027416 2.02532337 0.00363966 0.00177807 0.00685984
O 8.60939983 23.09694883 3.60330568 -0.00251091 0.00189188 -0.00403702
O 11.36454308 20.31652037 9.39591316 -0.00206555 0.00028047 -0.00086201
O 10.12279166 25.40323488 8.26053229 0.00163131 0.00023771 0.00005976
O 8.09098132 24.41185762 9.51279898 -0.00045631 0.00337077 -0.00231425
O 6.61924857 0.07026303 8.05381460 -0.00339647 -0.00109261 0.00446559
O 10.65350809 24.06603860 2.18966448 -0.00059071 0.00008115 -0.00174892
O 12.15381620 19.39832470 3.72822774 0.00105113 -0.00566321 0.00000657
O 6.11442023 27.90900321 14.39282903 0.00219125 -0.00700433 -0.00732180
O 7.10095637 23.42759743 15.31660220 0.00552948 0.00447498 -0.00477902
O 9.72234073 20.47641295 21.11528718 -0.00365442 0.00096399 -0.00673419
O 8.50482164 25.32908422 20.41511398 -0.00575838 0.00165108 -0.00367517
O 6.45951921 24.21193452 21.43609575 0.00105221 -0.00137294 -0.00309075
O 4.98890064 28.66437649 19.85539778 -0.00069791 0.00655402 0.00373475
O 9.22115464 24.08413826 13.94591214 -0.00011045 0.00108159 0.00188682
O 10.77943459 19.42613835 15.38771770 -0.00160800 -0.00220386 0.00260616
O 4.33384861 27.90694592 25.99017355 -0.00120122 0.00675654 0.00189546
O 5.75350835 23.10179264 27.66857511 0.00305849 -0.00451918 -0.00505623
O 8.50266189 20.59966374 33.16184763 -0.00224044 -0.00170007 0.00236970
O 7.14621299 25.20454559 32.27002970 0.00723022 -0.00384906 0.00580537
O 5.04481744 24.08799760 33.33104585 0.00937339 -0.00773747 -0.00304206
O 3.54429605 0.04358022 31.96723910 -0.00267022 0.00059962 -0.00189286
O 7.73777471 24.24541536 26.12118512 0.00003193 0.00002087 0.00426615
O 9.26325866 19.11563665 27.56070295 0.00036494 0.00040454 -0.00328986
O 14.30428170 8.52212594 2.66486709 0.00435070 0.00081901 -0.00179561
O 15.66060723 3.87039232 3.51040484 0.00171046 0.00673884 -0.00394339
O 18.20660745 1.01821971 9.32504962 0.00347643 -0.00022342 -0.00188281
O 16.94949313 5.80686122 8.32375279 0.00253334 -0.00250149 0.00328089
O 14.83121159 5.15577176 9.65373295 0.00208770 0.00597377 -0.00117399
O 13.39802206 9.68229400 8.26423888 0.00035008 0.00429456 -0.00775607
O 17.63923045 4.81380948 2.32379912 -0.00387726 0.00017308 0.00027326
O 19.34374106 28.81544790 3.76482428 0.00071513 0.00105944 0.00486308
O 12.93148000 8.73892941 14.55104916 -0.00131732 0.00638937 -0.00472588
O 13.99618867 3.60086386 15.37384528 -0.00115142 -0.00488079 0.00189979
O 16.72789302 1.18106084 21.43218717 -0.00218474 0.00054066 0.00395762
O 15.45145469 5.78310726 20.35970702 0.00121276 0.00286567 -0.00229477
O 13.26617472 5.01204458 21.62694167 -0.00154778 0.00392297 -0.00143476
O 11.76215769 9.64829211 20.13466907 -0.00425163 -0.00578009 -0.00257873
O 15.99216460 4.64879550 14.10162435 0.00177229 -0.00224424 0.00471173
O 17.50281147 28.80200812 15.52107508 -0.00175099 -0.00046033 -0.00036213
O 11.26991679 8.89189181 26.00448974 0.00214219 0.00006632 -0.00504321
O 12.65458383 3.68572543 27.01407657 0.00123318 0.00056397 0.00039300
O 15.10056127 1.04082279 33.21102796 -0.00146751 0.00142350 0.00087007
O 14.01745123 5.84381688 32.18756560 0.00053802 0.00583273 -0.00291726
O 11.93293217 5.05156426 33.54994560 0.00054179 0.00151570 0.00208128
O 10.34899478 10.00645678 32.41974068 0.00326728 -0.00178157 0.00418114
O 14.51451971 5.11087227 25.97585577 -0.00173473 0.00440151 -0.00168020
O 16.16843585 0.14637548 27.46247617 0.00033720 -0.00097983 0.00404687
O 14.29485762 18.38219853 2.54784938 -0.00680278 0.00025820 -0.00380344
O 15.47275714 13.44762424 3.41977831 0.00125958 -0.00022661 0.00134237
O 17.99621268 10.68187238 9.75495635 0.00489661 0.00277473 -0.00118568
O 16.94221981 15.76925070 8.38539889 0.00627610 -0.00205022 0.00133076
O 14.88577970 14.48084442 9.50830267 0.00059461 0.00356516 0.00069835
O 13.35783991 19.27484502 8.04478401 -0.00043255 0.00204653 -0.00495785
O 17.56251936 14.45760819 2.42993837 -0.00023216 0.00125462 -0.00341581
O 19.05838556 9.52633023 3.74022852 0.00150643 0.00084961 -0.00107837
O 12.94269695 18.36682064 14.06141255 0.00103039 0.00216392 0.00510422
O 13.80626234 13.54894383 15.49204284 0.00239467 0.00561693 0.00236156
O 16.52514504 10.88010869 21.04147946 0.00291216 0.00137341 0.00663006
O 15.35499426 15.77639373 20.11847760 -0.00326073 -0.00237697 -0.00067237
O 13.37439801 14.65922809 21.57143902 0.00052788 0.00115689 -0.00028384
O 11.76315951 19.40342799 20.00572634 -0.00153702 0.00228823 0.00142188
O 16.05928889 14.34663045 14.39781873 -0.00149445 -0.00022813 0.00323908
O 17.64782032 9.41462707 15.64524058 -0.00101889 -0.00400983 -0.00150265
O 11.25951195 18.18100209 26.37341156 0.00130171 0.00785912 0.00218837
O 12.47754913 13.02963661 27.08702942 -0.00342208 -0.00068768 -0.00269861
O 15.03650494 10.83983058 33.28117480 -0.00306544 0.00049372 0.00032218
O 13.90776113 15.52206495 32.23187719 -0.00439268 -0.00332302 0.00231008
O 11.64355083 14.61541660 33.49375461 -0.00635487 0.00139072 0.00127254
O 10.42542715 19.28302475 32.04991924 0.00106585 -0.00131377 -0.00160561
O 14.42060397 14.35809816 26.15834228 -0.00641999 0.00254048 0.00329302
O 15.97891323 9.50261663 27.36732439 -0.00114535 0.00100392 -0.00193467
O 14.58206260 28.06358883 2.48056073 -0.00483531 -0.00054991 -0.00607501
O 15.59194964 23.25196428 3.67530332 0.00268679 -0.00049126 -0.00242739
O 18.22108417 20.55210258 9.32444960 0.00483410 -0.00084772 0.00263778
O 16.94597214 25.19499786 8.53165188 -0.00331133 -0.00255756 -0.00025489
O 14.94531083 23.93907153 9.46920712 -0.00396565 -0.00156152 -0.00058473
O 13.41025666 0.36501828 8.24220660 0.00618619 -0.00049309 0.00249750
O 17.59607165 24.07514407 2.16735822 -0.00113578 -0.00264270 0.00176942
O 19.02542479 19.33256108 3.68654531 -0.00175668 -0.00030005 0.00446535
O 12.90915493 27.98810568 14.02261077 0.00633381 0.00435672 0.00198551
O 14.07919056 22.96212864 15.26607440 -0.00205767 0.00133392 -0.00058580
O 16.67849722 20.42927629 21.36211495 0.00103177 -0.00019625 0.00686560
O 15.47740099 25.24876247 20.22096117 -0.00273478 -0.00164305 -0.00271425
O 13.31610598 24.37336637 21.43842005 -0.00139831 0.00047989 -0.00284269
O 11.94782780 28.89967831 20.37065347 0.00455310 -0.00063783 -0.00296538
O 16.16218358 24.12748642 14.09250561 -0.00075285 -0.00089308 0.00043655
O 17.64226366 19.35625769 15.33155647 0.00155648 -0.00359117 -0.00304740
O 11.17651601 27.98347230 25.99152136 0.00532346 -0.00325518 -0.00003088
O 12.40838611 23.03144372 27.17202375 0.00267953 0.00149681 -0.00529639
O 14.99104007 20.58980335 33.01931281 -0.00280229 -0.00038530 0.00134690
O 13.80541224 25.13417374 31.79703391 0.00285894 0.00213224 0.00057140
O 11.69371475 24.59884542 33.23619230 -0.00081901 0.00212719 0.00051148
O 10.27179437 0.27355153 31.98566250 -0.00029973 0.00176750 0.00061762
O 14.61022246 23.90277360 26.23757225 -0.00042635 0.00356091 -0.00447621
O 16.15472034 19.25504919 27.68056525 0.00420288 0.01271717 0.00097587
H -0.29025550 9.01404436 2.57992201 0.00816795 0.01623190 0.03090394
H 2.88698763 4.19619693 3.29054334 -0.00900595 -0.01661650 -0.01110620
H 5.50644842 0.63087166 9.13119762 0.01409951 -0.01726286 -0.02230905
H 2.66488617 5.11603420 8.52823803 0.00752139 0.00974234 -0.01571706
H 5.45649884 8.33952358 0.94049023 0.00618258 -0.02368872 -0.00645277
H 3.98213260 3.50525409 5.52674109 -0.00698654 0.00795561 -0.00034193
H -0.46204903 1.14831585 11.09562065 -0.01096224 0.02628811 0.01681209
H 1.43075771 6.03325081 6.69248861 0.00184964 -0.01695456 -0.00608993
H 3.98098045 6.34640965 10.67152522 0.00728436 -0.00235028 0.00403632
H 4.01376936 1.67113996 7.40467947 0.00556077 -0.00069315 0.01146142
H 1.24376999 2.97428284 1.35671121 -0.01965423 -0.00408365 -0.00133525
H 1.32397613 7.81138761 4.98380981 -0.00433468 -0.01374237 -0.03692756
H -2.11910330 5.32169503 35.56753090 -0.00023688 -0.01460380 -0.02852984
H 0.05888779 0.53774756 6.06737785 -0.01924073 -0.00132737 -0.00617067
H 2.58282013 4.20272258 12.10335865 -0.00546263 0.00324127 0.00665098
H 5.23402824 8.99396026 5.92862802 -0.01953260 0.00324258 0.02678921
H 2.64009720 6.92063431 1.93836234 0.00366540 0.00366440 0.00718043
H 0.08986512 2.17242169 4.42493315 -0.02381080 0.02480878 -0.02681295
H 2.75764017 2.69787858 9.88109062 -0.00937159 0.02294973 -0.00586746
H 5.32076116 7.39705902 7.72896641 -0.02010683 -0.00746417 0.01396121
H 5.22596171 4.97488170 9.42912797 -0.00303360 -0.02443896 0.00303593
H 3.02622858 28.69290677 8.30251031 -0.03337588 -0.00792414 -0.04746570
H 0.28322446 4.84608674 2.42138572 0.01190116 -0.00894034 -0.01634140
H 2.26020415 9.35302166 3.80956577 -0.02316183 -0.01842288 0.02061122
H 6.22421185 2.73859052 8.55594108 -0.00309079 0.03442192 0.00115859
H 2.00018278 8.31687183 9.93921277 -0.00804485 0.01983671 -0.04176126
H -0.40393182 5.97633697 4.11655894 0.00473619 -0.01611395 0.02441630
H 5.17369689 0.85348343 1.57850683 -0.00639898 -0.00149691 -0.00472144
H -1.04485888 2.93477560 8.26293970 -0.01629000 -0.00319980 -0.00099800
H 0.40820476 7.49837079 9.54261866 0.00013977 0.06039692 0.01576879
H 5.52388958 6.74208792 3.41744818 0.00240246 0.02280199 -0.02080188
H 3.37501000 0.49285054 1.69587322 0.02051921 0.01556336 0.01155870
H 0.70694401 3.17614783 7.78183989 -0.02322699 0.03735100 0.01428025
H 0.41488564 8.88326338 10.69692279 0.01093785 0.01254618 0.01454398
H 4.57879721 5.57659584 4.45159603 0.01654166 -0.01867473 0.00860900
H 3.92696698 1.92212574 2.44670664 0.02376584 -0.04565695 0.01454010
H -1.78014308 8.83491329 14.87048070 -0.03446536 0.01838529 -0.00864789
H 1.21569330 4.14624529 15.21055813 -0.02422284 -0.01668197 0.00911909
H 3.99351650 0.60847554 20.73567724 -0.01834635 0.00520286 0.02543074
H 0.88187773 5.47458328 20.80895572 0.01499065 -0.01642335 -0.00346726
H 3.83088478 7.94972011 12.57508345 0.00443542 -0.01941412 0.00569402
H 2.29111612 3.43616903 17.41281925 -0.02425168 -0.00013699 -0.01011818
H -1.80209675 1.47460235 23.04407618 0.00398086 -0.00466696 -0.00830794
H -0.21230893 6.00625826 18.36441279 -0.01185065 0.02778446 0.02124793
H 2.44264384 6.66377123 22.90722575 -0.00569376 0.00129246 0.00104611
H 2.30104413 1.70110187 19.02953596 0.01566764 0.00744557 -0.01899789
H -0.59157297 2.44013129 13.11117797 0.01118219 -0.01576730 0.00074558
H -0.14269695 7.69231761 16.67227563 -0.00207275 -0.00866932 -0.01107844
H 1.25305712 5.25321236 11.96070382 -0.02032510 0.00465179 -0.01139108
H -1.56226506 0.32945234 17.90331884 0.03103914 -0.02421655 -0.01766209
H 1.11494102 4.02545857 23.93432836 -0.00390835 0.01175027 -0.02035209
H 3.68518051 9.03457979 17.77666826 -0.01138090 -0.00252129 0.01758161
H 1.09305452 6.76916648 13.87716761 -0.01614302 -0.00492913 -0.00957616
H -1.45244601 1.94315573 15.92760891 0.00468546 -0.00595894 0.00837647
H 1.14771080 2.53617522 21.83711623 0.00387388 -0.00672795 -0.01038343
H 3.68991698 7.12158855 19.62166920 0.00300349 0.00627596 0.00627920
H 3.40612361 5.02840706 21.60953045 0.05570083 -0.00967825 0.00256587
H 1.47070645 28.65880048 19.90043969 0.02178726 0.00426107 0.01063219
H -1.35126579 4.30770007 14.08945532 0.00789526 0.02220479 0.01153618
H 0.75527041 9.54177576 15.73915296 0.01450258 0.00803619 0.01371566
H 5.31985440 2.48740035 20.44440027 -0.01018818 0.04080242 -0.00792186
H -0.70974404 8.82034098 22.49801884 -0.00421318 0.01842055 0.03550762
H 18.34759265 5.79494078 15.97899185 -0.00136737 0.00953856 0.00275403
H 3.39482996 1.15248656 13.36215444 0.01296536 0.01866071 -0.02856935
H 17.74855202 3.35285668 20.28739085 -0.02229047 -0.04255468 0.00105832
H 0.83136262 8.24510072 21.47873392 -0.04793956 0.00683150 0.02871926
H 3.87834850 6.58650194 15.88350154 -0.01780985 0.03225227 0.01157293
H 1.76254771 0.71891701 13.51713318 -0.01453624 -0.04288656 -0.03407921
H -1.12046690 2.57821189 20.68391489 0.02497803 0.00266186 -0.00160696
H -0.92036075 7.33500680 21.44000144 -0.04693816 0.02263475 -0.02477261
H 3.57268422 5.19311339 16.62399508 -0.00439031 0.01286720 -0.00556570
H 2.35203869 2.05530514 14.51854647 0.01344562 0.00134919 0.00047117
H -3.22386066 9.04898121 26.61235594 0.00308214 -0.01710721 0.00865472
H -0.26930733 4.29075704 27.12274146 -0.02221022 -0.02096695 0.00116935
H 2.37907635 0.86142339 32.79255514 -0.00859067 0.00337480 0.00681365
H -0.68133918 5.59764700 32.50716893 -0.01495109 -0.00509550 0.02978477
H 2.44022224 7.90415890 24.80874289 -0.00555363 -0.00205054 -0.01405233
H 0.83448150 3.12680608 28.74869049 0.01200789 -0.01423113 -0.01704045
H -3.42822324 1.47657701 34.91419910 -0.00811239 -0.01479916 -0.03142026
H -1.82467740 6.19197192 30.22938748 0.00198697 0.00276738 0.03466932
H 0.72789458 7.01696134 34.54017073 -0.00791997 0.00608770 0.00457380
H 0.74999809 1.71444860 30.77780616 -0.00303877 -0.00830837 -0.01880540
H -1.73455890 3.11581283 24.95692639 -0.01524367 0.00856197 -0.00977770
H -1.80746701 7.83406070 28.50364132 0.02159617 -0.01292407 -0.01674697
H -0.54159379 5.45669169 23.66140100 -0.02262952 0.00817646 -0.00059385
H -3.21019826 0.58940020 29.84757635 0.01342180 0.01429462 -0.02244921
H -0.70759290 4.17432572 35.60658683 0.01930214 -0.01469427 -0.00837961
H 2.30544221 8.92173962 29.56219020 -0.00233908 0.00275163 -0.00297968
H -0.30199293 7.15326769 25.28223167 -0.00639981 0.02741883 -0.00516924
H -3.21075633 2.30455678 27.94744967 -0.00972002 -0.01029413 -0.00539704
H -0.55457765 2.49266277 33.63903839 -0.00405454 0.00271103 -0.00684011
H 2.07277174 7.70611382 31.53705027 0.00033674 0.00378954 0.01448682
H 1.70714522 5.29131072 33.43990202 -0.00996091 -0.03029519 -0.03710781
H -0.23545778 0.02441813 31.87147821 -0.02748988 -0.00454094 -0.01604450
H -2.87847178 4.72086789 26.17198043 0.02461690 0.01716718 -0.00213383
H -0.68824032 9.42236921 27.27944330 0.00010701 0.01412214 0.01322463
H 3.93779170 4.48293680 31.03874176 -0.02031610 -0.02218154 0.03641015
H -2.43563684 8.89184227 34.40518455 -0.00288178 -0.00087266 0.02432410
H 16.18558877 7.02272413 27.43844647 0.01114852 0.01026659 0.03307602
H 1.51045252 0.98756878 25.20673240 0.01071413 0.01902308 0.00933596
H -2.04354056 3.65094990 31.36889338 0.01218456 0.00838265 -0.01139438
H -0.81158652 8.40182654 33.48331333 -0.00422806 0.02772546 0.00080292
H 2.52726121 6.86517479 27.14117736 0.01282945 0.00088947 0.01858134
H -0.19153934 1.13700836 25.92871392 -0.02420330 -0.02133679 0.02429074
H -3.76203974 4.06806019 31.28934808 0.01417839 0.00980367 -0.00833148
H -2.40513831 7.58658792 33.31209151 0.03556150 0.00389611 0.00216848
H 1.72109043 5.71972927 28.24866130 0.01570663 -0.01180254 -0.00763101
H 1.19499241 2.22580669 26.24444670 0.01969784 0.01890689 0.00133327
H -0.17638349 18.76203974 2.63153683 0.00745747 0.01428221 -0.00784246
H 2.63292924 13.58260588 3.27595510 0.01036232 0.01252462 -0.01807454
H 5.20186829 10.06665316 9.15744423 -0.01686642 0.00681302 -0.01311130
H 2.40732830 15.04556792 8.34770445 0.02417223 0.00176498 -0.02480372
H 5.54544944 17.94577784 0.84166200 0.01373240 -0.02392579 0.00011996
H 3.73081113 12.78672109 5.21165546 -0.00710399 -0.01235880 0.03105105
H -0.39680366 11.08019351 11.22558607 -0.02211040 -0.00994596 0.01304424
H 1.24787676 16.00324777 6.43340040 -0.02937734 0.00303709 0.00729035
H 3.84250796 16.07651040 10.99575368 -0.00891508 -0.01246255 -0.00991321
H 3.72991367 11.18976095 7.16271306 0.00195439 0.01029055 -0.00917472
H 1.07421259 12.64228811 1.51136587 0.02214962 0.00515808 -0.00866990
H 1.42507997 17.52509966 4.55677112 0.01804795 -0.00102480 0.00900294
H 2.77284387 15.20496246 0.00827076 0.00467498 0.01578292 -0.01857543
H -0.26490280 10.04111380 6.21485759 0.02357682 0.00030117 0.00539663
H 2.45412490 13.65419078 12.27538816 0.00142898 -0.02619407 -0.00802116
H 5.39809911 18.67855231 5.70250306 -0.01411516 -0.01581045 0.02473898
H 2.70123224 16.69206262 1.77900985 -0.01584843 0.01158833 0.00190522
H -0.27666940 11.79376999 4.20150251 0.00633772 0.01044918 -0.02219840
H 2.39261729 12.29425617 10.22616745 0.01553582 -0.00835228 0.01597949
H 5.34369663 17.09376540 7.38269430 -0.00093821 0.00178097 0.01001702
H 4.84548882 14.39981819 9.84253509 -0.02622648 0.01004610 -0.00274240
H 2.60514014 9.29959270 8.28047789 -0.06129633 0.01475984 -0.01473443
H 0.18960601 14.42468254 2.32901148 0.00624199 0.00845250 -0.01177804
H 2.41992836 19.38244984 3.55418861 0.02770899 -0.01829523 -0.00125320
H 6.71929517 12.06464729 8.53514372 -0.01145970 0.03378792 -0.00908031
H 0.94881987 17.00556530 9.19987554 -0.00964910 -0.00522322 -0.01399010
H 18.57358522 16.91598076 3.24295047 -0.00323748 -0.01011013 -0.00290574
H 4.40888361 11.78673660 2.53648180 0.00979240 0.03953014 0.00882287
H 0.03623015 13.24402925 7.40463047 0.01541262 -0.02412324 0.01086872
H 0.81256902 18.18477171 10.52394384 -0.00850942 -0.00308363 0.00584479
H 4.38415512 14.97856871 4.73110212 -0.01091806 0.02038413 0.00493788
H 4.08869063 10.39640118 1.56802725 -0.01245214 -0.02157089 0.00493424
H 19.15888715 12.89864864 8.49810680 0.01111863 -0.00272299 0.00157132
H 2.29925161 18.23275122 9.60601551 -0.01042568 -0.01315006 0.00263628
H 5.91293361 15.55682396 3.99587491 -0.00085803 0.01196889 -0.01159656
H 2.75674960 11.13865378 2.59350820 -0.02032501 -0.01748344 0.00046851
H -1.58789605 18.70705846 14.50981695 0.01520103 0.00979484 -0.03640800
H 0.97351798 13.73576332 15.11966041 -0.00786420 -0.00186599 0.00044001
H 3.56850819 9.98734480 21.06333794 0.00182909 0.00471963 -0.02826066
H 1.00940072 15.07782189 20.42288855 0.02169128 -0.02935476 -0.02982209
H 3.87415473 17.76515386 12.88191477 0.01836151 -0.01530107 -0.02665192
H 2.14139719 12.62106392 16.95248115 -0.00051759 0.02251152 -0.00737216
H -2.10062880 10.90143202 22.99270270 -0.02439237 -0.00880429 -0.00107154
H -0.02894692 15.73185295 18.44625388 0.03269927 0.00607242 -0.01263816
H 2.47445556 16.54776741 22.33953589 -0.00372211 0.00978656 0.01482347
H 2.16880284 11.20090499 18.93667632 0.00348183 0.00746829 0.02457427
H -0.41253781 12.69733951 13.22642200 0.00204507 -0.00688367 -0.01532084
H -0.14672835 17.48030972 16.62015152 -0.00138159 0.00030148 0.01407366
H 1.12008171 14.97716134 11.68344419 -0.00654746 -0.01072076 -0.02267157
H -2.01447235 10.41668789 18.36826421 -0.00110446 0.00559847 0.02741389
H 0.77871492 13.90465370 23.82643667 0.00557396 -0.00422247 0.00676239
H 3.89634643 18.59754437 17.66882419 0.01193507 0.02072554 0.01223801
H 1.24979943 16.72673374 13.52906196 0.00004267 0.00587809 -0.02298513
H -2.12138949 12.14955453 16.55833818 0.02622362 0.00494076 0.00973015
H 0.88727102 12.33453451 21.93475507 -0.00562099 0.01813866 0.01338611
H 3.88935630 17.02593896 19.37905187 -0.00161576 -0.01858028 -0.01949487
H 3.31248470 14.60185180 21.49825521 -0.01551789 -0.00697560 -0.04440569
H 1.33546926 9.49425875 19.76173022 0.00199475 0.01739191 -0.00814124
H -1.33837243 14.65649561 14.15600403 0.00552740 -0.00449235 0.00973352
H 0.71398846 18.98955853 15.49703275 -0.01875351 0.01625945 -0.01742742
H 3.97105607 13.31380537 19.63967720 -0.00147695 0.00465300 -0.00192352
H -0.31902795 18.77365417 22.42621399 0.00572904 0.00797442 0.01488352
H 16.50351221 16.62657077 15.59918545 0.01330781 -0.00300459 0.00386511
H 3.03158690 10.54208330 13.48241395 0.01392403 -0.00467036 -0.02630266
H -1.23239964 13.20167392 19.38158062 -0.00430573 -0.00320325 -0.01068826
H 0.18685865 17.50226729 21.35092239 -0.01701070 0.00577398 -0.01476692
H 3.68146991 14.71633484 16.74549816 0.00057960 -0.01366321 0.03354117
H 1.31759973 10.72229658 14.17657073 -0.02832323 -0.02127133 -0.02962193
H 17.46669065 13.41375940 19.75606368 0.02781018 0.00454292 0.00562792
H -1.56366197 17.67052612 21.93825474 -0.00006288 0.00051677 0.00592895
H 5.08266635 15.51487421 15.89009279 0.02945700 0.02076613 -0.01223522
H 2.73944306 11.73828169 14.63152769 0.01385930 0.01585713 -0.00602302
H -3.23806783 18.74844219 26.44036652 -0.02289918 0.01622094 -0.00467885
H -0.51107545 13.69012643 26.86824516 0.01493620 0.02054809 -0.01985609
H 2.14026819 10.23580985 33.02734937 -0.03956429 0.01085345 0.01082657
H -0.77968396 15.24978957 32.31581349 -0.03047313 -0.00112706 -0.00507467
H 2.38857029 17.89196439 24.39233073 0.00231651 0.00462109 -0.01099062
H 0.79966109 12.83257948 28.81562455 -0.03405351 -0.01107857 0.01034753
H -3.66809239 10.94017039 35.21617508 -0.01229534 0.00900936 0.01123818
H -1.66746856 15.85555366 30.43019192 -0.01320448 0.00810848 0.00826765
H 0.64938315 16.16503436 34.85212571 -0.01302421 -0.00385181 -0.00349796
H 0.87190709 11.29209452 30.71918005 0.01531473 0.00133612 -0.02026497
H -2.08281578 12.38859716 24.92115819 -0.00451228 -0.00642047 0.01031502
H -1.73696446 17.58971439 28.72376352 0.00709511 0.00878079 -0.03321764
H -0.50526858 14.98380466 23.68212096 0.01280127 0.02999893 -0.00314444
H -3.10090804 10.04350950 29.80238025 0.00284165 -0.00706909 -0.01043346
H 3.80082921 13.51564654 0.30154323 0.00700218 0.00798734 0.01628765
H 2.29062651 18.66431814 29.52616200 -0.01459319 -0.00388647 0.02597934
H -0.46595859 16.48030175 25.47976336 -0.01591539 -0.01027142 -0.01161773
H -3.23492739 11.59789978 27.99199266 -0.00791870 0.00594547 0.01300872
H -0.87198685 11.96015893 34.10804958 -0.00137566 0.00380379 0.00393984