2160
Time=41000.00000002 pbc="T T T" Lattice="20.59276985 0.00000000 0.00000000 0.00000000 28.92029667 0.00000000 -4.73503420 0.00000000 35.64990171" energy=-13799.98414052 virial="-2.10487789 -5.59759126 66.62764502 -5.59759126 -27.67324532 -5.92547964 66.62764502 -5.92547964 -45.29144509" stress="0.00224608 -0.00032637 0.00323727 -0.00032637 0.00095710 -0.00030552 0.00323727 -0.00030552 -0.00001668" Properties=species:S:1:pos:R:3:vel:R:3
O 0.57019491 8.31841240 2.63270716 -0.00103686 0.00420463 0.00108435
O 2.03620006 3.78242315 3.49709021 -0.00204243 0.00734180 0.00627515
O 4.69676779 1.04687391 9.52337803 0.00259675 0.00171528 -0.00788880
O 3.37022768 5.98671283 8.38909802 0.00045796 0.00068830 -0.00365788
O 1.29776870 4.62441678 9.45506961 -0.00250279 0.00282388 -0.00415950
O -0.20534358 9.79344907 8.35746510 0.00332264 0.00372728 0.00157248
O 3.94639552 4.77761649 2.23642377 0.00756645 -0.00389449 -0.00165973
O 5.68296322 28.89350250 3.56852193 0.00044949 0.00201041 0.00255400
O -0.99995218 8.67593937 14.16989758 -0.00216035 -0.00086344 -0.00057652
O 0.30189306 3.70598764 15.56899803 0.00511891 -0.00090775 0.00322463
O 3.01515951 0.89475863 21.53131127 0.00074861 0.00322852 -0.00335687
O 1.70022955 5.75419650 20.22120558 -0.00374570 -0.00141905 0.00216553
O -0.44716511 4.74650461 21.37531504 -0.00339515 0.00148256 -0.00307174
O -1.68581731 9.38782887 19.84033750 -0.00524266 0.00188430 -0.00038729
O 2.34311385 4.69533720 14.27190625 0.00141875 -0.00090893 -0.00032022
O 4.06285809 0.27971522 15.66503051 0.00525146 0.00156810 -0.00311251
O -2.42785960 8.42566079 26.11482461 0.00068466 -0.00668033 -0.00413545
O -1.20160661 3.61703453 27.44071318 -0.00204056 0.00068334 -0.00104580
O 1.34439664 1.04474441 33.08080624 0.00021429 0.00491463 -0.00224347
O -0.17579413 6.17457142 32.19534012 -0.00394397 -0.00657050 0.00115581
O -1.87486081 4.76289845 33.56190632 -0.00806801 0.00320048 0.00040748
O -3.76010462 9.77940606 31.74418800 0.00149654 0.00150355 -0.00446272
O 0.73925878 4.57673408 26.10555360 -0.00635337 -0.00071437 -0.00443288
O 2.42902890 28.41652932 27.62738016 -0.00007071 -0.00160407 0.00044548
O 0.82638776 17.99642429 2.53920912 0.00298157 -0.00398200 0.00167151
O 1.83896092 13.62485545 3.79435055 -0.00168674 -0.00029740 0.00206984
O 4.75178791 10.93892912 9.38308072 0.00036251 0.00058883 0.00367747
O 3.29229098 15.44817415 8.55253085 -0.00092319 0.00124840 0.00270194
O 1.27243495 14.68882037 9.81299501 0.00478959 -0.00209019 -0.00071457
O -0.13064078 19.42596094 8.33881206 0.00351253 0.00082274 -0.00513474
O 4.03955344 14.06736057 2.41752895 0.00621481 -0.00210660 0.00229206
O 5.56931140 9.61176219 3.75232657 0.00492578 -0.00484482 0.00860514
O -0.89661208 18.06554509 14.54616565 -0.00289431 -0.00476601 0.00068665
O 0.64393115 13.46147247 15.46790722 -0.00167196 -0.00006105 0.00180719
O 2.84824058 10.60670423 21.34957936 -0.00186688 0.00406256 0.00402639
O 1.81997369 15.73619472 20.38725699 0.00528697 -0.00428502 -0.00175591
O -0.36350178 14.62295826 21.37956350 -0.00363622 -0.00438692 -0.00178797
O -1.61682847 19.38404028 20.38924684 -0.00264291 0.00100333 -0.00343841
O 2.44574154 14.57157799 14.11718848 0.00365283 -0.00264425 0.00357585
O 4.00466473 9.30475264 15.64630930 0.00556775 -0.00134183 0.00377361
O -2.60673071 17.96336383 26.12279376 0.00410656 -0.00104698 -0.00338341
O -1.22595603 13.10564771 26.85365743 0.00226130 0.00308129 0.00151220
O 1.21276239 10.73906897 33.06789102 0.00486484 -0.00156069 -0.00099668
O 0.26600221 15.36256344 31.96211411 -0.00481605 0.00528146 -0.00141162
O -2.03717872 14.24172173 33.26087813 0.00145658 0.00165047 0.00489849
O -3.57571746 19.31744544 31.82408050 0.00008226 0.00083055 0.00170530
O 0.98552618 14.26699497 26.21531358 0.00043568 -0.00253752 -0.00628118
O 2.40769082 9.51653351 27.53622540 -0.00108971 -0.00002579 -0.00248491
O 0.82664652 27.76077349 2.36859672 -0.00072108 0.00146939 -0.00160404
O 1.94584544 23.06220081 3.69400169 -0.00000679 0.00176402 -0.00642606
O 4.75017091 20.26805926 9.56126595 0.00138023 -0.00007717 -0.00136927
O 3.35189123 25.27385056 8.40448310 -0.00474176 -0.00310741 0.00626177
O 1.24149611 24.06809306 9.62753422 0.00521466 0.00465488 0.00221980
O -0.14604785 0.12453411 8.12996594 -0.00037843 0.00096557 -0.00305291
O 4.04821528 24.11408605 2.26721516 -0.00242758 0.00177575 0.00249422
O 5.79906771 19.18756402 3.82605643 -0.00096872 -0.00117946 -0.00539343
O -0.72772576 28.12231977 14.16333967 -0.00712179 -0.00180508 0.00476974
O 0.41319872 23.00202463 15.37083830 -0.00502835 -0.00190582 0.00216543
O 2.89519270 20.15371917 21.52421637 0.00016323 -0.00169219 0.00522834
O 1.61389266 25.19700221 20.19251945 -0.00094574 0.00218183 0.00541387
O -0.36273058 24.26974155 21.56849359 -0.00515422 0.00204519 0.00465211
O -2.05364348 28.90130596 20.04828645 -0.00172293 -0.00241553 0.00325065
O 2.37993147 23.92629224 14.19586757 0.00362419 -0.00002482 0.00547448
O 3.93158499 19.30791989 15.54560399 -0.00035002 0.00059313 0.00496112
O -2.14328725 27.98015185 26.46462690 -0.00352513 -0.00450452 -0.00495597
O -1.43041555 23.10618293 27.18335990 -0.00130540 0.00496638 0.00065738
O 1.56028630 20.45000636 33.22807381 0.00459314 0.00071655 0.00317317
O 0.08475333 24.99878971 32.36189277 0.00112834 0.00122632 0.00105640
O -1.98865997 24.05794773 33.39579316 0.00123160 -0.00340159 -0.00200220
O -3.52655298 28.44551973 31.86789806 0.00048196 0.00080627 -0.00458249
O 0.79968883 23.88830979 25.83994702 0.00156258 0.00133882 0.00644245
O 2.33095724 19.07133777 27.22479891 -0.00015167 -0.00265293 0.00133485
O 7.35239362 8.78801296 2.20446887 -0.00650049 -0.00133158 0.00390869
O 8.64226719 4.17157067 3.42829469 -0.00107063 0.00121164 0.00309030
O 11.55507851 1.19542346 9.32623646 -0.00710110 -0.00060815 0.00471178
O 10.22256386 6.29951493 8.29487462 0.00298833 0.00079743 0.00115721
O 8.08899500 4.91580853 9.34414902 0.00475521 0.00196915 -0.00190504
O 6.67690921 9.64810475 7.97544244 0.00058953 0.00623938 -0.00427925
O 10.94485630 4.81097793 2.29099921 -0.00150688 0.00020555 0.00403689
O 12.39235292 28.91755280 3.58969318 0.00174751 0.00521663 0.00267707
O 5.96240195 8.59288028 14.12494134 0.00208072 -0.00474988 0.00110186
O 7.27144727 3.77205913 15.41668197 0.00737893 -0.00318095 0.00492624
O 9.61025468 1.01978083 21.29625820 -0.00190761 -0.00557689 0.00548160
O 8.70154801 5.80126279 20.43805990 0.00201778 -0.00213751 0.00129742
O 6.37361419 4.94220736 21.33606190 0.00556106 0.00302812 0.00179581
O 5.12118219 9.64242980 20.30452735 0.00475437 -0.00011017 -0.00041048
O 9.36011465 4.64184692 14.10587268 0.00061925 0.00548833 -0.00498355
O 10.88630215 0.08591230 15.74106746 -0.00196954 0.00596095 0.00214037
O 4.35464996 8.62129241 25.97461414 -0.00304497 -0.00432684 -0.00193014
O 5.79266096 3.52397518 27.15968262 0.00029671 -0.00027283 -0.00905804
O 8.32834801 0.98643316 33.14345192 -0.00413049 0.00593718 -0.00262122
O 7.28061186 5.95348255 32.06246148 0.00264914 -0.00362148 -0.00067260
O 5.24756393 4.96935016 33.38769400 0.00545752 -0.00549857 -0.00162016
O 3.41612309 9.91079126 31.79801510 0.00037424 0.00157412 -0.00556234
O 7.69799054 4.91768124 25.96584020 0.00291083 -0.00024981 -0.00141906
O 9.04248533 28.51867045 27.25493168 0.00087033 0.00033421 0.00702466
O 7.57378414 18.18956025 2.33637591 -0.00002266 -0.00025726 -0.00437278
O 8.83364899 13.54188253 3.43437826 -0.00410284 0.00346814 0.00119955
O 11.39294718 10.60129522 9.67477515 -0.00125463 0.00576827 0.00066749
O 10.28519467 15.57566734 8.13896591 0.00644423 -0.00635514 -0.00047517
O 7.97687329 15.12832047 9.15993232 0.00319830 -0.00053173 0.00475550
O 6.79300751 19.45946688 7.92550235 0.00641541 0.00488882 -0.00224479
O 10.76754324 14.47464759 2.10407028 -0.00219201 0.00571990 0.00090007
O 12.49154173 9.67235864 3.44185628 -0.00167371 0.00077139 0.00048390
O 5.97926202 18.12459406 14.38023974 -0.00062038 -0.00003250 -0.00419183
O 7.30170520 13.20364291 15.39214133 0.00682779 0.00278045 0.00269250
O 9.83756342 10.67083744 21.47422668 -0.00030802 0.00314151 -0.00154249
O 8.49486520 15.62932320 20.19323310 -0.00380079 0.00087475 -0.00491979
O 6.75114493 14.48987644 21.49949649 -0.00003455 0.00171889 -0.00492066
O 5.21993412 19.61958014 20.49485423 -0.00482433 -0.00205312 -0.00032437
O 9.18753352 14.39511111 14.22889756 0.00212878 0.00288913 -0.00133489
O 10.74985968 9.68163005 15.82577453 -0.00407273 0.00329022 0.00713480
O 4.33704441 18.25503407 26.00901985 -0.00489262 -0.00270033 0.00213998
O 5.73686777 13.53703497 27.27456534 0.00756627 0.00023216 0.00055221
O 8.31043368 10.67862398 33.38527836 -0.00885856 -0.00275133 0.00036876
O 6.87296663 15.68474194 32.11888084 0.00076951 -0.00138713 0.00252605
O 5.01277054 14.35496378 33.28145417 -0.00409417 0.00332482 0.00288673
O 3.33957584 19.12959395 31.93194445 -0.00362615 0.00678637 -0.00105719
O 7.78729352 14.53928554 25.91528922 0.00126512 -0.00443859 0.00032365
O 9.03776729 9.55252278 27.16578368 0.00047615 -0.00163112 -0.00087324
O 7.60072746 28.01423771 2.22949774 0.00189551 0.00421127 -0.01000659
O 8.85493601 23.18926384 3.46076879 0.00923494 0.00106156 -0.00161340
O 11.56361923 20.79737829 9.21705960 -0.00273099 -0.00010917 -0.00065736
O 10.28590982 25.30075421 8.40525926 -0.00739502 -0.00577591 0.00242367
O 8.26195194 24.28790388 9.71555381 -0.00508720 0.00612477 -0.00018021
O 6.71997788 0.15328504 7.93451956 0.00015192 -0.00382259 0.00397629
O 10.98746225 24.34083586 2.40351089 0.00024153 -0.00152605 -0.00045472
O 12.55895851 19.30727072 3.74120274 0.00567050 0.00257596 -0.00448013
O 5.96801133 28.16821380 14.24995050 -0.00390168 0.00064210 0.00031500
O 7.04493428 23.07577409 15.54655971 -0.00289240 -0.00095772 0.00581193
O 10.11101412 20.63879946 21.24389199 -0.00469606 0.00018502 -0.00060100
O 8.90012910 24.77114585 19.97354537 0.00885259 -0.00541623 0.00075395
O 6.62162780 24.38657038 21.16901030 0.00380562 0.00001719 0.00110381
O 4.89157427 0.19486090 20.05432346 -0.00171542 -0.00236614 0.00146261
O 9.23458276 23.98845561 14.38959591 0.00359683 0.00112952 0.00496623
O 10.52034371 18.90515627 15.27009673 -0.00250582 -0.00281653 -0.00272364
O 4.35977642 27.59096634 26.25868340 0.00012506 0.00150388 0.00077634
O 5.63390760 22.90648775 27.33276582 0.00088512 0.00070852 0.00097217
O 8.20423919 20.59078338 33.17904917 0.00390222 -0.00323037 0.00354780
O 6.86953201 24.82890281 32.08793126 -0.00229363 -0.00289837 0.00157697
O 5.07535620 23.89195976 33.66953868 0.00188196 0.00033296 0.00447887
O 3.45144508 0.13182108 32.24820688 0.00359020 0.00119314 0.00043223
O 7.59573682 24.06848530 26.20414747 0.00178986 -0.00183185 -0.00250848
O 9.23151782 19.43887566 27.28334982 0.00514315 -0.00258405 0.00083083
O 14.44047617 8.40302028 2.45362662 -0.00128643 0.00131257 0.00914836
O 15.69510327 3.65220428 3.27440848 0.00113748 -0.00160784 -0.00871686
O 18.38937948 1.09674504 9.62201994 -0.00282184 -0.00078615 -0.00217281
O 17.09400227 5.96798377 8.39462207 -0.00278453 0.00035104 0.00306460
O 14.90753050 5.08472073 9.41944945 0.00040092 -0.00063395 0.00285004
O 13.52927773 9.99216834 8.28024028 0.00061873 0.00303826 0.00241026
O 17.75038891 4.62222362 2.02775553 0.00177025 -0.00013263 0.00252191
O 19.33204054 28.56416095 3.61032779 0.00620640 0.00009985 -0.00456685
O 12.85585575 8.59236196 14.42083281 0.00921173 -0.00268995 -0.00215876
O 14.12909776 3.80905200 15.58249405 0.00840166 0.00136393 0.00033931
O 16.53441948 0.86237178 21.60573396 -0.00058778 0.00335903 -0.00404856
O 15.43209836 5.94908638 20.37385446 -0.00123211 -0.00340536 -0.00468957
O 13.48919981 4.77042817 21.46450808 0.00255787 -0.00550331 -0.00247949
O 11.81495370 9.73019642 19.97599822 -0.00162821 -0.00337492 -0.00132242
O 15.92044952 5.06320704 14.12209993 -0.00033675 -0.00429143 -0.00230066
O 17.79637583 28.77402455 15.56162879 0.00877374 -0.00030104 0.00515460
O 11.12822573 8.45689675 26.12023640 -0.00463855 -0.00298208 0.00309784
O 12.36260381 3.68330046 27.49242096 -0.00438675 0.00343024 -0.00116740
O 15.42013536 1.27234708 32.96938457 0.00142782 -0.00313307 0.00846017
O 13.99653330 5.77347466 31.91081861 -0.00466389 -0.00176076 0.00522185
O 11.87133377 4.75221097 33.04277762 0.00426026 0.00569248 -0.00296891
O 10.11341913 9.58550908 31.77061868 0.00118077 0.00301973 0.00304002
O 14.55811704 4.76017303 26.33677901 -0.00055205 0.00333222 -0.00599042
O 16.17123482 28.58658927 27.40190029 0.00246309 0.00305018 0.00541457
O 14.39561136 18.55018829 1.95598494 -0.00081902 0.00317325 -0.00234511
O 15.64639087 13.66088377 3.58421847 -0.00521631 0.00570939 0.00035264
O 18.29571350 11.08578205 9.39941868 0.00187130 -0.00560183 -0.00101872
O 16.82107641 15.73305228 8.69157362 0.00480159 -0.00030536 -0.00109557
O 14.84170553 14.28346621 9.78413435 -0.00159968 -0.00069477 0.00246606
O 13.59183303 19.49549912 8.42160797 0.00366335 0.00086486 0.00170068
O 17.71600563 14.48145357 2.28274593 0.00353625 0.00180312 0.00638389
O 19.08744630 9.83085143 3.77006707 0.00366452 0.00452994 0.00531942
O 12.93444727 18.23455406 14.31359108 -0.00001536 0.00299027 -0.00323628
O 13.82916518 13.46919640 15.48671927 -0.00264612 0.00137948 -0.00034742
O 16.77108396 10.58431420 20.86014911 -0.00088029 -0.00310020 0.00147490
O 15.45882712 15.11269695 19.69594526 0.00310230 0.00026868 0.00678326
O 13.65836881 14.55519534 21.46844873 -0.00825565 -0.00316333 0.00021050
O 11.97417800 19.27225830 19.95037065 -0.00591358 -0.00031246 -0.00120570
O 16.18623495 14.48378935 14.59857875 0.00433011 -0.00274847 -0.00118052
O 17.93638245 9.61251701 15.84683685 0.00337221 -0.00617729 0.00460151
O 11.31813097 18.32068186 26.24081576 -0.00770553 0.00115368 0.00573874
O 12.67012668 13.24598457 27.31554651 0.00718717 -0.00196135 0.00286672
O 14.95581347 10.87572526 33.03385061 -0.00632438 0.00109175 0.00165825
O 14.03961883 15.23647823 31.75558229 0.00255746 0.00534343 -0.00267195
O 11.77690796 14.46963399 32.94503518 0.00094636 0.00335542 -0.00068335
O 10.26865920 19.21566009 32.05247377 0.00126114 -0.00116621 -0.00126725
O 14.76507622 13.87823626 25.90883879 -0.00078023 -0.00119409 -0.00108283
O 16.08372755 9.47039303 27.27395109 0.00150449 -0.00168426 0.00341088
O 14.44686674 27.78650031 2.35990626 -0.01027368 0.00330953 0.00521463
O 15.85785176 22.80016038 3.39914708 0.00098801 0.00515719 0.00283764
O 18.54101299 20.22843526 9.93948399 -0.00370436 -0.00146418 -0.00203486
O 16.97903954 25.09260676 8.50305381 -0.00127514 0.00305629 -0.00417371
O 14.97753789 24.05402824 9.96051829 0.00154934 0.00534910 -0.00413327
O 13.49503405 0.00029884 8.11363557 -0.00418895 0.00229733 -0.00478329
O 17.67933198 24.08685696 2.37766486 0.00068335 0.00072740 0.00835446
O 19.19059715 18.97477134 3.75204391 -0.00087497 -0.00311434 -0.00031098
O 12.94641647 27.89647077 14.64593401 0.00512442 -0.00235806 0.00075543
O 13.96265189 23.20854811 15.55233700 -0.00151141 0.00668955 -0.00131391
O 16.74976895 20.48054555 21.44409667 0.00035594 0.00018972 -0.00393400
O 15.60824221 24.97840853 20.03736942 -0.00544091 0.00038868 0.00133613
O 13.44515964 24.25754429 21.41888968 0.00539216 -0.00064699 -0.00256187
O 11.80794288 0.00318981 20.25781839 -0.00426068 -0.00077070 -0.00142224
O 16.15510911 23.93255391 14.39666744 0.00536211 0.00463626 -0.00188244
O 17.64483508 19.36592916 15.81308703 -0.00122475 -0.00194334 0.00306075
O 11.40015948 27.71315336 26.31160667 -0.00034000 0.00257973 -0.00210912
O 12.50932383 22.92646352 27.48266363 0.00308725 -0.00250118 -0.00032035
O 15.01610105 20.20599169 33.26698107 0.00049001 0.00603043 -0.00117126
O 14.05610928 25.12385482 32.29001974 -0.00231022 0.00142526 0.00617300
O 11.92034015 24.03278896 33.47502690 -0.00834783 0.00268253 -0.00352118
O 10.43552134 28.82615074 31.97497157 -0.00423914 -0.00217729 -0.00100658
O 14.46966235 24.12047581 26.29034578 0.00206592 0.00617930 0.00496792
O 15.98663949 19.12095902 27.25912259 0.00180332 -0.00526540 0.00087904
H -0.27001737 8.89325335 2.94451478 -0.00241859 -0.00544146 0.00206049
H 2.89557497 4.12097360 3.16899334 0.00160945 -0.01611793 0.00192157
H 5.58795248 0.77734770 9.17601443 0.01186042 0.01393372 0.00235561
H 2.42163418 5.64156256 8.51360409 0.00729233 -0.00553880 0.01467227
H 5.41637282 7.97142129 0.45410025 0.01757144 0.00356592 -0.03309256
H 3.98609889 3.41670374 5.10797726 0.00257846 0.00374685 -0.01650021
H -0.23805609 1.87095162 11.09073157 0.00598001 0.00480343 -0.03350181
H 1.56225759 6.02237641 6.47364455 -0.01371411 0.00881805 0.03072950
H 4.10043977 6.97780587 10.41412170 -0.00384091 0.00652247 -0.01386254
H 3.84736817 2.07577143 7.19464634 -0.00422363 0.03426361 0.01267990
H 1.33701078 2.97814633 1.21953176 0.01551280 -0.01382665 -0.01319756
H 1.42840130 7.75951833 4.76030602 -0.00338186 0.00238322 -0.01253029
H -1.97196114 5.85387068 35.20405846 -0.01328198 0.01121859 0.00285975
H 0.05400950 0.58715959 6.12651082 -0.00889729 -0.00090516 -0.00327214
H 2.46231223 4.27058790 12.04650889 -0.02259448 0.00262594 0.00387156
H 5.30325676 9.39818502 6.03180612 -0.02230033 -0.01912651 -0.01115581
H 2.60839968 7.15873709 1.58673854 0.01161795 0.01152360 -0.01319475
H -0.10529636 2.20706914 4.27525175 0.01006077 0.00949176 -0.01312130
H 2.69897525 2.63149259 10.03006589 0.00582295 0.01646661 0.02480985
H 5.41815965 7.65294307 7.77052495 -0.01002760 -0.00470637 -0.01804592
H 4.96237724 4.85863808 9.40766728 -0.01439684 0.01345529 0.00259270
H 3.01498267 0.15195329 8.18922168 0.00941461 0.00879206 -0.00027429
H 0.42699319 4.57850076 2.28237304 -0.00884011 -0.00827347 0.00419841
H 2.36177292 9.70454462 3.82991477 -0.01972214 0.02238312 0.00510929
H 7.56061271 3.63838353 7.31606817 0.01436500 -0.03045992 0.00051089
H 1.21740872 7.45552103 9.11896995 -0.00066122 0.02569884 -0.00771315
H 19.58539212 6.63898640 3.30778231 -0.00710108 -0.03097879 -0.00187099
H 2.98000748 1.10547387 1.97251903 0.01193609 -0.00188595 0.00986599
H -0.72791292 3.10465789 8.03026939 0.00631754 0.00197524 0.00992777
H 0.57250797 8.48415235 10.39520487 0.03561769 0.00423862 0.01097964
H 6.61037928 5.48554359 3.87254231 -0.00818482 -0.01017202 0.00839610
H 4.17384259 2.24995546 2.53489657 -0.01159111 -0.00975407 -0.00410749
H 0.24573293 4.07038077 7.06534144 -0.00398186 -0.03019594 0.00528613
H 2.32541422 8.65518724 9.80689654 0.00888861 -0.01290923 0.00661736
H 4.95663339 6.13153951 4.22237430 -0.00457645 -0.00251022 -0.00643096
H 4.66858214 1.14284994 1.29428092 -0.00715806 0.01992996 0.01247009
H -1.77842179 8.94946451 14.60966183 0.01931409 -0.00853706 0.00523270
H 1.16809891 3.96563708 15.28941060 0.00605637 0.01080691 0.00944650
H 3.87008303 0.60113559 21.09139027 -0.00998105 0.02351569 -0.01137594
H 0.79985008 5.55586267 20.57402290 -0.00928192 -0.01065076 -0.00951508
H 4.16560707 8.47789698 12.15446569 0.00074246 0.02875794 0.02897168
H 2.16484368 3.54412216 17.40078782 0.00187979 -0.00400705 -0.00542131
H -2.05620987 1.24980322 23.17316397 0.01647630 -0.01985845 0.00919052
H -0.09346611 6.01614016 18.46768030 0.00982937 -0.01229149 -0.01149253
H 2.26845177 6.50741446 22.54530100 0.01238933 0.00256023 0.01418860
H 2.22442620 1.86638895 19.18895289 -0.01749685 -0.01089847 -0.01225036
H -0.41913722 3.18811467 13.15342393 -0.00047810 0.01931003 -0.00281727
H -0.13969036 7.80390039 16.62935288 -0.00280561 0.01304918 0.01600480
H 1.27202105 5.83330456 11.51970773 -0.00792088 -0.02725796 0.00439945
H -1.63449715 0.41737497 17.97199326 -0.01304637 0.00424757 0.00204244
H 0.76096333 3.84976394 23.98602759 -0.00016006 -0.01640953 -0.01462656
H 3.73824837 9.08911133 17.80000158 -0.01822776 0.02490298 -0.01093003
H 0.97886800 7.12745776 13.66060599 0.00814121 -0.00205007 0.01933335
H -1.64267196 2.01176813 16.18755240 0.01051498 0.00154089 0.00286398
H 0.91587467 2.23928607 22.24045951 0.03817825 -0.00454166 -0.01939840
H 3.80677132 7.21832006 19.51446670 -0.02051879 0.01458988 0.00687244
H 3.21846835 4.70587016 21.60408986 0.00197798 0.02299351 0.03202844
H 1.05585684 28.89667706 20.27663083 -0.00886084 -0.00291965 0.01579138
H -1.45074392 4.78136753 14.20432479 0.00466236 -0.01029330 -0.00958994
H 0.82968613 9.47895923 15.55531661 -0.02284434 -0.02352252 -0.00944775
H 3.97970937 2.99979519 20.21826966 -0.01084447 -0.00209913 -0.00034928
H 0.87262404 8.71544968 21.76235695 -0.00325826 0.01268137 0.01396386
H 16.58165334 5.54530574 16.54081289 -0.01077420 -0.00187132 -0.00375275
H 3.13882720 1.32435953 13.41634405 -0.02314637 0.00917988 -0.01327786
H -0.87176413 3.27379225 19.66152400 -0.00899929 -0.02089978 0.00069931
H -0.74452262 8.01116383 21.94923248 -0.01443365 -0.01787203 0.03226011
H 3.33039778 5.72564608 16.45486760 0.01280934 -0.00392460 0.00277015
H 1.44301359 1.18058052 14.00357388 0.02132016 0.02218589 -0.00837039
H -2.44608978 4.08679796 19.31270240 0.02316436 -0.01198154 -0.00099257
H -0.45960037 9.63883712 22.43237177 -0.01080731 -0.02504868 -0.00941045
H 4.75731376 6.26015077 15.59884993 -0.01786843 0.01534007 0.04177792
H 2.58217892 2.50236323 14.61485091 -0.00718930 -0.02203695 0.00884176
H -3.34053442 8.85424533 26.30998893 0.05368196 -0.00841509 -0.00097942
H -0.40928696 3.86681489 27.00902979 -0.00763847 0.00100741 0.00945963
H 2.24141332 0.78340716 32.76861619 0.02414288 0.02177749 -0.00883364
H -1.03164121 5.63010660 32.42159375 -0.01409785 -0.01032646 0.01567463
H 2.19115135 7.97777282 24.34958583 -0.03073898 0.01077821 -0.01199670
H 0.71654866 3.46659069 29.49291586 -0.01438832 0.00209657 0.03177977
H -3.11215986 1.61744281 34.65392417 0.01611696 0.02895625 0.01009609
H -2.14406170 6.63065849 30.60865948 -0.00020919 -0.01738438 -0.01769332
H 0.95865737 6.57147042 34.33186210 0.01921757 0.00645036 0.01314274
H 0.60079827 1.90615616 31.33815428 -0.01601257 0.02378931 0.01220449
H -2.15239417 2.89637943 25.11968579 -0.00730198 0.00414193 -0.01590248
H -1.93458296 8.04194889 28.44407551 0.01238963 0.00591021 0.00167464
H -0.64926552 5.09654791 23.76234549 0.01646069 0.00502398 -0.00413142
H -3.20770342 0.42867792 29.96889670 -0.01791301 -0.01453698 -0.00180388
H -0.62775726 4.33212570 35.56739293 -0.01441262 0.00243030 0.00971993
H 2.04476600 8.93785715 29.53894631 0.00004749 0.02190101 -0.01226747
H -0.46563093 6.73364665 25.44853135 0.00460502 -0.02031141 0.00405976
H -3.10274902 1.97827044 28.01026359 -0.00822124 -0.01483496 -0.01919597
H -0.64353038 2.62082695 33.67382547 0.01612071 -0.01016049 -0.01205250
H 1.91118622 7.25448308 31.32573487 0.03165182 -0.00543348 -0.02658691
H 2.06575514 4.67257170 33.31533276 -0.01844433 -0.00898875 0.01397669
H -0.34463940 28.91031863 32.14273668 0.00193121 0.00513168 -0.01757446
H -2.92068674 4.79944843 26.04106454 -0.00962634 0.01006288 0.00213590
H -0.68892205 9.43177381 27.12009215 0.00531994 0.00818006 0.00759590
H 2.79764298 3.61011239 31.55529282 -0.02341651 0.02465447 0.00366315
H -1.16369488 8.72194250 33.55409834 -0.01861217 -0.00043658 -0.00363749
H 15.57669538 7.01870765 27.38682882 -0.00743953 -0.00677915 0.01089236
H 1.13131861 2.11688194 26.73120860 -0.00489717 0.02005222 0.00987768
H -2.54103447 4.01373120 31.11110571 0.01077991 0.00409063 0.00292073
H -2.38173030 7.49531508 32.95418491 -0.00222067 0.00122522 0.00201487
H 3.00893531 6.25533170 27.42518284 -0.00551308 0.00130549 -0.00282529
H 1.80491387 0.79934985 25.60244312 -0.01248599 -0.00047800 0.00414394
H 16.29918841 3.76944600 31.64812683 -0.00204513 -0.00260612 -0.02465595
H -2.90369136 8.80425002 34.07792979 0.02397524 -0.02131604 -0.02084658
H 1.43747643 6.10705844 27.88807988 0.00423321 0.02250148 0.01490785
H 0.06740090 1.01888107 26.03647942 0.01982222 0.00057303 -0.01006800
H -0.02350670 18.49333534 2.92198273 0.00321019 -0.00050978 -0.00512481
H 2.74874032 13.92372828 3.44906365 -0.00384321 0.01737457 0.02478627
H 5.69710079 10.64578565 9.37997407 -0.01497528 0.03617022 -0.00324365
H 2.41705390 15.15694060 8.92333262 0.01112825 0.01526293 -0.00108355
H 5.52162131 17.79242591 0.68025727 -0.01049611 0.00138009 -0.00503617
H 3.77532307 13.29151956 5.45629256 0.00576692 -0.00299186 0.00734722
H -0.24804074 11.24947217 11.22770839 -0.00945782 0.02634475 -0.01449043
H 1.28429266 16.13304525 6.95623446 -0.01444942 0.03709195 0.01033935
H 4.12938829 16.27201043 10.63216303 -0.02259631 -0.02401508 -0.00851236
H 3.82786726 11.86291761 7.24354556 0.01549881 0.00310161 0.01396331
H 1.00529221 12.33967477 1.28095941 0.01880060 0.01153614 0.00342797
H 1.53172701 17.68203982 4.91574162 0.01472821 -0.01675864 0.02397816
H -2.09128450 14.95665447 35.41592132 -0.01909392 -0.01878779 -0.00436118
H -0.17458057 10.33126807 6.03855738 0.03489367 0.00104121 0.00950978
H 2.55723525 13.97775552 12.03540521 -0.01196631 -0.01709344 0.01039669
H 5.50438501 18.48538270 6.09770753 -0.02248369 -0.02223213 0.00246199
H 2.83589233 16.70931207 1.66482948 0.01766552 -0.01118746 0.00865664
H -0.19795501 12.00076125 4.38403311 -0.03707244 -0.01310685 0.00983455
H 2.57592878 12.10678293 10.32103073 -0.01274809 0.01384765 -0.00283458
H 5.46478028 16.84565489 7.71717917 0.00606953 -0.00531256 0.01252621
H 5.05369416 14.18944111 9.94318315 -0.01763313 -0.00237046 0.01748361
H 2.97697620 9.70435484 8.19460631 -0.01662996 -0.01476684 -0.02394998
H 0.27536107 14.16065042 2.19775304 0.01246355 0.01253798 0.01444630
H 2.61504598 19.04161405 3.89526316 -0.03950408 0.00278888 -0.01206127
H 7.84001857 13.32837707 7.75027630 -0.01564225 0.01134533 0.00049070
H 1.45626295 18.66056256 10.93168523 -0.00215484 -0.02057578 -0.01046226
H -0.26809517 15.78368865 3.67886737 0.00258958 -0.02089055 -0.00308410
H 3.72346519 10.13127039 1.32096331 0.02279729 -0.00942367 -0.03393727
H 19.37815838 13.15258318 8.39315666 -0.00086320 -0.01520061 0.00757190
H 2.10941916 17.59498855 9.64222274 0.01534056 -0.00825707 0.00058268
H 5.27261546 15.21298647 4.48750820 -0.00871306 0.00049320 -0.01180054
H 3.69916666 11.61408476 2.38516656 0.01341422 0.00290101 -0.02180993
H 0.12000294 12.23043336 9.07890542 -0.01309624 0.02275342 0.00609970
H 0.31389485 17.67208673 10.07918168 0.00732483 0.02800757 -0.02131416
H 6.66814202 15.63498531 3.41764278 0.00194841 0.00127082 0.01832132
H 5.13120462 11.11636679 1.78343976 0.00231853 0.00810251 0.00898736
H -1.67202478 18.58382099 14.79019404 -0.00361868 0.01432009 0.01931503
H 1.51357478 13.71611416 15.09180672 -0.00023544 -0.01186396 0.02621272
H 3.65996836 9.99101352 21.19897892 0.00007105 -0.00722384 0.02527070
H 0.99664734 15.26612306 20.60035765 -0.00559595 -0.01786299 -0.00204203
H 4.01583145 17.79071403 12.70099702 0.01330916 0.01103856 -0.01259974
H 2.46722082 13.14834420 17.28318232 0.01464312 0.01265683 0.01635291
H -1.82210261 10.77005573 22.60106010 0.00069493 0.01563803 0.00205332
H -0.25854124 16.14004676 18.81739608 -0.01345091 0.00075714 -0.00895409
H 2.47999057 16.06354890 22.58085860 -0.01333152 0.00037717 -0.01073378
H 2.38732491 11.42999290 19.12792475 0.01191279 -0.00709656 0.00164773
H -0.34984738 12.65966758 13.20179758 -0.01105956 -0.00799064 -0.01433330
H -0.17385689 17.72777649 16.78563827 -0.00878893 -0.02188419 0.01837189
H 1.06863327 15.02057653 11.90825783 -0.02163147 0.00311605 -0.02823588
H -1.49687927 10.20282879 17.90033840 -0.00833395 -0.00941832 -0.01684147
H 0.90105878 13.85972371 23.85792543 -0.00301251 0.00629249 -0.00115347
H 3.96447082 18.69558104 17.68617363 -0.00876736 -0.01693290 -0.02611754
H 1.16378324 16.76048182 13.69245476 0.00340305 0.00343659 0.00134966
H -1.43706612 11.94623105 16.09694923 0.00614961 -0.01031868 0.01486823
H 0.78893615 12.24225391 22.02525120 -0.01194333 0.00263944 0.01828529
H 3.87649759 17.23104357 19.68711139 0.00404165 0.00262854 -0.01055985
H 3.62531088 14.85066527 21.30882592 -0.01034616 0.00783121 -0.02268238
H 1.36018183 9.80592567 20.13428276 0.00395152 -0.01155162 -0.01657612
H -1.23347317 14.31422731 14.36001620 0.01113621 0.01420630 0.00548418
H 0.74630451 19.39326412 15.84816735 -0.00508257 -0.00353946 0.00319114
H 5.04523179 12.30171862 20.51155155 0.00158417 -0.01973983 0.00314216
H -0.66019581 18.60106155 22.67477714 -0.00804982 0.00131898 -0.01495431
H 17.05994326 16.55453267 15.76309276 0.01874496 -0.00633657 -0.00682752
H 2.32135954 9.92326965 13.28143087 -0.02814615 0.00063366 0.01951806
H -1.14749988 13.99074012 18.88699703 0.00403526 0.01196469 0.01175613
H 1.11350502 18.55434716 21.95944940 -0.00621672 0.00596904 0.01274576
H 4.70763007 15.07402696 16.40100572 0.00961393 0.00009728 0.00500222
H 2.00095258 11.40747725 14.16420637 -0.00280121 -0.00678522 -0.02210289
H -2.52557685 13.04172964 19.47970850 0.00637394 0.00781498 -0.00986973
H -0.09003449 17.29366166 21.70243199 -0.02255677 0.01391535 0.01193942
H 3.95909048 16.54547117 15.73929127 -0.02352803 0.02554389 0.00988009
H 3.74238859 10.92428771 13.83085549 0.00964887 -0.01847022 0.00382122
H -3.45391111 18.51132801 26.23896471 0.00887988 0.00217306 0.00100905
H -0.41731332 13.70645339 26.70269622 -0.01500534 -0.02054203 0.00534083
H 2.09371064 10.33909546 32.88601113 0.00789869 0.01060178 -0.01843119
H -0.59987900 15.04254937 32.36590493 -0.00257020 -0.01124872 -0.01667838
H 2.50406781 17.78402910 24.40260313 0.01134672 -0.01524452 -0.01642173
H 0.48091433 13.17504360 28.83557461 -0.00001952 0.00541824 0.00619882
H -3.73781166 10.97640418 34.77357401 -0.02390931 -0.00113311 -0.02229172
H -1.86502606 16.20873032 30.61341696 -0.00106643 -0.00444887 -0.02499924
H 1.05479440 16.54451394 34.16495249 -0.00031591 0.00694626 0.01459905
H 0.51401403 11.67017227 30.73763727 0.00039414 -0.00463535 0.01553084
H -1.86553352 12.15074324 24.65277992 0.00748015 -0.02100113 -0.01575113
H -1.79134867 17.88767248 28.55591122 0.00098345 0.00073297 -0.00004425
H -0.56854611 14.84895732 23.50254308 0.00154798 0.02602189 0.00868169
H -3.36458123 10.17906294 29.47128958 -0.00921489 -0.01381053 0.02015667
H 4.03511255 13.78334341 0.12897544 0.00131286 -0.00396239 0.02051391
H 2.18197845 18.66749535 29.43283743 -0.00400409 0.00080463 0.01599483
H -0.56235094 16.41289116 25.34343534 -0.01210127 0.00494149 0.00315089
H -3.10138227 11.43526272 27.34224432 0.01176575 -0.01444981 -0.00238550
H -1.00714145 12.08102667 34.01394394 -0.00328403 -0.02827102 0.00716360