2160
Time=44000.00000003 pbc="T T T" Lattice="20.62563579 0.00000000 0.00000000 0.00000000 28.91205487 0.00000000 -4.73372578 0.00000000 35.63020228" energy=-13803.35179359 virial="-48.32761455 2.08191386 69.57633825 2.08191386 -40.94181704 5.31958478 69.57633825 5.31958478 -56.02258785" stress="0.00007185 0.00009222 0.00331463 0.00009222 0.00033791 0.00025573 0.00331463 0.00025573 -0.00036445" Properties=species:S:1:pos:R:3:vel:R:3
O 0.65001999 8.34966141 2.43090951 -0.00360515 0.00062511 -0.00275593
O 2.10336596 3.36573958 3.30177919 -0.00659664 -0.00052772 0.00350201
O 4.80745675 1.37560075 9.22942055 0.00108428 -0.00357458 0.00459698
O 3.23878067 5.86615724 8.35148708 0.00142081 0.00249928 -0.00137766
O 1.34005340 4.75469571 9.60734766 0.00083712 0.00490261 0.00276781
O -0.15141664 9.40947993 7.94713797 -0.00158102 -0.00727331 -0.00071942
O 4.23529446 4.51678147 2.40543122 0.00499094 -0.00049583 -0.00030045
O 5.81166099 0.13850501 3.93589660 -0.00074953 0.00526670 0.00195639
O -0.96533229 8.38595795 14.35833111 0.00120677 0.00101941 0.00014711
O 0.23608904 4.28175998 15.55585225 0.00033870 0.00416354 0.00702933
O 2.91156484 1.23408790 21.14600974 -0.00264204 -0.00356320 -0.00669788
O 1.97756980 5.53462788 19.77772904 -0.00417500 -0.00288729 -0.00374738
O -0.25875105 5.34978994 21.15178737 -0.00511633 -0.00010858 0.00230144
O -1.82742131 9.76018771 20.07122879 -0.00363493 0.00436779 -0.00302392
O 2.13775805 4.63105055 14.02424531 -0.00411680 -0.00165977 -0.00108711
O 3.85610318 28.51886059 15.59135710 -0.00179323 0.00109746 -0.00551834
O -2.34837537 8.66464473 26.15429886 0.00301304 0.00160359 0.00122397
O -1.01821134 3.70860562 27.40277633 0.00352002 -0.00210178 0.00481097
O 1.55786662 1.08377423 33.00682318 0.00654407 -0.00077422 0.00168886
O 0.28042224 5.75276998 32.28097126 -0.00035842 -0.00022313 0.00310272
O -1.80737408 4.50179880 33.43797744 -0.00000136 0.00426372 0.00312032
O -3.47269902 9.85208380 32.12182310 -0.00538904 -0.00049433 0.00113426
O 1.04508311 4.65240370 26.22852351 -0.00847409 0.00025205 0.00166885
O 2.22671941 0.07908043 27.49082632 -0.00237435 -0.00436665 0.00253830
O 0.74192587 18.36070224 2.23514960 -0.00078818 0.00316146 0.00123960
O 1.70923150 13.35783989 3.42780901 -0.00191799 0.00193026 0.00247955
O 4.59355278 10.88731660 9.29349355 -0.00055504 -0.00692122 -0.00137406
O 3.42793581 15.58840542 8.56500252 0.00277161 -0.00278666 0.00056564
O 1.38550903 14.77351295 9.71162064 0.00109354 0.00351583 0.00096209
O -0.12046987 19.37785801 8.47865393 0.00345038 0.01015767 -0.00032072
O 3.93571271 14.39039350 2.30017295 -0.00357499 -0.00053973 -0.00532914
O 5.66761184 9.51602196 3.78156963 -0.00332707 -0.00814706 -0.00121956
O -0.73567002 18.35407301 14.50861784 -0.00232095 0.00131431 0.00505881
O 0.29942614 13.30997590 15.09425026 0.00450807 0.00510931 0.00365393
O 3.04944042 10.73220825 20.99368120 0.00402907 0.00245950 -0.00003089
O 1.58606955 14.98599370 19.89637051 0.00398619 0.00079713 -0.00354267
O -0.45368130 14.43976013 21.56982303 0.00586825 -0.00330077 -0.00092457
O -1.89325608 19.65115928 20.40099508 0.00661026 0.00139228 -0.00675688
O 2.53988009 14.50727243 14.20344335 -0.00266258 -0.00755366 -0.00270472
O 3.91370682 9.98843766 15.44206989 0.00233080 -0.00201334 -0.00112438
O -2.55810806 18.01785229 26.13093121 0.00462025 0.00130701 0.00566399
O -1.32685289 13.50641593 27.29676189 -0.00083952 0.00433781 -0.00305333
O 1.16689126 10.74788510 33.01514505 0.00234287 0.00257597 -0.00437094
O 0.21754548 15.27992162 32.00799769 -0.00323632 -0.00467966 -0.00254127
O -1.78375900 14.33997850 33.27370919 0.00153669 -0.00390256 -0.00243543
O -3.52435530 19.25405692 31.85363344 0.00435770 -0.00155973 -0.00529024
O 0.71496055 14.21340552 25.75221517 -0.00149967 -0.00235891 -0.00174557
O 2.32715403 9.18184798 27.45505414 -0.01080197 -0.00559722 0.00299714
O 1.01203152 28.07343431 2.11027941 0.00408561 0.00192904 -0.00117244
O 2.18048598 22.99500276 3.40412448 -0.00184046 -0.00195563 0.00141056
O 4.85327937 20.36863209 9.08045288 -0.00027520 0.00474309 -0.00366762
O 3.51671875 25.08728343 8.47909327 -0.00337891 0.00417898 -0.00080280
O 1.35669477 24.15378376 9.83605380 0.00251690 0.00148453 0.00558776
O -0.13587096 28.88584318 8.28885480 0.00488360 0.00150201 -0.00190997
O 4.01592319 23.90083335 1.96845918 -0.00099511 0.00196275 0.00025509
O 5.44529153 19.28948131 3.88809099 0.00140103 0.00456934 0.00054931
O -1.10081219 27.48366756 14.57770329 0.00332488 -0.00345202 0.00254410
O 0.17759368 22.42555056 15.18762778 0.00537229 0.00153417 -0.00337106
O 3.11791406 20.30415537 21.36751273 -0.00299189 0.00185637 -0.00227987
O 1.56697026 25.33951394 20.40696853 0.00081809 -0.00102112 0.00336513
O -0.32188195 24.11891070 21.53898397 0.00035674 0.00136207 0.00225477
O -1.75867188 0.48640291 20.14379518 0.00248821 0.00071700 -0.00687592
O 2.29694090 23.56126426 14.13346088 0.00172514 -0.00117157 -0.00197773
O 4.04612916 19.23077611 15.75074406 0.00514034 -0.00078700 0.00237291
O -2.41026562 27.89168319 26.16516495 -0.00130925 0.00405623 -0.00086919
O -1.14124306 22.92164190 27.17606993 -0.00429092 0.00259979 -0.00176568
O 1.62793969 20.31839859 32.88816255 -0.00029508 -0.00368801 -0.00335542
O 0.18791645 25.05237687 32.09448824 -0.00327974 0.00246816 0.00334617
O -1.76709210 23.82721704 33.39313092 0.00021058 -0.00039508 -0.00051749
O -3.23168391 0.06872227 32.00058721 0.00518991 -0.00390864 -0.00008841
O 0.51218625 24.19569676 25.88633320 -0.00769602 -0.00064133 -0.00539988
O 2.06271686 19.43422943 27.44805242 -0.00426643 -0.00677658 0.00554740
O 7.74064696 8.43433225 2.70906553 0.00063414 0.00220284 -0.00756777
O 8.99508880 3.69711904 3.20337046 -0.00689955 0.00232990 0.00454362
O 11.25894578 1.33071165 9.34311165 0.00310551 -0.00437551 0.00053854
O 10.13676298 6.05970926 8.82746436 -0.00381591 0.00068084 0.00072099
O 7.98052110 5.02615931 9.96940501 -0.00520099 0.00115982 0.00547130
O 6.58643968 9.49296862 8.21351170 -0.00281797 0.00352385 0.00110029
O 11.09366856 4.86265553 2.34315081 0.00369530 0.00239217 -0.00671598
O 12.76420999 0.01242672 3.54815446 0.00400728 0.00209507 -0.00156464
O 5.85834342 8.49353245 14.70266335 0.00337191 -0.00593709 -0.00483569
O 7.10314786 3.60256060 15.27243725 -0.00360447 -0.00659774 0.00396090
O 9.95027123 1.07784586 21.03572344 0.00173623 -0.00435026 0.00309502
O 8.63739572 6.10046574 20.29933648 -0.00492188 0.00296069 0.00140843
O 6.69220642 4.93171084 21.53419062 0.00227959 0.00683718 -0.00163053
O 5.27194788 9.39694149 20.03751187 0.00226986 0.00218799 0.00110590
O 9.44215249 4.55741732 14.43009491 0.00136254 0.00189216 0.00046095
O 10.72441628 28.75009234 15.45960506 0.00262364 0.00164198 0.00604807
O 4.47003819 8.52060518 26.06420279 -0.00218695 0.00354136 0.00307019
O 5.72883925 3.91497705 27.51027443 0.00615963 -0.00068161 -0.00201633
O 8.35614854 1.21361612 33.31611214 -0.00098630 0.00069973 0.00038721
O 7.04635518 5.92064608 31.93945487 -0.00136644 -0.00576408 -0.00668440
O 5.15901410 4.93467358 33.39728823 -0.00141917 0.00334344 -0.00166959
O 3.21009027 9.57811046 31.58847376 -0.00199806 -0.00116099 0.00064415
O 7.86084755 4.55748457 25.94627554 -0.00079181 -0.00248327 -0.00288587
O 9.30108107 28.79417470 27.18722752 0.00032614 -0.00236600 0.00057682
O 7.49813877 18.12209955 2.32393010 0.00006678 0.00326274 -0.00286250
O 8.71461379 13.24033095 3.49768920 0.00204994 0.00168060 -0.00436310
O 11.43375030 10.79151292 9.41561247 -0.00049997 0.00075250 -0.00037337
O 10.36204761 15.77056703 8.46873475 0.00244465 -0.00110714 0.00020102
O 8.17611022 14.68959198 9.52901274 -0.00042134 0.00102043 0.00324181
O 6.83980763 19.06593127 8.03158619 -0.00169358 -0.00102283 0.00388608
O 10.81030039 14.27778719 2.32797219 0.00052790 0.00022227 -0.00304874
O 12.38170533 9.57901894 3.82410356 0.00402930 0.00425372 -0.00016051
O 5.80522451 17.97181943 14.68484807 0.00177101 -0.00158617 -0.00089086
O 7.18446805 13.42441713 15.51218603 0.00378486 -0.00134352 -0.00083032
O 9.83774772 10.71463559 21.39980091 -0.00496305 0.00311952 -0.00170228
O 8.59432983 15.41886850 20.16612552 -0.00540235 0.00183530 0.00152303
O 6.32359845 14.84078181 21.39429366 -0.00363799 0.00240595 -0.00512525
O 5.03827124 19.27014529 19.77106311 0.00478479 -0.00143201 -0.00129135
O 9.20927518 14.00948639 14.23423449 -0.00074496 0.00747879 0.00002960
O 10.75271766 9.57501472 15.42123275 -0.00200477 -0.00214110 0.00288670
O 4.20231930 18.20676208 26.25873896 -0.00157183 0.00118554 0.00011210
O 5.46176066 13.63895958 27.23228494 0.00493360 0.00177543 -0.00274475
O 7.91900096 10.74258204 33.17535074 -0.00444955 0.00400006 -0.00303156
O 6.85553323 15.85330099 32.42612608 -0.00356572 0.00235290 -0.00107613
O 5.04378241 14.38633520 33.45510823 -0.00177560 -0.00312366 0.00759654
O 3.74948514 19.02629122 32.20587990 0.00173449 -0.00185305 0.00404509
O 7.89886662 14.03620550 26.31719198 -0.00068253 -0.00204587 0.00358931
O 9.28090079 9.52514397 27.33856187 0.00206055 -0.00049130 0.00018504
O 7.70524398 28.00148862 2.15428540 0.00371542 -0.00001940 0.00588637
O 8.87012506 23.06088127 3.41401493 -0.00458567 0.00373441 -0.00443904
O 11.48733649 20.25087919 9.73135663 0.00211878 -0.00108670 -0.00231010
O 10.40021087 25.08751322 8.01334055 -0.00219508 -0.00700587 -0.00586452
O 8.17589181 24.65289895 9.26067442 0.00089838 -0.00024650 0.00309930
O 6.75293901 0.25590280 8.10720323 0.00205648 0.00334329 -0.00756279
O 10.91480483 24.34874085 2.21491904 -0.00065258 -0.00365195 -0.00315092
O 12.20439888 18.91991643 3.34308372 -0.00486506 0.00256395 0.00295402
O 5.91516885 27.78819125 14.13288309 0.00266124 -0.00349040 -0.00282318
O 7.28326625 23.09393338 15.25145150 0.00483240 -0.00130462 0.00280149
O 9.70637322 20.26500550 21.54243827 -0.00032948 -0.00527282 0.00188816
O 8.69466108 25.21385228 20.27368137 0.00092072 0.00351199 -0.00591172
O 6.51581195 24.31230184 21.66481955 0.00681606 0.00483471 0.00412149
O 5.17289781 0.13904862 20.16357431 0.00872347 0.00032759 0.00391929
O 9.21672842 24.37766378 13.92362163 -0.00022809 -0.00084917 0.00821298
O 10.68999939 19.09204147 15.40807179 -0.00216439 -0.00089979 -0.00333385
O 4.31334567 28.11585842 26.20801982 -0.00489219 0.00200085 -0.00250896
O 5.48036615 23.02183171 27.52887010 -0.00041826 0.00108225 0.00285878
O 8.37767555 20.41762217 33.32374503 -0.00455248 -0.00033308 0.00348012
O 7.39623144 25.48107786 32.20853909 -0.00279813 0.00309942 0.00257679
O 4.87455243 24.22388070 33.25557297 -0.00159465 0.00509009 -0.00261427
O 3.69093897 28.86336198 31.86439143 0.00210952 0.00048195 -0.00085789
O 7.35076506 24.19291128 26.04477939 0.00668406 -0.00179292 0.00467273
O 9.09484602 19.03916438 27.30680123 -0.00005617 0.00067724 0.00064206
O 14.46626331 8.52996845 2.61369114 -0.00177341 -0.00302893 -0.00176013
O 15.98123234 3.87797655 3.92664776 -0.00220272 -0.00213317 -0.00155191
O 18.35511627 0.82188155 9.59433271 0.00071333 -0.00168211 0.00011157
O 17.17996441 6.11887632 8.58231240 -0.00060408 0.00704510 0.00348162
O 15.07134211 4.86935325 9.90883633 -0.00364733 -0.00488006 0.00409799
O 13.54042922 9.78422023 8.34971424 0.00284905 -0.00002204 -0.00185407
O 18.14745708 4.21481625 2.52638293 -0.00479436 0.00135849 0.00493335
O 19.61267071 28.65223517 3.66115800 -0.00627269 0.00095534 0.00004368
O 12.82661266 8.60524097 14.28603023 -0.00503132 -0.00218604 -0.00879706
O 14.06084362 3.70581991 15.43984392 -0.00054579 -0.00546084 0.00004749
O 16.77164954 1.13421261 21.46308502 0.00083385 -0.00213707 0.00150582
O 15.54603763 5.87656655 20.11023756 0.00088952 -0.00055667 -0.00633847
O 13.51123769 4.79427508 21.43302794 0.00270284 -0.00093731 -0.00163225
O 11.80052333 9.60165882 20.17391617 0.00372304 0.00042777 -0.00283452
O 15.93836095 4.52898221 13.96674862 -0.00350248 0.00571615 0.00560163
O 17.62689928 0.03363978 15.51764882 0.00469542 0.00070066 -0.00610894
O 11.49908299 8.70906290 26.04957611 0.00380547 -0.00360732 0.00335748
O 12.72317777 3.81724832 27.14464391 -0.00088108 0.00595536 0.00118741
O 15.36465600 1.23041869 33.14134137 0.00190149 0.00396947 0.00060736
O 13.98138374 5.99735768 31.98325508 -0.00003640 -0.00278910 -0.00450894
O 12.05051770 5.06277621 33.38186046 0.00290771 0.00398667 0.00524523
O 10.13965252 9.83119191 31.79152447 -0.00679183 0.00118326 -0.00032866
O 14.93682713 5.10502480 26.48015296 0.00193896 0.00087295 -0.00368583
O 16.26358504 0.13115077 27.54634314 0.00836097 -0.00050324 -0.00621313
O 14.51253588 18.08461726 2.58892628 -0.00014472 0.00042287 -0.00535964
O 15.74703404 13.04327653 3.22577724 -0.00482899 -0.01010912 -0.00448399
O 18.53630304 10.85953621 9.42688323 0.00032171 0.00358040 0.00058253
O 17.25641936 15.65040351 8.56444302 -0.00188876 -0.00120691 0.00013337
O 15.16636256 14.48248599 9.82884114 0.00521724 -0.00060045 -0.00330077
O 13.52392702 19.40730992 8.44266275 -0.00244433 0.00115901 -0.00156383
O 17.71556541 14.34403542 2.25932776 0.00184325 0.00080325 0.00049553
O 19.38067290 9.57880837 3.72725717 -0.00620312 -0.00304385 -0.00238510
O 12.76451788 17.95196618 14.46712055 0.00413311 -0.00135588 -0.00045868
O 14.11933270 13.40028087 15.82392422 -0.00167166 0.00295839 0.00175511
O 16.75013933 10.89261215 21.26639537 -0.00140919 0.00885430 -0.00379673
O 15.07311621 15.76954286 20.45556631 -0.00378790 0.00248438 -0.00025408
O 13.36944906 14.16978823 21.51689080 -0.00044323 -0.00566272 0.00412026
O 11.64468339 19.57672154 20.09058694 -0.00405651 0.00094043 -0.00714881
O 15.99147806 14.23328941 14.28515438 0.00146788 0.00174247 0.00431096
O 17.42198769 9.60420446 15.36162335 0.00267029 -0.00104959 0.00638569
O 11.24008476 18.06076191 26.11392912 -0.00466581 -0.00839575 -0.00118305
O 12.39117537 13.50665207 27.03071374 -0.00166626 -0.01011797 0.00765073
O 15.08971065 10.90793207 33.25150575 0.00014916 0.00203749 -0.00460915
O 13.71430817 15.76254918 31.94484529 -0.00939134 -0.00401377 0.00502161
O 11.80581088 14.68455730 33.34015604 -0.00271532 0.00403366 0.00192653
O 10.21907252 19.32464395 31.95996939 0.00261418 -0.00097091 -0.00209940
O 14.44178113 14.60313359 25.90185094 0.00141834 -0.00413957 0.00755617
O 16.10397470 9.63172059 27.23175880 -0.00025654 0.00130321 0.00234284
O 14.75969558 27.89852650 2.33862534 -0.00011046 0.00617820 -0.00259950
O 15.75828172 22.68964535 3.15115470 -0.00996936 -0.00322083 0.00374354
O 18.26103768 20.36352232 9.26326233 0.00035142 -0.00072414 0.00083330
O 17.29481823 24.71878729 8.13901630 0.00557237 0.00292550 -0.00624293
O 15.02804457 24.28838603 9.44225334 0.00789557 -0.00388893 -0.00336185
O 13.44220410 0.24470218 8.35599976 -0.00080100 -0.00104767 -0.00906992
O 17.98549355 23.87912787 2.35032225 0.00241793 0.00082173 0.00472007
O 19.37912461 19.31207057 3.62386977 -0.00219815 -0.00430356 -0.00490944
O 12.94976524 27.78437528 14.38375035 0.00307709 0.00125416 0.00275898
O 14.13363616 22.96568701 15.28789403 -0.00229946 0.00479039 0.00094871
O 16.41878215 20.22521737 21.53845009 -0.00026996 0.00758654 -0.00118947
O 15.73707293 25.10744889 20.13333354 -0.00163910 0.00109591 -0.00657266
O 13.73488996 24.22103151 21.36809710 0.00014790 -0.00115264 -0.00283131
O 11.99569499 28.66805578 19.98616259 -0.00459865 -0.00071129 0.00200601
O 16.25922244 24.21426489 14.01424901 -0.00254710 -0.00315072 -0.00325661
O 17.62612758 18.98775018 15.54635599 0.00569099 0.00174216 -0.00473373
O 11.46285142 27.94042697 26.01515323 0.00192089 -0.00354707 -0.00407317
O 12.45739910 22.94651314 27.03777092 0.00044908 0.00404442 0.00442874
O 15.09504356 20.40026245 33.16881923 -0.00143545 -0.00344659 -0.00280713
O 14.07863959 25.13778756 31.94718050 0.00105460 -0.00455272 -0.00338621
O 11.93978754 24.10055178 33.28979731 0.00326007 0.00217391 -0.00069183
O 10.55230218 0.11266402 31.82375738 -0.00206884 0.00631477 0.00504624
O 14.61340461 24.24071911 26.15846263 -0.00284336 0.00196938 0.00763060
O 15.97498548 19.25402687 27.31661249 -0.00039488 0.00388890 0.00020655
H -0.20839063 8.85612950 2.59064360 0.00972268 -0.00154347 -0.00966059
H 2.94772842 3.85597369 3.07457889 -0.01972850 -0.01099503 -0.02527009
H 5.58640312 0.85954585 9.11958315 -0.01273533 -0.00182261 -0.01351731
H 2.33536830 5.54327555 8.74296687 0.00453288 0.00900664 0.02135347
H 5.82621445 8.40662517 0.93040364 -0.00051636 0.02232625 -0.00578348
H 3.85494093 3.41726866 5.32613481 0.00365558 0.01881180 0.00689690
H -0.41452618 1.32951917 11.25793176 -0.03327131 0.00616414 0.00245188
H 1.33202842 6.10098184 6.64985746 0.01335199 -0.00199496 0.00859357
H 3.87339478 6.76987846 11.03510836 -0.00424067 0.00465800 -0.00097429
H 3.81002464 1.77395599 7.29398581 -0.00774387 -0.00219069 0.00543398
H 1.71660269 3.19405612 0.82288508 -0.02442558 -0.00616570 0.02377698
H 1.49341178 7.43814698 4.50017843 0.00056930 0.00336568 0.01638191
H -1.98187879 5.41692535 35.36002802 0.00387421 -0.01553841 0.00595176
H 0.23689389 0.10131946 5.97938758 0.01384649 0.00584474 0.00693896
H 2.36316746 3.89615687 12.13754917 -0.03809000 0.00760839 -0.00666314
H 5.25855226 8.99660729 5.90531223 -0.00021628 -0.01703863 -0.00524895
H 2.73231517 6.94963259 1.70409031 -0.00883354 -0.00331305 -0.00095629
H 0.07107638 1.89563818 4.03766556 0.00169961 -0.00111327 -0.00905132
H 2.51632846 2.54353152 10.26087149 0.00093608 -0.03298656 -0.00988538
H 5.30216711 7.11992133 7.62084758 0.01180508 -0.00485549 0.03920221
H 4.70858392 4.96974676 9.84063280 -0.02128906 0.00254497 0.02269810
H 3.05229456 28.74979849 8.06564796 0.00285639 0.01464227 -0.02195677
H 0.60205707 4.40481858 2.53204463 0.03703229 0.00432210 0.00392882
H 2.54583400 9.40591249 3.51506092 0.01782180 0.01162025 0.02777209
H 7.10209640 4.29560227 7.56065195 -0.00675633 0.00793829 -0.02120705
H 1.11247902 9.47998476 10.40166439 0.00026287 -0.00247041 -0.00191707
H 19.38230282 5.20065468 4.77368828 -0.03440249 0.00898297 0.00121410
H 4.19825788 0.69677724 1.56473243 -0.00187518 0.00177623 -0.02140861
H 19.43028779 3.01165175 8.12556361 -0.00892931 -0.01196510 0.00072960
H 2.25475667 8.30150667 9.81019943 0.00848049 -0.00658360 0.00092701
H 5.26809201 5.13001126 4.75002121 -0.01362110 -0.00815058 0.02312805
H 3.07745833 1.49264815 2.57600013 -0.00174316 -0.01517821 0.01200756
H 0.52134654 2.48254351 8.38617155 0.03294318 -0.00717707 0.01497443
H 0.53959849 7.85678669 9.96030261 -0.04203710 0.00854854 0.00667653
H 6.83991866 5.62531720 3.90020426 0.01955739 -0.02461302 0.00186012
H 4.81071911 2.07258526 2.40012947 0.01158105 0.01720274 0.00278043
H -1.85441011 8.95681570 14.33519152 0.03468503 -0.01123995 -0.01413926
H 0.96145423 4.39759285 14.91180745 0.03343826 -0.00872584 0.00825766
H 3.75104906 0.93715541 20.75188512 0.01063718 0.00649435 0.00589992
H 1.15278499 5.45348537 20.32433087 0.01315856 0.00582344 -0.00706253
H 3.88581946 8.07005169 13.05153564 0.01590827 0.01140932 0.01863536
H 2.43399901 3.45714593 17.07783856 0.00059736 -0.00166054 0.01806347
H -1.89121751 1.59949295 22.91295188 -0.00305086 0.00154093 -0.00260774
H -0.07384365 5.92861655 18.37373543 -0.01416982 0.00830776 -0.02145224
H 2.54928827 6.39352600 22.59400978 0.01283027 0.00946671 -0.00964088
H 2.37338170 1.77438751 18.72769223 -0.00009513 -0.00846040 -0.01231105
H -0.40563065 3.09959121 12.99253987 -0.00869415 0.00438617 -0.02608655
H -0.37171886 7.74550948 16.65054035 -0.00084114 0.01941067 -0.01857233
H 1.19464158 5.43122439 11.72161052 0.00861691 -0.03430520 0.00717544
H -1.63385582 0.86179819 17.84263286 0.00024408 -0.00585883 0.00391636
H 1.07433473 4.00693664 24.12451472 -0.00239187 0.00713339 0.02195500
H 3.73491997 9.02971075 17.54320016 0.01439248 0.00429536 0.01176179
H 1.11692223 6.98229308 13.67299179 -0.00171751 -0.00684975 -0.03136376
H -1.76366903 2.68301165 16.19788985 -0.00867559 0.02093672 -0.00556422
H 0.96992600 2.54389957 21.96951068 -0.02375594 0.00028691 0.01198281
H 3.74141208 7.26623086 19.37534836 0.00392586 0.00554446 -0.01923998
H 3.51799037 4.72364034 21.36061817 -0.00510643 0.01246581 -0.00767340
H 1.34275078 0.04672564 19.64385007 -0.01279310 0.01000929 0.03172918
H -1.61645859 4.80060215 14.05034487 -0.01920635 0.01342992 0.04825249
H 0.69803026 9.57265479 15.47607746 -0.00030517 -0.00227293 -0.01067699
H 5.58657041 2.62910374 20.13697202 0.00510208 -0.01026079 -0.02058457
H 0.02773230 9.35172111 22.26364210 0.00697075 0.01451467 0.01249787
H 18.17611047 6.32836458 15.50293572 0.00183410 -0.02368687 -0.01015630
H 2.38760743 1.88932896 14.53648053 -0.00179389 -0.01529490 -0.01002057
H -1.98281916 4.36221000 19.00638518 0.00530425 0.00010260 0.00145293
H 0.27773201 7.78226542 21.41181507 -0.00496910 0.02447306 0.00692488
H 4.41915401 5.51771804 15.93873297 -0.00645162 0.01496808 0.00853269
H 3.48772380 0.78442850 13.47757330 -0.00775935 -0.01705014 0.01701816
H -2.38373738 3.18896405 20.28229275 -0.01008323 -0.02269040 0.01209894
H -1.37967657 8.36301027 21.93792535 0.01586668 0.01475433 0.01030220
H 3.61877868 6.97529883 15.19592228 0.01351639 -0.01729429 -0.00023899
H 1.58800739 0.69123923 13.63303521 -0.01007824 -0.00569384 -0.00253408
H -3.16552373 9.10171173 26.48890193 -0.00648526 -0.00208483 -0.01039436
H -0.20817459 4.17185489 27.07659139 -0.00247723 0.01731324 -0.01381481
H 2.36187774 0.59781134 32.60123525 -0.02651216 -0.00485026 -0.00811784
H -0.57990638 5.49031231 32.59986649 -0.00988489 0.00728186 -0.00025110
H 2.61986916 8.31947039 24.23103270 0.01825346 -0.02218108 -0.00168246
H 0.98959942 3.34170528 28.91576301 -0.00549973 -0.00467656 0.00359349
H -3.26126485 1.63864884 34.52226694 0.02246168 -0.03254291 -0.00260302
H -1.86085843 6.25279440 30.73008204 0.00693845 0.01284590 -0.00128655
H 1.15051080 7.10620186 34.55310692 -0.00496746 -0.00788098 -0.01214989
H 0.96498543 1.94169134 31.03087507 0.00728178 -0.00830706 -0.00189980
H -1.72460507 3.03634535 24.89547588 -0.01585740 -0.01572621 0.02281109
H -1.76676857 7.43759002 28.58106708 -0.03131817 0.00310287 0.03176921
H -0.25142680 5.55071890 23.38935975 0.00022684 0.00824785 -0.01694264
H -2.92291118 0.71601223 30.21040592 -0.00524652 -0.02136557 0.00048207
H 4.43168506 4.11216569 0.09079423 -0.00762113 0.01318167 -0.01088840
H 2.21938355 8.67294906 29.48729894 -0.00465602 -0.01670782 -0.00603090
H -0.21977318 7.16780316 25.32234900 0.00613571 0.00164875 -0.00980110
H -3.01592756 2.31502225 28.12907444 -0.01573095 -0.00234546 -0.00113846
H -0.32024929 2.73289091 33.72220441 -0.01138828 -0.01104498 0.00082489
H 2.17519423 7.41043179 31.61746788 -0.00301221 0.00849072 0.00505249
H 1.98620778 5.38856757 33.51902125 0.02169232 0.01837115 -0.00106488
H -0.07623662 0.36647346 32.31983227 -0.00763587 0.00905406 0.02303895
H -2.53572093 4.89925729 26.00333075 0.02433331 0.00511729 -0.00652687
H -0.81996474 9.42962855 27.62004760 -0.01124420 -0.01071177 -0.02303652
H 3.81267784 2.81966166 32.08135726 0.01604256 -0.01057711 0.00111789
H -2.02049194 9.01472481 34.40051706 0.01416858 -0.02066529 0.02144745
H 16.32402074 7.07231662 27.70847823 0.00312136 0.01047941 -0.00044724
H -0.50567944 0.97795537 26.06328230 -0.00493763 0.01770701 -0.00138569
H -2.48973609 4.12025774 30.96786608 -0.00726286 -0.01800532 -0.01662376
H -1.12872615 7.97676404 33.26389213 0.01382927 -0.01440630 0.02632085
H 2.18256519 5.75545805 28.37258702 0.00919557 -0.02429325 0.02609199
H 0.73629962 2.04552946 26.00611155 0.01880004 0.00341074 -0.00255020
H 16.39254600 4.02498329 31.31213713 -0.00869401 0.02181857 0.02857172
H -2.91310730 7.80321009 33.41959301 0.00169374 -0.01451464 -0.01734641
H 3.72390802 6.06675478 27.61479903 0.03028796 0.00527248 0.00726212
H 1.03924086 0.57876411 25.10817859 0.00797219 -0.01789714 -0.00366624
H -0.09187069 18.71231964 2.71851617 0.02632487 0.00401240 0.01023207
H 2.61656959 13.70678722 3.14290813 0.00268160 0.01946082 0.00187492
H 5.34655774 10.16464039 9.09416181 0.00855566 0.01660520 0.01160509
H 2.58632159 15.35125420 8.97760556 0.00334016 -0.00108334 -0.00313102
H 5.76971057 17.87706702 0.38801531 0.02469085 -0.00482520 0.00697164
H 3.76010187 12.85983653 5.00005789 -0.00145480 0.01632831 0.00206859
H -0.31729043 11.12703526 11.19915529 0.00867294 0.00572172 -0.00686906
H 1.44831007 15.63124999 6.89050902 0.00672992 0.02019942 0.02194060
H 4.13350432 16.73300251 10.59751746 -0.00361524 0.01181753 0.00317804
H 3.91486454 11.34937780 6.83741303 0.00988672 -0.00823900 0.01613633
H 1.15508375 12.91901957 1.22176953 0.00048197 -0.00345785 -0.02567185
H 1.38326514 17.06256806 4.82916627 -0.02063000 0.00251476 0.01029250
H -1.95221172 15.21430786 35.40161053 -0.01679744 -0.03271975 -0.00625893
H -0.11303575 10.01617872 5.93761083 -0.00793723 0.02824994 0.02016383
H 2.73854850 14.08598976 11.90451633 -0.01325731 -0.01267890 0.02745879
H 5.35310487 18.51690012 5.73159480 -0.04035000 0.00699428 -0.00625419
H 2.90268339 16.99318885 1.26891881 -0.02238660 -0.03518873 0.02012076
H -0.18802930 11.61331496 4.06306809 -0.01710121 0.03052428 0.02172040
H 2.53030852 12.50049060 10.04018581 0.00143166 0.01172060 0.01285565
H 5.42873415 16.96333316 7.59540237 0.01281579 -0.02570238 0.01499191
H 4.97672596 14.84732667 9.67300987 -0.00456182 -0.02882995 0.00779290
H 3.01781889 9.72716601 7.93821648 0.02935559 -0.00553561 0.01510613
H 0.23652465 14.84205382 2.04450436 0.00678055 -0.00159624 -0.00266019
H 2.29667944 18.88587099 3.52394483 -0.01232865 -0.00036800 -0.00849225
H 7.11249564 12.20501503 8.70100021 -0.02927297 0.00338772 -0.01009363
H 0.99849654 18.34710965 10.63538246 0.00257242 0.00808962 0.00884680
H 19.94710781 14.94102978 4.37486002 0.01200491 -0.02381645 0.00096620
H 4.58405779 10.51597073 1.32903058 0.00185971 -0.00978206 -0.01810061
H 19.33024639 13.11698485 8.69026257 0.01059985 -0.03388096 0.01085080
H 2.54747154 17.92299681 9.58709431 0.01554906 0.00192434 -0.00639045
H 6.62177336 15.51014209 3.75710789 0.00463541 -0.00097541 -0.01923452
H 3.15662943 11.19345819 2.47658181 0.01522862 -0.03039315 0.02090542
H 0.22948037 12.30683903 8.55377540 -0.01890566 0.00079177 -0.00618810
H 1.06393635 17.11023733 9.35345848 0.00384122 0.00250947 0.00136814
H 5.28063133 16.50946148 3.26516161 0.00424199 0.00246786 0.00037830
H 4.90101669 11.61602035 2.62454572 -0.01144341 0.00172377 0.01416696
H -1.55723671 18.63412756 15.01586782 -0.02504373 -0.03195701 0.00329735
H 1.13184040 13.86166297 14.96456769 0.00326994 -0.00145607 -0.01992107
H 3.87079481 10.15811142 20.79454060 0.01951809 -0.02003714 -0.00800716
H 0.73492151 14.82549541 20.41272161 0.00135629 -0.00157951 -0.01313661
H 3.85057727 17.63018780 12.83094760 0.00711727 0.00262399 -0.00179748
H 2.25037990 12.90225136 16.82402907 0.01005971 0.00008166 0.00331326
H -1.85382227 11.21603050 23.06807826 0.01710364 -0.00947797 -0.02412576
H -0.45579068 15.84949408 18.35093355 -0.02760601 0.00439193 -0.01272784
H 2.21154230 16.33482108 22.58610562 -0.01468094 0.01070537 -0.00303862
H 2.29382234 11.35528975 18.72468643 -0.00934407 -0.01007358 -0.02630667
H -0.51942382 12.30771407 13.30826066 -0.00514165 0.00454608 0.00215198
H -0.25220400 17.30100615 16.56314558 0.00846187 -0.01195288 -0.00532805
H 1.15062033 14.97246769 12.12817482 0.00774637 0.00629283 -0.01348028
H -1.74615742 10.17352065 17.74290900 -0.00822820 -0.01481890 -0.02992442
H 0.98693499 13.75738613 23.70587760 -0.00718622 -0.01162406 0.00335998
H 3.75545674 18.40878156 17.84798275 -0.00054926 0.01582345 0.00972057
H 1.16091067 16.59750472 14.02434510 0.01473257 -0.01559090 0.02467598
H -1.74699788 11.85348159 15.90986462 -0.03174101 -0.01429204 0.01046562
H 1.01126430 12.24637948 21.77520069 0.00074973 0.00538349 -0.00343836
H 3.58974099 16.81046918 19.52558555 0.00664170 -0.00444332 0.01421512
H 3.24365713 14.48972577 21.40427808 -0.01359070 -0.01332582 -0.00577799
H 1.27773484 9.55896204 19.66426015 -0.00072354 -0.00056711 -0.01205167
H -1.57615193 14.32745249 14.26536271 0.00279043 0.00976109 -0.00042467
H 0.85247253 19.00949873 15.44523232 0.01736512 0.02189908 -0.02957964
H 5.55231836 12.26477364 20.71905396 -0.02022257 -0.00263429 -0.02502648
H -0.14117613 17.29065015 21.19573136 0.01278781 0.00604019 -0.00264809
H 17.73416167 15.05789369 16.59391008 -0.01545351 0.00355244 0.02322656
H 2.78710876 10.59521465 13.09999851 -0.00133923 -0.00261823 0.01371739
H 17.89798459 13.03426808 19.65734256 0.01128971 0.01409395 -0.02204520
H -1.28785710 18.05227840 22.25120392 0.00926019 0.00894055 0.02575412
H 3.85913655 16.57895199 15.52440026 -0.01403484 -0.00257017 0.02552175
H 1.11481558 10.68933617 13.90426246 -0.02489903 -0.01853913 0.02237709
H -0.97235414 12.96321802 19.59211486 -0.00025725 0.01017093 -0.01530872
H 0.50340641 18.64679136 22.22781687 -0.00754175 -0.01272643 -0.03168302
H 3.71047676 15.20578248 16.65045292 -0.03124260 0.01378419 -0.00632702
H 2.32404789 11.88809364 14.15655388 0.00366311 0.02614940 -0.00617393
H -3.33819679 18.55712063 26.47939423 -0.01978237 0.00506441 0.00728953
H -0.44809755 13.67567657 26.78043829 0.00427976 -0.00791020 -0.03044381
H 2.00597104 10.30435658 32.66281813 0.00768456 0.00497830 0.00889873
H -0.69069329 15.01973537 32.30627974 0.00524855 -0.00601251 -0.00332355
H 2.02787636 17.63159250 24.75282676 0.01690659 -0.01602815 -0.03086103
H 0.70299576 12.65215547 28.62783034 0.01767281 -0.00278865 -0.00619202
H -3.65086587 11.10969444 35.11120779 -0.00191791 0.03205994 0.00291861
H -1.83274872 15.81351325 30.53075963 -0.00524587 0.01690011 0.01704520
H 1.01491223 16.07725441 34.22263672 -0.01088138 0.02080035 -0.00573155
H 0.58631058 11.29078236 30.65325191 -0.00402310 0.02762012 -0.00071864
H -2.00530159 12.83876036 25.05840307 -0.02811929 -0.01236728 -0.02150556
H -1.98026681 17.21935897 28.58481138 -0.00382410 -0.00198878 0.00894962
H -0.59258508 15.03810378 23.48974680 0.02794015 0.00062839 0.00808716
H -3.42521659 10.36712787 29.90803154 -0.01160593 0.00743129 -0.00808786
H -0.44592118 14.19027930 35.59642446 0.00057599 0.01678705 0.00204975
H 1.89047604 18.73156115 29.70219780 -0.01303725 0.00102350 -0.01837544
H -0.68168947 16.44593461 25.40190528 0.00894082 0.03007680 -0.00270822
H -3.60427406 12.23554396 28.27519426 -0.00009092 0.00543197 -0.02474726
H -0.76753763 12.42803190 33.81452596 -0.01989099 0.00148004 -0.00928381