2160
Time=99999.99999996 pbc="T T T" Lattice="20.62595180 0.00000000 0.00000000 0.00000000 29.13682701 0.00000000 -4.72483986 0.00000000 35.49656125" energy=-13800.33148432 virial="-37.71934835 -17.04070794 50.41025036 -17.04070794 -67.23188594 11.72421162 50.41025036 11.72421162 -93.33105934" stress="0.00064812 -0.00072376 0.00243406 -0.00072376 -0.00075745 0.00053166 0.00243406 0.00053166 -0.00204976" Properties=species:S:1:pos:R:3:vel:R:3
O 0.56767462 8.37467024 2.37168914 -0.00368662 0.00274649 0.00079949
O 1.96067056 3.88363337 3.65202802 -0.00788199 -0.00169772 -0.00336538
O 4.60996223 0.78876745 9.73169266 0.00136937 0.00092098 0.00468250
O 3.10798162 6.13094529 8.40954128 -0.00157377 0.00558086 0.00127861
O 0.95427632 4.99067751 9.35710582 0.00561549 -0.00510303 0.00037463
O -0.55001948 9.53733252 7.88542740 0.00013900 0.00416015 0.00335159
O 3.69851961 4.80349904 1.91563718 -0.00148068 0.00163097 -0.00245273
O 5.65135420 0.08943358 3.99602689 -0.00066822 0.00650750 0.00224969
O -0.84512497 8.56245728 14.19120605 0.00002525 0.00273180 -0.00370817
O 0.36463493 3.63437693 15.22348217 -0.01279152 0.00087390 -0.00452670
O 3.08048802 1.03745036 21.55916650 -0.00186612 0.00149811 -0.00077447
O 1.88677329 6.05089357 20.24797481 -0.00460821 -0.00040434 -0.00220411
O -0.12540711 4.76257286 21.26340241 -0.00486092 -0.00337579 -0.00620438
O -1.74584933 9.60163041 19.68575074 -0.00251223 -0.00678796 -0.00521180
O 2.32142330 4.66352193 14.25308019 0.00414121 0.00183630 0.00232592
O 3.81510111 28.72064008 15.29465622 -0.00084178 0.00706556 0.00356342
O -2.39181018 8.53862009 25.85273547 -0.00242475 -0.00179074 0.00165137
O -1.24134371 3.37029988 27.10902152 -0.00643689 -0.00012679 0.00139554
O 1.23846674 1.13243262 33.02040533 0.00079570 -0.00007829 0.00123391
O 0.31036991 5.99423239 31.90851949 -0.00268602 -0.00019655 -0.00048607
O -1.96036410 5.28173565 32.77682120 0.00060119 -0.00554090 -0.00352593
O -3.32336390 9.99759119 32.01374398 -0.00483214 -0.00365473 -0.00081610
O 0.77670856 4.70938280 26.25444039 0.00021812 0.00334769 -0.00006166
O 2.33343933 29.11297689 27.30834371 -0.00493518 -0.00579659 -0.00094778
O 0.43940823 18.23815895 2.35526522 0.00265467 -0.00357461 -0.00496847
O 1.77470684 13.65852608 3.53345586 -0.00230398 -0.00215996 0.00343704
O 4.44747264 10.82361676 9.20720350 -0.00204810 0.00390198 -0.00327139
O 3.19885967 15.74808606 8.05848695 -0.00262511 0.00172618 -0.00656990
O 1.08060461 14.61467021 9.22075712 -0.00217743 0.00262088 -0.00415031
O 0.00221443 19.47792187 8.59816325 0.00246247 -0.00036706 0.00300402
O 3.98561526 14.32088531 2.43305465 -0.00046485 -0.00230758 0.00012826
O 5.54596735 9.16873698 3.43100728 0.00197648 -0.00025334 0.00164224
O -0.75278490 18.19463007 13.99852582 -0.00188896 0.00147587 -0.00364625
O 0.53466384 13.36327189 15.08170521 0.00198624 0.00163845 -0.00156793
O 3.10862858 11.13926351 21.20577333 -0.00333831 0.00103397 0.00381792
O 2.22865494 15.31484387 19.85281561 0.00667994 0.00148019 0.00139496
O -0.28745757 14.98034952 21.02316991 0.00077616 0.00229149 -0.00107123
O -1.59866456 19.71183738 20.07222189 0.00045484 -0.00339900 0.00084006
O 2.45305917 14.52052342 14.02455833 -0.00303555 0.00382494 0.00205189
O 3.94238736 9.82439735 15.37568160 -0.00240854 -0.00212205 -0.00674993
O -2.46745502 18.30635935 26.00998489 -0.00193064 -0.00340331 -0.00165542
O -1.25631016 13.45984350 27.00328263 -0.00621612 0.00482117 -0.00148118
O 1.57826257 11.03292896 33.10864601 -0.00596864 0.00040962 -0.00269204
O 0.16060643 15.90905242 31.83769585 -0.00313576 -0.00366372 -0.00215331
O -1.98925827 14.93207175 32.90944138 -0.00432801 -0.00056315 0.00184579
O -3.53123390 19.53629762 31.69339817 -0.00532393 -0.00102836 0.00391070
O 0.80588069 14.84024157 26.02862767 0.00631567 0.00448331 -0.00456117
O 2.29914288 9.48445262 27.01099522 -0.00236709 -0.00339327 0.00008084
O 0.96864690 28.17857838 2.74912468 0.00568196 0.00296804 -0.00273959
O 1.81635272 23.26230757 3.78291767 0.00137683 0.00181283 -0.00400868
O 4.38305059 20.52400174 9.31444472 -0.00445244 -0.00444582 -0.00109180
O 3.51641840 25.37447839 8.61479351 0.00608545 -0.00069919 0.00266710
O 1.42541668 24.26205581 9.85087704 -0.00231131 0.00050457 -0.00348764
O -0.30673709 0.01815578 8.22288376 0.00336879 0.00578554 0.00284367
O 3.91539770 23.84043458 2.54439653 0.00613849 -0.00319903 -0.00095423
O 5.31515206 19.62562475 3.50681562 0.00131308 0.00564447 -0.00207940
O -0.95476864 28.06722237 14.11612023 0.00249874 0.00005506 -0.00157953
O 0.47517996 23.17303303 15.36266947 -0.00233737 -0.00152988 -0.00649900
O 3.12730212 20.90972358 21.10345302 -0.00144352 -0.00153884 0.00261358
O 1.80818327 25.54915844 20.18335119 0.00315087 -0.00432423 -0.00614918
O -0.06657729 24.24541331 21.47327827 0.00134860 -0.00772219 0.00578262
O -1.61160152 0.10675829 20.09476725 -0.00213339 -0.00396999 -0.00837467
O 2.65346014 24.13270505 14.27504808 -0.00108763 -0.00608181 -0.00202274
O 3.74270626 19.17496584 15.15911000 0.00162629 0.00294268 -0.00231842
O -2.51245712 28.07669806 25.91432825 -0.00617685 -0.00399628 -0.00952232
O -1.32067389 23.57290650 27.25283760 -0.00260394 0.00330556 0.00044121
O 1.43940821 20.69180720 32.90084414 0.00524436 -0.00435006 0.00309549
O 0.23792970 25.44325477 32.11666875 -0.00329633 -0.00375073 0.00410555
O -1.75218164 24.42000806 33.48156408 -0.00191374 -0.00132494 -0.00012032
O -3.41440239 29.03837004 32.02686202 0.00125358 -0.00088282 -0.00349247
O 0.89924546 24.30541981 25.87735864 -0.00390177 0.00384759 0.00340982
O 2.34020025 19.88033561 27.20730193 -0.00237345 -0.00563409 -0.00547585
O 7.90638291 9.17614213 1.95223229 -0.00063763 0.00230275 0.00255747
O 8.67155934 3.66326429 3.60848005 -0.00215244 -0.00213357 0.00099736
O 11.12976419 0.98485783 9.53814838 -0.00219700 -0.00405441 -0.00320276
O 10.08031406 6.07013963 8.42283502 -0.00165856 0.00181468 0.00275056
O 8.05907210 4.84453956 9.45565279 -0.00268838 -0.00585373 -0.00412339
O 6.36763633 9.83702791 8.01228868 -0.00308574 0.00002142 -0.00871192
O 10.84352926 4.64100321 2.29910973 0.00292589 0.00028865 0.00535620
O 12.29523351 0.14772261 3.56571876 -0.00166447 -0.00256451 0.00627699
O 5.96884809 8.43317781 14.33289132 0.00136770 0.00105012 -0.00051631
O 7.02090508 3.92637002 15.71472513 0.00173377 0.00399156 -0.00042447
O 9.75818909 0.64005673 21.78619587 0.00385705 -0.00014829 0.00111150
O 8.74191331 5.87281349 20.12372174 0.00480914 -0.00511653 0.00311428
O 6.32054711 5.02269048 21.25346018 -0.00811510 0.00142100 0.00290463
O 5.15033114 9.96126223 20.21288841 -0.00027649 -0.00260660 0.00581452
O 9.29162081 4.56662633 14.45164495 0.00356719 0.00217134 -0.00179048
O 10.83421530 28.95085418 15.51206002 -0.00191807 -0.00035092 0.00955563
O 4.64028040 8.66211520 25.97073274 -0.00185584 0.00342812 -0.00329839
O 5.37903346 3.96432553 27.27475079 0.00100684 -0.00421298 0.00530629
O 8.23349355 0.94904008 33.03423400 -0.00032549 0.00010891 0.00199079
O 6.96618933 6.09113721 32.17029956 -0.00092513 0.00381971 -0.00197458
O 4.91441610 4.96220217 33.27174625 0.00492831 -0.00706368 -0.00259866
O 3.40224731 9.78524218 31.70324336 -0.00474734 0.00217860 -0.00659470
O 7.52863490 4.99726497 25.83504208 0.00120362 -0.00441957 -0.00053260
O 9.42902744 29.07852765 27.53072611 -0.00564350 -0.00420130 -0.00256061
O 7.45693774 18.48766635 2.42282926 -0.00514559 0.00097552 0.00356389
O 8.81054208 13.38511104 3.45652728 -0.00131082 0.00406860 -0.00623426
O 11.47003872 10.35654382 9.95093254 0.00209826 -0.00022343 -0.00363876
O 10.23614917 15.72114747 8.06531136 0.00538009 0.00276702 0.00179094
O 8.23082235 14.83022351 9.13925399 0.00092910 -0.00260283 0.00498506
O 6.68432021 19.89121181 8.33158920 -0.00217650 -0.00021237 0.00132017
O 10.96156487 14.12774315 2.36101367 0.00188949 -0.01028570 0.00629311
O 12.41204352 9.69690893 3.83902436 0.00498705 -0.00222621 -0.00062676
O 6.03258695 18.26756083 14.16765949 0.00377527 -0.00221691 -0.00184887
O 7.33437447 13.34253953 15.45466143 -0.00739281 -0.00133130 -0.00207696
O 10.00866623 10.65326836 21.16633196 0.00197326 0.00044869 -0.00240535
O 8.65420599 15.38188388 20.10470033 0.00200698 0.00211440 -0.00357206
O 7.01307403 14.75499185 21.66846786 0.00205081 0.00025654 0.00122707
O 5.16963732 19.50290329 19.91340321 -0.00064745 -0.00505585 0.00096104
O 9.40516084 14.52553540 14.10666187 0.00024327 0.00390690 -0.00009703
O 11.02246419 9.72831092 15.55897327 0.00008512 0.00038998 0.00094076
O 4.17656894 18.40581065 26.00945493 0.00336460 -0.00416631 -0.00109122
O 5.46259590 13.73660039 27.25313762 -0.00670663 -0.00276232 0.00242123
O 8.15519563 10.63581475 32.90249869 -0.00176609 -0.00137620 0.00006876
O 7.04648659 15.93479714 31.89929328 -0.00662432 -0.00533538 -0.00146054
O 5.12316913 14.74621460 33.09224648 0.00527017 -0.00576194 -0.00353251
O 3.67044961 19.54875805 31.88135107 -0.00318832 0.00002829 0.00114049
O 7.86046420 14.32757750 26.08776647 0.00363893 0.00524943 -0.00064367
O 9.53133759 9.56809650 27.29813720 -0.00263999 0.00403578 -0.00464905
O 7.46442532 27.94332905 2.65078462 0.00280003 0.00551833 -0.00199665
O 8.77756974 23.18779659 3.34002443 -0.00039130 0.00385269 0.00104261
O 11.64121432 20.58722248 9.55852374 -0.00126116 0.00561721 0.00602552
O 10.40014244 25.55575316 8.47601931 0.00376764 0.00659941 0.00071594
O 8.32848444 24.27508839 9.71615988 -0.00221386 -0.00380892 -0.00196965
O 6.65585429 28.93974728 8.50125626 0.00295563 0.00299775 -0.00114911
O 10.82424874 24.01048050 2.16761765 0.00427916 0.00444086 0.00354706
O 12.36038891 19.36526082 3.40622694 0.00211084 -0.00081022 -0.00011596
O 6.01735087 27.69883444 14.48983912 0.00012073 -0.00049952 0.00363078
O 7.23136460 23.00860330 15.05038599 0.00338448 -0.00032676 -0.00257332
O 9.90463673 20.49623973 21.15466883 -0.00034261 0.00964426 -0.00013506
O 8.81490639 25.37049999 20.32826907 -0.00452383 0.00120287 -0.00074917
O 6.64846017 24.57141775 21.57104053 -0.00886248 -0.00275082 -0.00448467
O 5.10096696 0.08381929 20.40210890 -0.00039802 -0.00062616 0.00108317
O 9.25965905 24.40160165 13.99095931 -0.00144709 0.00342982 0.00470299
O 10.91666562 19.47607719 15.51327423 -0.00396053 0.00512394 0.00385127
O 4.37265689 27.91303602 26.48612929 -0.00197383 0.00006998 0.00336139
O 5.61371616 23.57763739 27.48744384 -0.00266542 0.00080995 -0.00395528
O 8.56950322 20.73868500 32.84980904 -0.00215749 0.00075819 -0.00045337
O 7.03572316 25.17695257 32.09598823 -0.00278382 -0.00715221 -0.00310892
O 5.14128179 24.23247921 33.50354004 -0.00110779 -0.00515546 0.00164569
O 3.39019192 0.06892445 31.92997748 -0.00081312 -0.00747494 0.00427080
O 7.74352182 23.98653631 25.81171423 -0.00389703 -0.00120729 -0.00381380
O 9.22703475 19.41693728 26.88178095 0.00092680 -0.00310755 0.00441260
O 14.38307073 8.61342728 2.42300676 0.00063739 -0.00678680 -0.00089983
O 15.68625296 3.93233975 3.65227287 -0.00345193 0.00596987 -0.00338917
O 18.18283192 1.01594616 9.43957673 0.00211684 -0.00185368 -0.00399246
O 16.94064851 5.72087458 8.01488439 -0.00066077 0.00112919 -0.00002604
O 14.91389181 4.88378942 9.48068094 -0.00010011 -0.00413987 -0.00403097
O 13.22781384 9.72588454 8.18610967 -0.00057151 -0.00161256 -0.00078741
O 17.59945008 4.95414019 2.24410097 0.00177815 -0.00415660 0.00259268
O 19.25452552 28.93544574 3.46650814 -0.00204155 0.00073171 -0.00034982
O 12.69574035 8.41280501 14.33587752 -0.00430624 -0.00555062 0.00433446
O 14.12488127 3.80055717 15.60466267 0.00094322 0.00470126 0.00416059
O 16.49047316 0.67911606 21.32032961 0.00018892 0.00724676 -0.00496265
O 15.65429103 5.99887363 20.30241463 -0.00312848 -0.00151908 0.00156278
O 13.58091012 4.72307100 21.05455746 0.00243367 -0.00549532 -0.00567957
O 12.09660029 9.61157933 19.95444063 -0.00006855 -0.00657139 -0.00043410
O 16.23726220 4.56452290 14.24336791 0.00441493 0.00248509 0.00222384
O 17.72245115 0.10903434 15.61572436 0.00036658 -0.00770392 -0.00532076
O 11.65896190 8.65637687 25.75330525 -0.00843932 0.00893443 0.00017191
O 12.38692344 4.00451515 27.33567129 0.00193570 0.00178211 0.00850088
O 15.36783145 1.43805873 33.04214670 0.00056430 0.00354138 -0.00348533
O 14.03675030 6.04402933 31.69126005 0.00586486 -0.00387968 0.00043823
O 11.95689710 5.18717342 33.19323742 -0.00923846 -0.00039589 -0.00695680
O 10.47864745 9.68119357 31.98056257 0.00177901 -0.00674218 -0.00032154
O 14.68539275 4.67286739 25.96958762 -0.00449606 -0.00472983 -0.00753945
O 16.00985299 28.86669335 27.38600177 -0.00200547 -0.00204849 0.00151136
O 14.37609590 18.36933984 2.18366185 -0.00517146 0.00095113 -0.00413946
O 15.67850438 13.99748688 4.01474515 -0.00707052 0.00249588 0.00036932
O 18.10704188 10.51558899 9.35041825 0.00383395 0.00791898 0.00852066
O 16.80240834 15.53038053 8.08826958 -0.00147137 -0.00365276 -0.00486255
O 14.75126631 14.74243523 9.17897179 0.00069197 -0.00612132 -0.00032598
O 13.39009273 19.56530520 8.01789545 -0.00466979 0.00588832 0.00126560
O 17.83104824 14.23747450 2.76005369 0.00053737 -0.00117708 0.00050884
O 19.08878136 9.47922455 3.46694751 -0.00521912 0.00603156 -0.00314794
O 12.89179710 18.31371920 14.30711301 0.00175543 -0.00232009 -0.00386024
O 14.03572113 13.37361269 15.09646102 -0.00075786 0.00473835 0.00612224
O 16.83552612 10.61286447 21.11327187 -0.00162230 0.00075729 -0.00097502
O 15.71630747 15.54059794 19.81630602 -0.00485593 0.00297593 0.00290782
O 13.53994263 14.76600431 21.41712350 -0.00480689 0.00268046 0.00593898
O 12.04477875 19.41616741 19.88402431 0.00029900 0.00215828 -0.00317936
O 16.10629592 14.62866131 13.84403098 0.00356842 0.00382964 0.00491091
O 17.71957214 9.59262970 15.55887374 -0.00007846 0.00321361 -0.00190578
O 11.38106153 18.13295196 26.11041954 -0.00162325 0.00282580 0.00124297
O 12.57127095 13.29452250 26.89146435 -0.00042099 0.00254771 0.00433965
O 15.18216280 10.89050784 33.28072411 0.00522539 0.00362640 -0.00022299
O 13.93089077 15.57393931 31.83440037 -0.00247039 0.00444553 -0.00415897
O 11.92759044 14.55880803 33.14705722 -0.00222727 -0.00021197 0.00078250
O 10.67105178 19.27035939 31.84284811 0.00059451 0.00256960 -0.00118281
O 14.75666627 14.39830076 25.96615573 0.00031439 0.00154376 -0.00054623
O 16.19180639 9.80333097 27.18563281 -0.00752055 0.00649240 -0.00277881
O 14.19283582 28.02308735 2.47511841 -0.00038009 0.00006442 -0.00115233
O 15.71270735 23.24254119 3.50957813 0.00030112 -0.00133646 0.00246544
O 18.28756042 20.14443580 9.68090889 -0.00215591 -0.00734627 -0.00164308
O 17.10676812 25.54967162 8.21807069 0.00088815 0.00272885 -0.00541641
O 15.23962859 24.23112388 9.58875523 0.00079245 0.00252332 -0.00393910
O 13.41505127 0.26889938 8.44821031 0.00329369 0.00065004 -0.00099146
O 17.83242641 24.36813096 2.33792640 -0.00210201 -0.00242360 0.00179121
O 19.20660048 19.68490091 3.75149385 -0.00363922 0.00278799 0.00351753
O 12.91475416 27.79208967 14.27642274 0.00069581 -0.00458255 0.00437577
O 14.16212006 23.35349746 15.52701593 -0.00488893 0.00496749 0.00486880
O 16.85789398 20.52110822 21.20423325 0.00364315 0.00394285 -0.00043327
O 15.64608616 25.42159503 20.31783239 0.00177361 0.00671574 0.00269411
O 13.69663694 24.37318901 21.59253954 0.00043825 0.00934633 -0.00371685
O 11.88479729 0.15643254 20.25376819 -0.00005722 0.00260863 0.00502153
O 16.19396110 24.32138047 13.95992828 -0.00241486 0.00419619 -0.00527681
O 17.80699721 19.24530449 15.15004260 0.00132646 -0.00502179 -0.00248208
O 11.17770414 27.45162891 26.44780937 -0.00199561 -0.00303907 -0.00223700
O 12.48141743 23.25438913 27.25442370 -0.00171231 0.00053130 -0.00316980
O 15.05332225 20.65661934 33.15564641 0.00773820 0.00301108 -0.00212099
O 14.09176406 25.49872527 32.38012010 -0.00670005 -0.00045527 0.00101353
O 12.07044924 24.34729596 33.50018668 0.00274847 -0.00097106 0.00602943
O 10.37539239 0.07218746 32.00736590 0.00537601 0.00047413 -0.00020788
O 14.77594426 23.79936694 26.03015215 -0.00043594 -0.00407616 -0.00400100
O 16.26130443 19.54535200 27.33832007 0.00154913 0.01002908 -0.00056091
H -0.33550367 8.74921674 2.54604995 -0.00620267 -0.00179972 -0.01221416
H 2.78563017 4.16727012 3.14215403 -0.01268772 -0.00011770 -0.00787829
H 5.48450585 0.62142516 9.29740864 0.00424011 -0.01245391 -0.02627044
H 2.22714786 5.63806836 8.45882555 0.01023045 0.02731411 -0.01011903
H 5.89206851 8.69979024 0.23351158 0.00978557 -0.00896178 -0.00126966
H 3.82520684 3.58447753 5.37184736 0.00484640 -0.00905271 0.00055090
H -0.43830611 1.47240201 10.97478374 -0.00443975 0.00028024 0.01654278
H 1.25830985 6.43580922 6.54846169 0.01001327 -0.00291512 -0.00775581
H 3.95284919 6.48918258 10.78525559 -0.00437029 -0.01358185 0.00990045
H 3.79304711 2.05232074 7.39038656 -0.00278198 0.00808193 -0.02802993
H 1.21502106 3.44539986 1.36786166 -0.01807296 0.02125372 0.01240152
H 1.37232227 7.96771883 4.68382698 0.00791135 0.00005980 -0.01193763
H -1.96072692 5.57230214 34.91128442 -0.02543140 -0.00935688 -0.03185528
H -0.11265210 0.70670327 6.17585103 -0.00788836 -0.00976496 0.00956261
H 2.32396683 4.09482166 11.89224199 0.00094150 -0.02351214 -0.00930945
H 5.22528610 9.22839409 5.88592765 0.00477716 0.00791490 -0.00177802
H 2.61417572 7.05569750 1.49421411 0.01772055 -0.00349862 0.01539055
H -0.08232454 2.36059401 4.22379394 0.03382455 -0.02138761 0.00562814
H 2.51699402 2.42391842 10.17978329 0.00271750 0.00927129 0.00974281
H 5.22536855 7.35985491 7.70553269 0.01155756 0.00447740 -0.01076822
H 4.93421174 4.75992785 9.64896195 -0.00186788 0.00108228 -0.02273283
H 2.90765443 0.27905182 8.33371605 0.02703713 0.00206305 -0.00354591
H 0.10915543 4.82452882 2.42911761 0.01599867 0.00272644 -0.02999172
H 2.46793213 9.65909243 3.53009932 0.00915279 -0.01531495 0.01613899
H 5.67710434 4.05850184 7.39885978 -0.01112815 0.03464625 0.00951280
H 0.56647987 8.94203173 10.29742082 0.00006960 -0.01116805 0.01261291
H 18.75435420 7.06407482 3.46531756 -0.02299642 0.01745293 -0.01347181
H 4.39964199 1.30472404 1.80130212 0.00420587 -0.00600027 0.00883343
H 19.36173876 3.64543491 7.46605171 -0.00160843 -0.00295880 -0.00867876
H 2.03171267 8.43600917 9.43709244 0.01745776 -0.00330575 -0.02272902
H 6.00735656 5.56676297 4.14821088 -0.00935668 -0.00552262 0.01924193
H 2.99463475 1.65229024 2.91431704 0.01678854 -0.01894805 0.02340060
H -0.20638511 2.69229115 8.54013715 -0.00369015 -0.01206172 0.01861419
H 0.44007198 7.49746471 9.12308846 -0.00006921 -0.00568630 -0.00112670
H 5.16546164 7.02027579 3.41037629 -0.00687134 -0.01534025 -0.03336247
H 4.52318238 2.42209015 3.12287625 0.00061827 -0.00252460 -0.02870613
H -1.67716101 9.02061117 14.46248928 0.01836768 0.02129819 -0.01571867
H 1.22765643 4.06950115 14.92433629 0.01381415 -0.00660398 0.00908161
H 3.94979430 0.63304354 21.27101025 -0.03335208 0.00604342 0.01744903
H 1.04777905 5.54861761 20.37046832 0.01501291 -0.00486856 -0.02764877
H 3.93395170 7.96074490 12.68679880 -0.01390003 0.01066550 0.00171044
H 2.32644746 3.48265257 17.05814412 -0.00006128 -0.00108134 0.01657143
H -2.28552150 0.96922754 22.83538155 -0.00474141 -0.00032626 0.01971344
H -0.18371007 6.44196866 18.49149985 -0.01876688 0.01105420 0.01977037
H 2.48129170 6.88380408 22.39245067 -0.02882752 0.00323067 -0.00068353
H 2.28784796 2.13515553 19.00369566 0.00597983 -0.04675984 0.02006032
H -0.29701440 2.95085053 12.96587459 0.01904775 0.00879640 -0.01871564
H -0.08857736 7.67129629 16.47576222 0.00215790 0.01570528 0.00055029
H 0.78591455 5.13477438 11.64569555 -0.00074883 -0.00424848 -0.00444719
H -1.59957774 0.45315582 17.76612859 0.00146490 0.04739566 -0.00091487
H 1.07945483 4.32182759 23.95849783 -0.00856332 -0.00470174 -0.01374173
H 3.82242020 8.97647691 17.40860563 0.00256859 -0.01347999 0.01871151
H 0.84160023 6.63691486 13.61952712 -0.00769053 0.00971111 -0.00012400
H -1.60516627 2.16788288 15.96542301 0.00429074 -0.01568111 0.00020139
H 0.98091468 2.46704989 22.13706493 -0.00380554 0.00880004 0.01311451
H 3.85012155 7.61531534 19.45838118 -0.02069690 -0.00990890 0.00279426
H 3.27183272 4.82692265 21.40666081 0.01236357 0.02710825 0.00388083
H 1.50727535 0.04172916 19.94609272 -0.00012297 0.01520667 -0.02837062
H -1.34910053 4.53266200 14.23927401 -0.00137531 0.00899236 -0.00161555
H 0.82304529 9.53766548 15.43716147 -0.00448379 -0.02476298 0.01957120
H 4.12987398 2.89631426 20.28846130 0.01614135 0.01060619 -0.03649127
H -1.16619677 8.38105744 21.84481169 0.00807093 0.01285394 -0.00287119
H -1.92385455 5.82382413 15.85898013 -0.00188048 -0.00318507 -0.03679761
H 2.94866201 0.88526634 13.28036576 0.00884080 0.01026271 0.00494182
H -0.64231873 3.64654021 19.15700151 -0.02715776 -0.00235224 -0.00587972
H 0.43180937 9.09190894 21.95609451 0.01377195 -0.00560299 -0.00488273
H 3.44474546 5.75803989 16.40161119 0.00946683 0.00913811 -0.00953006
H 1.27839556 1.12688488 13.98024212 0.05154455 0.00232765 0.01007010
H -2.17422700 4.36602999 19.09290610 -0.02187459 -0.00263977 0.02057954
H 0.32456398 7.72976485 20.89064834 0.00673965 0.00865133 -0.00083304
H 4.83131978 6.24657559 15.48625067 0.03072270 -0.00237778 -0.02268013
H 2.64426541 2.17384410 14.43527049 -0.01267137 -0.01168809 -0.01342987
H -3.22435472 8.96832628 26.17125644 -0.01299515 0.02172015 0.02108125
H -0.44727658 3.92293615 26.86057557 -0.02993442 0.00418386 0.00799901
H 2.12621842 0.72544912 32.73352356 0.00372687 0.01718862 0.02170798
H -0.61152644 5.59795954 32.15399810 -0.01529323 0.01157547 0.01788433
H 2.53289544 8.17272989 24.48720475 -0.02079550 -0.00656091 -0.01434615
H 0.61338491 3.41578035 28.98727176 -0.02295740 -0.03400708 -0.00599038
H -3.14598793 2.02651767 34.96301960 -0.03664489 -0.00292549 0.01376472
H -1.70891167 6.33080044 30.12999778 0.01133174 0.00485416 -0.02238219
H 0.84379418 6.60268912 34.45557369 0.01240820 -0.02008834 0.01202627
H 0.74015116 1.76342098 30.78602091 -0.02543411 -0.01010658 -0.00184731
H -2.06201742 2.72339959 24.81690245 -0.01019654 0.00496914 0.01100499
H -1.78208343 7.84750239 28.39149965 -0.00211063 0.00429490 -0.00935863
H -0.43878200 5.25689918 23.35190823 0.01246965 -0.02118132 -0.00165041
H -3.26623885 0.49026561 29.87519852 -0.02141552 -0.01159784 -0.02145359
H -0.64447942 4.42162032 35.28512229 -0.03734464 -0.01816680 0.01028417
H 2.23794402 9.23433793 29.36922120 -0.03394686 -0.01353841 0.00668323
H -0.36901919 7.16436513 25.15670916 -0.00247397 0.01406012 -0.02597321
H -3.25818382 1.93460737 27.92498414 -0.00077531 -0.00405918 -0.03133628
H -0.60598168 2.89647944 33.42406824 0.00675093 -0.00243448 -0.00374339
H 2.26682014 7.52566453 31.17687386 0.00296450 -0.03087290 -0.00534274
H 1.77379587 4.93370240 33.46189468 0.01496857 -0.00953140 -0.02671113
H -0.23924394 0.13688692 32.08362801 0.02430846 0.03836353 0.00337370
H -2.88544545 4.72445474 25.64946316 0.00766360 0.02852842 0.00093064
H -0.84413723 9.75377713 27.28695829 -0.01567223 -0.00120329 0.00178115
H 2.21736975 3.79897810 31.88517756 0.00307721 0.00429810 0.01047577
H -0.75072958 8.26433798 33.16010857 -0.01746295 -0.03500199 -0.00209418
H -3.66816017 5.31990197 28.06567863 -0.00821245 0.00708196 -0.00092797
H 0.64356562 2.12934019 26.19468218 0.01059600 0.01114406 -0.01006129
H -4.06889457 4.63879260 30.72846430 -0.02174957 -0.00445458 -0.02475433
H -2.46372962 7.64563329 33.24862667 0.03145681 0.05563832 -0.00169583
H 1.91215708 5.84816940 28.38249040 -0.03673562 0.02138542 -0.02435193
H 1.91592821 1.20614198 25.39653835 0.01004352 -0.02129579 -0.01108730
H -3.85903093 3.03760685 31.50068808 -0.00711091 -0.00484727 -0.00366850
H -1.93779906 9.01723089 34.30414198 0.01688690 0.00614528 0.01115498
H 3.40012425 6.09178232 27.63870630 -0.00489515 -0.01278231 -0.03000382
H 0.09473806 0.61091812 25.29543026 -0.00379613 -0.02104467 0.01327120
H 20.21785988 18.69126040 2.59062837 0.01423304 -0.00278126 0.01173251
H 2.62675995 13.99705976 2.97117918 -0.03367135 0.01394871 0.00908984
H 5.26321971 10.30860544 8.92614950 -0.00674766 -0.00940765 0.00064559
H 2.30902167 15.38345614 8.38534351 -0.00585100 -0.02613216 0.00094367
H 5.59173956 18.08976287 0.47340548 -0.02249107 -0.02834514 0.01097436
H 3.86740909 12.88739501 5.03582266 -0.02100353 -0.00771563 0.00909064
H -0.49101537 11.29273821 10.61078030 -0.00693881 -0.01943071 0.00207086
H 1.11882834 16.21640864 6.33124843 -0.01563574 -0.00703125 0.00328763
H 4.11889031 16.26332017 10.47882315 -0.00311878 -0.00312893 0.01741857
H 3.54148336 11.66688486 7.21557755 0.01437022 0.00085219 0.00594364
H 1.37199975 12.93255248 1.15596282 -0.01728933 -0.00482973 -0.02071299
H 1.15732856 17.87043850 4.54546965 0.01985125 0.00685194 -0.01746083
H -1.90750137 15.47769260 35.07748243 0.00184755 -0.00037080 0.00091196
H -0.11340778 10.20183098 5.79907249 0.01047460 -0.01117152 -0.00171673
H 2.55272018 13.66407571 12.14828321 0.02636617 -0.00586208 -0.00051819
H 5.20720104 18.99962420 5.53294748 0.01651430 0.00802914 -0.01530728
H 2.53752928 16.79411371 1.76945783 -0.00893527 -0.00839493 0.01218660
H -0.19397126 12.09419735 4.10292372 -0.00843846 -0.01877550 0.00339011
H 2.36599462 12.45307113 10.06520526 0.01659109 0.00803870 0.00167597
H 5.19272707 17.07592827 7.30225003 0.01014282 0.00339473 -0.00607462
H 5.01296959 14.52393682 9.53508483 0.00377156 -0.00144512 -0.02431300
H 2.63154834 9.71752709 8.07803150 0.01317210 -0.00731011 0.00977249
H 0.24687261 14.69109246 2.37552731 0.02081753 0.00833775 0.02089550
H 2.15780160 19.62388473 3.61696172 0.02507625 -0.02124736 -0.01617630
H 7.34553080 13.93122952 6.92615051 0.01140010 0.00699135 -0.00258396
H 1.01107149 17.77128527 10.34946170 -0.01487100 0.00251325 0.00365262
H -0.41367297 16.07740681 3.95163336 0.00229124 0.00811465 0.01385113
H 3.40884359 11.43629755 2.24387337 0.00193826 -0.00223422 -0.01313340
H 0.03172658 12.19439781 8.40436076 -0.01635336 -0.01016468 -0.01906566
H 2.52725239 17.83192021 9.57779520 -0.01091484 -0.01947052 -0.02164562
H 5.60661800 16.80990020 3.64666851 0.02278532 0.00910943 0.03294461
H 5.09686699 11.37904301 1.84292297 -0.00399753 0.00725119 -0.00944967
H 0.27916220 13.41653516 7.06688487 -0.00808780 0.00366205 -0.00517309
H 1.15427426 16.83704276 8.98481384 0.00093316 0.00918778 -0.00452131
H 4.20152873 15.82260079 4.26303254 -0.00720876 -0.00143872 0.01812909
H 3.86539767 10.19021967 1.10770140 0.01476966 -0.00253505 -0.02808135
H -1.65406331 18.50569602 14.21506200 -0.02102986 0.01607259 0.00826300
H 1.31123599 13.95946591 14.87384903 0.01880124 -0.01471715 -0.00108735
H 3.85025519 10.47652492 21.00405163 0.00268990 0.01558510 0.00450877
H 1.36490307 15.11686480 20.21762229 0.01034615 -0.01236926 0.01405843
H 4.08287874 17.82459357 12.37746455 -0.01129905 0.00126181 -0.00384839
H 2.48810993 13.07404643 16.79840877 -0.01212273 -0.00365303 -0.00739277
H -1.82799004 11.03577858 22.72553113 -0.01157276 -0.00395950 0.04377211
H -0.00154018 15.96504270 18.65107326 0.00313112 0.01011186 0.00128524
H 2.82864026 16.55543535 22.04348636 0.00483932 0.01384107 0.00845190
H 2.47205441 11.48590983 18.77450754 0.02007204 -0.00163298 -0.00830411
H -0.41285179 13.00268841 12.43420726 0.00837702 -0.00405618 -0.00016521
H -0.07517330 17.42141433 16.74439661 -0.01834226 -0.01062087 -0.00426439
H 0.95358731 15.07530579 11.19315684 0.01584414 0.02099304 0.00733364
H -1.47357226 10.36566252 17.75147870 -0.00835431 0.02005012 0.00698948
H 1.25686151 14.37945211 23.82281626 0.02240486 0.01468522 -0.01333638
H 4.05857379 18.39885830 17.22023735 0.00072607 0.01845318 0.00473106
H 1.20666291 16.60782550 13.20075411 0.00070951 -0.00182082 -0.00372239
H -1.33306251 11.96943970 15.68866189 0.00916827 -0.00431423 -0.00330686
H 1.13943999 12.81333343 21.85558957 -0.00030826 -0.00577964 -0.00370002
H 4.19933308 17.05664812 19.21609996 -0.01050374 -0.01161682 0.00335333
H 3.94315260 14.79726556 21.25459950 -0.00334563 -0.00895909 -0.01559475
H 1.45826363 9.90848224 19.91024802 -0.00874027 -0.00642033 0.02754679
H -1.33484121 14.71731175 13.57702701 -0.01725065 -0.00309544 0.01144983
H 0.69610242 19.17853676 15.69946834 -0.01701280 -0.00370322 0.02082316
H 6.64622953 13.28515084 19.54330994 -0.02625004 -0.00935350 0.00302811
H 0.72997796 18.44112167 21.83067558 0.00317991 -0.02874888 -0.02632383
H 18.16213210 15.19874077 15.96916029 -0.00198733 0.02360994 0.00938359
H 1.61453912 10.23898464 13.25810368 -0.02451249 -0.01566459 -0.00744950
H 17.71052250 13.89973572 19.47052185 -0.01702382 0.00853661 0.00457475
H -0.13043471 17.23594047 21.04034852 0.00439347 0.02873765 0.00658168
H 3.60141917 15.72726820 16.27041955 -0.01898117 -0.00548484 0.01836809
H 2.17953334 11.66150184 13.83526596 -0.01540464 0.00013834 0.01208291
H -1.44919031 12.93836320 19.62662186 0.01051594 -0.00996655 0.00690801
H -1.00273145 18.34976150 22.07650280 0.01466293 0.01993722 0.01395189
H 5.15583613 16.07386943 15.34773428 -0.02577331 0.00072123 -0.00456740
H 3.25772634 10.49739899 13.02821353 0.00224224 -0.00392664 -0.01085232
H -3.27472236 18.83000694 26.14982354 -0.01517789 -0.01358820 0.00931077
H -0.40195150 14.05860977 26.82828211 0.00933572 -0.00114514 -0.00377770
H 2.41281647 10.53815773 32.81893367 -0.01157558 0.00260731 -0.02040641
H -0.69478354 15.43452989 32.25576492 0.02583956 -0.00055920 -0.01113630
H 2.47071681 18.09035327 24.18840948 0.00685926 -0.01571294 -0.04091913
H 0.64953273 13.30355915 28.82854328 0.00932319 -0.00325663 -0.00929884
H -3.50985777 11.32633609 34.90094127 0.00015688 -0.00425504 0.00553668
H -1.72699495 16.17695237 29.97419721 0.01673949 0.02584862 0.00561942
H 1.12309391 16.57398773 34.05297715 0.00419808 -0.00083267 0.01365589
H 0.72289981 11.65960087 30.71176215 -0.02393540 0.00815413 -0.01148476
H -1.72723790 12.59109969 24.59109405 0.01053553 -0.00154922 -0.02181091
H -1.74928195 17.64780402 28.11573156 -0.00685022 -0.01030687 0.00071265
H -0.20808262 15.42001712 23.22476581 0.00938489 0.00884799 -0.01981541
H -3.33097609 10.54028394 29.84141359 0.01237718 0.00465778 -0.00669263
H 4.12320950 14.07094523 0.08746670 0.01569094 -0.00135626 -0.00714641
H 2.09198785 19.08771335 29.27473093 -0.00432610 -0.00517963 0.02466600
H -0.46561164 16.99875416 25.38520491 -0.01843655 0.00870983 -0.02572428
H -3.14852240 12.08855370 27.73248879 0.00825841 0.00582764 -0.00339064