2160
Time=80000.00000008 pbc="T T T" Lattice="20.62113692 0.00000000 0.00000000 0.00000000 28.97384250 0.00000000 -4.72949513 0.00000000 35.56654353" energy=-13803.45262766 virial="-5.08388425 23.41161148 86.73959806 23.41161148 -74.04505729 10.04853315 86.73959806 10.04853315 -34.41222700" stress="0.00206768 0.00109791 0.00406644 0.00109791 -0.00119066 0.00037119 0.00406644 0.00037119 0.00073066" Properties=species:S:1:pos:R:3:vel:R:3
O 0.86127387 8.77442067 2.34444438 0.00131248 0.00541927 0.00173772
O 1.69279091 3.75697121 3.33748717 0.00842090 0.00035682 0.00465684
O 4.42372595 1.21314343 9.36888614 -0.00440355 0.00170400 -0.00008609
O 3.29319490 5.95534577 8.45025023 0.00249652 -0.00837396 -0.00057990
O 1.49128826 4.88938221 9.66013350 -0.00371534 -0.00533926 0.00203776
O -0.48932378 9.48607282 8.01319838 -0.00512403 0.00377733 0.00825075
O 3.97926140 4.61380617 2.42016497 -0.00535631 -0.00123459 -0.00121175
O 5.46341504 0.11641009 3.78912986 -0.00314336 -0.00301427 -0.00220660
O -0.82358413 8.37656591 14.34227903 0.00327897 -0.00054217 -0.00042662
O 0.33648781 3.42849613 15.20501198 0.00165671 0.00650671 -0.00428353
O 3.03253955 1.09757319 21.27563040 0.00008875 -0.00174087 -0.00082756
O 1.86176696 5.78451361 20.01325145 0.00077658 0.00291779 0.00075778
O -0.18895859 5.11967726 21.30311349 0.00058688 -0.00034631 -0.00163569
O -1.71399175 10.32315967 19.92247638 0.00084841 0.00028518 -0.00913657
O 2.47827205 4.70442973 14.32260477 -0.00260533 -0.00146265 0.00309328
O 4.00947839 28.50712751 15.42431282 -0.00032950 0.00276174 -0.00252863
O -2.52116761 8.67480916 26.13854149 -0.00152641 0.00207239 -0.00445168
O -1.11705831 3.28182360 27.02744580 0.00325159 0.00006607 -0.00431797
O 1.40917066 0.98857640 33.16130945 -0.00058890 0.00777349 0.00818045
O 0.11594248 5.91862352 32.23105006 0.00502506 -0.00530723 -0.00175154
O -2.04771788 4.53138544 33.48097647 -0.00248102 0.00429255 0.00379896
O -3.61188009 9.53188969 31.74087269 -0.00459199 -0.00099105 -0.00298391
O 1.07079731 4.55164254 26.31228543 0.00215073 0.00173714 -0.00826075
O 2.38986814 28.68438796 27.81792371 0.00059617 -0.00062544 -0.00327249
O 0.86895568 18.30195090 2.27019004 0.00245515 0.00719217 -0.00388177
O 1.91463876 13.44280689 3.58397903 0.00078304 0.00021230 -0.00198982
O 4.34153915 10.57318859 9.55724977 -0.00451896 -0.00255277 -0.00245020
O 3.41248933 15.44820382 8.32335838 0.00177333 0.00421189 -0.00260504
O 1.34260686 14.40746520 9.55610495 0.00426166 0.00585764 -0.00496786
O -0.26025647 19.69186688 8.21641064 -0.00643400 0.00259087 0.00110158
O 3.87329415 14.44479573 2.20072037 0.00632244 0.00676099 -0.00192010
O 5.64086421 9.80612220 3.78278342 0.00023965 -0.00320110 -0.00504578
O -0.83637421 18.21951769 14.33810260 -0.00035084 0.00114947 0.00202123
O 0.28892090 13.74671475 15.29769173 -0.00260291 0.00659433 -0.00105310
O 2.86814312 10.74284113 21.23875073 -0.00100913 -0.00760443 -0.00168298
O 2.11378556 15.84353594 20.19116352 0.00709471 0.00193648 0.00063897
O -0.25420279 15.08632808 21.29869506 -0.00561792 0.00188537 -0.00226725
O -1.68634873 19.65080072 19.88478278 0.00372490 -0.00265700 0.00161377
O 2.34146857 14.64690665 14.00594138 0.00044107 0.00255469 0.00084113
O 3.76944030 9.87346383 15.48185569 -0.00151597 -0.00004754 0.00121400
O -2.18044973 18.39885349 26.25820077 -0.00193579 -0.00769061 0.00371649
O -1.19696455 13.20688160 26.98016306 -0.00300363 -0.00372637 0.00136568
O 1.29879425 10.68591486 32.93273413 0.00118230 0.00114035 -0.00153332
O 0.12865006 15.58246247 32.41027474 -0.00422639 -0.00371234 0.00148695
O -1.93658628 14.12814251 33.43760992 0.00370206 0.00008532 -0.00036542
O -3.53533197 19.38503213 31.92087690 -0.00209440 0.00050127 -0.00409606
O 0.80878577 14.47287540 26.00355503 0.00030698 -0.00371311 0.00375802
O 2.03372963 9.20274172 27.17022225 -0.00725514 -0.00135016 0.01271066
O 0.48343368 27.52697216 2.92311206 -0.00072121 0.00015267 -0.00075298
O 1.82979447 22.84923736 3.34276588 -0.00596862 -0.00872127 0.00438802
O 4.52078826 20.51471636 9.17734355 -0.00409112 0.00297106 0.00429221
O 3.27981802 25.18983459 8.24354260 -0.00518456 0.00434654 0.00205373
O 1.27106051 24.21073946 9.48812251 -0.00835478 0.00373530 -0.00100434
O -0.21620294 0.19222087 8.40008791 -0.00335080 -0.00596495 0.00726047
O 3.84244944 24.18237934 2.29904909 0.00343838 -0.00195823 0.00142138
O 5.55874870 19.26849454 3.71143029 -0.00365835 0.00055574 -0.00128312
O -0.69098362 27.88014662 14.37278398 0.00694068 -0.00135222 -0.00350755
O 0.33475580 22.96802386 14.86197756 0.00034834 -0.00059686 -0.00394715
O 3.07986923 20.54091922 21.12685412 0.00370243 -0.00203429 -0.00352777
O 1.96007944 25.33078922 20.40603079 -0.00268261 -0.00289478 -0.00237677
O -0.23472499 24.33099516 21.42991641 0.00100471 0.00180956 -0.00568706
O -1.93661483 0.01724098 20.04492512 -0.00007275 0.00365372 0.00361274
O 2.70086746 23.85588152 14.10530027 0.00329339 0.00332916 -0.00540588
O 3.97548598 19.54048747 15.25496164 0.00368584 -0.00438457 -0.00637257
O -2.25499472 28.20823884 25.97757668 -0.00474989 -0.00194418 -0.00195834
O -1.34596390 22.88225592 27.16727969 0.00380343 -0.00205129 -0.00169611
O 1.12025886 20.44880394 33.19676622 0.00155377 0.00113985 0.00169364
O 0.16592661 25.16574848 32.61468726 -0.00134863 -0.00022280 0.00118615
O -1.98678046 23.94358152 33.61126774 0.00272489 -0.00145665 0.00249772
O -3.44422197 28.88266774 32.05112749 0.00298878 -0.00287504 -0.00576617
O 0.89641294 24.07948983 26.32503679 0.00369561 -0.00234707 -0.00537911
O 2.44227335 19.30662618 27.60912894 0.00647653 0.00617539 0.00280785
O 7.42371707 8.41968211 2.45773713 0.00024990 -0.00363442 -0.00211251
O 8.56247310 4.02457463 3.69811276 0.00020577 -0.00311398 -0.00322904
O 11.54686630 1.24079343 9.07976050 0.00388195 -0.00196625 -0.00294114
O 10.29189326 5.94457509 8.46767946 -0.00357212 -0.00673394 -0.00285538
O 7.96904556 5.26133763 9.39876503 0.00062659 -0.00006540 0.00349262
O 6.47408796 9.48875504 8.24250629 0.00001080 -0.00146795 0.00262143
O 10.71907789 4.72760970 2.48549809 0.00012015 -0.00163247 0.00483221
O 12.40285227 0.26885405 4.04216743 -0.00087601 0.00251785 -0.00135414
O 5.91169785 8.57993270 14.35540754 0.00015429 0.00462815 0.00679473
O 7.33722037 3.76211721 15.46549164 0.00207143 -0.00050670 0.00067812
O 9.87053492 1.33027119 21.35148593 -0.00004800 0.00063036 -0.00103996
O 8.67014082 6.00820733 20.16597280 0.00203669 -0.00147839 -0.00269660
O 6.54634588 5.11430877 21.24551426 -0.00091861 -0.00134606 0.00076533
O 4.98059267 9.85420350 20.13737441 0.00270290 0.00055018 -0.00320218
O 9.10423360 4.82894807 14.02436375 0.00605039 -0.00085274 -0.00048258
O 10.67428284 0.00741679 15.44757244 -0.00383883 0.00547423 0.00061637
O 4.14119031 8.10621558 26.21928755 -0.00025341 -0.00146010 0.00375257
O 5.59220021 3.72938350 27.42015297 -0.00738853 0.00273744 0.00107790
O 8.21532219 0.81783731 33.54933610 -0.00257909 0.00538474 -0.00604597
O 6.97489682 6.09192536 32.19931594 0.00686962 0.00408570 0.00707763
O 5.03952800 4.71549639 33.49897078 0.00857926 0.00071902 0.00420042
O 3.39434488 9.30646462 31.98911156 0.00298340 -0.00755655 -0.00137332
O 7.73844739 4.70300128 26.21335273 -0.00011294 -0.00290257 0.00313970
O 9.39229368 0.01568695 27.68181955 -0.00121982 -0.00437295 0.00165087
O 7.65754086 17.95628991 2.63784818 0.00324286 -0.00203872 -0.00178250
O 8.72324107 13.40069847 3.56746910 0.00103149 -0.00139360 0.00281254
O 11.64163913 10.78654167 9.28758575 -0.00336643 -0.00086245 -0.00309525
O 10.48647377 15.63506462 8.47247628 -0.00233238 -0.00237021 -0.00335672
O 8.21389154 14.33291237 9.33868671 0.00034524 -0.00709422 -0.00049933
O 6.61672283 19.17506595 8.12686981 0.00586558 -0.00751517 0.00185843
O 10.73738414 14.29420026 2.14992249 -0.00703574 0.00179947 0.00234589
O 12.36955864 9.48563536 3.69787517 0.00449517 -0.00057249 -0.00167193
O 6.11629920 17.90985960 14.38209163 -0.00150896 -0.00270481 0.00569950
O 7.21124722 13.55302139 15.40200068 -0.00606478 0.00105863 0.00263235
O 9.69086338 10.91409531 21.28673397 0.00394181 0.00772428 -0.00116201
O 8.81081331 15.42968819 19.90275810 -0.00410062 0.00422708 -0.00488046
O 6.67853596 14.55545302 21.43323178 0.00098352 0.00507137 0.00435319
O 4.94662853 19.35878335 19.79168813 0.00051565 -0.00244497 0.00042409
O 9.34652715 14.16915983 14.26782389 -0.00522985 0.00290186 -0.00518216
O 10.80371884 9.77589967 15.50924088 -0.00045093 -0.00411682 -0.00228236
O 4.49502436 18.07437687 26.27050607 -0.00110602 0.00080708 0.00207917
O 5.60929498 13.30894325 27.19427600 -0.00485814 -0.00361255 0.00784100
O 8.41642807 10.82356461 32.93131947 -0.00733046 0.00203431 0.00034907
O 7.00635274 15.57730712 32.17211298 0.00491650 -0.00358848 0.00519772
O 4.81961386 14.69678998 33.06491914 0.00140538 -0.00161190 0.00049198
O 3.40903075 19.79211566 32.30540270 -0.00206909 0.00406322 -0.00138844
O 7.74313215 14.75547579 25.99112530 -0.00346876 0.00346433 -0.00873817
O 8.88379586 9.30895803 27.28043104 0.00427780 -0.00457016 0.00161190
O 7.41708043 27.72015291 2.80846999 -0.00584753 -0.00484753 0.00024586
O 8.74338517 22.75759435 3.27903671 -0.00296074 0.00135283 0.00317295
O 11.42287023 20.39117807 9.52725592 0.00050839 0.00321763 0.00480885
O 10.40088753 24.82696133 8.35402600 0.00353965 0.00051170 -0.00612364
O 8.28505962 24.13811081 9.51930260 -0.00360627 -0.00329280 0.00477362
O 6.47313465 0.00109946 8.15999000 -0.00574290 0.00631521 -0.00146631
O 10.82753303 24.12697279 2.53640081 0.00100246 -0.00265872 -0.00748749
O 12.32775912 19.08161739 3.47203491 0.00780205 -0.00103740 -0.00022590
O 6.02973951 27.72447581 14.23425374 0.00152736 -0.00100000 -0.00303318
O 7.39865102 23.29491899 15.45675002 -0.00647624 0.00221757 -0.00267544
O 9.96107927 20.63671458 21.21356067 -0.00015453 -0.00066660 -0.00008457
O 8.91515415 25.06466182 20.24149565 0.00707758 0.00230229 0.00056972
O 6.69644831 24.27394998 21.70787080 -0.00392538 0.00155815 0.00350607
O 5.11044656 28.77740918 19.99092128 -0.00430597 -0.00298310 0.00196113
O 9.19315101 24.24575088 14.00984981 -0.00501715 0.00425077 -0.00125377
O 10.97683453 19.07787036 15.14171107 0.00111437 -0.00028249 -0.00198850
O 4.66894227 27.95177475 26.41360384 0.00164469 -0.00608214 0.00086278
O 5.82206748 23.29539218 27.52596279 0.00228612 0.00032653 0.00503986
O 8.17220543 20.41171257 33.27773260 0.00156877 0.00177193 -0.00431906
O 7.26316134 24.85411070 32.20551885 -0.00117175 -0.00378451 -0.00252381
O 5.01844950 24.33863773 33.32771107 -0.00013643 -0.00000538 -0.00405914
O 3.53181896 28.76788127 32.10150769 -0.00174585 0.00892421 -0.00551708
O 8.02811176 23.98803955 26.23131215 -0.00239727 0.00210529 -0.00601543
O 9.42937232 19.40260369 27.33446561 -0.00279218 0.00241076 -0.00010044
O 14.42857911 8.70055334 2.35561214 0.00571557 0.00330670 -0.00533587
O 15.41802340 3.82472222 3.43429419 -0.00289779 0.00425425 -0.00442964
O 18.09125858 0.81171718 9.49946124 0.00370798 0.00515463 0.00959587
O 17.21472121 5.61529367 7.90437618 -0.00001069 -0.00384793 0.00457663
O 15.29629333 4.88947584 9.73868681 -0.00333693 -0.00160914 0.00350153
O 13.57484169 9.53976390 7.98628804 -0.00139886 -0.00428457 -0.00219452
O 17.53062812 4.76235045 2.16267666 -0.00067176 -0.00159164 0.00221768
O 19.35194475 0.22773371 3.67274896 -0.00217737 -0.00167748 0.00239203
O 12.95214940 8.66487306 14.28580450 -0.00103803 -0.00108518 0.00081650
O 13.96278005 3.75269447 15.09301579 -0.00050854 -0.00830862 0.00414864
O 16.55969392 0.57574170 21.47634214 -0.00162066 -0.00294076 0.00285613
O 15.48833243 5.92013552 20.00355377 0.00026266 -0.00265299 -0.00529009
O 13.47973021 4.95690128 21.45052520 -0.00552620 -0.00340217 0.00328082
O 11.81319884 9.84977642 20.01741881 0.00266978 0.00430913 0.00087564
O 16.09699375 4.89851031 14.16958503 -0.00458393 0.01088469 -0.00486897
O 17.73470260 28.79950338 15.41134693 -0.00303444 -0.00588571 -0.00075527
O 11.21374788 8.58514084 26.13746470 -0.00062024 -0.00283727 -0.00215920
O 12.70728199 3.66429215 27.05228548 -0.00719283 -0.00161359 0.00295193
O 15.06553696 1.17640410 33.00637914 0.00170558 0.00185869 0.00059839
O 13.82343031 6.08468442 32.18174403 -0.00067885 -0.00262599 0.00042618
O 11.68404260 4.86160624 33.21141123 0.00250694 -0.00226707 0.00252803
O 10.26824825 9.67082419 31.58415601 -0.00166498 0.00087599 0.00485322
O 14.51983974 4.87284965 25.87707273 -0.00187444 0.00315278 -0.00626252
O 16.30863926 28.83318729 27.36916433 0.00077242 0.00020760 0.00208404
O 14.55990367 18.23922328 2.47478052 -0.00242835 0.00231549 -0.00112637
O 15.64667626 13.54200361 3.48578213 0.00110220 -0.00188246 0.00385602
O 18.33332822 10.96522647 9.13186983 0.00658874 -0.00270762 0.00382291
O 17.09947800 15.64456087 8.34135709 -0.00059284 -0.00189786 0.00102618
O 15.08785061 14.26298179 9.32025593 -0.00110176 0.01057805 -0.00329052
O 13.41913304 19.25938182 8.05616310 -0.00217168 0.00032667 -0.00275815
O 17.81436045 14.44965543 2.05137256 0.00438441 0.00866425 0.00159862
O 19.46898292 9.65695502 3.60801444 -0.00182859 0.00044890 0.00237548
O 13.23131131 18.02748533 14.19581244 0.00663708 0.00066982 0.00409365
O 13.99536122 13.65502205 15.47513378 0.00036363 0.00270948 0.00103810
O 16.71502600 10.65697024 21.29852985 -0.00259229 -0.00029990 0.00153852
O 15.68801755 15.58991377 19.91486159 0.00053467 0.00034660 -0.00313368
O 13.77584902 14.69008055 21.41460745 -0.00404770 -0.00012350 -0.00917834
O 12.11377327 19.48077196 20.32227719 0.00019673 0.00072289 0.00204787
O 16.32100298 14.31258774 14.18636416 -0.00773768 -0.00484877 0.00794882
O 17.84155178 9.67457427 15.21858042 0.00122865 -0.00385471 0.00203960
O 11.20072907 18.33786011 25.84746487 -0.00105082 -0.00105444 -0.00326960
O 12.50531047 13.32205903 27.09657257 0.00396857 -0.00000861 -0.00694137
O 15.05777938 10.52140316 33.32416164 -0.00340406 0.00113708 -0.00144393
O 13.90439042 15.60604969 31.98406566 0.00748335 -0.00344505 0.00351577
O 11.72584179 14.66522955 33.08248568 0.00547161 0.00252672 -0.00164298
O 10.31899548 19.82971081 31.99322357 0.00238906 -0.00842064 -0.00033702
O 14.72531554 14.11580473 26.13375414 0.00204854 -0.00082187 -0.00595755
O 15.84973297 9.67083211 27.47540080 0.00153306 -0.00181672 -0.00409059
O 14.32057325 27.81254498 2.67688191 -0.00794033 -0.00632153 0.00591656
O 15.65207004 22.99826874 3.28266207 -0.00271010 0.00292226 -0.00047717
O 18.33206047 20.69771040 9.08019120 0.00752123 -0.00246687 0.00068264
O 17.27834172 25.09549195 8.23210687 -0.00512837 0.00152864 0.00085874
O 15.09739810 24.41806479 9.49041514 -0.00284021 0.00094313 -0.00831221
O 13.54662638 28.81446705 7.98924966 -0.00268388 0.00215912 -0.00293181
O 17.72956326 24.34376589 2.05460179 0.00206628 0.00182974 0.00028534
O 19.29854726 18.88818545 3.40945300 -0.01021885 -0.00171667 -0.00707017
O 12.92753765 28.02425769 14.23009870 -0.00294892 0.00030898 -0.00308221
O 14.29355877 23.15704669 15.70240615 0.00243627 -0.00640828 0.00096570
O 16.90006975 20.20955111 21.45438720 0.00227492 0.00145128 0.00243927
O 15.65708957 25.27801816 20.08168193 0.00154331 0.00403245 -0.00459486
O 13.78968325 24.50095413 21.72289233 0.00162458 0.00698333 0.00659831
O 12.02043997 0.18755135 20.17487156 0.00282771 -0.00600978 0.00265927
O 16.07656806 24.15525435 14.12070086 0.00377167 0.00046356 0.00255386
O 17.72954833 19.15505996 15.19195804 0.00048391 0.00058841 -0.00035868
O 11.39169341 28.21923782 26.16491302 -0.00118747 -0.00318205 -0.00407127
O 12.57623277 23.12730533 27.20461110 0.00454754 -0.00111990 -0.00438972
O 15.23507925 20.68813106 32.95861736 -0.00063437 0.00241138 -0.00351193
O 14.03688551 25.06355028 31.94081225 0.00036003 0.00512259 0.00047395
O 12.08387033 24.31666598 33.56420668 -0.00312140 -0.00036565 -0.00071116
O 10.29258549 0.02217492 31.72795731 0.00238513 -0.00442929 0.00149844
O 14.77240458 24.20985816 26.19107283 0.00002517 -0.00039436 -0.00224390
O 16.25116951 19.19657447 27.38256086 0.00170692 0.00348511 -0.01017819
H 0.08062746 9.12697942 2.79951373 -0.00818002 0.00612180 -0.01364787
H 2.56587082 4.17835868 3.10363208 0.00225849 0.00710510 0.00071682
H 5.17448784 0.60076718 9.16888398 -0.01283881 0.02183069 -0.00388794
H 2.40259160 5.62564208 8.77507952 -0.00243495 -0.00017605 -0.03424166
H 5.35305541 7.87229312 0.98034362 -0.00666458 -0.01377515 0.00470226
H 3.72332425 3.57540493 5.02221980 -0.00111753 -0.00391829 -0.00021152
H -0.52456284 1.10521077 11.17345763 -0.02743928 0.00663808 -0.00408835
H 1.42213841 6.21162368 6.68789800 -0.01252794 -0.02994519 0.02209460
H 3.93992000 6.64622563 10.70971488 0.01777134 -0.03302057 -0.02546961
H 3.80347286 1.99316683 6.89217215 0.01428400 -0.01199278 -0.00106586
H 1.15171966 3.05709914 1.01052974 -0.00913782 0.01507939 0.00938623
H 1.70889655 7.76963430 4.58799434 -0.00151459 -0.00106837 -0.02197456
H -2.06458724 5.35762032 35.54070263 -0.00098380 0.00107112 -0.00830750
H -0.17913957 0.61912690 6.13818258 -0.00126275 -0.01667895 0.02599757
H 2.40500102 4.16812211 12.11935512 0.00169575 -0.01231334 0.02347883
H 5.45560708 9.09566813 5.90212127 0.00311199 0.00545968 0.00038098
H 2.81285216 7.16604700 1.72583115 0.00020339 -0.00716641 0.01423978
H -0.28311861 2.27720414 4.21345940 -0.01614604 -0.00243564 0.01740920
H 2.42719086 2.64215639 10.17179005 -0.01163537 -0.00251290 -0.03180920
H 5.47180159 7.31025577 7.79703064 -0.00502914 -0.00790034 -0.00854134
H 4.82312593 4.94123052 9.54277108 -0.01334099 0.01154003 0.00170988
H 2.87555474 0.26498009 8.05338165 -0.00084203 0.00419445 0.00595869
H 0.06474257 4.93771963 2.09029946 0.00667825 -0.00176483 0.00271342
H 2.47859090 9.59450989 3.85611493 0.02336702 -0.02362997 0.00530414
H 5.64307008 3.76237238 7.97540817 0.00980552 -0.00067197 0.00532377
H 0.53783572 7.16346422 9.16353816 0.02771204 -0.00809108 -0.00884002
H 18.62717870 7.15416020 3.28427290 -0.01138290 0.01050458 0.01506871
H 2.83980938 1.16047016 1.97431620 0.00315164 -0.00196547 0.00387875
H 0.42748384 3.88945844 7.37572903 -0.00612097 0.00523772 -0.01161479
H 0.47104716 8.58589911 10.28885633 -0.00723009 -0.00942667 -0.00294447
H 5.09612294 6.90671430 3.31982463 -0.01047935 -0.03102073 -0.00012367
H 4.12527040 2.33431248 2.54673215 0.01515864 0.01516083 0.00594725
H -1.11663164 3.47941108 8.40305609 0.00039476 -0.01243418 0.02010423
H 1.96383116 7.94973482 9.69591632 0.01469506 0.01495148 0.02168869
H 5.01526753 5.64820067 4.52827414 -0.00844837 -0.00854849 -0.00617899
H 4.73534810 0.97960831 1.53585031 -0.00292628 -0.01607887 0.01169987
H -1.60843692 8.91580929 14.57601295 0.00729744 0.00729794 0.00339583
H 1.17420420 3.85043477 14.92995160 0.02613233 0.00291757 0.01163669
H 3.94572858 0.64691764 21.02727507 -0.02296628 -0.01005900 0.01142657
H 0.97405507 5.45808706 20.38574698 -0.03983531 0.02056741 0.01134503
H 3.84931608 8.27372102 12.73806276 0.02289622 -0.00607125 0.00475194
H 2.48656652 3.02653282 16.98696629 -0.01513201 0.01048366 -0.00468919
H -1.90898149 1.40974801 22.88335415 -0.01207529 -0.00530192 0.01980588
H -0.22153937 6.32555882 18.50966310 -0.00947291 -0.01361528 -0.00386611
H 2.36484332 6.85317083 22.15573452 0.00503779 0.01387515 0.00195548
H 2.33902899 1.81001142 19.00589702 -0.00125841 0.00395892 -0.03634285
H -0.42437680 2.84111316 12.96025167 -0.00339640 0.00482389 -0.02398387
H -0.36692518 7.72614039 16.72072561 0.01220061 -0.01212930 -0.01067728
H 1.14360314 5.37215453 11.71056368 0.00628472 -0.00226633 0.00881012
H -1.69599809 0.51090562 17.79299275 0.02171920 -0.01712046 -0.00756245
H 0.97768715 4.07790586 23.93419468 0.00923241 -0.02808096 0.00065296
H 3.71245055 8.97124574 17.39352931 0.00767817 0.00396801 -0.01462094
H 1.26560536 6.97668431 13.59306643 -0.00796011 -0.01225622 -0.00919606
H -1.55875579 2.08696465 16.07858417 0.00246058 0.00488655 0.00910352
H 1.24757657 2.83644592 21.84430280 0.01830372 0.01554541 -0.01104299
H 3.92707773 7.32383701 19.19683144 -0.01796155 -0.00165535 -0.00021422
H 3.42908757 5.05882200 21.04314763 0.00892807 -0.00964169 0.03019873
H 1.29882781 28.95260806 20.18706630 -0.00420345 0.00607186 -0.01107926
H -1.39081978 4.42594173 14.16644012 -0.01708165 -0.04014768 0.00403278
H 0.53061232 9.40316467 15.52424710 0.04622703 0.01774195 0.01921890
H 5.38273807 2.59051672 20.32474619 0.02919108 0.00997973 0.00114857
H -1.39560754 8.57181010 21.68824128 -0.03057357 -0.01408960 0.01640379
H 18.47412189 6.58623986 15.37873676 0.00648363 -0.01699635 -0.00374905
H 2.83614753 0.39921079 13.18963095 0.00359988 0.00555449 0.02148946
H -1.86503405 2.75812125 20.30344951 -0.01461628 0.01839975 -0.01161286
H 0.13335294 9.41551049 22.15513296 -0.01061916 0.01907459 0.00543141
H 4.97365970 6.25263534 15.55415037 -0.00555069 -0.01677081 -0.00917766
H 1.48219724 1.08203058 14.07016915 0.00261104 0.01667505 -0.01731699
H -0.97332440 3.82081366 19.23593664 -0.01986683 0.00698402 -0.00586942
H 0.17866102 8.00670645 21.03629291 0.03489131 0.02166940 -0.01925210
H 3.23737663 6.62608535 15.86403718 0.00808763 -0.01558023 -0.00385427
H 3.17990349 1.84658220 14.20772833 0.02831428 0.00980221 -0.01146294
H -3.48843925 8.94386089 26.48760212 -0.00863745 0.01668071 0.01585017
H -0.35464269 3.91532786 26.88608197 -0.01844956 -0.02052928 -0.01462452
H 2.29207611 0.55764369 32.86159796 0.01732123 0.00067745 0.01021231
H -0.59822569 5.27525892 32.54061522 0.01393107 -0.03150287 -0.02362998
H 2.26913365 7.99305999 24.36773399 -0.01111723 -0.03242634 0.00817736
H 0.80748670 3.15711018 28.78967121 -0.00352203 -0.01590462 0.00049613
H -3.57292201 1.50402749 34.74067802 0.00798732 0.01212802 -0.01453502
H -1.65823857 5.69261169 30.38234439 0.00864014 -0.00284233 -0.01387149
H 0.76342356 6.53654322 34.44724244 0.01600633 -0.01888453 0.00900166
H 0.67707043 2.01203743 31.03655639 0.00255570 0.01682095 -0.01299531
H -1.96869287 3.01284051 24.75672934 0.01335421 -0.00993320 0.00221258
H -1.70196318 7.29482961 28.23248270 -0.00257751 -0.00548937 0.01384618
H -0.36591782 5.47428449 23.59593638 0.01159898 -0.00859193 -0.01950490
H -3.20017906 0.44234132 29.89281451 0.00562978 0.01556369 -0.00090519
H 4.08998322 4.14132284 0.16043788 -0.00294876 -0.01929880 -0.01543955
H 1.98013724 8.98434662 29.53745479 -0.00340260 0.01068073 0.00052220
H -0.41653040 7.22227108 25.40237751 0.02395878 -0.00714000 0.00880400
H -3.17203128 2.01945990 28.00525597 -0.00300490 0.00893085 -0.01926003
H -0.56102398 2.38017149 33.67745794 0.00948203 -0.01686845 0.02422277
H 1.86235078 7.56836732 31.49266194 0.01863979 0.00481005 -0.00612350
H 1.93848529 5.06365730 33.15507629 -0.00124767 0.00172373 -0.00432852
H -0.39238187 0.35899112 32.28849757 0.01594338 -0.02049692 0.01601476
H -2.93123699 4.81430277 25.56488269 -0.00818166 -0.02251497 0.01457070
H -1.04144642 9.19497241 27.15569737 0.02210097 0.00021633 0.02593769
H 2.95291381 4.30381382 31.14901094 0.00192532 -0.00487481 -0.02759294
H -2.67466958 8.52510226 33.99091072 0.00132595 -0.00456467 -0.03989646
H 15.26153593 6.14341804 27.90742123 0.00608652 -0.00055040 0.00974746
H 1.44198372 1.93608058 26.51719079 -0.02358036 -0.01870021 -0.01183761
H 16.14916092 4.31445237 31.42750816 -0.01126704 -0.01314623 -0.01491894
H -0.99191400 8.30340622 33.24070682 -0.01689337 -0.00467320 0.01197191
H 2.15291573 6.88200904 27.23751132 -0.00739350 -0.00294908 -0.01427646
H 1.59711997 0.56657631 25.51268261 -0.01061581 0.00455475 -0.01177409
H -3.75778401 2.82940658 32.02429433 0.00669554 0.00238006 -0.00839993
H -2.42385956 7.28239469 32.77264334 0.00754780 -0.00409093 0.01969610
H 1.98102616 5.59418208 28.45557037 0.03007697 -0.01879739 -0.00135019
H -0.09450110 0.96292629 26.21223334 0.02324574 -0.00676197 0.01414187
H 0.01153320 18.62249041 2.63955032 -0.01008432 -0.01481548 0.01305775
H 2.79814848 13.76538056 3.34701343 -0.00085009 0.00826682 -0.01531716
H 5.17368075 10.10060774 9.26102945 0.00192655 -0.02500834 -0.00260141
H 2.49815238 15.04805739 8.63799820 0.00772669 -0.00771386 0.03075830
H 5.57168339 17.78288190 0.83797463 -0.01302691 -0.01154584 0.02157072
H 3.89866551 12.94216026 5.47176621 -0.00036233 -0.00889019 0.00870323
H -0.27142401 11.16757319 10.75136024 0.01319096 -0.01206861 0.01157407
H 1.45361828 15.82410152 6.50412565 -0.00425741 -0.02560240 0.00813957
H 4.07805263 16.10866666 10.73988279 -0.01694850 -0.00308245 0.02888573
H 3.83378544 11.13971624 7.06669701 0.00606765 -0.02696047 0.01431213
H 1.28456239 12.78485224 0.97739537 -0.00514224 -0.00531569 -0.02671205
H 1.43251219 17.50249224 4.75475061 0.00303620 -0.02991214 -0.01175290
H -2.03123871 14.92407693 35.27394628 -0.01565754 -0.00129935 0.02424699
H -0.23818470 10.39578521 6.14758028 -0.00120257 -0.02741313 -0.02340731
H 2.35995006 13.59675538 12.06988546 -0.00511050 0.01182713 0.01440718
H 5.53464192 18.36974096 5.64517402 -0.01604923 0.01506830 -0.00742783
H 2.67359934 16.57487430 1.69142804 -0.03117980 0.00835004 0.00280073
H -0.27696863 12.17488397 4.40897100 0.02204531 0.00853726 0.01090412
H 2.36380569 12.14785882 10.34368552 -0.00979558 -0.00480124 0.01057760
H 5.54829585 16.66704420 7.48438415 -0.00340872 -0.00903885 0.00924962
H 5.05367279 14.26300216 9.53767120 -0.00788747 0.01313023 -0.00148401
H 2.71656123 9.49652234 8.08711962 -0.01824916 0.00808437 0.01597098
H 0.29759628 14.39994654 2.20121762 -0.01092784 -0.00450686 0.02115238
H 2.45247018 19.03075029 3.68500266 -0.01083491 -0.01688283 -0.00246294
H 7.09636623 12.61218239 7.76882135 -0.01230469 -0.00286544 0.01754547
H 1.19644830 17.13908867 9.47637392 -0.01117371 0.00188051 -0.02086828
H 19.14926617 16.54647137 3.64453339 -0.00319798 0.00881831 0.00710958
H 4.71585695 10.59125717 1.46337619 0.00668634 0.03910579 0.00866290
H 0.25072560 12.21434912 8.51414666 0.00077197 -0.01084791 -0.00216611
H 0.20899463 18.34603549 10.28636858 -0.01432192 -0.01026080 0.00191251
H 5.22251501 15.23698716 4.41820753 -0.00437760 0.00721368 -0.00992888
H 2.97670849 10.88308112 2.26370242 0.00210696 -0.01249459 0.01054162
H 0.04665541 13.63807820 7.43333682 0.00073779 -0.00161864 0.01192399
H 1.88836971 18.64594984 10.16675096 -0.00100638 -0.01288499 0.02004901
H 6.49379157 15.72765984 3.42028544 0.01203815 0.01217850 0.00160479
H 4.42933675 11.91759359 2.71954472 0.00428592 -0.00335484 0.02430729
H -1.74674858 18.52206223 14.55116129 -0.00317135 0.01152680 0.01047201
H 1.13031139 14.03099866 14.85358124 -0.03005662 0.00673637 0.01387549
H 3.82444987 10.55943699 20.90273850 0.00626054 -0.00659168 -0.01856514
H 1.20457234 15.45955714 20.47931866 0.01540793 0.00134383 0.02229260
H 4.12105425 17.63315851 12.66571234 0.00340039 -0.01045078 -0.02071912
H 2.38672775 13.17645817 16.68990626 0.01330237 0.00764574 0.01469619
H -1.90713578 11.07209896 22.93999257 -0.00438136 0.00177936 0.01430461
H 0.06128721 16.10832248 18.47370525 -0.01456646 -0.00762950 -0.00017938
H 2.77242061 16.61831406 22.25402061 -0.00681988 0.00051086 0.01296892
H 2.49144649 11.50660585 18.46511309 -0.00856384 -0.01804627 0.00887490
H -0.26652979 12.39022513 12.94741559 0.00333498 0.01947193 -0.01277245
H 0.12814317 17.43319244 16.37989786 0.03215866 0.01052656 0.00887528
H 1.30201692 15.17460678 11.77421212 0.00896866 -0.01961019 -0.00888915
H -1.66226881 10.53957395 17.73371704 0.00676538 0.03282214 -0.01821381
H 1.09414195 14.13656109 23.71201445 0.01475422 -0.00314260 -0.00502952
H 3.91444452 18.89743000 17.35486866 0.00465468 0.00448250 0.00477401
H 1.38117219 16.84581696 13.43474377 0.01890873 -0.01874850 0.01320885
H -1.60142242 11.94861180 15.72667431 -0.00194796 -0.00092033 -0.02038311
H 0.98418454 12.54679401 21.81429881 0.02695047 -0.01157860 -0.02608803
H 3.95834713 17.61023898 19.52028444 -0.01598084 -0.01632833 0.01607229
H 3.50364852 14.49570058 21.57417145 0.00066069 0.00903019 0.00104644
H 1.41876375 9.76116989 19.62972706 -0.02364558 0.00505720 -0.02386415
H -1.21585041 14.22237292 13.99799609 0.01821344 -0.00277141 -0.00905993
H 0.83508641 19.23629506 15.37355276 0.00985339 -0.02513435 -0.00636207
H 4.73170769 12.69939567 20.09125639 0.01815600 0.02284420 -0.00763266
H -1.00312117 17.49452425 21.45410733 0.01955448 0.02279564 -0.01899046
H -1.76059214 15.47975236 15.61891299 0.02290948 -0.00804094 -0.01131260
H 2.94850662 10.73201598 13.25999912 -0.00260934 -0.00856029 0.00602271
H -1.05737509 12.67830222 20.08829381 -0.00372284 -0.00295907 -0.00743836
H -0.14081885 18.85470904 22.16561625 0.00121326 0.00189026 0.00845113
H 3.57249795 16.88244583 15.20347971 -0.01731996 -0.01204060 0.00937498
H 1.24821470 10.54818576 13.44314160 -0.00070022 0.01857711 -0.00387694
H -0.98932319 13.97597422 19.07865569 0.00394886 -0.01259112 0.00898031
H 0.74906470 17.76988378 21.24944187 -0.02245861 0.00470962 -0.00561362
H 3.05830079 15.67085254 16.40097398 0.00666252 0.00961386 0.00567261
H 2.09321278 11.82474223 14.37037366 0.01785860 0.01812430 0.00580590
H -3.04156758 18.86888866 26.41907134 -0.00971622 -0.02041600 -0.00815885
H -0.35221885 13.80092532 26.85369215 0.00412440 -0.00211949 0.02192826
H 2.14530756 10.19299719 32.66696559 -0.01705531 -0.00302002 -0.03460010
H -0.63522469 14.97342213 32.42767438 -0.00091082 0.00735763 0.01230898
H 2.51636194 17.82629462 24.35722774 -0.01568563 0.00911780 0.00576775
H 0.56660404 12.93481550 28.82445710 0.00919931 -0.01634656 -0.02116006
H -3.47211256 10.99854722 34.75655110 0.00022730 -0.00618010 -0.01697988
H -1.54296764 15.67490382 30.38003664 0.00308204 -0.02432945 0.03346638
H 0.80904328 16.25724512 34.59659376 0.00495965 -0.01286703 0.00055982
H 0.56387360 11.14922461 30.65167042 -0.01841810 0.02065907 -0.02322338
H -1.81768637 12.79738604 24.58708486 -0.02378027 0.00011797 0.00087877
H -1.53583674 17.27316914 28.56286117 0.00643631 -0.01290128 0.01709294
H -0.17880015 15.56357634 23.32352142 0.02173303 0.01067014 -0.00132875
H -3.44610216 10.17848317 29.58134567 -0.01085964 -0.02236472 0.00410419
H -0.57541249 13.89883325 35.53770073 0.00166056 -0.02364198 -0.00439128
H 2.35214115 18.66310454 29.90958954 0.00470196 0.00455117 -0.00160008
H -0.16741898 16.84364928 25.31559132 0.00314095 0.01584988 0.01550058
H -3.35616168 11.80913947 27.85168297 -0.02182595 -0.02171100 0.01366303
H -0.67526405 12.16827037 33.74032305 -0.01320967 0.02674807 0.00292778