2160
Time=52000.00000004 pbc="T T T" Lattice="20.64563416 0.00000000 0.00000000 0.00000000 28.85619057 0.00000000 -4.73757944 0.00000000 35.68823801" energy=-13801.77087557 virial="-67.02516291 -8.15252361 50.31416937 -8.15252361 1.85235996 -2.96289195 50.31416937 -2.96289195 -2.23636056" stress="-0.00081437 -0.00038735 0.00247778 -0.00038735 0.00238249 -0.00010594 0.00247778 -0.00010594 0.00219455" Properties=species:S:1:pos:R:3:vel:R:3
O 0.44500800 8.53267465 2.68985686 0.00328862 0.00080159 0.00339260
O 1.76819218 3.66661712 3.73632419 0.00114651 -0.00443755 0.00076474
O 4.88685972 0.70109427 9.73210411 0.00093372 -0.00268425 -0.00609996
O 3.34538359 5.86071448 8.64751211 -0.00104523 -0.00637142 0.00134193
O 1.22225582 4.82630739 9.64473868 -0.00006432 -0.00217285 -0.00171425
O -0.20233968 9.74313629 8.05554690 0.00086791 -0.00844842 -0.00020731
O 4.03804930 4.30775673 2.49561945 -0.00351218 -0.00893203 -0.00476242
O 5.59977452 28.66808603 3.65798903 0.00195643 0.00075809 -0.00252523
O -0.94631168 8.27294304 14.62083052 0.00194692 0.00063640 0.00074792
O 0.14409766 3.88269019 15.41486236 -0.00314489 0.00168807 -0.00465785
O 2.92467899 1.30969669 21.37764898 0.00063455 -0.00471210 0.00689212
O 1.81463661 6.14138520 20.41036923 -0.00340222 0.00370194 0.00381694
O -0.29604041 4.85784784 21.57197576 0.00036548 -0.00174251 0.00162748
O -1.88158360 10.07648028 19.85302523 0.00144308 0.00693139 -0.00325349
O 2.28106213 4.63656057 14.03196647 -0.00445134 -0.00362511 0.00500702
O 3.87181824 0.19795207 15.66398193 0.00335769 0.00547941 -0.00110658
O -2.34500065 8.70629835 26.23651382 0.00131603 0.00130461 0.00020126
O -1.20826207 3.55489212 27.24090889 0.00811956 -0.00445071 0.00085949
O 1.40385955 1.09871696 33.08010892 -0.00635703 0.00069887 0.00060420
O 0.12887659 5.76854553 31.95584948 -0.00090617 -0.00014612 0.00296864
O -2.04072429 5.24842393 33.43002295 0.00450689 0.00377501 0.00208437
O -3.06501880 9.38959638 32.08293314 -0.00680680 0.00328627 0.00119694
O 0.89974817 4.66358160 26.06198116 -0.00019406 0.00496583 0.00586991
O 2.30519574 28.78960846 27.47890816 -0.00216172 0.00360159 0.00394081
O 0.73011996 18.48896845 2.25551436 0.00247330 -0.00294940 0.00051256
O 2.00341280 13.36545857 3.41866101 0.00444427 -0.00198087 -0.00283573
O 4.65499520 10.70963711 9.26300654 0.00821401 0.00232748 0.00078239
O 3.34541505 15.63410947 8.43581925 -0.00969440 -0.00099736 -0.00225371
O 1.35007335 14.10882116 9.76328545 -0.00047416 0.00398865 -0.00011361
O -0.19273878 19.21714197 8.23721985 0.00357028 -0.00114776 -0.00343681
O 4.05710565 14.38507374 2.24248046 0.00342051 -0.00025567 0.00109793
O 5.58173181 9.36849451 3.85886066 -0.00195416 0.00278431 -0.00071546
O -0.72106679 18.28129788 14.13672592 -0.00502220 0.00182866 0.00209745
O 0.46102246 13.33538003 15.11524251 0.00169290 0.00496054 0.00172325
O 2.91858479 10.91715542 21.19575458 -0.00637370 -0.00110894 -0.00023941
O 1.90433566 15.46945816 20.51397102 -0.00361780 -0.00041096 -0.00450014
O -0.39188796 14.97063692 21.44834229 -0.00002311 0.00322152 -0.00122265
O -1.85593598 19.30359508 20.39204699 0.00235543 -0.00538212 -0.00443353
O 2.41425949 14.39889886 13.94944953 0.00009159 -0.00280705 -0.00390835
O 4.09839970 9.63233106 15.62817748 -0.00029753 0.00121639 0.00422779
O -2.31474929 18.34839128 26.06876493 -0.00129108 0.00272241 -0.00740140
O -1.26939861 13.34823470 27.38015053 0.00056633 0.00062714 -0.00146500
O 1.58757300 10.52512992 33.43171491 -0.00024443 -0.00139698 -0.00019642
O 0.26394966 15.37895478 32.05867247 0.00102563 0.00494273 -0.00177814
O -2.11626938 14.66982811 33.08743977 -0.00056276 0.00461008 -0.00099188
O -3.29008125 19.13166432 31.81360873 0.00303575 0.00600209 0.00183074
O 0.77624505 14.50249151 25.99161866 0.00548533 -0.00341675 0.00236396
O 2.53879509 9.25134453 27.39695809 -0.00492859 0.00003921 -0.00038958
O 0.74130476 27.62332812 2.48921571 -0.00047127 -0.00283117 -0.00047638
O 1.88304465 23.09766738 3.78680270 0.00133244 0.00300904 0.00187196
O 4.61379514 20.20280779 9.65633478 0.00297564 -0.00467520 0.00029532
O 3.42853162 25.01264038 8.62431847 -0.00238195 -0.00553340 -0.00098981
O 1.31979911 23.79057868 9.43127044 -0.00322096 -0.00345905 0.00444534
O -0.18495810 0.12838008 8.77489874 0.00192848 0.00104626 0.00334084
O 3.88967987 23.78230173 2.28151344 -0.00699679 -0.00388213 -0.00063927
O 5.46699106 18.98800978 3.49899512 0.00259032 0.00002354 0.00740358
O -0.84888466 27.68377839 14.26769241 -0.00127229 -0.00019987 0.00108643
O 0.41122319 22.78527125 15.46436482 0.00182441 0.00354944 0.00042119
O 2.87243692 20.43163765 21.65644912 -0.00012880 0.00349621 0.00346574
O 1.69707371 24.97893938 20.26681268 0.00070256 -0.00140791 0.00184721
O -0.27221379 23.77688357 21.76685489 0.00394668 -0.00741696 -0.00990149
O -1.84158505 0.00472362 19.97204437 -0.00226501 -0.00022050 -0.00003587
O 2.49593175 23.92317974 14.25134441 -0.00180997 -0.00435521 0.00304959
O 3.95367846 19.28981385 15.94644731 -0.00019625 0.00544919 -0.00157520
O -2.33434544 27.83310476 25.98830886 -0.00445894 -0.00056806 -0.00321131
O -1.15880416 23.05812097 27.31687447 -0.00285807 0.00782136 0.00521349
O 1.50665776 20.08216836 33.22204114 -0.00080093 -0.00118413 -0.00575924
O 0.18419355 25.11573387 32.25505019 -0.00286359 0.00152485 0.00045186
O -2.06366496 24.52746652 33.28019489 0.00051990 -0.00127248 -0.00130438
O -3.28704498 0.27452719 32.38808895 0.00502996 -0.00315940 0.00358692
O 0.68052519 24.28328690 26.23180415 -0.00675453 0.00459769 0.00422928
O 2.34311822 19.26886173 27.53736047 -0.00256081 0.00163390 0.00441322
O 7.45925766 8.48264021 2.33385150 0.00518932 0.00292115 0.00042807
O 8.77633452 3.94066107 3.43037856 -0.00325660 0.00080077 0.00224666
O 11.52010990 1.35571570 9.24399492 0.00145649 -0.00160797 -0.00211291
O 10.18375351 6.19919027 8.16028818 0.00073374 -0.00604638 0.00106423
O 7.97873389 5.18944939 9.39068740 -0.00170813 0.00073139 -0.00355546
O 6.75650362 9.92755492 7.98695877 -0.00079937 0.00014889 -0.00001444
O 10.85933353 4.61140927 2.16642666 0.00236454 -0.00468900 -0.00068400
O 12.45962277 28.80180843 3.48895366 -0.00601382 0.00720081 0.00166548
O 5.83299950 8.30341126 14.34948019 0.00408338 0.00723846 -0.00617961
O 7.15782250 3.84510842 15.45748596 0.00154820 -0.00149957 -0.00533423
O 10.10952253 1.16054077 21.32452525 0.00272114 -0.00177295 0.00190299
O 8.38523536 6.37290744 20.53808045 0.00214040 0.00009917 0.00010697
O 6.50150900 4.64474765 21.45428211 -0.00712544 -0.00328543 0.00128977
O 5.18707351 9.99983572 20.11825046 0.00490019 -0.00086464 0.00235880
O 9.43653207 4.59498372 14.47785288 -0.00564136 -0.00335583 0.00236371
O 10.90567134 0.03625336 15.37315876 0.00824636 0.00342615 0.00092394
O 4.69002808 8.55077459 26.11828263 -0.00363460 0.00173413 -0.00217859
O 5.63229707 3.76959889 27.37287405 0.00014368 -0.00324144 0.00316844
O 8.40796571 0.74410409 33.55532167 -0.00045134 0.00241315 -0.00141723
O 7.21341701 5.78870332 32.32356073 0.00204506 -0.00000508 -0.00631599
O 5.17709271 4.71558885 33.46146751 -0.00060114 0.00470750 0.00464501
O 3.64160413 9.75007868 32.08772249 0.00904932 -0.00143221 0.00409016
O 7.75482491 4.66099867 26.03941206 0.00244973 0.00116181 0.00550953
O 9.08804518 28.59039117 26.90029101 0.00255323 -0.00227818 0.00096274
O 7.33818956 18.69035291 1.71823987 -0.00038868 -0.00206251 0.00164949
O 8.93947027 13.73704047 3.54309837 -0.00261605 -0.00175859 -0.00129697
O 11.49061069 11.05718949 9.11958719 0.00039542 0.00097663 0.00156118
O 10.37513034 15.80142964 8.47617593 0.00243966 -0.00063497 0.00126212
O 8.21117663 14.64608592 9.69731102 0.00140653 0.00629636 0.00024086
O 6.54094711 19.54648440 8.04799292 0.00530226 0.00370697 0.00380076
O 10.84382686 14.54853802 2.20485737 -0.00472053 -0.00238797 -0.00551232
O 12.36723834 9.85273791 3.34407149 -0.00379232 -0.00129792 0.00264291
O 6.02839530 18.22247250 14.53088244 -0.00242780 0.00644660 -0.00360085
O 7.13812115 13.51881852 15.33507658 -0.00593508 -0.00423219 -0.00454031
O 9.82202483 10.83294594 21.34190386 -0.00079727 -0.00080063 -0.00375051
O 8.73982473 15.30409415 20.03062846 -0.00522113 -0.00036311 -0.00248239
O 6.82357418 14.52581459 21.55094289 -0.00399162 0.00532628 0.00450251
O 4.90952646 19.64512918 20.16532931 0.00144088 -0.00660504 0.00187201
O 9.32849796 14.12021133 14.35586269 0.00088228 0.00181116 -0.00187487
O 10.74515105 9.19687213 15.34535373 0.00327157 0.00026025 -0.01029900
O 4.34454197 18.16581674 26.17785068 0.00553404 0.00254410 0.00486501
O 5.76176318 13.29726097 27.56874845 0.00226719 0.00520280 0.00516529
O 7.98344946 10.48309530 33.71016913 -0.00250283 0.00174079 0.00487007
O 7.12432304 15.47837100 31.73466627 -0.00437598 0.00492368 -0.00388164
O 5.05774126 14.54310323 33.03652855 -0.00149963 -0.00130544 0.00146759
O 3.57605703 19.29461946 31.79033884 0.00033360 -0.00349551 -0.00194540
O 7.70552725 14.29649532 26.27042622 0.00473604 -0.00397091 0.00422170
O 9.47084091 9.62906270 27.62054885 0.00402505 0.00697497 0.00614378
O 7.65606711 27.72074836 2.40573635 -0.00822076 -0.00135969 -0.00042104
O 8.64777456 23.02858038 3.46833898 0.00192047 -0.00340108 0.00082090
O 11.35956994 20.08600794 9.58309992 -0.00151220 -0.00295084 0.00252656
O 10.13753486 25.24400563 8.47919400 -0.00428954 0.00070692 0.00049686
O 8.17450443 24.05703409 9.77159056 -0.00813113 -0.00538968 -0.00437368
O 6.79201238 0.29574087 8.18404011 0.00058795 0.00194393 0.00002614
O 10.94026692 23.84891053 2.26995506 0.00031408 0.00254503 -0.00059142
O 12.33140085 19.10682769 3.50925846 0.00013715 0.00512225 0.00058971
O 6.02303975 27.99952099 14.26559842 -0.00950281 0.00111878 0.00150197
O 7.27113644 23.17662271 15.35546635 0.00146246 -0.00543973 -0.00315266
O 9.88889058 20.10656390 21.44188215 -0.00150758 0.00453828 0.00449165
O 8.59693937 25.25534366 20.19169722 0.00107404 -0.00356248 -0.00126692
O 6.47773698 24.32066381 21.44576618 0.00133875 -0.00415670 -0.00099518
O 5.06119324 0.07869235 20.16302504 0.00312002 -0.00358326 0.00112321
O 9.12309388 24.19030749 13.99003949 0.00819339 0.00512214 -0.00568869
O 10.87754868 18.95580488 15.52446355 0.00042303 0.00101698 0.00411824
O 4.39594637 27.89731704 26.24706985 0.00557063 -0.00265228 0.00598459
O 5.56099026 23.12039711 27.23653804 0.00429625 0.00046494 0.00179870
O 8.16430376 20.43684982 32.96517024 -0.00022457 -0.00342100 -0.00723695
O 7.13912979 25.36618909 32.24238584 0.00207135 0.00213113 -0.00320140
O 5.29384405 24.21698316 33.45420647 -0.00394739 0.00140005 -0.00010813
O 3.50463517 28.64419355 31.90035151 0.00580809 -0.00045427 -0.00152452
O 7.66058164 23.93866645 25.92435965 -0.00304729 0.00009409 -0.00701617
O 9.56288594 19.11945975 27.36008435 -0.00093824 0.00013268 0.00135738
O 14.10400594 8.36735142 2.57512143 -0.00085730 -0.00108241 -0.00038583
O 15.65487857 3.82906384 3.70717049 -0.00334728 0.00263967 -0.00052634
O 18.28697450 0.95465777 9.81531298 -0.00223997 0.00048384 -0.00214245
O 16.90473313 5.71528718 8.34812905 -0.00166471 -0.00143752 -0.00064878
O 14.84000203 4.65016210 9.56405609 -0.00112434 0.00359590 -0.00350706
O 13.53399908 9.59784906 8.17181580 0.00040392 0.00164893 0.00040203
O 17.68112593 4.64116303 2.54376730 -0.00149653 -0.00025125 0.00597739
O 19.27469903 28.73316553 3.77635465 0.00034471 -0.00143075 -0.00562035
O 12.94458828 8.73283511 14.03500438 0.00572034 0.00669316 0.00269178
O 14.20201886 3.65097513 15.35315459 0.00226510 -0.00947586 0.00213257
O 16.98006971 1.25412269 21.32219806 -0.00501616 -0.00104485 0.00142615
O 15.31591723 5.89177537 20.30724612 -0.00038630 -0.00026005 -0.00178207
O 13.61969663 4.73508692 21.58368889 -0.00131925 -0.00079656 0.00157091
O 11.97743612 9.87550960 20.37221126 0.00023896 0.00104848 0.00476187
O 15.98918900 4.82175003 13.97630084 -0.00123350 0.00199330 -0.00284477
O 17.71295821 28.76647419 15.52100213 0.00473738 0.00067610 0.00281621
O 11.49751195 8.30988031 26.34524053 0.00199762 -0.00525936 0.00188112
O 12.84975870 3.53587736 27.09764234 0.00239062 0.00213661 0.00835306
O 15.15251969 1.24741379 33.31672871 0.00195069 -0.00333216 -0.00936239
O 13.85799622 6.08486619 32.59774202 0.00214510 0.00686928 0.00143542
O 11.91046733 4.71729292 33.82197086 0.00413894 -0.00018896 0.00400453
O 10.39534035 9.67268412 32.48090948 -0.00001213 -0.00261779 -0.00200648
O 14.82169115 5.00181479 26.02940055 -0.00071760 0.00323728 -0.00617046
O 16.44404136 28.63971748 27.50544947 0.00844445 0.00287763 -0.00092967
O 14.58816034 18.18918080 2.27811277 0.00120185 0.00197398 0.00348451
O 15.76004022 13.70639022 3.93939110 -0.00039881 0.00191843 -0.00151338
O 18.41556393 10.44606037 9.54867630 -0.00060189 0.00036073 0.00382497
O 17.29066325 15.42108933 8.34847947 -0.00084954 -0.00079492 0.00404848
O 15.28732729 14.55228311 9.70681366 0.00080710 0.00011254 -0.00527626
O 13.73340397 19.23581212 8.39904610 -0.00251827 -0.00938244 0.00118668
O 17.79312924 14.48996399 2.43621987 -0.00307250 -0.00019913 0.00206511
O 19.24348189 9.85290133 3.83398148 -0.00208903 0.00057579 -0.00080921
O 13.04793877 17.98642679 14.54969848 0.00598785 0.00135054 -0.00242082
O 13.99794444 13.34344967 15.66220100 -0.00110636 0.00151377 -0.00361622
O 16.54735715 10.65136273 21.49990368 -0.00880968 0.00119315 -0.00333406
O 15.64045472 15.51997475 20.41398677 -0.00547364 0.00008777 0.00082190
O 13.43857694 14.70209610 21.30206811 -0.00197728 0.00500697 -0.00567371
O 11.66521399 19.26931549 19.92662100 0.00167744 0.00509748 -0.00369503
O 16.14174597 14.19738280 14.28451643 0.00233637 0.00158367 0.00183822
O 17.63234796 9.56557184 15.58113559 0.00007769 -0.00160822 -0.00148923
O 11.53528137 18.34275472 25.96464326 -0.00447818 -0.00072989 0.00015429
O 12.62395670 13.32727521 27.72728135 0.00327591 0.00041789 0.00108102
O 15.38583237 10.78878904 33.37884382 0.00337571 -0.00162665 -0.00384112
O 13.83952851 15.93082411 32.24767321 0.00026297 -0.00030493 -0.00415170
O 12.08874143 14.48528682 33.48712979 0.00418914 -0.00456790 -0.00325916
O 10.37762735 19.20048102 31.69144788 -0.00413016 0.00312111 0.00284376
O 14.54175341 14.50384936 26.28687386 -0.00161263 -0.00224176 -0.00154157
O 16.31046348 9.56031180 27.74710705 0.00461543 0.00147055 0.00255277
O 14.54677211 27.64540039 2.46325469 0.00559448 0.00344631 -0.00034402
O 15.57544480 22.99953400 3.60848599 0.00731137 -0.00364443 0.00133927
O 18.46503560 20.55837300 9.29893487 0.00897143 0.00770813 0.00349101
O 17.29906507 24.86573932 8.30832215 -0.00742669 -0.00682363 0.00354978
O 14.92808284 23.90596501 9.70744317 0.00445220 -0.00468436 0.00010190
O 13.51437076 0.09291511 8.11980011 0.00525130 -0.00000968 0.00052693
O 17.56389090 23.85324960 2.36186232 -0.00139074 0.00191889 0.00052647
O 19.31737371 19.14221908 3.65800089 -0.00004469 0.00157089 0.00630547
O 12.91329511 27.75902763 14.13249197 0.00534727 0.00278958 0.00274627
O 14.03775201 22.87491734 15.27744815 -0.00842215 0.00143170 -0.00488743
O 16.68682828 20.35729168 21.20535960 0.00448062 0.00529647 0.00025389
O 15.42790567 25.12518946 20.23911937 0.00002763 -0.00351993 -0.00647782
O 13.25558546 24.17443091 21.21970771 0.00006172 0.00017845 -0.00146749
O 11.92466173 28.78405687 19.94371285 0.00081937 -0.00175059 0.00288853
O 16.06115500 24.00628571 14.07506765 0.00398650 -0.00163876 -0.00222660
O 17.79605379 18.82397492 15.60464148 0.00105564 -0.00306054 0.00183685
O 11.40842829 28.01492669 25.83996267 0.00096921 -0.00586056 -0.00172326
O 12.42684623 23.03021631 26.99349036 -0.00274176 -0.00141985 0.00347525
O 15.34821014 20.70474506 32.91349604 -0.00534260 0.00178320 -0.00043756
O 13.97094383 24.97881775 31.98824128 -0.00087031 -0.00426607 -0.00049683
O 11.83583372 24.06464292 33.17618737 -0.00031672 0.00152605 0.00371364
O 10.38142810 28.84285097 31.82181523 -0.00007598 0.00302843 0.00127538
O 14.56673174 24.09773737 25.86649798 0.00228958 0.00057258 0.00142798
O 16.22026246 19.37168468 27.30415641 0.00389285 -0.00221775 0.00042424
H -0.30161976 9.15083159 2.89568074 -0.00135027 0.00269566 0.00286184
H 2.67493896 3.79378722 3.29584991 -0.00997550 -0.02363037 0.01710502
H 5.78259111 0.58391446 9.16990902 0.00678637 -0.00096163 -0.00077593
H 2.46053931 5.47010452 8.91905311 -0.00300386 0.02981949 -0.00531368
H 5.56429612 7.98229748 0.48398034 -0.00129930 0.00841952 0.00863300
H 3.88250863 2.90287922 5.12932163 0.00649507 -0.00058702 -0.00248453
H -0.28823938 1.54623323 11.31428553 0.04102518 0.03028772 0.02340559
H 1.26176878 6.40579546 7.18814552 0.02257941 0.00319118 -0.01173467
H 3.77434946 6.34300679 10.76267961 -0.01494121 0.00960750 -0.03272033
H 3.88236041 1.49385248 7.06362777 -0.00689689 -0.02380114 -0.00503480
H 1.04836478 3.01554399 1.35876806 0.00687577 -0.02492765 0.01591014
H 1.31641217 7.58272128 5.06360218 0.00514431 0.01355756 0.03104699
H 2.63594442 5.55868013 0.25834857 -0.00791281 0.00582715 -0.00580995
H -0.21844931 0.54681974 6.42612995 0.00809274 0.01120236 0.00727021
H 2.67228336 3.99345630 11.81833529 -0.01444385 -0.00443484 -0.02355566
H 5.48713228 8.47784235 5.65465485 0.02291035 -0.02449109 -0.00351452
H 2.39755804 6.84372839 2.01134954 0.00480207 -0.00255889 -0.00065721
H -0.27261972 2.21923189 4.49507347 -0.03233375 0.00503699 0.01334895
H 2.87950885 2.16775962 10.13929669 -0.00773504 0.01600118 -0.00052345
H 5.50380351 6.83691120 7.52824823 0.01746466 -0.00302160 -0.00522173
H 4.95662843 4.94705819 9.51063116 0.01668325 0.00874380 -0.02026539
H 2.86781620 28.52301715 8.03971594 0.00024423 -0.01113037 0.00560234
H 0.17295313 4.81650665 2.43661190 -0.00592896 -0.00831607 -0.00116317
H 2.35235330 9.32402428 3.84147439 -0.01070914 -0.03063090 0.00538919
H 7.11989386 2.73224702 8.12863605 0.00820022 -0.01451993 0.04188857
H 1.14510537 8.70511114 10.40086070 -0.00676620 -0.02624870 -0.01460267
H 18.16726997 6.24888531 4.40977901 -0.02094653 -0.01187621 0.00096486
H 4.75746600 0.98309854 1.56613074 0.01207535 0.00055643 0.01384586
H 0.67406734 3.22170931 7.86115224 0.00108213 0.00388647 0.02486755
H 2.29017872 8.01172548 9.27048770 -0.00425844 -0.01030808 -0.01521531
H 5.26566438 6.60293637 3.57457541 -0.01270264 -0.00525214 -0.01747237
H 3.28176116 28.74314262 1.64669979 0.00500229 0.01061630 0.02953692
H -0.77748358 4.16526032 7.43864705 -0.01277913 0.00122846 -0.00772339
H 0.56913255 7.51779452 9.20428374 -0.00793728 -0.00396525 -0.00111282
H 5.27663354 5.17748039 4.82509518 -0.00505537 0.01582373 -0.03995123
H 3.24594643 1.50730525 2.30975326 -0.01494826 0.00379888 0.03216698
H -1.74679270 8.84479529 14.91011686 -0.03421978 -0.00081830 0.01707056
H 0.98568160 4.26850075 15.00009684 0.01088133 -0.00178852 0.00127324
H 3.81686067 0.90393993 21.08335796 -0.01531575 -0.01354737 -0.01206358
H 1.01388466 5.54998820 20.46410590 0.00782473 0.01045730 0.00741050
H 3.83414912 8.08794631 12.45143243 -0.01152667 0.00644283 -0.02041756
H 2.25415721 3.35094496 16.84768960 0.00234457 0.00953469 0.00757463
H -1.65560584 1.60164351 23.03626180 -0.00325068 0.00710358 0.00093886
H -0.01578156 6.16978022 18.47601712 -0.02890744 0.00332166 0.00642694
H 2.42138740 6.95572437 22.57061836 0.00718859 -0.02451911 0.01216118
H 2.35477827 1.81039847 18.85469590 0.00928116 -0.00371435 0.00291238
H -0.34877105 3.31186762 13.17103482 0.01234846 0.02246434 -0.00450726
H -0.01749051 7.75624573 16.51897510 0.01837237 -0.02308100 0.01982404
H 1.00050633 5.47021109 11.55282285 0.02740331 -0.00388730 -0.01453030
H -1.59406272 0.39395207 17.91384277 -0.00331642 -0.00588774 -0.01265552
H 1.11084261 4.50806324 24.02089924 -0.00005421 -0.00965940 -0.01078669
H 3.88346454 9.14354908 17.64748504 -0.02854791 -0.01095891 0.01332416
H 1.10344790 6.99164248 13.57019873 -0.01206424 0.00518697 -0.00285704
H -1.78513662 2.23481789 16.04880148 -0.01334925 0.00532153 0.00274013
H 0.94593590 2.73378443 22.00074696 0.01265420 0.00231815 -0.01492556
H 3.82794518 7.70945156 19.66342173 -0.00576300 0.00973359 0.01475807
H 3.32452353 4.96807870 21.43933010 0.01647170 0.01778996 -0.00478069
H 1.30925734 0.10359369 20.01109232 -0.00503726 0.00495551 0.00528792
H -1.48999343 4.78683756 14.37624055 0.02177647 -0.00756255 0.00127892
H 0.91642952 9.40098251 15.44662551 -0.02588353 0.01595592 -0.02238815
H 4.83856556 2.77827160 20.17265354 -0.00924052 0.01274139 -0.00358369
H -0.53121850 7.64100594 20.82548399 0.00892168 0.00052650 -0.01531205
H 18.18350106 6.11488026 15.99114717 -0.01812401 -0.00192498 0.00366860
H 2.91134230 1.71706838 13.96143405 0.00956444 -0.01778805 0.01726955
H 17.63187569 3.73359212 20.18951762 0.01471434 0.00808474 0.00096573
H -1.17895708 8.80547461 22.08690954 -0.00894618 -0.01178312 0.00848108
H 3.24709255 5.97627393 16.29853325 0.01179863 0.01447536 -0.01578081
H 2.14360162 0.25879933 13.30526788 0.01101927 0.01372631 0.02078004
H -1.79276139 2.65535008 20.54722216 0.00289234 -0.00454396 -0.01299234
H 0.57213778 8.80293995 21.60738927 -0.01520349 0.00129607 -0.00376247
H 4.72801690 6.30524876 15.45752528 -0.02376285 0.00050937 0.00887797
H 1.29908421 1.49442921 14.38813546 0.00967738 -0.02184146 -0.00191307
H -3.16584728 8.82906558 26.84863087 -0.00770968 0.00420426 0.00735890
H -0.36890132 4.18101196 27.13024815 -0.01107202 -0.01130058 0.00611779
H 2.26632183 0.62037921 32.87750276 -0.03950217 0.01197382 0.00123035
H -0.79358360 5.69312746 32.35632959 -0.00394139 -0.01728955 0.01449812
H 2.47788563 8.37076830 24.65250656 -0.00037559 -0.02447949 0.01073244
H 0.74655503 3.44860275 28.83757173 0.01972976 0.00639996 0.02164740
H -3.75839643 1.25424249 35.32505335 -0.01342003 -0.00809065 -0.00907299
H -1.82601156 6.46627626 30.39508579 0.01103628 -0.01463807 -0.00502767
H 0.84247266 6.22137307 34.61504975 0.00368664 0.02363667 0.01571826
H 0.83049736 1.91108976 30.82250681 0.00106133 0.00062922 -0.00639388
H -1.72049108 3.14772574 24.83997419 0.00054243 -0.00934298 -0.01550641
H -1.67634888 8.19973836 28.67295485 -0.00445203 0.00666602 -0.01390433
H -0.36646890 5.58868434 23.61052503 0.02805815 0.01331409 -0.00369235
H -3.27547819 0.76772730 30.10998128 0.02911140 0.01586828 0.00799547
H 4.25637393 4.04208109 0.31901692 0.02249378 0.01320057 0.00176256
H 2.48162387 8.83014550 29.59743873 -0.02045713 -0.00172661 -0.00003922
H -0.57498497 7.05680229 25.75999257 -0.00513215 -0.02197226 -0.01760615
H -3.35948313 2.38429596 28.26837061 0.01065197 -0.00786980 0.01591341
H -0.58653006 2.70748116 33.93675199 0.00116393 0.00576148 0.01257158
H 2.16197547 7.41880490 31.67537092 0.00687190 -0.02303550 0.01700440
H 2.01707887 4.34004599 33.77056207 0.00231092 0.01843311 -0.03243403
H -0.29704562 28.80609445 31.98058158 -0.00348232 -0.01108371 0.00065437
H -2.81808444 4.51954092 26.28087954 0.01939148 0.01132900 0.00931736
H -0.58279998 9.89772589 27.64475836 -0.00977213 0.00208646 -0.02008101
H 3.54777291 2.63819107 32.24098450 0.00133919 -0.01473361 0.00503454
H -1.53452775 9.47586132 34.59176623 -0.00118939 -0.00266465 -0.00822057
H 15.57045557 5.91611192 28.28021514 0.00399717 -0.00961808 0.01055158
H 1.68377223 1.04928983 25.26361129 -0.00553399 0.00719981 0.00119417
H -2.27459518 3.59876597 31.75550789 -0.00448247 0.01698298 -0.02596429
H -0.39019990 8.50934195 33.58663512 -0.01036765 -0.02151843 0.00250096
H 1.34671781 6.58117263 27.76770329 -0.00353862 0.01399171 0.03429368
H 0.32022685 28.80809971 25.17235340 -0.01743598 -0.01527684 0.00106943
H -3.81118209 4.08437945 31.17856697 0.01490077 0.00713073 0.01671163
H -2.09794891 7.94487982 33.92244315 -0.02517040 0.01085523 -0.00031272
H 2.14854840 5.34397502 28.52955487 -0.00488640 0.00340763 0.01430111
H 0.03812061 1.43572894 25.98556337 -0.00434265 -0.00819180 0.00637491
H -0.17122761 18.81458792 2.61907603 0.00367675 0.00627743 -0.02426111
H 2.85280078 13.67886740 3.07151906 -0.00003739 0.00154778 0.00279658
H 5.56119425 10.31146519 8.86112845 0.01063746 0.00092669 0.04676738
H 2.45400643 15.21666144 8.58859934 0.01459825 0.00135338 0.01633766
H 5.41563515 17.73880143 0.27443322 0.00052327 0.00461679 0.00125354
H 3.83581921 13.09999508 5.14165362 -0.00398698 -0.01501409 -0.01341513
H -0.18438058 10.96587675 11.27290664 0.01495104 -0.00505449 -0.01197392
H 1.52118677 15.45669598 6.41828142 -0.01638763 -0.00229255 0.01069394
H 4.00331617 16.23345655 11.02217993 0.02076553 0.01991380 -0.01088802
H 3.96518429 11.24864678 6.91082268 -0.00169786 -0.00125533 -0.01506005
H 1.29407861 12.85976072 1.29671223 0.00981332 0.01252742 -0.00758654
H 1.33099089 17.14598953 4.55889421 -0.02878274 0.00735432 0.01128338
H -2.02249422 15.19271276 35.60216617 -0.00435113 -0.01724402 0.00048714
H -0.08650158 10.25294123 5.98590484 0.00027780 0.00983587 -0.00147751
H 2.66767751 13.78291832 11.96609961 0.00675001 0.00113534 -0.00991234
H 5.33901582 18.58896306 5.62145164 -0.00255460 0.02164216 -0.00856069
H 2.71322034 16.70575628 1.73032480 -0.00993697 0.01416745 -0.00782701
H 0.03538418 11.81622372 3.87826056 -0.00200156 -0.00005412 -0.02220128
H 2.45904027 11.91318033 10.36231810 -0.00601665 -0.00650532 -0.00794267
H 5.35946247 17.15692998 7.56797931 -0.02120735 -0.02109547 -0.00246169
H 5.13138373 14.15004321 9.76984256 -0.01849004 -0.00161561 0.00292876
H 3.01625323 9.65438837 8.14727974 0.01161797 0.02204713 -0.01058065
H 0.25058737 14.58082027 2.38775859 -0.01732961 0.00417859 -0.00989102
H 2.27070607 18.86097484 3.31387637 -0.01047550 -0.00539266 0.00724876
H 6.38347006 12.62356199 8.32043244 0.01039105 0.02742360 -0.01158024
H 1.74437653 18.68575473 10.44330030 0.04982592 0.00549422 0.01043153
H -0.35673811 15.78151112 3.88756633 -0.02963613 0.00963372 0.00343401
H 3.31113077 11.13136079 2.54052683 -0.01370961 -0.01037042 -0.00553875
H 0.02734930 12.96557607 7.64055135 -0.01659923 0.00711990 0.00047265
H 1.73108754 17.17015153 9.59066253 -0.02108141 -0.00648523 0.00904355
H 5.13474389 16.68244298 3.05564938 -0.00110381 -0.00690277 0.02016232
H 5.03708887 11.21635598 2.15805584 -0.00305345 0.00039665 -0.00172262
H 19.28574632 12.77658134 8.63624579 0.00496790 -0.01169857 0.01762318
H 0.26450573 17.93617003 10.31260945 -0.01735939 0.01777914 -0.00132614
H 5.24122618 15.42658368 4.41251917 -0.00892976 0.00895192 -0.00101849
H 4.03334195 9.71693996 1.53642467 0.02482053 -0.01522940 -0.02823776
H -1.60741361 18.53589674 14.54059991 -0.02431827 0.00375033 -0.01079847
H 1.40131371 13.64678629 14.74635475 0.00455683 0.03357044 0.01229303
H 3.70735134 10.45132390 20.86578953 0.06326640 0.00999698 0.01361194
H 0.97862897 15.12734100 20.76228628 0.00792537 -0.00113755 0.01123187
H 4.19445010 17.95983948 12.66828587 -0.00096187 0.00572679 0.00075984
H 2.38943458 13.07304409 16.85041843 0.00511124 0.01256357 0.02304242
H -2.28337817 10.65625349 23.42805436 0.00851543 -0.00510771 -0.02633218
H -0.10341162 15.70277519 18.72944960 -0.00040704 0.00160669 -0.00243202
H 2.56685941 16.34728561 22.42500666 0.00543596 -0.00032753 -0.00483834
H 2.25696490 11.83079527 18.99372098 -0.00608616 -0.00919732 0.01538690
H -0.14744554 12.72026532 12.99707902 -0.00672302 -0.01164851 -0.02674644
H 0.04336072 17.31882056 16.67863315 0.01032112 0.01442223 0.01279348
H 1.22286392 15.02484737 11.59393244 -0.01075855 0.00813179 0.00003707
H -1.62864947 10.26339677 17.82823487 -0.00328593 0.01014954 0.01888678
H 0.85262283 13.85993458 23.84964036 -0.00024585 0.01712871 -0.00890781
H 3.91050998 18.48703709 17.79690648 0.00133983 0.00755297 -0.02057505
H 1.23807199 16.57771954 13.64525857 0.02112936 -0.00021340 -0.01175791
H -1.57872304 11.89217456 15.85875077 -0.00733036 -0.01609861 0.03368757
H 0.93047538 12.36889568 22.01825884 -0.01234511 -0.02996048 -0.00143333
H 3.84600690 17.18653569 19.77632990 0.00584244 -0.02129209 0.00707666
H 3.60290006 14.33127768 21.58311045 0.01257926 0.00564538 0.00215375
H 1.21626538 9.83224475 19.92876716 0.03367798 -0.01340002 0.02432348
H -1.29952660 14.39762671 13.92451327 -0.01232841 0.00443844 0.02146294
H 0.89028448 18.85637327 15.76276975 0.00317553 0.00552990 0.00112021
H 4.44347923 13.39785650 19.81983809 -0.00560195 0.00817343 -0.02241441
H -1.21335865 18.22654583 22.52713917 0.03415596 0.01905673 0.00912653
H 17.85318023 14.90509592 16.51039927 0.00935167 -0.01565669 -0.00522022
H 2.31314097 11.67074732 14.44227691 -0.00927497 -0.02350444 -0.01234093
H 17.84324011 12.90978727 20.36544659 -0.00654196 0.01964567 0.01704108
H 0.58561264 18.37034432 22.31568126 0.00325460 0.00660531 -0.00840843
H 4.92272461 15.63859993 15.57740198 0.00241512 0.01958795 -0.00964913
H 3.67681851 10.86935281 13.53203628 0.01148577 0.01869354 0.00850476
H -1.09027741 12.49733327 20.21477303 0.00590152 -0.02315727 0.02456635
H -0.42860163 17.09803564 21.45516902 0.00445211 -0.00253655 -0.01418316
H 3.74331780 16.65464804 14.92367059 -0.00650054 0.01967602 0.01495637
H 2.04971001 10.19154792 13.40135751 -0.00778201 -0.01607369 0.02110408
H -3.23135208 18.67107157 26.40989406 -0.00937899 0.01903891 -0.02031321
H -0.43099256 13.86732064 27.15167382 0.01928326 -0.01245217 0.00426413
H 2.49892638 10.22395693 33.13970771 0.02838028 0.00151198 -0.00193678
H -0.66674228 15.14283383 32.36189491 -0.00952018 0.00724419 -0.02135343
H 2.40755876 17.78277003 24.35744208 0.01655072 0.02248872 0.00124722
H 0.70599980 13.25689310 28.90329535 -0.00735304 -0.02862347 0.00116218
H -3.40922766 11.17133500 35.16119689 0.00604173 -0.01723130 0.02125161
H -1.73454673 15.84007248 30.40198474 -0.01604567 0.00834876 0.01945140
H 0.86557502 16.13432141 34.12156899 -0.01200062 0.02309574 -0.00743755
H 0.93209811 11.76427628 30.94346015 0.00224344 0.00018272 -0.00148326
H -2.06726057 12.53928823 25.17468067 -0.00834332 -0.00443744 0.00468966
H -1.69167723 17.45112681 28.57999816 0.02901067 -0.02186330 -0.00648468
H -0.56877337 14.83482684 23.84378842 -0.01781372 0.00647871 -0.02310724
H -3.00539124 10.25102371 30.18135765 -0.02559952 -0.00479425 -0.01445420
H -0.61524288 13.92137302 35.68643775 0.01904275 -0.01555765 -0.00317011
H 2.33618686 18.49031583 29.59748486 -0.02099587 0.00445875 -0.00493345
H -0.45705228 16.48640228 25.57378681 -0.01633548 0.00084324 -0.02602390
H -3.24383737 11.84763262 28.25871205 0.01979398 -0.02376603 -0.02620075
H -0.49748603 12.27844756 33.86505315 0.01053433 -0.00901952 -0.00425903