2160
Time=98999.99999996 pbc="T T T" Lattice="20.62144142 0.00000000 0.00000000 0.00000000 28.96366540 0.00000000 -4.73731566 0.00000000 35.68426404" energy=-13800.84487152 virial="-59.77372829 9.62346550 47.87048913 9.62346550 -16.99788803 2.33125942 47.87048913 2.33125942 -25.20448268" stress="-0.00049155 0.00042523 0.00230430 0.00042523 0.00145728 0.00008804 0.00230430 0.00008804 0.00094034" Properties=species:S:1:pos:R:3:vel:R:3
O 0.64508481 8.55636579 2.38908717 -0.00177436 -0.00170121 -0.00785114
O 2.12015112 3.67274209 3.63597234 -0.00159303 0.00348414 -0.00415619
O 4.60127241 1.10429488 9.59532037 -0.00356445 0.00006976 -0.00609139
O 3.53282876 5.76079865 8.06032231 0.00257541 -0.00018474 0.00469726
O 1.42059923 4.85735266 9.26527105 -0.00536595 0.00439097 0.00443948
O -0.22304172 9.48344277 8.18270493 0.00364450 -0.00083964 0.00220108
O 4.09470759 4.81725044 2.10007777 -0.00372701 -0.00077436 -0.00654163
O 5.55666746 28.39006087 3.56216366 -0.00376162 -0.00647681 -0.00302761
O -0.76989763 8.26164935 14.34219158 -0.00098399 0.00377980 -0.00262131
O 0.07588650 3.61224003 15.09487132 -0.00198445 0.00398553 0.00223793
O 2.97843075 1.26398712 21.38511697 0.00201409 -0.00449372 -0.00089310
O 1.73424536 6.17358836 20.60958502 0.00139277 -0.00177970 0.00567652
O -0.51919362 5.07543391 21.09503560 -0.00372275 -0.00013081 0.00096110
O -1.85888174 9.59973631 20.18727076 -0.00111659 -0.00275830 -0.00615044
O 2.54142380 4.45981356 14.51308640 -0.00002260 -0.00264644 -0.00061232
O 3.74216887 28.56504347 15.49761617 0.00707612 -0.00003961 0.00021950
O -2.24320495 8.78802595 25.79270875 0.00281755 0.00127380 -0.00321697
O -1.10031153 3.48379361 27.27419319 0.00004589 0.00649870 0.00264689
O 1.78918063 1.34967668 32.98636282 0.00191069 -0.00226459 -0.00867656
O 0.31018200 5.93891206 32.02676909 0.00284556 0.00528333 -0.00039217
O -1.83632701 4.85650472 33.50613324 -0.00053901 -0.00049008 0.00147826
O -3.25836341 9.63800795 31.82587391 0.00593608 -0.00640997 -0.00625227
O 0.78723945 4.88872339 26.11337425 -0.00177280 0.00210792 0.00185054
O 2.13766702 28.84807774 27.47540797 0.00211603 -0.00241458 0.00250985
O 0.70833237 17.95578309 2.50421180 -0.00146700 0.00035835 0.00028984
O 1.83862326 13.32916751 3.49283413 -0.00047962 0.00654094 0.00022596
O 4.59622002 10.50624677 9.41010411 0.00001021 -0.00136519 0.00069114
O 3.65422615 15.43424556 8.35916712 -0.00401057 0.00219651 0.00384909
O 1.45419653 14.96631812 9.54205276 0.00514231 0.00072928 -0.00124947
O -0.10443886 19.23219360 8.29846453 -0.00006512 0.00133385 -0.00251541
O 4.13090973 14.25001325 2.44402466 0.00067976 -0.00226543 -0.00364107
O 5.47604851 9.79365605 3.52339475 0.00437092 0.00301181 0.00174400
O -0.87450462 18.02187239 14.52260192 -0.00164795 0.00496012 0.00407204
O 0.59647405 13.23312577 15.38447984 0.00043863 0.00076668 0.00063617
O 2.95071209 10.95931775 21.17100503 -0.00373119 -0.00029660 0.00091023
O 1.86999491 15.61899305 20.23384610 0.00219850 0.00759612 0.00790139
O -0.28840953 14.69347227 21.46585874 -0.00076903 -0.00037754 -0.00067723
O -1.87841504 19.33181748 20.09770987 0.00068702 0.00169406 0.00253858
O 2.62345084 14.18765091 14.09791823 -0.00401803 -0.00429854 -0.00028332
O 4.02848480 9.34528153 15.64259477 -0.00549255 0.00780408 0.00098577
O -2.40695488 18.22575899 26.17765533 0.00138307 0.00143117 0.00491450
O -1.19075786 13.28544773 26.98404211 -0.00130214 -0.00590516 0.00345478
O 1.30673229 10.79072887 33.07614797 -0.00061107 -0.00262273 0.00286931
O 0.37555288 15.54981707 32.06042229 0.00228471 0.00249551 0.00424674
O -1.76600696 14.63273421 33.24181200 -0.00519217 0.00099517 -0.00195530
O -3.18306976 19.74133937 32.20522672 -0.00342227 -0.00291519 -0.00248771
O 0.95622176 14.59646305 26.08800021 0.00302639 -0.00048104 0.00134458
O 2.32281033 9.53769571 27.11027523 0.00406394 -0.00455319 0.00294109
O 0.80023420 28.12546949 2.59331281 0.00265668 -0.00230581 0.00290968
O 1.61985877 23.18512760 3.45130188 0.00613271 0.00174359 0.00281714
O 4.77427213 20.70660722 9.18777468 -0.00236101 0.00165622 -0.00453736
O 3.28386251 25.04685177 8.36055148 -0.00632102 0.00600301 0.00308681
O 1.31541183 24.19512637 9.72606896 0.00455592 0.00411024 0.00210318
O -0.17500097 28.79439975 8.18233246 -0.00204109 -0.00078468 -0.00067698
O 4.01210450 24.05931219 2.36739005 -0.00346299 0.00179449 0.00325283
O 5.50672552 19.44865343 3.80678509 0.00233547 -0.00057555 0.00174569
O -0.91980152 28.10209378 14.31123080 -0.00562238 0.00460304 -0.00253535
O 0.15619441 23.23372215 15.47852101 0.00403067 0.00091555 0.00096625
O 2.83114685 20.47008095 21.22770164 0.00414931 -0.00015750 -0.00139748
O 1.35085978 25.39029280 20.28370839 0.00275735 0.00242871 -0.00274635
O -0.52516172 24.33808340 21.72297836 0.00317039 0.00028606 -0.00350215
O -1.81629811 28.87053682 19.84056555 -0.00352475 -0.00084799 -0.00130362
O 2.32800338 24.05299088 14.26382099 0.00213858 -0.00431485 0.00438134
O 3.69283706 18.87591728 15.38852390 -0.00372414 0.00099925 -0.00519383
O -2.50086710 27.97114540 26.48683588 0.00096993 -0.00585763 -0.00399314
O -1.12674476 22.84937517 27.16459343 0.00550361 0.00406807 -0.00439869
O 1.26125107 20.19519343 33.19631508 -0.00204399 0.00287549 -0.00646962
O 0.07340299 25.41688428 32.35227046 0.00127111 -0.00177181 0.00399246
O -1.86753797 24.37254453 33.70799552 -0.00600640 0.00438721 0.00110315
O -3.43944664 28.66177728 31.94168333 -0.00177895 -0.00235498 -0.00862360
O 0.82839749 24.24665063 26.15746242 0.00043052 -0.00224152 -0.00209188
O 2.16997521 19.21991459 27.15667215 -0.00000550 -0.00104248 0.00168312
O 7.56426818 8.48514084 2.57638377 -0.00255308 -0.00283892 -0.00079929
O 8.91962530 3.71379803 3.51386008 -0.00246971 -0.00686240 -0.00063570
O 11.36269932 1.03456204 9.54430542 0.00994959 -0.00456138 0.00038270
O 10.20696419 5.92704919 8.36622950 -0.00018443 -0.00189415 0.00613434
O 8.28116493 4.91769262 9.70669019 -0.00246203 -0.00485947 0.00148684
O 6.67447169 9.49288475 8.20455856 -0.00022576 -0.00244969 -0.00103526
O 10.99395090 4.65162014 2.23403362 0.00662765 0.00436666 0.00601476
O 12.47492596 28.91247309 3.88740739 -0.00369876 -0.00074858 -0.00232255
O 6.01501758 8.72825044 14.08405860 0.00211911 -0.00066600 0.00114941
O 7.04747513 3.85010401 15.62573132 -0.00138448 0.00107431 -0.00655893
O 9.80976987 1.07004869 21.17660011 -0.00065752 -0.00317788 -0.00280947
O 8.22916091 6.03927001 20.42758898 0.00388464 0.00457087 0.00036465
O 6.41280964 4.74079105 21.65829718 0.00686553 0.00070667 0.00039168
O 4.93838890 9.66633188 20.21297809 -0.00079193 0.00457611 0.00214471
O 9.29752091 4.62780056 14.45293776 -0.00273685 0.00079620 -0.00435715
O 10.88347579 28.75363513 15.75398388 -0.00210762 0.00113487 -0.00269470
O 4.69659615 8.69962121 26.35256933 0.00138138 -0.00400455 0.00202727
O 5.42816474 3.97217350 27.54736060 -0.00001672 -0.00847810 -0.00083213
O 8.40459201 1.09908245 33.32217737 -0.00313933 -0.00138122 0.00415113
O 7.45325154 5.66074536 32.18655171 0.00139195 0.00259946 0.00187771
O 5.19270404 5.13102709 33.50760273 -0.00369498 0.00091455 -0.00078892
O 3.53467768 9.72525208 32.03233475 0.00417219 0.00105796 0.00108342
O 7.56169648 4.59960932 26.23156113 -0.00305380 -0.00287749 -0.00133521
O 9.02879776 28.38767093 27.17139433 0.00330860 0.00395843 -0.00422674
O 7.29027090 17.95432795 2.47983696 0.00013351 -0.00284480 0.00412684
O 8.57501063 13.56171263 3.75441872 -0.00475636 0.00377103 0.00001018
O 11.54679949 10.55524852 9.76346866 -0.00402833 0.00310161 -0.00793347
O 10.40665161 15.56022856 8.31221115 0.00846892 -0.00366805 -0.00332332
O 8.52879326 14.49483726 9.89413691 -0.00584781 -0.00076226 -0.00317521
O 6.93757028 19.57449555 8.33932788 0.00449360 0.00277165 -0.00099372
O 10.80692338 14.64633160 2.39177494 0.00000827 -0.00129718 0.00027996
O 12.33190159 9.59585868 3.58886562 -0.00136311 -0.00341279 0.00135177
O 5.97527250 18.44957419 14.34827873 0.00711779 0.00197963 -0.00085202
O 7.29478895 12.98000979 15.07091673 -0.00118882 0.00503083 0.00090328
O 9.66783467 10.56398170 21.32752384 0.00080683 0.00335642 0.00254782
O 9.04874548 15.54626355 19.97745843 -0.00418219 0.00748287 -0.00451340
O 6.81331521 14.86023949 21.51129339 -0.00378235 -0.00173230 0.00049846
O 5.11745922 19.54249425 20.41711119 -0.00050409 0.00485319 0.00103358
O 9.11434921 14.56126998 14.22700841 0.00076036 -0.00338566 0.00029747
O 10.84354395 9.44483789 15.76260618 0.00081000 -0.00025529 -0.00153763
O 4.38713739 17.87420360 26.39394289 0.00037239 -0.00063992 0.00342786
O 5.61362588 13.56272487 27.29285430 0.00346440 -0.00113600 0.00209742
O 7.98708442 10.67023582 33.30995961 0.00571357 0.00080184 0.00071222
O 6.95981053 15.81462810 32.51935521 -0.00675971 -0.00369664 0.00257929
O 5.04792292 14.32116268 33.50153395 -0.00021606 -0.00097168 0.00096559
O 3.41509048 19.33457707 32.07126248 -0.00358559 0.00099649 -0.00004281
O 7.78908974 14.44068723 25.92050992 -0.00884979 0.00244649 -0.00298770
O 9.39346307 9.78559294 27.65304045 0.00293104 0.00191864 -0.00377257
O 7.83789591 27.88440942 2.31665447 0.01158700 -0.00099971 0.00214202
O 8.73451970 23.07604507 3.62559071 -0.00202187 -0.00335141 0.00212850
O 11.67049465 20.49853199 9.49264015 -0.00053893 -0.00182886 0.00223613
O 10.34930581 25.14368648 8.35407031 0.00393955 0.00235762 -0.00524739
O 8.36263878 24.01241515 9.62180060 0.00256127 0.00214333 0.00479350
O 6.66377397 0.09146657 8.22520511 0.00057111 0.00311188 -0.01135346
O 10.84286814 24.04485427 2.30954522 0.00393991 -0.00110148 0.00091063
O 12.42622130 19.02042027 3.44982470 0.00091626 -0.00019611 -0.00153268
O 5.97756978 27.88415155 14.13848132 0.00351746 -0.00553917 0.00124984
O 7.23841283 22.94044555 15.49088063 -0.00171514 0.00144997 -0.00009954
O 9.83973716 20.45206945 21.48512844 -0.00184388 0.00167947 -0.00147247
O 8.35491440 25.29167062 20.58424152 -0.00162764 0.00583326 0.00555281
O 6.49824434 24.15778170 21.76589507 0.00183682 0.00064344 -0.00000141
O 4.87976344 0.09513557 20.28943680 -0.00383246 0.00680414 0.00144112
O 9.08781033 23.96846970 14.03427491 0.00005564 -0.00094522 0.00056288
O 10.71512977 19.14177761 15.23411613 -0.00067824 -0.00276075 0.00201471
O 4.17605878 27.94989267 26.09242156 -0.00038346 0.00520295 0.00152203
O 5.75393940 22.73553376 27.19914400 0.00039212 -0.00311242 -0.00092798
O 8.27144014 20.52479990 33.20610567 -0.00097231 0.00029387 0.00405935
O 7.17069185 25.13403039 32.05694435 -0.00244039 -0.00252969 -0.00150099
O 4.89935545 24.18036673 33.10360030 0.00117166 -0.00011555 0.00130871
O 3.66387621 0.01881642 31.94058359 0.00664913 -0.00873429 -0.00647722
O 7.65373683 24.16897078 26.14100628 -0.00282554 0.00047899 0.00282428
O 9.28475787 18.92924515 27.48821681 -0.00530386 -0.00229305 -0.00053830
O 14.48420806 8.78750496 2.47788959 0.00013798 -0.00546255 -0.00066875
O 15.92846104 3.72325495 3.45859902 -0.00045086 0.00431791 0.00477493
O 18.45277052 0.98279010 9.33802699 -0.00343748 0.00065461 -0.00337371
O 17.28849768 6.01750965 8.33817122 -0.00039810 -0.00195805 0.00366920
O 15.05229473 5.04302228 9.65329800 0.00081182 0.00464882 0.00244172
O 13.57318059 9.66902329 8.26565084 0.00366641 0.00295155 0.00049392
O 17.86455566 4.78787436 2.32485227 -0.00105782 0.00953915 0.00125425
O 19.29154877 28.85181717 3.68027614 -0.00465141 -0.00067642 0.00279529
O 12.78434150 8.65089915 14.28222380 0.00403180 -0.00241845 -0.00509701
O 14.20458341 3.52361114 15.08727509 0.00643613 0.00669783 0.00197182
O 16.62451747 0.89509598 21.41004980 -0.00326651 -0.00108818 -0.00589954
O 15.32791202 5.86518324 20.01068320 0.00187184 0.00315632 0.00252274
O 13.13596713 5.04517778 21.32934364 0.00245327 -0.00473567 0.00130304
O 11.93286489 10.06971277 20.00522930 -0.00305675 0.00701579 0.00056153
O 16.13729202 4.70417302 13.89494845 -0.00704323 -0.00182632 -0.00627312
O 17.67602306 28.83845724 15.60552139 -0.00950425 -0.00770889 0.00503383
O 11.23334988 8.37602389 26.22047032 0.00348232 0.00240359 0.00751170
O 12.26223886 3.81057537 27.53989510 -0.00327791 -0.00076734 0.00305238
O 15.23260703 0.97477107 33.33882848 -0.00462651 0.00384229 0.00110841
O 14.21473140 5.57003036 31.93185700 -0.00292954 0.00265309 0.00091800
O 11.89752229 5.09471625 33.37699567 0.00720602 0.00193306 -0.00125167
O 10.33603528 9.81555235 32.25825936 0.00063627 0.00348286 0.00105979
O 14.74543748 4.30945545 26.54495562 0.00287070 -0.00206882 -0.00397108
O 16.00109550 28.83556089 27.57240169 0.00478738 -0.00114289 0.00050038
O 14.51541368 18.41436283 2.26889542 -0.00155155 -0.00297418 0.00225948
O 15.69925093 13.47612148 3.64607054 0.00505266 -0.00562081 -0.00385989
O 18.53176423 10.83038087 9.38071554 -0.00349187 0.00367628 0.00813782
O 17.13080533 15.42641100 8.17412680 -0.00115323 0.00662819 0.00529068
O 15.18234495 14.42097528 9.60696856 -0.00272481 0.00047719 0.00325945
O 13.50205031 19.35601270 8.22257825 -0.00052023 0.00017112 -0.00075555
O 17.59813343 14.09629058 2.03728050 -0.00292268 -0.00151900 -0.00171377
O 19.30175070 9.77410965 3.57019609 0.00112303 0.01035500 -0.00172012
O 13.00338127 18.15850069 14.40396016 0.00001148 0.00208773 0.00047809
O 14.08992099 14.06670842 15.70556955 0.01093088 -0.00392335 0.00323134
O 16.81548958 10.72728646 21.27664944 -0.00266502 -0.00357617 0.00271793
O 15.31886227 15.57054724 20.35964019 -0.00394918 0.00129394 0.00107973
O 13.37200702 14.23606719 21.66859319 -0.00233956 -0.00261908 -0.00121435
O 11.99209335 19.72030815 20.14815629 -0.00044360 -0.00145768 -0.00267859
O 16.19493843 14.14893435 14.29614307 0.00167998 0.00150046 0.00337327
O 17.66186645 9.24725649 15.49643475 0.00158196 0.00006436 -0.00617019
O 11.43863400 18.09285748 26.25659693 0.00023373 0.00241639 0.00041179
O 12.39474771 13.52906247 27.48477076 -0.00228417 0.00374986 0.00047484
O 15.35442619 10.91526639 32.94763482 -0.00097413 0.00303763 -0.00236092
O 13.78655006 15.35018083 32.37624479 0.00555991 0.00137018 0.00604746
O 11.69129672 14.29417993 33.32910351 -0.00181341 -0.00331994 -0.00580501
O 10.30395635 19.21240585 32.19482133 -0.00220919 -0.00074330 0.00126350
O 14.59538995 14.15021480 26.34877617 0.00118491 0.00233526 -0.00162645
O 16.25155366 9.21780975 27.17036711 -0.00140363 -0.00791240 -0.00725650
O 14.33754058 27.93506187 2.32788165 0.00096603 -0.00226401 -0.00054407
O 15.64179068 23.22079160 3.54235392 -0.00006481 -0.00290244 -0.00255857
O 18.40224979 20.32073034 9.47841326 -0.00531761 -0.00184784 0.00151860
O 16.91093129 25.55580379 8.64147943 -0.00274255 -0.00064057 0.00051076
O 15.17393075 23.91611825 9.55477739 0.00150762 -0.00210904 0.00005881
O 13.62706961 28.92250844 8.13268056 0.00206069 0.00294560 -0.00372845
O 17.52554628 24.36996554 2.20857782 -0.00025125 -0.00123217 -0.00156301
O 19.25475743 19.30621587 3.43798962 0.00046644 -0.00139212 -0.00104338
O 13.00886949 27.79715065 14.24558036 -0.00357154 -0.00304825 -0.00311048
O 13.99570441 23.10741422 15.13435763 -0.00822040 0.00186839 -0.00291115
O 16.59755160 20.45906684 21.23872115 0.00265898 0.00376087 -0.00176112
O 15.74202021 24.88937508 19.84523098 0.00469051 -0.00275358 0.00193225
O 13.47138640 24.30014729 21.42944210 0.00046707 0.00593294 -0.01186742
O 11.73682567 0.16539162 19.84761172 -0.00106996 0.00159857 0.00175544
O 16.11337755 24.23785712 13.95939054 0.00179858 -0.00072044 0.00015011
O 17.81111919 19.50211729 15.75932360 0.00209720 0.00435898 0.00098793
O 11.38756741 27.97603494 26.12597226 -0.00188222 0.00077309 -0.00528723
O 12.39810564 22.97861376 27.49112855 0.00413129 -0.00179006 -0.00275049
O 15.23503607 20.35332018 33.51238884 0.00374245 0.00701649 -0.00294616
O 14.10511748 25.02383492 32.19096557 -0.00629586 0.00272404 0.00538504
O 11.95670802 23.90081420 33.45056968 -0.00007118 -0.00176381 -0.00018698
O 10.36496437 28.84433206 32.05387061 0.00365532 -0.00111465 -0.00169179
O 14.51025764 23.99738802 26.21158568 -0.00088286 -0.00465555 0.00016040
O 16.03714157 18.70602318 27.39477242 0.00027306 0.00248391 0.00453807
H -0.20382635 9.09533680 2.47763846 0.00209547 0.00536737 -0.01200480
H 3.02554079 4.09700862 3.32637677 -0.01422750 -0.02079009 -0.00009006
H 5.53180731 0.73798140 9.39963571 0.00052326 -0.01266772 0.02431269
H 2.60493232 5.38882285 8.31533760 -0.02029607 -0.00952158 -0.00632337
H 5.55238420 8.17111535 0.87184625 0.01596365 -0.01077351 -0.00280201
H 3.92796600 3.45639846 5.40923155 -0.02519199 0.01168976 -0.02313854
H -0.10855364 1.48760288 10.94873364 -0.00758811 0.00505717 0.00887501
H 1.60839466 6.01096199 6.27939783 0.00539189 -0.02025429 -0.00281196
H 4.05300250 6.68333502 10.58275911 -0.02243130 0.01357963 0.00297645
H 4.08561171 1.51469086 7.13887594 0.00176804 0.00311519 -0.00841486
H 1.31051722 2.86452612 1.22232165 0.03023816 -0.00488147 0.00984210
H 1.43440854 7.71552987 4.53179855 -0.00117038 0.00192762 -0.00024050
H -2.06170700 5.27978519 35.56480616 -0.02980548 0.01656978 0.02531576
H -0.06819347 0.70325832 6.16580613 0.00859697 -0.01932273 0.00541248
H 2.64184766 4.45878152 11.95513534 0.01453939 0.02312226 -0.02374722
H 5.37787414 9.02380073 5.65303746 -0.01105120 0.00181175 0.00708045
H 2.70342804 6.98318874 1.70081948 -0.00335168 0.00786046 0.00316583
H 0.02506638 2.15807398 4.27827861 0.00584518 0.00217182 -0.02104895
H 2.55786900 2.72816992 10.30139304 -0.01433233 -0.02209332 -0.00417185
H 5.33589252 7.43722967 7.52977721 0.01699354 -0.00492423 -0.01903296
H 5.14410266 4.59197777 9.70319282 0.00346696 0.00442984 0.01514620
H 2.98942939 28.76571635 8.06558279 0.02232486 -0.00322494 -0.00278085
H 0.52148012 4.48460968 2.29686078 -0.00559818 0.00355466 0.00892332
H 2.34344418 9.52504019 3.63600983 0.01081548 -0.00292010 -0.00374586
H 7.78141419 3.52816053 7.73714986 -0.00583647 0.00437698 0.01133718
H 0.27508094 8.43046225 10.23271065 -0.01371681 0.01630879 0.00933037
H -0.13501481 5.73913038 4.03721972 0.01902958 -0.01490068 -0.00214569
H 3.46243559 1.78571394 2.76745378 0.00693836 -0.00482435 -0.00186270
H 19.36500200 3.83889875 7.73878719 -0.00303369 -0.02320237 -0.00446126
H 1.95423147 8.83712169 10.11522571 0.02051629 -0.02137294 0.00949513
H 6.39863999 5.92035691 4.05426715 0.00600360 -0.01116174 0.00176699
H 5.02697178 1.37204102 2.02121728 0.00195882 0.02354034 0.02485080
H 0.07242639 2.67483146 8.19592110 0.02788823 -0.00127653 0.00704723
H 1.35006659 7.27578312 9.36207321 0.00100497 0.00913403 0.01167046
H 5.43854500 7.13626817 3.18152893 -0.01835264 -0.00541144 -0.01082506
H 3.51928952 0.49928737 1.49874065 0.00832431 0.02121334 0.01556859
H -1.58688964 8.80052230 14.40492773 -0.00414415 0.02166581 -0.01222902
H 0.95400441 4.07710281 14.93235023 0.02824504 0.00250737 -0.03171639
H 3.90769299 0.92331296 21.19750408 0.02737783 -0.00014782 -0.00584910
H 0.89803798 5.62185639 20.69789245 0.01252732 -0.02275854 -0.01229446
H 4.12198831 8.34963135 12.55995277 -0.00666542 0.00530144 0.00365441
H 1.80939012 3.85168820 16.99998918 -0.02588564 0.02401091 -0.02330492
H -2.06740692 1.16561215 22.97905163 0.00382788 -0.00312160 0.02047176
H -0.17571143 6.27431322 18.88346792 -0.02496487 -0.00721662 -0.00525724
H 2.32947999 6.63012374 23.06027504 0.00219100 -0.01653384 -0.00476107
H 2.03563623 2.37746190 19.05015506 0.00830733 0.00044830 0.00617172
H -0.27211274 2.89235666 12.94135397 0.03154146 -0.00584902 0.00701052
H -0.06149095 7.67745398 16.74865050 -0.03407849 0.00100289 -0.01605736
H 1.20935175 5.34113501 11.47032153 -0.01953136 -0.00840263 0.00350981
H -1.96479656 1.01765158 18.09815933 -0.01445961 -0.00555222 -0.00410273
H 0.77326770 4.15396093 24.03783410 0.00766798 -0.01294507 0.00238542
H 3.85438700 8.89698272 17.72011600 0.00827868 0.01725168 0.01259276
H 1.27363284 7.02016942 13.43705626 0.04099801 -0.00460409 -0.01284020
H -1.99684473 2.16195834 16.15935713 0.00948530 -0.00543770 -0.02255134
H 0.88909728 2.79507583 22.06813454 0.00027548 0.00644047 0.00438681
H 3.71822716 7.69998448 19.99429017 0.01884807 0.01031221 0.00223587
H 3.33038130 5.28282256 21.68275201 -0.01906332 0.01074347 0.01663494
H 1.36034976 0.37095426 20.03613319 0.00370334 -0.02206791 0.01001253
H -1.30883805 4.70431280 14.01676382 0.00406736 -0.00664962 -0.01683710
H 0.94519562 9.38239692 15.57851801 -0.00708253 -0.00056145 -0.02598917
H 3.81916241 3.87976990 20.06742008 -0.00972597 -0.01122428 0.00512254
H -1.28188673 7.86888226 21.89341858 0.02427830 -0.01039156 0.00059536
H 17.07946928 5.60643613 16.31833210 0.00005653 -0.01648633 -0.04119485
H 2.83239862 0.54142322 13.29332712 -0.02924283 0.00068101 0.00014214
H 17.61971820 4.32650646 19.24734749 -0.00696331 0.01491300 -0.01752564
H -0.23797112 9.12506293 22.57701997 0.01571487 0.00525526 -0.00614715
H 2.68728922 6.65733307 15.58396572 -0.01092423 -0.00865652 0.00148017
H 1.49515327 1.52616820 14.06708515 0.00901239 0.01111079 -0.00961916
H -2.11028517 2.94063689 19.89862204 0.02145981 0.02356416 -0.00293084
H 0.46688362 7.83335049 21.46524367 -0.00485937 -0.02103637 -0.01185088
H 3.90342455 5.70683141 16.49610125 -0.02955882 -0.01440823 -0.02248575
H 3.25397189 1.97436574 14.34095255 0.03488036 -0.00620374 0.00758812
H -3.04873251 9.00937897 26.20056199 -0.01006203 0.00216343 -0.01578751
H -0.28745272 3.94936720 27.09888341 0.01233652 -0.00555980 0.01096462
H 2.65319343 0.93624341 32.64613508 -0.00147492 0.00602569 0.01012714
H -0.63733200 5.59013769 32.21499748 -0.00717238 -0.02494770 -0.00648506
H 2.59302199 8.40625657 24.66969901 -0.00894152 0.01975031 0.03096498
H 0.75732536 3.15447780 29.12867341 -0.02268450 -0.00827466 -0.00068856
H -3.35283140 1.55092380 34.69989884 0.00810908 -0.00856997 -0.00262736
H -1.76047464 6.53051613 30.34049262 0.03867612 -0.00372041 -0.01674682
H 1.09068035 6.72639863 34.35292694 0.01534732 -0.03463774 -0.01751631
H 0.62616460 1.83903897 31.14453442 0.01160496 0.02196729 0.00035764
H -1.81187451 2.88004300 24.76526485 0.00922153 0.01229104 -0.02932772
H -1.47136081 7.75691928 28.25403712 -0.00295792 0.01764513 -0.00104972
H -0.49512750 5.29200217 23.55885286 -0.02805118 0.01026185 0.01545295
H -3.45321093 0.80122062 30.15970155 0.02484503 -0.01286013 0.02768602
H 4.31545547 4.07757576 0.29306422 0.01835952 -0.00696647 0.00242618
H 2.27458391 9.27101579 29.52539852 0.01082691 0.00501177 0.01076196
H -0.26599715 6.99184248 25.12257194 -0.00425210 0.01687365 -0.00749279
H -3.28470367 2.12876412 28.11320906 -0.00315283 -0.00387801 -0.00083039
H -0.32258475 2.65665185 33.79804139 0.00638411 0.02175910 -0.00251610
H 2.39131474 7.50141819 31.31299836 -0.02398746 0.00025920 -0.02465150
H 1.99275650 5.16439109 33.44506102 0.01051505 -0.01910423 0.00299739
H -0.34499632 28.96176289 32.27121163 -0.00227492 0.00074891 0.00551883
H -2.82517861 4.54549846 25.93146553 -0.00179122 -0.00026988 -0.00955978
H -0.71244189 9.59052985 27.44132927 -0.00479817 0.00586684 -0.00532991
H 4.59046314 3.91261306 31.40102487 -0.00967182 -0.00928170 0.00988300
H -0.62137253 8.75302410 33.40421642 0.01016907 0.00593209 0.02186795
H -3.15436836 5.78539804 27.61048589 0.00120473 0.02221366 -0.02662013
H -0.15666185 0.96755658 25.64103619 -0.00282672 0.02417899 -0.01151662
H 16.23451633 3.90620173 31.75532655 0.02203798 0.00680411 -0.00177006
H -1.70457595 7.42541610 33.10497661 -0.00462410 0.03499837 0.01178177
H 2.46644622 6.82059887 27.36698259 -0.00090141 -0.00864174 0.00296949
H 0.69307935 2.14862457 26.75826197 -0.00046520 -0.00082217 0.00618775
H -3.32299289 2.57354580 32.27282594 -0.00769117 -0.02164155 -0.00198983
H -2.32560486 8.75493187 34.11656815 0.00956033 -0.02296315 -0.04136278
H 1.47240393 5.77513232 28.48071517 0.00839957 0.01359158 -0.01587645
H 1.61186146 1.27038171 25.50022739 0.02375570 -0.00353544 0.01075442
H -0.03932391 18.57878061 2.59561065 -0.02374409 -0.01300960 -0.00927054
H 2.63978655 13.82813859 3.23372662 -0.01676243 0.00682849 -0.00270141
H 5.39239641 10.00953518 9.09130350 -0.01223462 0.01700750 -0.01536228
H 2.75511720 15.10977671 8.78671605 0.00013292 -0.02360827 -0.01347833
H 5.39258507 17.61345072 0.68765138 0.00439794 0.01196505 0.00326742
H 3.82910512 12.98614183 5.10735494 0.01823231 0.00475020 -0.00771243
H -0.31995307 10.89926783 11.43384913 -0.01219609 -0.02510600 0.00648419
H 1.53432931 15.84321823 6.83897978 0.00327684 -0.02088858 0.00629031
H 4.02090391 16.17579544 10.91224041 0.00111659 0.01283288 0.00780500
H 3.78350028 11.48837942 7.12245708 -0.00174885 -0.00361690 -0.01069987
H 1.36022903 12.79079721 0.95183979 -0.01173209 -0.00249591 0.01320249
H 1.33471855 17.41856289 4.95616483 -0.00248955 -0.01933140 -0.00799269
H -2.01532773 14.99342096 35.42848332 -0.00084726 0.00382925 -0.01134808
H 0.01054678 9.91595726 5.84869661 0.00318801 -0.00350484 0.02121292
H 2.55470526 13.52546176 11.98760083 0.01299669 -0.02392569 -0.00006627
H 5.51937641 18.56581458 5.69490662 -0.00651323 0.00570329 0.01914765
H 2.54443244 16.33440221 1.80756300 -0.00482493 -0.00973482 0.00642108
H -0.20461699 11.80582817 4.30041820 0.01490965 -0.02725865 -0.01596686
H 2.55529080 11.75801174 10.31576848 -0.01017964 -0.00755445 -0.00309323
H 5.66553713 17.03371755 7.30961592 -0.00160002 0.00337952 -0.00945021
H 5.39709581 14.36993684 9.69665290 -0.00606346 0.01088187 -0.01731316
H 2.87607464 9.54641610 8.15656203 0.01713242 0.00032944 -0.00045836
H 0.02118253 14.44455643 2.11943873 0.01860312 -0.00933414 0.00858975
H 2.41915660 18.98606702 3.45012219 -0.02311312 0.01638524 -0.00722388
H 6.55176973 12.61706587 8.43638079 -0.02202758 0.00506691 -0.01322984
H 1.18168091 17.23199348 9.61048476 -0.00231921 0.00713884 -0.00670812
H 19.44512513 16.31862636 3.48088624 -0.00569502 -0.00139712 0.00591225
H 4.08331379 11.91249233 2.31861334 0.02665322 0.00270741 0.00858817
H -0.74073779 12.90032065 8.47960090 0.00939284 -0.02577092 0.00868570
H 1.22414606 18.68726325 10.61966083 -0.01295403 0.01689334 -0.01115366
H 5.25776675 15.40340979 4.54957699 0.03315886 0.00964563 0.00554347
H 4.36173828 10.61645552 1.20506625 0.00800124 0.01024584 0.00803177
H 1.07658357 12.74454597 8.28980034 -0.01335997 0.00497325 -0.00743118
H 2.62938098 18.09435780 9.70399872 -0.01405773 0.01133136 -0.00955884
H 6.72185044 15.93831146 3.63348189 0.00267499 0.00526865 -0.01244231
H 2.80195635 10.75310509 1.90783152 -0.00175223 -0.00430023 0.02229295
H -1.64710329 18.67374410 14.51138600 -0.02039354 0.00089091 0.00097249
H 1.43919887 13.63188738 15.00603499 0.00457368 0.01362998 0.00863369
H 3.70550011 10.35451361 21.04481585 0.00259898 -0.00148332 0.02728611
H 0.94235233 15.18567396 20.40247732 0.01209821 0.01317980 0.00868456
H 3.95770511 17.71594765 12.68617003 0.02009041 0.00685769 -0.01698653
H 2.47309666 12.91307640 17.18229808 -0.02414758 0.02412864 0.01996409
H -1.95685066 10.97208114 23.13678441 0.01711926 0.00311272 0.00757759
H -0.06745331 15.85601919 18.50201091 -0.00252763 -0.00429094 -0.02447771
H 2.50383118 16.39142666 22.62165121 0.03389536 -0.00007109 0.00004459
H 2.42262812 11.43900661 18.99913972 0.01097344 -0.00083316 -0.00432265
H -0.31310691 12.44427299 13.16653927 0.01164603 0.00021236 0.01929483
H -0.17633190 17.63520181 16.76064746 -0.00388373 0.00457170 -0.00114328
H 1.13395695 15.13864362 11.62454129 0.00842571 0.00713083 0.01364817
H -1.40195650 10.04661497 17.81098504 0.00751761 0.02555248 -0.01663230
H 1.31349611 14.14041298 24.01952456 0.00167022 -0.00948215 -0.00805533
H 3.66981990 19.13687864 17.98912754 -0.00543660 0.00280511 -0.01952146
H 1.31723416 16.65622513 13.61717951 0.02928834 -0.00520846 0.03201098
H -1.54708990 11.67708488 16.24816248 0.00888819 -0.00009229 0.02039698
H 1.07593706 12.67225168 22.09972341 -0.01027281 -0.00368071 -0.01557222
H 3.74773228 17.39425086 19.90029120 0.02351239 0.02943043 -0.00667307
H 3.69735875 14.58764086 21.36846288 0.00152724 -0.00354594 -0.03191558
H 1.27550040 9.70782595 20.28788709 0.02805247 -0.00303239 0.03557082
H -1.24350652 14.28110332 14.22049746 0.01052239 -0.00848662 -0.01402931
H 0.71920375 19.44135064 15.82829544 0.01129779 -0.02751447 -0.01374734
H 6.33379892 13.85633512 19.23547854 -0.00674919 0.01667028 -0.01206359
H 0.68725216 17.99691506 21.59102827 0.02430948 0.03516552 -0.00280381
H 18.14755061 14.68837780 16.50733904 0.00971772 -0.01028857 0.01894324
H 2.56856313 9.92433836 13.31672921 -0.01352067 -0.01203273 0.00521927
H 17.97516618 13.35133262 19.75562656 -0.00926939 -0.02622976 -0.00589948
H -0.78594979 17.17122044 21.03917916 0.00595707 -0.00409909 0.00943875
H 4.36860641 16.37585575 15.19878423 0.01136996 -0.01004309 0.00889547
H 1.66049835 11.13602157 14.39090460 0.02831924 -0.00137198 0.00514689
H -1.39466956 12.28733677 20.51047785 -0.00264547 -0.01224995 -0.00842406
H -0.96020337 18.32183333 22.35864092 0.05053717 0.01872212 -0.00136505
H 3.28087959 15.47973916 16.31086828 -0.00020538 0.02226888 -0.00527717
H 3.45630102 11.21837544 14.12693509 -0.00940222 -0.02269672 0.00578028
H -3.26807776 18.37507385 26.64693771 -0.01752430 -0.02392190 -0.03771199
H -0.24019080 13.66663211 26.94178077 0.01557210 -0.00329140 -0.00792976
H 2.06527934 10.26670689 32.71420698 -0.01136387 0.01690738 -0.02114598
H -0.44814365 15.17214765 32.42458443 0.00943819 0.00875116 -0.01865651
H 2.39782143 17.58521370 24.66608678 0.03195924 -0.00188346 -0.00844343
H 0.58824151 13.35778446 28.92892902 0.02285036 0.01525837 -0.01968034
H -3.34030844 11.18907498 34.74374479 0.00484003 0.00136512 0.00149554
H -1.75404348 15.81570177 30.41868617 -0.01679757 -0.01440846 0.00186727
H 0.69317313 16.07886289 34.35420321 -0.01659020 -0.01160621 0.02171034
H 0.75197152 11.77321334 30.75411029 0.01864813 -0.02716259 -0.00247604
H -2.03713700 12.69899729 24.92680206 -0.00615239 0.02271705 -0.00594942
H -1.87726235 17.60517052 28.57148520 0.01637433 -0.02106320 0.00038130
H -0.33572015 15.32495137 23.64917057 -0.01568827 -0.01355164 0.03406775
H -3.15113737 10.24498846 29.79700931 0.00092484 -0.00485067 -0.00678646
H 4.34865922 14.07959041 0.03009369 0.00455753 0.00634037 -0.01972224
H 2.21857195 18.66632282 29.34771357 0.01226109 0.00837094 -0.00782222
H -0.34397629 16.88017586 25.36865162 0.00388567 -0.01200272 -0.00889613
H -3.13723163 11.54065430 27.79746154 -0.00408831 -0.00164377 0.00720366
H -0.66082151 12.34652212 33.93376589 -0.01529071 -0.02537310 -0.00059254