2160
Time=39000.00000002 pbc="T T T" Lattice="20.64515411 0.00000000 0.00000000 0.00000000 29.03492331 0.00000000 -4.71875604 0.00000000 35.40520769" energy=-13803.09055585 virial="-12.08497087 0.35457926 76.27929801 0.35457926 -30.57328772 10.89259462 76.27929801 10.89259462 -33.22299512" stress="0.00175978 0.00002332 0.00362588 0.00002332 0.00085248 0.00053996 0.00362588 0.00053996 0.00078688" Properties=species:S:1:pos:R:3:vel:R:3
O 0.79866388 8.66272570 2.44810926 0.00554533 0.00078328 0.00151800
O 2.04294439 3.80394589 3.53044967 0.00074320 -0.00673332 0.00034566
O 4.45449919 0.89680092 9.52554015 0.00173724 0.00020390 0.00015211
O 3.22095845 6.03039555 8.23540074 -0.00191106 0.00549333 -0.00140979
O 1.24327001 5.06108174 9.31932157 0.00419969 0.00063089 0.00075821
O -0.19662877 9.34901160 8.00113823 0.00381867 0.00256495 0.00237286
O 3.96012765 5.04370647 2.15143103 0.00238430 -0.00047386 0.00823398
O 5.64889376 28.90634393 3.64119325 -0.00547900 -0.00594410 -0.00092662
O -0.37027901 9.09268860 13.71208052 0.00078780 0.00219734 -0.00382527
O 0.19789540 3.94033919 15.44869310 0.00461966 -0.00460392 -0.00091728
O 2.94328534 1.06005927 21.07304298 -0.00023703 0.00111924 0.00433300
O 1.94103634 5.89366182 20.24571250 -0.00194164 -0.00249183 0.00198770
O -0.23135592 4.76558667 21.50582425 -0.00012988 -0.00372895 -0.00492343
O -1.64601161 9.83347072 20.17219814 -0.00348472 -0.00354846 0.00606044
O 2.34658390 5.06632963 14.03099960 -0.00358421 -0.01060489 0.00229868
O 3.77536444 29.02632434 15.62113117 0.00268019 -0.00050381 -0.00255244
O -2.38189447 8.76842485 25.68629703 0.00228263 -0.00565519 0.00128939
O -1.35796413 3.75244869 26.97380740 -0.00225176 0.00174973 0.00521875
O 1.26937119 0.92282153 33.11250506 -0.00546154 -0.00717979 0.00427720
O 0.29930360 5.84029797 31.84476664 0.00597440 0.00260448 0.00189730
O -1.65642552 4.90033737 33.27741551 0.00692741 0.00117738 0.00333896
O -3.32547612 9.94875468 31.72946215 -0.00666564 -0.00320916 0.00578596
O 0.92822335 4.75879102 26.10725651 -0.00657234 -0.00417331 0.00405414
O 2.51907791 28.91951222 26.69097862 -0.00080814 -0.00142547 0.00273124
O 0.64413235 18.38355128 2.45955707 0.00070023 0.00212221 0.00206916
O 2.03777830 13.20169459 3.31108722 -0.00223191 -0.00491672 -0.00063772
O 4.32687392 10.73529254 9.35548064 0.00068752 -0.00205500 0.00283681
O 3.26001771 15.69008808 8.36111055 0.00345578 -0.00375791 0.00438545
O 1.21015858 14.46855207 9.48651664 0.00058350 -0.00573798 0.00135750
O -0.32710882 19.38387799 8.33508728 0.00610192 0.00423159 0.00171384
O 4.04754971 14.55467985 2.33308648 0.00298390 -0.00055752 0.00238143
O 5.51578486 9.71829246 3.57216528 -0.00258171 0.00138095 -0.00682994
O -0.83528266 18.35450846 14.17699926 0.00027846 -0.00154528 -0.00257332
O 0.14378263 13.68398851 15.69476618 0.00413148 -0.00281314 -0.00329391
O 3.26975087 10.83065867 21.19336840 -0.00716252 -0.00330825 0.00071786
O 1.95731477 15.67412453 20.17761441 0.00074360 0.00264372 -0.00227646
O 0.05186120 14.52480442 21.43193168 0.00662472 -0.00401478 0.00250069
O -1.75059690 19.41210032 19.99980922 -0.00171502 -0.00134322 0.00592953
O 2.30845663 14.42438678 14.11119777 -0.00100458 0.00402097 -0.00279987
O 4.14549619 9.54155377 15.41700132 -0.00692397 0.00100013 0.00022295
O -2.41791318 18.40211461 25.96456285 -0.00145728 -0.00300102 0.00538505
O -1.34017475 13.73679583 27.22411016 -0.00338810 0.00261464 0.00470510
O 1.38813689 10.70879165 32.93369967 0.00443565 -0.00215592 0.00128265
O -0.27517359 15.82765447 32.21660282 0.00341037 0.00333833 0.00127801
O -1.88424450 14.26289112 33.39087859 0.00119537 0.00086517 -0.00177868
O -3.50882933 19.29870572 31.46693987 0.00639939 0.00246593 -0.00289030
O 0.96482003 14.07961586 26.14522084 0.00299115 0.00161304 -0.00103966
O 2.55995619 9.37409966 27.05798441 -0.00150309 0.00534213 -0.00637018
O 0.66726449 28.19201803 2.35274353 -0.00347370 0.00222593 0.00491698
O 1.72382170 23.21113027 3.85452067 0.00486706 -0.00481562 -0.00434590
O 4.53469491 20.41347305 9.60468080 0.00513588 -0.00052713 0.00549087
O 3.26223349 25.29381978 8.41040069 -0.00161397 -0.00257116 -0.00829643
O 1.16269977 24.31104412 9.34476420 -0.00305787 0.00005496 0.00145656
O -0.37764355 0.05102847 8.12200503 0.00145537 -0.00767109 0.00471202
O 3.85728520 24.16206425 2.39226857 -0.00017071 0.00022485 0.00814082
O 5.40729688 19.41969115 3.66313436 0.00159801 -0.00113500 -0.00101823
O -1.04783828 27.87154790 14.43979205 0.00147468 0.00232076 -0.00304065
O 0.30679626 23.05186611 15.38717981 -0.00009538 0.00951527 -0.00446665
O 2.81364366 20.34472127 21.27743380 -0.00023462 0.00290730 -0.00427750
O 1.85994226 24.55045202 19.69174674 0.00543605 0.00043031 -0.00214061
O -0.23177429 24.05073723 21.01221363 -0.00016733 -0.00499431 0.00235736
O -1.85085419 28.89019805 20.03369196 -0.00397397 -0.00165856 -0.00296586
O 2.27593348 24.36183876 14.41489812 -0.00760455 -0.00288674 -0.00223989
O 3.84996864 19.44801868 15.34589216 -0.00342134 0.00285281 0.00003607
O -2.26150569 27.90296508 25.75463848 -0.00139861 0.00227280 0.00361049
O -0.86201492 22.74191822 26.84724782 0.01021639 0.00234407 0.00408986
O 1.35635259 20.33104233 33.19754493 -0.00041341 -0.00627798 -0.00355155
O 0.49207856 25.12449574 31.42590555 0.00301484 -0.00466383 -0.00109197
O -1.79227465 24.69381156 32.80270619 -0.00488369 -0.00111539 0.00208822
O -3.19876207 0.48720233 32.08114834 0.00092948 -0.00377501 -0.00015478
O 1.06886729 24.36092766 25.91547204 0.00068574 0.00239375 -0.00346399
O 2.40222448 19.36982468 27.43523110 0.00046096 -0.00477079 0.00079688
O 7.57225737 8.44646094 2.30398597 -0.00423662 0.00299623 -0.00453317
O 8.57492948 3.48070174 3.28870446 -0.00673835 -0.00379079 0.00182633
O 11.23335347 1.00747817 9.78498436 -0.00629657 0.00117020 0.00010015
O 10.29511584 5.50704556 8.05968645 0.00788375 -0.00239978 -0.00710738
O 8.17323462 4.85189788 9.42587173 0.00289642 0.00411958 -0.00095008
O 6.85209886 10.23183473 8.71475508 -0.00172535 -0.00378070 0.00160615
O 10.81961725 4.44016701 2.47908323 0.00095005 0.00423017 -0.00088914
O 12.41874680 28.79390981 3.59482740 0.00126773 0.00068736 0.00180590
O 6.29708140 8.77835290 14.21719179 0.00064887 0.00598281 0.00145540
O 7.05747580 3.82638748 15.21001267 -0.00257876 -0.00174063 0.00245721
O 9.75661348 1.09151946 21.27280543 -0.00267433 0.00211033 -0.00112186
O 8.77044373 6.13244415 20.13009837 -0.00234131 -0.00437369 -0.00125026
O 6.67280745 5.05147278 21.26144206 0.00387143 0.00029330 -0.00422612
O 5.07010172 9.69715878 19.86121348 -0.00243324 0.00062560 -0.00028561
O 9.24303590 5.06561280 14.18045255 -0.00077325 0.00186229 0.00656773
O 10.77127583 0.09736328 15.53908308 -0.00008334 0.00209356 0.00780218
O 4.67658828 8.68747312 25.87257433 0.00209262 -0.00233780 0.00094066
O 5.66204515 3.62817789 26.74789854 0.00741984 -0.00031324 0.00675254
O 8.30070978 1.05806879 32.92735069 -0.00055463 -0.00476083 -0.00244981
O 7.38501736 5.88827367 32.02178045 -0.00532351 -0.00040550 -0.00213462
O 5.15396291 5.02237940 32.89101184 0.00072594 0.00342185 0.00350808
O 3.38978304 9.52193189 31.73684460 0.00366118 0.00278021 -0.00183829
O 7.66991058 4.99067300 25.73641708 0.00018667 0.00114681 -0.00402918
O 9.41535563 28.99065991 27.17460227 -0.00352200 0.00015924 -0.00294290
O 7.33565910 18.32563838 2.46583173 0.00173995 -0.00152182 0.00544653
O 8.82403946 12.97518838 3.40718307 -0.00049581 -0.00206762 -0.00463343
O 11.26259740 10.62242140 9.54960323 -0.00327692 -0.00122610 -0.00303590
O 10.21054330 15.57505652 8.01023946 -0.00008598 0.00309038 -0.00397423
O 8.15641444 14.86793539 9.42820139 -0.00042436 -0.00089700 0.00069405
O 6.45883216 19.52473456 8.11543344 -0.00238223 -0.00152646 -0.00254029
O 10.95035198 14.33186574 2.30563461 0.00015977 0.00257893 -0.00042130
O 12.31947072 9.53352143 3.66395200 0.00101397 0.00233866 -0.00031311
O 5.93666385 18.32781927 14.39213640 -0.00344166 0.00326221 0.00336612
O 7.27525814 13.45486228 15.22295755 0.00000684 -0.00178785 -0.00073150
O 9.96577583 10.54197698 21.13575588 0.00065762 -0.00692126 0.00243351
O 8.71303679 15.49772099 20.08974945 -0.00428085 0.00028343 -0.00186430
O 6.72770978 14.68389955 21.53609898 0.00217114 0.00372092 0.00781437
O 4.83589253 19.36493018 20.02719517 0.00498874 -0.00268023 -0.00290779
O 9.28489419 14.85292861 13.85255104 -0.00248509 -0.00154696 0.00228460
O 10.94051568 9.85892460 15.65706973 0.00246850 -0.00112758 0.00113963
O 4.55690124 18.27436165 26.07576923 -0.01237232 0.00341754 -0.00098380
O 5.74311918 13.39375270 27.26209932 -0.00361976 0.00401939 0.00508774
O 8.18192027 10.61739097 33.00870552 -0.00382724 -0.00168507 -0.00354866
O 7.18457521 15.90397012 32.23509529 0.00121763 -0.00234597 0.00251059
O 4.89991208 14.82199059 33.26115064 -0.00363074 -0.00588818 -0.00029709
O 3.39443435 19.38994420 31.71892681 0.00533522 -0.00047632 0.00240035
O 7.78280581 14.14767011 25.86595087 0.00520033 -0.00232899 0.00278642
O 9.25783536 9.38014346 27.14892240 0.00387137 -0.00155091 -0.00096235
O 7.63019606 27.59486104 2.57756808 0.00050989 -0.00099151 -0.00205644
O 8.66533802 23.22128167 3.40422160 -0.00120553 0.00235222 -0.00147770
O 11.29781159 20.57443047 9.30481285 0.00153366 -0.00045866 0.00288163
O 10.13129160 25.40730369 8.58812155 0.00199692 -0.00313034 0.00270622
O 7.99924184 24.38907438 9.68236804 0.00350162 -0.00160943 0.00088390
O 6.48754458 0.01411265 8.15646301 -0.00219247 0.00318569 -0.00502907
O 10.93373514 23.72479034 2.44062428 0.00153575 0.00397987 -0.00715830
O 12.29243020 19.36909812 3.57443983 0.00414081 -0.00008713 -0.00397227
O 5.89671380 28.02699276 14.41645103 -0.00445754 0.00452737 0.00678178
O 7.28400437 22.99132785 15.25899346 0.00188931 -0.00116703 -0.00021809
O 9.67757383 20.21133202 21.21564904 0.00203204 -0.00245584 0.00762956
O 8.93878906 25.08380051 20.07979072 -0.00223379 -0.00514272 0.00258699
O 6.60719230 24.28240540 20.97054719 0.00160148 0.00073307 0.00469334
O 4.99497751 28.99018265 19.80598667 -0.00152353 -0.00047331 -0.00670276
O 9.04953708 24.26673454 14.21631925 0.00095960 -0.00161818 0.00190597
O 11.09647089 19.13278778 15.47706854 -0.00039285 -0.00097267 0.00098277
O 4.85662833 28.15948686 25.87699179 0.00258449 -0.00402034 0.00076215
O 5.72857920 22.93516430 27.01990839 0.00399042 0.00139943 -0.00059166
O 8.49094976 20.53627517 32.85969434 0.00334061 -0.00277658 -0.00123193
O 7.30139845 25.38496705 31.89414388 0.00186287 0.00655363 -0.00496498
O 5.11385461 24.36817628 32.99199873 0.00746292 -0.00021225 -0.00319588
O 3.53465336 0.32373571 31.87740621 -0.00261126 -0.00198352 -0.00461260
O 7.96738158 23.85943880 26.02937918 -0.00359486 -0.00036709 -0.00031458
O 9.32703436 19.47343431 27.15806643 0.00467214 -0.00276370 -0.00176863
O 14.51612537 8.84845310 2.34424651 -0.00375389 -0.00502581 -0.00595928
O 15.60336297 4.00129719 3.74550335 -0.00211537 -0.00481792 -0.00254352
O 18.19587998 0.97197503 9.40563816 -0.00161005 0.00398962 0.00196708
O 17.04135022 5.98040350 8.47708872 0.00042136 0.00031031 -0.00501107
O 15.00256554 4.92245500 9.65973259 -0.00540953 0.00019888 0.00149985
O 13.48813008 9.87882508 8.35644510 0.00199147 0.00470931 -0.00149162
O 17.71158147 4.91262602 2.29321082 -0.00397962 0.00339976 -0.00614009
O 19.37888187 0.15675023 3.70011942 0.00046406 -0.00322133 0.00028180
O 12.85952002 8.77042645 14.22692532 -0.00439047 0.00324813 0.00565672
O 13.98865579 3.81375718 15.30287399 -0.00147268 -0.00183620 -0.00202914
O 16.82556733 1.17235445 20.93091312 -0.00138532 0.00638524 0.00383821
O 15.69861469 5.93389714 20.24123354 -0.00153493 -0.00595147 -0.00242735
O 13.48355736 5.07754004 21.24779678 0.00349442 0.00204794 -0.00300118
O 12.22103196 9.80480002 20.14444145 -0.00424829 0.00073172 0.00197817
O 16.26767202 4.69012607 14.05561315 0.00572902 0.00522834 -0.00067109
O 17.59486496 0.11941126 15.39343357 0.00238576 -0.00381254 0.00041207
O 11.62286463 8.74742687 26.10111522 0.00670920 -0.00202380 0.00260422
O 12.32083277 3.84206827 26.99701374 -0.00587430 0.00270901 -0.00205222
O 15.14924483 1.25322335 33.10997546 -0.00231197 0.00876056 -0.00085170
O 14.09335103 5.97237438 32.15281162 0.00253885 -0.00111540 -0.00239369
O 12.03324030 4.81088697 33.35708367 -0.00335418 -0.00181962 0.00196228
O 10.14217732 9.64602723 31.64562567 0.00215217 0.00591886 0.00120308
O 14.44294768 4.67056226 25.78992866 -0.00122933 0.00293180 0.00243085
O 16.10263903 28.67319513 26.67881181 -0.00056208 -0.00341091 -0.00057622
O 14.36034457 18.17047746 2.54945785 0.00896510 0.00820622 0.00176911
O 15.81870288 13.24463448 3.43707954 -0.00149069 0.00790473 -0.00296729
O 18.51410596 10.78719313 9.29130115 0.00199770 0.00097479 0.00825284
O 17.10332062 15.71089619 8.25880459 0.00336566 0.00323718 -0.00022477
O 14.87609559 14.71501781 9.27458038 -0.00264151 -0.00581453 -0.00025166
O 13.49872127 19.42625542 8.31741985 0.00333365 -0.00032490 -0.00039752
O 17.78565695 14.46376793 2.31251507 0.00311404 -0.00092887 0.00095780
O 19.31693637 9.36002845 3.69284862 -0.00612149 0.00278482 0.00788554
O 13.11037552 18.21919363 14.06277845 0.00116657 0.00254431 0.00497708
O 13.84817257 13.69888042 15.40738562 0.00311270 0.00401623 0.00478266
O 16.77865796 10.66966911 21.12158283 -0.00522525 0.00167389 -0.00378381
O 15.67484845 15.64771002 20.02832812 -0.00421612 0.00982347 0.00270490
O 13.58517123 14.51385243 21.38869598 -0.00588438 -0.00630579 -0.00263064
O 11.95596843 19.54255221 20.07140036 0.00362085 0.00862536 -0.00590485
O 16.41197725 14.10546331 14.35488121 0.00313594 -0.00087741 -0.00065269
O 17.81656834 9.36495155 15.30085368 0.00554481 -0.00071072 0.00503254
O 11.27703455 18.25901542 26.05425804 0.00461346 -0.00652222 -0.00132556
O 12.63390554 13.37581945 26.92314478 -0.01014882 -0.00024667 0.00060841
O 15.21312121 10.99230996 32.93796867 0.00049552 -0.00170781 -0.00001781
O 13.98863293 15.71458322 32.05250544 0.00109492 -0.00586469 -0.00609402
O 11.76228886 14.58595818 33.09509918 0.00091263 0.00178600 0.00244519
O 10.50104150 19.63950838 31.55080622 0.00697318 0.00308868 -0.00425972
O 14.62315752 14.52720801 25.82549555 0.00462438 -0.00181904 -0.00695790
O 16.27743891 9.73867604 27.41706441 -0.00254797 0.00011180 0.00072063
O 14.52537330 27.69770025 2.60285104 0.00188715 0.00068633 0.00228879
O 15.66416359 23.05893622 3.71016274 0.00275655 0.00559337 -0.00157406
O 18.42205048 20.96242189 9.26808262 -0.00050362 0.00413888 0.00193769
O 17.07259275 25.71799930 8.57410232 -0.00274586 -0.00042124 -0.00173123
O 14.99114344 24.35854488 9.45775988 -0.00047835 0.00124227 0.00556343
O 13.44830674 0.15322154 8.36492626 0.00687232 -0.00157852 0.00046010
O 17.92598727 24.07988007 2.48916178 0.00398769 -0.00432630 -0.00603184
O 18.92601488 19.35282935 3.12193294 0.00016990 -0.00484417 0.00037397
O 12.57780563 27.89754605 14.36683150 -0.00068673 0.00282054 0.00174936
O 14.17792416 23.03078431 15.16883697 -0.00159309 0.00522709 -0.00098378
O 16.87326312 20.44977888 21.12386607 0.00635232 0.00218912 0.00136167
O 15.75969471 25.12623587 19.86757249 0.00618753 0.00165294 -0.00381231
O 13.57601837 24.21973690 21.10674476 -0.00796002 0.00087913 -0.00266258
O 11.83056083 29.02012589 20.11260700 -0.00240662 -0.00436825 0.00383989
O 16.19890364 24.20341313 14.17112096 0.00437781 0.00187657 0.00056052
O 17.62500669 19.48907265 15.26112190 0.00366480 0.00682638 -0.00379177
O 11.56771249 28.26310926 25.68827681 -0.00348418 -0.00094592 -0.00181106
O 12.68323501 22.89617335 26.79055813 0.00664472 -0.00128773 -0.00037573
O 15.25138994 20.59965681 32.84295840 -0.00190252 -0.00052403 0.00992720
O 14.27638167 25.61572913 31.89461712 -0.00626414 0.00315415 0.00471555
O 12.18702527 24.47998088 32.90952878 0.00016803 -0.00490864 0.00495742
O 10.48518837 0.19647981 31.82168235 0.00674218 -0.00343908 -0.00404502
O 14.70759114 24.30682420 25.81657502 0.00159910 0.00349082 0.00120994
O 16.27897954 19.22463551 27.40062958 0.00044613 -0.00287158 0.00201973
H -0.03570012 9.02116240 2.73808795 0.00329629 0.00742124 0.01972554
H 2.86841953 4.27559815 3.35970885 0.00235377 -0.01186752 -0.01336546
H 5.27883151 0.56063312 9.07703438 -0.00768481 0.01975095 0.00350896
H 2.40065054 5.59438914 8.64708191 0.00310190 0.00785770 -0.02537765
H 5.90070830 8.47542449 0.56739717 -0.01365906 -0.02822181 -0.00278702
H 4.03614108 3.23021348 5.18706859 0.00804953 0.00165101 0.00573287
H -0.32752852 1.28723499 10.95079504 -0.01719029 0.00018712 0.00910916
H 1.34450723 6.32490907 6.42691283 -0.00979439 0.00306720 -0.00468939
H 4.06148826 6.71267680 10.83111328 -0.01668766 0.00956174 0.01840927
H 3.98278520 1.41465870 6.95959216 -0.00005503 -0.02905105 -0.01718536
H 1.19236537 3.55575211 1.04052873 -0.01464324 0.01529398 0.01853237
H 1.29675176 7.71349744 4.49277736 0.01190312 0.00325866 0.00279393
H 2.78365079 5.41044468 0.10092736 -0.00628547 0.00164774 -0.01338455
H -0.11099671 0.70397141 6.12854784 0.00209706 -0.02986193 -0.00910138
H 2.62811680 4.40621185 11.75727630 -0.01253937 0.03508637 -0.02147667
H 5.26403639 8.98243085 5.58650254 -0.00101980 0.00482640 0.00996396
H 2.83123892 7.03824558 1.82179056 -0.00593886 -0.00122352 0.00252444
H -0.12252154 2.52821756 4.31738637 -0.00584020 0.00407711 0.03383535
H 2.58802158 2.67033605 9.82158882 -0.01178703 0.01690015 0.04237056
H 5.23446879 7.36630279 7.49308732 -0.00114230 0.00706720 0.00477944
H 5.09627111 5.00912172 9.66076612 0.02214980 -0.00105559 0.02809011
H 2.84804545 0.03092784 8.00594394 -0.01628105 0.00462016 -0.01761265
H 0.19365320 4.81616705 2.41855521 -0.03587099 -0.01168361 0.00024368
H 2.35480282 9.69079277 3.69629853 0.00333309 -0.00171951 0.00656057
H 5.34655253 3.25616413 8.34658177 -0.02069555 -0.01067291 0.01719228
H 2.44187739 8.45956934 9.93242313 -0.02708295 0.02098839 -0.02287564
H 18.30510855 6.27307267 4.22209629 0.01532248 -0.02860527 0.01049477
H 3.09311432 1.19440362 2.03785540 -0.00879048 -0.02748813 0.01388592
H 19.35194465 3.77134065 7.82403975 -0.01111623 -0.03622749 0.00881159
H 1.09013257 7.40181848 9.57038833 0.01005244 -0.00502652 0.00149555
H 6.06739691 5.05444034 4.35429782 0.01102354 0.01238126 -0.01483406
H 4.43409887 2.16845339 2.53711747 0.01823126 -0.02203441 -0.01035197
H 0.06660680 2.76782433 8.28933699 -0.00157848 -0.00271029 0.00324509
H 0.73633100 8.78555738 10.47329870 -0.00373070 0.01125829 -0.00227540
H 6.12008968 6.65682301 3.50013080 -0.02849723 -0.03075475 -0.00552994
H 4.67842570 0.90567011 1.36217104 0.00388820 0.02520969 -0.00917528
H -1.12376401 9.22589717 14.26773913 -0.01952072 0.01047277 -0.01010487
H 1.09460735 4.28737356 15.18288025 -0.01157339 0.01058207 0.01905485
H 3.88616473 0.79698634 20.81776694 -0.03522462 0.00439931 -0.00961254
H 1.07176920 5.32199188 20.31220462 0.00833869 -0.00242507 -0.00269935
H 4.24125205 8.36055452 12.52578173 0.00082809 -0.00642642 0.00092269
H 2.23964968 3.34070372 16.85752287 -0.02299901 0.01952826 0.01162785
H -2.07140491 1.29085989 22.82310700 -0.00302227 0.00727506 0.00552599
H 0.00008023 6.24741881 18.42778369 -0.00803130 0.01324856 -0.00714507
H 2.48952779 6.47318099 22.69078463 0.01993319 -0.01220358 -0.02856493
H 2.12327224 1.94216455 19.09451024 -0.00572202 0.01760467 0.00114953
H -0.26125440 2.96836462 12.75145913 -0.01792834 -0.01068342 -0.00181068
H 0.05827991 7.63897197 16.48469736 0.02678801 -0.00829429 0.01029947
H 1.17064226 5.36603909 11.65865284 -0.00472654 -0.00232678 -0.00698884
H -1.65447295 0.55465035 17.98600385 0.01604047 0.00292620 0.01380098
H 0.99058107 4.32658687 23.73135022 0.01596846 -0.01447446 -0.00943399
H 3.99369259 9.03489153 17.69622197 -0.00638645 -0.00616582 0.02955742
H 1.44852800 7.35947828 13.13141743 -0.00072331 -0.00543778 -0.01466663
H -1.78962215 2.44680751 16.12822795 -0.00196122 0.00334912 0.01522209
H 1.02345297 2.69602332 21.75413694 0.01009029 0.01133317 -0.01875092
H 3.92417172 7.69981173 19.70752814 0.00814724 -0.00228948 -0.00181733
H 3.57638543 4.86762942 21.35196487 -0.00875912 -0.00685389 -0.01847312
H 1.33440539 28.94226332 19.91639091 -0.02555164 0.02025608 0.00096632
H -1.26306748 4.89503591 13.68741374 0.00751560 -0.00153656 0.02330557
H 0.95662204 9.72825919 15.57092716 0.00407678 0.01717872 -0.00795933
H 5.71627696 4.31598257 18.92464646 -0.00832038 -0.00563922 -0.01024987
H 0.70381507 8.48954015 21.84293764 0.00450959 0.00355463 0.00884350
H 16.96887110 5.82633310 16.23014047 -0.00779186 0.01002753 0.02308991
H 1.95661653 2.11103650 14.44605271 -0.00288949 0.00619934 0.01432338
H -1.12940602 2.52111670 20.34653136 0.00638397 -0.02790985 0.00488910
H -0.23876209 7.20514754 21.08755526 0.00421573 -0.02060372 0.00530517
H 3.21228376 5.22693743 16.42628145 -0.00991680 -0.00027337 -0.01496288
H 3.30227106 1.33864056 13.58277944 -0.01833811 -0.00082111 -0.00932076
H -1.09065602 3.74623050 19.10743195 0.01611019 -0.00665075 0.02196509
H -0.92870314 8.33853963 22.20481229 -0.00138110 0.00382372 0.02157297
H 5.04043967 5.73462026 15.89083018 0.01263148 0.00790357 0.02603438
H 1.61989129 0.72974309 13.37511161 -0.00725500 -0.00597519 -0.01862877
H -3.14195840 9.16960356 26.21729421 -0.01927661 0.00684009 0.03227057
H -0.54203471 4.16123284 26.73746799 0.00087642 -0.01084783 0.03598258
H 2.11766594 0.58335868 32.78264509 -0.00712063 0.00068696 0.01649180
H -0.55374369 5.46482680 32.17956487 -0.01686766 -0.00337537 0.00593805
H 2.55271652 8.17709190 24.57024787 0.00930403 -0.01679474 -0.01682363
H 0.78409142 3.19259977 28.41522860 0.02112056 -0.00281150 -0.02633090
H -3.56305441 1.74526865 34.80854676 0.00196071 0.00132570 -0.01786555
H -1.51594376 5.97059867 30.04422753 -0.01518323 0.01182030 -0.02196096
H 0.94774422 6.74966553 34.02689452 0.02332241 -0.00317903 0.00027738
H 0.88104794 1.85448235 30.42553754 -0.00748396 -0.00057226 0.00323020
H -2.11230410 2.69604054 24.82384365 0.00166471 -0.01765000 0.00083800
H -1.68326463 7.86277272 28.27750487 -0.00554613 -0.01148137 0.01249490
H -0.49304323 5.29185066 23.58064185 0.01578687 -0.02456963 -0.00508759
H -3.34289159 0.79261812 29.71882054 0.01484794 -0.00334422 0.01942364
H 3.90792649 4.10816385 0.30026351 -0.00425798 0.01727682 0.00936519
H 2.33659348 8.90229738 29.11951630 0.01499368 -0.01720874 -0.01490281
H -0.36744278 6.99276150 25.24133075 -0.00573758 -0.00675258 0.01255058
H -3.29501624 2.26542985 27.77765954 -0.01646264 -0.00358161 0.00448133
H -0.76648498 2.38850673 33.70578376 -0.02960563 -0.00162025 -0.00418067
H 2.32312957 7.40574861 31.14877401 0.01341514 -0.00262811 -0.00695071
H 2.00649602 4.66036764 33.16285143 0.00166933 -0.02328651 0.00310314
H -0.18664938 28.84092697 31.45094711 -0.00854887 0.01145094 0.01266971
H -3.08961273 4.63523309 25.84104728 0.01792364 0.01577756 0.00223654
H -0.54183485 9.74367624 27.36455548 -0.00160434 0.00168451 -0.01125694
H 4.45350013 2.51492557 31.93409081 -0.01361759 0.01489884 -0.00357389
H -1.61317354 7.59579852 32.73798619 -0.01588521 0.02310500 -0.01729421
H 15.68021388 7.12821478 26.57609204 -0.00405461 -0.01343056 -0.00650817
H 1.65433180 1.41228073 24.81670589 -0.01786127 -0.01452546 0.00410198
H -2.64249995 3.62443280 31.03844780 -0.00785389 -0.00764612 0.01187746
H -2.81360632 8.45031796 33.69922848 -0.00031690 -0.01346182 -0.00815501
H 2.03024243 7.14672269 26.54222750 0.01855275 0.02007731 -0.00306343
H 0.09728246 0.47528969 24.92327048 -0.01465823 -0.00022221 -0.01208377
H -4.23093650 3.51736596 31.86684454 -0.01376416 0.00498044 0.00849805
H -1.04447648 8.94523676 33.68859142 0.00319378 -0.01203352 -0.00767636
H 2.07752809 6.04931472 28.07628426 -0.00772437 -0.01967458 -0.03387572
H 0.26667649 1.94182112 25.80960864 0.00681084 -0.00054268 -0.02900643
H -0.24206411 18.72883530 2.61742608 0.00458866 0.01158403 0.00962231
H 2.83314604 13.78810345 3.26018288 0.00764193 0.00000270 -0.00250372
H 5.28578179 10.40302205 9.02897260 -0.01220226 0.01826011 0.00079567
H 2.42964526 15.17665405 8.72120095 -0.00022607 -0.00479830 -0.02468995
H 5.57535784 18.06053014 0.53230622 0.00122275 0.01647371 -0.01840913
H 3.86735110 12.80836667 4.93123449 -0.00258551 0.01693359 -0.00989295
H -0.13915898 11.18715599 10.94862192 0.01179801 -0.01378264 0.02976174
H 1.44420391 15.90657917 6.73398440 0.00150153 -0.02029633 -0.00462024
H 4.02505208 16.57334995 10.65612922 -0.00073520 -0.00386270 0.00250231
H 3.79934004 11.67807959 7.06459613 0.01374798 0.02093183 0.00590410
H 1.38086775 12.79288799 1.13317711 0.02311397 -0.00147786 -0.01722012
H 1.39120636 17.58783645 4.62258489 -0.01104805 0.00795446 0.00695353
H -2.00534167 15.21380274 35.38265355 0.00745704 -0.00964053 0.00375598
H -0.19327554 10.51804805 6.20911527 0.02035679 0.00269698 0.01591719
H 2.44597362 13.87919037 11.97525055 -0.00140062 0.01074171 -0.01835777
H 5.20002305 18.96064697 5.74244001 -0.00238450 -0.01143030 0.00757895
H 2.73678907 16.68110036 1.71546426 -0.00331801 -0.00997438 -0.00668279
H -0.20884469 12.17604677 4.35926866 0.00273211 0.01315248 -0.00533466
H 2.38855787 12.23432541 9.94574718 0.00550402 -0.00307243 0.03932866
H 5.31132961 17.22836418 7.54369179 0.00128275 -0.01177964 -0.01607823
H 5.09050084 14.58195174 9.70820137 -0.00403950 0.02523280 0.00753520
H 2.93562893 9.53553049 7.84126264 0.01121474 -0.01460511 -0.00585778
H 0.21877177 14.45981826 2.33564593 -0.00067577 0.00403915 0.00154616
H 2.25934015 19.25996439 3.66995888 -0.04158075 0.00774354 -0.01803721
H 7.62559294 12.71505388 8.16158812 -0.00270295 0.00349510 -0.01477509
H 2.28651722 18.57353470 10.28701267 -0.02000170 -0.01091738 0.00170133
H -0.39101680 16.30450108 3.51885050 0.00911381 0.01658229 0.00942508
H 3.24998694 9.91073102 1.57000930 0.01746118 -0.00800589 -0.00046464
H 0.15952028 12.22272076 8.22480450 0.00975015 -0.01970167 0.00464132
H 1.44729974 17.22331876 9.49937288 -0.00733661 0.01569404 0.01324552
H 6.39660856 15.51950159 4.28356797 0.00408083 -0.00497400 -0.00597227
H 3.59494330 11.56826007 2.07791261 -0.00407945 -0.00012030 -0.01090898
H -0.21319054 13.68992633 7.32743363 0.00795127 -0.01014640 0.00955502
H 0.54264455 18.27775736 10.57366590 -0.00648210 0.01455351 -0.00216249
H 5.46153020 16.66492240 3.38589609 0.01857656 -0.01039995 -0.01006021
H 4.86833011 10.59656107 1.25748375 0.00677180 -0.01565033 0.00759617
H -1.69551348 18.75164807 14.46630542 -0.00323566 0.01321697 0.00460580
H 0.94085417 13.81001380 15.15298501 -0.01869979 -0.00882969 0.00666934
H 4.12952812 10.51799348 20.87867811 -0.00976928 0.01389233 0.02403008
H 1.23485410 15.04360332 20.50394194 0.02748240 -0.00653581 -0.00504568
H 3.92418596 17.93230330 12.84176638 -0.00011744 0.01430895 0.02065406
H 2.09478349 13.34926281 17.39313037 0.01458464 -0.01622053 0.02108722
H -1.79488276 11.05315299 22.71496081 0.01103915 -0.00567898 0.01818803
H -0.09457133 15.95696751 18.45905537 -0.03043025 0.01984424 0.02717883
H 2.37150245 16.21073916 22.66651437 -0.02084652 0.01093269 -0.00318661
H 2.32117811 11.41320730 18.87018574 -0.01024139 0.01330680 -0.00114154
H -0.24514393 12.39537947 12.98379986 0.01784990 0.02599793 -0.01366301
H -0.08821477 17.43583443 16.47940980 0.00948465 0.01006794 -0.00406220
H 1.13712928 15.25497740 11.61670635 -0.00872853 -0.00213085 -0.02909117
H -1.73883614 10.12198782 17.82216444 -0.00830213 -0.01886294 0.02698076
H 0.98985566 13.80150054 23.89391644 -0.00334822 0.02265837 -0.02926290
H 3.89408116 18.62507285 17.45746711 0.00708435 0.01248073 -0.00425478
H 1.11269165 16.79186623 13.67708075 0.00455153 0.00262182 -0.00485512
H -1.76852054 11.90109186 16.14219164 0.01991400 0.00139636 0.00857478
H 1.09527141 12.27154289 21.90827311 0.00925867 0.01984310 0.00909017
H 3.96872293 17.20732348 19.28627926 0.01710001 0.01482133 -0.01283167
H 3.50512058 14.69660779 21.40251765 0.02032182 -0.01697570 -0.01744556
H 1.48345015 9.86031526 19.90320515 -0.00354183 0.02103314 0.01645136
H -1.07869965 14.26364399 13.91732180 0.01015120 -0.00368903 0.00396852
H 0.62381853 19.12094795 15.52595000 0.00288938 0.00463713 -0.00896121
H 6.30586451 13.29769511 19.50049773 -0.00513181 0.00607552 -0.03430615
H 0.25421998 17.31210506 21.37769473 0.00517112 -0.00444270 -0.01352874
H -1.82885659 15.90103367 15.37184674 0.02351357 0.00972089 0.00357040
H 1.54991838 10.97780010 14.20392115 -0.01854431 -0.00325475 0.00741958
H -1.62850433 14.03954327 19.08339680 0.03242387 -0.01746619 0.01931877
H -1.24345253 18.19033967 22.12703327 -0.00829563 0.02004461 -0.00312527
H 4.91608317 15.37215346 15.84651464 0.02017346 0.01437062 -0.00304868
H 3.09556990 11.89617050 14.37690960 -0.00033012 0.00705384 0.00404151
H -2.24940622 12.75647799 20.10393308 -0.01485987 -0.00396465 0.00271195
H 0.36724357 18.78368655 22.37899757 0.00139542 0.01554822 0.02608994
H 3.60028687 16.53628319 15.22660446 -0.00476790 0.00752064 0.00413630
H 3.02489840 10.54768979 13.25030998 0.00393309 -0.00455988 -0.00777796
H -3.31196440 18.72681943 26.28068981 0.02298889 0.00941798 -0.02106098
H -0.48150612 14.10371472 26.81795097 -0.00970044 0.02163239 -0.02898838
H 2.22145106 10.30023896 32.56522733 -0.00585099 -0.00308720 -0.02571253
H -0.99352335 15.09990873 32.34243364 0.00335713 0.04017050 0.01626653
H 2.44100044 17.83787648 24.51537426 0.00379118 -0.00154986 -0.00512923
H 0.66295875 13.36243526 28.98530051 0.00206381 -0.03915329 -0.01106974
H -3.35647274 11.48435004 34.43054063 -0.01626544 -0.00839656 -0.01082442
H -2.05714701 16.09309075 30.23659157 0.00909813 0.00558948 -0.00483181
H 0.74345175 16.34530338 34.32228624 -0.00470555 0.00658198 -0.00415714
H 0.76897969 11.58016699 30.40845283 -0.01584305 0.01841813 0.01649721
H -1.95233720 12.48655661 24.92275440 -0.01101133 0.01359014 0.00017922
H -1.77484401 17.79985833 28.33480399 -0.00978586 -0.02706982 0.01995856
H -0.28406531 15.07121023 23.68175122 -0.00057934 -0.00482865 -0.00793043
H -3.14428039 10.19994843 29.48348545 -0.00154913 -0.00691011 -0.02458950
H 4.17077403 13.91958206 0.10232788 -0.00324173 -0.01585110 0.02523412
H 2.16056451 18.67779321 29.60777130 0.01235461 0.01519604 -0.00142477
H -0.33135761 17.01718232 25.29440947 -0.00939521 0.00101822 -0.00810417
H -3.28446577 11.82761027 27.66383471 0.00760281 0.00508346 0.01744947
H -0.53613980 12.03313646 33.74067807 0.01093818 -0.01591230 -0.01269821