2160
Time=14000.00000000 pbc="T T T" Lattice="20.52025428 0.00000000 0.00000000 0.00000000 29.09344330 0.00000000 -4.73067004 0.00000000 35.58421675" energy=-13800.07758927 virial="-40.08482366 6.46032116 94.07459041 6.46032116 -78.35217447 -11.82660567 94.07459041 -11.82660567 -49.76291260" stress="0.00092473 0.00022669 0.00458260 0.00022669 -0.00174053 -0.00057716 0.00458260 -0.00057716 -0.00038326" Properties=species:S:1:pos:R:3:vel:R:3
O 0.98437570 8.89100913 2.34109243 -0.00189032 0.00100194 -0.00267708
O 1.77316419 3.88011482 3.67139190 0.00105033 0.00387027 -0.00045421
O 4.61965167 1.25028136 9.34264794 0.00803646 0.00031389 0.00368982
O 3.33348360 5.96958860 8.29846666 -0.00243449 -0.00012814 -0.00489147
O 1.30987146 4.75844514 9.51447798 0.00165816 0.00067425 -0.00104664
O -0.08336340 9.83609666 8.24167162 0.00564665 0.00769332 0.00022096
O 3.89271813 4.72452596 2.34045685 -0.00499775 -0.00524609 -0.00379237
O 5.36077360 28.91588754 3.24860318 0.00168430 0.00189428 -0.00096614
O -0.76523070 8.58263621 14.16756501 0.00182069 0.00212463 0.00202521
O 0.28636502 3.71006637 15.66074011 -0.00175978 -0.00208228 0.00171100
O 3.03172716 0.90145177 21.37707795 0.00236816 -0.00216851 -0.00212660
O 1.79746403 6.23881003 20.37188427 0.00297835 0.00029766 -0.00080348
O -0.24593975 4.81838097 21.22287747 0.00299777 -0.00189444 0.00256199
O -1.96307001 9.96756616 20.08555039 -0.00115491 0.00101976 -0.00087670
O 2.23407164 4.43680713 14.34348507 0.00552225 0.00716256 0.00376135
O 3.93747586 0.04779916 15.51253212 0.00156130 -0.00291068 0.00285369
O -2.62634802 8.60559271 25.89162318 0.00009913 0.00167799 0.00370441
O -1.40872443 3.57120044 27.05574191 0.00056628 -0.00073006 0.00114155
O 1.06456091 1.07450555 32.98714177 0.00146174 -0.00111420 -0.00015035
O -0.08150246 5.97263048 32.06320391 0.00065377 -0.00087787 -0.00077971
O -2.03468386 4.89052739 33.36237859 -0.00071222 -0.00140544 0.00282729
O -3.43947295 9.88343484 31.97282415 -0.00300782 0.00181071 -0.00270303
O 0.66755723 4.84260390 25.86673023 0.00232949 -0.00106969 0.00219644
O 2.02438413 28.79324741 27.05877239 -0.00463090 -0.00283002 -0.00439043
O 0.69217287 18.12507570 2.49197671 -0.00082125 -0.00360188 -0.00339568
O 1.74070992 13.58315021 3.56657016 -0.00277816 -0.00060760 -0.00118537
O 4.72198937 11.01552248 9.11362050 0.00063258 0.00099816 0.00177463
O 3.49158204 15.46718232 8.26306912 0.00220781 -0.00087004 -0.00002019
O 1.36782669 14.65178428 9.60721791 -0.00068646 -0.00258301 -0.00207848
O -0.21682325 19.47184559 8.30317682 -0.00119114 0.00018940 0.00292885
O 4.09225581 14.28687338 2.40715772 0.00547998 0.00142580 -0.00035313
O 5.76179472 9.57593625 3.68926520 -0.00257147 0.00524196 0.00018801
O -0.93118099 17.96091277 14.46967570 -0.00084085 -0.00409237 -0.00555210
O 0.49563282 13.24724305 15.23038410 -0.00488069 -0.00397639 0.00025918
O 2.95198954 10.51905018 21.40367790 0.00724857 -0.00259070 -0.00247972
O 1.80213353 15.57170660 20.19771171 -0.00253748 -0.00116149 0.00352429
O -0.13475451 14.44717035 21.50011095 -0.00432970 0.00136363 -0.00125450
O -1.70193178 19.42035313 20.21133996 0.00272941 -0.00041015 0.00250053
O 2.53611510 14.16120223 13.99636338 -0.00532305 0.00222047 0.00030208
O 4.15186405 9.75308115 15.54367552 -0.00305197 0.00113925 -0.00363066
O -2.29891577 18.27869705 26.21112000 0.00291493 -0.00123872 0.00011043
O -1.30071609 13.31067246 27.19016702 0.00617438 -0.00124658 -0.00499798
O 1.42353979 10.89166795 33.18004503 -0.00566220 0.00344811 0.00137819
O 0.36898499 15.72587156 32.15586184 -0.00200076 0.00765294 0.00340421
O -1.72945150 14.59467361 33.27964810 0.00353641 0.00614503 0.00068357
O -3.18599402 19.84266588 32.42655258 0.00263022 -0.00373806 -0.00003416
O 0.74223571 14.29712969 26.03143393 0.00008041 -0.00068622 -0.00163591
O 2.23427067 9.62345989 27.20209349 -0.00205185 -0.00167275 0.00320294
O 0.55806773 27.95463312 2.57721986 0.00410805 -0.00532975 -0.00496528
O 2.02060548 23.14458306 3.72803268 0.00551769 -0.00253043 0.00652911
O 4.32719621 20.52980517 9.71844309 0.00293801 -0.00063929 -0.00242432
O 3.44256571 25.43640816 8.33088421 0.00133927 0.00050827 -0.00203464
O 1.39413897 24.41343518 9.56556069 -0.00600180 -0.00063055 -0.00199824
O -0.16464512 28.93989689 8.16002338 0.00201293 -0.00163272 0.00195053
O 3.82058362 24.27838913 2.35703464 -0.00943461 0.00053014 -0.00287789
O 5.62905026 19.37679120 3.63796911 -0.00490654 -0.00701106 -0.00015960
O -0.78908825 28.00576133 14.16423559 0.00286619 -0.00361961 -0.00212600
O 0.34194465 23.04231614 15.50597411 -0.00126646 -0.00342905 0.00037766
O 3.02000401 20.57388725 21.13226307 0.00545494 -0.00875194 0.00651468
O 1.69765566 25.38226953 20.24009970 -0.00276885 0.00205456 -0.00103647
O -0.17767328 24.09129737 21.42787723 0.00039662 0.00681834 -0.00576620
O -1.69986325 0.07569992 20.20703991 0.00016822 -0.00603247 0.00250681
O 2.43076928 24.34274806 14.37976951 0.00036233 0.00168047 -0.00104440
O 3.89842670 19.04032760 15.25053453 0.00053531 0.00217050 0.00375083
O -2.42493592 28.10383541 26.01175013 -0.00210154 0.00043450 0.00023783
O -1.29302448 23.13803797 27.22666233 -0.00304899 -0.00123681 -0.00559113
O 1.39260856 20.38999511 33.29327288 0.00059272 0.00018923 0.00385695
O 0.07806860 25.28328938 32.07279344 -0.00159564 0.00006193 0.00030965
O -2.18054347 24.60841375 33.24020356 0.00072911 0.00424687 0.00277142
O -3.64715632 28.96897031 31.63690792 -0.00166406 0.00104872 -0.00208217
O 0.83159498 24.19350222 25.90258359 0.00396547 0.00348931 -0.00699358
O 2.43150730 19.37426968 27.34878032 -0.00323478 -0.00210501 -0.00245330
O 7.73530262 8.49013569 2.20552419 -0.00316426 -0.00267731 -0.00323029
O 8.54997072 3.82154390 3.67309023 -0.00094519 -0.00011702 -0.00041154
O 11.28784854 0.95361934 9.52328216 -0.00749131 0.00679718 -0.00127883
O 10.22646617 6.06296645 8.41851951 0.00187878 -0.00519644 0.00292465
O 8.19081013 4.91532251 9.53310411 -0.00253062 -0.00048500 0.00135112
O 6.72602378 9.69154088 8.26195153 -0.00215827 -0.00113441 0.00079305
O 10.80779724 4.61718768 2.17254453 0.00188640 0.00449146 0.00648910
O 12.35621294 28.86483092 3.65924487 0.00536263 -0.00335639 -0.00463631
O 6.02764167 8.58959819 14.23716473 0.00258024 -0.00255801 0.00041544
O 7.14586165 3.80751538 15.20196438 -0.00258764 -0.00199254 -0.00022578
O 9.80271550 1.26723909 21.37133511 0.00053438 0.00522375 0.00237363
O 8.61025084 6.21493632 20.41246469 0.00601313 0.00399264 -0.00083609
O 6.40657396 5.11723026 21.49342460 0.00159170 0.00327612 -0.00187411
O 5.21333712 10.12121169 20.14325890 0.00078019 -0.00102885 0.00109351
O 9.19919730 4.89274038 13.98985003 0.00145357 -0.00025954 0.00132854
O 10.82494738 0.28847805 15.38307228 0.00082448 -0.00458140 0.00147614
O 4.34371117 8.33009551 26.43226928 0.00079364 -0.00291297 0.00104622
O 5.40606110 3.63683344 27.26593629 -0.00234754 0.00383064 -0.00083744
O 8.01047845 0.82038715 33.11403988 0.00002871 0.00136398 -0.00012765
O 6.97833296 5.94682673 32.07101953 0.00688196 0.00037980 -0.00191160
O 4.74463628 4.59303369 32.96554123 -0.00086637 0.00165011 0.00235462
O 3.75358932 9.80149041 32.33379595 0.00194620 0.00470623 -0.00072741
O 7.67023826 4.58300780 26.20646057 0.00479961 0.00553144 0.00055390
O 9.06195577 28.91293533 27.38419960 0.00441713 0.00196276 0.00032531
O 7.90134778 18.53665549 2.48433386 0.00010674 -0.00013589 -0.00604724
O 8.75185657 13.26502045 3.24113227 0.00086224 -0.00198838 -0.00343164
O 11.51434352 10.84264790 9.22582971 -0.00330626 -0.00277660 -0.00194083
O 10.19886404 15.84911981 8.25694140 0.00277218 0.00071761 -0.00089857
O 8.34398393 14.53419464 9.55016481 -0.00412700 0.00443965 -0.00179347
O 6.53721482 19.61998355 8.41822640 0.00199446 -0.00295613 0.00101382
O 11.00030445 14.37475831 2.57718815 -0.00063367 -0.00017899 0.00263170
O 12.44023112 9.89026575 3.70067178 0.00323346 -0.00209332 -0.00260127
O 6.17055790 18.12241165 14.36175429 0.00146160 0.00036666 0.00061135
O 7.32048950 13.35875929 15.13751003 0.00045382 0.00267224 0.00449145
O 9.81705249 10.88402124 21.44925056 -0.00601044 -0.00350064 -0.00129859
O 8.69537786 15.46902069 20.19591197 0.00179129 -0.00169018 0.00024841
O 6.67549073 14.43751214 21.48899554 0.00208663 -0.00243155 0.00086578
O 5.14810247 19.28072126 20.28481271 0.00166657 0.00227846 -0.00229721
O 9.36097273 14.37194352 13.93934222 0.00288700 0.00098547 -0.00117006
O 10.76914924 9.27727278 15.30321067 0.00130352 -0.00187427 0.00100713
O 4.39349023 18.05375534 26.22128789 0.00056272 0.00083767 0.00341912
O 5.55466990 13.50297574 27.43931956 0.00303629 0.00268624 0.00612144
O 8.50314611 11.12673343 33.18743986 -0.00232464 -0.00521848 -0.00069836
O 7.09967672 15.78095968 32.06848112 0.00099819 -0.00183427 -0.00292590
O 5.07372616 14.58108303 33.44338438 -0.00661471 0.00179070 0.00038623
O 3.34618882 19.48490776 31.98039485 -0.00269102 0.00327861 0.00471273
O 7.66139760 14.47416982 26.28823329 0.00157573 0.00074834 0.00572374
O 9.08173227 9.64069437 27.17859952 -0.00493410 0.00041964 0.00061312
O 7.56074674 28.18065689 2.06751288 -0.00359010 -0.00049721 -0.00072354
O 8.56060904 23.43673673 3.75067463 -0.00103169 -0.00429997 0.00155633
O 11.28704738 20.55889182 9.80986541 -0.00086826 -0.00053711 0.00019963
O 10.22956180 25.21208742 8.42429001 -0.00164551 -0.01051608 0.00387172
O 8.01551656 24.27207537 9.52489292 0.00158102 0.00101165 0.00125644
O 6.54460191 29.00174098 8.22868915 -0.00033023 -0.00032477 0.00099260
O 10.62454367 24.21786656 2.47061414 0.00212441 -0.00318141 0.00046977
O 12.46176947 19.73764105 3.69197743 -0.00087654 0.00163252 -0.00099110
O 5.81180465 28.13312757 14.28180051 0.00064233 -0.00040128 0.00055511
O 7.20585719 22.82853651 15.36221600 -0.00155153 -0.00278341 0.00373809
O 10.01553587 20.21203084 21.39683581 -0.00010298 -0.00238576 -0.00086871
O 8.54935053 25.59209720 20.22333694 0.00250469 -0.00212946 -0.00326579
O 6.60957424 24.42071386 21.45523012 0.00091861 0.00094965 -0.00120777
O 5.10177125 0.11159952 20.08384405 0.00828915 -0.00005000 -0.00186906
O 9.19424936 24.42018497 14.39105104 -0.00308074 -0.00283118 0.00259385
O 10.84877554 19.18169931 15.39169653 0.00792761 -0.00029188 0.00357241
O 4.47856747 27.95260573 26.09867620 0.00023196 -0.00253197 0.00215489
O 5.49433353 23.31843223 27.30492247 -0.00124067 0.00060302 -0.00138555
O 8.09054531 20.66868967 33.15253679 -0.00247336 -0.00307559 -0.00157801
O 6.60680384 25.35029907 31.91313464 -0.00317416 0.00162587 0.00554637
O 4.73874674 24.18598932 33.49884587 0.00373147 -0.00147219 0.00306451
O 3.29355607 29.08274551 32.01514089 -0.00216456 0.00284937 -0.00023096
O 7.55447684 24.19193648 25.76952081 -0.00006447 0.00359813 -0.00089736
O 9.29501846 19.43711733 27.33258055 -0.00977234 0.00076761 -0.00055758
O 14.47637776 8.60860568 2.37026018 -0.00232353 0.00225845 0.00021143
O 15.29040052 3.96451760 3.65070965 0.00527287 0.00081370 0.00030359
O 18.25499928 1.12142827 9.29436088 -0.00194124 0.00073701 -0.00582869
O 17.29877280 5.92034883 8.03227101 -0.00079046 -0.00181928 -0.00319028
O 15.10605996 5.04561494 9.44637849 -0.00019024 -0.00016723 0.00437671
O 13.43790979 9.76245210 7.79762265 -0.00224324 0.00020172 -0.00277831
O 17.53142315 4.72288399 2.48814178 0.00479541 0.00071149 0.00320421
O 19.17504147 0.20423287 3.57194065 -0.00501996 0.00176688 0.00214195
O 13.09920454 8.96109478 14.13116417 0.00543085 -0.00164455 -0.00277916
O 13.97023882 3.81882104 15.25237817 -0.00016976 0.00253085 -0.00408144
O 16.55781358 1.10626632 21.08054375 0.00050186 -0.00185669 0.00796694
O 15.42016621 6.01165048 20.09490122 0.00360487 -0.00048973 0.00131052
O 13.45715871 4.93701288 21.29689445 0.00369744 0.00330082 0.00157925
O 11.90020951 9.91493493 20.18983795 0.00327050 -0.00489550 0.00044652
O 16.10134183 4.75842113 14.12096061 -0.00324264 0.00240876 0.00318486
O 17.72993946 28.82630001 15.37718548 -0.00450430 0.00461433 0.00121576
O 11.25972129 8.55049450 26.14094197 0.00537902 0.00195651 -0.00294974
O 12.26235979 3.82536836 27.32434801 -0.00520204 -0.00254326 0.00015677
O 14.79562407 1.03866991 33.22363287 0.00292986 0.00148281 0.00181916
O 13.81691089 6.15042249 32.33430975 0.00156002 -0.00131823 -0.00392929
O 11.62084759 4.87575380 33.23057824 -0.00156848 0.00120086 -0.00321857
O 10.21967315 9.77275875 31.91749967 -0.00569070 -0.00005839 -0.00121655
O 14.35511166 4.66147121 25.93373265 -0.00328087 0.00158008 0.00004631
O 15.99915075 28.88967640 27.37255397 -0.00280829 0.00525817 -0.00183849
O 14.43577121 18.54637614 2.48606994 0.00663179 0.00178888 -0.00384668
O 15.84816606 13.42897939 3.41812699 0.00276870 0.00314225 -0.00131196
O 18.32048099 10.91106945 9.40335907 0.00289054 -0.00001285 0.00047592
O 17.02504656 15.55980394 8.45718226 0.00215596 -0.00457631 -0.00361127
O 14.87315778 14.50992218 9.44306243 0.00277059 0.00275652 0.00243504
O 13.33864687 19.78620079 8.45210995 -0.00218671 -0.00290181 -0.00589381
O 17.69986413 14.64862340 2.26720084 0.00454861 -0.00218711 -0.00432897
O 19.21868181 9.59043966 3.37578836 0.00058735 -0.00322432 0.00094205
O 12.97658870 18.23501326 14.23589586 -0.00028621 -0.00236307 -0.00020404
O 14.18107047 13.30129766 15.33956640 -0.00343324 -0.00731371 -0.00236233
O 16.54239866 10.93273489 21.30455809 -0.00126788 0.00318044 0.00440154
O 15.64795041 15.63061443 20.22963770 0.00029824 -0.00264054 0.00224928
O 13.50312620 14.79970959 21.34491119 0.00283613 -0.00061802 -0.00273704
O 12.03117639 19.21957777 19.96364448 -0.00059943 0.00318531 0.00241598
O 16.15681747 14.44449775 14.13546131 0.00678196 -0.00137991 0.00294728
O 17.72691063 9.64587526 15.46558232 0.00099746 0.00539005 -0.00490103
O 11.26290887 18.32880848 26.08563281 0.00482239 0.00118306 -0.00344123
O 12.48691663 13.45117334 27.22285558 0.00470845 0.00208699 -0.00449240
O 15.00524213 10.98500537 33.03402369 -0.00003822 0.00310210 -0.00340158
O 13.90259914 15.54020621 31.99639059 -0.00172304 0.00334942 -0.00502685
O 12.08524610 14.73383772 33.67024747 0.00177325 -0.00350508 0.00166123
O 10.15032575 19.63921795 32.11434521 0.00673408 -0.00128850 -0.00193147
O 14.70148445 14.18620405 26.15281540 -0.00691957 0.00166576 -0.00007803
O 15.99671972 9.67249098 27.43846602 0.00439632 -0.00483021 -0.00440924
O 14.19142986 27.75598074 2.40077006 0.00039221 0.00109872 0.00102008
O 15.56798813 23.12363006 3.59643282 -0.00066935 -0.00188692 -0.00232163
O 18.19782286 20.33966976 9.64299462 0.00046166 -0.00035879 0.00356952
O 17.10015544 25.28748684 8.09396542 -0.00633334 0.00054555 0.00536826
O 15.00950288 24.39250378 9.58723222 -0.00021876 -0.00178191 0.00234313
O 13.47741304 0.10409675 8.23209787 -0.00313000 0.00368826 0.00081433
O 17.72339224 24.32750737 2.39642586 0.00509380 -0.00164817 0.00151896
O 19.17333108 19.19936563 3.74465159 0.00107283 -0.00271511 0.00002688
O 12.79623276 27.99196364 14.45455435 -0.00421118 -0.00029514 0.00571924
O 14.10468309 23.05058944 15.46087885 0.00459494 0.00016864 -0.00023032
O 16.71742777 20.49086164 21.37639945 -0.00070298 0.00224850 -0.00083616
O 15.48086676 25.45863214 20.36831939 0.00067877 -0.00227186 -0.00341167
O 13.35529308 24.29230228 21.26374268 -0.00110745 -0.00389177 -0.00197441
O 11.99220694 0.19930398 20.28709098 0.00631520 0.00040103 -0.00377812
O 16.16410678 24.11591919 14.32429835 -0.00491625 -0.00543907 0.00436389
O 17.52397434 19.41952553 15.48194789 0.00365658 -0.00244903 -0.00059604
O 11.08442873 27.96690150 26.13773626 0.00079142 0.00540787 0.00486219
O 12.36248500 23.27828910 27.36193007 -0.00240147 0.00113428 0.00109631
O 15.11408129 20.50279047 33.50792572 -0.00346337 -0.00335738 -0.00327105
O 13.62175587 25.27192345 32.01237017 0.00387663 0.00156825 0.00128003
O 11.59916264 23.98611271 33.34547862 -0.00445252 0.00472116 -0.00689194
O 9.92472474 29.06090674 31.66689561 -0.00595502 -0.00344838 0.00234593
O 14.68164589 23.84396378 26.29352671 0.00077625 0.00493103 0.00077340
O 16.14054800 19.18281789 27.21204564 0.00132175 -0.00111859 -0.00312412
H 0.11686209 9.17877610 2.70965423 -0.03448420 0.00117117 0.00441604
H 2.61494305 4.18193863 3.20841254 -0.00389737 -0.01452102 -0.00569127
H 5.44739441 0.64005612 9.13724876 0.02756369 -0.01244658 -0.00620081
H 2.52431718 5.40402332 8.54426819 -0.00858657 0.00293672 0.02160874
H 5.72182739 8.44755665 0.47447148 0.01149904 0.01264056 -0.00239385
H 3.83747063 3.18257398 4.90550712 0.01318398 -0.00879643 -0.01443754
H -0.20614822 1.64903683 10.79050682 -0.00613918 0.00917732 -0.00335758
H 1.40754939 6.41735724 6.66953969 0.00185131 0.00237530 0.00723756
H 4.01486972 6.56401691 10.76510716 -0.00012809 -0.00892285 -0.01857349
H 4.00029336 1.68393297 6.84721372 0.01044027 -0.01462618 -0.01285753
H 0.87539535 2.96031482 1.24268018 -0.01477708 -0.00264380 0.01427272
H 1.50111796 7.99715568 4.65892615 0.01847068 -0.00364665 -0.00602259
H -2.27000382 5.28224250 35.50733876 0.00357180 -0.00646607 0.00264889
H -0.04199967 0.52375424 6.10559143 -0.01562420 -0.01150800 0.00281132
H 2.45979223 4.19479123 12.06517986 0.00827647 0.00565128 -0.00630394
H 5.58944911 8.79755004 5.60828164 -0.00896626 0.00618451 0.03161166
H 2.71679982 7.05079982 1.59547632 -0.00745475 -0.01756856 0.00980798
H -0.28266120 2.33210964 4.38354020 -0.01489392 -0.01038224 -0.01405947
H 2.53767802 2.61952033 10.08637101 -0.00051141 -0.03052241 0.01695981
H 5.35065815 7.41063118 7.72981352 -0.00719881 0.00780764 0.00405119
H 5.02459516 4.77133355 9.64345889 -0.06208615 0.00331668 -0.02688819
H 2.86543946 0.13819205 8.16814401 -0.04095501 -0.00071773 -0.02146872
H 0.11025656 5.01352397 2.10221297 -0.00185780 -0.01564744 -0.00524415
H 2.60914687 9.54834844 3.63946858 -0.01520993 -0.00126957 -0.00254739
H 5.68852216 4.41697358 7.61875482 -0.02326977 -0.00783502 -0.02556448
H 0.84331955 8.76068750 10.53473997 -0.00824702 0.00865839 -0.01838556
H -0.34976367 5.88523234 4.15921115 -0.02542349 0.02496428 -0.00950932
H 4.29191657 0.73120358 0.95620536 -0.00157274 -0.00691227 0.04115298
H -0.39153414 2.71313401 8.29038502 0.01471527 0.01790982 0.00902731
H 2.50765834 8.50634177 9.72374787 -0.01509365 -0.02861428 -0.02392285
H 6.46106173 5.39527238 4.11471726 -0.01652365 0.01809378 0.00144185
H 2.63275384 0.63432942 1.73336238 -0.02613165 -0.00986968 0.02043362
H 0.84566529 3.78596708 7.42533634 -0.01836292 0.00896353 -0.00053995
H 0.96893841 7.43335353 9.22229451 -0.01603042 0.00885453 -0.01139411
H 5.70086363 6.80462773 3.56294079 -0.01939369 -0.01707701 -0.00271261
H 3.73006806 1.97429700 2.06892208 -0.00829374 -0.00529821 -0.01000515
H -1.59932414 8.91098849 14.56451973 -0.02168882 0.00864587 -0.01379604
H 1.15751600 3.88534374 15.29037961 0.01530364 0.00121423 0.01444147
H 3.90935896 0.69251750 20.97951497 -0.00562190 -0.00460599 -0.00327094
H 0.89120441 5.83571914 20.53262148 -0.00760878 0.00020217 0.00490076
H 4.03193366 8.16518870 12.55412917 0.02339435 -0.01630328 0.01720717
H 2.40420811 3.20092504 17.24042184 0.01638407 -0.00228823 -0.01706780
H -1.98035352 1.36188619 22.84733144 -0.00584928 0.02250649 -0.00853802
H -0.02067894 6.33825089 18.49083934 0.01617290 -0.00345830 -0.00007669
H 2.34149162 6.63860650 22.81791605 -0.01213246 -0.01799753 -0.01281642
H 2.48126811 1.63137563 18.99981495 -0.00440310 0.02700943 -0.00552462
H -0.30297428 3.14497808 12.86948131 0.00863625 0.01293823 0.00619483
H 0.17623072 7.66459510 16.39706646 -0.02359677 0.00284357 -0.01334186
H 1.15133072 5.37418503 11.49959566 0.00679946 -0.02043303 0.02191642
H -1.48252250 0.32146213 17.94696281 0.00690321 -0.00416495 -0.00691690
H 0.80008486 4.15447461 23.73381482 0.01118541 -0.01962522 0.00415045
H 3.94178486 9.17067411 17.73987182 -0.00521921 -0.00325710 -0.00636687
H 1.15274808 6.85264945 13.56279325 -0.01116682 0.00804066 -0.00613561
H -1.68870112 1.88014750 16.20999896 0.01106167 0.00051696 -0.00351124
H 0.79409860 2.55776846 22.04575438 0.01170992 -0.01374929 -0.01936794
H 3.96212911 7.66997676 19.60868553 -0.00239147 -0.00292588 0.00028247
H 3.08518205 4.81225229 21.64817977 -0.04433712 0.00255597 0.01280371
H 1.45138032 28.92757205 20.17241819 0.02666281 -0.00512454 0.02887342
H -1.23581662 4.94765465 13.85429118 0.01469640 -0.01590784 -0.00979270
H 0.91235502 9.86742486 15.50765368 -0.00163381 0.00202869 0.00678939
H 5.46968645 3.72499418 19.14720953 0.02149020 -0.01551102 0.01897154
H -1.17359943 7.70860078 20.80225297 -0.03979773 -0.00566036 -0.03263111
H 16.82406498 5.89888807 16.23666374 -0.00820563 -0.00834260 -0.00771380
H 2.86234727 0.97610512 13.33786479 -0.00908906 -0.01206255 0.01459161
H 17.95572255 4.32299640 19.10185287 0.02914618 -0.03837099 0.00932449
H -1.09828011 8.71550875 22.22429585 0.01709692 0.01357126 0.01031913
H 4.22876541 6.61805197 15.49916002 -0.00711387 -0.00515447 0.01002210
H 1.30621098 0.90829011 13.85286608 0.01659988 0.02717882 0.01353174
H -2.18614172 2.77412871 19.86354573 0.02523851 0.02068203 0.00299722
H 0.41445542 8.18524207 21.55656188 -0.00757329 0.01087873 0.00854308
H 2.58843468 6.25661235 15.87735278 0.01714093 0.01071155 -0.02265600
H 2.51756058 2.24696255 14.46762755 -0.02538605 -0.02576614 -0.00181899
H -3.47833818 8.81994421 26.35685879 0.00408637 -0.00191834 0.00588615
H -0.55835054 3.94541850 26.72705108 -0.00580847 -0.01425985 0.01912346
H 2.00725643 0.68798983 32.99953796 -0.00338817 0.01864588 0.01158548
H -0.93195918 5.58052612 32.29966452 0.00931230 -0.00117514 -0.01113179
H 2.40174847 8.14278584 24.80341455 0.00117471 0.00563670 -0.00555545
H 0.64169707 3.17431587 28.78434225 0.00613101 -0.00803355 0.02082497
H -3.72311558 1.46489941 34.80339542 -0.00189582 -0.01160690 -0.01072894
H -1.92645755 6.26132150 30.32351604 0.04058039 0.00339848 0.00214192
H 0.72928441 6.71792138 34.43098689 0.01767112 -0.03301981 0.00764344
H 0.52305308 1.54839746 30.70903851 -0.02964960 -0.00248258 -0.00280321
H -2.00311080 3.22176423 24.68260366 -0.01022169 0.00946683 0.00596402
H -1.78344812 7.48505995 28.22005712 -0.00888446 0.01097057 0.01432709
H -0.55094345 5.28179773 23.54479164 -0.02247424 -0.00519699 -0.00500895
H -3.41085589 0.63729432 29.69841879 0.02151166 -0.00690444 -0.01015391
H -0.86027361 4.35903813 35.58394770 0.00543157 -0.01653086 0.00054665
H 2.02750625 9.04446364 29.29030607 -0.00306415 -0.01832780 0.01444596
H -0.54870894 6.79160060 25.23689113 0.00945853 -0.00989304 -0.00673967
H -3.38248397 2.09694182 27.74833815 -0.00862176 0.01038596 -0.01627926
H -1.00740593 2.59588463 33.90242536 0.00270725 0.00080708 0.01332521
H 2.03890584 7.48163855 31.25561842 0.00262604 0.01350214 -0.01845707
H 1.60042419 4.78172914 33.15825826 0.01685423 0.00412945 0.00661401
H -0.51489057 29.08822637 31.86996087 0.02185644 -0.00495852 0.03378289
H -3.12010754 4.75679961 25.67386583 -0.00553641 -0.00200014 0.01696189
H -0.98455804 9.41118460 27.22131480 0.01327241 -0.02432285 0.00485601
H 3.70790622 3.74683483 30.76998025 0.01954013 0.01454104 -0.00991676
H -2.91471341 8.09502366 33.72573255 0.01021374 -0.01007643 -0.00301154
H 16.78168961 6.33431508 27.29574423 0.02335670 0.00193991 0.00403582
H 0.89608964 0.97458115 25.03807510 -0.01708880 -0.00338164 0.00178435
H -2.76153418 3.74609585 31.19375470 0.00874987 0.00290224 -0.00675025
H -1.80181453 9.28881717 34.22811909 -0.01213800 0.01350085 0.01888173
H 1.24185199 5.96728879 28.06867006 0.04642068 -0.00715238 -0.02683355
H -0.56083388 1.45297603 25.95437498 -0.01091983 0.01371992 0.01193042
H 16.09430221 4.29891039 31.24653337 -0.00311239 -0.02536506 0.00081672
H -1.17228144 7.83242288 33.32419664 -0.00346211 -0.02685635 0.01102221
H 3.03904087 5.90577204 27.94675815 0.01957647 -0.02658217 -0.00576287
H 1.13101933 2.16405958 26.42183626 -0.03918539 -0.01313285 -0.00564197
H -0.16050205 18.55459555 2.71749723 0.01717722 0.01527769 -0.00980978
H 2.58002790 13.86170272 3.23933276 -0.03750723 0.02161047 0.00735762
H 5.46908827 10.44653832 8.92021699 -0.00787585 0.01424113 -0.01804144
H 2.66308622 15.02636552 8.64514941 -0.00987702 -0.01343653 0.00241055
H 5.86257546 18.13166084 0.89912908 -0.01565291 0.01239263 -0.02212954
H 3.81175838 13.20515775 4.95250086 0.01618590 0.00672757 0.02075751
H -0.22417312 11.23955327 11.07691585 0.00536835 -0.01518748 -0.00695837
H 1.66046297 15.65564598 6.39353567 -0.01229069 -0.00835768 -0.00270409
H 4.18675257 16.32386461 10.53815276 -0.01899276 -0.00014925 -0.01372016
H 3.89607638 11.93848999 7.06155023 -0.00689988 0.00240338 -0.00318467
H 1.22792173 12.70618841 1.09300146 -0.00104599 -0.02225531 -0.00569929
H 1.61031935 17.52231831 4.79261032 -0.00491538 -0.02822453 0.00081483
H -1.99945344 15.08898513 35.49856304 0.01563514 -0.01398774 -0.00691839
H 0.19298712 9.94416718 5.85927887 0.00296316 0.00739791 -0.00496352
H 2.84325095 14.23282623 11.62166132 -0.00733917 0.02132095 0.02323103
H 5.49646577 18.76467960 5.99026439 -0.00529628 -0.01330768 0.00459405
H 2.59665533 16.41199822 1.93489123 -0.00052004 -0.02008185 0.00456135
H -0.10331405 11.89611892 4.12992822 -0.00378610 0.01433130 -0.01455938
H 2.64087237 12.35566919 10.06338366 0.03453171 0.01109932 -0.01217954
H 5.37602536 17.23667005 7.78952241 -0.00994950 0.01112995 0.00115057
H 5.19006399 14.72945829 9.52813920 -0.01925686 0.00880521 -0.02302269
H 3.12985505 10.12273514 8.37033614 -0.04014629 0.00125549 -0.02523318
H 0.34714208 14.41047210 2.15028647 -0.01925991 0.00571298 0.02113737
H 2.41081211 19.26067668 3.82630410 -0.00960451 0.01283061 -0.02015100
H 6.37981961 12.61933093 8.12572778 -0.01306679 -0.01924394 -0.00142388
H 1.34486797 17.06789451 9.44923264 0.00202769 -0.02177346 0.01851460
H 19.05908686 16.71611291 3.40767611 0.01966934 -0.01087507 -0.00128432
H 4.96697406 10.61430977 1.38959360 0.03114519 -0.02666084 -0.02405593
H 19.28697873 13.26256874 8.26582340 -0.00678615 0.01557191 0.01941049
H 0.37975461 18.00528973 10.43884507 0.03746325 0.00369587 -0.01495710
H 5.05152718 16.61656316 3.32429395 -0.01685351 0.01129612 0.00152332
H 3.24575110 10.78979600 2.11421112 0.01037936 0.02021018 -0.02999772
H 0.30053687 12.27614005 8.54626818 0.00619176 0.00575762 0.00938628
H 2.12637560 18.53929119 10.29024066 0.01164483 0.00072829 0.03916666
H 4.85940696 15.35573982 4.62330982 0.00691479 -0.00583462 -0.00116104
H 4.64381064 11.80933361 2.65401287 0.00831986 -0.00661858 0.00100473
H -1.53680195 18.71050447 14.42247591 0.01737206 0.00812354 -0.01175263
H 1.37841754 13.54469156 14.94192039 -0.00807089 0.01563057 0.01539268
H 3.83429865 10.32855114 21.05204603 -0.02804905 0.01629148 -0.02515539
H 0.95137198 15.34668399 20.65250845 0.04211345 0.00622993 -0.01291863
H 4.08055581 17.82934580 12.75827722 0.00463858 -0.01867869 0.00207026
H 2.31351669 13.20077843 17.09528647 0.00641516 -0.01425829 0.02079439
H -1.84500439 11.20287114 22.85492840 -0.02284525 0.00835999 0.00269271
H -0.12429364 15.90750691 18.46137781 0.02108126 0.00732816 -0.01487407
H 2.73326200 16.42570464 22.36835969 -0.01446922 -0.01064670 -0.00977650
H 2.37008540 11.53899426 18.92984719 -0.03756777 -0.00065403 0.00220569
H -0.20928964 12.76819932 12.97007108 0.00680638 0.00689834 0.00474586
H 0.01206760 17.46588390 16.58186706 -0.01367367 -0.00122759 0.01671666
H 1.16863976 14.99381403 11.73183037 -0.00471702 0.01121286 0.01641012
H -1.66824637 10.47811039 17.88342016 -0.01522501 0.01474472 -0.00192980
H 0.94407599 13.78504638 23.90884357 -0.01388999 0.00472648 -0.01322186
H 3.84950789 18.80997433 17.66985422 -0.00871073 0.01124057 0.00415513
H 1.19200530 16.47829252 13.72750642 0.02179840 -0.00755344 0.00323627
H -1.77476159 12.06365508 16.18821962 0.02255924 0.00310039 0.00649374
H 0.87458666 11.99861542 22.19786284 -0.01449508 0.00684755 0.02936125
H 3.68786440 17.13575741 19.66500364 -0.00819175 0.02379471 -0.00510641
H 3.50550513 14.39518487 21.52271573 -0.02430581 -0.02886717 0.00722341
H 1.21351097 9.62978425 19.84339685 -0.00010367 -0.00451399 0.00930767
H -1.24996867 14.27254851 14.25732151 -0.02370784 -0.00755320 -0.00364919
H 0.73494011 19.24330832 15.61291681 0.04771847 0.03023154 0.01094076
H 4.25040731 13.66499748 19.39407412 -0.01683847 -0.02491420 -0.00255772
H 0.76757486 18.53203810 22.11855124 -0.00458667 -0.00476247 0.00195151
H 17.81971989 16.67409187 15.31567496 -0.00967876 -0.00356821 0.00557307
H 3.53290695 11.09426868 13.41139791 -0.03818256 0.04131701 0.01542444
H -2.30746611 14.12484550 19.22586077 -0.01734644 0.02390065 -0.03318555
H 0.15874885 17.17994445 21.33084748 0.00849212 -0.00496878 -0.01077306
H 3.01874679 15.62080800 16.12387516 0.03510440 -0.00855578 -0.00993715
H 1.90680033 10.36220073 13.41614543 -0.04104538 -0.01442307 -0.01090014
H -1.93781989 12.50885484 20.04880015 0.00013565 0.01832685 0.00066634
H -0.98163657 18.25449860 22.25978334 -0.02323233 -0.01597536 0.03075612
H 4.78132951 15.44382762 15.84139000 -0.04742097 -0.03372818 0.00357303
H 2.20217187 11.88736430 14.31038529 0.03352724 0.00875580 0.02381255
H -3.13707778 18.74194920 26.36270402 -0.00917789 -0.01493865 0.01115214
H -0.43377645 13.76426313 26.96703480 0.00329718 -0.01805584 0.00138763
H 2.28460962 10.37268043 32.99731919 -0.01320611 0.00781612 -0.00395219
H -0.51315030 15.34534621 32.60662252 0.00338275 -0.00164880 -0.01150119
H 2.41233534 17.82970416 24.40956623 -0.00905156 0.00069986 0.00328580
H 0.69772098 13.01287718 29.07551052 -0.01645153 0.00147562 -0.00998138
H -3.51205150 11.28619048 34.64641198 -0.00361205 -0.01720036 0.00293704
H -1.66145130 15.98079463 30.51738444 -0.00731994 -0.00054875 -0.02603328
H 0.98921905 16.28453031 34.62696762 0.00281247 -0.00911056 0.01259359
H 0.61687236 11.35242649 30.85111546 -0.00434332 -0.00003154 0.01577089
H -1.79672554 12.69879157 24.82902461 -0.01258032 -0.00304876 0.00035593
H -1.70253255 17.49701098 28.50278785 0.00229985 0.02106000 -0.00922674
H -0.29609076 15.10727650 23.49052767 -0.00951398 -0.00177826 -0.00118221
H -3.42838041 10.44340822 29.84158645 0.00185342 0.00245829 0.00779861
H 4.26749737 14.01229100 0.19516970 -0.00839015 0.01141352 -0.02554503
H 2.26215648 18.82233233 29.52171689 -0.03157347 0.02947505 0.00167152
H -0.20867152 16.72216853 25.48968288 0.02035756 -0.00673470 0.00672179
H -3.20251600 12.01897944 27.95117970 0.04419759 0.01102699 0.00629363
H -0.53187903 12.57584296 33.91092877 -0.00906726 -0.00255428 0.00257546