2160
Time=23000.00000000 pbc="T T T" Lattice="20.60189625 0.00000000 0.00000000 0.00000000 28.81282110 0.00000000 -4.72930783 0.00000000 35.56372656" energy=-13800.29368722 virial="-29.25896909 -1.82487426 60.85477858 -1.82487426 -39.63394220 -27.34305603 60.85477858 -27.34305603 -42.94511633" stress="0.00124755 -0.00007740 0.00289270 -0.00007740 0.00019385 -0.00129477 0.00289270 -0.00129477 0.00013185" Properties=species:S:1:pos:R:3:vel:R:3
O 0.85186355 8.56009570 2.26487304 0.00485444 -0.00304370 0.00446941
O 2.17438337 3.79504036 3.51983467 -0.00323579 0.00321201 0.00255959
O 4.67408851 1.00127614 9.47472848 -0.00025010 -0.00033706 0.00154530
O 3.59203127 6.13892553 8.40079463 0.00807387 0.00153379 0.00216403
O 1.45189581 5.13522192 9.38146473 -0.00599787 -0.00499840 -0.00225277
O -0.22207506 9.75132670 8.39610510 -0.00019346 -0.00157769 -0.00045485
O 3.95125521 4.90029735 2.17264334 0.00140299 0.00089311 0.00455487
O 5.52503624 28.18828201 3.67767300 0.00108597 0.00146612 0.00353713
O -0.71452828 8.59290218 14.34062893 -0.00243445 0.00226949 0.00134841
O 0.41216920 3.98679460 15.60549399 -0.00249894 -0.00100289 0.00030235
O 2.78659846 0.75071337 21.33283112 -0.00698765 -0.00080265 0.00061568
O 1.85655774 5.61152946 20.48810802 -0.00196206 -0.00158757 -0.00115454
O -0.34585897 4.43011118 21.59109263 -0.00464305 -0.00414940 -0.00232840
O -1.86495168 9.35998241 19.79451249 -0.00409090 -0.00677859 -0.00073434
O 2.40338031 4.66043244 14.08380899 -0.00278889 -0.00056058 0.00238268
O 3.93869130 0.20504512 15.45181380 0.00520603 0.00037321 -0.00057932
O -2.33350350 8.31846830 26.21740331 0.00149393 -0.00645412 -0.00224435
O -1.22180429 3.66543486 27.55246489 0.00093376 -0.00291842 -0.00002335
O 1.50667407 1.11717346 33.06408952 0.00150652 -0.00302795 0.00260058
O 0.06777939 6.15104436 32.14826982 -0.00281705 -0.00057209 0.00251171
O -1.58312268 4.79642941 33.41700677 -0.00282818 -0.00005243 0.00026587
O -3.38801745 9.89169139 32.19609489 0.00335891 -0.00036151 0.00416790
O 0.78720612 4.63555178 26.08845901 -0.00398895 0.00346858 -0.00068409
O 2.24395144 28.62434515 27.24539209 -0.00539811 0.00330835 -0.00191588
O 0.81882276 18.05188084 2.59467203 0.00324229 -0.00521008 -0.00548826
O 1.93140387 13.32899074 3.57583378 0.00039938 -0.00285590 0.00270826
O 4.59160719 10.53671921 9.28700021 -0.00145939 0.00704354 0.00280563
O 3.28651256 15.65645127 8.63216150 0.00061344 0.00364081 -0.00795859
O 1.26401096 14.25267545 9.67406103 -0.00075221 -0.00800130 0.00030673
O -0.35531897 19.24344927 8.27411063 -0.00090460 -0.00391126 0.00180895
O 3.93993672 14.61786408 2.30464499 0.00378883 0.00164783 -0.00754762
O 5.54906260 9.63877696 3.48813094 -0.00252988 -0.00068586 -0.00821214
O -0.95538704 18.01006722 14.34211299 -0.00671009 -0.00072455 0.00004866
O 0.38872441 13.38786598 15.38817050 0.00071697 0.00128392 0.00166947
O 3.10536819 10.84407545 21.08005144 -0.00482638 0.00232656 -0.00250073
O 1.81451742 15.24843951 20.30555143 0.00588427 0.00181492 0.00291792
O -0.45972442 14.24462922 21.21832355 -0.00330356 -0.00416527 -0.00031501
O -1.77442006 19.03301911 20.21435424 0.00420044 -0.00007808 -0.00154640
O 2.31741300 14.30567866 14.01373885 0.00416272 0.00258420 0.00023191
O 3.96020088 9.53087750 15.80313726 0.00087106 0.00607429 0.00143966
O -2.55484592 17.94109915 25.94243468 -0.00592430 -0.00327574 -0.00674622
O -1.16242545 13.38175166 27.48785469 -0.00542430 -0.00008573 0.00009958
O 1.53301428 10.98372538 33.29271918 0.00187314 -0.00071476 0.00111190
O 0.21089222 15.87415009 32.20337640 -0.00276642 -0.00037763 -0.00124510
O -2.01573358 14.84073392 33.11450655 -0.00288462 0.00163010 -0.00017397
O -3.49794748 19.19626270 31.57911309 0.00145333 0.00145301 -0.00441732
O 0.76074242 14.23088138 25.95228296 0.00204314 0.00246603 -0.00041531
O 2.51731184 9.83445361 27.43363446 -0.00101575 -0.00367514 0.00239354
O 0.61779319 27.79006453 2.48571426 -0.00185189 -0.00043927 -0.00383054
O 1.79882972 23.05400832 3.57606354 0.00422253 0.00323588 0.00280908
O 4.60458458 20.13932288 9.64452243 -0.00573276 0.00361270 0.00316854
O 3.35189308 25.20557361 8.62705273 0.00099734 -0.00520824 0.00382852
O 1.33126436 23.77402812 9.66615930 -0.00246527 -0.00278458 0.00148934
O -0.11010300 0.03517340 7.92226619 -0.00400453 0.00694370 0.00106660
O 4.00170603 23.99721107 2.16854361 -0.00125217 -0.00240174 -0.00597743
O 5.57867057 19.08607088 3.80417668 0.00031982 0.00327010 -0.00260338
O -0.81666560 27.74510101 14.08014683 0.00365778 0.00118032 -0.00194315
O 0.17440375 22.94005211 15.27224129 0.00622215 -0.00357947 -0.00020196
O 2.82375665 20.34358553 21.23568356 -0.00188454 -0.00006255 0.00054520
O 1.68741402 25.16683758 20.08304313 0.00094671 0.00354712 0.00279460
O -0.27239960 24.21577120 21.27602030 0.00263952 0.00216130 0.00263420
O -1.79889446 0.15452563 20.04608955 -0.00019148 -0.00430918 -0.00100738
O 2.46646959 24.00902786 14.09967707 0.00304237 -0.00196458 -0.00442341
O 3.99810506 19.01411732 15.53627343 0.00372329 -0.00389042 -0.00482857
O -2.45805871 27.48016148 26.19528437 0.00068603 -0.00079488 0.00255253
O -1.45039472 22.98261406 27.03579159 -0.00351417 -0.00194248 0.00107213
O 1.50273181 19.93772138 33.13566263 -0.00146944 0.00220354 -0.00173114
O 0.05685452 24.98721359 31.86915061 0.00161149 -0.00052108 0.00190270
O -1.83305351 24.14087600 33.42592042 -0.00048099 -0.00070409 -0.00266822
O -3.47564944 0.00916044 32.04190666 -0.00458592 0.00043593 -0.00083569
O 0.67142372 23.94246602 26.02834014 0.00027064 0.00940347 -0.00285407
O 2.24798545 19.33951944 27.20151146 -0.00315639 -0.00233911 -0.00138895
O 7.63780968 8.46532517 2.42588415 -0.00250059 0.00421084 0.00403815
O 8.76353181 3.86425906 3.62002423 0.00438168 -0.00277807 -0.00286892
O 11.61943064 1.27559058 9.22867051 -0.00281489 -0.00130207 -0.00119197
O 10.22926946 5.91666231 8.27526910 0.00287068 -0.00305033 0.00130090
O 8.34284784 4.93522666 9.90704768 -0.00213095 -0.00585727 -0.00348502
O 6.80020947 9.57233114 7.93130825 0.00142149 -0.00365056 -0.01423809
O 10.80223308 4.96415131 2.24979658 -0.00201101 -0.00051821 0.00161753
O 12.60975853 0.18798354 3.64044108 0.00432122 -0.00200937 -0.00152341
O 5.86352161 8.82747920 14.19810463 0.00476162 0.00320117 -0.00304608
O 7.07242392 4.16891908 15.57221049 0.00315529 0.00389376 -0.00001992
O 9.80927384 1.01535743 21.16569326 0.00174328 0.00510206 -0.00073732
O 8.39085828 6.19648628 20.48502388 -0.00584943 -0.00274063 -0.00001900
O 6.76223947 4.66181045 21.62589994 0.00299942 -0.00355933 -0.00363289
O 5.02788118 9.44095321 19.69045223 -0.00593962 -0.00202623 -0.00370638
O 9.11889798 4.95926331 14.03858899 0.00208611 0.00214608 -0.00278386
O 10.92415695 0.10363315 15.59257382 -0.00412552 -0.00335688 -0.00381320
O 4.25423350 8.31453450 26.21730128 0.00257306 0.00048490 0.00155848
O 5.65123640 3.32579723 27.09496728 -0.00120127 -0.00396084 0.00026002
O 8.33388860 1.11730244 33.13253748 -0.00373961 0.00149387 -0.00314305
O 7.17663798 5.75185688 32.07425107 0.00055071 0.00145812 -0.00889157
O 4.81452526 5.24565486 33.06481553 0.00261917 -0.00233825 0.00077433
O 3.30168529 9.71010699 32.03200821 0.00266728 0.00176207 -0.00301374
O 7.44874038 4.70848279 25.90055132 0.00160883 0.00028053 -0.00264818
O 9.03238603 28.60062970 27.39777329 0.00012699 0.00064251 -0.00494660
O 7.61999850 18.11233354 2.51996023 0.00109591 0.00636183 0.00487946
O 8.74057481 13.58550123 3.47569880 -0.00325402 -0.00164238 0.00064431
O 11.44016640 10.88505268 9.27349649 0.00305256 0.00206640 -0.00406427
O 10.44490442 15.44735938 8.31081097 0.00545963 0.00019196 0.00043648
O 8.25026926 14.41506301 9.46331857 0.00121984 -0.00443886 -0.00257298
O 6.60145319 19.19988311 8.37787044 0.00170456 -0.00046855 -0.00270682
O 10.84444157 14.58150657 2.46012614 -0.00470746 -0.00119010 -0.00140716
O 12.44547645 10.02458662 3.77478940 0.00224388 0.00182667 -0.00609215
O 6.01362594 18.26027574 14.10271266 -0.00310308 0.00232862 -0.00060215
O 7.19026883 13.25574327 15.13585899 -0.00155325 -0.00650838 0.00219011
O 9.89575558 10.56051032 21.20343979 -0.00138824 -0.00213538 -0.00115119
O 8.58378710 15.46196575 19.92888477 0.00263984 0.00544219 -0.00582972
O 6.74406363 14.28340529 21.69717051 -0.00369758 0.00387187 -0.00030928
O 4.95962291 19.31032588 19.82194549 -0.00365190 0.00539275 -0.00139514
O 9.27353869 14.26688780 14.10215994 -0.00256337 -0.00274127 -0.00136270
O 10.72728659 9.24805421 15.39498514 0.00424904 0.00035203 -0.00259897
O 4.26591234 17.96630042 26.20788110 0.00556084 -0.00005912 0.00926077
O 5.62932395 13.52671216 27.41359598 0.00285368 0.00408891 -0.00090406
O 8.27279899 10.70197825 33.33138281 -0.00128869 0.00042247 0.00187018
O 7.17879966 15.62335317 32.07958008 -0.00705674 -0.00214655 0.00035239
O 4.98298895 14.79032914 33.10978429 0.00025230 0.00412833 -0.00473170
O 3.67579969 19.08869652 31.78146062 0.00039875 0.00095804 -0.00223865
O 7.76826139 13.93546233 26.21941163 -0.00118102 0.00046248 0.00589869
O 9.16919279 9.43326730 27.40505166 0.00307592 0.00283597 0.00651361
O 7.80260019 27.56754441 2.28052094 -0.00386082 -0.00097293 -0.00174071
O 8.82495638 23.08124077 3.68805362 -0.00330953 0.00704699 0.00237111
O 11.44622666 20.64775320 9.36458081 -0.00453979 0.00335747 0.00216161
O 10.18579914 25.20794984 8.19505759 0.00436750 0.00196431 -0.00684937
O 8.20805500 24.25125400 9.59838326 -0.00118428 -0.00374915 -0.00454239
O 6.81694926 28.68851202 8.30616935 0.00409921 0.00390409 -0.00140126
O 10.98375331 23.89545957 2.52244892 -0.00199941 0.00510035 -0.00098768
O 12.51458895 19.29050475 3.54129340 -0.00422756 -0.00225644 -0.00383780
O 6.12970449 28.02181200 14.29407579 -0.00196809 -0.00441114 0.00244981
O 7.19986026 23.36838594 15.48658659 0.00757218 0.00572974 0.00027066
O 9.84698171 20.60024952 21.11502776 -0.00275776 0.00058764 -0.01167268
O 8.48983864 25.17313593 20.12815320 0.00280999 0.00056741 -0.00000831
O 6.28738623 24.27983764 20.98946259 0.00627938 -0.00208287 -0.00209733
O 4.91540983 0.14382397 20.09040498 -0.00512063 0.00063196 0.00310311
O 9.21642583 24.27948709 14.10299353 0.00780809 0.00280723 -0.00100142
O 10.90359217 19.41209719 15.65825435 -0.00198133 0.00619725 0.00052284
O 4.49630890 27.66771088 26.14564418 0.00196904 -0.00453804 0.00337383
O 5.90788593 22.85688196 27.07281912 0.00191777 -0.00536078 -0.00093680
O 8.40276382 20.25268568 33.24663374 -0.00206265 -0.00158975 -0.00512564
O 7.18115180 25.03159464 32.34806837 0.00662824 -0.00285948 0.00088906
O 4.89767493 23.99335976 32.90419346 0.00193959 0.00272458 -0.00522106
O 3.38990685 28.60705490 31.97707607 -0.00113284 0.00386769 -0.00064499
O 7.88760090 24.13931112 26.11125246 0.00138383 0.00586085 -0.00006433
O 9.11780719 19.15676179 27.25364871 -0.00255713 0.00062242 -0.00306669
O 14.27886692 8.62923864 2.29010921 -0.00423084 0.00254209 0.00235851
O 15.65194142 3.88540277 3.60398876 0.00446926 0.00390863 -0.00360997
O 18.46553359 1.11365934 9.41778112 0.00064128 0.00293892 -0.00366247
O 17.37358243 5.85442869 8.21577066 0.00715234 -0.00077037 -0.00470647
O 15.21010811 5.15069311 9.41991900 -0.00116103 0.00377062 0.00381056
O 13.68452394 10.03473379 8.27116291 0.01272609 0.00140523 -0.00274402
O 17.90017402 4.84647427 2.45146053 -0.00307351 0.00167062 0.00012720
O 19.39118424 0.03430824 3.87906203 0.00214242 -0.00183204 -0.00113399
O 12.83092466 8.33543723 14.30095510 0.00465797 0.00123802 0.00145963
O 14.10951205 3.91940581 15.40181092 0.00063513 0.00140287 0.00125969
O 16.67105482 1.33481248 21.18830816 -0.00235287 -0.00240961 0.00451774
O 15.40838414 5.90734503 20.35101238 0.00151934 -0.00028252 0.00168785
O 13.42549946 4.71540729 21.56261686 -0.00372953 0.00272081 -0.00202497
O 12.03054353 9.39603185 20.14875565 0.00779649 0.00015792 -0.00155065
O 16.16881319 4.68754396 14.00556860 0.00132163 0.00102020 -0.00776108
O 17.84865471 0.14772362 15.38442833 0.00369442 -0.00182501 -0.00626553
O 11.18756159 8.21773354 26.37485004 -0.00341421 -0.00264181 -0.00165885
O 12.35612408 3.54369032 27.16437276 -0.00155442 -0.00007491 -0.00604046
O 15.19553752 1.22682810 33.06288456 -0.00293846 0.00179290 0.00112961
O 14.14935070 5.65042265 32.25751979 -0.00228224 -0.00078479 -0.00171248
O 11.96678640 4.97170863 33.34896525 0.00100994 0.00266617 -0.00063658
O 10.25761969 9.41399861 32.03707421 0.00200631 -0.00539107 0.00071943
O 14.56972802 4.61761711 26.29338972 0.00502118 -0.00661779 -0.00062297
O 16.02893207 28.59802664 27.39051028 0.00260303 -0.00153090 0.00134413
O 14.55228317 18.76399852 1.90029979 0.00005386 -0.00553516 -0.00348378
O 15.67150851 13.37176185 3.36695542 0.00081467 -0.00205296 0.00147928
O 18.26223654 10.72310734 9.34199832 -0.00156342 0.00234567 0.00223198
O 17.17052740 15.39893188 8.28727242 0.00039624 -0.00397430 0.00197205
O 15.14249170 14.50501476 9.71273794 -0.00203634 0.00740913 0.00183907
O 13.72649280 19.63673541 8.53519988 -0.00614106 0.00425561 -0.00114668
O 17.78712962 14.73868032 2.10722153 -0.00691566 0.00661200 0.00382534
O 19.34066437 9.58227829 3.42101565 0.00241864 -0.00133263 0.00099864
O 12.92782865 18.18007980 14.37658334 -0.00668644 -0.00169488 -0.00147576
O 13.95348636 13.07868626 15.32556159 0.00258953 0.00662933 0.00341007
O 16.76038394 10.43823411 21.16093523 0.00573439 0.00310429 0.00161511
O 15.43331985 15.36317479 20.00918323 0.00294678 0.00328639 -0.00115383
O 13.47906379 14.16489225 21.23691708 -0.00001751 0.00206985 -0.00351526
O 11.91544067 19.07588075 20.00404913 0.00365203 0.00158865 0.00405024
O 16.21050143 14.17886031 14.26931429 0.00075916 -0.00054804 0.00318266
O 17.63028458 9.24508784 15.35660521 -0.00295041 -0.00521446 -0.00193707
O 11.12512273 17.86321060 26.12504345 -0.00368147 -0.00006212 -0.00119950
O 12.58036458 13.53319210 27.67687791 0.00273714 -0.00345409 -0.00105691
O 14.96841073 10.79425063 33.06302212 -0.00356523 -0.00242599 -0.00395344
O 13.86774296 15.48478030 32.00080626 -0.00081847 0.00515526 0.00546245
O 11.91878451 14.39097358 33.07124611 -0.00182489 0.00133924 -0.00069928
O 10.51292144 19.36668700 32.00502847 0.00268959 -0.00367220 0.00222905
O 14.54809622 13.98280362 25.95701526 0.00445385 -0.00213800 -0.00024275
O 16.07562912 9.30406763 27.69894524 0.00726369 0.00365084 0.00014040
O 14.61413967 27.91408794 2.35863073 -0.00485556 -0.00153036 -0.00130463
O 15.76871644 22.92243621 3.54547260 -0.00029948 -0.00475595 -0.00146189
O 18.13350989 19.85514092 9.71226895 -0.00073122 -0.00072784 -0.00034136
O 17.20398425 24.77692796 8.25187193 -0.00045719 -0.00078714 -0.00127903
O 15.11010541 24.01209935 9.64482618 0.00068222 0.00466230 0.00037351
O 13.67532898 0.15519458 8.25954947 -0.00197867 -0.00252316 -0.00410389
O 17.54583200 23.97831889 2.20758426 -0.00449229 -0.00161421 -0.00313272
O 19.35541522 19.19438055 3.56899800 -0.00085556 -0.00157120 -0.00380602
O 12.98815355 27.68867044 14.42084715 0.00220357 0.00676448 0.00200554
O 13.76527115 23.20444101 15.40608968 -0.00769194 -0.00310911 0.00717202
O 16.59390133 20.24946547 20.85989174 -0.00164675 0.00257357 -0.00045800
O 15.50182753 24.99689025 19.95424535 0.00069729 -0.00497752 0.00092361
O 13.31438436 24.56315817 21.33225641 0.00542439 0.00218995 0.00135906
O 11.80414489 0.11437827 19.89782365 -0.00077849 0.00018519 -0.00076618
O 16.18224447 23.80750380 14.33014170 0.00080043 0.00453130 -0.00264459
O 17.61860398 19.22262913 15.35835685 0.00021178 0.00562025 -0.00482433
O 11.30974584 27.72734492 26.41243875 0.00212998 0.00214012 0.00757825
O 12.49444084 22.80061425 27.00123511 -0.00943045 0.01034707 -0.00058892
O 15.36843968 20.19987542 33.21685631 0.00299489 0.00142747 0.00588068
O 14.07621640 25.02978453 32.07355672 -0.00146008 0.00049761 0.00317965
O 11.87421188 24.09002880 33.13391037 0.00289461 -0.00530869 -0.00329432
O 10.35584006 0.13828399 32.12505199 0.00202377 0.00038820 -0.00416358
O 14.51457599 23.85340462 25.66040274 -0.00422044 -0.00099434 0.00210751
O 16.01983542 19.10009595 27.11686116 0.00410057 -0.00022792 -0.00720142
H 0.04063125 9.10622886 2.50562153 -0.02718688 -0.01100545 0.02330374
H 3.01331335 4.21869177 3.13254341 0.00974868 -0.02344546 0.02200192
H 5.61799802 0.84541991 9.19082331 0.02712997 0.01231240 0.00773044
H 2.67933516 5.77330005 8.72156395 -0.00177952 0.01390026 0.00463140
H 5.65074911 7.95688595 0.80985607 -0.00037299 0.01210778 -0.00254237
H 4.15771515 3.30227608 4.92029655 -0.00510293 0.00662604 0.01595448
H -0.16870377 1.48932304 11.29428766 0.00453771 -0.01071802 0.03077646
H 1.68868060 6.32046031 6.87835967 -0.00010724 -0.01241554 0.00619100
H 3.96694817 6.71194579 10.69654638 -0.00453677 -0.02016028 -0.00435488
H 4.00889915 2.01718013 7.19653339 -0.00162660 -0.00604574 0.03609798
H 1.45152789 3.12847683 1.02841953 0.03431978 -0.00495045 0.00849279
H 1.38117542 7.82031218 4.84732164 0.01053113 -0.01658562 0.01364615
H -1.90385995 5.44382028 35.29079946 0.01223995 0.00084758 0.00076320
H 0.07749394 0.81595284 6.14255791 -0.00589876 -0.00203833 -0.00623038
H 2.63792847 4.24152187 12.04788352 0.03538935 -0.00797710 0.00241432
H 5.49841845 9.13045651 5.60295774 0.00723067 0.00845454 -0.00325384
H 2.88357624 6.99177441 1.57844605 0.00700968 -0.01733797 0.00832926
H 0.07080779 2.21540072 4.13773386 0.01413948 0.00230718 -0.00504953
H 2.57253491 2.50114703 10.06851210 -0.02765664 -0.00301236 0.02440973
H 5.67390133 7.47021896 7.43903801 0.00546938 -0.00682131 0.00239124
H 5.08603500 4.99216983 9.66131557 -0.03668821 -0.00513404 0.00996104
H 3.05955946 0.14991854 8.18683641 0.01283851 -0.01261513 0.00294122
H 0.40121073 4.84259417 2.29860800 0.00423573 0.01965800 0.00187628
H 2.28477730 9.45979111 3.64960339 0.01258823 0.00436180 -0.01269045
H 7.96424909 3.36053508 8.06733765 0.00622412 0.01209753 0.00362336
H 2.43375590 8.43302606 9.75665039 0.00741425 0.00214330 -0.00310005
H 19.17638047 7.18184366 3.44238573 -0.00078350 -0.02953544 -0.01138882
H 4.93900052 1.71295937 2.42088295 0.02490809 0.02097200 0.01100696
H 0.14950465 2.59580689 8.55995233 -0.02210179 0.01495408 0.00461971
H 0.88312353 7.48955321 9.71898306 -0.01257820 0.01341684 0.00628597
H 6.29073559 5.97456636 4.22876633 -0.01398224 0.01712163 0.00419407
H 4.01431950 0.50182284 1.53480540 0.00218610 -0.00838407 -0.03355939
H 0.49187634 3.79397653 7.27881350 0.00917912 -0.00574872 -0.01257925
H 1.01060581 8.92242459 10.78118418 -0.02701272 0.00302249 0.02855068
H 5.29433912 7.10217588 3.18652722 -0.00856225 -0.01656491 0.01624935
H 3.26139536 1.46992450 2.77525135 0.01984824 -0.00252292 -0.01487861
H -1.63346287 8.84346185 14.59253449 0.02130380 0.01010475 -0.01502872
H 1.26576872 4.29622700 15.15703519 0.03217529 0.01415859 -0.00855733
H 3.67701248 0.48116604 21.05644043 0.01417876 0.02504710 0.00865933
H 0.88327925 5.22252419 20.71172607 0.00981400 -0.00313643 -0.00669694
H 3.84222639 8.08309587 12.68910834 -0.02143019 0.02901460 0.01488906
H 2.31056832 3.54861273 17.21380017 -0.01803382 0.01077490 0.00765752
H -2.09931681 1.22354872 23.20504422 -0.02449129 0.00924774 0.00867386
H -0.16332324 6.25640255 19.09380572 -0.01225362 0.02534587 0.00738536
H 2.57173934 6.74188258 22.33341130 0.00508828 0.01806807 -0.02518173
H 2.23620016 1.99756536 19.26984217 0.00198700 -0.02284952 -0.00361057
H -0.37790330 3.02469672 13.11699764 -0.00035746 -0.01291818 0.00449155
H -0.22369426 7.52671263 16.97000603 -0.02156377 -0.02255258 0.00080939
H 1.17537701 5.34066181 11.79027887 0.00544383 -0.00886812 0.00347499
H -1.65572339 0.69860245 17.84018376 -0.01646343 -0.00340796 0.00719522
H 0.75901361 3.84181894 23.92732261 0.01040068 -0.01922551 0.02860456
H 3.69859907 8.77378829 17.74629971 0.00160388 0.00640900 0.00577382
H 1.36363279 7.03623854 13.55528500 0.00475520 0.01270250 -0.03598338
H -1.56246230 2.22340674 16.09161336 0.01262563 0.01562397 -0.01306474
H 0.74752142 2.30564218 21.97428137 -0.01419995 0.01344180 -0.01853093
H 3.84687135 7.32563919 19.73094819 -0.00562113 0.00548921 -0.01423462
H 3.45935481 4.77059454 21.48065916 0.02078526 0.01606449 -0.00694571
H 1.36677790 28.80898768 20.15679317 0.02264402 -0.00979092 -0.00656668
H -1.27452376 4.89764285 14.04426931 0.01581576 0.01840928 -0.01353264
H 0.82843247 9.30519102 15.72965150 -0.00593914 0.00066629 -0.00655732
H 4.50299014 4.02115573 19.42441648 -0.00302104 0.01872179 -0.01004959
H -1.19052766 8.52786870 22.23297323 -0.00100036 0.00048198 -0.02298958
H -1.92104321 6.45533538 15.21773405 -0.01152653 0.00306675 0.02191402
H 1.55836634 0.55442689 13.39708609 0.00466273 0.02463540 0.02485750
H -1.44521749 4.18594827 19.05499543 -0.02992580 0.00920918 0.00286735
H 0.43383071 8.99928284 22.00429457 0.00095964 0.03660784 0.03472437
H 4.75410369 5.76910529 15.97232861 -0.02270881 -0.02329123 0.00342910
H 1.76633254 2.01655639 14.12675458 0.00965473 -0.00579233 -0.02046136
H 17.60921844 3.81077009 19.90778160 -0.01705901 0.02640376 -0.00289180
H -0.11806600 7.55939600 21.29937903 -0.01201413 -0.02694373 0.00408417
H 3.63404243 6.93732579 15.24398104 -0.00376597 -0.00942385 0.00066583
H 3.14197760 1.44306165 13.26632145 -0.00864779 0.01088207 -0.01135973
H -3.17796247 8.66283685 26.59722016 -0.01018147 -0.01195448 -0.01137561
H -0.33586017 4.02134361 27.11877402 0.00533157 0.01228962 -0.01599908
H 2.33853152 0.62481009 32.76124596 0.01070824 0.00618646 -0.00212333
H -0.77103944 5.66977629 32.42318809 -0.01520872 0.00613622 -0.01141944
H 2.45960058 8.13837469 24.53575461 0.00045281 -0.01052676 0.00321900
H 0.79582677 3.08468528 29.14071327 -0.01008502 0.00119755 -0.01158591
H -3.41787636 1.32641946 34.75640866 -0.01431574 0.00398569 0.00697877
H -1.85837945 6.35827987 30.18102381 -0.00281528 0.01618425 -0.01052687
H 0.78489502 6.36200187 34.51908025 0.04442898 0.01243708 -0.00339164
H 0.66606173 1.69612321 31.08719908 0.01090335 0.00132209 -0.01054831
H -2.20165797 2.56226878 25.33742975 -0.00310181 0.02238290 0.02249695
H -1.64304631 7.82897357 28.24867988 0.00290528 -0.00019354 -0.00853844
H -0.46655627 5.38736600 23.44686818 -0.01114185 -0.03050734 -0.01623924
H -3.25512418 0.41721012 30.08454442 -0.00633688 -0.00193663 -0.01960324
H 4.02854230 3.87111314 0.26851699 0.00008647 -0.02558141 0.00256112
H 2.33721958 9.01270390 29.56739263 -0.01118165 -0.01273595 -0.01071555
H -0.40406199 6.77236204 25.49477048 -0.01215058 0.01182426 0.01025461
H -3.29761110 2.16416518 28.26900790 -0.02244446 -0.01325973 -0.01948781
H -0.52406378 2.50902084 33.82154904 -0.00201058 0.00122795 0.02288971
H 2.12974545 7.40789520 31.44684388 0.00769757 0.03534427 0.00242781
H 1.77069276 4.56598382 33.45005666 0.03061658 0.01182107 -0.00014818
H -0.27689267 28.64651726 32.01193793 -0.00334977 0.00412765 -0.01214498
H -2.91386111 4.69162039 26.27010530 -0.00365385 -0.01459915 -0.00378939
H -0.61380948 9.91779346 27.66586123 -0.00418592 0.00575703 0.01421541
H 2.70629997 3.07439145 31.71843906 -0.00078708 0.01095269 -0.00023173
H -2.77533085 8.38380048 34.15539790 -0.00093095 0.01177658 0.00984512
H 16.58526680 6.75964340 27.33463551 -0.01979210 -0.02128150 -0.03289992
H 1.89930093 1.04477693 25.22996251 0.00479073 0.02182387 -0.01367395
H -2.32548123 3.62782725 31.16510236 -0.01235156 -0.00178570 0.00247041
H -1.25472099 9.13502640 34.25925909 -0.00538024 0.02291764 -0.01887341
H 3.14141899 6.62704564 27.06952483 -0.02197015 0.00415966 -0.00127445
H 0.38943286 0.33555794 24.97126057 0.01314822 0.00540417 0.01154641
H -3.79147353 3.02518084 31.82096897 0.03077455 0.00350484 0.00045528
H -1.41932996 7.68397201 33.23789235 0.00759720 -0.01332475 -0.00067977
H 1.41873834 6.60045730 27.53204324 -0.00664598 0.01130186 -0.00773027
H 0.41726412 1.90657071 25.93140233 0.01327931 -0.00350870 -0.01298876
H 0.10808201 18.55666400 2.96850749 -0.01165764 -0.00423016 0.00049784
H 2.69240107 13.91907935 3.26874599 0.00397504 -0.02250669 -0.00047359
H 5.37783645 9.96894963 9.14018478 0.01195699 -0.01185518 -0.02235976
H 2.46844173 15.04552698 8.81722702 -0.00509142 0.00146298 -0.03194152
H 5.61502153 17.81908466 0.93703908 0.00307250 0.01439512 0.01234008
H 3.83823090 12.97042516 5.15807742 0.00665915 0.01982258 -0.02457925
H -0.31886946 11.08169383 11.08830444 -0.00506739 -0.00794319 -0.00758737
H 1.47335693 15.89196965 6.79061197 -0.01495986 0.01260707 0.01090336
H 4.13675106 16.20378113 10.64140249 -0.00713309 0.02662543 -0.00112880
H 3.92541944 11.29496888 7.02503491 0.01376888 -0.00426795 -0.00377446
H 1.24548214 12.91570046 0.80189156 -0.00532504 -0.00408076 -0.01145830
H 1.47589755 17.29839616 4.69697010 -0.00833647 0.00517127 0.00695845
H -2.06552778 15.37274336 35.11296271 -0.00758874 -0.00065352 -0.00984318
H -0.07084353 10.11088275 6.08943907 0.01729514 0.03076376 0.00995405
H 2.50788792 13.68243292 11.97149473 0.01385764 -0.01166721 0.01891501
H 5.28817817 18.71609060 6.08523528 0.01309700 -0.00474365 0.00857366
H 2.78669743 16.85121854 1.50056836 0.01028038 0.00566762 -0.00908703
H -0.12881726 11.87099790 4.28511291 0.00458332 -0.01233517 0.00510609
H 2.50848665 12.19359141 10.03235402 -0.00639430 -0.01789599 -0.01245142
H 5.28613692 17.18461387 7.94374867 -0.00881797 0.00711287 0.00047422
H 5.11790807 14.09862785 9.74176734 -0.01143690 -0.00441884 -0.01788091
H 2.92339595 9.64438030 8.21480042 0.00659558 -0.00056989 0.02760041
H 0.27057843 14.21821998 2.08058572 -0.00140464 -0.01594819 -0.01706278
H 2.47613217 19.35516818 3.88668116 -0.02230782 0.00021052 -0.02411013
H 6.46598093 12.28605465 8.24513647 -0.03052282 -0.02574651 -0.00555130
H 1.86892344 18.81896908 10.49848845 -0.00688756 0.01272706 0.00113742
H 18.36980510 15.40881799 4.44842338 0.00907746 -0.01675332 0.00864109
H 3.91070836 11.86389946 2.45884940 0.00107142 0.01352655 0.01769991
H 19.56115442 13.52514607 7.37019732 0.00311103 -0.00479922 -0.01346047
H 1.88185969 17.36251726 9.54298783 0.02874197 -0.00929825 0.01386775
H 4.81722890 16.80367995 3.44191284 -0.01937190 0.00655929 0.00351379
H 4.64695938 10.79291046 1.27646974 0.00147878 -0.00347319 -0.01146055
H -0.19286660 12.18876128 8.22204285 -0.02022221 -0.00094504 -0.00089503
H 0.37076928 17.86906736 10.36521002 -0.01463226 -0.01715036 0.00040365
H 5.05323933 15.61999171 4.68199465 -0.01000624 -0.01448606 -0.01085189
H 2.98239955 10.61602369 1.76450132 0.00382836 -0.01921186 -0.01501469
H -1.70608157 18.59683905 14.54218850 -0.00433066 -0.00008816 0.01532217
H 1.24191071 13.78865248 14.90060815 -0.01843984 0.00144616 0.01639612
H 3.87844276 10.36306076 20.78060187 -0.00169455 0.00978113 -0.01876332
H 0.93752606 14.92281871 20.74756418 0.00189779 -0.01451994 -0.00540984
H 4.04265194 17.67927036 12.46321795 0.00736942 0.00401525 -0.01727726
H 2.48828408 12.82266602 16.94114975 0.01311918 -0.01253042 0.02685139
H -1.72332908 11.05924718 22.64430875 -0.01584796 0.01165617 -0.01689677
H -0.24947529 15.81981943 18.86838729 -0.02309169 -0.00046099 0.00575313
H 2.47791803 16.01742400 22.52960970 0.00702886 0.00982779 0.01451292
H 2.14026455 11.64644092 19.02653195 -0.00171841 -0.01488634 0.00037153
H -0.36762090 12.40420322 12.96965324 -0.00650932 -0.01119607 0.00698829
H -0.19381348 17.21548080 16.80509856 -0.00285468 0.00392226 0.01276364
H 1.05727264 14.97526339 11.58669670 -0.00206510 -0.02053014 0.00643493
H -1.63992539 10.06518406 17.72612214 -0.00922287 0.02263415 -0.00710931
H 0.94702637 13.65361867 23.92862677 0.00158948 0.00147481 -0.02672928
H 3.71061364 18.41680357 17.61502100 0.01496918 0.00459830 -0.00575811
H 1.27375699 16.63761518 13.38700634 -0.00564252 -0.01389027 -0.01421560
H -1.65538533 11.86394640 15.92065383 0.00654310 -0.00022694 0.00489528
H 0.89801543 12.08641795 22.02895086 -0.02051458 0.00397643 0.01812733
H 3.93324857 16.87186046 19.36710670 -0.00221082 0.00702573 -0.00633507
H 3.59199892 14.39285071 21.41268771 0.04439617 0.02330313 0.00364181
H 1.17894628 9.93962752 20.07939046 0.02548594 0.01249912 -0.00727136
H -1.24928156 14.27538817 14.02496808 -0.00178571 0.02841471 0.00187012
H 0.88230812 18.93913523 15.58956911 0.05188979 0.00524515 0.00691222
H 5.81330919 13.27038677 19.36015254 -0.01481200 0.00872558 -0.00202502
H 1.00079755 18.10133305 21.49006774 0.00145124 0.01212370 -0.01974103
H 17.04005230 16.76141500 14.85761864 -0.00483743 0.01891388 -0.00601897
H 2.96338367 10.13012988 13.49492650 0.00485457 0.00782314 -0.00172710
H -1.40929115 12.98772984 18.84104044 -0.00245337 0.01051152 0.02997252
H -0.08005004 16.88618204 21.05424661 0.00531444 -0.01031173 -0.01286646
H 3.29618982 15.18607703 16.17500787 -0.01697834 0.02954664 -0.02281040
H 1.28132807 10.24574132 14.02703683 -0.00819116 0.00625101 -0.00124264
H 17.51296946 12.85742559 19.58428063 0.00969164 -0.01204637 -0.01562999
H -0.65645318 17.91575000 22.31482890 -0.01161001 0.01099046 -0.00641474
H 4.88869152 15.69098224 15.44533115 -0.01306826 0.01490486 -0.01294014
H 2.41614989 11.52382715 14.54117734 -0.02372114 0.04381199 0.00689752
H -3.39992205 18.14779358 26.41449212 -0.00465334 -0.00184192 0.01959318
H -0.28511138 13.49040103 27.03465672 -0.00706872 0.01267782 -0.00535605
H 2.28836858 10.41616192 33.02945084 0.01462157 -0.00322237 0.03457569
H -0.64067390 15.40047104 32.41884891 -0.00041600 0.01804284 0.00662556
H 2.27548161 17.51932259 24.49232780 -0.04125323 -0.01358122 0.00859028
H 0.79217848 13.14749848 29.29409397 -0.01524493 0.00967204 0.03147617
H -3.47272799 11.38906046 34.35316268 -0.01014732 -0.02025462 -0.00199830
H -1.74492366 15.87261071 30.39576393 -0.00669232 -0.01153337 -0.01630406
H 0.83476701 16.39058449 34.44551688 -0.02781151 -0.00376641 -0.03873276
H 0.81280518 11.37278767 31.11076767 0.03385639 -0.02060450 0.00120914
H -1.94657755 12.66722088 24.71661844 -0.01017699 0.01496791 -0.01523039
H -1.81393661 17.25877147 28.32853047 -0.02413794 0.02237701 0.01513011
H -0.68193360 14.63322740 23.51164068 -0.01286081 0.01083541 0.00526465
H -3.15925465 10.32910522 30.17936070 0.00494815 -0.02867223 0.00990608
H 4.14333858 14.18311666 0.05130001 -0.01134188 0.01335766 -0.01656194
H 2.15471242 18.71757915 29.27933459 0.03014095 -0.02640135 -0.01685673
H -0.50683500 16.34561657 25.15232494 -0.00051601 0.01727430 -0.02618462
H -3.20208687 11.67952960 28.09766096 -0.00961522 -0.02658464 -0.00784699
H -0.59484445 12.38860013 33.94558081 -0.01548817 -0.01261448 0.00782318