2160
Time=49000.00000003 pbc="T T T" Lattice="20.60456767 0.00000000 0.00000000 0.00000000 28.98245737 0.00000000 -4.73105897 0.00000000 35.59006810" energy=-13803.51737106 virial="-92.57658767 -22.02829325 72.29831384 -22.02829325 -27.66039433 -16.85356546 72.29831384 -16.85356546 -52.59210274" stress="-0.00200039 -0.00111305 0.00342793 -0.00111305 0.00099334 -0.00074002 0.00342793 -0.00074002 -0.00020539" Properties=species:S:1:pos:R:3:vel:R:3
O 0.59465116 8.49417858 2.92695509 0.00281711 0.00025587 -0.00285547
O 1.87767437 3.69909411 3.42603487 0.00349792 -0.00338643 -0.00075914
O 4.51995331 0.85721036 9.42937581 0.00195898 -0.00039431 0.00381589
O 3.50058582 6.05662983 8.47776412 0.00703473 -0.00538112 0.00394878
O 1.43523635 4.93726164 9.67194965 -0.00013632 -0.00091871 -0.00475808
O -0.21220596 9.70656539 8.26751798 0.00433806 -0.00290445 0.00395749
O 3.94781947 4.71035273 2.39112127 -0.00868498 -0.00484395 -0.00096845
O 5.59362920 28.59128037 3.58851546 0.00381969 -0.00595662 -0.00339114
O -0.91571452 8.45053150 14.31252224 -0.00192169 0.00482137 0.01046427
O 0.32817771 3.69098480 15.46983632 -0.00391050 -0.00217868 0.00458971
O 3.01918131 1.14107124 21.30580629 0.00309588 0.00439167 -0.00159106
O 1.88651556 5.84980014 20.00148867 0.00355566 -0.00519937 0.00321021
O -0.01070245 4.95826940 21.44212849 -0.00076162 -0.00110384 0.00125854
O -1.70316589 9.86695449 20.47049705 0.00624796 -0.00113694 -0.00458965
O 2.67878303 4.50741157 14.47079500 0.00156611 -0.00476016 0.00001392
O 3.88013542 28.66032693 15.40300344 -0.00027990 -0.00778214 0.00414493
O -2.58370477 8.60787131 25.96902373 -0.00077802 -0.00085335 0.00175436
O -1.03932431 3.77181464 27.49577811 -0.00121475 -0.00695400 -0.00431235
O 1.45088117 1.13886699 33.22721385 0.00226603 0.00397503 0.00018115
O 0.24767259 6.25575655 32.01003983 -0.00346038 0.00146860 0.00085046
O -1.75394308 5.31428000 33.35107939 0.00305642 0.00335322 0.00034050
O -3.43847979 9.82357300 31.82039995 0.00785973 -0.00778470 0.00067408
O 0.80760774 4.92449680 25.85759701 0.00246832 -0.00283495 -0.00179311
O 2.35189968 28.92076861 27.44828702 -0.00598511 0.00041716 0.00244165
O 0.71512164 18.12414824 2.24015607 -0.00266597 -0.00396180 -0.00644291
O 2.05258824 13.20554361 3.36323775 -0.00654829 0.00285711 0.00176989
O 4.63678352 10.82877803 9.59243513 -0.00329620 0.00421264 -0.00268283
O 3.12561978 15.46594476 8.52325611 -0.00572232 0.00446588 0.00138324
O 1.25665538 14.40922369 10.01710433 -0.00265179 -0.00103263 0.00030837
O -0.36671920 18.95271767 8.13811132 -0.00172850 0.00123846 0.00079412
O 3.92901296 14.37017235 2.17334590 -0.00215714 0.00111065 0.00824030
O 5.50248490 9.46341026 3.62493912 0.00334472 0.00447219 -0.00356156
O -0.71233486 18.26460741 14.47928319 0.00392974 -0.00133188 0.00565240
O 0.40223979 13.38684687 15.55021470 -0.00154256 0.00599074 0.00206644
O 3.11080645 11.12139643 21.05230046 0.00072134 -0.00280923 0.00061006
O 1.70871906 15.62583714 20.33469788 0.00650115 -0.00329700 0.00256722
O -0.21063355 14.73545736 21.87829843 -0.00047996 0.00486890 -0.00017001
O -1.72220041 19.70404217 20.25966602 -0.00440925 0.00390635 0.00462069
O 2.48445929 14.33485720 14.36091209 0.00157869 -0.00142999 -0.00176259
O 3.84727191 9.59174114 15.45995969 0.00051537 0.00286494 0.00399400
O -2.45757702 18.40100784 26.37130323 -0.00505970 -0.00015784 -0.00088374
O -1.12955353 13.35086566 27.04823912 0.00269767 0.00174483 0.00153945
O 1.54859999 10.96479103 32.91253368 -0.00128456 0.00809672 0.00136344
O 0.24185637 15.67517348 32.05688819 0.00389600 -0.00110598 -0.00902019
O -1.84946528 14.50501470 33.18415232 0.00089881 0.00339373 -0.00048759
O -3.41840050 19.45649026 31.76173410 0.00360127 0.00066633 0.00291262
O 0.92733430 14.72785689 25.91150008 -0.00490703 -0.00779329 0.00341672
O 2.45918328 9.88115857 27.35265534 0.00415817 -0.00499058 0.00128622
O 0.67438023 27.78124627 2.39648236 -0.00513491 -0.00270096 0.00400216
O 1.65120258 23.08955987 3.67265263 0.00108164 -0.00368720 -0.00285771
O 4.42915043 20.49862252 9.35496286 -0.00069673 -0.00020662 -0.00412934
O 3.37363452 24.97705853 8.12651416 0.00454950 0.00256993 -0.00026107
O 1.48820147 23.99034709 9.73497203 -0.00157086 0.00152711 0.00061325
O -0.22787941 0.05202015 8.48176266 -0.00215459 0.00328670 -0.00333554
O 3.78693358 23.85485522 2.33071865 0.00154134 0.00735339 -0.00186445
O 5.34048312 18.99483437 3.51525828 0.00226450 0.00134067 -0.00158762
O -0.81551639 27.79283591 14.21331055 -0.00396523 -0.00041167 0.00097110
O 0.18529882 23.03092816 15.15222618 -0.00062124 0.00269179 -0.00454525
O 2.98356955 20.51947341 21.45991513 -0.00169102 -0.00551060 -0.00609283
O 1.65050693 25.28408019 20.11812295 0.00203934 -0.00308896 0.00180159
O -0.31371752 24.42803138 21.52355539 0.00050622 -0.00070992 -0.00297588
O -1.89077254 0.19852033 20.15549681 -0.00018192 0.00279103 -0.00377777
O 2.60003671 23.67358230 14.60830897 0.00594254 0.00203472 0.00254989
O 4.04590686 19.35419637 15.58872874 0.00119037 -0.00099777 0.00001554
O -2.55564895 27.81609123 26.32569343 -0.00171274 -0.00345446 0.00101938
O -1.51971623 23.51893697 27.36488097 -0.00088118 0.00213011 0.00033932
O 1.35733109 20.31724550 33.04406050 -0.00058101 -0.00178607 -0.00119138
O 0.31035294 25.15557140 32.24322905 0.00123966 0.00382534 -0.00013646
O -1.99790858 24.28557671 33.20463818 -0.00306041 0.00472945 0.00017011
O -3.40469710 28.92151632 31.83222544 0.00438924 0.00230996 -0.00872327
O 0.69231562 24.31531886 26.03193742 -0.00190379 -0.00227324 0.00056414
O 2.39088655 19.44565659 27.27058927 -0.00541630 -0.00180536 0.00078095
O 7.56772755 8.44061108 2.45878493 0.00361889 0.00321504 0.00514833
O 8.85991711 3.47246295 3.26082339 -0.00463917 -0.00229163 0.00586564
O 11.22644179 1.05548974 9.12707102 0.00012714 -0.00069298 -0.00422406
O 10.35700412 5.65462713 8.23403522 0.00318868 -0.00207501 0.00438966
O 8.02635319 4.75114258 9.50868444 0.00082351 0.00531353 0.00470421
O 6.92011487 9.98309546 8.32668402 -0.00053950 0.00226634 0.00334031
O 10.95209523 4.82708286 2.20576687 0.01099767 -0.00061342 -0.00004058
O 12.53085959 0.26879297 3.58341298 -0.00569743 -0.00384454 -0.00326191
O 5.85318970 8.25456045 14.39053802 0.00092340 0.00254448 0.00364865
O 7.17726804 3.82627038 15.52156363 -0.00611883 -0.00059924 -0.00123252
O 9.72973713 0.99467365 21.48056705 0.00690868 0.00041868 -0.00170377
O 8.77281097 5.59823972 20.05886815 0.00220142 -0.00600940 0.00039621
O 6.82211212 4.77362816 21.58750982 0.00928824 -0.00130325 -0.00277364
O 5.17968794 9.76462175 20.21166539 -0.00337817 0.00337844 0.00217373
O 9.52358406 4.34787798 14.24591662 0.00352411 -0.00370630 0.00239129
O 10.79362666 0.10009729 15.37523905 -0.00305798 0.00564987 0.00007678
O 4.52565914 8.61193449 26.11644918 -0.00165014 -0.00150370 -0.00322315
O 5.76681695 3.85555632 27.08879865 -0.00171382 -0.00064117 -0.00381383
O 8.30749889 1.18876093 32.94145345 -0.00209766 0.00407047 -0.00245699
O 7.38924529 6.04722148 31.86434474 0.00063089 -0.00255408 0.00015502
O 5.09967559 5.24346358 33.13119600 -0.00199116 0.00043225 0.00536422
O 3.50670354 9.85491318 31.81189283 -0.00456448 -0.00063962 0.00169107
O 7.92101829 5.10150573 25.96674883 0.01089677 -0.00160971 -0.00236156
O 9.07392595 0.10406604 27.20785741 -0.00030296 -0.00476569 -0.00030049
O 7.45169945 18.05485498 2.43065914 0.00509654 0.00083083 -0.00276064
O 8.72918171 13.27825073 3.46770227 -0.00329505 0.00585222 0.00221337
O 11.43122308 10.51331728 9.75086082 -0.00499383 -0.00080395 0.00075676
O 10.38331228 15.31769986 8.16150495 0.00320731 -0.00734821 0.00329777
O 8.52665356 14.78958004 9.67339838 -0.00089993 -0.00344395 0.00254208
O 6.48821206 19.37270694 8.21751185 0.00330221 -0.00578209 0.00387487
O 11.07274197 14.20138832 2.63233739 -0.00368543 -0.00351016 0.00201731
O 12.49585484 9.52893678 3.56944930 0.00187913 0.00214367 0.00007126
O 6.11486320 18.29754208 14.36675827 0.00090852 0.00045637 0.00483911
O 6.94734507 13.20762203 15.38061932 0.00437665 0.00061052 0.00158531
O 10.05854964 10.98971090 21.14980097 -0.00100126 -0.00077576 -0.00152385
O 8.48172678 15.59933472 20.07132846 0.00232881 0.00220475 -0.00267943
O 6.78709235 14.38121243 21.80549616 -0.00268623 -0.00625348 -0.00045825
O 4.94760330 19.36343888 20.02331008 0.00112080 0.00638819 0.00204137
O 9.07233948 14.43127290 14.04412469 -0.00038734 -0.00214438 0.00234743
O 10.84607304 9.80904987 15.58762288 0.00490234 -0.00596677 -0.00177152
O 4.19952224 18.23196663 26.25250485 0.00367002 -0.00717769 -0.00319593
O 5.66998215 13.56058471 27.28938063 -0.00455723 0.00498252 0.00325962
O 8.17332842 10.87443991 33.04676421 -0.00357096 -0.00162877 0.00412801
O 6.89919383 15.80265860 32.29873095 0.00330297 -0.00515761 -0.00718758
O 5.12436012 14.36079488 33.43688607 -0.00429991 0.00038539 -0.00123568
O 3.49132046 19.34669923 31.98958249 0.00152209 -0.00037030 0.00479004
O 7.76482021 14.45596452 25.91140249 0.00600958 -0.00242170 -0.00103259
O 9.40707273 9.82691615 27.21809243 -0.00407448 0.00137667 -0.00668995
O 7.63029601 28.06948498 2.20928090 0.00622231 0.00281514 0.00093755
O 8.56703476 23.10941400 3.45182710 -0.00113220 -0.00461979 -0.00596612
O 11.49536519 20.54262699 9.39267337 -0.00404702 -0.00020527 0.00085509
O 10.43139859 25.16402280 8.16787747 -0.00199192 0.00434323 -0.00274158
O 7.99061137 24.53865574 9.20108132 0.00108033 0.00174388 0.00201870
O 6.38881692 28.90269967 7.95469135 0.00080575 -0.00226379 -0.00197756
O 10.68578873 24.01443763 2.26499205 -0.00308541 -0.00053804 0.00097078
O 12.22109489 19.25182630 3.60242917 -0.00270677 -0.00174137 -0.00534072
O 6.05052008 27.75128387 14.22538475 0.00323705 0.00264316 0.00266208
O 7.23295902 23.02046910 15.33714452 0.00338044 0.00086597 -0.00022969
O 9.62311824 20.39746972 21.39268219 -0.00138784 -0.00084354 0.00806601
O 8.53072031 25.42461220 20.24995606 0.00386952 0.00230701 0.00111408
O 6.38391936 24.30126188 21.22271712 -0.00115284 0.00367128 0.00120196
O 4.86714068 28.97196108 19.99275612 -0.00011121 -0.00587891 0.00445470
O 9.57743795 24.09611602 14.32071671 0.00714303 0.00093906 -0.00160931
O 10.78772727 19.44717813 15.44276482 0.00114511 0.00366863 0.00290791
O 4.24471422 28.02202486 25.88164922 0.00236513 0.00446922 -0.00291929
O 5.28072229 23.55798162 27.65005152 -0.00391719 0.00615744 0.00033324
O 8.16869717 20.13026132 33.28287867 0.00285924 -0.00021014 -0.00837657
O 6.84843791 25.04128043 31.39639316 0.00161664 -0.00437722 0.00560029
O 4.85405826 24.35759053 32.90896667 -0.00162069 -0.00201316 0.00025814
O 3.39167535 0.31763749 31.74679009 -0.00654840 -0.00001121 -0.00210104
O 7.63232846 23.86893139 26.35859961 0.00376215 -0.00046113 0.00137188
O 9.08417368 18.97032709 27.30279573 0.00129142 -0.00535963 0.00035263
O 14.57064197 8.51400142 2.60930208 0.00366858 -0.00246039 -0.00678689
O 15.58794234 3.83161735 3.72946353 -0.00267250 0.00640402 -0.00509762
O 18.09110352 1.20750090 9.56722169 -0.00155512 0.00378999 0.00056184
O 17.32550462 5.77390255 8.51864127 -0.00369503 -0.00006490 -0.00022978
O 14.92319522 5.22123438 9.33648041 0.00248154 -0.00470295 -0.00274868
O 13.36271959 9.48514744 8.16575394 0.00547646 0.00004077 -0.00594769
O 17.78760954 4.55185593 2.38498550 -0.00350962 0.00156290 -0.00303612
O 19.13990139 28.75509021 3.62306688 0.00336645 0.00173357 -0.00108828
O 12.81747646 8.49958923 14.35266929 0.00428328 0.00092436 0.00022622
O 14.03304744 3.52496960 15.41988846 -0.00294521 0.00263566 -0.00137608
O 16.66039216 1.07897478 21.40243551 -0.00008191 0.00213650 -0.00281400
O 15.90413074 5.73491245 20.07875049 -0.00305140 -0.00367486 0.00018767
O 13.69122047 5.12574487 21.17337005 -0.00028282 -0.00022359 0.00225293
O 11.91115591 9.54154802 19.94789644 -0.00118460 -0.00351588 -0.00152169
O 16.15405913 4.63653131 14.45439559 -0.00886583 0.00188958 0.00038987
O 17.73801758 28.77918071 15.72132726 0.00042125 -0.00166080 -0.00273053
O 11.36950764 8.61950391 26.01237577 -0.00182270 -0.00120927 0.00363462
O 12.50431949 4.09259657 27.41123731 0.00179592 0.00286640 0.00080669
O 15.03210484 0.97649818 33.12944640 0.00113285 0.00057790 -0.00301994
O 13.97543334 6.16248956 32.26648384 0.00911701 0.00281839 0.00371802
O 12.02720619 4.99028531 33.57844789 0.00446071 0.00031130 0.00840439
O 10.43205718 10.15322403 31.97585757 0.00226349 -0.00198845 0.00511025
O 14.69046105 4.87257041 26.20742307 0.00263317 -0.00165379 0.00339147
O 15.90467114 28.93766890 27.20759478 0.00152745 0.00126381 0.00490574
O 14.46594989 18.26892721 2.48172054 -0.00373404 0.00168532 -0.00201378
O 15.94731625 13.35863838 3.62898403 -0.00349947 -0.00115069 0.00266640
O 18.30836880 10.75813367 9.61865365 0.00290627 -0.00061655 -0.00286820
O 16.95706565 15.49737657 8.48288212 -0.00195175 0.00667828 0.00216675
O 15.05777990 14.47325573 9.99092528 0.00537121 0.00072471 0.00207281
O 13.58472586 19.42347872 8.09688505 0.00392171 0.00285271 -0.00554891
O 18.04990120 14.30147110 2.10280062 0.00127103 -0.00484853 -0.00305334
O 19.26538139 9.82043098 3.91456858 0.00457837 0.00371174 -0.00172473
O 12.98262919 18.36921302 14.60541675 0.00009171 0.00278922 -0.00339447
O 13.97913795 13.46785786 15.26875140 -0.00223221 0.00279876 -0.00604709
O 16.69240823 10.69922357 21.38370919 -0.00779990 0.00385720 0.00400962
O 15.59167274 14.96260973 20.21766936 -0.00303927 0.00091676 0.00152073
O 13.22752667 14.48913032 21.43600923 0.00005333 0.00486223 -0.00785500
O 11.78377884 19.60040805 20.11668552 -0.00442745 0.00793064 -0.00083704
O 16.15783523 14.27190454 14.41995454 0.00183267 -0.00094783 0.00057378
O 17.82912197 9.52907604 15.53826116 -0.00215025 0.00074437 -0.00050423
O 11.19769225 18.39976092 25.97215332 -0.00337604 0.00255191 0.00166310
O 12.64402206 13.48153453 26.98956102 0.00549470 -0.00427016 0.00436590
O 15.08823383 10.27443563 33.32010859 -0.00361045 0.00350000 -0.00766686
O 13.88233702 15.65469881 31.86985509 0.00084604 -0.00917621 0.00249198
O 11.82254978 14.63009525 33.35474277 -0.00264660 0.00430331 -0.00046615
O 10.64911577 19.57621022 32.07261003 0.00082444 -0.00075365 0.00145748
O 14.78617195 14.63714339 26.07590617 0.00112596 -0.00252921 -0.00306372
O 16.12815773 9.83067159 27.27903067 -0.00781900 -0.00208216 -0.00350437
O 14.47342458 27.76448515 2.41437415 0.00483023 -0.00213240 -0.00158104
O 15.60899055 22.98001791 3.39075426 -0.00074711 -0.00192368 0.00036685
O 18.44464589 20.25984972 9.50455736 -0.00578644 -0.00371977 -0.00335921
O 17.29127562 25.29727135 8.64282731 0.00316907 0.00256026 0.00433241
O 15.20120531 24.11685288 9.70293284 -0.00688496 0.00194684 -0.00118722
O 13.34007796 0.00923694 8.02659150 -0.00858367 0.00591816 0.00508653
O 17.50007390 24.23459161 1.95745235 -0.00556203 -0.00518986 -0.00994463
O 19.29791348 18.70985347 3.69599190 -0.00126308 -0.00108072 0.00515050
O 12.98486483 27.85377963 14.33808859 -0.00231392 -0.00088080 0.00016902
O 14.02929833 23.08007570 15.32750229 -0.00561629 -0.00047537 0.00962483
O 16.64997996 20.54873213 21.24751632 0.00109920 0.00389664 -0.00089600
O 15.25865002 25.53973686 20.40731473 -0.00440373 -0.00176420 -0.00843522
O 13.33658768 24.29033188 21.53723410 -0.00309192 -0.00239215 -0.00460592
O 11.89864216 0.24091481 20.34075574 0.00354516 -0.00250400 0.00018646
O 16.10173673 24.00673008 13.95982215 0.00170277 -0.00130162 -0.00012594
O 17.85225834 19.22763478 15.99076138 0.00531808 -0.00069877 0.00143100
O 11.15866019 27.94715153 26.23827340 -0.00146721 0.00652722 0.00333470
O 12.66844286 23.05084420 26.88262715 0.00410823 0.00796302 0.00052472
O 15.24675844 20.43437265 32.88892098 0.00646894 -0.00223096 -0.00349561
O 14.29693912 25.13651463 31.99992759 0.00107327 -0.00175520 0.00052245
O 11.83837438 24.27445720 33.14174024 -0.00062014 -0.00724354 -0.00371677
O 10.13902411 0.01271438 31.60725784 -0.00565221 0.00176348 -0.00596553
O 14.56362233 24.42487329 25.87631924 -0.00038540 0.00179965 0.00127350
O 15.93185683 19.64893829 27.40861500 0.00723187 -0.00681429 -0.00714695
H -0.18340488 8.93185411 3.14883028 0.01275403 -0.00564595 0.01516657
H 2.72771637 4.28783792 3.10085956 0.00331280 -0.02317651 -0.00290319
H 5.36519415 0.37949692 9.26480114 0.00130144 0.01448322 0.01112985
H 2.58506660 5.64500802 8.70046535 -0.01481022 -0.00090919 0.00382004
H 5.77555904 8.45993723 0.50773067 -0.00461983 0.00459567 -0.01299137
H 3.93093538 3.27253969 4.91866390 0.01152236 0.00636796 -0.01406457
H -0.67509710 1.06951957 11.55643978 0.00384079 0.01324237 -0.00540446
H 1.46176899 6.42972740 6.71406743 -0.01954235 0.02235645 0.01104692
H 4.08754113 6.57713836 10.56243543 -0.02343521 0.00600203 0.01128836
H 3.80494221 1.73860340 7.04881077 -0.00746262 -0.00660741 -0.00689984
H 1.22542322 2.84404678 1.05645064 -0.02073386 0.00297731 -0.00022976
H 1.24501860 8.15036850 5.16290430 -0.00256005 -0.00433832 0.01451319
H 2.76760162 5.63955250 0.19451861 -0.01963275 -0.01315640 0.01177335
H -0.14608353 0.61652626 5.97955932 0.01290974 -0.00917056 0.00640642
H 2.80964009 4.17613390 12.12117603 0.00125480 -0.00181530 0.01034615
H 5.30189935 9.43044094 5.84774075 0.02711782 0.03547748 -0.00569780
H 2.77535170 7.08924605 2.19417498 0.02406518 -0.01086242 0.00928372
H -0.14748386 2.09038100 4.10872680 -0.00478330 -0.00470895 -0.00679052
H 2.48021460 2.27835986 10.49866738 0.00210673 -0.00317946 -0.01540073
H 5.46547311 7.69522952 7.72539249 -0.00757410 0.00976844 0.01010360
H 4.98208217 5.08288018 9.45350702 -0.01876881 0.00208218 0.01550449
H 2.87208985 28.77385012 7.79643830 0.00815117 -0.02744660 -0.01255797
H 0.29198426 4.85869846 2.18086201 0.00378660 0.01337175 0.02178475
H 2.37528033 9.64431203 3.67028491 -0.01828538 -0.01165073 0.00319742
H 5.38160761 3.45510853 8.14697020 0.01172937 0.00337838 -0.00232638
H 2.35615771 8.87297764 10.12170552 -0.00766799 -0.01473297 -0.01791482
H -0.48595990 5.67388702 4.22893251 0.00017673 -0.02099037 0.00983241
H 3.26901347 0.97832718 1.66617684 -0.03047907 -0.00946492 0.03182817
H 19.47108678 3.43153968 8.27115659 0.00106002 0.01878284 0.00971170
H 1.33313338 7.57207537 9.45753075 0.01283273 0.03532182 0.00842833
H 6.22879831 5.05175834 4.43630834 0.02058393 -0.01641601 -0.00379542
H 4.42795315 2.00550485 2.51534012 0.00576951 0.00848879 0.02686717
H 0.67145559 2.91710446 8.10241869 0.00963228 -0.01007543 0.00240181
H 0.58834572 8.66917818 10.52551121 0.00440949 0.00027520 -0.00144119
H 5.96889440 6.69371925 3.68749093 -0.00359406 -0.00196575 -0.01611066
H 5.06854497 0.82987712 1.26353700 -0.02755939 -0.00629126 -0.00800082
H -1.81524672 8.90020677 14.64360246 -0.02655234 0.03821345 -0.03715415
H 1.19106923 4.03357326 15.11158461 0.01548167 -0.02285835 -0.00677754
H 3.87167355 0.72484839 21.13358554 -0.00517466 -0.00518938 0.00178291
H 1.06044048 5.50677560 20.52282933 -0.02315537 -0.03539035 0.01431755
H 4.02098790 8.15687551 12.69030148 -0.01326252 -0.00088001 0.02824349
H 2.33304514 3.38034074 17.26233191 -0.01157377 0.02928525 0.00330739
H -2.08586670 1.12342865 23.10420595 -0.04068939 -0.00855387 -0.00066593
H -0.12711665 6.16741624 18.36207585 0.03141717 0.03130059 0.01372523
H 2.82390753 6.68239721 22.32937457 0.01920873 0.01513401 0.01370456
H 2.34159942 1.72319841 19.00503315 0.00546801 -0.01707495 -0.00151751
H -0.28145008 2.96315771 13.12098002 0.00243344 0.01022052 -0.01959746
H -0.11014974 7.52752046 16.36399645 0.01155073 -0.00287923 -0.01731316
H 1.31189681 5.60714981 11.67343139 0.01229788 -0.03034244 -0.00883220
H -1.60157256 0.49259947 17.97922140 -0.02990992 -0.00017173 0.01225130
H 1.16707881 4.58428502 23.55942483 -0.00995063 -0.00719344 0.00640364
H 3.72781021 9.07668760 17.45112987 -0.00818761 -0.02176513 -0.01263564
H 1.02725140 6.87451864 13.76667151 -0.01966693 0.01285085 -0.00972699
H -1.60223332 2.06334039 16.16018238 0.00118104 0.01624703 0.00596471
H 0.96040314 2.61555019 22.09040891 0.02293133 -0.01261618 0.01455950
H 3.80288282 7.33333086 19.51339931 0.00328545 0.00524811 -0.00164305
H 3.65885594 4.77414830 21.57236792 -0.01496750 -0.00841407 -0.01047322
H 1.12073918 0.23560917 20.48201397 -0.01005747 0.00748903 -0.00169517
H -1.32616403 4.70267575 14.15600051 -0.00537317 -0.00616836 -0.00672777
H 0.65942743 9.68924601 15.66202655 0.03083397 -0.01900440 0.00869815
H 5.30909346 2.57042658 20.53828611 -0.00331820 0.01825366 0.00575982
H -1.07548895 8.19030546 22.31564591 0.01289340 -0.01487578 -0.00397959
H 18.37757007 4.82766101 16.56307103 0.00345366 0.00996385 -0.01092410
H 1.97902979 0.74930050 13.30942889 0.01102551 0.01631022 -0.01051695
H -2.34200750 3.71080615 19.54609257 0.00027722 -0.02497940 0.01755653
H 0.25292580 9.29280759 22.57687230 0.02473204 -0.03343388 0.01681847
H 5.33479967 6.11660984 15.33655978 0.01308403 -0.01370400 -0.00131179
H 2.47664924 2.17319974 14.33711431 -0.03102730 0.00739195 -0.00348989
H -1.25969039 2.52683659 20.28540697 -0.01966151 -0.00375053 0.00203160
H 0.58261610 7.78291526 21.60506568 -0.01290641 -0.03419379 -0.00630009
H 3.67653552 6.89222058 15.41702357 0.01520615 0.02842269 0.03344961
H 3.66215198 1.27290981 13.60730391 -0.02855742 0.00954677 0.00148704
H -3.44206226 8.96013373 26.35223852 0.01452884 0.01500727 0.00595225
H -0.18238338 3.87603633 27.00038856 -0.00503381 0.02138565 -0.01809765
H 2.23774326 0.79562897 32.81899911 -0.00655797 0.00950516 -0.00260318
H -0.66158903 5.94476345 32.38595468 0.00125818 0.01331250 0.00346087
H 2.67463757 8.24044685 24.45912467 -0.03131070 -0.02514464 -0.00337543
H 0.78982571 3.34312196 29.23955820 -0.01355231 -0.00892231 0.00626991
H -3.55747403 1.35287317 34.70487346 0.00055804 -0.00739795 -0.00259628
H -1.66765581 6.60239298 30.35199360 -0.00619306 0.00263879 -0.02343603
H 1.03011179 6.96525553 34.21525290 -0.02206400 0.01320117 0.00804218
H 0.85263741 1.57685629 30.85432306 -0.01533985 0.02338446 -0.01313046
H -1.81800534 2.65187348 25.02081338 0.00047247 -0.02467045 0.00266472
H -1.73004447 8.06246952 28.28969970 0.03037951 -0.01527632 -0.02355454
H -0.23751790 5.54185742 23.71080552 0.00463150 -0.02296290 0.02024680
H -3.28039282 0.75628701 29.92660693 0.00524247 0.00097143 0.00096342
H 4.12795475 4.32405728 0.13589016 -0.00913091 -0.02284956 -0.00378315
H 2.35646985 9.15281037 29.41850715 -0.02384974 -0.00644480 0.00313967
H -0.40129487 7.24969509 25.36992005 0.01142491 0.00690874 0.00671436
H -3.06427887 2.04228732 27.90181510 -0.00952405 0.01120675 -0.00435831
H -0.52539049 2.71508049 33.83030795 0.00267924 0.00283085 -0.00132650
H 2.37652160 7.51219465 30.96596419 -0.01454181 0.02224896 0.00360945
H 1.87798103 4.97741723 33.29928662 -0.00106184 0.00350678 0.01666958
H -0.24542193 28.95136385 32.10376062 -0.01151757 0.01938815 0.00103871
H -2.72443503 4.67332892 26.22133932 0.01913243 -0.00904740 0.00325716
H -0.66592398 9.84394148 27.24140987 -0.00761113 0.00943697 0.00887081
H 3.55324192 3.08134479 31.84970104 -0.00371946 0.00739362 -0.04464362
H -2.20053043 7.61590070 33.10576181 0.00683238 -0.01681066 -0.00621029
H 15.56289612 5.85303018 28.36685632 -0.01311767 0.03570614 0.01725158
H 0.06394835 1.87020545 26.45488484 -0.00186389 -0.02526928 0.00520733
H -2.78249275 4.32473830 31.15129207 -0.01654730 0.01414468 -0.00835992
H -2.55504061 9.03464124 34.06403327 -0.02127964 -0.01047505 0.00355007
H 1.44298919 6.59617311 27.59659155 0.00626905 -0.02347867 -0.00683155
H 1.75500215 1.86396805 25.90319691 -0.00957523 -0.00013502 0.01169172
H 16.19405140 3.99144178 31.98422194 -0.03057152 0.01434167 -0.01220429
H -0.83182568 8.61201128 33.36440841 0.01376284 0.00399078 -0.00468487
H 2.39364423 5.39149783 28.31585798 -0.00416761 0.00960039 0.00832998
H 0.61928575 0.57779249 25.27608760 0.00334596 0.01878409 -0.00542930
H -0.19734309 18.32742280 2.58319899 0.00211144 0.00058471 0.01215218
H 2.92890790 13.61569235 3.14913025 -0.00374770 -0.01003982 -0.02159157
H 5.56701669 10.51197685 9.37283017 0.00449721 0.00736891 0.02742789
H 2.24431853 15.32336435 9.01418154 -0.02819471 0.00434366 0.00414456
H 5.91408264 18.22665283 0.31365863 -0.01034760 0.00494291 -0.00514806
H 3.83914611 13.44876352 5.27572767 -0.01620779 -0.01932121 -0.00661325
H -0.34817768 10.99057299 11.17810219 0.02169217 0.00680923 -0.01103377
H 1.33774909 15.48122407 6.56122315 0.00010546 0.00817881 0.00114994
H 4.27375838 16.30806496 10.75858635 0.02076823 0.00707087 -0.01161789
H 3.85627638 12.04158403 7.32972260 0.00276630 -0.00175206 -0.00414802
H 1.48376209 12.30377007 1.16366096 -0.03386990 -0.00290957 -0.00072383
H 1.18656105 17.39986414 4.89846859 0.02995990 0.00492622 -0.01696353
H -1.79596653 15.21038299 34.99865428 -0.01433457 0.02230807 0.00132230
H -0.13271091 10.66037586 6.42872232 -0.01110831 0.01999532 -0.00592054
H 2.40043360 13.80181181 12.24281476 -0.02583439 -0.02195830 -0.00262319
H 5.17168015 18.52066654 5.87282607 0.01773041 -0.01515173 -0.00452406
H 2.85847720 16.94283708 1.32004241 0.02890601 0.02694564 -0.01111872
H -0.14622956 11.85947827 4.35496804 0.00366280 0.00383138 -0.00464951
H 2.61515959 12.39786936 10.18967812 0.02642900 0.02518972 0.00273368
H 5.20491135 16.95995553 7.82638244 0.01062944 -0.00740477 0.01668191
H 5.42957780 14.24891427 9.89878039 0.01791983 0.00101953 0.03232533
H 2.95339849 9.96063132 8.19185884 0.00403172 -0.00172769 0.01066105
H 0.53693704 14.08172301 2.39879466 0.01599714 0.00727441 0.01592511
H 2.19401492 18.90420389 3.74645670 0.00093805 -0.00291349 -0.00753948
H 6.45670524 12.58085417 8.60539463 -0.00497820 0.01113985 0.01896003
H 0.32076080 18.05180605 10.39406551 0.01535577 0.01755015 -0.00673724
H 19.36186445 15.04678898 4.41835661 -0.02298588 0.03152896 -0.00080402
H 3.17531397 11.29681913 2.44748987 0.00527787 -0.02253478 -0.02671588
H 0.24464468 13.61176851 7.56660800 0.00474534 -0.03168655 0.00786957
H 1.97715857 18.57730709 10.18964054 0.00430652 0.00456974 0.01450941
H 4.52970074 15.50277464 4.21719901 0.01760740 0.00132852 0.02147681
H 4.89850456 11.74072090 2.72981842 0.02685168 -0.00182757 0.00039027
H 19.23068609 13.31325787 8.47779766 0.01268042 -0.00723505 -0.00647759
H 1.32644745 17.05346592 9.47456791 0.00803628 -0.00077775 -0.01118841
H 6.25455168 14.90133333 4.17845651 0.00600465 0.00965716 0.02392075
H 4.51416664 10.60157133 1.43716422 -0.02247861 0.00988525 0.01747222
H -1.51948288 18.58434842 14.98147590 0.00111995 0.00523624 0.02175456
H 1.24561041 13.88541121 15.33380420 -0.03203629 -0.01839268 0.01003982
H 3.81207182 10.55667793 20.82512486 -0.00878234 -0.02984636 0.00553738
H 0.82602765 15.47132485 20.79861231 0.00144439 0.00151916 0.00324161
H 4.45568073 18.22514204 12.46100709 0.00155750 -0.00094225 0.02028113
H 2.46489331 12.86693679 17.06201211 -0.01245623 0.02561105 0.00143762
H -2.02804813 10.89108218 23.10963464 -0.00641943 -0.01377546 0.01190366
H -0.35690871 16.23052886 18.73302285 -0.00202641 0.01636921 -0.01428078
H 2.30561808 16.17787723 22.72084195 -0.01319000 0.01553003 0.00916129
H 2.29963500 11.41184600 19.10316460 0.00949096 -0.01531769 0.01982547
H -0.38063086 12.61957487 13.28718483 -0.00280402 0.03044637 0.00056636
H -0.14055514 17.53761491 16.60885988 0.03743686 0.01035909 -0.01273909
H 1.13566656 14.92315578 12.00520967 0.01038684 -0.00640171 0.01024208
H -1.72486004 10.40557790 18.24279778 -0.02382279 0.02177324 0.00279894
H 0.97870403 14.01208925 23.85375770 -0.00576581 0.02161921 0.02460990
H 3.73841036 18.67121484 17.58229528 -0.00451183 0.00666901 -0.01361856
H 1.05399780 16.45687675 13.98988864 -0.00383149 0.00125994 0.01093187
H -1.58542161 11.96663258 16.27075653 -0.00017209 0.00357163 0.00268491
H 1.07828692 12.38691523 21.96536030 -0.02653443 0.01192359 0.00234430
H 3.76508878 17.03753656 19.60909785 -0.00016221 -0.01656486 -0.00593450
H 3.64012596 14.68951703 21.35771522 0.00448408 0.02572273 0.00883988
H 1.41797840 9.42994221 20.01609138 -0.01958238 -0.01256486 0.00465370
H -1.27778994 14.28569828 14.29719689 0.01824529 -0.01951617 -0.01209943
H 0.82200507 19.22535219 15.51214115 -0.00194235 0.01462004 0.00925558
H 5.68274836 12.14369877 20.66959001 -0.02813981 0.00476801 0.01971403
H -0.79736479 17.48655694 21.52703501 0.00780239 0.00160642 0.02336290
H -1.67757726 15.67731199 15.68944592 -0.00769367 0.02904496 -0.00642945
H 2.32697565 11.81854480 14.37332016 -0.00544088 0.01654465 0.00132028
H -0.93282600 12.56715233 20.62998026 0.01078892 0.01814792 -0.00651039
H -0.62240433 18.74121346 22.62809303 -0.00946073 0.01274002 -0.00823820
H 4.12700399 16.75751097 15.39737139 0.01054862 0.01416886 0.00376101
H 2.99337045 10.74609818 13.34111710 -0.00661305 0.04236780 -0.02471705
H -1.04086320 13.85101224 19.46521151 -0.01417063 -0.01544396 -0.00593700
H 0.86972889 18.33465138 21.48738394 -0.02082772 -0.01534868 -0.00613659
H 2.99244879 15.78654885 16.36822922 0.00901162 -0.00126601 -0.00774256
H 1.25669135 10.55552485 13.81734786 0.00401924 -0.01956025 -0.00005184
H -3.24677564 19.00981222 26.53820419 -0.01681347 -0.01409504 -0.01207199
H -0.26133558 13.84654347 26.84226071 -0.00073133 -0.00610819 -0.00347459
H 2.42785398 10.56999132 32.61153402 0.03325351 0.02457155 0.01535085
H -0.63444521 15.14669083 32.21446601 0.00073356 0.03160999 -0.01795116
H 2.19698556 17.74714867 24.56618750 -0.01965757 0.00779215 0.01326772
H 0.62583136 13.30499352 28.97184579 0.01379284 0.01038155 0.01576295
H -3.49856005 10.50231157 34.86577142 -0.02041245 -0.01716544 -0.00322583
H -1.84041774 16.17473695 30.47983425 -0.02846968 -0.00263330 0.01810728
H 1.15555690 16.65538216 34.08790687 0.00157057 -0.01766671 0.02305608
H 0.60200007 11.71602365 30.92719803 0.00871732 -0.01218535 0.00140445
H -1.74022000 12.62133986 24.92526904 0.00759605 0.00301799 0.01038071
H -1.76120391 17.65475231 28.47994068 0.00418615 0.00618278 -0.00613914
H -0.33396111 15.48817238 23.71712246 -0.01060817 -0.01340178 -0.00408754
H -3.17768967 10.23323054 29.57716966 -0.00789130 -0.00495786 0.01145811
H -0.42396306 14.26406816 35.50318620 -0.01710928 -0.04127964 -0.00401634
H 2.33421379 18.77555140 29.53685228 0.02461779 -0.00879305 0.01580308
H -0.48425209 16.83641969 25.78365950 -0.03219735 0.00724119 -0.00552992
H -3.18770209 11.84093849 27.72378884 0.02428815 0.00694366 0.01615104
H -0.53942294 12.46306863 33.50590916 0.01283930 -0.01513089 -0.01308779