1728
Time=94000.00000000 pbc="T T T" Lattice="22.12448757 0.00000000 0.00000000 0.00000000 28.81167300 0.00000000 0.00000000 0.00000000 27.42514146" energy=-10388.20844078 virial="11.78903006 27.83348820 15.73978616 27.83348820 -24.49746338 24.55760216 15.73978616 24.55760216 -19.00444936" stress="0.00301529 0.00164793 0.00081398 0.00164793 0.00112569 0.00143752 0.00081398 0.00143752 0.00174940" Properties=species:S:1:pos:R:3:vel:R:3
N 0.15187977 5.64920343 1.34209638 0.00273953 0.00561532 -0.00249829
N 1.66584909 4.20427433 5.80561947 0.00401187 0.00709621 -0.00268266
N 2.22387836 9.33672528 7.53948246 0.00553671 -0.00183071 0.00428261
N 2.83322471 0.66902158 3.53462754 0.00062734 0.00210776 -0.00922176
N 1.21419103 3.54151594 1.56279782 -0.00015670 -0.00056407 -0.00240052
N 0.36513894 6.08498284 6.07901367 0.00961356 0.00239995 0.00263291
N 3.22879583 1.12465589 7.51811769 -0.00479302 0.00229718 -0.00442261
N 2.37740531 8.44715561 3.31982857 -0.00388979 -0.00083219 0.00038045
N 22.05993862 5.48625520 10.29551770 0.00493926 -0.00161847 -0.00072160
N 1.24746172 4.02756510 14.64428795 -0.00614949 0.00114273 -0.00361304
N 2.34651669 8.79658646 17.08434219 -0.00282331 0.00099061 0.00151614
N 3.69587187 0.51155456 12.58070868 0.00067083 -0.00574783 0.00538004
N 1.46684405 3.76208079 10.62005931 0.00595314 0.00076233 0.00377008
N 0.22874426 6.05344988 14.84092650 -0.00084747 -0.00258944 -0.00436375
N 3.22335219 1.31003472 16.60496108 0.00665120 0.00414386 -0.01043821
N 2.11694777 8.45062523 11.84002970 0.00171539 0.00175155 -0.00123768
N 0.24450285 5.37750532 19.35794015 0.00157973 0.00344190 -0.00304534
N 1.58372387 4.29348059 23.83610610 -0.00125452 -0.00039156 -0.00337019
N 1.96338577 9.00764030 26.57926670 0.00194784 -0.00236719 -0.00094657
N 3.31915544 1.09918331 21.39486429 0.00243874 -0.00224584 -0.00437252
N 1.45538027 3.34651982 19.43325543 0.00268269 0.00178428 -0.00158921
N 0.44872437 6.32806328 24.23980289 0.00661946 0.00049629 -0.00224808
N 3.22186852 1.52170581 25.93692908 0.00189754 0.00324917 -0.00544638
N 1.95440512 8.51941457 21.29857750 -0.00584798 0.00222533 0.00829757
N 0.21809192 15.01386001 0.92740975 0.00340592 0.00352730 0.00132240
N 1.57322976 13.81993407 5.58245132 -0.00252953 0.01070954 -0.00166666
N 2.01151008 18.74021353 8.01438536 -0.00039000 0.01291375 -0.00531088
N 3.41397851 10.49362710 3.73898924 -0.00063020 0.00109088 -0.00300062
N 1.37659947 13.08386495 1.09174027 0.00065477 -0.00243477 0.00272666
N 0.57636695 15.79495434 6.00186441 0.00224915 -0.00366529 0.00273888
N 3.47115209 11.24829338 7.89478133 -0.00106622 -0.00212968 0.00106863
N 2.16644045 18.15026355 3.06825242 0.00062539 -0.00097398 -0.00036052
N 0.02159203 15.12443483 9.48589130 -0.00064628 0.00126195 0.00167349
N 1.54225702 13.67547498 14.66702129 -0.00568623 -0.00160848 -0.00196280
N 1.98500347 18.50242110 17.32040999 -0.00449421 -0.00392144 0.00400333
N 3.57589990 10.21590051 12.34735609 0.00330474 0.00042572 0.00477144
N 0.74713401 13.19427037 10.79054690 -0.00332626 -0.00181812 0.00146242
N 0.44701373 15.71698570 15.04836740 -0.00049393 0.00661858 0.00094169
N 3.48361830 10.84073000 16.88466329 0.00456799 -0.00148649 0.00466940
N 2.38011129 17.81229068 12.30739069 -0.00297035 0.00977248 -0.00626785
N 0.12981871 14.83661504 19.39117240 0.01245377 0.00017972 0.00626105
N 1.28955369 13.59107650 23.58925642 0.00588009 0.00208632 -0.00609431
N 2.27101231 18.33278305 26.44212287 -0.00201877 0.00100994 0.00280626
N 3.43763001 10.11317292 21.86210821 0.00290721 -0.00421037 -0.00413033
N 1.55001090 12.98976308 19.59103942 -0.00501527 0.00383951 0.00349078
N 0.69007945 15.71179397 24.38583259 -0.00441882 0.00283934 0.00236161
N 3.49101955 10.64214187 26.05073227 -0.00664611 -0.00019219 0.00110056
N 2.76706744 17.83166945 21.53740126 -0.00733918 0.00456752 -0.00485083
N 0.13744370 24.46497785 0.99063323 0.00094635 -0.00186109 -0.00044428
N 1.46129826 22.97090261 5.59730840 0.00666687 -0.00116147 -0.00487021
N 2.28208091 27.88250467 7.96815555 -0.00172572 0.00289295 -0.00348670
N 3.62075008 19.82466450 3.58404054 0.00231480 -0.00476604 0.00013389
N 1.59277258 22.72952891 1.31026157 0.00039789 0.00243432 -0.00378351
N 0.50785232 25.10041186 5.91321178 -0.00969769 -0.00616369 0.00058582
N 3.49315823 20.49140816 7.82339187 -0.00784304 -0.00738207 -0.00228535
N 2.08425503 27.39741017 2.86969601 0.00796195 0.00025344 -0.00069658
N 0.41517451 24.95920915 10.37813778 0.00000932 0.00493260 -0.00650127
N 1.57598961 23.53661471 15.03111161 0.00036716 0.00409780 -0.00247335
N 1.83716271 28.14429529 17.01461967 -0.00001910 -0.00620407 0.00051438
N 3.33007689 19.89171604 12.73175060 0.00740174 -0.00035722 0.00226993
N 1.62282844 23.08060771 10.85672996 -0.00054945 0.00511415 0.00046654
N 0.23031925 25.35742854 15.15000984 -0.00286470 0.00443497 -0.00165439
N 3.07823735 20.47347279 17.08218707 -0.00219776 -0.00069662 -0.00150731
N 2.49493414 27.42321239 11.98118263 -0.00351282 -0.00602628 0.00364196
N 0.10607524 24.64255182 19.67655877 0.00120884 -0.00731361 -0.00241825
N 1.49144466 23.41903336 24.04425692 -0.00411446 -0.00364244 0.00001675
N 2.55301620 28.12414976 26.12813196 0.00011839 -0.00702306 -0.00731246
N 3.70010554 19.97635573 21.70372554 -0.01152976 0.00179427 -0.00307815
N 1.73812041 23.00235949 19.81823486 -0.00251818 0.00927625 0.00575241
N 0.15215279 25.41134816 24.09429435 0.00329352 0.00216285 -0.00148324
N 3.26812223 20.35861815 25.93079506 -0.00619137 -0.00739764 -0.00380481
N 2.19022497 27.72406797 21.27682539 -0.00266400 0.00248982 0.00040013
N 3.73725266 5.47313883 1.37844524 0.00157583 -0.00392613 0.00007745
N 5.34886803 3.89074427 5.65172673 0.00463928 -0.00370913 0.00137614
N 5.57509214 9.14753706 8.19111751 0.00180071 0.00416022 0.00315380
N 7.00878609 0.79297586 3.39452389 0.00108162 0.00353141 0.00115664
N 4.77743124 3.45333700 1.53361628 -0.01007858 0.00876519 0.00992698
N 4.12595394 5.85284937 6.15659415 0.00766570 -0.00403046 0.00529816
N 7.21219887 1.30943426 7.65244703 0.00058597 0.00764052 0.00261716
N 5.98524542 8.28580033 3.26292954 -0.00587383 -0.00603927 0.00315326
N 4.08419943 5.55288248 10.54825279 0.00276417 -0.00009180 0.00155234
N 5.44806148 4.00657275 15.10465624 0.00119386 -0.00704633 0.00394588
N 5.80500388 8.88942931 17.17447475 0.00325156 -0.00558697 0.00747001
N 6.99892767 0.55234841 12.93581764 -0.00052199 0.00164363 -0.00539703
N 5.33210591 3.62729434 10.54855896 0.00041754 0.00102865 0.00438017
N 4.30848372 6.01358228 15.09914978 -0.00252974 -0.00495043 0.00164793
N 6.78882563 1.52184799 16.77713438 -0.00388487 0.00437821 0.01326813
N 6.06931054 8.48417460 12.02567479 -0.00054364 0.00012027 -0.00462814
N 3.79725344 5.52587972 19.41765636 -0.00040520 -0.00389176 0.00125124
N 5.07942405 4.38538600 24.21334730 -0.00109327 0.00489568 0.00683326
N 5.82256380 8.78631290 26.55123206 0.00513841 -0.00882292 -0.00232225
N 7.21719380 0.83758688 21.58307274 0.00666762 0.00412055 0.00096033
N 5.22752964 3.68738257 19.47712012 0.00357770 -0.00385295 -0.00118099
N 3.96669497 6.37182594 24.29071880 -0.00487933 0.00955538 0.00240555
N 6.99875044 1.36425437 25.79602313 0.00132235 -0.00154744 -0.00383680
N 5.67006730 8.42134580 21.51016824 -0.00571513 -0.00171153 -0.00407394
N 4.20836986 15.07114002 1.21259131 -0.00099851 -0.00545616 -0.00693588
N 5.67547782 13.83652699 5.66546776 0.00157090 -0.00004350 -0.00311813
N 5.99206969 18.43087520 8.01061346 0.00117083 -0.00350748 -0.00111733
N 6.93820038 10.32512294 3.54180925 0.00643861 0.00025849 -0.00520606
N 5.08117660 12.93948233 1.30556770 0.00348111 0.00144073 0.00715245
N 4.12986566 15.64781039 5.85345194 -0.00355149 -0.00307514 0.00278388
N 7.11111213 10.85795603 7.62275958 -0.00293065 -0.00110929 0.00003036
N 5.80335510 17.76956130 3.02836869 -0.00410579 -0.00207783 -0.00746573
N 4.04238401 15.21395924 10.49688172 -0.00055717 -0.00099875 -0.00558510
N 5.21905114 13.67193268 15.05921933 -0.00222367 -0.00419174 0.00485789
N 5.61522830 18.47141260 17.11460859 0.00336993 -0.01093600 -0.00232782
N 7.44313069 10.23801839 12.81405510 -0.00332005 -0.00363973 0.00139069
N 5.53289576 13.50585642 10.76872857 0.00405447 0.00272673 -0.00140073
N 3.81025686 15.41379798 15.46809198 0.00741073 0.00075394 0.00419099
N 6.86205293 10.95445298 17.00277806 0.00270442 0.00366895 -0.00332714
N 5.84582925 18.05579965 12.29610129 -0.00005429 0.00196901 0.00060717
N 4.48284899 15.35639225 19.27921333 0.00364045 -0.00103142 0.00542664
N 5.33343026 13.58854529 24.39336778 -0.00121371 0.00226854 -0.00509008
N 5.65991737 18.57730100 26.37194870 -0.00046911 0.00683292 0.00128776
N 6.84771603 10.39262170 21.86873172 -0.00681240 0.00040111 -0.00251602
N 5.27115225 13.18199669 19.86763112 0.00590219 -0.00590633 0.00321885
N 4.09738221 15.52824330 24.27845439 -0.00376401 -0.00462695 -0.00158804
N 7.20697019 10.65095974 26.27352937 -0.00256972 0.00048381 0.00338864
N 6.30093461 18.15184212 21.64773978 0.00197056 -0.00414674 0.00080604
N 4.00741189 24.46511526 1.12784921 0.00252278 0.00290357 -0.00036446
N 5.45656828 23.19933323 5.67242061 0.00234859 0.00193750 0.00075666
N 5.80987687 28.34777034 7.84090636 0.00206752 -0.00226316 -0.00017751
N 6.92231585 19.75855228 3.39313277 0.00399257 0.00328537 -0.00839573
N 5.36986050 22.66603762 1.47311244 0.00853993 -0.00140097 -0.00449917
N 4.43268611 25.26593787 6.05300360 0.00034456 0.00056354 0.00206939
N 6.89658253 20.40865979 7.50763040 -0.00219435 -0.00870139 0.00286950
N 5.68355308 27.85059117 3.19694789 -0.00024755 0.00489706 0.00707990
N 3.96257525 24.53272775 10.20817468 0.00163181 0.00078931 0.00111815
N 5.13624117 23.32134092 14.84903642 -0.00689451 -0.00434266 -0.00040067
N 5.71919824 28.33566854 17.13689455 -0.00041155 0.00216368 -0.00463660
N 7.05478820 19.93901235 12.52159319 0.00155927 0.00170817 -0.00343316
N 4.85235584 22.30976416 10.37689481 -0.00020210 0.00551976 0.00561528
N 3.97498419 25.30537217 15.09487744 -0.00082623 -0.00007013 -0.00321704
N 6.76328312 20.50078793 16.82994750 -0.00094053 -0.00084123 -0.00034154
N 5.84007332 27.40210252 12.32987172 -0.00223129 -0.00485402 0.00339325
N 3.95474178 24.78556733 19.43876320 -0.00360201 -0.00646015 -0.00427821
N 5.40133231 23.24415865 24.04169296 -0.00075004 -0.00356929 -0.00314113
N 5.63927418 28.33464743 26.03781441 0.00166980 0.00133766 -0.00425689
N 7.65574192 20.00796819 21.90146271 -0.00949743 -0.00364238 -0.00450719
N 5.13480650 22.84401682 19.72961699 -0.00034214 -0.00642205 0.00672895
N 3.92038041 25.09417166 24.07416967 -0.00524826 -0.00377784 0.00240716
N 7.16356210 20.40835426 26.07708771 0.00057378 0.00855571 -0.00129176
N 5.90203063 27.82506132 21.11628147 -0.00148884 -0.00254721 -0.00206323
N 7.21848253 5.08552463 1.34404888 -0.00205445 0.00057007 0.00617741
N 8.86538089 4.24957629 5.55933047 -0.00249177 -0.00262227 -0.00084482
N 9.56550168 8.85410544 7.96065886 -0.00744580 0.00100884 0.00219589
N 11.11661139 0.60906807 3.26727568 -0.00413451 0.00141549 0.00564269
N 8.78950540 3.42996582 1.43038913 0.00104904 0.00066733 -0.00099819
N 7.58490472 6.06386914 6.34226419 -0.00072943 0.00449455 -0.00146303
N 10.78519457 1.12239888 7.41016382 0.00129865 0.00360684 0.00528404
N 9.50118941 8.52978591 3.03725999 -0.00000171 0.00178419 0.00465233
N 7.61697129 5.57244391 10.47097907 -0.00674990 -0.00249356 -0.00182479
N 8.93644054 3.83816187 14.98448580 0.00102571 0.00069936 0.00209601
N 9.26503339 8.93664444 17.02380319 -0.00008223 -0.00226782 0.00164286
N 10.91690137 0.58699505 12.69101430 0.00438863 0.00660710 -0.00092482
N 8.94429044 3.55650938 10.73927045 -0.00019284 0.00354990 -0.00199512
N 8.03569127 5.95551508 15.39756128 -0.00011565 -0.00098820 -0.00640545
N 11.05017105 1.00710998 16.65651081 -0.00757895 -0.00996331 -0.00568708
N 9.70029727 8.47645551 12.38489026 0.00536652 -0.00592826 -0.00065364
N 7.69531758 5.18187736 19.53649148 -0.00451453 -0.00188095 0.00038657
N 8.94666776 4.08887735 24.14630330 -0.00248233 -0.00063753 0.00025270
N 9.82565028 8.58471983 26.24722595 -0.00106506 0.00417786 -0.00003584
N 11.05034051 0.60655828 21.57343871 -0.00022043 0.00283206 -0.00362063
N 9.15830994 3.48144974 19.75924602 0.00141235 -0.00491515 0.00048165
N 7.63257744 6.04768661 24.54948635 -0.00617207 -0.00066813 -0.00552424
N 10.62195792 1.50544925 25.88887317 -0.00136466 -0.00223542 -0.00513867
N 9.41380070 8.31470209 21.48758829 0.00063133 -0.00091752 0.00222762
N 7.61376051 14.87192661 1.07689586 0.00364158 -0.00205965 0.00121492
N 9.06222288 13.70425609 5.84039473 0.00022475 0.00740389 0.00622413
N 9.36627058 18.68860429 8.04730780 0.00063017 -0.00462283 -0.00852903
N 10.93726727 10.38709034 3.43203788 -0.00326576 -0.00101616 0.00136863
N 8.85463064 13.02321356 1.55481129 0.00818568 0.00049406 -0.00319214
N 7.94914963 15.77808082 6.09115499 -0.00361886 -0.00293693 -0.00784022
N 10.84244297 10.75488708 7.68265494 -0.00438923 0.00639343 -0.00598836
N 9.72793529 17.76424493 2.89922952 0.00022521 0.00087138 -0.00482548
N 7.81713911 15.41632252 10.64220832 -0.00038853 0.00447277 0.00227652
N 8.26862908 13.68440092 15.01518365 0.00047602 0.00521173 -0.00325784
N 9.33852024 18.67836077 17.21555210 0.00200173 0.00673009 -0.00083417
N 10.51232000 10.67564031 12.46056126 -0.00034549 0.00401109 0.00560225
N 8.77570783 13.31071619 10.35908999 -0.00472774 0.00364995 0.00173382
N 7.40215148 15.76543179 15.20191398 -0.00080197 0.00093281 -0.00322025
N 10.64782398 10.72032190 16.75603513 0.00606561 0.00836503 -0.00931252
N 9.55259217 18.10416033 12.30507898 0.00121581 -0.00395489 -0.00058102
N 7.53764428 15.33442413 19.34883973 -0.00078108 -0.00522713 0.00223912
N 9.18903741 13.72450816 24.15828127 0.00221218 -0.00210607 0.00191344
N 9.48226797 18.44740451 26.21419675 -0.00216436 0.00022774 0.00048688
N 10.83349741 10.12118777 21.60160949 0.00614880 -0.00174316 -0.00110057
N 8.54166855 13.27420579 19.93312773 0.01040125 0.00267349 0.00472626
N 7.81597061 15.51951789 24.47732684 0.00304323 -0.00394214 -0.00203147
N 10.86682617 10.68573178 26.05114049 0.00018804 -0.00429558 -0.00226209
N 9.97716760 17.78649473 21.23264892 -0.00898733 -0.00233532 0.00399260
N 7.52798251 24.89491972 0.76531820 0.00112801 0.00020888 -0.00968857
N 9.18493238 23.23499071 5.68804792 -0.00070220 0.00371370 0.00367591
N 9.54615109 28.05864105 7.93732383 -0.00004025 -0.00425783 -0.00732410
N 10.84920027 19.78608134 3.25823397 -0.00367706 -0.00298044 0.00406933
N 8.72752966 22.96696747 1.34706057 0.00154449 0.00517390 -0.00581339
N 7.93431158 25.21661255 5.87629159 0.00316703 -0.00006532 0.00662039
N 10.84915227 20.38028953 7.51997613 0.00189049 -0.00647067 0.00361095
N 9.68258795 27.62063652 3.00426752 -0.01039504 -0.00213029 -0.00064553
N 7.78695253 24.66005356 10.26224547 -0.00095406 0.00217278 -0.00308169
N 8.86359022 23.34816956 14.54235620 0.00618648 0.00018215 -0.00349730
N 9.34821941 28.23394769 17.08081175 -0.00010138 0.00182733 -0.00574437
N 10.74259972 20.08546591 12.85201556 -0.00330209 0.00176326 -0.00484213
N 8.64376417 22.48154191 10.50417043 0.00230781 -0.00425678 -0.00136196
N 7.54156936 25.16500082 15.19229031 0.00275440 -0.00279048 0.00006860
N 10.52951210 20.55673950 16.73777792 -0.00378143 0.00516481 0.00417091
N 9.82669735 27.47639723 12.18818456 -0.00522705 -0.00256368 -0.00184303
N 7.37421337 24.77604149 19.19898361 0.00259502 -0.00448805 -0.00121321
N 8.89967715 23.29682393 23.89357401 0.00149595 -0.00836824 -0.00056101
N 9.28677446 28.39456372 26.18384411 0.00073281 -0.00413952 0.00170994
N 10.65411001 19.92150317 21.64509202 0.00110172 -0.00573949 -0.00462623
N 8.92526694 23.00683703 19.38713755 -0.00054949 0.00188039 0.00452799
N 7.67562824 25.28768418 23.79067524 0.00232845 -0.00703516 -0.00135646
N 10.84972462 20.26900115 25.79037482 0.00152356 0.00231795 0.00474933
N 9.56719187 27.63539039 21.38551615 -0.00256847 -0.00209907 0.00857487
N 11.08853230 5.25846948 1.19198391 0.00312243 -0.00123177 -0.00488562
N 12.44108944 3.90418317 5.58592756 -0.00091259 -0.00226097 -0.00804506
N 13.31659606 9.06130466 7.86153990 -0.00357070 -0.00104819 0.00734711
N 14.81853779 0.66877820 3.28064772 0.00143717 -0.00412064 0.00022155
N 12.71388709 3.64156800 1.43456021 -0.00434859 -0.00061574 0.00366304
N 11.48099198 5.89350053 6.06373952 0.00490551 0.00441888 -0.00018580
N 14.38718587 1.18481864 7.32236317 -0.00378935 0.00189989 0.00202138
N 13.18607643 8.21159559 3.06464809 -0.00036924 -0.00477369 0.00870741
N 11.46493815 5.63038987 10.28811278 -0.00409357 0.00460418 0.00485766
N 12.34440935 3.94532741 14.48431880 0.00170581 -0.00290562 -0.00457766
N 12.91774662 8.88053120 17.02440590 -0.00272553 -0.00043054 -0.00348586
N 14.23700233 0.51649391 12.31305927 -0.00427737 -0.00248060 0.00360713
N 12.63064487 3.64403502 10.65337063 0.00480874 -0.00408079 -0.00005157
N 11.21561294 5.83721310 15.22204675 -0.00038954 -0.00157806 -0.00425703
N 14.61054514 1.28054825 16.72755070 0.00169259 -0.00517010 0.00577153
N 13.64994325 8.43227570 11.81051078 0.00254335 0.00001673 0.00600352
N 11.23183861 5.59463673 19.28798058 -0.00044125 -0.00336696 -0.00034030
N 12.71327797 4.22427755 23.86199362 -0.00384477 -0.00070110 -0.00026252
N 13.51450841 8.62075559 26.38003437 0.00554763 -0.00299788 0.00252185
N 14.38238079 0.57703683 21.78900486 0.00124023 -0.00382355 0.00163352
N 12.43632633 3.65654610 19.69514918 0.00201146 -0.00048925 -0.00507920
N 11.49953603 6.08141277 24.24326799 -0.00204023 -0.00360609 -0.00147048
N 14.22186153 0.91753852 25.64523666 0.00480753 -0.00119386 0.00353452
N 13.44707540 8.33229254 21.37583610 0.00066858 -0.00136210 -0.01174533
N 11.53136206 14.79308586 1.07059660 -0.00401858 -0.00316532 -0.00488457
N 12.56896770 13.84714673 5.82912471 0.00005935 0.00632498 0.00696486
N 13.28376561 18.38888872 8.13938887 -0.00731359 -0.00121837 0.00311193
N 14.63138513 10.06282251 3.06729943 0.00207342 -0.00523741 -0.00193272
N 12.95971812 12.96991000 1.46247116 0.00546212 -0.00042793 -0.00357699
N 11.40431044 15.81036541 6.08819122 -0.00126908 -0.00633748 0.00361623
N 14.24304375 11.22799195 7.67651997 -0.00213846 0.00275177 -0.00197557
N 13.17875044 17.72430866 3.21172566 0.00394083 -0.00342227 0.00348233
N 11.29783268 15.41614013 10.24103930 -0.00384569 -0.00094790 0.00306832
N 12.45953531 13.85247573 14.99316322 0.00227109 0.00526360 -0.00144868
N 13.05694776 18.73564385 17.17821228 0.00107116 0.00555002 0.00401675
N 14.63133943 10.40512058 12.28944883 0.00461285 -0.00262809 0.00542729
N 12.56606020 13.49738162 10.76328383 -0.00070379 -0.00036426 -0.00112239
N 11.25176135 15.71380053 15.13284156 -0.00564389 -0.00768687 -0.00205169
N 14.30517765 10.71902582 16.83814271 0.00427377 0.00508778 -0.00408466
N 13.17047406 18.00123656 12.54968006 0.00176525 0.00297827 -0.00591233
N 11.28436794 15.03534371 19.49140063 0.00142340 0.00174612 -0.00054284
N 12.55511822 13.62977158 23.87962424 -0.00141934 0.00530741 -0.00566363
N 13.10760282 18.38925924 26.45316118 -0.00609049 0.00283627 0.00553863
N 14.89049132 10.12634206 21.58864022 0.00364966 0.00077602 -0.00308173
N 12.41300914 12.97021202 19.64117062 0.00132396 -0.00385312 0.00553615
N 11.69964927 15.71836111 24.28457936 -0.00017681 0.00061346 0.00774670
N 14.57023129 10.68804939 26.14588577 0.00767733 -0.00350235 -0.00015012
N 13.48324324 17.85631629 21.59842604 0.00158544 0.00161183 -0.00245489
N 11.06324095 24.79221235 1.23656115 0.00638948 0.00063194 0.00177296
N 12.98866829 23.14067289 5.67001358 -0.00451410 -0.00632856 -0.00540118
N 13.28112257 28.15106519 7.84000359 0.00019842 -0.00460697 -0.00040576
N 14.26249053 19.78826746 3.65628699 -0.00139824 0.00737567 0.01195716
N 12.20190748 22.85792842 1.82007728 0.00049581 -0.00397838 -0.00393055
N 11.59562789 25.03820567 5.95564412 0.00256956 0.00116625 -0.00269425
N 14.28092896 20.52668176 7.90962115 0.00066417 0.00640367 0.00610269
N 13.47435685 27.61742921 2.88688300 -0.00058424 -0.00684915 -0.00000995
N 11.43820662 24.71866546 10.10136631 -0.00037462 -0.00493163 0.00153060
N 12.73313748 23.39840923 14.87592381 -0.00740246 0.00048439 0.00361103
N 13.46248625 28.11723919 17.19752283 0.00664875 0.00090200 0.00046383
N 14.47367525 19.89328667 12.49209310 0.00408856 0.00359666 -0.00423973
N 12.32068556 22.57973419 10.52899010 -0.00715515 0.00117776 0.00260661
N 11.39488443 25.25054607 15.01872242 0.00317352 -0.00303220 0.00239425
N 14.17011094 20.74833020 17.15337997 0.00372801 -0.00147683 -0.00591657
N 13.18828509 27.23702351 12.22308792 0.00683711 -0.00070347 0.00115933
N 11.40537564 25.13461195 19.86073647 -0.00151170 -0.00265981 -0.00358563
N 12.42639574 23.20071540 24.19505735 -0.00689201 0.00330905 0.00289633
N 12.70242698 28.09363861 26.33389852 0.00122944 0.00426902 -0.00196817
N 14.72445240 19.82987970 21.71095799 0.00462445 0.00162558 -0.00555460
N 12.49624620 23.07303962 19.74579134 -0.00104232 0.00903537 0.00424948
N 11.46554143 25.38656143 24.30774498 0.00128633 -0.00605211 0.00468663
N 14.47028844 20.26440775 26.11712758 -0.00028195 0.00508282 -0.00026712
N 13.26972514 27.51313178 21.37850053 -0.00031137 -0.00106322 0.00011909
N 14.99247863 5.31195341 0.84825812 -0.00180740 -0.00098878 0.00327546
N 16.32702065 4.14209852 5.79099790 -0.00091296 0.00265029 -0.00248306
N 16.98482309 8.80145710 8.08937563 -0.00452881 0.00024982 0.00159690
N 18.52810766 0.81315387 3.69406811 -0.00337684 -0.00486536 -0.00823240
N 16.32798720 3.57250033 1.63955073 -0.00377687 -0.00584774 -0.00718261
N 14.90725085 6.02581104 5.98814056 0.00048417 -0.00247006 -0.00006142
N 17.95162209 1.07375041 7.62485620 -0.00184905 0.00083430 -0.00614858
N 16.88413993 8.32339252 3.21751608 0.00393523 -0.00419058 0.00220675
N 15.29034894 5.70991532 9.84405289 -0.00195140 -0.00064420 0.00166009
N 15.81785197 3.93823969 14.73643686 -0.00408230 -0.00086440 -0.00264663
N 16.79063436 9.18932257 17.06947272 0.00785279 -0.00540579 -0.00837240
N 18.06618143 0.53624164 12.33551456 0.00632637 -0.00353341 -0.00277629
N 16.28099438 3.60927473 10.40356157 0.00073076 0.00480803 -0.00239023
N 15.04863298 6.14524961 15.12640480 0.00610763 -0.00029864 0.00632485
N 18.18068878 1.59960703 16.43111874 -0.00585572 0.00520916 0.00058825
N 16.93900839 8.32677335 11.85939974 -0.00847737 -0.00328714 -0.00283319
N 14.96751718 5.37551454 19.58977408 0.00229833 0.00254945 -0.00253791
N 16.66384821 3.97290155 24.21910981 0.00152236 0.00444875 -0.00002052
N 17.32689601 8.66203714 26.16755687 -0.00209186 -0.01070778 -0.00566084
N 18.10553487 0.61788718 21.50684297 0.00102316 -0.00018407 -0.00116542
N 16.36778809 3.58654141 19.75959248 -0.00163955 0.00356808 0.00331208
N 15.14911127 5.69179700 24.32118885 -0.00503611 0.00463454 -0.00382722
N 18.15095804 1.03912302 26.16173360 -0.00476407 0.00338386 0.00283456
N 17.17801295 8.27357719 21.36450636 -0.00157455 0.00085540 -0.00085374
N 15.06438761 14.90061802 1.16295429 -0.00318450 -0.00158147 -0.00891824
N 16.38288266 13.67605635 5.91320924 -0.00326683 0.00224603 0.00829127
N 16.77848417 18.44541828 7.63411304 0.00799467 0.00724788 0.00082477
N 18.13300518 10.32071492 3.45882159 0.00323828 -0.00016338 0.00683559
N 16.35166852 12.99276941 1.67177583 -0.00193988 0.00079515 0.00132529
N 15.07559804 15.53801699 5.96106110 -0.00082232 0.00157489 0.00361476
N 17.94265015 10.76456410 7.31357204 0.00173717 -0.00229878 -0.00150481
N 16.90098130 18.00298559 3.11182012 -0.00683752 -0.00300692 0.00627873
N 14.97174055 15.07666306 10.43413617 0.00659024 -0.00185091 0.00287087
N 16.46020821 13.54553730 14.87408552 0.00641176 0.00170698 -0.00284932
N 16.66136062 18.32812559 17.11978019 -0.00021711 0.00417473 -0.00068481
N 18.05578030 10.26905982 12.31658094 -0.00247866 -0.00068633 -0.00117618
N 16.16578892 13.09464318 10.58128262 0.00049438 -0.00699844 -0.00771845
N 15.20842971 15.46409679 15.22540650 0.00250589 0.00113728 -0.00649702
N 18.17710608 11.03380705 16.70325039 0.00235304 0.00513209 0.00304703
N 16.93039378 18.13871567 12.26372174 -0.00442820 0.00487647 -0.00663504
N 14.67789907 14.96835125 19.17412420 0.00088317 -0.00267666 -0.00273134
N 16.17635954 13.53462723 24.12463977 -0.00153310 0.00263061 -0.00340078
N 16.89462459 18.40329616 25.82811684 -0.01029543 0.00312212 0.00186871
N 17.86482041 10.43026248 21.68126971 -0.00026715 0.00327101 0.00597395
N 16.23512891 13.31014659 19.62356092 -0.00087113 -0.00114780 -0.00428858
N 14.92725974 15.40148217 24.43927151 -0.00435145 -0.00507908 0.00344174
N 17.85924020 10.94372283 26.10385167 -0.00233793 0.00238185 -0.00888119
N 17.05794405 18.22001225 21.06168324 -0.00251672 -0.00047592 -0.00277182
N 15.00225730 24.48461335 1.27496505 -0.00239930 -0.00448660 -0.00522051
N 16.56406955 23.40720746 6.27290840 -0.00084454 0.00153302 -0.00298080
N 16.74534985 28.05255386 8.05717347 0.00224717 0.00019034 -0.00715266
N 18.43226155 19.71793522 3.32982312 -0.00147091 -0.00279358 0.00091942
N 16.19605259 22.50094063 1.54701462 0.00102117 0.00172536 0.00423601
N 15.14013209 25.22392582 6.12455966 0.00359513 0.00421819 -0.00239511
N 17.99390159 20.23529944 7.91367487 -0.00012068 -0.00309234 -0.00259552
N 17.13996031 27.89268304 3.24275748 -0.00179374 -0.00616978 0.00047496
N 14.51915350 24.25808705 10.58833376 -0.00123821 0.00378605 0.00725487
N 16.30180198 23.46211598 14.94594506 -0.00098075 0.00151127 -0.00132091
N 17.10842829 28.45998358 17.06709574 0.00562889 -0.00510609 0.00045306
N 17.95631342 20.17619480 12.62831825 0.00514158 -0.00105320 0.00434981
N 16.25597040 22.74257461 10.59944286 0.00953890 -0.00101838 0.00103104
N 15.07151005 25.33743861 15.54677267 0.00318181 0.00656145 0.00428994
N 17.63034007 20.31030792 16.68383290 0.00163627 0.00129408 0.00692130
N 16.81411882 27.43542774 12.18162609 -0.00092045 -0.00581128 -0.00607579
N 15.36908523 24.95051185 19.48102102 -0.00934293 -0.00215568 -0.00417825
N 16.25958922 23.32870508 24.26202415 0.00009683 0.00534397 -0.00144204
N 16.94130022 27.94182570 26.35989672 0.00257914 -0.00241944 -0.00406973
N 18.62136613 19.81119954 21.59078783 0.00806464 0.00448959 -0.00159052
N 16.12472605 22.78507811 19.97761550 -0.00108329 0.00387534 -0.00399240
N 14.90453730 25.22036734 24.41835748 0.00508354 0.00325409 0.00089959
N 18.33268615 20.21223911 25.99440487 0.00005332 0.00478686 0.00558842
N 16.76473384 27.55683471 21.56179630 0.00190969 0.00201654 0.00113308
N 19.01766666 5.79337482 1.18489287 -0.00527494 -0.00375223 0.00624280
N 20.25889955 3.89847577 5.82198803 -0.00278670 0.00417591 0.00215454
N 20.29472040 9.00929760 8.30419863 -0.00169883 -0.00352603 -0.00943298
N 21.89440672 0.70564364 3.19574519 0.00423414 -0.00046368 0.00160428
N 19.68114731 3.68632001 1.95425269 0.00098309 0.00115784 -0.00067490
N 18.74670923 5.80129748 6.19696656 0.00742987 -0.00186717 -0.00000645
N 21.95441540 0.85171758 7.61201070 0.00058738 0.01179833 -0.00046579
N 20.71406962 8.65279598 3.19334110 -0.00321539 -0.00702828 0.00251196
N 18.77563608 5.37676953 10.19608717 -0.00334722 0.00650042 -0.00012330
N 20.07246432 4.19090419 14.79059670 -0.00149075 0.00043116 0.00366994
N 20.38443047 8.86189834 17.16434814 -0.00440373 -0.00369973 0.00335732
N 21.55737364 0.68500876 12.84560759 0.00687525 0.00330239 -0.00397429
N 19.98780620 3.50197033 10.61921577 0.00319624 -0.00319044 0.00117721
N 18.63600528 6.02237108 14.89218046 -0.00435576 0.00041280 0.00104604
N 21.67953500 1.08395596 16.79666087 -0.00287033 0.00071786 0.00278973
N 20.73040317 8.43149016 12.51343115 -0.00702881 0.00222418 0.00283046
N 18.62332898 5.45943841 19.44894107 0.00044031 0.00247366 -0.00430062
N 20.07636815 3.96429754 23.91916232 0.00176991 0.00784707 0.00634811
N 20.36237099 8.80636044 26.33697366 -0.00100998 0.00200854 -0.01167803
N 22.00675094 0.65359543 21.57545168 0.00602568 -0.00155692 -0.00131128
N 19.96512750 3.55072972 19.63286331 0.00286292 0.00704527 0.00181484
N 18.87501950 5.88002769 24.26181286 0.00101486 -0.00243599 0.00334036
N 21.39417129 1.36125911 26.00568974 -0.00001731 0.00248628 0.00156962
N 20.54367453 8.47576435 21.41111433 -0.00584379 0.01001498 0.00039742
N 18.72737845 15.13667521 1.07812007 0.00598675 0.00127496 0.00551375
N 20.39777322 14.06531855 5.97454623 -0.00207367 -0.00263633 -0.00078439
N 20.82779433 18.50335652 8.30975114 -0.00063361 -0.00793132 0.00483551
N 21.54674993 10.67788014 3.74005550 0.00185567 -0.00682954 -0.00252187
N 19.64643889 13.01543870 1.49411435 0.00275663 -0.00662364 -0.00457205
N 18.92757293 15.85259795 6.04866520 0.00615994 0.00145123 0.00237922
N 21.52816190 10.98430315 7.98037558 0.00326963 -0.00078549 -0.00447161
N 20.66437890 17.96697013 3.09927585 -0.00207275 0.00037217 0.00067128
N 18.72088804 15.41714178 10.30335535 0.00142763 0.01033370 -0.00114636
N 20.32086488 13.65301018 14.62230577 -0.00423427 0.00624159 -0.00075685
N 20.25230175 18.91185406 16.91884552 0.00286503 0.00039253 0.00754705
N 21.99483526 10.32972463 12.74516489 -0.00488375 0.00702506 0.00274807
N 19.60957285 13.36669562 10.59085630 -0.00163414 0.00257316 -0.00516087
N 18.73510670 15.34094658 14.97235414 0.00169819 0.00153806 0.00158327
N 21.96375831 10.52914862 16.93583855 -0.00406717 0.00515675 -0.00146727
N 20.59268331 18.44416874 12.23017275 0.00164666 0.00175244 -0.00195735
N 18.91112141 15.29972029 19.40749916 -0.00097507 -0.00026356 0.00459254
N 20.08223784 13.84507375 23.70212345 -0.00023027 0.00145346 -0.00387431
N 20.60212595 18.49960322 26.13378662 0.00492701 -0.00227223 0.00134653
N 21.90057175 10.29421428 21.70585020 0.00032976 -0.00502094 -0.00044138
N 19.68255064 13.01487380 19.82114863 0.00328415 0.00790562 -0.00552952
N 19.11879914 15.86753371 24.26819403 0.00193486 0.00159787 0.00353232
N 21.70080869 10.60394664 25.96925362 0.00215937 0.00345918 0.00370861
N 21.01925628 18.09641804 21.38296399 -0.00248213 -0.00062125 0.00058571
N 18.89917660 24.69290362 1.34032638 -0.00079526 -0.00105397 0.00124177
N 19.98150456 23.26423991 5.65318475 0.00229050 0.00088536 -0.00138887
N 20.31988197 28.03297194 8.05131233 0.00143144 0.00342618 0.00140714
N 21.77623409 19.88543103 3.53242937 0.00412497 -0.00075685 0.00166873
N 19.87933721 22.69504486 1.38679152 -0.00675409 0.00521330 -0.00646208
N 19.01999709 25.36105590 5.86262709 0.00896268 0.00054393 -0.00319378