1728
Time=40000.00000002 pbc="T T T" Lattice="22.03996504 0.00000000 0.00000000 0.00000000 28.88425934 0.00000000 0.00000000 0.00000000 27.45384357" energy=-10389.42434275 virial="22.68484104 10.07997977 8.77210347 10.07997977 35.29719988 -29.04056037 8.77210347 -29.04056037 -24.52547682" stress="0.00360125 0.00051974 0.00045197 0.00051974 0.00457778 -0.00163815 0.00045197 -0.00163815 0.00127980" Properties=species:S:1:pos:R:3:vel:R:3
N 0.18233736 5.57907542 1.04235100 0.00171279 -0.00066352 -0.00442590
N 1.39993880 4.00088033 5.53952813 -0.00491533 0.00180142 -0.00946448
N 2.25256881 9.25026739 7.95843809 0.00251813 0.00224626 -0.00410069
N 3.29363862 0.58128735 3.37427953 -0.00283884 0.00135317 -0.00066947
N 1.50789292 3.66364684 1.17757968 -0.00326939 0.00550131 0.00033345
N 0.31746300 5.94947858 6.10083981 0.00478219 -0.00135627 0.00306834
N 3.36062792 1.16172113 7.81614719 -0.00045052 -0.00214223 -0.00465468
N 2.01569289 8.36585769 2.95241441 0.00411987 -0.00150037 0.00542490
N 0.58646296 5.40554242 10.20258299 -0.00297162 0.00355414 -0.00335792
N 1.70151213 4.06250253 14.66782398 0.00116336 0.00836957 0.00104649
N 2.30269128 8.73275944 17.32005643 -0.00502498 -0.00148522 -0.00080290
N 3.38931468 0.54183877 12.57354599 0.00268336 -0.00026445 -0.00079149
N 1.41998209 3.28193983 10.69194395 0.00390994 0.00351394 0.00477848
N 0.55872437 5.95920833 15.33070165 0.00134694 0.00114234 0.00416430
N 3.46625321 1.15863716 16.56944006 0.00153412 0.00313560 0.00258757
N 2.17511222 8.19061646 12.42846089 0.00164544 -0.00094082 -0.00392728
N 22.03435980 5.39636525 19.59299359 -0.00290390 -0.00039237 0.00046528
N 1.62790117 3.91068019 23.99681103 0.00150493 -0.00380069 0.00682337
N 2.12553164 8.81867159 26.27593688 -0.00776000 0.00197293 0.00270115
N 3.62133948 0.70873489 21.73282042 0.00007242 -0.00005785 -0.00221978
N 1.33811448 3.49020895 19.91266502 -0.00134358 -0.00201438 -0.00319140
N 0.78214551 5.99714094 24.48853967 -0.00106944 -0.00559921 -0.00299801
N 3.61842177 0.98448696 25.94257361 -0.00099025 0.00135837 0.00432202
N 2.26796043 8.32539693 21.49839611 -0.00702638 -0.00614957 0.00000338
N 0.12774679 15.07944765 1.34310004 -0.00765556 0.00312785 0.00904382
N 1.15431265 13.88394385 5.50830736 0.00062106 -0.01305960 -0.00040576
N 1.87369242 18.67295982 8.03738221 -0.00040072 0.00035838 -0.00307243
N 3.35080503 10.32316123 3.18589941 -0.00174971 -0.00431881 -0.00131851
N 1.44775605 13.14459014 1.42011611 -0.00036191 0.00071841 0.00235819
N 0.20122988 15.99444697 6.08605136 -0.00201335 -0.00001296 -0.01110865
N 3.37849422 11.18979121 7.57313167 0.00735938 -0.00023717 0.00163228
N 2.11358232 18.20336351 2.92093971 0.00682764 0.00014434 0.00573109
N 0.47985767 15.36230216 10.10257504 -0.00438719 -0.00743621 -0.00055841
N 1.78072290 13.93423689 14.54861009 -0.00517406 -0.00186168 -0.00141955
N 2.45234591 18.27048544 17.78587541 0.00520300 0.00455861 -0.00595917
N 3.17406671 10.27505397 12.63456394 -0.00695400 0.00199063 -0.00263094
N 1.30122483 13.19165036 10.37799189 0.00164860 -0.00380834 -0.00127843
N 0.71159313 15.83061705 15.12282982 -0.00073987 0.00415536 0.00333461
N 3.38581948 10.72344039 17.07673550 0.00057732 0.00122730 0.00156847
N 2.07396892 18.19638298 12.32591924 0.00635140 -0.00365393 0.00051439
N 0.38211028 15.01153714 19.47201387 -0.00027603 0.00297588 -0.00189936
N 1.65801048 14.06972936 23.95471653 0.00221593 -0.00098480 0.00001879
N 1.86516886 18.93225864 26.52643502 0.00194542 0.00755429 0.00261725
N 3.60180539 10.26921769 21.74061180 -0.01147446 -0.00183285 0.00313664
N 1.69468017 13.13746208 19.93621003 0.00547832 -0.00378105 0.00449465
N 0.20798635 15.77687773 24.32184836 0.00099016 0.00004576 -0.00503565
N 3.31156764 10.78032010 25.90006915 -0.00006325 -0.00258049 0.00426004
N 2.15925625 18.27699033 21.61359648 -0.00346514 -0.00187480 0.00281960
N 0.12370613 24.54253807 0.96509131 0.00136086 -0.00068566 0.00625462
N 1.62788952 23.54076871 5.70561434 -0.00131595 -0.00244022 -0.00130961
N 2.05174079 28.05730236 7.95936283 -0.00796336 -0.00332937 0.00644621
N 3.50409400 19.90781430 3.51726578 0.00050352 -0.00648205 0.00055593
N 1.48380123 22.75799051 1.17908360 -0.00203438 -0.00449062 -0.00235868
N 0.40545637 25.41134037 6.06494271 0.00087962 -0.00003491 0.00006209
N 3.20100978 20.47955188 7.79384883 -0.00069800 -0.00799889 -0.00533431
N 2.02661286 27.59206817 2.86090020 0.00322424 -0.00104626 0.00698187
N 0.07024097 24.57874258 10.46361458 0.00676562 -0.00321085 -0.00321952
N 1.60645247 23.25724500 14.73017413 0.00235265 0.00323296 0.00400834
N 2.41075072 28.00661957 17.27141350 -0.00579322 -0.00356460 -0.00243987
N 3.41373002 20.08832940 12.70516111 -0.00123085 -0.00438578 -0.00756735
N 1.42815110 22.66040000 10.59177220 -0.00083054 0.00661193 -0.00352118
N 0.49930251 25.21684604 15.43019780 -0.00541514 0.00470125 0.00600702
N 3.31982222 20.22622923 16.67419435 -0.00282181 -0.00357957 -0.01035620
N 2.18199185 27.42806219 12.51971502 0.00676658 0.00048742 -0.00306469
N 0.13218115 24.80101573 19.20789577 0.01458936 -0.00439379 -0.00324961
N 1.55571691 23.21192638 23.64434001 -0.00137101 -0.00297109 0.00268711
N 2.20777816 28.03168326 26.25474526 -0.00031141 -0.00116702 0.00291060
N 3.70430904 19.94254224 21.81400750 -0.00014516 -0.00147574 0.00143086
N 1.35815530 22.88272910 19.46625961 0.00089531 -0.00081670 0.00265181
N 0.38936449 24.96344915 24.29982197 -0.00325177 0.00537325 -0.00120863
N 3.25968536 20.65046896 25.83090280 0.00155833 0.00349997 0.00375700
N 2.58221881 27.53179137 21.33180056 -0.00278703 -0.00237725 0.00323439
N 4.18609441 5.33846938 1.01326848 0.00465450 0.00531802 -0.00228781
N 5.14255493 3.95732337 6.03409910 -0.00130768 0.00257350 0.00137802
N 5.56886898 8.95066606 7.73566739 -0.00112962 0.00068742 0.00579116
N 7.30128507 0.71730881 3.48791372 0.00424368 0.00300211 -0.00070415
N 5.24738924 3.40522541 1.61803080 0.00125030 -0.00526234 -0.00111019
N 3.83021400 5.97445071 6.08890195 -0.00318025 0.00150102 -0.00428602
N 6.82750834 1.21330113 7.71115059 -0.00688833 0.00308976 -0.00242949
N 5.76830965 8.49495772 3.27582011 -0.00008017 -0.00129023 0.00321209
N 3.58358003 5.47818371 10.35380325 -0.00093760 -0.00536022 0.00522120
N 5.28746532 3.90308156 14.33562776 0.00068783 -0.00218662 -0.00356621
N 5.98251979 8.82746466 17.11557323 -0.00800833 -0.00166688 0.00570264
N 7.18797419 0.67543802 12.21532819 0.00023161 -0.00116156 0.00113099
N 4.83867261 3.51800121 10.70097523 -0.00479183 -0.00040622 0.00053162
N 4.10470463 5.77879408 14.97981338 0.00352733 -0.00110132 -0.00438078
N 6.82887459 1.34899700 16.64299852 -0.00182206 -0.00257773 -0.00794112
N 5.67852493 8.47124158 12.09225462 0.00660992 -0.00049280 -0.00206487
N 3.66964061 5.38624275 19.24792992 0.00060106 -0.00330309 -0.00213506
N 5.31872445 4.29660694 24.11404448 0.00358073 0.00045984 -0.00017693
N 5.74255069 8.90147225 26.23721055 0.00609136 0.00160238 0.00328775
N 7.28706891 0.61724263 21.53720406 -0.00161907 -0.00252323 -0.00443136
N 4.95689157 3.57857358 19.40027808 0.00454007 -0.00342047 0.00126907
N 3.97998755 6.21076121 24.14836936 -0.00289401 0.00194794 0.00290777
N 6.91843187 1.52672760 25.95770353 0.00029989 -0.00577524 0.00315112
N 5.87503462 8.47436213 21.00684047 -0.00786628 -0.00447568 -0.00256537
N 3.72774022 15.23343303 1.21809555 -0.00354833 -0.00141496 0.00539182
N 5.04291939 13.66824997 5.62902960 -0.00108426 -0.00462033 0.00092051
N 5.99105416 18.29767835 8.08419518 0.00228053 -0.00502444 0.00125217
N 7.17026529 10.25909698 3.38723574 0.00793389 0.00143154 0.00089286
N 4.97359659 13.28864648 1.33176345 0.00214172 0.00726947 -0.00430400
N 4.02778794 15.72252774 6.06800221 -0.00325480 0.00361531 -0.00741264
N 7.05330059 10.71912313 7.30799457 -0.00242445 -0.00335841 -0.00245556
N 6.14103378 17.91267424 3.12975734 0.00482247 0.00062318 0.00080209
N 3.66367374 15.25099073 10.26632483 -0.00188641 -0.01032697 0.00270191
N 5.19161648 13.78200038 14.91322960 -0.00296592 -0.00154097 -0.00586682
N 5.98901258 18.49383725 17.41618428 -0.00321404 -0.00280995 -0.00331785
N 6.85889862 10.44135254 12.14415575 -0.00119498 -0.00084278 -0.00098056
N 4.69180119 13.20122438 10.52436961 -0.00159369 -0.00773808 0.00198757
N 4.27275410 15.85632793 15.26233715 0.00143515 -0.00802149 0.00255931
N 7.02365029 10.78775889 16.74881932 0.00044329 -0.00341772 0.00110532
N 5.76466699 18.09375318 12.53040447 0.00408807 -0.00589499 -0.00340180
N 3.98439055 14.98584468 19.65636555 0.00182160 -0.00297047 0.00022313
N 5.23068760 13.73975933 24.15352561 0.00236332 -0.00132570 -0.01017130
N 5.40135616 18.78867010 26.32324829 0.00091398 -0.00062897 -0.00394958
N 7.33733703 10.19641788 21.34735003 0.00196299 -0.00266125 -0.00096312
N 5.37707907 13.18289174 20.01372323 0.00260593 -0.00389560 -0.00238219
N 4.03463533 15.67971375 24.39738437 0.00468964 -0.00106714 -0.00392483
N 6.99649471 10.77052517 26.00440367 0.00625961 0.00353516 -0.00796514
N 6.01367738 17.65914534 21.49402844 0.00605951 0.00168236 -0.00402896
N 4.13976320 24.62214762 1.16210668 0.00306753 0.00319219 0.00156828
N 5.40205100 23.37115838 5.85657655 -0.00525767 0.00312482 0.00459800
N 5.48901329 28.17528997 7.94984567 -0.00424510 -0.00030175 -0.00233616
N 7.07798132 19.99502395 3.73513936 -0.00053227 -0.00205113 0.00146441
N 5.14477476 22.54703516 1.36671191 -0.00090676 -0.00328240 0.00258357
N 4.08489779 25.32364499 6.00241010 0.00387138 -0.00654234 0.00037732
N 6.95804152 20.40040110 7.83180739 0.00380233 -0.00285902 -0.00082777
N 5.84931954 27.84765573 3.03512368 0.00208575 -0.00963960 -0.00044924
N 3.78339755 24.76951037 10.43425402 -0.01033164 0.00082246 -0.00910734
N 5.24404298 23.11331177 14.95795787 -0.00470773 -0.00329625 -0.00364821
N 6.01580065 28.09518604 16.93711931 -0.00297544 0.00475155 0.00637067
N 7.02602474 19.98106459 12.64383389 0.00401074 -0.00597252 0.00041692
N 4.92937929 22.71931329 10.64391981 0.00232757 -0.00131290 0.00454440
N 3.92461324 25.04796907 15.20927465 0.00371184 0.00195109 -0.00171019
N 7.06852515 20.38540397 17.01680397 -0.00470863 0.00166959 0.00213317
N 5.86329230 27.65698814 11.95367047 0.00258854 -0.00912058 -0.00080697
N 4.43284006 24.74080820 19.58858257 -0.00575816 0.00065315 -0.00052052
N 5.77044320 23.38563287 24.07231715 -0.00187943 0.00496849 -0.00550052
N 6.33229493 28.16064662 26.21516387 -0.00138818 -0.00329521 0.00153182
N 7.01280589 19.65527648 21.99777095 0.00091599 0.00532291 0.00217429
N 5.16606431 22.51252375 19.51560337 -0.00379298 0.00272478 0.00515625
N 4.41733553 25.30564228 24.22062113 0.00068537 0.00037527 0.00253869
N 7.05434548 20.31372245 25.94148519 -0.00367450 -0.00339238 -0.01077688
N 6.02953115 27.62743594 21.28458829 0.00634251 -0.00926308 -0.00423859
N 7.45377782 5.51954455 1.32742094 0.00581561 -0.00302309 0.00031144
N 8.74630458 4.03936034 5.90465095 0.00272882 -0.00132447 0.00631517
N 9.40209064 9.04827626 7.90566167 0.00383470 -0.00203685 0.00072299
N 10.42387584 0.64929138 3.28327698 -0.00264802 0.00017154 0.00236091
N 8.96911117 3.75968580 1.47339837 0.00080493 0.00098088 -0.00476469
N 7.71863902 6.02413281 6.13464109 -0.00609886 -0.00492723 -0.00418864
N 10.70748039 1.03089342 7.92719804 -0.00426630 -0.00378569 0.00421952
N 9.57846953 8.24060860 3.04799196 0.00256095 -0.00725862 -0.00021055
N 7.40017048 5.25126515 10.53217923 0.00797983 0.00012042 0.00136163
N 8.90450218 4.16828225 14.86992494 0.00064237 0.00571548 0.00373517
N 9.50496506 9.11521990 17.24798445 0.00527491 0.00074190 -0.00206049
N 10.89727484 0.71045060 12.19007043 0.00013685 -0.00396801 0.00642461
N 8.72548782 3.44385706 10.60371969 -0.00338322 0.00156203 0.00761201
N 7.46826822 6.03997288 15.17643230 -0.00369808 -0.00159071 0.00154723
N 10.51551962 1.28824992 16.85167317 -0.00394238 0.00562370 -0.00512636
N 9.56714065 8.61381179 12.10982304 0.00415823 -0.00024884 -0.00546372
N 7.64635914 5.56708498 19.51590613 -0.00251245 -0.00127850 -0.00043891
N 8.96979118 4.09317356 24.11535680 0.00060507 0.00213370 0.00377211
N 9.58903767 9.05925770 26.65008233 0.00300001 0.00345423 -0.00517102
N 10.70417932 1.12685849 21.49219702 0.00431071 -0.00292871 -0.00293619
N 8.84640608 3.66825806 19.69301239 0.00066329 0.00029502 0.00447264
N 7.68314704 5.97065964 24.13972725 -0.00352796 0.00049364 0.00065573
N 10.63549160 1.41403273 25.82339948 0.00376476 -0.00504117 0.00024794
N 9.64919877 8.32653106 21.57750427 -0.00873120 -0.00229367 -0.00033062
N 7.49756380 15.23075683 1.19222283 -0.00322778 0.00341866 -0.00230430
N 8.85389222 13.71176176 5.79067199 -0.00422752 0.00175252 0.01476512
N 9.11559041 18.42720951 7.77760400 -0.00217292 -0.00870057 -0.00484899
N 10.31414052 10.31561171 3.67988497 0.00217282 0.00155486 0.00360287
N 8.91429811 13.50514898 1.47489030 -0.00251486 -0.00050403 0.00354833
N 7.50365419 15.66332087 5.88189483 0.00099756 -0.00061191 0.00560728
N 10.62752911 10.96516332 7.75457466 -0.00318502 0.00144689 0.00364712
N 9.53347746 17.85809799 3.29724848 0.00001684 0.00298557 0.00335998
N 7.28458987 15.30925406 10.40683404 0.00013529 0.00004171 0.00302810
N 8.69754336 13.97582743 14.75578263 -0.00258326 0.00456135 -0.00096508
N 9.22380843 18.47166819 17.56672797 0.00322553 -0.00340917 0.00140181
N 10.63360191 10.61913171 12.49549140 0.00137757 -0.00437135 0.00762663
N 8.51125516 13.41236237 10.08039928 0.00099383 0.00465565 0.00760330
N 7.50491768 15.75890706 15.62824472 0.00357090 0.00121741 0.00354758
N 10.66725311 10.97888850 16.80197744 0.01043509 0.00107782 -0.00134487
N 9.53545099 17.99641423 12.44973980 0.00109829 -0.00445859 0.00360623
N 7.80710711 14.98283673 19.47937623 -0.00161215 -0.00163535 -0.00214657
N 8.82795564 13.73669552 24.16762661 0.00387746 0.00241669 0.00199779
N 9.06566940 18.48728370 26.62585089 -0.00366616 0.00638681 0.00789675
N 10.70067142 10.36001298 21.95093499 -0.00121672 -0.00341142 -0.00425608
N 9.20609455 13.19395373 20.02333998 -0.00274030 0.00140554 0.00211514
N 7.56064696 15.64865139 24.45404415 -0.00967699 -0.00883035 -0.00008083
N 10.86718561 10.75911055 25.92978403 0.00168759 0.00180887 0.00018857
N 9.79784561 17.66278944 21.72040230 0.00269790 0.00252210 -0.00691970
N 7.51528436 24.43053666 1.02488400 0.00468482 0.00255405 -0.00454746
N 8.66665858 23.28497875 5.95327078 0.00056376 0.00220214 0.00387146
N 9.16508927 28.18288626 7.63672462 -0.00102570 -0.00057870 -0.00384878
N 10.80918785 19.76448036 3.59000987 0.00384541 -0.00049689 -0.00142390
N 8.97119538 22.69047044 1.47101051 0.00204894 0.00241217 0.00157768
N 7.77522292 25.34774634 6.04899402 0.00306557 0.00371162 0.00142222
N 10.32331683 20.42901111 7.61768493 0.00099303 -0.00419712 -0.00398091
N 9.53516686 27.49354078 3.14113678 -0.00191442 0.00527806 0.00096458
N 7.62300983 24.68295008 10.48463753 -0.00224191 0.00455329 0.00513685
N 8.93647394 23.33274908 14.79458255 0.00110935 0.00094862 -0.00611721
N 9.54982061 28.15883666 16.94283526 -0.00411183 -0.00564970 0.00750898
N 10.93526473 19.75639307 12.77298557 -0.00087746 0.00115976 0.00091606
N 8.98114811 22.80458835 10.66712595 -0.00359426 0.00204494 0.00659934
N 7.61922784 25.19005716 15.02796988 -0.00157981 0.00503821 -0.00284127
N 10.22177202 20.41783082 16.78608346 -0.00366552 -0.00499695 0.00103451
N 9.62379727 27.69061888 11.93644053 -0.00478539 0.00006340 -0.00172577
N 7.60037196 24.57300695 19.29069810 0.00433706 0.00718069 -0.00033557
N 9.37646598 23.43694402 24.01505851 0.00584034 -0.00725440 0.00198314
N 9.63321248 28.31227438 26.17416564 0.00511196 -0.00201871 -0.00222892
N 10.56339162 19.79412538 21.82578003 -0.00201695 -0.00368039 -0.00263601
N 8.78864581 22.68439661 19.80406645 -0.00433916 -0.00521089 0.00831149
N 8.13972194 25.37566622 24.33206646 -0.00109150 0.00175340 -0.00296394
N 10.37045307 20.37838229 25.94278095 -0.00473770 -0.00623313 0.00596633
N 9.72272640 27.99320546 21.12142610 -0.00133409 0.00172369 0.00325175
N 11.95257739 5.51477243 1.18028427 0.00093529 0.00400054 0.00381184
N 12.36587482 3.91611124 5.81277141 -0.00323054 0.00034235 -0.00156150
N 13.18718934 8.72124625 7.77601913 0.01055279 -0.00239404 -0.00886540
N 14.64731721 0.75019382 3.45686616 -0.00585547 0.00538490 0.00283370
N 12.56188906 3.31954469 1.28993267 0.00000079 0.00725002 -0.00678458
N 11.18915721 5.89966579 6.14888972 -0.00389216 0.00176602 -0.00184468
N 14.41502336 1.08842692 7.44081653 0.00035374 -0.00127151 0.00134619
N 13.13197762 8.22615441 2.78923249 -0.00256733 0.00338496 -0.00081368
N 11.16084231 5.43935072 10.16988971 0.00418021 -0.00244164 -0.00337378
N 12.53692739 4.24749367 14.79588708 0.00004898 0.00379703 0.00299628
N 13.13984317 9.45649781 16.68838473 0.00029391 0.00137451 0.00354281
N 14.49828249 0.47521876 12.46902641 -0.00496831 0.00015675 -0.00373567
N 12.37171619 3.48013103 10.38024466 -0.00173150 0.00136298 0.00205318
N 11.18255598 6.15605001 15.10128471 0.00261195 -0.00273820 -0.00395755
N 14.40800982 1.20210650 17.14135657 -0.00639256 0.00087373 -0.00132414
N 13.81545405 8.17103471 11.80198899 -0.00414697 -0.00129028 -0.00044629
N 11.12473567 5.67917714 19.53509547 -0.00144519 0.00579492 -0.00101373
N 12.76376713 4.35819798 23.79566559 -0.00120168 -0.00013412 0.00339379
N 13.47322054 8.71311772 26.34746070 0.00380796 -0.00689193 -0.00104735
N 14.88463181 0.69021110 21.80600243 -0.00019670 0.00104127 0.00276040
N 12.64362519 3.89560861 19.66659287 -0.00217418 0.00002508 -0.00041472
N 11.28581363 6.07375908 24.37153137 -0.00142877 0.00364804 -0.00036132
N 14.34747687 1.59028319 26.02828928 -0.00242465 -0.00232919 0.00292401
N 13.07143461 8.74852797 21.11978659 -0.00490563 -0.00033426 -0.00110269
N 11.49338347 15.41980914 1.03578840 0.00367699 -0.00366946 -0.00820499
N 12.73191359 13.54116371 5.71924897 0.00555906 0.00323550 -0.00628676
N 12.92108646 18.32398367 8.05485767 -0.00300615 -0.00616712 0.00198488
N 14.12610406 10.19174580 3.27872756 -0.00489457 -0.00190892 0.00603935
N 12.49688119 13.36399158 1.44782249 -0.00282759 0.00569650 -0.00633543
N 11.55315655 15.50070802 6.04016777 0.00158774 0.00595512 -0.00126867
N 14.18102743 10.80252803 7.43910738 -0.00074345 0.00583587 -0.00045050
N 13.30306365 18.08296673 3.07408877 -0.00299178 0.00210959 0.00082421
N 10.97689875 15.19403008 10.26819666 0.00009822 -0.00383535 0.00638890
N 12.29247547 13.70410501 14.56035564 0.00026487 0.00926419 0.00281442
N 12.73173275 18.49833256 17.06458776 0.00396104 -0.00131540 -0.00198089
N 14.54515480 10.34465278 12.29751444 -0.00115662 0.00319145 -0.00508000
N 12.56819372 13.51198133 10.52546442 0.00118258 -0.00168260 0.00274211
N 11.34754500 15.75040219 15.11831865 -0.00106109 -0.00770270 -0.00082100
N 14.49371479 11.25087970 16.54248936 -0.00062404 0.00396426 -0.00363986
N 13.65161008 17.94084995 12.12446010 0.00525244 -0.00010528 -0.00207355
N 11.54986114 14.95744731 19.44246462 0.00028110 0.00163793 0.00037654
N 12.39580571 13.93970998 24.00751257 0.00187704 0.00652437 -0.00223602
N 12.89782709 18.45951771 26.17610699 0.00118764 0.00631815 0.00388482
N 14.44751911 10.55625546 21.38981591 0.00200180 -0.00310344 -0.00007231
N 12.61505739 12.97302520 19.48695783 0.00308336 -0.00242385 0.00303002
N 10.96039550 15.62700301 24.58721631 -0.00854814 0.00601364 -0.00090444
N 13.95495592 10.93283376 25.83487669 -0.00522716 0.00462812 0.00451003
N 13.69947974 17.91241224 21.48680035 -0.00602389 0.00220626 -0.00073636
N 11.07469453 24.76488844 1.33354953 0.00144962 -0.00294240 -0.00060732
N 12.65479434 23.41124381 5.64977230 -0.00188096 0.00183887 0.00215717
N 13.43970272 27.98937293 7.90081480 0.00298392 -0.00562381 0.00450777
N 14.48136848 19.98295977 3.59964325 0.00024479 -0.00182849 0.00250740
N 12.34490094 22.78661925 1.58830472 -0.00608608 0.00212689 0.00458785
N 11.57702002 25.49226378 5.79030158 0.00495689 -0.00450854 -0.00411231
N 14.30782014 20.23774266 7.97122654 -0.00589390 -0.00426000 0.00028891
N 13.31030856 27.76721927 3.08940207 -0.00149862 -0.00271932 -0.00322314
N 11.15353487 24.74076226 10.21872116 0.00100992 0.00653469 -0.00453955
N 12.58788883 23.46721103 15.23627885 -0.00594744 -0.01100727 -0.00350683
N 12.99224060 28.28536810 17.34247793 -0.00106290 -0.00292734 0.00255527
N 14.33161328 20.05207599 12.48449121 0.00083732 0.00424801 0.00757560
N 12.31322001 22.87112440 10.73240944 -0.00664243 0.00320707 -0.00246715
N 11.31111177 25.35142100 15.19919582 0.00398957 -0.00428094 0.00099608
N 14.15738981 20.26285078 16.87795034 -0.00296176 -0.00272189 -0.00012454
N 13.06128030 27.58455142 12.07869466 0.00311360 0.00090557 -0.00105086
N 11.61927836 25.00971648 19.42802907 0.00062918 -0.00698649 -0.00288555
N 12.53663151 23.54357990 24.18380984 0.00464611 -0.01049727 0.00294598
N 13.09565785 28.54475505 26.19571854 -0.00144424 -0.00069062 -0.00448466
N 14.44016820 19.93745962 22.19380133 -0.00450338 0.00618406 0.00332425
N 12.56774416 22.83485782 19.65241720 0.00188511 0.00253320 -0.00758931
N 11.45369457 25.53388495 24.55349671 0.00302728 0.00337928 0.00498417
N 13.79415397 20.51002163 26.21880640 0.00072180 0.00527436 -0.00222635
N 13.37647610 27.73318926 21.51017379 0.00113059 0.00043486 0.00868158
N 14.98504383 5.38783723 1.14026927 -0.00108954 -0.00438545 0.00301591
N 16.11936161 4.02050238 6.01155317 0.00027889 -0.00648556 -0.00602859
N 16.79780831 8.70611559 8.18076976 0.00748408 -0.00026879 0.00030923
N 18.13493975 0.64259590 3.55337175 -0.00179017 -0.00286619 0.00102135
N 16.20917789 3.50746542 1.53476880 -0.00079646 -0.00276773 -0.00169951
N 15.03594537 6.01454371 5.84860302 -0.00565607 -0.00156041 -0.00000548
N 18.23664754 1.20200389 7.99231629 -0.00259743 0.00487507 -0.00175301
N 16.87518494 8.32354698 3.21415207 0.00279017 0.00225682 -0.00498083
N 15.33817407 5.62383676 10.39120294 0.00427004 0.00385522 -0.00246513
N 15.83136628 4.05928789 14.79581251 -0.00490979 0.00507090 0.00135137
N 17.20978575 9.15395671 17.01110315 0.00066332 0.00253778 -0.00072147
N 18.46947928 0.74703063 12.51727022 -0.00054491 -0.00656898 0.00146331
N 16.24390100 3.53072952 10.57816465 -0.00649606 0.00912956 0.00335386
N 15.00227350 6.19504327 15.12224300 -0.00182272 -0.00034220 -0.00409136
N 18.16363955 1.45768123 16.94708542 0.00145552 -0.00222194 0.00273895
N 16.88348339 8.53020074 12.24388199 -0.00059588 0.00587140 0.00272243
N 15.73139479 5.85930924 19.13406390 -0.00077258 -0.00712058 0.00607643
N 16.44737163 4.44924847 23.85102072 0.00033145 -0.00541841 -0.00385441
N 17.06301435 8.86935663 26.37756047 -0.00199478 -0.00618884 0.00117449
N 18.14307613 0.54904827 22.16167350 -0.00261260 -0.00556291 -0.00294618
N 16.09487865 3.70950700 19.69779263 0.00406424 -0.00199159 -0.00213539
N 15.10386527 6.30154953 24.09020132 -0.00811583 -0.00394120 -0.00727251
N 18.35103267 1.32980275 26.23513413 0.00150866 0.00116695 0.00550301
N 17.02416414 8.77180028 21.53459360 0.00158613 0.00098046 -0.00343075
N 15.22412326 15.22570378 1.10351891 0.00192923 0.00501447 0.00439916
N 16.40027037 13.87777752 5.66970792 -0.00515832 0.00208742 -0.00427798
N 16.87810455 18.63251914 8.38128750 -0.00295214 0.00062582 -0.00285781
N 17.89190806 10.34990917 3.57597991 -0.00335808 0.00176258 0.00846016
N 16.12709109 13.12714562 1.52454760 -0.00071259 -0.00248062 0.00143652
N 15.11820011 15.80209752 6.25311438 -0.00191043 -0.00362501 0.00070028
N 18.11690504 10.53024858 7.47168862 -0.00216078 -0.00495853 0.00125300
N 16.97247528 18.12787560 3.37712872 -0.00141866 -0.00494201 0.00852438
N 14.89396069 15.23774046 10.02993953 -0.00578364 0.00338772 0.00387040
N 16.11508645 14.12795625 14.65414961 -0.00412996 -0.00091464 0.00082285
N 16.65770629 18.40298908 17.64446217 -0.00089345 0.00337353 0.00427275
N 18.38242868 10.27876585 12.40508640 -0.00017201 0.00547779 -0.00192079
N 16.15858836 13.34635401 10.41214212 -0.00277033 -0.00420974 -0.00616709
N 14.72834636 15.83564130 15.21704986 0.00299979 -0.00341857 -0.00722696
N 18.13100092 11.26487098 16.70874039 0.00262697 0.00431788 0.00039303
N 16.92794659 18.04770199 12.60684605 -0.00304703 -0.00306214 0.00801822
N 15.18054170 15.22972887 19.17865139 0.00176020 0.00863389 -0.00255053
N 16.17632563 13.75651721 23.98792514 -0.00074965 0.00243411 -0.00104004
N 16.46545973 18.46219801 27.03966696 0.00326419 -0.00271057 0.00606184
N 18.65451008 10.38385347 21.57257129 -0.00104912 0.00062567 -0.00803093
N 16.19401834 13.24787221 19.88674747 -0.00166466 0.00169011 -0.00116890
N 14.93617839 15.58420692 24.52249968 -0.00148569 -0.00044273 0.00248869
N 18.23138485 10.92317279 25.92894267 -0.00239960 -0.00281488 0.00085822
N 17.19910580 18.49091958 21.61201012 -0.00912428 -0.00052107 -0.00044295
N 14.91800359 24.71577118 1.20311400 -0.00117665 0.00120934 -0.00200894
N 16.07742202 23.21607149 5.80318289 -0.00057043 0.00070494 -0.00462565
N 16.99925339 28.12250816 8.27411431 0.00405484 -0.00132695 -0.00496051
N 18.14566651 20.03303292 3.86889062 -0.00010326 0.00208391 0.00147474
N 15.79820916 22.64821765 1.80296245 0.00058628 0.00134249 -0.00249434
N 14.98312272 25.16758442 6.07177441 0.00025781 -0.00342846 0.00340907
N 17.94139155 20.55657723 7.89729212 -0.00217861 0.00447788 -0.00199422
N 16.99901591 27.55582348 3.12784634 -0.00141084 0.00261316 -0.00686715
N 14.82799107 24.81305685 10.21083430 0.00146012 -0.00086685 -0.00688657
N 16.40748577 23.40690878 14.86936435 0.00570442 -0.00274240 -0.00119505
N 17.14975090 28.21970158 17.15900965 0.00489139 0.00151087 0.00761088
N 18.09353082 20.03706817 13.27353166 -0.00304577 -0.00529892 -0.00037013
N 15.93309303 22.91902878 10.75079627 0.00816958 -0.00046674 0.00377773
N 15.17777739 25.39351953 15.02564945 0.00022626 -0.00146303 -0.00270526
N 17.78679982 20.22338116 16.98813467 0.00178324 0.00906680 0.00105746
N 17.10696193 27.74445211 12.32500252 -0.00080714 0.00633715 0.00117287
N 14.64623878 24.75790405 19.58539581 -0.00159001 0.00416041 0.00780235
N 16.35537629 23.40611593 24.52320941 0.00116516 -0.00030107 0.00493369
N 17.01224909 28.33110758 26.26699930 -0.00640366 -0.00582318 0.00404248
N 18.28271157 20.38311331 22.35091337 -0.00300164 -0.00475759 0.00967210
N 16.03956762 22.78599705 19.64929784 -0.00058720 -0.00129536 -0.00196778
N 15.04783437 25.26352497 24.67833801 -0.00385014 -0.00070602 -0.00376684
N 17.63701371 20.39435232 26.28115282 -0.00147712 -0.00038794 -0.00410163
N 16.95846107 27.43764631 21.59821704 0.00896337 0.00516243 -0.00537998
N 18.74102591 5.76849254 1.17727228 -0.00136129 0.00986642 0.00356584
N 19.91731795 4.08156386 5.60758152 0.00166045 -0.00047714 -0.00583403
N 20.51038864 9.12812184 7.90645755 -0.00229933 -0.00080684 -0.00076771
N 21.73934961 0.80645309 3.48578967 0.00143238 -0.00184232 0.00314528
N 20.02005058 3.90013152 1.68674289 0.00307916 0.00041827 0.00309927
N 18.78047213 6.12386268 6.01869668 0.00453604 0.00303347 -0.00180162
N 21.67968013 1.30885336 7.69568458 0.00771528 0.00868758 0.00247016
N 20.60474735 8.21913024 3.05042018 -0.00218455 0.00193292 0.00892347
N 18.70693130 5.38670291 10.33571449 0.00264491 -0.00617153 -0.00781504
N 20.17898429 4.18017995 15.05095009 0.00036966 0.00438089 -0.00018418
N 21.04129776 8.70992733 17.03839258 -0.00182677 0.00449672 -0.00601380
N 21.95237607 0.50817369 12.82378454 -0.00356277 0.00058160 0.00308825
N 19.88712046 3.39802953 10.46007950 -0.00101553 0.00165651 0.00450492
N 18.98447504 6.17360152 15.29680255 -0.00727583 -0.00055056 -0.00368210
N 21.74556222 1.02875761 17.02964666 0.00328655 0.00174099 0.00202840
N 20.48246310 8.38772927 12.23689698 0.00048973 -0.00006097 -0.00129720
N 18.83067375 5.54257712 19.72009678 0.00013773 0.00648131 -0.00728364
N 20.03254238 4.21726618 24.25937640 -0.00534849 0.00474267 0.00411160
N 20.76753080 8.99313311 25.92415726 -0.00040832 0.00001678 -0.00636790
N 21.90477155 0.68932168 21.71909121 -0.00114880 0.00464915 -0.00028121
N 19.81482092 3.47538060 20.03891511 -0.00169119 0.00350947 -0.00473303
N 18.86657404 6.22900083 24.51490370 0.00248847 -0.00184603 -0.00072077
N 21.94019393 1.17736873 25.88369094 0.00129054 -0.00276879 0.00196091
N 20.83664055 8.31013076 21.45819788 0.00636875 -0.00135599 0.00262189
N 18.62072426 15.11054537 0.88763418 -0.00160312 0.00014042 -0.00393463
N 19.53727043 13.55144638 5.51199084 0.00576403 -0.00714273 -0.00122143
N 20.28122898 18.64904289 7.89200100 0.00310994 -0.00509527 0.00147618
N 21.59905149 10.23035552 3.30899906 0.00635011 0.00388129 -0.00228828
N 19.69447881 13.10183140 1.17228581 0.00422433 -0.00082279 -0.00336292
N 18.64206476 15.57337466 6.06621843 0.00029634 -0.00428116 0.00124432
N 21.55862442 11.16975274 7.50126799 -0.00040190 -0.00512311 -0.00232880
N 20.52905791 18.32259927 2.85081152 0.00338981 -0.00408151 -0.00329705
N 18.47678783 15.26040306 10.53524980 -0.00308258 -0.00265277 0.00310469
N 20.20619589 13.77620754 14.60382340 -0.00339396 -0.00731391 0.00081068
N 20.43321266 18.15721127 17.29618852 0.00219988 -0.00207955 0.00236850
N 21.89923698 10.25519488 12.27950513 -0.00655899 -0.00472076 -0.00116437
N 19.92167663 13.26372568 10.59872247 0.00550989 0.00591490 -0.00438771
N 18.83016560 15.56922375 15.32330268 -0.00026535 -0.00247298 -0.00099785
N 21.92550115 10.89725187 16.91889834 -0.00255467 -0.00476669 -0.00358623
N 20.33815672 17.97660188 12.19699781 -0.00100721 0.00460661 -0.00040383
N 18.83538288 15.33619856 19.14548583 0.00088392 0.00657576 0.00194333
N 19.56703684 13.78765468 23.72584831 0.00365029 0.00092376 0.00539668
N 20.16491106 18.63741684 26.38898217 -0.00055482 0.00209482 0.00221429
N 21.86001121 10.33951733 21.70017347 -0.00528275 0.00362508 0.00468283
N 19.93229443 13.37202944 19.69799749 -0.00639477 -0.00558850 0.00227571
N 18.58005093 15.75570973 24.39116806 0.00350254 0.00588657 -0.00180625
N 21.67315715 11.03857435 25.68179005 -0.00328813 -0.00208580 0.00427773
N 20.49139610 18.55756731 21.23045650 -0.00401073 0.00541507 -0.00545079
N 18.56225297 24.76222166 1.27355660 0.00408078 0.00616852 -0.00335763
N 19.30914382 23.32305623 5.74002465 -0.00412495 -0.00036054 -0.00380352
N 20.39934670 28.33792169 8.05447956 0.00007749 -0.00259198 0.00054774
N 21.86080297 20.10754782 3.38663661 0.00114682 0.00032388 -0.00031951
N 19.57901479 22.67727106 1.49169873 0.00436657 0.00614448 0.00045363
N 18.67910031 25.51898148 6.38768763 -0.00473532 -0.00007633 0.00656040