1728
Time=47000.00000003 pbc="T T T" Lattice="21.95100120 0.00000000 0.00000000 0.00000000 29.02930725 0.00000000 0.00000000 0.00000000 27.38869879" energy=-10390.19089735 virial="16.04523245 -5.30358663 3.78622884 -5.30358663 -16.68787574 -6.32313385 3.78622884 -6.32313385 -24.94186409" stress="0.00325310 -0.00037647 0.00023185 -0.00037647 0.00157116 -0.00037817 0.00023185 -0.00037817 0.00125037" Properties=species:S:1:pos:R:3:vel:R:3
N 0.13381305 5.82178567 0.99131686 -0.00302350 -0.00301601 0.00140755
N 1.39113739 3.92901813 5.69378714 0.00657984 -0.00194791 0.00279928
N 2.24500067 8.83950084 8.09181352 -0.00024372 -0.00274022 -0.00059362
N 3.28068353 0.54784364 3.55150648 -0.00846706 -0.00283226 0.00106412
N 1.33087957 3.93795989 1.71896413 -0.00449677 -0.00118808 -0.00268232
N 0.08175061 5.85027010 6.06338394 0.00075050 0.00037886 -0.00191446
N 3.30085237 1.24431925 7.91994021 0.00236485 0.00400042 0.00515565
N 1.98800697 8.32463816 2.99240215 -0.00608394 0.00283680 -0.00671565
N 0.19278114 5.66669166 10.20728526 0.00548294 0.00065762 -0.00177186
N 1.09851119 3.88797651 14.57447834 -0.00260113 0.00465188 0.00146846
N 1.81364355 9.16779316 16.91697740 0.00597298 0.00643595 0.00143435
N 3.10649364 0.78953719 12.79412142 -0.00177905 0.00530828 -0.00232595
N 1.40293588 3.62120728 10.54651705 0.00012271 0.00466447 0.00229536
N 0.32271970 6.06463003 15.03026930 0.00363585 0.00803747 0.00403499
N 3.18705257 1.43813983 16.75251623 0.00319650 -0.00761350 0.00379645
N 2.17228005 8.63137028 12.09962761 0.00786701 -0.00224979 0.00105153
N 0.05645864 5.44318712 19.28622888 0.00188404 -0.00684624 0.00339463
N 1.22246333 3.97923464 23.85702181 -0.00058392 -0.00128146 0.00322131
N 2.36402841 8.96205127 26.03856013 -0.00092563 0.00188492 0.00034742
N 3.46182324 0.72900207 21.73903484 0.00134125 0.00127543 -0.00021594
N 1.19843079 3.44358700 19.82870898 -0.00167807 0.00546021 0.00143461
N 0.45779572 6.05999471 24.24902596 -0.00414052 -0.00935500 0.00432582
N 3.15376642 1.21093763 26.42151145 -0.00298266 -0.00283361 -0.00048390
N 2.10307110 8.35389458 21.20883420 0.00553744 0.00009436 -0.00555925
N 0.42038278 15.10383529 1.01522482 0.00445367 0.00539999 0.00279879
N 1.76793182 13.90313613 5.78623151 -0.00065975 0.00054380 0.00364361
N 2.25623046 18.87861727 7.39513025 0.00651325 -0.00399530 -0.00207671
N 3.08263831 10.25115899 3.40432338 -0.00246999 -0.00006812 -0.00769527
N 1.46850901 13.12076306 1.37001926 -0.00560259 0.00029991 0.00793290
N 0.62592365 15.95138989 5.72790904 -0.00211096 -0.00054881 -0.00447431
N 2.98634433 10.98227010 7.64843111 0.00261797 0.00164695 -0.00248806
N 2.48773378 18.30310622 2.76847287 0.00335916 -0.00071825 0.00044083
N 21.86150341 15.13325954 10.26349689 0.00071454 0.00010009 -0.00043971
N 1.48188672 13.75626022 14.50469805 0.00242391 0.00443059 0.00318135
N 2.15507258 18.92582061 16.70321279 -0.00039369 -0.00100988 -0.00631761
N 3.08803620 10.65432714 12.83191474 0.00608759 -0.00647861 -0.00233530
N 1.53780047 13.40271680 10.64826793 -0.00410408 0.00763542 -0.00251605
N 0.33486668 15.58689534 15.11827807 -0.00183420 0.00360502 0.00820893
N 3.26418575 10.98376224 16.79962915 0.00458766 -0.00389069 -0.00788772
N 1.90738375 18.35609662 12.08736758 0.00390771 -0.00292968 0.00430987
N 0.37573543 15.17925613 19.21324710 0.00066588 0.00540517 -0.00347701
N 2.00889994 13.54305791 23.54077687 -0.00277711 0.00133961 -0.00531177
N 2.33221462 18.17409205 26.17509767 -0.00390381 -0.00603713 -0.00552727
N 3.28082143 10.37140504 21.49836936 0.00433910 -0.00287002 -0.00547143
N 1.62532716 13.17113264 19.64927790 -0.00106992 -0.00320971 -0.00554485
N 0.77076170 15.39552186 24.20332120 -0.00362190 -0.00291587 0.00697753
N 3.44811376 10.97499599 25.98519146 -0.00678976 0.00129413 -0.00183973
N 2.23298944 18.03778933 21.21306009 -0.00170061 0.00216595 0.00650655
N 0.36297260 24.59218521 1.30509281 0.00447344 -0.01068031 0.00413883
N 1.30506540 23.41845813 5.85139074 -0.00121520 0.00064970 0.00377397
N 1.98416392 28.38971426 8.27525225 -0.00485088 -0.00149277 0.00005636
N 3.82710353 20.17796466 2.94900561 -0.00152235 0.00077312 0.00165400
N 1.36976020 22.57336805 1.55243234 0.00451234 -0.00107280 -0.00019218
N 0.47620924 25.59409652 5.92304274 0.00714279 0.00093734 0.00084029
N 3.25010801 20.96034898 7.13279670 0.00517297 -0.00106372 0.00431689
N 2.27842015 27.56132653 3.36324055 -0.00080508 -0.00212820 -0.00101171
N 0.19707308 25.04253489 9.90747500 -0.00008148 -0.00695520 0.00115249
N 1.12228641 23.37118760 14.73557061 0.00214295 -0.00271637 0.00203937
N 1.86897132 28.56660863 17.14874824 0.00292437 0.00196542 -0.00090346
N 3.48101923 20.07154277 11.90851181 -0.00091548 -0.00165637 0.00168958
N 1.20047157 22.97573304 10.47868283 0.00435582 -0.00485384 -0.00027833
N 21.86765923 25.38972672 15.16616797 0.00058981 -0.00575391 -0.00359933
N 3.44472968 20.86281298 16.80805304 -0.00749503 -0.00264805 0.00220267
N 2.05342384 27.70099729 12.53853890 0.00455805 -0.00560713 0.00488204
N 0.30155259 24.68424130 19.76830179 0.00572209 -0.00134361 0.00270902
N 1.37946643 23.55972176 24.10388268 -0.00875290 -0.00344752 -0.00075701
N 1.66716807 28.36601951 26.48154855 -0.00680570 0.00137775 -0.00063975
N 3.41096601 20.04735040 21.41484845 0.00090344 -0.00165508 -0.00355259
N 1.70828165 22.75779893 19.76111095 0.00356505 -0.00786491 -0.00269010
N 0.08677580 25.43201638 24.61964359 -0.00414725 0.00153126 0.00376553
N 2.79966891 20.38587499 25.37844957 0.00391848 -0.00171064 -0.00531310
N 2.19545460 27.95883745 21.34164041 -0.00380146 -0.00759581 -0.00330453
N 3.84391696 5.68971177 0.97195902 0.00204445 0.00276228 -0.00463215
N 5.08780875 4.24608204 5.62166920 -0.00367859 0.00120475 0.00120005
N 5.60441279 9.23621245 7.39959218 -0.00072049 -0.00117157 -0.00352216
N 6.77272833 1.12867690 3.50024567 -0.00088764 -0.00404950 -0.00052314
N 5.01829360 3.76665983 1.36731827 0.00119831 -0.00390618 -0.00105457
N 3.79916799 6.13026197 5.95138362 -0.00840753 0.00593228 0.00159978
N 6.65374016 1.23224783 7.87229511 0.00027007 0.00053685 -0.00008381
N 5.82138467 8.37219116 3.38327234 0.00235394 0.00385522 -0.00070188
N 3.71207821 5.75663307 9.97353538 -0.00054411 -0.00016684 -0.00722384
N 5.24275740 4.13409319 14.83872308 0.00255088 0.00131993 0.00187702
N 5.52045635 9.11949857 16.70352765 0.00381305 0.00489640 0.00324006
N 7.32304859 0.70094968 12.63776362 -0.00158300 0.00203032 0.00423281
N 4.98634768 3.91645628 10.69654960 0.00012874 -0.00545647 -0.00164966
N 4.09860061 6.11036197 15.34328854 0.00532909 -0.00298505 -0.00298698
N 6.91698090 1.05454097 16.94380104 -0.00142295 -0.00168168 -0.00088542
N 5.79178356 8.36830002 12.06084394 0.00223693 -0.00413417 0.00136814
N 3.76102317 5.38688718 19.32712533 0.00310325 0.00179214 0.00218216
N 5.02955989 4.00281294 23.76346863 0.00254758 -0.00603984 0.00004896
N 5.90561476 9.01176646 26.09963911 -0.00220047 0.00690634 -0.00475838
N 6.95432813 0.64119581 21.70515513 -0.00218888 0.00038436 0.00540919
N 5.08016653 3.56402522 19.59466894 -0.00351295 0.00357266 -0.00005873
N 3.63682233 5.72230739 24.32095252 -0.00424965 -0.00210402 0.00228352
N 6.72895816 1.22471577 26.17771188 0.00147355 0.00144760 0.00293263
N 5.67924347 8.25813116 21.13333186 0.00610556 -0.00213324 -0.00080365
N 3.90493718 14.94411850 1.20321427 0.00113385 0.00064863 0.00138229
N 5.08361672 13.80520098 5.47290434 0.00071907 -0.00397457 0.00114445
N 6.09475423 19.09301227 7.45586524 0.00272945 0.00494150 -0.00251358
N 7.18726571 10.14456304 3.59419730 0.00099059 -0.00259501 0.00186824
N 5.26946696 13.08355901 1.63571001 0.00524675 -0.00089426 -0.00455451
N 4.14492795 15.86496697 5.56355984 0.00354619 -0.00343819 0.00133300
N 6.82402374 11.17552833 7.50697632 -0.00135625 -0.00157659 -0.00006951
N 6.07784736 18.12179134 2.89223626 0.00118924 0.00006928 -0.00460020
N 3.87952326 15.31109608 10.27427657 -0.00021451 -0.00205817 0.00417298
N 5.40566629 13.78260938 14.86704468 0.00414097 0.00387615 -0.00696444
N 5.62633031 19.02646815 17.16250561 -0.00339477 0.00160520 0.00250609
N 6.77117053 10.43853612 12.27741738 0.00296233 -0.00118676 0.00071314
N 5.27567986 13.49937574 10.55006947 -0.00240850 0.00444208 -0.00280536
N 4.07631981 15.71026451 15.08151583 0.00642051 -0.00423019 -0.00289145
N 6.79488916 11.08267705 16.46675764 0.00302391 -0.00062654 0.00251716
N 5.78827547 18.11743751 12.08556568 0.00290892 0.00006889 0.00563047
N 4.08491503 15.32638148 19.39399418 -0.00510896 0.00029706 0.00093000
N 5.22872702 13.76851084 24.00631741 -0.00577646 0.00368927 0.00039000
N 5.75514424 18.60413643 26.14873959 -0.00309633 -0.00351204 0.00623415
N 6.86465226 10.17846289 21.31734646 -0.00002334 0.00208145 0.00098631
N 5.03334555 13.25570611 19.61126566 -0.00490157 -0.00843439 -0.00746853
N 4.15121457 15.76265989 24.01358489 -0.00024981 -0.00733447 -0.00253092
N 7.15960678 10.92000339 26.18217176 0.00220762 -0.00337625 0.00053794
N 5.83149689 18.09131559 21.17773692 0.01107339 0.00351140 0.00077711
N 3.70124314 24.80845859 0.86641064 0.00511833 -0.00481173 -0.00198841
N 5.38980258 23.59880285 5.38825720 -0.00206271 0.00087546 -0.00285684
N 5.82513478 28.05410488 8.07123976 0.00057540 -0.00033376 -0.00847851
N 7.55476218 19.93567943 3.19541105 -0.00808468 -0.00148680 -0.00062343
N 5.17326186 23.01266132 0.56210389 0.00320786 -0.00433396 0.00293877
N 4.12124361 25.38491246 5.90672112 0.00085760 -0.00307915 0.00225796
N 7.03372945 21.21730606 7.38689755 -0.00113220 0.00458645 -0.00454887
N 5.92863191 27.93100642 3.28167692 0.00216284 0.00460247 -0.00153582
N 3.88148566 25.08821317 10.19757537 -0.00696565 0.00714238 0.00648292
N 5.21303605 23.70663836 14.85366838 -0.00700284 0.00110978 -0.00340377
N 5.53334230 28.26004450 17.16457626 -0.00131080 0.00521065 0.00265681
N 6.60965299 20.30269982 12.34004193 -0.00034164 -0.00351655 0.00077870
N 5.05102126 23.17014625 10.53763133 0.00094285 -0.00470298 0.00071754
N 3.73577139 25.27781318 15.47644964 -0.00221264 0.00349238 0.00543498
N 6.92057873 20.77340700 16.56594815 -0.00346804 -0.00224846 -0.00397142
N 6.13523565 27.74542491 12.46533133 -0.00150390 0.00332933 0.00302614
N 4.07142935 24.94387892 19.38893358 -0.00074785 -0.00420431 0.00467650
N 5.43785182 23.39345491 24.07341809 -0.00296614 0.00262299 0.00093321
N 5.82785484 28.10207462 26.26114802 0.00009971 -0.00030858 -0.00088520
N 6.89102903 20.01301487 21.65142082 -0.00128670 0.00854799 -0.00577987
N 5.20980103 23.03449537 19.75623615 -0.00466249 0.00931793 -0.00206329
N 3.95656805 25.18484104 24.29250292 0.00627035 -0.00598943 0.00229865
N 7.13716690 20.40601336 25.60391151 0.00479980 -0.00354845 0.00312936
N 6.18520046 27.54533530 21.38642703 0.00128635 0.00687577 -0.00721512
N 7.40438623 5.23301574 1.35846203 -0.00413438 0.00009272 0.00498089
N 8.71581935 4.14828109 5.98456008 -0.00242090 -0.00008725 -0.00165467
N 9.28406721 9.20654457 8.01696480 -0.00335849 -0.00245955 -0.00050876
N 10.89369906 0.68903171 3.64650360 -0.00046595 0.00500330 0.00800078
N 8.94008200 3.48382601 1.71737446 -0.00226549 0.00123603 0.00238094
N 7.51927060 6.07682411 6.38949992 -0.00339593 0.00310586 0.00700485
N 10.66920687 1.15413107 8.23627192 0.00113041 0.00372668 0.00138720
N 9.66976596 8.21951591 2.95823985 -0.00512176 -0.00423226 -0.00274147
N 7.50220483 5.33509808 10.64996199 0.00291233 -0.00489458 0.00429785
N 9.02597070 4.25310844 15.19340294 -0.00315799 0.00214462 0.00340351
N 9.33841381 9.08156777 17.21260722 0.00304237 -0.00189092 -0.00530057
N 11.08199747 0.55188271 12.81559501 -0.00249602 -0.00553995 0.00032916
N 8.93692008 3.47189231 10.64738820 0.00475672 0.00114957 -0.00439002
N 7.59904917 6.16244081 15.43917821 -0.00191978 -0.00117379 0.00064960
N 10.44279111 1.37617778 17.12978575 -0.00065579 0.00200073 -0.00243368
N 9.59094401 8.47350795 12.38536256 0.00082630 0.00714826 -0.00424597
N 7.35161388 5.39849212 19.57977069 0.00338721 0.00178821 0.00288576
N 8.88683415 4.26494224 24.21876502 -0.00091728 -0.00146194 0.00291093
N 9.52283734 9.20280919 25.84991858 0.00079478 0.00646994 -0.00124619
N 10.60928015 0.52826756 22.01718216 -0.00057609 -0.00170777 0.00143106
N 8.70033267 3.50241765 19.84338950 -0.00278192 -0.00318426 -0.00478353
N 7.75261718 6.29939542 24.00974625 -0.00325726 -0.00016758 -0.00541370
N 10.58534621 1.11565786 25.97903908 -0.00116203 -0.00465044 0.00261558
N 9.47412347 8.38078691 21.46703091 0.00846637 0.00035610 0.00470087
N 7.82102112 14.86981943 1.16767493 -0.00261217 0.00472004 -0.00046919
N 9.19387193 14.02987971 5.82505770 -0.00339447 -0.00464436 0.00106585
N 9.50020234 18.75486513 7.95663188 -0.00159604 -0.00255972 0.00202937
N 10.86642990 10.17964981 3.13218136 -0.00468375 -0.00068501 -0.00529530
N 8.96463701 12.88685493 1.39041498 0.00357295 0.00283270 -0.00351307
N 7.52961894 15.67654746 6.14490426 0.00122081 0.00216849 -0.00180137
N 10.58727196 11.08726748 7.54688932 -0.00793925 0.00041086 0.00711577
N 9.89796192 17.89825722 2.99670426 0.00195571 -0.00503279 0.00212866
N 7.91176188 15.43918048 10.38570581 -0.00000356 0.00170570 0.00124438
N 8.96389609 14.13035982 15.21413358 -0.00392407 -0.00008734 -0.00649092
N 9.43709057 19.08031895 17.10380748 0.00528751 -0.00326825 0.00248002
N 10.63343195 10.54789920 12.61482552 -0.00585877 0.00090872 -0.00226336
N 8.64481735 13.20676842 10.60765994 -0.00344028 -0.00021332 -0.00586212
N 7.70023369 15.98931575 15.28504341 -0.00032040 -0.00216389 -0.00489936
N 10.53442675 11.00710302 16.90360022 -0.00578747 0.00106649 0.00251134
N 9.38524931 18.32386597 12.66316977 0.00322380 -0.00048421 0.00170308
N 7.70760500 15.51882313 19.51852582 -0.00080928 -0.00880360 -0.00411251
N 9.10118791 13.84167619 24.01347462 -0.00199409 0.00510402 -0.00542746
N 9.41379959 18.65358519 26.30487336 -0.00296261 -0.00522751 0.00370071
N 10.85192653 10.17044389 21.41492823 -0.00128836 -0.00563920 0.00455279
N 8.60946261 13.46345264 19.62787926 0.00461534 -0.00596178 -0.00196087
N 7.93658281 15.79794936 24.42073999 0.00525509 0.00141634 -0.00025400
N 11.07767763 10.90498730 25.64043018 -0.00679469 0.00783769 0.00169221
N 9.70043638 18.34784990 21.66877882 0.00442509 -0.00694019 0.00267171
N 7.67275813 25.04778635 1.29514240 -0.00333928 0.00412769 -0.00178126
N 9.02628203 23.80329365 5.76675636 0.00414151 -0.00434394 0.00279138
N 9.58671093 28.16848933 8.49015439 -0.00747355 0.00503386 0.00217229
N 11.03814443 19.89249583 3.31143442 0.00364961 -0.00083348 0.00144286
N 8.75006470 23.04019430 1.47222630 -0.00356823 -0.00818141 -0.00110199
N 8.04445303 25.81123720 6.21902666 -0.00099844 -0.00224980 0.00277741
N 10.72481819 20.75323242 7.88503597 -0.00358004 -0.00220279 0.00198597
N 9.88617075 27.80164060 2.92211764 0.00210416 -0.00124882 -0.00236089
N 7.80777985 25.02013445 10.26425365 -0.00240729 -0.00057692 0.00026200
N 8.73429605 23.36770887 14.85013386 -0.00413929 0.00256928 0.00100892
N 9.81817267 28.21539018 17.34268696 -0.00374460 0.00332368 0.00319617
N 10.63154540 20.26116787 12.60867257 0.00009320 0.00557671 0.00536390
N 8.98204039 23.06988053 10.88682289 0.00118834 -0.00117976 -0.00264374
N 7.57382682 25.33225016 15.25134630 -0.00107788 0.00011358 -0.00567047
N 10.77612628 21.00854898 17.05886988 -0.00454489 -0.00939140 0.00750368
N 9.53209706 27.94742487 12.39711742 0.00361505 -0.00296397 -0.00324633
N 7.60554656 24.50168222 19.70281746 -0.00342316 0.00127895 0.00512707
N 9.08579470 23.55587269 24.00310260 0.00335211 -0.00578647 0.00109468
N 9.42868680 28.14869908 26.25613899 -0.00516683 0.00153190 0.00071541
N 11.01424175 20.22365046 21.86946500 -0.00048045 0.00433979 -0.00523854
N 9.01301149 22.76049970 20.09186733 -0.00144180 -0.00443173 -0.00245227
N 7.95203073 25.39478951 24.55834221 0.00380793 0.00021813 0.00396468
N 10.56750540 20.70416714 26.11665915 -0.00211070 -0.00093032 0.00016014
N 9.45441638 27.53609316 21.53119610 0.00225001 -0.00103485 0.00373069
N 11.15440722 5.40962235 1.07148541 -0.00192224 0.00026519 -0.00162177
N 12.35572457 4.26989314 5.91692078 0.00344889 0.00430240 -0.00769898
N 13.07979937 9.21878845 7.88561151 -0.00203922 -0.00621897 -0.00165868
N 14.63845872 0.56221208 3.38997465 0.00354297 0.00172893 -0.00926468
N 12.35186542 3.50129217 1.41402585 0.00827745 -0.00262135 0.00057936
N 11.22315944 6.28361057 6.15783009 0.00008172 0.00271345 -0.00438636
N 14.32155865 1.22504420 7.68889386 -0.00160948 -0.00173520 0.00064768
N 13.34827696 8.26898922 3.09665175 -0.00208178 0.00164714 -0.00505214
N 11.20577700 5.47692742 10.47635565 0.00127993 0.00252007 0.00205714
N 12.48672637 4.50175893 14.93119211 -0.00455018 0.00226550 0.00577100
N 13.41581380 9.04111303 16.88146413 -0.00404906 -0.00120025 -0.00315201
N 14.73789188 0.88388132 12.48254495 0.00188564 -0.00102054 0.00019558
N 12.48107017 3.62181756 10.98615622 -0.00262454 0.00341840 0.00468284
N 11.28227848 6.41655873 15.28112216 -0.00506323 -0.00533151 -0.00546402
N 14.11108689 1.52481092 16.91002233 0.00106499 0.00277016 0.00208104
N 13.43508242 8.30580780 12.30083506 -0.00385628 -0.00076980 -0.00270651
N 11.22067799 5.26538458 19.33307394 0.00417648 0.00112764 -0.00465563
N 12.72383986 3.82785566 23.92299204 0.00005288 0.00431379 0.00427516
N 13.13453190 8.80383407 26.22752089 -0.00365739 0.00499258 0.00071293
N 14.35359834 0.75858860 21.67643898 -0.00091974 -0.00236018 -0.00077400
N 12.61416347 3.51221072 19.68428435 0.00378456 0.00540194 -0.00576295
N 11.56748886 5.76035161 24.13010787 0.00751798 0.00547870 0.00471401
N 14.28338441 1.26550960 26.05690145 0.00067714 0.00104979 0.00291056
N 13.28628658 8.45214181 21.20382549 0.00971860 0.00131918 0.00014452
N 11.44252017 15.21440208 0.84764346 -0.00011245 -0.00118908 -0.00047671
N 12.60044826 14.03263056 5.57050108 0.00626342 -0.00203023 -0.00380327
N 12.98895666 18.67817800 8.13409048 0.00393537 0.00211060 -0.00742702
N 14.16140034 10.39759290 3.50693749 0.00260809 0.00065843 -0.00027172
N 12.64813888 13.22987885 1.26394079 -0.00004941 0.00209780 -0.00112443
N 11.47942225 16.02029698 5.65120519 0.00638884 0.00293475 -0.00478017
N 14.22612581 11.19725277 7.63967841 -0.00650503 0.00588963 0.00470338
N 13.59462778 17.77883434 3.24757882 0.00195553 -0.00295690 -0.00482824
N 10.89346199 15.09273721 10.45822724 -0.00228117 0.00359173 -0.00118466
N 12.46088087 13.95357968 14.96790568 -0.00211761 -0.00343636 -0.00307828
N 12.95269999 18.88887428 17.08966506 -0.00469186 -0.00407119 -0.00171207
N 14.50564310 10.32338957 12.46044165 -0.00071944 -0.00398504 -0.00647683
N 12.26756290 13.15150954 10.84644904 -0.00064758 -0.00455861 -0.00190168
N 11.31295510 15.96290225 15.16055440 -0.00533249 -0.00438332 -0.00202401
N 14.16145277 11.19159094 16.45622163 -0.00289179 0.00223634 -0.00494494
N 12.74003609 18.07814393 12.35975763 0.00168817 -0.00236434 0.00141901
N 10.79972059 15.36539161 19.62499528 -0.00188852 -0.00160863 -0.00904644
N 13.11593244 13.79569203 23.80910925 -0.00257868 -0.00157795 0.00147811
N 13.47645007 18.47914894 26.06570917 0.00555587 -0.00088408 0.00518313
N 14.43393053 10.41876410 21.32204326 0.00455227 0.00146185 -0.00056643
N 12.21437692 13.56918684 19.75151232 -0.00722478 0.00194277 0.00019542
N 12.08132651 15.69811934 24.69954367 0.00080591 0.00120969 0.00151007
N 14.41824261 10.56022050 25.62279608 0.00708715 -0.00641816 0.00278726
N 13.59065405 17.73862689 21.43318437 0.00024266 -0.00084608 0.00261219
N 11.62420700 25.00119960 1.48808079 -0.00089542 -0.00363742 0.00025784
N 12.68027251 23.51810896 5.98266900 0.00176249 -0.00167466 0.00000270
N 13.40003462 28.24271381 8.08329335 -0.00340838 0.00555753 0.00509935
N 14.50080962 19.81349327 3.67050253 -0.00058080 0.00073845 0.00236182
N 12.63541359 22.85012131 1.62551351 -0.00439583 0.00277300 -0.00194497
N 11.43120067 25.42505851 6.16993407 0.00247673 -0.00429035 -0.00209349
N 14.35219181 20.55745076 7.90193574 0.00441021 -0.00293376 -0.00026335
N 13.46864230 27.65553313 3.15713357 0.00348940 0.00295467 0.00239205
N 11.09109503 25.01979931 10.67573613 0.00002830 -0.00324339 0.00163286
N 12.57573314 23.55774260 14.77766630 0.00412830 0.00121238 -0.00219197
N 12.70202737 28.64884611 16.72179155 -0.00256087 0.00338859 -0.00262109
N 14.56105114 19.70814619 12.64128092 -0.00419141 -0.00262263 0.00484907
N 12.62989844 23.17824534 10.64750192 -0.00017352 0.00181574 -0.00034129
N 11.30733592 25.46858246 15.19989215 0.00092377 0.00339510 0.00141796
N 14.20760078 20.78798443 16.71733753 0.00285631 0.00406419 -0.00144825
N 13.48364441 27.98735765 12.56650976 0.00400071 0.00525982 0.00038816
N 11.18370099 24.84034124 19.83620464 0.00309861 -0.00306684 -0.00108586
N 12.77550387 23.57283984 24.25896600 0.00011412 0.00427495 0.00084980
N 12.95180055 28.36357183 26.22874479 -0.00438737 0.00120065 0.00318165
N 13.96464595 20.03525628 21.80182409 -0.00571070 0.00104835 -0.00132130
N 12.40297282 22.87765477 19.99672287 -0.00462528 -0.00162943 -0.00002687
N 11.29582649 25.33633300 24.18730555 -0.00416214 0.00168546 0.00188140
N 14.44158421 20.53751731 25.92591482 -0.00433621 0.00511002 -0.00106041
N 13.13253074 27.88554197 21.40931505 0.00291855 0.00001729 0.00835854
N 14.76962785 5.49835816 0.93810636 0.00228058 -0.00168625 -0.00031410
N 15.92707829 4.08196780 5.56198468 0.00057011 -0.00160406 -0.00156019
N 16.23270826 8.95465287 7.70985968 0.00072930 -0.00304382 0.00781004
N 18.28478157 0.26973952 3.21240338 -0.00518459 0.00296517 -0.00008087
N 16.00722125 3.73030558 1.65686980 0.00794040 -0.00217024 0.00525656
N 14.76238790 6.06500092 6.03787181 0.00002078 -0.00681851 0.00238481
N 17.88991420 1.31009798 7.34743829 0.00028252 0.00265226 -0.00547651
N 16.68303659 8.53859776 2.75052621 0.00655033 -0.00672767 -0.00410692
N 14.96235792 5.41694926 10.16526689 -0.00119354 -0.00693012 -0.00089968
N 16.02328042 4.05670945 14.82436731 -0.00233606 0.00047299 -0.00091126
N 16.59356950 9.25003072 16.98723428 0.00067670 0.00084324 -0.00705204
N 18.06250359 0.88664831 12.31874756 -0.00608230 -0.00232430 0.00019913
N 16.26398515 3.47833816 10.27605912 -0.00116781 -0.00446659 -0.00372300
N 14.98217597 6.07208442 15.13079454 0.00821723 -0.00205402 0.00196913
N 17.87381550 1.24085025 16.91964389 -0.00393660 -0.00136214 0.00202946
N 17.20512541 8.34809359 12.14759103 -0.00671392 -0.00580183 0.00226475
N 14.66557284 5.55757268 19.28118698 0.00081638 0.00003932 -0.00170437
N 16.06162989 3.93144090 23.85222613 0.00390405 -0.00236498 -0.00541231
N 17.00866634 8.66086429 26.22589738 0.00511078 -0.00408845 0.00191722
N 18.01713994 0.61605614 21.88835634 0.00266689 -0.00507047 0.00265256
N 15.85836948 3.57502106 19.84107087 -0.00168071 -0.00422743 -0.00452824
N 15.03714480 5.92785938 24.10127493 0.00009852 -0.00978807 0.00106737
N 18.04919077 0.98292615 26.08233765 0.00456250 0.00168346 -0.00033522
N 16.70363402 8.28023795 21.21117389 0.00247525 0.00385034 -0.00166045
N 15.00778775 15.08722622 0.86171023 0.00166863 -0.00248852 0.00185030
N 16.52471389 13.91932961 5.80922474 0.00120946 0.00529504 0.00307893
N 16.83983889 18.67422230 8.04749744 -0.00343141 -0.00282875 -0.00209500
N 18.06045232 10.39503210 3.25393207 0.00092601 0.00171698 0.00232609
N 16.24899553 13.07894755 1.16881944 0.00534955 -0.00007465 0.00345764
N 15.15952471 15.83875011 6.06059698 -0.00482159 -0.00427353 0.00328274
N 17.71090265 10.90969343 7.58587209 0.00864431 0.00152765 0.00027683
N 16.71465944 17.86899764 2.99952033 -0.00726734 0.00315790 -0.00086106
N 14.58912066 15.39300250 10.34278707 0.00672279 -0.00171507 0.00527367
N 16.30142135 13.87320421 14.71981580 -0.00109930 0.00050282 -0.00082732
N 16.63922384 18.82512539 17.53171778 0.00303576 -0.00078691 0.00539006
N 17.43651472 10.57064645 12.57068623 0.00459114 0.00255870 0.00145327
N 15.63554712 13.35768925 10.51330036 0.00780150 0.00429137 0.00003569
N 15.04803818 15.73871130 15.22966177 0.00221580 -0.00512105 -0.00034582
N 17.78621638 11.05390012 16.91891015 0.00188033 -0.00102265 -0.00156174
N 16.95274646 17.94801278 12.56733539 -0.00245330 -0.00146791 0.00012414
N 14.79785736 15.49558475 19.10010452 0.00114745 0.00155250 0.00157734
N 16.47891060 13.79603640 23.98124185 -0.00563196 0.00386386 -0.00632790
N 16.73939193 18.72558535 26.12913345 0.00111040 -0.00064563 -0.00504826
N 17.44347636 10.40195496 21.68957123 0.01130793 -0.00043594 0.00016919
N 16.01154368 13.60677632 19.58283683 -0.00148903 0.00077802 0.00316922
N 15.22017550 15.73660861 24.16404994 0.00704047 0.00356188 -0.00074064
N 17.97514608 10.75269577 25.85678781 0.00305129 -0.00567678 -0.00461525
N 17.05037945 17.91704540 21.65860467 -0.00821664 -0.00169232 -0.00639663
N 14.81242445 24.74745221 1.60340254 -0.00202389 0.00745824 -0.00524342
N 16.46273814 23.42370159 6.10516862 0.00336044 -0.00782554 0.00265998
N 16.53266558 28.43354710 7.71696931 -0.00034494 0.00077844 -0.00880672
N 18.14455505 19.68658547 3.57454942 0.00562218 -0.00543132 -0.00213660
N 15.94888194 22.77305575 1.40856981 0.00710738 -0.00434573 -0.00180546
N 15.12333883 25.28968154 6.25882393 0.00782473 0.00179890 -0.00103059
N 17.81983156 20.73325135 7.97517368 0.00455497 0.00530386 0.00405325
N 17.05038931 27.40089361 2.99722508 -0.00523240 0.00329655 0.00376070
N 14.96964164 24.92391243 10.56645199 0.00106366 -0.00356101 -0.00122492
N 16.39333065 23.42474449 15.18278038 0.00250353 -0.00002723 0.00330001
N 16.40819411 28.49948450 17.26348497 0.00125277 0.00258534 -0.00507371
N 17.89799523 19.98866651 12.71480589 0.00678510 0.00625686 0.00039005
N 16.10761516 22.96172344 10.89372296 -0.00246415 0.00069829 0.00142444
N 15.13031394 25.34168174 15.52583243 -0.00046195 0.00110010 -0.00090186
N 18.22807449 20.32668546 16.85895949 0.00135166 0.00419008 -0.00364925
N 16.96355968 27.89550560 12.12843312 -0.00816643 -0.00236663 -0.00900502
N 14.84301003 24.62338941 19.67253804 -0.00213586 -0.00149701 -0.00639797
N 15.78103119 23.56819309 23.84802153 -0.00399893 -0.00135131 0.00101348
N 16.48437231 28.26372690 26.37746608 -0.00348341 0.00453133 0.00149161
N 18.15683474 19.87615936 21.90552261 -0.00322063 -0.00225513 0.00288207
N 16.37192929 22.90124932 19.97468147 -0.00291241 0.00941607 0.00027079
N 15.03367567 25.75489886 24.04133536 0.00260932 -0.00364788 0.00341946
N 17.86452887 20.74711281 25.99895450 0.00101431 -0.00506543 0.00072903
N 17.10828751 27.50282328 21.15725053 -0.00181862 0.00682390 -0.00296623
N 18.48604171 5.42430260 1.18481346 -0.00222805 -0.00167938 0.00778980
N 19.60377844 4.27760605 5.86679825 0.00427080 -0.00257498 -0.00080235
N 20.01880541 8.95002683 8.15018592 -0.00391033 -0.00663079 0.00197808
N 0.04482198 0.75412330 3.40913111 0.00133096 -0.00538019 0.00031141
N 19.57485463 3.28776329 1.36398449 0.00825256 0.00403815 0.00008710
N 18.43803769 6.29629292 6.00037186 0.00429091 -0.00057741 0.00075024
N 21.56164764 1.24531992 7.40458943 0.00093056 -0.00413405 -0.00039880
N 20.27615468 8.43816021 3.09805167 -0.00269077 0.00185676 -0.00408303
N 18.33316383 5.58130427 10.25053338 -0.00178116 -0.01187524 0.00196301
N 19.78548582 4.10081633 15.18962940 -0.00155008 -0.00300368 -0.00222567
N 20.29155186 9.05914456 16.93640981 0.00747243 0.00386885 0.00225056
N 21.78408103 0.67220827 12.52588607 -0.00327544 0.00178772 0.00291588
N 19.61708391 3.70246237 10.64945477 0.00022110 0.00232321 0.00371153
N 18.63486927 6.14421488 15.23598265 0.00374608 -0.00332906 -0.00216092
N 21.37677124 1.32076912 16.84952353 0.00621874 0.00099099 0.00078516
N 20.54950956 8.18608523 12.11600680 0.00451311 -0.00015981 0.00231082
N 18.41830249 5.21526831 19.56509687 -0.00374615 -0.00194816 -0.00110916
N 19.78004213 3.83148650 23.98666853 0.00012067 0.00215758 -0.00500674
N 20.75817111 9.18282669 25.73250616 0.00363243 -0.00152555 0.00222228
N 21.86342459 0.70642737 21.79264238 -0.00626346 0.00318225 -0.00282271
N 19.86129528 3.37682638 19.64463329 -0.00182279 0.00148872 0.00069507
N 18.72368181 5.90700422 24.08098781 0.00381924 0.00298999 0.00168157
N 21.48991234 1.09969265 25.76687444 -0.00050099 0.00268571 -0.00060451
N 20.15212756 8.35329910 21.18299965 0.00272624 -0.00479890 -0.00024339
N 18.57776467 15.11446076 0.94714503 0.00075167 -0.00551046 -0.00087828
N 20.21997681 13.83312638 5.59528186 0.00009882 -0.00208312 0.00469351
N 20.55835585 18.44427322 8.04492988 -0.00026057 -0.00084158 0.00611988
N 21.62554571 10.27244720 3.59110043 0.00426547 0.01121021 -0.00287480
N 20.01701107 13.30462454 1.02585385 -0.00059527 0.00287927 0.00083662
N 18.93667017 15.71842369 5.80349039 -0.00134622 0.00233401 -0.00456292
N 21.24528526 10.81324605 7.99295742 -0.00566644 -0.00012657 0.00205136
N 20.46596696 17.86628970 2.98490298 0.00104412 0.00073563 -0.00429762
N 18.17972901 15.34219463 10.40216467 -0.00839309 -0.00075810 -0.00525823
N 19.92512336 14.00758559 14.92240092 -0.00185591 0.00390115 -0.00124260
N 20.60700964 18.53911392 16.92468387 -0.00096188 0.01022773 0.00065723
N 21.39152913 10.31146512 12.38566587 0.00175327 -0.00255038 -0.00073701
N 19.58284945 13.52467399 10.68112997 0.00508105 0.00022540 -0.00098597
N 18.49173327 15.88237553 15.22753346 -0.00453791 0.00261808 -0.00551592
N 21.50382342 10.94512428 16.68253203 -0.00502282 0.00131265 -0.00529922
N 20.31956908 18.11537536 12.10541318 -0.00341462 0.00017229 -0.00649983
N 18.66674252 15.21813547 19.43787424 -0.01023957 0.00151596 0.00022399
N 20.10195574 13.88092549 24.00051051 0.00332315 -0.00493770 -0.00195188
N 20.46747475 18.53509905 26.25981256 0.00008395 -0.00086270 0.00164241
N 21.33304403 10.32680254 21.27749562 0.00347142 -0.00623463 0.00166847
N 19.92277606 13.24109898 19.50469044 -0.00213096 -0.00060245 -0.00295622
N 18.77186489 15.74101599 24.26308574 -0.00178970 0.00629267 0.00293894
N 21.69672114 11.30177515 25.55729380 -0.00086992 0.00024979 -0.00471566
N 20.77101958 17.96041740 21.36366658 -0.00264441 0.00045519 0.00014184
N 18.68908346 24.72927363 1.14286275 0.00700412 -0.00089859 0.00153505
N 20.09667065 23.56015691 5.64138998 0.00368398 -0.00368643 0.00426162
N 20.10559986 28.49039721 7.81831920 0.00195702 -0.00785229 -0.00044620
N 21.71487528 19.66106476 3.36142433 -0.00443420 -0.00090177 -0.00002982
N 19.86913494 22.90010580 1.55103886 -0.00680817 0.00448425 -0.00409855
N 18.73104450 25.42061568 5.81384634 -0.00240984 -0.00307812 0.00603290