1728
Time=50000.00000004 pbc="T T T" Lattice="22.09761060 0.00000000 0.00000000 0.00000000 28.78253235 0.00000000 0.00000000 0.00000000 27.51096025" energy=-10388.61581481 virial="20.46766748 6.99219084 12.19177889 6.99219084 43.50122219 -1.47469411 12.19177889 -1.47469411 56.63532748" stress="0.00349129 0.00045675 0.00064306 0.00045675 0.00504100 -0.00003602 0.00064306 -0.00003602 0.00587854" Properties=species:S:1:pos:R:3:vel:R:3
N 0.54898171 5.36521889 1.12167801 -0.00139332 0.00332782 0.00016808
N 1.67059501 4.20402634 5.84841845 -0.00813008 0.00395511 -0.00133944
N 2.01000519 9.11580138 7.99786935 0.00033677 0.00260228 -0.00555724
N 3.24584907 0.61476748 3.55758864 -0.00189831 -0.00196507 -0.00942371
N 1.90891230 3.61864987 1.71593746 0.00903102 -0.00624411 0.00249022
N 0.39974237 6.14352042 6.09163022 -0.00070325 0.00693597 0.00103941
N 3.39407409 1.06759776 7.53524069 -0.00171548 -0.00493704 -0.00033271
N 1.95515438 8.60478215 3.18738573 -0.00341273 0.00004246 -0.00531614
N 0.07407957 5.59261963 10.44321701 -0.00366989 -0.00233528 -0.00181410
N 1.68122245 4.49404684 14.92758489 0.00007726 -0.00400738 -0.00587696
N 2.15566180 9.08388948 17.40324222 -0.00123728 -0.00116346 0.00038537
N 3.39680352 0.62443129 12.25653684 -0.00130629 -0.00460621 0.00096247
N 1.48736625 3.69994729 10.64352046 0.00963879 0.00397206 -0.00478989
N 0.42585573 6.39190921 15.43068681 -0.00752563 -0.00299457 0.00235533
N 3.05565484 1.56029162 16.77317418 -0.00329027 -0.00225425 -0.00458404
N 2.17340021 8.27066000 12.30175186 -0.00460374 0.00076965 -0.01034001
N 0.02598383 5.54013045 19.65009398 0.00043057 0.00429768 -0.00389576
N 1.73659559 3.78117530 24.27911438 -0.00077082 0.00536895 -0.00208766
N 2.03036063 9.13333962 26.47135374 -0.00273347 -0.00326775 0.00144022
N 3.36142417 1.21848235 21.93707815 0.00442302 -0.00077479 0.00506409
N 1.16029420 3.54668999 19.64051822 -0.00130475 0.00062141 -0.00213028
N 0.91479445 5.93280306 24.37391511 0.00147642 -0.00200941 -0.00169641
N 3.50959383 1.17910659 26.10276546 -0.00382605 -0.00229165 0.00189473
N 2.29977490 8.16993277 21.51705239 0.00199851 -0.00492330 -0.00676987
N 0.33707855 14.84762927 1.53931969 -0.00379718 0.00160852 -0.00262391
N 1.44427604 13.69911949 6.04616102 0.00160810 0.00063498 -0.00486780
N 1.82476042 18.42484254 8.16153811 0.00345425 -0.00105934 0.00068784
N 3.43715750 10.32224129 3.54078241 -0.00045751 0.00073683 -0.00208509
N 1.45733016 12.91422651 1.49076878 -0.00051128 -0.00747198 -0.00662712
N 0.06242085 15.45495860 6.09931853 -0.00159618 -0.00258641 -0.00386606
N 3.29747683 11.00668660 8.14355934 -0.00649368 0.00365619 -0.00802485
N 2.59220411 17.80641876 3.31305838 0.00499862 -0.00468533 -0.00399393
N 0.14315255 15.15364837 10.33580126 -0.00052798 0.00180585 0.00235976
N 1.94958119 13.80584493 14.95522787 0.00254945 -0.00164774 0.00286356
N 1.84782380 18.66279684 17.23921484 -0.00016918 -0.00436392 -0.00022889
N 3.32521552 10.25521279 12.53870646 0.00368254 0.00254840 0.00208543
N 1.42765206 13.33204547 10.68577989 -0.00341618 0.00038412 0.00000256
N 0.58659032 15.63362919 15.37822391 0.00427499 -0.00070142 0.00147323
N 3.33123998 10.92824284 16.73568699 0.00665039 -0.00496597 0.00017183
N 2.54858803 17.97319793 12.64457015 0.00251301 -0.00278404 -0.00852536
N 0.38769116 15.12317140 19.61488326 0.00472572 -0.00647872 0.00433830
N 1.56984055 13.71794984 24.13726841 0.00499059 0.00773273 0.00524933
N 2.02312254 18.73397916 26.18645288 0.00258227 0.00322973 -0.00722687
N 2.96359085 10.38282656 21.78087171 0.00555832 -0.00366686 -0.00184759
N 1.61143623 13.20067246 19.81016346 0.00539050 -0.00417058 -0.00546154
N 0.27160841 15.63853972 24.56571408 -0.00026106 -0.00510647 0.00243433
N 3.28969610 11.03228556 26.13235079 0.00361286 0.00309118 0.00169184
N 2.41928014 17.70099719 21.75774121 0.00528392 0.00812474 -0.00222091
N 0.36193307 24.73675902 1.04514350 0.00583462 0.00511487 -0.00078438
N 1.50781169 23.21164563 5.61338434 0.00115870 -0.00768360 0.00168058
N 2.36536330 27.85772697 8.04559114 0.00355683 0.00753137 -0.00182093
N 3.34800007 19.98094375 3.60757683 0.00263191 0.00160219 0.00767808
N 1.55606154 22.84583061 1.44679124 0.00254800 -0.00038215 0.00136492
N 0.38863876 25.04213563 6.17257518 -0.00687404 0.00011056 -0.00044441
N 3.19283293 20.25716792 7.80970778 -0.00805370 0.00289351 0.00266868
N 2.18950879 27.47030724 3.29908775 0.00350251 0.00303707 -0.00316175
N 0.11069644 24.42804168 10.39381537 0.00412872 -0.00575871 0.00662788
N 1.91590707 23.16130177 14.93380483 0.00299446 -0.00178425 -0.00398063
N 1.98133353 28.33366696 17.00930533 -0.00538840 -0.00086971 0.00233306
N 3.37225661 20.06906598 13.10772853 0.00281286 -0.00127316 -0.00218109
N 1.38149955 22.48557686 10.21148696 -0.00217853 -0.00146934 0.00226847
N 0.43034363 24.99629120 15.13049495 -0.00796403 -0.00481486 0.01010138
N 3.25019214 20.51400393 16.98543115 0.00391853 -0.00090320 0.00243664
N 1.95694017 27.66470874 12.31232646 0.00022804 0.00119878 0.00150171
N 0.19820906 24.73110489 19.37372727 0.00274689 -0.00442389 -0.00101275
N 1.88455712 23.49353669 23.90274652 0.00156844 -0.00168068 -0.00150304
N 2.51330116 27.87701066 26.36259170 0.00477287 -0.00437658 -0.00131749
N 3.61241102 19.63670770 21.59708220 0.00385125 -0.00418287 -0.00390477
N 1.42800992 22.74455632 19.65190588 -0.00313221 0.00016173 0.00204199
N 0.39413299 25.22947350 24.31282387 0.00049920 0.00332412 0.00170625
N 3.38273352 20.56628571 26.24442257 -0.00470735 -0.00428674 -0.00285137
N 2.65158446 27.89397496 21.42053904 -0.00143390 -0.00451323 -0.00535118
N 4.14180411 5.23564431 0.69589455 -0.00026429 0.00537912 0.00361094
N 4.93011499 4.35253334 5.65521522 0.00200294 -0.00616204 -0.00139093
N 5.81380111 8.75601613 8.18733337 0.00722203 -0.00349037 -0.00247943
N 7.50279097 0.33013704 3.01360133 0.00551292 0.00308768 -0.00491929
N 5.25303983 3.30520311 1.29355499 0.00078629 0.00451851 0.00517654
N 3.81772270 6.36616352 5.78601543 0.00101746 0.00047977 0.00594708
N 6.85191435 1.25692598 7.20111588 -0.00248469 0.00527680 0.00339065
N 5.57624063 8.10181990 2.93863830 -0.00231141 0.00396468 0.00213749
N 4.02068841 5.56019348 10.32162744 0.00039594 -0.00605214 -0.00210499
N 5.46825493 4.34182696 15.02612722 0.00403081 -0.00792435 -0.00430290
N 5.75815353 8.95402730 17.11732237 -0.00485061 0.00491529 0.00002117
N 7.11376092 0.59571219 12.31771480 -0.00077209 -0.00539574 -0.00210292
N 5.19032022 3.63500052 10.46893165 0.00688198 -0.00033954 0.00267911
N 4.05978325 6.17499211 15.48446856 -0.00360022 -0.00193597 0.00165957
N 6.84311023 1.09478863 16.63129724 -0.00436080 -0.00613022 -0.00071290
N 6.02944034 8.68803829 12.73496367 -0.00118579 0.00211932 -0.00234901
N 3.81462572 5.72280416 19.20661411 0.00208268 -0.00455971 -0.00084440
N 5.23741770 4.04275158 23.84319954 -0.00679933 0.00531012 0.00205159
N 5.72053474 8.71554307 26.38296270 -0.00325748 0.00005393 -0.00378088
N 6.98987686 0.80147216 21.34263269 -0.00738521 -0.00126979 0.00128416
N 5.04050641 3.65957687 19.33852999 -0.00112376 0.00551231 -0.00345541
N 4.30410116 6.12516703 24.21629596 -0.00468869 0.00065342 0.00292521
N 7.24778896 1.22615359 25.97553296 0.01248904 0.00105942 0.00287115
N 6.01835509 8.36802470 21.47812715 0.00468200 -0.00236360 0.00174045
N 4.32514489 15.29014782 1.11777747 0.00046388 0.00094235 0.00103165
N 4.71264328 13.40996776 5.94961559 0.00470373 0.00645380 -0.00123098
N 5.59905492 18.34199972 7.96382699 0.00259988 -0.00231847 0.00298418
N 6.96568882 9.94045823 3.26331342 0.00057023 -0.00311685 0.00590102
N 5.33600179 13.20349104 1.68279062 0.00067426 0.00340719 0.00315428
N 4.13344367 15.60763098 6.48363525 -0.00509070 -0.00403634 -0.00735092
N 6.78124381 10.84133976 7.79876525 -0.00542097 0.00563703 0.00097772
N 5.71239782 17.83577551 2.89238947 0.00111376 -0.00355381 0.00200959
N 3.88141141 14.92323046 10.60893466 -0.00168174 -0.00562428 -0.00028775
N 5.65127397 13.69090612 15.16186280 -0.00808906 -0.00202490 0.00119682
N 5.86833428 18.49464109 17.27254834 -0.00608361 -0.00366163 0.00013521
N 7.41280284 10.55572444 13.16422462 -0.00220373 0.00026198 -0.00088676
N 5.17416039 13.16637414 11.14628163 0.00672255 -0.00109392 -0.00412264
N 4.40435477 15.61661845 15.68746180 0.00428070 -0.00163889 -0.00068462
N 7.10621560 10.78439579 16.93390669 0.00408711 -0.00445970 0.00253840
N 5.92111056 18.37920181 12.30694878 0.00601970 0.00713040 0.00365796
N 4.08659664 15.01866020 19.58928944 0.00012660 0.00119258 0.00360622
N 4.97688075 13.33362341 23.74136158 0.00210865 -0.00342370 -0.00189099
N 5.84499701 18.28310585 26.24878138 -0.00310957 0.00327970 -0.00230212
N 7.02681666 10.42502546 21.93581309 -0.00131751 0.00551180 0.00316243
N 5.28321413 13.10519058 19.85127626 -0.00713304 -0.00332942 -0.00451551
N 4.00571592 15.37543445 24.31076999 -0.00318591 0.00390690 0.00254382
N 6.96422130 10.64799002 26.11804236 -0.00016542 -0.00203058 0.00280281
N 5.95947562 17.89497410 21.07100157 -0.00116170 0.00050515 0.00556336
N 4.11202803 24.71604697 1.21823909 0.00265112 -0.00335149 0.00669368
N 5.39223146 23.15024202 5.69028975 -0.00152921 0.00198180 -0.00243227
N 5.85337048 28.06795123 7.88655077 0.00507504 -0.00934604 -0.00205910
N 6.85569098 19.80632957 3.28378940 0.00991778 0.00139141 -0.00396459
N 5.23461170 22.78201394 1.60103612 0.00266241 0.01049763 -0.00049789
N 4.01218327 24.93670903 6.15048744 -0.00344671 -0.00009557 -0.00654182
N 6.98641401 20.16029133 7.54856309 -0.00246700 -0.00808147 0.00436069
N 5.84772235 27.45197177 2.89426500 0.00243404 0.00011667 -0.00274431
N 4.16378603 24.70006607 10.08976399 -0.00292819 0.00121587 0.00350664
N 5.02964552 23.44644247 14.84595454 0.00406979 0.00185229 -0.00318457
N 5.32733775 28.22297943 16.94007317 -0.00867307 -0.00032098 -0.00014091
N 7.13444485 20.27957031 12.75319413 -0.00469069 -0.00047635 -0.00448566
N 4.85517467 22.55889860 10.62390559 -0.00433494 -0.00126839 -0.00276643
N 4.05845283 25.59982821 14.89119198 -0.00582969 -0.00158043 -0.00179069
N 7.15046672 20.43640901 16.79337717 0.00155403 0.00325376 0.00563137
N 5.83529964 27.48335583 12.07808534 -0.00279232 -0.00487804 0.00397937
N 3.87761915 24.97998543 19.52008858 -0.00272535 0.00115690 -0.00135470
N 5.38025426 23.41250354 24.05588541 -0.00287550 -0.00538114 -0.01182874
N 5.95265055 28.12238441 26.18011740 -0.00159575 0.00107475 -0.00717978
N 7.28388878 19.74532136 21.63629481 -0.00245211 0.00169932 -0.00203434
N 4.75500092 22.88098551 19.83025937 -0.00424023 -0.00123387 0.00371068
N 4.24669044 25.50547744 24.28975350 -0.00156362 0.00487324 0.00587048
N 6.65348936 20.32879987 26.20835895 -0.00003445 0.00201739 -0.00097108
N 5.65847526 27.70236845 21.03827008 -0.00712882 0.00154719 -0.00346662
N 7.50544371 5.30988481 1.15384924 0.00422628 -0.00056685 -0.00122920
N 8.93800167 4.14863416 5.83660342 0.00731510 0.00368889 -0.00432414
N 9.24247351 8.82463493 8.18467067 0.00550307 0.00140872 -0.00242054
N 11.25979602 0.41500458 3.42300761 0.00467832 0.00436562 -0.00125484
N 8.96313995 3.65835772 1.55737822 0.00082802 0.00216380 -0.00494606
N 7.49470110 5.98668777 6.03722104 0.00058461 -0.00211088 -0.00740369
N 10.48723650 1.29776648 8.03414738 -0.00765724 -0.00164699 0.00323379
N 9.45335862 8.06103516 3.12514835 0.00231447 0.00781170 0.00222010
N 7.76433080 5.83069140 10.26149660 -0.00091902 0.00241236 0.00089342
N 8.98056885 3.73314496 14.65392994 0.00683370 0.00231662 -0.00293527
N 9.56006288 8.96378622 16.96962437 -0.00535066 0.00043492 -0.00558675
N 10.96668704 0.47537150 12.74174354 0.00090822 -0.00178107 0.00440236
N 8.78381202 3.80320874 10.55204426 0.00181294 -0.00750687 -0.00053330
N 8.23212371 5.75684404 15.18564885 0.00279028 0.00648439 -0.00599034
N 10.40427658 1.19591375 17.22433444 -0.00391636 0.00304046 0.00261781
N 9.83370514 8.55583640 12.57260101 0.00270627 0.00011036 -0.00116444
N 7.53646037 5.48810068 19.15075621 0.00691324 0.00359890 0.00024540
N 9.11214066 4.11027200 23.96869005 0.00112322 -0.00175622 0.00052929
N 9.52937427 8.84804962 26.06247065 -0.00156990 -0.00015208 -0.00849437
N 11.24710524 0.96008125 22.21523416 0.00178281 -0.00043402 -0.00086202
N 8.82659559 3.72283351 19.86726607 -0.00006864 0.00027917 0.00633910
N 8.06169353 6.17368431 24.24765686 0.00231160 -0.00089587 -0.00618791
N 10.53426331 1.11483505 26.22536265 0.00513725 -0.00421624 -0.00017240
N 9.60696600 8.11785238 21.46974287 -0.00165425 0.00004761 -0.00732928
N 7.98694575 14.98467947 1.28196585 0.00086915 0.00676235 0.00573186
N 8.82350522 13.66362859 5.88648565 0.00562836 0.00093088 -0.00393948
N 9.31459172 18.40434533 7.77855927 -0.00180317 0.00047737 0.00462217
N 10.63689953 10.11127166 3.34885111 -0.00174603 0.00349948 0.00062957
N 8.68977071 12.84583211 1.49630963 0.00453824 0.00602680 0.00464832
N 7.75921868 15.76094065 5.95063512 -0.00444173 0.00278325 0.00029445
N 10.32394835 10.84388701 7.70402116 -0.00550728 0.00491299 -0.00266726
N 9.48654469 17.75010945 3.14692888 0.00395551 -0.00478875 -0.00552175
N 7.59031640 15.09166365 10.36001567 -0.00211547 0.00287906 0.00596182
N 9.07288479 14.16603710 14.98990967 0.00715041 -0.00051488 -0.00717709
N 9.81402287 18.74066097 17.30182196 -0.00182828 0.00242463 0.00341519
N 11.10737205 10.45087404 12.49211368 -0.00337447 0.00266561 0.00005940
N 8.53780665 13.01474919 10.35926126 0.00035966 0.00212443 0.00419799
N 7.81109834 16.07432100 15.13732368 0.00046947 0.00148528 -0.00149572
N 10.54056799 10.99945502 16.43415869 0.00721982 0.00902464 -0.00548940
N 9.48604686 17.96816082 12.23421817 -0.00279294 -0.00134986 0.00202418
N 7.92700730 15.31962134 19.73812808 -0.00190932 0.00427018 -0.00373184
N 8.99647183 13.47411327 24.15687652 0.00190661 0.00565388 -0.00389474
N 9.77474886 18.36945256 26.47225308 -0.00413647 -0.00485945 0.00367583
N 10.87362610 10.02351445 21.57318220 -0.00579037 0.00716555 0.00287710
N 8.89658384 13.23333721 19.86618202 0.00355616 0.00447652 0.00230274
N 7.74526246 15.43481059 24.35317565 0.00070078 -0.00627376 -0.00318119
N 11.07408852 10.59803949 26.14931268 -0.00141901 -0.00081468 0.00019549
N 9.60082459 17.90596991 21.62545021 -0.00047195 -0.00130564 0.00024500
N 7.42805405 24.71511935 1.09569213 -0.00541342 0.00050268 0.00441046
N 9.30821678 23.13919534 5.72133288 0.00293792 -0.00596665 0.00236342
N 9.28439498 28.12097001 8.07987873 0.00337017 -0.00737010 0.00387170
N 10.69869752 19.59599079 3.09028131 0.00422030 0.00398382 -0.00794206
N 8.73053240 22.84075640 1.59483013 0.00006657 -0.00651854 -0.00408739
N 7.71748924 24.83818784 5.92585147 0.00311982 0.00214941 -0.00531422
N 10.63686216 20.19387220 7.60020650 -0.00131510 -0.00270682 0.00305433
N 9.92445982 27.27696707 3.22055063 0.00255657 -0.00259413 0.00292548
N 7.63569994 24.86122104 9.74777959 -0.00415081 -0.00032995 0.00053163
N 8.88603475 23.39590970 14.88873889 0.00023932 -0.00725709 0.00052223
N 9.05255057 28.29701809 17.73519758 0.00162392 0.00181796 0.00310510
N 10.66335925 19.88696661 12.83511181 -0.00508542 -0.00950049 0.00003141
N 8.85348112 22.83017697 10.12778925 0.00497040 0.00145090 0.00601599
N 7.49634921 25.24021969 15.18408098 -0.00050547 0.00671014 0.00309298
N 10.73261791 20.82955149 17.19179833 0.00036170 0.00648333 -0.00417074
N 9.77579847 27.30231749 12.24226232 -0.00282504 -0.00445129 -0.00387206
N 7.52325196 24.76252452 19.61949574 0.00475041 -0.00453063 -0.00099867
N 9.01894041 23.23666496 24.37931004 -0.00177161 -0.00200770 0.00011816
N 9.35972681 28.03063392 26.75304026 0.00433661 0.00183396 0.00438224
N 10.76656918 19.94491767 21.93307459 0.00147868 -0.00322850 0.00277618
N 8.98063331 22.87123824 19.93548951 0.00111456 0.00541326 0.00130098
N 7.89420409 25.28101012 24.47114344 -0.00265171 -0.00001629 0.00079505
N 10.20658313 20.58128889 25.76876618 -0.00367688 -0.00118058 0.00656241
N 9.73840802 28.00385202 21.75616554 0.00086957 -0.00319569 0.00316261
N 11.17350420 5.41056402 1.07688604 -0.01336608 0.00124436 0.00206251
N 12.73429087 4.43721786 6.12399288 0.00056044 0.00405671 -0.00146806
N 13.00986261 8.92322764 8.14850292 -0.00565873 -0.00002562 0.00193209
N 14.53914733 0.79847272 3.32822663 -0.00819686 -0.01050806 0.00021157
N 12.37630688 3.46969186 1.58111751 -0.00150182 0.00147555 0.00045026
N 11.29497203 6.21374446 6.05821801 0.00121052 0.00391452 -0.00034450
N 13.97793006 1.19118055 7.66844468 0.00396243 -0.00019446 -0.00121626
N 13.16069131 8.18412328 3.44417489 0.00581748 0.00375616 0.00778029
N 11.29123532 5.47140202 10.66436264 -0.00458870 0.00160575 -0.00277388
N 12.25986112 3.99624493 15.04955003 0.00146474 0.00128446 0.00182769
N 12.98495487 9.16253773 16.98824139 -0.00792582 -0.00443952 0.00295193
N 14.50982578 0.65593112 12.53019257 0.00484248 -0.00635984 0.00729938
N 12.59609763 3.52474937 10.56045123 -0.00296618 -0.00149514 0.00062681
N 11.25086301 6.02066939 15.69468926 -0.00465981 0.00253288 0.01179211
N 14.20507978 1.64111086 16.72095165 -0.00063597 -0.00266160 0.00187960
N 13.51396936 8.16211216 12.18296213 -0.00031821 0.00548502 -0.00275949
N 11.22208017 5.36653832 19.61565411 0.00396278 -0.00082402 0.00384999
N 12.78976286 3.73741438 24.26685204 0.00284164 0.00368870 0.00273711
N 13.38012631 8.79855772 26.22302661 -0.00466769 -0.00172399 0.00242605
N 14.70338333 0.79121711 22.01199468 0.00322354 -0.00345774 0.00542898
N 12.80150305 3.73726557 19.80192237 -0.00135319 0.00043681 -0.00597278
N 11.45828853 5.64286753 24.39791216 -0.00118056 -0.00338283 -0.00415755
N 14.46141870 1.05699183 26.05232185 -0.00293381 -0.00192926 -0.00069928
N 13.27766283 8.30386787 21.24009823 0.00061254 0.00317865 -0.00757877
N 11.17401083 14.89792701 1.08857480 0.00122061 -0.00008574 0.00066617
N 12.51257279 13.52735292 5.70265426 0.00107991 -0.00539088 0.00420291
N 12.84967311 18.41265743 8.23340279 0.00834764 0.00008511 -0.00040131
N 14.46449147 10.11720406 3.17627803 0.00069601 0.00058569 -0.00107884
N 12.52652957 13.04724278 1.60574560 0.00668168 -0.00634804 -0.00143518
N 11.61312681 15.60098532 6.06020781 0.00039418 0.00293730 -0.00210707
N 14.45014622 10.67659810 7.72736418 -0.00551275 0.00110453 -0.00235866
N 13.44586706 17.99611396 3.16364471 -0.00155343 -0.00826177 -0.00195160
N 11.39246050 15.08171951 10.45395584 -0.00021129 -0.00342601 0.00420765
N 12.65771772 14.04911322 14.97957157 -0.00089086 0.00613999 -0.00223567
N 13.49823469 18.67866724 17.43919200 0.00292807 0.00173048 -0.00382102
N 14.44440887 10.25069428 12.46103772 0.00192190 -0.00247751 0.00710505
N 12.40776506 13.08335693 10.44340639 -0.00465965 0.00174177 0.00459862
N 11.40198822 16.03060816 15.21189298 0.00438058 -0.00258987 -0.00258424
N 14.47887616 11.05957872 16.75976493 0.00113720 0.00234578 0.00468536
N 13.26574089 18.17128092 12.53808701 0.00013477 0.00184813 0.00080717
N 11.19684829 15.13032178 19.53019456 -0.00121122 -0.00415618 0.00069647
N 12.53330897 13.66874366 23.80404399 0.00366427 -0.00309027 -0.00744069
N 13.26701846 18.53745578 26.41839340 0.00017175 -0.00526124 0.00026112
N 14.48508861 10.21160407 21.62237550 -0.00723222 0.00043767 0.00344938
N 12.53456622 13.22066773 19.26252098 0.00155305 0.00138589 -0.00059098
N 11.51908226 15.60067174 24.30946230 0.00121785 -0.00167713 -0.00054250
N 14.77808692 10.53768872 25.65690315 0.00072084 -0.00243072 0.00152600
N 13.19153806 18.06239853 21.71038538 0.00194271 -0.00853334 0.00062347
N 11.25200921 24.07210484 1.51210101 0.00643559 0.00189530 -0.00378366
N 12.98543005 22.98480460 5.14743917 -0.00215322 0.00796133 -0.00292002
N 13.02428197 27.90815628 7.91442050 0.00502279 -0.00376263 0.00308935
N 14.48777940 19.89610338 3.84857231 0.00512474 0.00201307 0.00194048
N 12.75361969 22.36110023 1.05968591 0.00476061 -0.00699799 0.00115469
N 11.75151086 24.89374818 5.45810412 0.00646285 0.00339766 -0.00013629
N 14.41352377 20.00410620 7.62336214 -0.00228150 -0.00042112 -0.00099908
N 13.50074023 27.47056309 3.33497808 -0.00281740 0.00064099 0.00287205
N 11.61884749 24.56466217 10.10263019 -0.00063725 -0.00272730 0.00388002
N 12.57035575 23.75780067 14.76496501 0.00364870 0.00558023 0.00462779
N 13.01436963 28.46080816 17.11208975 -0.00088616 -0.00308796 -0.00591925
N 14.55354079 20.07171032 12.62375343 -0.00345877 -0.00006614 -0.00863903
N 12.50065265 22.50328304 10.51170750 0.00166920 0.00661392 0.00138527
N 10.91353704 25.23023492 15.18972971 -0.00070390 -0.00263053 -0.00420265
N 14.49753121 20.76535625 17.06769855 0.00134229 0.00509406 0.00287743
N 13.34994841 27.41901887 12.48706356 -0.00379400 0.00331698 -0.00070182
N 11.13853593 25.02711456 19.71513025 -0.00710496 -0.00158632 0.00361004
N 12.43144997 23.09079297 24.47230335 -0.00246503 -0.00825597 0.00490162
N 13.34327541 27.76137021 26.39300066 0.00631637 -0.00656036 -0.00450793
N 14.31173038 20.06210588 21.68372267 -0.00194181 0.00487163 -0.00255757
N 12.35857391 23.12288956 19.68395361 -0.00055674 -0.00145444 0.00545138
N 11.62147165 25.25657460 24.80382673 0.00019609 -0.00657484 -0.00551805
N 14.41838484 20.50849882 26.24542634 0.00969392 -0.00241025 -0.00022341
N 13.52491216 27.63395261 21.53902883 -0.00488030 0.00182524 0.00145150
N 14.80038520 4.91603943 1.68904073 -0.00324564 -0.00266710 -0.00219879
N 15.57569709 3.88085204 5.44589798 -0.00119248 -0.00289661 -0.00494670
N 16.86612930 8.53254647 8.03583388 0.00638271 0.00601001 -0.00686614
N 18.43517516 0.68593655 3.39161386 -0.00785260 -0.00225489 -0.00117656
N 16.46715722 3.33188972 1.68317889 0.00295718 0.00046208 0.00989314
N 15.12495237 6.11000614 5.56186412 -0.00316639 0.00852848 0.00216683
N 17.87996565 1.47376981 7.71745842 0.00045397 0.00041224 -0.00263033
N 16.93771912 8.11426358 2.77564543 0.00442244 0.00892332 0.00004774
N 14.81686769 5.38741793 10.08557465 0.00407478 0.00734624 0.00411852
N 16.19581960 4.14873309 14.78685294 0.00602323 0.00273776 -0.00279237
N 16.97335126 9.22780664 16.88072846 0.00074696 0.00052338 -0.00440507
N 18.01924318 0.87543776 12.94563120 -0.00107924 0.00436664 -0.00058292
N 16.20834344 3.64506025 10.64122321 -0.00056859 -0.00975027 0.00381192
N 15.02001948 6.13074490 15.13868808 -0.00733710 -0.00074409 -0.00271453
N 17.92495931 1.55935353 17.03443133 -0.00279518 -0.00073458 0.00572314
N 16.87857402 8.56845560 11.92142768 0.00628755 0.00298463 -0.00511616
N 15.15444920 5.42944622 19.30045498 0.00289471 -0.00602509 -0.00924411
N 16.76286374 3.99393826 24.58799645 0.00328216 -0.00232302 -0.00623852
N 17.42811691 8.66303694 26.47037920 -0.00135440 -0.00230696 0.00049675
N 18.43014128 0.50142926 21.67932340 -0.00347119 0.00381493 0.00784294
N 16.44645789 3.81825528 20.44954898 0.00156949 -0.00267627 -0.00104094
N 15.12347688 5.72160806 24.64656918 0.00937521 -0.00397218 0.00277299
N 18.13982544 1.16677719 25.96808417 -0.00440422 0.00210168 -0.00150837
N 16.82733785 8.28910603 21.50125169 -0.00430338 -0.00184407 -0.00547420
N 15.10144937 14.99359620 1.05063826 -0.00419391 0.00272290 0.00261913
N 16.11998037 13.48579914 5.67931804 -0.00497767 0.00135485 -0.00020180
N 16.76650388 18.23719164 7.99239621 -0.00088601 0.00178781 -0.00123568
N 17.90902475 10.08198743 3.69979452 -0.00297266 -0.01227687 -0.00979512
N 16.08571018 12.95971169 1.40425697 0.00565545 0.00199281 -0.00582720
N 14.74468036 15.33437286 5.98520084 0.00337144 0.00461414 -0.00050679
N 18.09874848 10.47813341 7.46291918 0.00393989 -0.00632844 0.00357531
N 16.78911294 17.94075425 3.10697990 -0.00206071 -0.00376000 -0.00379335
N 14.93613615 14.94405961 10.77657693 -0.00166728 -0.00129467 -0.00029375
N 16.49898633 13.74905116 15.19332747 -0.00730411 0.00039776 -0.00327357
N 16.56004589 18.71229738 17.14219080 0.00438982 0.00561851 0.00288644
N 18.31817730 10.32271023 12.49546016 -0.00688131 -0.00157906 0.00612271
N 16.19840082 12.93026857 11.09390543 0.00356635 0.00128310 0.00265313
N 15.05683569 15.68414331 15.37671968 0.00155662 0.00210828 -0.00460046
N 18.32917960 11.09758393 16.99864249 0.00712113 -0.00039952 -0.00114913
N 16.75852524 18.11045590 12.27268362 -0.00261341 -0.00106339 -0.00110957
N 14.90824550 15.21459180 19.53179573 0.00096837 -0.00463761 -0.00426715
N 15.94026242 13.56917849 23.91950737 -0.00259453 0.00163807 0.00754612
N 17.04501465 18.11814678 26.46025570 -0.00630513 -0.00088038 -0.00649725
N 18.11802195 10.22724333 21.72608122 0.00229607 0.00087046 -0.00036391
N 16.01579285 13.23884794 19.84759198 0.00151981 0.00172825 0.00294299
N 14.95005107 15.61513596 24.27522573 -0.00432690 0.00333017 -0.00514541
N 17.89663902 10.98578234 25.98883730 -0.00356996 0.00749056 0.00620389
N 16.80361137 17.99626079 21.39324745 0.00574590 0.00544176 -0.00728087
N 15.13512805 24.52905444 1.18561672 -0.00733880 -0.00025415 0.00311421
N 16.86993057 23.37778372 6.01155294 -0.01030236 0.00174569 -0.00088840
N 16.91871504 28.22156645 7.98121199 -0.00619379 -0.01085359 -0.00263670
N 18.21629220 19.70332881 3.42309957 -0.00365396 -0.00083820 -0.00682611
N 16.07239182 22.55651716 1.75043306 0.00015459 0.00331425 -0.00298285
N 15.58438830 25.25561185 5.90554095 0.00126879 -0.00113944 -0.00447837
N 17.95592165 20.14681738 7.56913473 0.00179568 -0.00627260 -0.01003867
N 17.25854055 27.54711088 2.86841735 0.00213562 0.00692505 0.00626699
N 14.81011498 24.56703088 10.40850709 0.00192162 -0.00395175 -0.00261456
N 16.07436540 23.38813204 14.79030937 -0.00420430 0.00155029 -0.00254738
N 16.67963782 28.27480971 17.35136356 0.01190086 0.00022659 -0.00347923
N 17.89240396 20.12070111 12.25530750 0.00481855 0.00430104 -0.00368381
N 16.16542415 22.73339296 10.30751006 0.00755338 -0.00337745 -0.00146788
N 15.16166062 25.40062454 15.33448115 -0.00099855 0.00042413 0.00292666
N 17.96164341 20.60105373 16.99429819 -0.00470993 -0.00002226 0.00780502
N 16.90903379 27.60799788 12.52421754 -0.00284009 -0.00811101 0.00048443
N 14.95296610 24.71708429 19.30164032 -0.00104260 0.00105792 -0.00082985
N 16.45436994 23.11924389 24.25422430 0.01190869 0.00504120 0.00021576
N 16.88929998 28.05839017 26.19110684 0.00833675 0.00461110 0.00221085
N 18.07311365 19.87388348 21.70961394 0.00623020 0.00231551 -0.01088970
N 16.22267825 22.80385640 19.60646397 0.00590812 0.00754641 -0.00593599
N 15.26597687 25.07796325 24.56643035 0.00300488 0.00273183 -0.00471943
N 18.17449589 20.09910672 26.03047725 0.00593420 0.00515903 0.00002687
N 17.17015889 27.40365173 21.44951535 0.00231642 0.00389789 -0.00500041
N 18.64192134 5.12680567 0.94971044 0.00699099 -0.00122089 0.00816113
N 20.20028192 4.06523140 5.85271185 -0.00262840 -0.00098765 -0.00238680
N 20.56721064 8.82093367 7.89168489 -0.00150364 -0.00585898 -0.00380467
N 21.92964104 0.67643757 3.99011178 -0.00104502 0.00151184 -0.00122768
N 20.18665729 3.43580086 1.43306725 -0.00400954 0.00155316 -0.00349164
N 18.98586878 6.05634300 5.73801825 0.00410206 -0.00219196 -0.00030202
N 21.54646739 1.36117956 8.19072308 0.00186990 0.00265094 0.00646671
N 20.37869901 8.20140165 2.79294491 -0.00271753 0.00221315 -0.00037057
N 18.53399059 5.79551224 9.47323894 -0.00385928 0.00036331 -0.00113156
N 20.07871848 4.22594584 14.41235252 0.00072453 0.00022705 -0.00582751
N 20.66397442 8.70744716 17.09862443 -0.00208998 0.00264961 0.00190755
N 21.89076344 1.00613170 12.77285636 0.00029837 0.00502859 -0.00055834
N 19.88164877 4.14406307 10.43230155 -0.00650449 0.00648568 -0.00405224
N 18.49207970 5.90232161 14.87765331 0.00276615 -0.00587511 0.00409693
N 21.55789624 1.50310687 16.79743523 -0.00504276 -0.00594005 0.00650486
N 20.42833350 8.43003260 12.05948463 -0.00282766 -0.00409005 -0.00669509
N 18.95871875 5.82454316 19.16745938 -0.00194521 0.00104827 0.00054781
N 20.22379967 3.96806987 23.54179209 -0.00374095 0.00294147 0.01039365
N 20.33740155 8.90762146 26.09824779 -0.00666935 0.00419758 0.00417823
N 0.01620780 0.66713526 21.52943483 0.00699370 -0.00026994 -0.00119062
N 19.46860892 3.65304054 19.60121041 0.00111854 0.00873202 0.00342924
N 19.09281385 5.75574397 24.41104792 -0.00345840 -0.00235377 0.00412158
N 21.76050535 1.11371248 25.96572219 0.00318750 -0.00785370 -0.00848560
N 20.49313409 8.31952435 21.53940524 -0.00126927 -0.01153137 0.00311677
N 19.02241787 15.17321312 1.22957248 0.00252634 -0.00577070 0.00043299
N 19.59639514 13.61953916 5.81792606 0.00175534 -0.00091096 0.00475258
N 20.51406056 18.28874318 7.84463804 0.00789238 0.00370940 -0.00531391
N 21.69749639 10.05240292 3.17246539 0.00250517 0.00018666 0.00090724
N 19.78852228 13.10906050 1.57831215 -0.01059963 -0.00118791 0.00320623
N 18.40173609 15.59103430 6.02891865 -0.00554427 -0.00564400 -0.01188619
N 21.59570178 10.84517580 7.70216616 0.00098578 0.00425322 -0.00492056
N 20.47336698 18.00019243 3.11173482 0.00207660 0.00473027 0.00464527
N 18.39879320 15.40131185 10.44566801 0.00413591 -0.00255110 0.00039493
N 20.08703134 13.88902503 15.06954884 -0.00370299 -0.00308870 0.00133193
N 20.30120356 18.77688414 16.84827225 -0.00635823 -0.00447329 0.00474101
N 21.95260039 10.11578459 12.50687341 0.00204601 -0.00254162 -0.00166967
N 19.75462294 13.60042925 10.85271358 0.00025778 -0.00563005 -0.00162555
N 18.88788385 15.87624151 15.15218917 -0.00376493 0.00268553 0.00378760
N 21.76725115 10.70266892 16.70281839 -0.00792188 -0.00572072 -0.00064872
N 20.58276648 17.95249330 12.51530436 -0.00513280 0.01123421 0.00043927
N 18.48332877 14.75980823 19.72040028 -0.00208459 0.00157437 -0.00790951
N 19.99289182 13.56772503 23.92199742 -0.00773536 0.00333185 0.00469080
N 20.47481068 18.54231906 26.38872572 0.00504198 0.00024153 0.00862219
N 21.95681881 10.11147351 21.53094959 -0.00228357 0.00544361 -0.00668501
N 20.11913486 13.11604370 20.05818414 0.00181271 -0.00810944 0.00066071
N 18.94562399 15.47796168 24.60018200 -0.00824582 0.00012948 -0.00766251
N 21.67869281 10.94801669 25.86752471 0.00648645 0.00414132 -0.00078441
N 20.65199864 18.10631282 21.64416648 -0.00288751 0.00424099 -0.00583984
N 18.45207007 24.54266251 1.34742961 0.00812538 -0.00389605 0.00446704
N 20.07199293 23.42341401 5.80512985 -0.00449781 -0.00237101 -0.00269319
N 20.23255046 28.34620182 8.53733668 0.00176715 -0.00134484 0.00355679
N 0.11754777 19.62330194 3.22715010 0.00152167 0.00286502 -0.00282878
N 19.86660864 22.70103760 1.49566768 -0.00869945 0.00491106 0.00033760
N 18.97948495 25.49336547 5.86278303 0.00253435 0.00790101 -0.00140390