1728
Time=53000.00000004 pbc="T T T" Lattice="22.08841104 0.00000000 0.00000000 0.00000000 28.84992394 0.00000000 0.00000000 0.00000000 27.35923793" energy=-10388.76772237 virial="8.26928909 9.84630416 8.17299524 9.84630416 -21.51615309 -6.48409962 8.17299524 -6.48409962 18.19850440" stress="0.00273446 0.00067749 0.00044200 0.00067749 0.00133921 -0.00033716 0.00044200 -0.00033716 0.00367405" Properties=species:S:1:pos:R:3:vel:R:3
N 0.45273420 5.32255919 0.70392531 0.00181412 -0.00453853 -0.00121402
N 1.10349259 4.23328346 5.55328589 0.00420678 0.00063496 -0.00651163
N 2.37218690 9.17714004 7.97542876 0.00731527 0.00094340 0.00398159
N 3.56242761 0.39967005 3.28924819 -0.01214070 0.00134105 -0.00909087
N 1.69878374 3.35129493 1.23198430 0.00262092 -0.00064274 0.00626886
N 0.36960319 6.35455713 6.01325303 0.00050913 0.00533518 -0.00287486
N 3.17226483 1.54496736 7.40525220 -0.00269098 -0.00222416 -0.00086758
N 2.41471235 8.45613555 3.09781948 -0.00435344 -0.00111995 -0.00211219
N 0.21182216 5.62875932 10.14243722 0.00322333 -0.00003749 0.00001547
N 1.11537320 4.72487339 14.88022551 -0.00142066 0.00041535 0.00922878
N 1.92021212 9.11854649 17.42127245 -0.00296388 0.00160126 0.00177822
N 3.25380701 0.76012270 12.28668055 -0.00075101 0.00482246 -0.00004934
N 1.18500722 3.54186686 10.35394580 0.00206786 0.00402845 0.00476204
N 22.00934534 6.57078897 15.51151610 0.00166177 -0.00469191 0.00471826
N 3.10647991 1.52589825 16.49004440 0.00568991 0.00384124 -0.00436191
N 1.89199719 8.45012125 12.32635118 -0.00172326 -0.00264943 -0.00532717
N 0.14184294 5.45008995 19.26040976 0.00471437 0.00457409 0.00148721
N 1.95140153 3.99460305 23.67943950 0.00461183 0.00248232 0.00524385
N 2.32648936 8.86720133 26.13180939 -0.00046245 0.01011224 -0.00048966
N 3.29493622 0.91451775 21.84640506 0.00236665 -0.00021738 0.00360383
N 1.47997572 3.57072748 19.41109448 -0.00504623 -0.00582991 -0.00266618
N 0.69276362 5.90010484 23.80120802 0.00277616 -0.00497919 0.00732853
N 3.66508630 1.27853628 25.73101651 -0.00439995 0.00202101 -0.00268272
N 2.46635034 8.60271710 21.15560319 0.00016031 0.00200977 0.00718140
N 21.98750894 15.04638138 1.22073221 0.00878880 -0.00403577 0.00236266
N 1.67027400 13.79095181 5.53653478 -0.00687075 0.00192136 -0.00207622
N 2.12323540 18.57192361 8.01289074 -0.00745436 0.00338069 0.00237363
N 3.90385123 10.20574109 3.46617388 0.00141110 -0.00496291 -0.00496819
N 1.44117537 13.39371494 1.26502850 -0.00611104 0.00226018 -0.00152798
N 0.37835426 15.67482580 6.05298940 -0.00329352 -0.00501258 -0.00300481
N 3.50128880 11.11126669 7.73574421 -0.00052404 0.00244510 0.00424181
N 2.32164410 18.13676780 3.06928920 -0.00215402 -0.00200015 -0.00076540
N 0.48856366 15.27836888 10.08158312 0.00131634 0.00194893 -0.00194164
N 1.61210353 13.91901466 15.09911407 0.00263570 0.00022337 -0.00335250
N 2.11139414 18.49976988 17.10178921 0.00138361 0.00975109 0.00454451
N 3.35706626 10.13057655 12.59603777 -0.00110224 0.00543710 -0.00174031
N 1.14307183 13.16491910 10.89793498 0.00468118 -0.00717985 -0.00069273
N 0.11678858 15.68700348 15.16337771 -0.00135526 0.00856798 -0.00433990
N 3.27436350 10.93901594 16.76403070 0.00308278 -0.00067124 -0.00270739
N 2.31310449 17.81359181 12.18415145 0.00186085 -0.00067360 0.00311232
N 0.23109101 14.83831890 19.67535607 0.00230643 0.00909960 0.00134975
N 1.46249742 13.80053710 24.02986857 -0.00649608 0.00016031 0.00338561
N 2.17982922 18.71481965 25.99224732 0.00364189 -0.00060029 -0.00840214
N 3.62185931 10.38669964 21.90941682 -0.00035939 0.00821758 0.00749569
N 1.34060540 12.76601069 19.60434267 0.00347919 -0.00478685 -0.00682675
N 0.29393814 15.80601512 24.32809017 -0.00497426 0.00219353 -0.00374101
N 3.60182987 10.80372989 25.77009887 -0.00419242 0.00305895 0.00508424
N 2.20323586 18.04533908 21.08064384 0.00457919 -0.00367528 0.00469655
N 21.97153884 24.54717869 1.20014533 -0.00215256 0.00172180 0.00199565
N 1.40255962 23.35943095 5.62414901 -0.00048485 -0.00043207 0.00105356
N 1.98678782 28.40674946 7.77042972 -0.00329528 0.00208111 -0.00587065
N 3.69275570 19.88931443 3.64337882 0.00538350 -0.00343912 -0.00692521
N 1.01795108 22.62096199 1.38274354 0.00670407 0.00060412 -0.00215047
N 0.26342483 25.30391893 5.90184901 0.00237356 -0.00996500 -0.00297246
N 3.43924569 20.45997199 7.55429861 0.00519978 -0.00368571 -0.00250196
N 2.38497471 27.19400365 3.04577586 -0.00658300 0.00294465 0.00065377
N 0.10534097 24.91198658 10.13029366 -0.00479211 -0.00133988 0.01099425
N 1.27841912 23.26555416 14.58824851 0.00102126 -0.00406146 -0.00304224
N 1.68144028 28.48140250 16.74496912 -0.00367356 0.00319292 -0.00120657
N 2.74907812 20.11741247 12.38151182 -0.00066477 0.00387171 -0.00348864
N 1.44414679 23.07717453 10.40801032 -0.00584147 0.00162709 0.00335099
N 0.60238487 25.45362697 15.04162351 -0.00176059 -0.00252416 0.00015534
N 3.07883602 20.56322465 16.95251879 -0.00332363 -0.00155411 -0.00190564
N 1.87426501 27.75844807 12.03315521 -0.00218050 0.00249266 0.00122043
N 0.98656357 25.28525794 19.43195531 -0.00255911 0.00746817 -0.00040752
N 1.62691381 23.21712501 24.22385766 -0.00279868 0.00374252 -0.00006929
N 2.39593510 28.17744042 26.01981118 0.00117952 0.00198020 0.00208849
N 3.61593282 19.91991736 21.41413991 -0.00261572 -0.00526163 -0.00308540
N 1.68769459 23.09504770 19.90522293 -0.00145797 0.00194954 0.00427843
N 0.28340079 25.15048588 24.36545616 -0.00129665 0.00275704 0.00508357
N 3.30354734 20.70638104 25.91975850 0.00103428 -0.00112281 0.00518418
N 2.52679531 27.67994000 21.03028719 -0.00319008 -0.00301003 0.00638453
N 4.19970139 5.65293077 1.05502186 -0.00936407 -0.00586429 0.00470775
N 4.67581678 4.03113812 5.38264662 0.00277195 -0.00408515 0.00646708
N 5.93928872 8.91355449 8.03205836 0.00580891 0.00199145 0.00489489
N 6.57060148 0.59416663 3.52720900 0.00215936 0.00069304 -0.00117442
N 4.95035203 3.47127284 1.34673599 0.00631519 0.00144106 0.00235584
N 3.80073259 6.13657108 5.93688205 0.00050926 0.00319672 0.00062817
N 6.97435107 1.37292323 7.74057446 0.00279410 -0.00838238 0.00291249
N 6.12381519 8.15290198 3.02204198 -0.00732916 -0.00084241 -0.00432752
N 3.93003655 5.61289419 10.32875747 -0.00298743 -0.00279209 -0.00384658
N 5.02299285 4.37434470 14.82113075 0.00040455 0.00173977 -0.00073294
N 5.48574781 8.91823320 17.18889798 0.00175588 0.00466843 0.00049143
N 6.98573818 0.59488382 12.20260363 -0.00091821 -0.00328736 0.00307175
N 4.86097780 3.56379107 10.60703895 -0.00011759 -0.00231752 0.00036617
N 3.49168342 6.04197675 15.41323561 -0.00081922 -0.00429147 -0.00759795
N 7.02068276 1.63903043 16.80173901 0.00085003 -0.00383476 0.00552945
N 5.91375757 8.36586136 12.36672641 0.00238613 -0.00702217 0.00131693
N 4.03037796 5.57821421 19.31398629 0.00153568 0.00553626 -0.00182257
N 5.55854676 4.14281626 23.80827833 0.00419744 -0.00407540 0.00569766
N 6.03144295 8.84510765 26.04005386 -0.00339025 0.00069324 0.00517735
N 7.11905367 0.62189974 21.63000207 -0.00317481 0.00128891 -0.00137295
N 5.02138419 3.55399921 19.61456751 -0.00284013 0.00154465 -0.00086581
N 4.32327292 6.03743023 24.12337721 0.00429779 0.00671897 -0.00235322
N 7.44006290 1.07965709 25.78131907 0.00742296 -0.00680492 -0.00444762
N 5.94127183 8.46814300 21.24440591 0.00767560 -0.00506650 0.00311650
N 4.03551237 15.44355741 1.01619749 -0.00019352 0.00391221 0.00404735
N 5.14800922 13.77274641 5.86483654 -0.00113277 0.00433755 0.00571995
N 6.08281357 18.58675522 7.89469070 -0.00415614 -0.00210684 -0.00364143
N 7.21782387 10.09403978 3.15262888 0.00438764 -0.00305861 -0.00017966
N 4.98764633 13.30501072 1.13561575 -0.00110446 0.00191768 0.00824498
N 4.38711708 15.89833752 6.38622974 0.00012392 -0.00340089 0.00194658
N 7.28702790 10.77351669 7.58526271 0.00003514 0.00593523 -0.00917157
N 6.01506979 17.99376189 3.06747443 0.00722215 0.00090370 0.00252302
N 3.96812662 14.86515841 10.49990653 -0.00160409 0.00403498 0.00047612
N 5.16208568 13.82793804 14.99566549 -0.00545045 0.00409456 -0.00369361
N 5.62117700 18.63100791 17.30269840 -0.00147943 -0.00607885 0.00245334
N 7.08880327 10.23123166 13.13204575 -0.00195547 -0.00253377 -0.00211507
N 5.44795289 13.01490673 10.82708021 0.00273805 0.01169369 0.00011426
N 4.04894251 15.85043895 15.40485661 0.00273225 -0.00373296 0.00084570
N 6.60940093 10.88182912 16.87446039 0.00140784 -0.00469623 0.00237316
N 5.60501813 18.13444572 12.23581076 -0.00739378 -0.00124562 0.00422353
N 3.72424473 15.00014585 19.36332231 -0.00099124 -0.01309665 -0.00087716
N 5.43702240 13.98696148 23.82817310 -0.00157568 -0.00106280 -0.00307604
N 6.16169353 18.44450889 26.21043246 0.00023499 -0.00090524 0.00486999
N 7.41967733 10.22387477 21.70551029 -0.00209911 0.00175080 -0.00538607
N 5.12160596 13.13273640 19.80165240 0.00205132 0.00110760 -0.00583442
N 4.00037536 15.82291210 23.99502318 -0.00308386 -0.00399076 -0.00370167
N 6.99897891 10.84392068 25.77290872 0.00000286 0.00683280 0.00022743
N 5.78074080 18.11522970 21.68652960 0.00486374 -0.00204534 -0.00788045
N 4.20297567 24.85771211 1.19544017 -0.00069151 0.00280736 0.00165450
N 5.15196022 23.41371210 5.76548949 -0.00414529 -0.00433629 -0.00062277
N 5.80944121 28.27329589 8.04259964 0.00685825 -0.00167346 0.00016700
N 7.26763162 19.82289904 3.39795133 -0.00126102 0.00122384 -0.00009498
N 5.42079609 22.89945819 1.61322472 -0.00099271 -0.00034307 0.00382537
N 3.83896194 25.22733603 6.31481853 -0.00150153 -0.00034253 -0.00598394
N 6.88947264 20.73841313 7.91186663 0.00406489 -0.00282944 -0.00391976
N 5.74430173 27.27401923 3.51500968 0.00518703 0.00566915 -0.00504974
N 4.33249127 24.88078193 10.26904109 0.00450281 0.00500084 -0.00119461
N 5.20494951 23.43614731 14.77644126 -0.00404667 -0.00098833 -0.00117515
N 5.52517545 28.66418876 16.76321849 0.00177472 -0.00232455 -0.00820798
N 7.22289839 19.64331996 12.78592482 -0.00248187 -0.00020907 0.00164299
N 4.98113105 22.65047490 10.47680651 0.00886574 -0.00133537 -0.00153106
N 4.06580672 25.36422009 15.05018469 0.00037677 -0.00329962 -0.00489384
N 6.70133092 20.49423143 16.63783407 -0.00396392 0.00251779 -0.00436213
N 5.76308804 27.53821983 11.82067674 -0.00297923 -0.00413154 0.00173982
N 4.26317802 24.77756341 19.09129881 0.00080253 -0.00167543 -0.00165391
N 5.49455384 23.32677590 24.07103367 0.00144188 -0.00366067 0.00115378
N 5.94651521 28.18525699 26.35859176 -0.00223076 -0.00029471 0.00611437
N 6.84393129 20.14982046 21.68850886 0.00651369 0.00764739 0.00222122
N 5.10346170 22.70278708 19.76695589 -0.00317248 -0.00001476 -0.00053656
N 4.21209930 25.21819093 24.24442617 0.00446890 -0.00068053 0.00184010
N 7.23786641 20.44144641 26.05186006 -0.00120864 -0.00112090 -0.00288357
N 6.02385735 27.51847955 21.44262944 0.00020238 0.00107179 0.00114825
N 7.73962955 5.08881194 1.38030983 -0.00319433 -0.00283959 -0.00390440
N 9.07634001 4.09195629 5.64722284 0.00544101 0.00335369 0.00036387
N 9.60276411 8.98194366 7.69324148 -0.00230377 -0.00823867 -0.00205459
N 10.33718355 0.73124460 3.70591667 -0.00121999 -0.00164914 -0.00023727
N 8.99032731 3.12492557 1.38283954 -0.00450292 -0.00914340 -0.00522516
N 7.83973470 6.00300338 6.17723569 0.01151519 0.00240855 -0.00212797
N 10.70597100 1.23252393 7.85432851 0.00576953 0.00033601 0.00042073
N 9.81376848 8.20780253 3.16230539 -0.00017467 -0.00738532 0.00408667
N 7.47884503 5.65889951 10.06265959 -0.00203196 0.00196232 -0.00440480
N 8.73586237 4.09042959 14.58448949 -0.00329460 0.00545475 -0.01049960
N 9.31623776 9.07392595 17.01740951 -0.00232184 -0.00333664 -0.00103217
N 10.35466019 0.77203186 12.79905439 -0.00270379 0.00299872 -0.00151568
N 8.53197331 3.64313589 10.61918104 0.00408589 0.00486536 0.01043475
N 7.62561393 6.10096595 15.03840136 0.00326702 0.01083386 -0.00252607
N 10.35412324 1.27804581 17.02649719 0.00558948 -0.00323804 -0.00117818
N 9.64679880 8.09751286 11.83567275 -0.00352798 0.00336645 0.00180552
N 7.76233186 5.76571306 19.25696039 -0.00040780 0.00179704 -0.00599537
N 9.14231917 3.92287327 23.93230316 -0.00456040 -0.00314624 0.00741571
N 9.50598164 8.66196447 26.20890134 -0.00825631 0.00136597 -0.00084778
N 11.11576562 0.76357402 21.97936109 -0.00044888 0.00556056 0.00511926
N 8.68431065 3.69080636 19.04429838 0.00357370 0.00444761 -0.00331643
N 8.02806272 5.97247725 24.20470073 -0.00171124 -0.00123216 -0.00078957
N 10.84838497 1.11724787 26.04740913 -0.00157410 -0.00300165 -0.00461288
N 9.77293231 8.19112116 21.34213525 -0.00432141 -0.00061108 0.00426028
N 7.51155083 14.84172275 1.27532670 0.00070966 -0.00004941 0.00158780
N 8.63792477 13.43936054 5.96860736 -0.00290818 -0.00397613 -0.00310339
N 9.54813461 18.58070580 7.95288035 -0.00133047 0.00337394 0.00125135
N 11.07359864 10.08768280 3.12370294 0.00909602 0.00840037 0.00384372
N 8.76539491 12.80694217 1.32099483 0.00138245 0.00204036 -0.00376506
N 7.77728057 15.64460241 6.17127301 -0.00226515 0.00210100 0.00307565
N 10.99284657 10.88844233 7.59725211 0.00321095 -0.00366083 -0.00358710
N 9.44992492 17.84007995 3.08922041 -0.00459359 0.00979208 0.00032838
N 7.90541779 15.10531723 10.31781744 -0.00783652 0.00051655 0.00263689
N 8.57754973 13.55429731 14.62206470 -0.00410399 0.00700307 0.00425951
N 9.25770249 18.31257818 17.04565255 -0.00408212 -0.00132213 -0.00055102
N 10.78232113 10.07185916 12.33607248 -0.00440110 -0.00084863 0.00431593
N 8.93046030 13.06264687 10.63023646 -0.00605327 -0.00107020 0.00197201
N 7.56844429 15.46817535 15.11318801 -0.00238117 -0.00666558 0.00005047
N 10.52935710 11.06913530 16.89513147 0.00088968 -0.00245233 -0.00353120
N 9.48805655 18.01142566 12.06002908 0.00534162 -0.00176303 -0.00068798
N 7.29780464 15.14498037 19.56037160 0.00189836 -0.00289199 0.00160587
N 8.85975879 13.57354668 23.83692399 -0.00061184 -0.00013144 -0.00253660
N 9.72808641 18.56107500 26.22707455 -0.00380971 0.00345012 -0.00782820
N 10.93521695 10.21700209 21.77797460 -0.00342516 -0.01009615 0.00396166
N 8.71570710 13.35534638 19.79981349 0.00344345 0.00416859 0.00084226
N 7.91336254 15.59160095 24.44224209 0.00327761 -0.00168986 -0.00269824
N 10.70967448 10.67838473 25.80420266 0.00730680 -0.00160279 0.00650873
N 9.62790750 17.80507007 21.52581035 -0.00172376 -0.00121980 -0.00154088
N 7.74364103 24.74749243 1.30632897 -0.01100443 -0.00345469 -0.00070771
N 8.86025145 23.70890314 6.03640412 -0.00087060 0.00031617 0.00645723
N 9.37218381 28.21763608 8.09806406 -0.00181000 -0.00295003 0.00151135
N 10.87958471 19.65225296 3.20086303 -0.00544531 0.00016661 -0.00414295
N 8.85769488 22.76293959 1.59817967 0.00002369 -0.00638894 -0.00516824
N 7.49879723 25.40289330 6.60772678 -0.00615581 0.00895652 0.00532111
N 10.53812158 20.67163331 7.41438500 0.00271031 -0.00048527 0.00009391
N 9.54071841 27.42890353 3.21830186 -0.00099146 -0.00207268 -0.00360725
N 7.29035035 24.73889677 10.70876325 -0.00239034 0.00133823 0.00104664
N 8.67422734 23.69474196 15.20308606 0.00252588 -0.00080791 -0.00523706
N 8.93279692 28.30841015 17.22881852 -0.00197232 -0.00032149 0.00032680
N 10.59596481 19.97286576 12.38000033 -0.00172028 -0.00692715 -0.00691214
N 8.78942035 22.82218300 10.78102319 0.00103325 -0.00658379 -0.00297350
N 7.37033968 25.60669739 15.19122174 0.00326083 -0.00818279 0.00201781
N 10.39034418 20.32844601 16.73977573 0.00072550 -0.00056764 -0.00368999
N 9.40870525 27.58356475 12.39567858 0.00067882 0.00257219 0.00095908
N 8.01572986 24.96043155 19.22829227 0.00975424 0.00048471 -0.00011451
N 9.40119726 23.35534959 24.10610616 -0.00104247 -0.00827816 -0.00091266
N 9.60778194 28.06539230 26.25924846 -0.00495436 0.01099421 -0.00053326
N 10.85650823 19.69082736 21.50871061 0.00005868 -0.00514679 -0.00031828
N 9.00278532 22.92176754 19.55230357 -0.00392957 -0.00727399 -0.00585543
N 7.84854971 25.15946198 24.47672093 -0.00324553 -0.00139222 -0.00082508
N 10.86335094 20.51612237 25.91090619 -0.00017754 0.00271399 0.00130810
N 9.63105009 27.83824054 21.84969305 0.00460143 -0.00204835 0.00390407
N 11.32370952 5.09022866 0.98739749 0.00412494 -0.00170736 -0.00744340
N 12.99082076 4.25765728 5.38881580 -0.00291661 0.00406062 0.00341896
N 13.19451425 8.87572471 7.82874610 0.00061376 0.00074248 -0.00262469
N 14.59739976 0.77092402 3.57803618 -0.00162536 0.00154824 0.00422063
N 12.64808745 3.27523329 1.59974830 -0.00110067 -0.00103284 0.00168547
N 11.69358820 6.11450850 5.77098540 0.00095535 0.00042627 0.00232292
N 14.50983131 1.28466010 7.63756533 -0.00371666 0.00426165 0.00248710
N 13.51945036 8.34550491 2.88271121 0.00588952 0.00497606 -0.00409518
N 11.29387208 5.32367935 9.65670896 0.00180331 -0.00189472 -0.00667516
N 12.42822853 4.00755829 14.76524214 -0.00154369 -0.00372645 0.00035369
N 12.77092453 9.08195705 16.79332498 0.00253270 -0.00009775 0.00078323
N 14.32278187 0.36762992 12.76981872 -0.00736965 0.00192127 -0.00097652
N 12.49837745 3.39230234 10.24629595 0.00169916 -0.00066931 0.00136535
N 11.30776039 5.90311044 14.78576142 0.00019791 -0.00240799 0.00528629
N 13.98254115 1.41904752 17.18524223 0.00245295 0.00206635 -0.00528316
N 12.99293720 8.44820875 12.07635429 0.00187325 0.00479595 -0.00313901
N 11.18927739 5.61074378 19.47094901 -0.00463780 0.00186361 0.00222653
N 13.06562929 4.16631682 23.84279740 0.00387582 -0.00109287 0.00989057
N 13.06441538 8.60140185 26.36871155 0.00435052 -0.00844624 0.00641975
N 15.12659756 0.56362715 21.46187808 -0.00775044 -0.00033673 -0.00113784
N 12.31605327 3.66240424 19.99685696 0.00093829 -0.00583234 -0.00349272
N 11.60187803 5.77433238 24.39496119 -0.00257686 0.00588466 0.00423769
N 14.55211269 1.24375410 25.80801471 -0.00198324 -0.00564887 -0.00232786
N 13.61984156 8.14610932 21.47898037 -0.00153754 -0.00010186 0.00155778
N 11.26735546 14.99875100 0.98805564 -0.00245233 -0.00083242 -0.00228362
N 12.43154316 13.69523453 5.20196001 0.00212831 0.00105655 0.00292673
N 12.96992017 18.47619348 8.26986476 0.00039633 -0.00450652 0.00005690
N 14.52901187 10.39568892 3.51612608 -0.00497921 0.00635486 0.00440771
N 12.53659397 13.02647468 1.01686338 -0.00522774 0.00861266 0.00476996
N 11.39002459 15.67342391 5.84028364 0.00378202 0.00561848 -0.00110601
N 14.30034407 10.76720277 7.46246581 0.00819865 -0.00254514 0.00838101
N 13.39430536 17.73863891 3.04666639 0.00079191 -0.00759901 0.00124103
N 11.05941554 15.11124214 10.06780969 0.00046003 0.00216340 0.00086926
N 12.35181772 13.77064083 14.90350802 0.00406576 0.00854203 -0.00081491
N 12.75731856 18.62194922 17.00163024 0.00032554 -0.00289344 0.00000616
N 14.30736724 10.33125059 12.42852963 -0.00573116 0.00450072 -0.01173616
N 12.24897559 13.14855737 10.36193907 0.00098828 0.00460157 -0.00027853
N 11.11965120 15.57702437 15.06748317 -0.00412691 -0.00320289 -0.00083734
N 14.27074571 10.83271262 16.65298874 -0.00227942 -0.00130838 0.00033168
N 13.04932187 18.29845752 12.41633421 -0.00620469 0.00264126 -0.00585204
N 11.15816388 14.93008598 19.60975140 0.00687703 -0.00639636 -0.00318153
N 12.81400898 13.46488994 24.17160511 0.00831814 -0.00152270 0.00081609
N 13.26493047 18.43430462 26.21378306 -0.00241913 0.00059099 -0.00640749
N 14.85421631 10.15311530 21.90880958 -0.00224057 0.00435788 -0.00036070
N 12.35124093 13.00182479 19.87265991 0.00062510 0.00254487 -0.00060095
N 11.73000181 15.50691502 24.10709683 0.00260990 -0.01082416 0.00015514
N 14.62024945 10.30339231 26.10702811 0.00436102 0.00152261 0.00224432
N 13.28141706 18.06784007 21.21424402 -0.00034334 0.00749505 0.00739370
N 11.33395774 24.68905269 1.22606809 0.00173377 -0.00505760 -0.00334454
N 12.51219560 23.33358300 5.47625600 0.00378659 -0.00028753 -0.00153581
N 13.21356383 28.27459336 8.04779951 0.00397431 0.00233798 0.00257065
N 14.50697908 19.66525660 3.40448375 -0.00521795 0.00168828 0.00700615
N 12.23382874 22.50080255 1.37436561 -0.00028414 0.00291033 0.00232321
N 11.51138648 25.26723622 6.32940940 -0.00127128 -0.00535663 0.00221999
N 14.19484733 20.43678178 7.93669988 0.00041852 -0.00662165 -0.00128563
N 13.49049932 27.51829861 3.29271059 -0.00008324 -0.00119734 0.00757343
N 10.98337999 24.61104946 10.20891254 -0.00734948 -0.00615646 0.00479748
N 12.48468903 23.31037090 14.98143255 -0.00063699 0.00240499 -0.00317252
N 13.07644617 28.18810322 17.29270887 0.00256259 0.00241675 0.00264368
N 14.66301702 19.98631038 12.74830940 0.00141524 -0.00195892 -0.00074675
N 12.50544287 22.87981630 10.82742625 -0.00218586 0.00279051 0.00032112
N 11.24821524 25.29889626 15.12993128 -0.00544138 0.00140069 0.00102240
N 14.04147516 20.59393638 16.79709443 -0.00697464 -0.00210413 0.00101243
N 13.01453670 27.33261953 12.45472429 -0.00035165 0.00471948 0.00029074
N 11.46601245 24.71516382 19.56348759 0.00278949 -0.00508928 -0.00239098
N 12.96217711 23.45621792 24.03237475 -0.00504243 -0.00208079 0.00098716
N 13.21793185 28.20382183 26.19120670 -0.00285557 0.00020540 0.00307259
N 14.65220892 19.89513211 21.30095975 -0.00222330 0.00082806 0.00161965
N 12.71811466 22.76269819 19.86716040 -0.00000581 -0.00256955 -0.00407094
N 11.70456128 25.38314784 24.57191006 -0.00480986 -0.00189502 0.00582260
N 14.35280276 20.57077443 26.02265283 -0.00467948 0.00137157 -0.00387952
N 13.62114640 27.54743979 21.25409660 -0.00176680 0.00321050 -0.00316119
N 14.88068042 5.26833306 1.43670322 0.01059950 -0.00708713 0.00286126
N 16.63945763 4.32297678 5.82170926 -0.00750491 -0.00303344 -0.00096523
N 16.58219739 8.77060240 8.18430746 0.00525878 0.00270909 0.00179645
N 18.00075172 0.63436594 3.57344760 -0.00087054 0.00023953 0.00168364
N 16.48427982 3.45041768 1.72433478 0.00626740 -0.00248881 0.00007662
N 15.37283594 6.19417704 6.29362349 -0.00054281 -0.00822350 -0.00092447
N 18.28177016 1.13369637 7.75465866 0.00364470 0.00040554 -0.00529152
N 17.51374789 7.97098722 3.66462638 0.00061515 0.00147543 -0.00877601
N 14.82434511 5.25958816 10.66737277 0.00337824 0.00033526 0.00322343
N 15.50764536 3.80688328 15.22703782 -0.00300486 0.00718441 -0.00205083
N 16.62568657 9.16441812 17.18138968 0.00062712 -0.00077728 -0.00543107
N 17.91982562 0.48566049 12.57064684 0.00229823 0.00133649 -0.00068348
N 16.19232756 3.38103764 10.74049450 -0.00217789 -0.00538251 -0.00575230
N 14.69894647 5.93700962 15.44249929 0.00224304 0.00808835 0.00057660
N 17.82918647 1.29262167 16.48941262 0.00312110 -0.00436117 0.00221276
N 16.57600235 8.26490514 12.29877327 0.00064643 0.00217523 -0.00346368
N 15.25710504 5.43060236 19.64945065 -0.00464757 -0.00046255 -0.00108252
N 16.75713252 4.19936735 23.92946062 -0.00393103 0.00053516 -0.00131014
N 17.20969446 8.58603339 26.47618154 0.01415604 -0.00450883 -0.00734678
N 18.49517292 0.58706359 21.84908016 -0.00288821 0.00491699 -0.00504776
N 16.51583510 3.44057835 19.53373901 -0.00720318 0.00034190 -0.00156980
N 15.37352034 5.95871285 24.63053568 0.00395405 -0.00261754 0.00156669
N 17.90685464 1.29751207 26.50368454 0.00158042 -0.00907932 -0.00446664
N 17.20210293 8.25882782 21.45671989 0.00602559 0.00031433 0.00811859
N 15.21811618 14.75633959 1.02016471 -0.00036713 0.00495159 0.00092602
N 16.25105119 13.51552254 5.78337211 -0.00441188 0.00155417 -0.00307776
N 17.00215636 18.47903091 7.86901083 -0.00311209 -0.00341222 0.00398419
N 18.34551813 10.14690722 3.52479950 0.00329050 0.00424042 0.00080432
N 16.35945161 12.68781655 1.31729672 0.00063150 -0.00145359 -0.00236720
N 15.02948329 15.51502128 5.97792092 -0.00145541 0.00352021 -0.00116823
N 18.08779279 10.48309909 7.89139646 0.00043913 -0.00297958 0.00747299
N 16.90292371 17.77551070 3.20305270 0.00743716 -0.00676655 -0.00242184
N 14.55600296 15.20370503 10.38102304 -0.00035166 -0.00552965 -0.00236638
N 15.76232755 13.54436614 14.79513646 -0.00151059 -0.00396374 -0.00207356
N 16.80780403 18.52905220 16.97263907 -0.00873936 0.00016271 -0.00474697
N 17.88437689 10.26124152 12.49711508 0.00934700 0.00362948 0.00013161
N 15.89045154 13.30989980 10.66332650 -0.00626128 0.00323727 0.00012514
N 14.68705796 15.55036897 15.10717911 -0.00320562 -0.00328429 0.00305816
N 18.01445649 10.91146506 16.80593823 -0.00388882 -0.00522967 0.00158886
N 16.83994806 17.84914623 12.03358777 0.00099495 -0.00156009 -0.00249386
N 15.02193685 15.15367445 19.48651890 -0.00464200 0.00377521 -0.00581463
N 16.37456737 13.90677964 23.90883150 -0.00185696 -0.00291753 0.00056152
N 17.15036299 18.18165250 26.31752025 0.00210695 -0.00185194 0.00508955
N 18.56549901 10.12795612 21.84566636 0.00073229 -0.00438834 0.00428382
N 16.27719493 13.22386276 19.49484995 0.00083475 0.00067502 -0.00512363
N 15.21502354 15.80700796 23.95416539 -0.00394026 -0.00318876 -0.00115621
N 18.13695336 10.62141588 25.79336226 0.00052460 0.00285632 -0.00244877
N 17.07561136 18.03507048 21.17177000 0.00677175 0.00195191 0.00123533
N 14.79754122 24.58790351 1.28145950 0.00540406 -0.00304189 -0.00428401
N 16.43430743 23.39080207 5.86380147 0.00140623 0.00411464 0.00150939
N 17.03913801 27.98420849 7.97105073 -0.00625998 -0.00362947 -0.00041540
N 17.94882388 19.80246862 3.44939437 0.00295464 -0.00240157 -0.00072847
N 15.97067344 22.67801042 1.72825210 0.00223133 -0.00340162 0.00440396
N 15.46984220 25.47148853 6.33897034 -0.00420621 -0.00005181 0.00474143
N 18.07836756 20.45354084 7.61173381 0.00289240 0.00480355 -0.00238739
N 17.11583246 27.34115085 3.18627873 -0.00212452 -0.00622831 0.00331202
N 14.98090345 24.90683359 10.43554453 0.00023639 0.00257186 0.00138929
N 15.95720523 23.65499605 14.74380642 -0.00067804 0.00530026 -0.00319561
N 16.42693789 28.39406335 17.35840465 -0.00076558 -0.00118880 0.00671079
N 17.95810126 19.80160426 12.55767267 0.00090128 0.00259133 -0.00122345
N 16.39621909 22.94126836 10.51908954 -0.00073602 -0.01148766 0.00547956
N 14.58051254 25.35114936 15.38198195 -0.00024309 0.00469723 0.00081160
N 17.63045248 20.64857725 16.66551096 0.00532459 0.00695820 0.00731769
N 16.85207393 27.35649531 12.13714963 -0.00496364 0.00966693 -0.00189420
N 15.24495724 24.93339345 19.53116582 -0.00010684 -0.00122358 0.00057448
N 16.47984818 23.01059129 23.99489898 0.00201914 0.00437801 0.00227968
N 16.82733152 28.07900155 26.50667495 -0.00409858 -0.00098234 0.00208729
N 18.43477912 19.85393709 21.66707451 0.00356876 -0.00363926 -0.00332413
N 16.23249482 22.99332342 19.73245676 0.00169230 0.00189160 -0.00358780
N 15.45645747 25.12548688 24.32440792 0.00045448 -0.00972303 -0.00294343
N 17.95684022 20.36852644 26.13339017 0.00472587 0.00741571 -0.00095484
N 17.44276762 27.57432833 21.13511677 0.00022034 -0.00175081 -0.00246867
N 18.72657595 5.38645619 1.18702430 0.00544157 0.00542378 -0.00276137
N 20.04259554 4.13751056 5.60581597 -0.00056932 0.00112517 0.00214896
N 21.18780480 8.92777690 8.33822448 -0.00137749 -0.00534157 0.00167253
N 0.05936188 0.71708662 3.26990664 0.00849167 0.00436284 0.00413687
N 20.09384726 3.53448933 1.17337744 -0.00386812 -0.00194660 -0.00848307
N 19.12059073 6.20928635 6.12288365 0.00160317 0.00166158 -0.00013268
N 21.82926225 1.37603352 7.81079760 0.00160914 -0.00393289 0.00054185
N 20.90279309 8.37758206 3.20575480 -0.00114091 0.00510228 0.00327928
N 18.64347421 5.62720529 10.16382094 -0.00252663 0.00658580 -0.00270524
N 19.68122588 4.68467062 14.88160171 0.00363853 0.00079367 0.00491961
N 20.24186538 9.33993051 17.39757512 -0.00568770 -0.00020427 0.00189109
N 21.75580417 0.85164472 12.34861593 0.00052307 0.00082363 -0.00051084
N 19.92771068 3.78004346 10.52686442 0.00097207 -0.00846735 0.00104004
N 18.47290298 6.52446134 15.40166652 0.00554339 -0.00246427 -0.00372068
N 21.46203962 1.44972692 16.64234295 -0.00178992 0.00793951 -0.00221570
N 20.41947068 8.46930028 12.49684094 -0.00440194 -0.00303950 0.00146974
N 18.93886457 5.60082883 19.54005675 -0.00679708 -0.00221501 0.00289933
N 20.29721516 4.04375923 23.94189251 0.00018636 0.00290409 0.00144669
N 20.79865504 8.96523791 26.31615832 -0.00447587 -0.00922135 -0.00409756
N 0.25003395 0.48534297 21.19394647 0.00154615 0.00591899 -0.00291077
N 19.81315632 3.46163778 19.76805876 -0.00498294 -0.00010362 -0.00040993
N 19.41689611 6.15878221 24.42728013 -0.00285094 -0.00335229 -0.00225641
N 0.11119466 1.15249444 25.51983829 0.00265803 -0.00059251 0.00300024
N 20.80440062 8.53192445 21.45498455 -0.00183785 0.00151001 0.00378029
N 18.55602393 14.86570397 1.37283510 -0.00350071 0.00090602 -0.00047285
N 20.04551718 13.67253157 5.64800100 0.00746256 -0.00166881 -0.00051265
N 20.34993000 18.42794655 7.91143707 0.00719971 0.01060326 -0.00414123
N 0.02530040 10.30376962 3.44894560 0.00554588 0.00386392 -0.00355824
N 19.83068770 12.95901770 1.76766406 -0.00391853 0.00311411 0.00337784
N 18.85290067 15.68037645 5.88803094 0.00019707 -0.00072615 0.00282812
N 21.82813226 11.02450384 7.68918488 -0.00348569 -0.00494216 0.00379629
N 20.64424903 18.12814127 2.91591183 -0.00143649 -0.00480785 -0.00190298
N 18.32185408 15.05564034 10.47124346 -0.00049009 0.00153522 -0.00096016
N 19.73737372 13.55612438 14.78433763 -0.00200072 -0.00566680 0.00743979
N 20.02919726 18.66660950 16.63819092 0.00158893 -0.00387064 0.00487297
N 21.71354678 10.36180114 12.85463233 -0.00831098 0.00019140 -0.00462708
N 19.58982989 13.22582228 10.84959004 -0.00843175 0.00493213 -0.00318876
N 18.35508963 15.35779966 15.06302560 0.00061568 0.00132739 0.00153058
N 21.77079389 11.02880318 16.86467977 -0.00168880 0.00617664 0.00293109
N 20.36706970 18.02776958 11.81190485 0.00530046 0.00475730 -0.00369066
N 18.58375933 14.98316246 19.29240215 -0.00572773 -0.00985762 0.00421862
N 20.06137554 13.56702800 23.99589694 -0.00296365 -0.00091706 -0.00212457
N 20.68363841 18.71012623 25.89185853 -0.00139668 -0.00936078 0.00299464
N 22.04582496 10.38454318 21.72767100 -0.00848568 -0.00311471 0.00066917
N 19.53722715 12.91402269 19.78625767 0.00448294 0.00219955 0.00143780
N 18.88857473 15.49474950 24.33327420 -0.00481582 -0.00117716 -0.00568174
N 21.89915339 10.92140956 25.99027152 -0.00137628 0.00983255 0.00694061
N 20.60712716 17.93291864 21.25500637 0.00161919 0.00257852 0.00214330
N 18.66049370 24.67937484 0.65875470 -0.00345079 -0.00092925 -0.00177243
N 19.98698209 23.03813617 5.08543131 -0.00226229 0.00217780 -0.00139057
N 20.68949717 28.20562794 7.79438351 0.00041754 -0.00254374 -0.00432063
N 21.80657149 20.13783159 3.34675684 -0.00431796 0.00055720 -0.00173750
N 19.72292865 22.59073208 1.03173508 -0.00035185 -0.00166985 -0.00558977
N 19.32073959 25.14633290 5.89524615 -0.00084171 0.00096090 0.00507080