1728
Time=1000.00000000 pbc="T T T" Lattice="22.54519525 0.00000000 0.00000000 0.00000000 27.82665363 0.00000000 0.00000000 0.00000000 27.33972123" energy=-10322.35806984 virial="-18.46800996 -4.25648424 10.97636343 -4.25648424 -22.72262924 -1.09564884 10.97636343 -1.09564884 -37.46610868" stress="0.00245264 -0.00017132 0.00052659 -0.00017132 0.00381640 -0.00006773 0.00052659 -0.00006773 0.00439700" Properties=species:S:1:pos:R:3:vel:R:3
N 0.69196053 5.38059695 1.17177486 -0.00117914 -0.00262618 -0.00080189
N 1.62527667 3.92921244 5.75546223 -0.00582060 -0.00071778 -0.00047683
N 2.11628464 8.74799811 7.85330944 0.00307985 -0.00609649 -0.00606188
N 3.30192035 0.55670438 3.49150965 0.00132566 -0.00318892 0.00493241
N 1.64761220 3.30326816 1.42785694 -0.00061472 0.00237132 -0.00399638
N 0.12642499 5.68387391 6.07832075 0.00186914 0.00122235 0.00368689
N 3.62461807 1.11782413 7.47054201 -0.00371952 -0.00140415 0.00892584
N 2.12579083 8.06378071 3.00118503 -0.00723923 0.00196117 -0.00111216
N 0.37854211 5.08484122 10.36044215 0.00149677 0.00006574 0.00189957
N 1.41068760 3.69497706 14.79457463 0.01040096 -0.00512955 -0.00693789
N 2.10648511 8.76692022 17.44042380 0.00409205 -0.00048093 -0.00726370
N 3.16523759 0.54516997 12.32125182 -0.00182437 0.00060904 0.00508354
N 1.45686043 3.14938228 10.44450204 0.00075742 0.00640568 0.00110090
N 0.19045038 5.60391979 15.50933199 0.00005771 0.00010275 0.00918292
N 3.46385314 1.07291949 17.03722414 0.00359455 0.00607081 -0.00417307
N 2.04197047 7.92217237 12.67810925 -0.00290423 0.00257520 0.00111598
N 0.14826304 5.51944676 19.34362903 0.00234615 0.00690413 -0.00000425
N 1.65421005 4.18936074 23.95984747 -0.00170978 0.00729415 0.00581571
N 1.95004035 8.95769607 26.23567946 -0.00356408 -0.00881647 -0.00093326
N 3.80828570 0.56628986 21.50778181 0.00388537 0.00082416 0.00281556
N 1.35799941 3.62856105 19.89944057 0.00690751 -0.00079874 -0.00372201
N 0.91397373 6.51006100 24.00708096 -0.00249238 -0.00175986 0.00103363
N 3.57147833 1.10758156 25.60483717 -0.00157443 0.00148932 -0.00386804
N 2.70557004 8.05340151 21.38162601 -0.00551992 -0.00186055 0.00144598
N 0.15668589 14.92878662 0.92811572 0.00013813 -0.00994239 -0.00011037
N 1.61706167 13.62911473 5.68638880 -0.00385944 -0.00288637 -0.00531298
N 1.79229766 17.77897318 8.08296834 -0.00302216 0.00155900 -0.01266095
N 3.12655134 10.05395477 3.38831758 -0.00304733 0.00111474 0.00583280
N 1.48631349 12.99113775 1.28237707 -0.00292428 0.00472564 -0.00976517
N 0.00670532 15.27728713 6.06258100 -0.00266969 0.00519509 0.00126726
N 3.38425257 10.62459249 7.67083157 0.00457645 -0.00338538 -0.00398179
N 2.24210205 17.59793224 3.17964343 0.00418067 -0.00023143 -0.00194646
N 22.39817987 14.38416912 10.18969233 0.00285200 -0.00451747 0.00175293
N 1.63583133 13.26622082 14.61505154 0.00115173 0.01087786 0.00275994
N 2.45164437 17.49254970 17.04245496 -0.00054546 0.00548139 -0.00329419
N 3.45030663 9.77693081 12.86350705 0.00086418 0.00757388 -0.00939646
N 1.30532380 12.63943510 10.31826627 -0.00480394 -0.00379986 0.00625042
N 0.32093395 15.10839879 14.94759758 -0.00163402 -0.00143435 -0.00089678
N 3.22780192 10.66194672 16.91286158 -0.00053489 0.00259413 0.00214001
N 1.88403060 17.39456516 12.18548279 0.00061542 -0.00270731 0.00446729
N 0.11821679 14.62786665 19.22862969 0.00305302 -0.00514371 0.00143012
N 1.80444169 13.21082203 23.68896440 -0.00867018 0.00079682 -0.00195309
N 2.12324955 17.69022692 26.35926641 0.00261773 0.01219105 0.00015586
N 3.16551314 10.27578085 22.09411322 0.00316858 0.00101365 -0.00393747
N 1.49581356 12.84739569 19.52133427 0.00087742 -0.00734982 -0.00543649
N 0.34110603 14.92953441 24.33761336 0.00083672 0.00688212 -0.00030871
N 3.30917943 10.77840565 25.85500747 0.00360890 -0.00324910 0.00844829
N 2.38064563 17.20896765 21.56194245 -0.00451456 -0.00278613 -0.00100604
N 0.23744536 23.65743369 1.17320431 0.00160914 0.00509689 0.00979868
N 2.05039739 22.46693350 5.74995289 0.00657893 -0.00288451 -0.00939389
N 2.38381222 27.03378314 7.79151201 0.00550496 0.00136379 0.00076227
N 3.49280249 19.48594329 3.64167337 0.00357159 0.00144242 -0.00020154
N 1.84875537 21.99970015 1.58212487 -0.00072505 0.01257170 0.00148790
N 1.03104550 24.45859533 5.94336462 0.00344838 -0.00088197 -0.00050886
N 3.46403861 19.37233965 7.64691000 -0.00502323 0.00654939 0.00840811
N 2.08095111 26.49497111 3.15592270 -0.00427142 -0.00729299 -0.00163462
N 0.14546367 23.80591721 10.10694795 -0.00664026 -0.00087784 0.00418211
N 1.55859940 22.72408654 14.98460825 -0.00137361 0.00787501 0.00854894
N 1.98778641 27.25556649 16.98365964 0.00123395 0.00483871 0.00109274
N 3.48938957 19.01524741 12.76785747 0.00463708 -0.00105070 -0.00119851
N 1.13120999 21.84242522 10.70304822 -0.00092696 0.00391798 0.00068530
N 0.46114136 24.75456500 15.21672141 -0.00110516 0.01337252 -0.00546260
N 3.25531299 19.69439071 16.74241663 0.00098146 0.00936379 0.00716659
N 2.12152684 26.43562994 12.11155851 -0.00134132 -0.00166368 -0.00296831
N 0.11780297 23.70227481 19.62217334 0.00236239 0.00366978 0.00283446
N 1.87957635 22.43306702 23.82008178 -0.00080082 -0.00589315 0.00723989
N 2.14570757 27.26454117 26.01513022 0.00531654 0.00019531 0.00221192
N 3.57835104 19.12614365 21.63050970 0.00123251 -0.00340256 -0.00457739
N 1.44872846 21.77085719 19.73844452 -0.00088906 -0.00082886 0.00208257
N 0.42245524 24.32156842 23.88360237 0.00652877 0.00006741 -0.00242423
N 3.45587174 19.59942629 25.96803929 -0.00527286 -0.00340805 0.00157705
N 2.33231070 26.67990576 21.35991819 -0.00177581 -0.00424380 -0.00059824
N 4.07362659 5.07284686 0.76356177 -0.00598433 0.00510930 -0.00655260
N 5.51696290 4.36103850 5.70038694 -0.00357364 -0.00225248 -0.00197391
N 5.77379633 8.58493185 8.05335424 0.00423274 0.00271751 -0.00243123
N 7.09624912 0.72517519 3.66552041 0.00373918 -0.00212987 0.01032576
N 5.04773187 3.14484007 1.51673626 0.00008028 0.00732682 -0.00126166
N 3.90357859 5.92360859 6.18637495 0.00184014 -0.00685996 -0.00057174
N 7.39956023 1.25575892 7.63380412 -0.00079691 -0.00404342 0.00506292
N 5.50385039 7.98981119 3.10706343 -0.00458766 0.00359066 0.01248594
N 4.23467922 5.25191263 10.31666470 0.00266370 -0.00717005 0.00611032
N 5.34412722 3.86858777 15.14454994 0.00566870 0.00248961 0.00543065
N 5.59452584 8.56358396 17.06325739 0.00395244 -0.00303203 0.00425566
N 7.18808399 0.55132719 12.70882285 -0.00504086 -0.00730179 0.00619738
N 5.79959415 3.54184029 10.20826312 0.00090855 -0.00316026 0.00762890
N 4.09251136 5.80774035 15.25020372 0.00203812 0.00374293 0.00284349
N 7.22757114 1.08470968 16.90982721 0.00219144 -0.00129533 -0.00433061
N 5.78104415 7.94415684 12.11405032 0.00276446 0.00339358 0.00202390
N 3.94441629 5.45652361 18.99454137 0.00668117 0.00294604 -0.00181280
N 5.86622338 3.92765544 23.57048831 0.00179476 0.00858684 0.00084552
N 5.59252865 8.78719226 26.25452309 0.00790333 -0.00503498 0.00420645
N 7.43765411 0.72893253 22.03380570 0.00049105 -0.00328233 0.00786971
N 5.09125146 3.75177843 19.95993849 -0.00644290 -0.00301810 -0.00863811
N 4.44778791 5.55825914 24.44414337 -0.00395252 -0.00754695 0.00109978
N 6.94972135 1.64385950 26.15306455 0.00948901 0.00029493 -0.01242812
N 5.86154444 8.07989513 21.60962815 0.00012380 0.00378908 -0.00882923
N 4.19424836 14.76958857 1.31399735 -0.00950670 -0.00336985 0.00203203
N 5.57586366 13.13745711 5.64008487 0.00422539 0.00203932 -0.00238004
N 5.85474043 17.79179332 8.24180432 0.00514198 -0.00172300 0.00269410
N 7.01682822 9.77732940 3.54424325 0.00352996 0.00219468 0.00222551
N 5.29958056 12.79400071 1.37846066 -0.01140111 0.00910910 -0.00885070
N 4.21307579 14.99446863 5.95467324 -0.00027251 -0.00053616 0.00334029
N 6.38378628 10.75201831 7.71572732 0.00251041 0.01198914 0.00128665
N 6.51807418 17.41247114 3.06753144 -0.00175556 -0.00185125 0.00214862
N 3.51527565 14.42694502 10.38247381 -0.00813476 -0.00225372 0.00128257
N 5.58180318 13.26836643 14.50951329 -0.00141283 0.00548010 0.00202557
N 5.97232316 17.90246907 17.26914312 -0.00298310 0.00092758 -0.00053216
N 7.17016498 9.81452918 12.62973669 0.00171459 -0.00037617 -0.00926725
N 5.09345568 12.78923197 10.77332090 -0.00482879 0.00225025 0.00520065
N 4.60354105 15.25339281 15.25063557 0.00694032 -0.00164851 -0.00010361
N 6.99381763 10.32356806 16.91647729 -0.01106241 0.00191306 0.00159712
N 5.73845725 17.31082984 12.16601038 -0.00034321 -0.00339338 0.00105163
N 4.06802004 14.71221350 19.70506002 0.00184479 -0.00610942 -0.00478205
N 5.29159104 13.10268797 23.98660909 -0.00802038 0.00477375 0.01030237
N 5.85305028 17.79401890 26.47330881 0.00536647 0.00275816 -0.00071240
N 7.12322201 9.97690637 21.61944423 -0.00033716 -0.00278686 -0.00254766
N 5.07615284 12.65802535 19.83284462 0.00244700 -0.00347245 0.00183709
N 4.04174106 15.06003801 24.00645396 -0.00385833 -0.00678218 -0.00934583
N 7.18301558 10.42312411 25.91818612 -0.00042609 -0.00197274 0.00487668
N 6.09008120 17.42662579 21.33599803 -0.00367820 0.00160794 -0.00059360
N 4.23541185 23.90101725 1.07278931 0.00126511 0.00020851 0.00326131
N 5.79331145 22.35852333 6.11220451 -0.00253865 -0.00476211 0.00166101
N 6.27161557 27.08703506 8.30599219 0.00479242 0.00075242 -0.00557818
N 7.38703765 19.43268825 3.88635543 0.00202726 0.00664422 0.00143059
N 5.18768624 21.96844564 1.77896480 0.00072094 -0.00424314 -0.00188650
N 4.50062520 24.17841181 6.34219824 0.00117346 -0.00375438 0.00559410
N 7.32611437 19.50837160 7.73566428 -0.00053912 0.00558011 -0.00008485
N 6.04529527 26.46512497 3.33919102 -0.00035067 -0.00186648 0.00482698
N 4.60279762 23.67732656 10.17807268 -0.00638015 0.00053302 -0.00979893
N 5.59374741 22.39719600 14.68587389 -0.00473418 -0.00751818 0.00154380
N 6.14176398 26.81296994 17.36746531 0.00183326 -0.00362034 0.00622401
N 7.24831419 19.03419562 12.78063952 -0.00248702 -0.00399621 -0.00439436
N 5.25118747 21.53935112 10.38741884 0.00540969 0.00097667 0.00910955
N 4.12320052 24.11335906 15.29433400 -0.00338146 0.00263434 -0.00128950
N 7.37426415 19.80133396 16.99121723 0.00921098 -0.00094472 0.00347594
N 5.95899191 26.51902967 12.24640187 0.00048731 -0.01267959 -0.00634916
N 3.68017895 24.10207304 19.32606680 -0.00221912 0.00469930 -0.00001958
N 5.52980145 22.50031509 23.92872459 -0.00343297 0.00146779 0.00402566
N 5.93409856 27.30846153 26.35877583 -0.00216481 0.00342148 -0.00079061
N 7.47162836 19.26634681 21.60900363 -0.01048485 -0.00552120 -0.00260406
N 5.06549914 22.22071755 19.57541218 -0.00026663 -0.00490445 -0.01184126
N 4.40036275 24.47078793 24.50571576 0.00664706 0.00796066 0.01382199
N 7.19337007 19.69997931 26.06246389 -0.00562551 -0.00082928 -0.00949613
N 6.18133493 26.78454658 21.44109295 0.00007419 0.00144297 -0.00051952
N 7.59100345 5.12493190 1.24857575 0.00017168 -0.00341186 -0.01107661
N 9.23739066 4.19890374 5.77456232 0.00601844 -0.00607576 0.00145353
N 9.51277009 8.91663365 8.42296281 0.00141012 -0.00117566 -0.00265945
N 10.79676149 0.87660709 3.55302468 0.00103785 0.00101051 -0.00758936
N 9.11487993 3.54533500 1.89546224 0.00120486 -0.00102680 0.00442790
N 7.96923678 6.08742478 6.04395641 0.00098858 -0.00571071 -0.00173593
N 10.93818317 0.98945606 7.62253840 -0.00413569 0.01032059 0.00339122
N 9.73506046 7.86789688 3.31338420 -0.00255950 0.00436125 -0.00058699
N 8.20620339 5.41462507 9.69130298 0.00168587 -0.00155862 -0.00067368
N 9.31756365 4.19512927 14.84856210 -0.00262654 0.00591483 -0.00304078
N 9.46193999 8.69197663 17.49215257 0.00131749 0.00587764 0.00456575
N 11.05071806 0.49958787 12.89799999 -0.00550531 0.00611426 -0.00971683
N 9.14964033 3.53626721 10.84640315 0.00394384 0.00388420 0.00013502
N 8.24090899 6.21349365 15.15075374 0.00078959 -0.00311373 0.00322163
N 10.91017085 1.34565658 16.92206394 0.00420764 0.00132647 0.00351269
N 9.85909292 7.77467375 12.38006467 0.00322105 0.00786370 0.00297210
N 7.75970527 5.31126142 19.44011213 -0.00503665 0.00164001 -0.00033967
N 8.88938753 4.21006368 24.12349869 0.00050507 0.00035591 0.00650034
N 9.58313318 9.11148504 26.83590480 -0.00066830 -0.00513965 0.00173477
N 11.12318977 0.90147244 22.09549717 0.00256708 0.00230539 -0.00123402
N 9.12645024 3.33281278 19.88588370 0.00205237 -0.00378716 -0.00043957
N 8.30192110 6.42917984 24.52839145 -0.00199804 0.00697432 0.00429246
N 10.79517954 1.64148728 25.78646668 0.00619072 -0.00517332 0.00261491
N 9.94175687 7.93203273 21.60436714 -0.00280063 -0.00044553 0.00232429
N 7.90265010 14.55643320 1.05741829 0.00451532 -0.00521615 -0.00210443
N 9.08864074 13.21082578 5.77126493 -0.00178730 -0.00513961 -0.00128551
N 9.72136999 17.74610821 8.21913496 0.00057252 0.00133387 -0.00595903
N 10.96366507 9.89088009 3.72307373 -0.00405978 -0.00832471 -0.00149687
N 8.34727985 12.35420204 1.73271765 0.00757492 0.01187137 0.00288275
N 7.73420075 15.11351595 6.03902182 -0.00353937 0.00519398 0.00279418
N 11.08549704 10.51037729 7.73064969 -0.00312724 -0.00061436 -0.00029955
N 9.90126429 17.28113412 3.29928226 -0.00163165 -0.00198454 0.00233777
N 7.93773607 14.64671811 10.51326926 0.00642863 0.00170577 -0.00110746
N 9.03785510 13.31265199 14.94793606 -0.00191044 0.00116333 -0.00167100
N 9.63785820 17.95439623 17.11338843 -0.00126866 0.00274773 0.00813606
N 11.21708027 9.60521161 12.64140848 0.00043435 -0.00483123 -0.00057313
N 8.77455930 12.58218104 10.15081410 -0.00222656 -0.01034613 -0.00674989
N 7.91367318 15.22654893 15.27045287 -0.00743793 0.00120544 -0.00310745
N 10.84206721 10.57265333 17.11630994 -0.00311795 -0.00962621 -0.00160528
N 10.18706981 17.15839181 12.29280387 -0.00004846 0.00009092 -0.00487617
N 7.74916291 14.47379099 19.35648919 0.00314365 -0.00272311 0.00632838
N 9.06396646 13.38867640 24.09280911 0.00141295 -0.01065506 -0.00378385
N 9.73143017 17.55935123 26.52257916 0.00183334 -0.00124428 -0.00557486
N 11.01969950 9.92073195 21.93296300 0.00206036 0.00179525 -0.00216217
N 9.04089507 12.70880040 20.24791655 -0.00080750 -0.00227407 -0.00571000
N 8.04202195 15.35079601 24.33695367 0.01277936 -0.00014568 0.00327762
N 10.98053849 10.76340579 26.09243062 0.00393089 -0.00225722 -0.00467707
N 9.88925478 17.63709489 21.42732153 0.00227172 -0.00047156 0.01022708
N 7.90817595 23.54666575 1.13310235 0.00129235 -0.00763318 0.01051355
N 9.17338239 22.16043550 5.56217517 0.00272384 0.00047978 -0.00294645
N 9.85430218 26.82064298 8.34631974 0.00065975 -0.00145076 -0.00501036
N 11.23508101 19.16364733 3.77092296 0.00138296 -0.00295432 0.00827240
N 9.38591300 21.76517112 1.43365424 -0.00771774 0.00391517 0.00542400
N 8.24277438 24.14967982 6.29973442 0.01218173 -0.01051779 0.00084180
N 11.18860445 19.28212406 7.45250979 -0.00876269 -0.00704990 0.00163452
N 9.54638302 26.92385501 3.27265100 -0.00028390 0.00964758 -0.00298342
N 7.61432620 23.49705880 10.42818416 -0.00029810 0.00744258 -0.00126866
N 9.20106066 22.74038693 14.82541956 -0.00711450 0.00505580 -0.00662871
N 9.54155268 27.35335931 17.18719850 -0.00392283 -0.01338810 0.00259638
N 11.30769969 19.25014470 12.59163727 -0.00217907 -0.00083127 -0.00077649
N 8.94094282 21.53908619 10.60280667 0.00651610 0.00186809 -0.00108060
N 7.84146204 24.47331276 15.23027731 0.00093830 -0.00762474 0.00140988
N 11.05183026 19.82532097 16.81530604 0.00214547 -0.00479872 0.00319410
N 9.95593633 26.44936822 12.04691708 0.00036697 0.00955308 -0.00206356
N 7.85195323 24.23157152 19.26941518 -0.00585688 0.00594422 -0.00788730
N 9.05356308 22.62343508 23.94040507 0.00156518 -0.00448193 0.00822404
N 9.51797354 27.54086877 26.18842607 0.00066556 0.00240315 -0.00044038
N 10.95538363 19.61587927 21.92062538 0.00284695 -0.00616583 -0.00015732
N 8.67977276 21.95015474 19.51226310 -0.00335509 -0.00133878 -0.00848187
N 7.68911799 24.44358763 24.43637538 -0.00150151 0.00086111 0.00154231
N 10.31970025 19.74136104 25.91822648 -0.00107900 -0.00446866 -0.00176498
N 10.11732463 26.63182442 21.47981046 -0.00109653 0.00569306 -0.00889109
N 11.54573744 5.27345547 1.14635198 -0.00196438 0.00994291 0.00176501
N 12.97661076 4.33600443 5.50596884 0.00016489 -0.00456423 0.00589212
N 13.31943820 8.37937388 8.63535162 -0.00422383 0.00300560 -0.00872778
N 14.61383669 1.04491213 3.76646040 -0.00355581 -0.00931843 -0.00305446
N 12.76438853 3.35082920 1.39043952 -0.00518695 -0.00565926 0.00440229
N 11.50961909 6.00486180 6.10530413 0.00078334 -0.00012595 -0.00613739
N 14.50574730 1.26508267 7.67929199 -0.00457419 -0.00474939 0.00054323
N 13.49911973 8.01603938 3.09030005 -0.00708218 -0.00288323 -0.00139516
N 11.62682001 5.27912553 9.76638403 0.00489283 -0.00363076 -0.00320334
N 12.96600898 4.00585984 14.63809083 -0.00191658 0.00125084 0.00605463
N 13.00572446 8.53160729 17.37012933 -0.00156054 0.00059945 0.00074730
N 14.74792658 0.36624341 12.96260976 0.00474950 0.01098674 0.00443819
N 12.69912591 3.40811968 10.56902817 0.00077183 0.00338479 -0.00300780
N 11.70983944 5.88131282 14.80106169 0.00162502 -0.00279482 -0.00225681
N 14.32870570 1.72811439 16.88441846 0.00102216 -0.00774895 -0.00680111
N 13.82525950 8.05826615 12.22632164 0.00066346 0.00214412 0.00368559
N 11.41404461 5.24561447 19.50859833 -0.00167072 0.00567939 0.00036278
N 13.08298502 4.02108789 23.71239486 0.00046267 -0.00055064 0.00783501
N 13.31746794 8.78310359 25.84699475 -0.00048281 -0.00118597 0.00115138
N 14.78066317 0.96929547 22.18792789 0.00312751 0.00541638 0.00565172
N 12.86104462 3.52031456 19.87806160 0.00456515 0.00269559 0.00372622
N 11.52535920 5.62087153 24.33854393 0.00379719 0.00650989 -0.00420288
N 15.30486573 1.26161668 25.85065361 -0.00182095 0.00622390 0.00711856
N 13.85760160 7.88572874 21.13979587 -0.01097520 0.01305839 0.00355667
N 11.54767936 14.42191836 0.93378623 -0.00017681 -0.01005960 0.00059299
N 12.92820355 13.37734901 5.83975813 -0.00044604 0.00045326 0.00945622
N 13.72094640 17.57634857 7.99402025 -0.00299754 -0.00142210 0.00401024
N 14.61601092 9.98983191 3.53207246 0.00254034 0.00219651 -0.00391284
N 13.05655796 12.58186670 1.31461477 -0.00040936 -0.00790833 -0.00026185
N 11.45129688 15.07532415 6.10089009 -0.00611697 0.00306441 0.00497600
N 14.63668362 10.19520926 7.71450823 -0.00196776 0.00051269 -0.00186982
N 13.47647155 17.41890151 3.10792426 -0.00487465 -0.00648465 -0.00045608
N 11.37701760 14.03471471 10.49693973 0.00088737 -0.01033397 0.00151634
N 12.74666815 13.17176275 14.52181236 0.00735036 -0.00028807 0.00086063
N 13.36751882 17.77923160 17.06470872 -0.00464543 -0.00622439 0.00231844
N 15.04011002 9.85270099 12.97454779 -0.00335244 -0.00120961 0.00121784
N 12.93053773 12.31809171 10.74991815 0.00179207 -0.00044000 0.01350447
N 11.79404005 15.05976881 15.42749904 -0.00453469 0.00539857 -0.01190458
N 14.37586737 10.31335140 16.49042063 -0.00091706 0.00425320 0.00737810
N 13.41856842 17.27155501 11.96254485 -0.00209415 0.00529957 0.00451335
N 11.36836699 14.61546558 19.12248536 -0.00009494 -0.00970234 -0.00771947
N 12.60265425 13.15666443 23.42448873 0.00060233 -0.00595614 -0.00734250
N 13.04168735 18.06690780 26.32797387 0.00000751 0.00594641 0.00315320
N 15.08690130 9.86333469 21.41033297 -0.00741317 -0.00168239 -0.00098224
N 12.74003095 12.90173452 19.65536553 -0.00444896 0.00684537 0.00425743
N 11.82640502 15.29947024 23.99246913 -0.00256033 0.00282729 -0.00067423
N 14.63701478 10.59016936 25.71719720 0.00326010 -0.00275013 -0.00399469
N 13.48031734 17.27608564 21.29009260 -0.00284802 -0.00031821 0.00653277
N 11.36850456 24.38368106 1.20096000 -0.00620225 0.00218503 -0.00015700
N 13.24591953 22.65575268 5.26263288 0.00244849 0.00215776 -0.00304394
N 13.51877201 27.06071420 7.82080596 0.00008108 -0.00343700 0.00754799
N 14.83710205 19.19660418 3.62319680 -0.00012069 -0.00023393 0.00192944
N 12.44882487 22.33783102 1.56316019 -0.00103811 0.00318322 -0.00390817
N 11.85590839 24.32548945 5.94434433 -0.00804035 0.00234659 0.00145984
N 14.58459465 19.78190583 7.74003008 -0.00048971 -0.00141202 -0.00239222
N 14.34855059 26.81464433 2.77762058 0.00187288 -0.00099282 -0.00461023
N 11.66871680 23.80570511 10.23440632 -0.00151215 -0.00284236 0.00569944
N 12.94002044 22.71487876 14.92302698 0.00152727 0.00442901 0.00298921
N 13.20913322 27.54776676 17.32552270 -0.00222600 0.00782734 0.00461576
N 14.83220811 19.14395016 12.30930110 0.01001800 -0.00209007 0.00126129
N 12.94514859 21.87225636 10.57696904 -0.00053611 -0.00207360 0.00148125
N 11.60838999 24.50938068 15.41207532 0.00138536 -0.00346257 -0.00500138
N 14.78661356 19.55026359 16.76317127 0.00501249 0.00064255 0.00111283
N 13.39384259 26.49110871 12.50780667 -0.00415698 -0.00266605 -0.00185781
N 11.40107125 23.66660666 19.58817334 -0.00698249 -0.00479912 0.00046141
N 12.76148025 22.57853133 23.74369998 -0.00388490 0.00173629 0.00145165
N 14.06140675 27.25802971 26.46477904 -0.00153705 0.00191961 0.00085858
N 14.64881380 19.10670452 21.88736969 0.00492305 -0.00263200 -0.00233068
N 12.65852922 21.82734277 19.83318123 0.00589337 0.00035960 0.00050272
N 11.59856610 24.48007944 24.37168646 -0.00079381 -0.00762224 0.00598416
N 14.53338348 19.72417228 26.04303946 0.00064041 -0.00636555 -0.00306859
N 13.54572982 27.04319371 21.51093272 0.00388376 0.00066253 0.00693710
N 15.11589826 5.41532754 0.88423869 0.00328811 -0.00330040 0.00582282
N 16.38223333 4.04342341 5.38325199 -0.00269600 -0.00164793 -0.00146005
N 17.25019215 8.81613591 8.16402032 0.00437775 -0.00308030 0.00047083
N 18.46610141 0.89519039 3.86141722 0.00023433 -0.00437527 -0.00712650
N 16.42207604 3.41380857 1.28439955 -0.00231481 0.00210672 -0.00006755
N 15.45501638 6.15236948 5.58903606 -0.00438932 0.00065689 0.00527706
N 18.10059655 1.89395492 7.94586958 -0.00637751 -0.00549102 0.00429812
N 17.08768636 8.72472283 3.14350094 0.00369609 0.00275140 0.00395607
N 15.53268181 5.34222068 10.01701841 -0.00575372 -0.00597854 0.00147396
N 16.55957052 3.91842482 14.55455142 -0.00201902 0.00214691 0.00256557
N 16.85087344 8.67871207 17.22451779 0.00173312 0.00259158 -0.00161649
N 18.29452083 0.39900704 12.44197941 0.00274879 -0.00721181 0.00155568
N 16.05491100 3.14539438 10.75508369 0.00798235 0.00032051 0.00794701
N 15.46916192 5.91339088 14.89692061 0.00568505 0.00800413 0.00323618
N 18.10063296 1.29808516 16.57566048 -0.00103245 -0.00509371 -0.00699031
N 17.38760422 8.07922226 11.87010090 0.00467350 -0.00331426 -0.00738154
N 15.21790718 5.20228229 19.39168385 -0.00304062 -0.01029242 -0.00407655
N 16.76540686 3.99912343 23.71793548 0.00491179 0.00277111 -0.00606779
N 16.98031450 8.49109820 26.77432265 0.00308213 -0.00253445 0.00211067
N 18.62933520 0.66186284 21.52510161 0.00034103 0.00676030 0.00489137
N 16.62595590 3.41551304 19.63401729 0.00152917 -0.00126866 -0.00906334
N 15.33616604 5.82498918 24.14917498 0.00041804 0.00175112 -0.00632087
N 18.69885220 1.24297671 25.77799327 0.00373805 0.00388317 0.00348370
N 17.45799796 8.19561269 21.42789830 -0.00372901 -0.00095599 0.00007270
N 15.45524984 14.44864839 0.88125969 -0.00562715 0.00522472 0.00469786
N 16.94612495 13.01103347 5.83592371 -0.00193249 -0.01107347 0.00804165
N 17.02308389 17.98219939 7.88079546 0.00342186 0.00144892 -0.00028495
N 18.51976998 10.25914462 3.92735385 0.00490644 -0.00621077 0.00365718
N 16.73102606 12.70481837 1.73754483 -0.01171774 0.00648696 -0.00271455
N 15.81532426 14.97439059 6.16040441 -0.00532074 0.01080239 0.00791464
N 18.70842311 10.34066240 7.47330496 0.00471927 0.00746410 0.00297899
N 17.36348352 17.32173652 3.08306477 0.00599110 0.00949358 -0.00271760
N 15.04027273 14.53463995 9.80389147 0.00460001 0.00472489 0.00417829
N 16.45123180 12.97082178 14.41593481 -0.00048256 -0.00141502 -0.00110826
N 17.15634949 17.84657834 16.54900777 0.00157773 0.00240327 0.00408000
N 18.52233001 9.94109436 12.61355076 -0.00379599 -0.00342691 0.00033958
N 16.28015643 12.74949621 10.63226358 0.00417147 -0.00029293 -0.00498483
N 15.11083311 14.88523731 14.74246406 -0.00517968 -0.00296157 0.00976872
N 18.22783101 10.31035504 16.44836488 -0.00149187 -0.00518184 0.00136352
N 17.07120545 17.19027326 11.92989145 -0.00120580 -0.00545640 0.00226322
N 15.21662665 14.75732764 18.72043462 -0.00129608 0.00073729 0.00508341
N 16.54528879 13.34166828 23.07240706 0.00004254 0.00485089 0.00247895
N 17.10215190 17.97638752 26.36384535 0.00198863 -0.01161536 0.00403518
N 18.51090048 10.22436856 21.69274455 0.00238222 0.00250098 -0.00917934
N 16.48623603 12.79624211 19.28222483 0.00107590 0.00055658 0.00701203
N 15.42708937 15.12205282 24.05160490 -0.00457752 0.00763621 -0.00292254
N 18.29231944 10.24133402 26.01683849 -0.00107024 0.00031055 -0.00073497
N 17.39609039 17.03368602 21.01988062 -0.00465176 -0.00911490 -0.00043955
N 15.34537666 23.58501901 1.06044339 -0.00828122 0.00542325 -0.00736023
N 16.86341005 22.78594813 5.72720369 -0.00147955 0.00191817 -0.00137605
N 17.13381675 27.65509906 7.71290480 -0.00072822 0.00056372 0.00226706
N 18.62833025 19.22804843 3.40243520 -0.00028002 0.00724440 0.00462802
N 16.47127796 21.55854285 1.38191319 -0.00963611 0.00023451 0.00039708
N 15.61674497 24.65865243 5.59165639 0.00030177 0.00565226 -0.00579017
N 18.35025963 19.84921588 7.66045096 -0.00471082 0.00580368 -0.00262717
N 17.64670647 26.68304586 2.91798761 -0.00038322 -0.00056247 0.00568501
N 15.23126874 23.59767109 9.56031207 -0.00510232 -0.00217316 0.00256921
N 16.45527771 22.26409077 14.45134701 -0.00056432 0.00249733 0.00817850
N 16.74489498 27.26151974 17.06737719 0.00446916 0.00303335 -0.00127336
N 18.38850078 19.08438898 11.97509324 0.00545594 -0.00002774 -0.00093677
N 16.52679781 21.92211361 10.45767422 -0.00143842 0.00890574 -0.01004737
N 15.47742781 24.33429691 14.88122062 -0.00219490 0.00202392 -0.00340710
N 18.42775914 19.72951074 16.38209591 0.00091337 -0.00021812 0.00791525
N 17.00132917 26.25838667 12.02636687 -0.00094200 0.00022733 -0.00536395
N 15.14297750 23.91514269 19.27266393 0.00279991 -0.00329896 0.00815924
N 16.77741539 22.58831924 23.70561269 -0.00015214 0.00173198 0.00555802
N 17.56927688 27.10855000 26.65667141 -0.00141739 -0.00798167 -0.00617383
N 18.42617108 19.08210339 21.38547432 -0.00777511 -0.00458853 -0.00924227
N 16.46736845 22.02715691 19.55940427 0.00236719 0.00274577 -0.00982272
N 15.60576415 24.37874033 24.53112504 0.00158954 0.00050163 -0.00428406
N 18.66166819 19.72255346 25.86925111 -0.00221209 -0.00384054 -0.00500817
N 17.41899188 26.52258395 21.32440384 0.00100653 0.00247546 0.00210621
N 18.87855480 5.01548227 0.75233156 0.00218027 -0.00563695 -0.00722525
N 20.28182567 4.11039644 5.40627394 -0.00291002 0.00799018 0.00626737
N 20.94779710 8.71934043 7.84050789 -0.00000609 -0.00233219 -0.00343616
N 22.34423752 0.77584630 3.31315209 -0.00697630 -0.00055750 0.00108782
N 19.98880047 3.34642116 1.79029630 0.00070066 -0.00559789 -0.01452162
N 18.87009011 5.92789030 5.76532488 0.00096092 0.00128343 -0.00590773
N 22.45211347 1.13245667 7.51169259 -0.00025087 -0.00624557 0.00203127
N 21.04753977 8.38274074 2.69948507 -0.00624742 -0.00192358 0.00653173
N 19.07161936 4.89223133 10.12326269 0.00467313 -0.00040835 -0.00489461
N 20.26524123 3.86776865 14.66133673 0.00365517 0.00164940 -0.00010071
N 20.83891071 8.64815497 16.98770333 0.00137017 -0.00459248 0.00200666
N 22.44288072 0.72403164 12.49976013 -0.00628514 -0.00350078 -0.00153455
N 20.39047312 3.05270953 10.59939211 0.00726247 -0.00031706 0.00520240
N 19.47439524 6.07491337 14.95002178 -0.00168107 -0.00222888 0.00766530
N 22.26793054 1.25396365 16.74788788 0.00538977 0.00223111 0.00504831
N 21.02100891 7.97270025 11.96587452 -0.00280622 0.00379727 0.00576603
N 18.97869233 5.37607232 19.33881911 0.00669057 -0.00417875 0.00682579
N 20.32605133 3.92698262 23.94320387 0.00045417 -0.00000202 0.00195318
N 20.95404568 8.83100479 26.10172228 -0.00017851 0.00641656 -0.00315698
N 22.33287643 0.57373563 21.49999650 0.00166874 -0.00245383 0.00221939
N 20.39443865 3.47006080 19.66087231 -0.00483736 -0.00302821 0.00530319
N 19.38523009 5.98215201 24.38326243 0.00291366 -0.00421134 0.00008229
N 0.08629141 1.43266841 25.82570678 0.00230605 0.00961445 -0.00734452
N 20.82753897 8.41758517 21.36153565 -0.00933574 0.00179489 -0.00276597
N 18.89177337 14.39300106 0.75327673 0.00508568 0.00722652 -0.00057008
N 20.45679987 13.21805192 5.26750454 -0.00296705 0.00124030 0.00627634
N 20.87539444 17.78048880 8.19011760 -0.00589127 -0.01081379 0.00059000
N 22.54355141 10.05706064 3.22428747 -0.00015450 0.00444875 -0.00410272
N 20.10711658 12.51999245 1.35079721 -0.00227942 0.00504463 0.00765950
N 19.17126111 15.04617092 5.58723188 -0.00071842 -0.00518132 0.00581167
N 22.24618784 10.52978109 7.39043617 -0.00420610 0.00397550 0.00491597
N 20.83511924 17.42293633 3.23243227 0.00333682 0.00007025 -0.00396149
N 18.63101859 14.41436522 9.52645578 -0.00726426 0.00213377 0.00587141
N 20.21761975 12.79948188 14.13601236 0.00541450 -0.00259609 -0.00306269
N 20.81649947 17.80374271 16.97357628 0.00346272 0.00403910 0.00013371
N 21.99704025 9.99826448 12.38341304 -0.00360852 -0.00300674 -0.00167744
N 19.97504425 12.61919842 10.17150462 0.00468025 -0.00129496 0.00016538
N 19.09767291 14.83131156 14.74768384 -0.00120707 -0.00016576 -0.00671728
N 22.21752063 10.37589352 16.55513031 0.00258931 -0.00190412 0.00318066
N 20.74067554 17.24373235 11.95189951 -0.00081257 0.00222922 -0.00341165
N 19.08051313 13.94209073 19.08180204 -0.00672774 0.00509065 -0.00181256
N 20.42449733 13.34862228 23.61043291 0.00860068 -0.00068992 0.00029845
N 20.96583395 17.64196143 26.07761786 0.00062801 -0.00441512 -0.00225819
N 22.20940152 10.36673809 21.74156511 -0.00144959 0.00151277 -0.00523665
N 20.38293753 12.09606723 19.57100788 -0.00314002 -0.00909961 -0.00106833
N 19.08489605 15.02386511 24.25846708 -0.00006832 -0.00543974 -0.00489965
N 21.68791248 10.97379704 25.73452849 0.00410222 0.00160065 0.01418913
N 21.00462131 17.32650132 21.40750169 0.01015869 0.00817560 0.00010045
N 18.86590304 23.70507740 1.09273793 0.00024118 -0.00014753 -0.00435819
N 21.14307440 22.52876962 5.54018598 -0.00255684 0.00297346 0.00176821
N 21.04094857 27.21447732 7.95587551 -0.00214544 0.00594217 0.00546172
N 22.28467284 19.30248160 3.21808402 0.00140759 0.00581467 -0.00251183
N 20.36660496 21.87457498 1.37221613 0.00267054 0.01055992 0.00503477
N 19.55144521 24.23859293 5.73580140 0.00070557 -0.00395940 -0.00247302