1728
Time=74000.00000007 pbc="T T T" Lattice="22.04817267 0.00000000 0.00000000 0.00000000 28.90136131 0.00000000 0.00000000 0.00000000 27.62832611" energy=-10388.91288316 virial="16.21501857 13.73442659 10.64735406 13.73442659 -14.30397969 3.19895843 10.64735406 3.19895843 49.81762965" stress="0.00314788 0.00084113 0.00056734 0.00084113 0.00182389 0.00026899 0.00056734 0.00026899 0.00548083" Properties=species:S:1:pos:R:3:vel:R:3
N 0.17732424 4.79820025 1.19656094 -0.00212294 0.00278270 0.00290088
N 1.57685977 3.98831807 5.68968201 -0.00273270 -0.00737829 -0.00275403
N 2.23314815 8.82226165 8.15636029 0.00550986 -0.00352770 -0.01037349
N 3.51217375 0.82335194 3.40973783 0.00109481 0.00223912 0.00947558
N 2.07100928 3.60996555 1.78945473 0.00847535 -0.00080085 -0.00257022
N 0.39139705 5.86124089 6.28931707 -0.00829484 -0.00242518 0.00073200
N 3.39679786 1.35235969 7.90231020 -0.00362497 0.00248558 0.00055322
N 2.35031761 8.01117851 3.31603823 0.00921098 0.00279578 -0.00470152
N 0.52913373 5.79421112 10.43892200 0.00773717 0.00366970 0.01318327
N 1.60992134 4.33201018 15.34210198 0.00687313 0.00198087 0.00392751
N 1.95531146 8.99602572 17.58113025 0.00249924 0.00737655 0.00027146
N 3.25729030 0.87310438 12.86157560 0.00320454 0.00003985 0.00482784
N 1.39980774 3.70122412 10.94920927 0.00153030 -0.00175127 0.00393334
N 0.28359378 6.19343189 15.55231280 -0.00248397 -0.00389996 0.00104382
N 3.46913593 1.12288937 16.60993947 -0.00640413 0.00191380 0.00251721
N 2.38155225 8.42519332 12.55253375 0.00216944 0.00438422 0.00789263
N 0.20418503 5.28697613 19.56913837 -0.00014102 0.00027791 0.00423391
N 1.77107230 4.05999013 24.45103501 -0.00038223 0.00330213 0.00225008
N 2.18575776 8.80659161 26.37458036 -0.00142762 0.00417988 0.00139316
N 3.32012286 0.72980686 21.90241109 -0.00415601 -0.00494841 0.00074259
N 1.25008721 3.16985593 19.91260984 0.00397576 0.00112669 -0.00187320
N 0.34939627 5.92919649 24.48886446 0.00468801 0.00245966 -0.00427936
N 3.42787537 1.36399061 26.31392267 0.00241765 -0.00347453 -0.00133579
N 2.18310973 8.34044153 21.35261045 0.00031810 -0.00265566 0.00426303
N 0.11398752 15.10462633 1.39979192 0.00638397 -0.00238849 -0.00376146
N 1.67873954 13.83094053 6.04348000 -0.00793309 0.00240080 0.00190337
N 2.08961214 18.64990297 7.83831709 -0.00268004 -0.00402278 0.00175307
N 2.95400738 10.27457119 3.58425829 0.00017195 -0.00103716 0.00325759
N 1.45205346 13.26651836 1.67911719 0.00238936 0.00341483 -0.00203663
N 0.42614123 15.82247359 6.25472571 0.00012732 -0.00249560 -0.00056606
N 3.26135436 10.87464905 7.70963251 -0.00411842 -0.00042231 -0.01081180
N 2.16230554 18.05667903 3.20433758 -0.00411467 -0.00370628 -0.00257224
N 0.30121507 15.01733516 10.57481056 0.00653056 -0.00436646 -0.00497741
N 1.75667821 13.83451490 15.48659325 0.00085399 0.00710239 -0.00401285
N 2.06572868 18.54883384 17.48470631 -0.00243886 -0.00591882 -0.00238659
N 3.41604952 10.42231350 12.68730265 -0.00311813 -0.00403747 0.00290829
N 1.68747826 13.12488923 10.37376860 0.00242708 0.01059515 0.00031242
N 0.27329845 15.67589580 15.67587056 -0.00147348 -0.00292501 -0.00256405
N 3.21741479 10.88516468 17.03445825 -0.00164282 0.00354799 0.00170933
N 2.31717835 17.88649834 12.54570733 0.00384521 0.00212446 0.00455882
N 0.13111211 14.85425452 19.81190993 -0.00366822 0.00140053 0.00066955
N 1.72755434 13.74026580 24.46662559 0.00293822 0.00095127 0.00654259
N 2.12246052 18.50760503 26.53816854 0.00713322 -0.00173693 -0.00353995
N 3.88795432 9.79747074 21.96992245 -0.00113686 -0.00204662 -0.00509649
N 1.37140895 13.03193419 20.31249792 -0.00453232 0.00335990 0.00327775
N 0.59827396 15.83114321 24.48616720 0.00696533 0.00594606 0.00093422
N 3.21549788 10.85174473 26.42539993 0.00373322 -0.00366338 0.00091939
N 2.22503952 18.05949343 21.63904887 -0.00171905 0.00059789 0.00423215
N 0.05270629 24.63023413 0.93161299 -0.00243563 -0.00036310 -0.00168695
N 1.46041373 23.34325924 5.48776380 -0.00411922 0.00506374 0.00059352
N 2.18690207 28.29109448 7.68579825 -0.00298300 0.00433816 0.00198233
N 3.51274464 19.98550650 3.43242091 -0.00045580 -0.00525491 -0.00395317
N 1.69084626 23.02415712 1.44042175 -0.00345414 0.00291910 -0.00484616
N 0.37224137 25.33640946 6.05838722 0.00757736 -0.00592244 0.00365602
N 3.30884404 20.57828185 7.67937803 -0.00365992 -0.00201283 -0.00995794
N 2.37570707 27.64823607 3.14393812 -0.00263859 0.00248462 0.00093003
N 0.20699176 24.81771625 10.08670961 0.00308184 -0.00662008 -0.00205058
N 1.21115661 23.66303870 14.64934274 0.00002604 0.00201570 -0.00266758
N 2.03286102 28.26992522 17.09855195 -0.00386265 -0.00122672 -0.00219002
N 3.09472789 19.96794053 12.54843903 0.00038835 -0.00712333 0.00343646
N 1.41443410 22.93562860 10.59372246 -0.00348729 0.00242422 0.00227536
N 0.22565624 25.76117244 15.08872642 0.00643181 0.00926649 0.00397179
N 3.09071415 20.62987625 17.08044939 -0.00077927 -0.00640935 0.00363675
N 2.29648187 27.75784123 12.31335048 -0.00034161 -0.00705524 0.00043764
N 0.08899023 24.98868372 19.68219655 -0.00157943 -0.01025767 -0.00146660
N 1.85721567 23.54903362 24.01617411 -0.00251656 -0.00631659 0.00433641
N 2.16497820 28.34737259 26.39041896 0.00435065 -0.00292558 -0.00291100
N 3.64349693 19.82935636 21.92527179 -0.00008550 -0.00414440 0.00016703
N 1.39258549 23.12004665 20.07513724 -0.00405812 0.01315410 0.00193477
N 0.54578762 25.51415779 24.23971042 0.00168207 0.00770217 0.00240460
N 3.15333741 20.55644355 26.03713522 0.00573973 0.00211163 0.00537932
N 2.00123951 27.83728902 21.37603830 0.00171311 0.00033869 0.00274150
N 4.03344378 5.49657540 0.78083989 -0.00281357 0.00545516 -0.00406471
N 5.37825195 4.08074154 5.63183243 0.00193092 -0.00372075 0.00309467
N 5.54933893 8.85654771 8.29181562 0.00252253 -0.00472212 -0.00274897
N 7.26705457 0.50534441 3.14898052 0.00205026 0.00048340 -0.01118122
N 5.24486662 3.55854731 1.31891867 -0.00234089 0.00094548 0.00091972
N 4.04035894 5.83495484 6.06172375 -0.00588875 -0.00465835 0.00103733
N 7.34345558 1.34363447 7.49564407 0.00559786 -0.00250084 -0.00037394
N 5.97995858 8.54418540 3.11338182 0.00348102 0.00383278 -0.00195852
N 3.80048226 5.49628387 10.25495841 0.00200865 -0.00212816 -0.00621610
N 5.08759096 4.27956263 15.03263147 0.00470168 0.00226795 0.00124397
N 5.68353784 8.82644540 17.01196329 0.00311851 0.00590414 -0.00053705
N 7.02191165 0.59660551 12.43213557 0.00138374 -0.00267050 0.00104818
N 5.27304041 3.73677683 10.47259345 0.00426552 0.00374946 0.00133501
N 4.09775628 6.33065678 15.24384337 0.00228030 -0.00035898 -0.00011105
N 7.07054780 1.18618866 16.82629489 0.00292562 -0.00681599 0.00362553
N 5.86408479 8.62575522 12.20302584 0.00575529 0.00487455 -0.00436902
N 3.88845372 5.40711277 19.57440152 -0.00087771 -0.00579074 0.00465212
N 5.27005104 3.90861129 23.73875138 0.00045462 0.00214616 -0.00213313
N 5.59627508 8.85073215 25.97636387 -0.00774314 0.00262410 0.00415547
N 7.34122904 0.33751675 22.03035299 0.00088667 -0.00370773 -0.00377574
N 5.13014206 3.55998201 20.04393617 -0.00656347 0.00497889 0.00016151
N 4.17719724 5.76928616 24.49518783 0.00291213 0.00012713 0.00497743
N 7.03381383 1.00965125 26.00887796 0.00058656 0.00135361 -0.00372650
N 6.21819975 8.31079579 21.32204715 0.00507657 0.00137337 0.00493618
N 3.77380959 14.98639377 1.11054855 -0.00356721 0.00301625 0.00821331
N 5.02262050 13.91153390 5.77722523 -0.00009191 0.00711873 0.00865880
N 5.71384399 18.81187891 7.79895586 -0.00039623 -0.00030252 -0.00083797
N 6.90360993 10.59277793 3.77264763 -0.00534411 -0.00067775 -0.00197708
N 5.10056011 13.15001571 1.54893120 0.00402219 0.00338793 0.00387358
N 3.99727697 15.92035560 6.16695871 -0.00205893 0.00489817 -0.00151562
N 6.71782073 10.84367734 8.00892967 -0.00154569 0.00183741 0.00117539
N 5.79158342 17.90090841 3.52514599 -0.00516410 0.00073264 -0.00069023
N 4.08166835 15.21393398 10.44441170 -0.00392976 0.00360933 -0.00056638
N 5.36742329 14.00932554 15.09216485 -0.00620852 -0.00650602 -0.00165937
N 5.46251901 18.60567446 17.22641795 0.00472945 -0.00055981 -0.00057355
N 7.15346974 10.40119306 12.73310982 -0.00224110 -0.00101694 -0.00546339
N 5.10895449 13.26019239 10.91426722 0.00064176 0.00111560 -0.00404249
N 3.98496943 15.82453706 15.29748981 -0.00426609 0.00099792 -0.00638755
N 6.86401498 10.85921114 16.79549217 0.00298065 -0.00546166 0.00432562
N 5.66463731 18.17028946 12.63735586 0.00207448 0.00257403 0.00058775
N 3.93658136 15.01963936 19.75490282 0.00210137 -0.00926506 0.00558129
N 5.06235795 13.55404054 24.10204328 0.00244205 0.00673030 0.00061209
N 5.59383360 18.13025019 26.38978422 0.00621839 0.00019342 0.00606271
N 6.93256816 10.44206753 21.99670822 -0.00192001 -0.00909566 0.00481867
N 4.69912050 12.94919270 19.98623641 -0.00285617 0.00167992 -0.00507202
N 4.08326599 15.59761068 24.37032024 -0.00330380 -0.00576404 -0.00036340
N 6.71381366 10.87070240 26.12993257 0.00901769 0.00251034 -0.00630722
N 5.68895776 17.87568059 21.67115666 0.00313632 -0.00041619 -0.00273275
N 4.38685977 24.98950140 1.27115210 -0.00424866 0.00622923 0.00267276
N 5.08838572 23.22304081 5.79199487 0.00339873 -0.00303067 -0.00496393
N 6.40356621 28.17492298 8.00959690 0.00172086 -0.00658254 0.00389812
N 6.97308776 19.90008017 3.52210620 0.00382004 0.00319513 0.00477971
N 5.08639049 22.80349625 1.56681217 -0.00258391 0.00951274 0.00070230
N 4.38668004 25.38333365 6.13176376 0.00260729 0.00316422 0.00276268
N 7.05851080 20.64596918 7.64938073 0.00624279 -0.00231548 0.00481917
N 5.76932371 27.75294876 3.23176141 0.00326346 -0.00252487 0.00551525
N 3.88132823 24.55666932 10.39652018 -0.00365332 0.00234774 -0.00210880
N 5.02290525 23.35367763 14.93650023 0.00133610 -0.00054079 -0.00195118
N 5.85634876 28.18920716 17.20141246 -0.00300677 0.00400344 -0.00137589
N 7.05100508 20.08842133 12.87119671 -0.00230682 -0.00159962 0.00555309
N 4.89509494 22.54276912 10.54824703 -0.00444264 0.00685155 0.00010065
N 3.98079583 25.39291448 15.38645110 -0.00032828 0.00085252 0.00640073
N 6.80178423 20.38919307 16.83768060 -0.00287501 0.00037866 0.00343731
N 5.80547059 27.54035026 12.35241536 0.00307672 -0.00064502 0.00141568
N 3.61516962 24.89997083 19.53577822 0.00256034 0.00056896 0.00117795
N 5.37306256 23.70181309 24.08644921 0.00157360 0.00076323 0.00159480
N 5.61112746 28.10671567 26.26069308 -0.00502370 -0.00298506 0.00239922
N 6.71238362 19.96870518 21.80845315 0.00431840 0.00212799 0.00050071
N 5.18866081 23.04976028 19.83834712 -0.00590904 -0.00304958 -0.00142047
N 4.17892731 25.76283651 24.43740575 -0.00434476 -0.00180205 -0.00405244
N 7.00587520 20.01032902 26.21089262 -0.00335095 -0.00318932 0.00839819
N 5.86927738 27.46779634 21.59034835 0.00308332 0.00057901 -0.00615234
N 8.03815433 5.72532164 1.38972677 -0.00122697 0.00181986 -0.00321367
N 9.00466552 4.05349817 5.42692577 0.00474023 0.00010895 -0.00409025
N 9.38230896 9.41283913 7.59899811 -0.00292166 0.00435353 0.00086164
N 10.59054962 0.51000602 3.09017082 0.00294718 0.00208706 0.00003126
N 8.72598569 3.46297843 1.33900744 0.00048047 -0.00216847 0.00069749
N 7.97035737 6.07804364 5.98849970 -0.00347236 0.00221031 -0.00153947
N 10.74135402 1.49528722 7.69099069 0.00056674 0.00094763 -0.00250958
N 9.61786413 8.52484086 3.01131713 -0.00635320 0.00745805 -0.00355537
N 7.75659271 5.69437311 9.94563444 -0.00133575 0.00080787 -0.00616882
N 8.78194386 4.10516536 14.49500075 -0.00064901 -0.00055109 0.00161634
N 9.45016857 8.72443192 17.38352704 -0.00172115 -0.00730637 0.00100309
N 10.57586592 1.19426522 12.77269710 -0.00341341 -0.00096417 -0.00664296
N 8.63230816 3.54107354 10.38770626 0.00953571 0.00106361 -0.00259002
N 7.54370464 5.84267219 15.30685704 -0.00773509 -0.00167623 0.00512017
N 10.71564783 1.39282649 16.69330711 0.00041355 -0.00402615 -0.00333049
N 9.78530682 8.32250221 12.23184141 0.00295571 -0.00048484 -0.00762195
N 7.69659967 5.22603772 19.87649299 -0.00676212 -0.00105592 -0.00220389
N 9.22534974 4.14976083 24.34937361 -0.00217845 -0.00778501 -0.00307341
N 9.29448569 9.02593224 26.37620572 0.00373518 0.00003962 0.00016767
N 10.79888785 0.52563001 22.05097170 0.00557147 0.00298205 -0.00052276
N 9.10011759 3.35312573 19.88589901 0.00426511 -0.00085711 -0.00175675
N 7.64560952 5.93690551 24.23693488 -0.00141869 0.00023824 -0.00227562
N 10.91355935 0.89047935 26.12324051 0.00243898 -0.00313209 -0.00128365
N 9.48550672 8.27708270 21.56637414 -0.00618440 0.00508036 -0.00011719
N 7.39974978 14.78212140 1.57854280 -0.00034092 -0.00100397 -0.00051932
N 9.01444275 13.64429782 6.24521077 0.00552098 -0.00490571 0.00113209
N 9.23976839 18.76663013 7.78737537 0.00408204 -0.00410005 -0.00570613
N 10.76410003 10.48675992 3.53211400 -0.00097423 0.00087545 -0.00105660
N 8.70100419 12.88399224 1.76787317 -0.00469022 0.00265719 -0.00064501
N 7.68762028 15.48920682 6.35419766 -0.00466633 0.00053045 0.00984005
N 10.66087385 11.29042663 7.78716038 0.00091028 0.00135627 -0.00052868
N 9.49690180 17.92973725 2.82316735 0.01064011 0.00375915 -0.00346921
N 7.50152776 15.25967306 10.55334975 -0.00127307 -0.00229049 -0.00368134
N 8.80923129 14.05423201 15.24569928 -0.00385234 -0.00107268 0.00753143
N 9.29666508 18.65044622 17.00183626 -0.00432836 -0.00108909 -0.00526488
N 10.79587120 10.42179864 12.82522448 0.00364779 0.00409535 -0.00327728
N 8.73894999 13.30955754 10.76331439 -0.00233566 0.00033843 -0.00515017
N 7.46827817 15.88555737 15.11671030 -0.00346471 0.00963732 0.00290428
N 10.11863733 10.84433877 17.04040851 0.00554023 0.01236353 0.00141065
N 9.45247040 18.12515435 12.30765826 -0.00152055 0.00476144 -0.00067337
N 7.37812279 15.07849276 19.75357237 -0.00456082 -0.00320882 -0.00092685
N 8.78917803 13.65179376 24.13929868 0.00256959 -0.00177980 0.00233582
N 9.38667122 18.36167857 26.32944830 -0.00144723 0.00661724 0.00064010
N 10.56712074 10.23578704 21.90482533 0.00685176 -0.00146486 -0.00419797
N 8.59513604 13.15729372 20.06873985 -0.00435671 -0.00306991 -0.00149389
N 7.53258047 15.52051097 24.56246527 -0.00750655 -0.00193219 0.00007259
N 10.53673812 11.02535379 26.12217260 0.00542459 0.00428264 -0.00208080
N 9.71550813 17.76976249 21.60970222 0.00419817 -0.00155489 0.00162325
N 7.80258918 24.46016526 1.13427738 0.00240483 -0.00853135 0.00526067
N 8.59043758 23.20259141 5.73936708 0.00000400 -0.00069996 0.00079540
N 9.72333676 28.31610165 7.92252929 0.00590775 -0.00386217 0.00422708
N 10.48662750 20.09753961 3.00606903 0.00415759 -0.00443016 0.00853156
N 8.97184168 22.51189511 1.36711677 0.00414202 0.00805685 0.00756833
N 7.78428605 25.24179663 6.43975373 -0.00291410 -0.00179394 0.00320523
N 10.82823384 20.38840178 7.60577013 0.00212779 -0.00476434 0.00133946
N 9.60702492 27.32100129 3.16753160 -0.00426186 -0.00138828 0.00128875
N 7.80736899 24.77656650 10.41168954 -0.00456019 0.00164838 0.00230185
N 8.85801986 23.40876800 14.84360048 0.00685149 0.00055078 -0.00303352
N 9.46010532 28.30692676 17.04323265 -0.00554658 0.00290483 -0.00394001
N 10.88239323 19.90874245 12.41055396 0.00228923 0.00486285 0.00074948
N 8.77609355 22.65224341 10.58045392 -0.00291330 0.00733058 0.00409895
N 7.69296721 25.28643802 15.25138032 -0.00069129 -0.00114768 0.00088526
N 10.52474815 20.59565844 17.08018357 0.00234128 -0.00442248 -0.00245859
N 9.52160170 28.03383335 12.28659502 -0.00766331 0.00273398 0.00344484
N 7.97358904 25.05795327 19.58077076 0.00697886 -0.00222524 0.00216906
N 8.97144848 23.38369965 24.23548220 0.00178599 -0.00021630 -0.00021725
N 9.55884448 28.05927536 26.57736076 0.00525071 -0.00535345 -0.00517394
N 10.70339190 19.98172538 21.89968670 -0.00439479 -0.00069804 0.00238408
N 8.47796027 22.84339319 19.80104650 0.00293728 -0.00099608 0.00294851
N 7.80859938 25.31361509 24.43432190 0.00343949 0.00239389 -0.00134021
N 10.61647375 20.44159252 25.89823724 -0.00252040 -0.00456758 -0.00032744
N 9.65156061 27.47395674 21.53342225 -0.00233089 -0.00394465 0.00318424
N 11.57413234 5.53093381 1.23138096 -0.00464067 -0.00211335 -0.00150720
N 12.77677602 4.46155227 6.04988582 0.00556293 0.00230418 -0.00038898
N 12.95769245 9.32531141 7.98061887 -0.00099389 0.00193688 -0.00256935
N 14.35623929 0.56648410 3.34569774 -0.00723468 0.00416538 0.00200072
N 12.50953288 3.54108612 1.46069770 0.00666991 0.00521461 0.00137043
N 11.50173477 6.42976474 6.28430321 -0.00525730 0.00012076 0.00035198
N 14.41693179 1.09331008 7.52010811 -0.00126540 0.00447235 0.00223892
N 13.43918120 8.37074422 3.08012589 0.00159032 -0.00102243 -0.00390915
N 11.09530739 5.76907932 10.24747390 0.00732650 0.00540706 -0.00219720
N 12.70286363 4.45342551 14.97093009 0.00107315 0.00232655 0.00266736
N 13.21115454 8.84279596 17.26835769 0.00160945 -0.00713467 0.00287521
N 14.62452832 0.60608856 12.17743314 -0.00555182 0.00251088 -0.00106103
N 12.37332254 3.88613802 10.75602810 -0.00099957 -0.00047775 -0.00103615
N 11.36975770 6.38612483 15.27482506 0.00513794 0.00414011 0.00820280
N 14.38530850 1.52935490 16.94094477 -0.00252479 -0.00305270 0.00573650
N 13.08361919 8.55800474 12.13446636 0.00014215 0.00465637 -0.00551707
N 11.37439572 5.56653555 19.75345658 0.00311979 0.00321004 0.01061000
N 12.33914614 4.03451726 24.28865413 -0.00084545 0.00664495 -0.00372772
N 13.28983583 8.59270779 26.12983454 -0.00193124 -0.00054244 0.00215225
N 14.24060987 0.89397709 22.09290509 0.00190234 0.00647187 0.00227990
N 12.84118621 3.74095896 19.91362733 -0.00588713 -0.00086940 -0.00631170
N 11.51617870 6.21239963 24.78330153 -0.00731980 0.00316386 0.00264241
N 14.40234735 1.23992602 26.01428749 -0.00223067 0.00164705 -0.00178563
N 13.58725472 8.20259397 21.57645300 -0.00679599 -0.00633041 -0.00123138
N 11.10739546 14.89888235 0.78334708 0.00299943 -0.00012475 -0.00389099
N 12.88188456 14.04316714 5.77928429 -0.00465270 -0.00157048 0.00571618
N 13.20976063 18.45632962 8.19238521 0.00122662 -0.00169874 0.00790128
N 14.59436818 10.31554030 3.12878216 -0.00213755 0.00190903 0.00494585
N 12.66379098 13.29328369 1.47302638 -0.00028498 0.00635374 0.00168855
N 11.36369158 15.76742500 5.91019888 -0.00109428 0.00289819 -0.00257617
N 14.40053572 11.10278273 7.70920562 0.00359605 -0.00148369 -0.00480643
N 13.33398443 17.75158168 3.24780221 0.00302327 0.00066171 -0.00188818
N 11.07081484 15.06581077 10.57235900 -0.00057180 0.00490599 -0.00310450
N 12.46220874 13.82001677 15.05060610 0.00051573 0.00464915 -0.00110478
N 13.39691571 18.56482267 17.16797613 0.00259703 0.00717660 0.00155755
N 14.42352410 10.29966080 12.70826215 0.00002290 -0.00503822 0.00186188
N 12.54768220 13.24461151 10.55069162 -0.00534580 -0.00564138 -0.00187820
N 11.39695080 15.86083999 15.15122835 0.00109988 0.00469323 0.00116185
N 14.11480078 10.96530814 16.76873469 0.00479460 0.00274184 0.00145043
N 13.31241924 17.92870580 12.26938209 0.00106979 0.00155863 0.00518197
N 11.01476924 15.06275490 19.56073802 -0.00779380 0.00080605 0.00173590
N 12.76346703 13.77020248 24.12729120 0.00050482 -0.00321606 0.00055414
N 13.13613685 18.64624661 26.42043002 -0.00461731 0.00099638 -0.00576132
N 14.17393647 10.37343634 21.86094056 -0.00317429 0.00752818 0.00058755
N 12.37772474 13.19320390 19.85655310 0.00646630 0.00374256 -0.00716350
N 11.89491860 15.91010246 24.50903586 0.00584993 0.00192501 -0.00062808
N 14.19138564 10.68924283 25.90181207 0.00355402 0.00174273 -0.00421702
N 13.19556790 18.06299072 21.38642674 0.00494206 0.00143420 0.00133869
N 10.88691944 24.69626578 1.06585301 0.00179722 0.00214032 -0.00242743
N 12.44019152 23.42614284 5.63393771 0.00378728 -0.00330487 -0.00148641
N 13.14402823 28.18648411 7.93259012 -0.00072301 -0.00110019 0.00359905
N 14.59345779 19.69903616 3.44803201 -0.00360802 -0.00488343 -0.00352599
N 12.21312824 22.67079986 1.25450060 0.00168488 0.00155101 -0.00240992
N 11.05634760 25.35660796 5.93443634 -0.01093306 0.00400841 0.00044187
N 14.44125550 20.32071037 7.79010611 -0.00526842 0.00385488 0.00325536
N 13.09956360 27.46687775 3.04334702 0.00082125 0.00084029 0.00158736
N 11.58075472 25.14986296 10.40561663 0.00521656 0.00385808 -0.00019990
N 12.38395298 23.24287110 15.09130866 0.00249940 -0.00146589 -0.00606603
N 13.20900109 28.46516946 17.20278698 -0.00277938 0.00173115 -0.00149390
N 14.53045775 19.87508793 12.40123726 0.00117926 -0.00477586 0.00246980
N 12.75682885 23.13590385 10.61825086 -0.00797947 -0.00511004 0.00461086
N 11.36616429 25.34666262 15.49930468 -0.00519303 -0.00882546 0.00017105
N 14.48972084 20.49914727 17.11458927 -0.00220373 -0.00694565 -0.00324219
N 13.08229169 27.76564668 12.23631899 -0.00363164 -0.00034733 0.00206644
N 10.99181427 24.61494543 19.65289077 0.00137221 -0.00666648 0.00818920
N 13.03907142 23.43231175 24.37295047 -0.00091073 -0.00529651 -0.00058175
N 13.23665550 28.15711354 26.41322759 0.00319980 -0.00251706 -0.00230586
N 14.54647877 19.94514803 21.45820548 -0.00536379 0.00277714 -0.00435481
N 12.32630281 22.68304953 20.01476222 0.00335621 -0.00589756 0.00136100
N 11.45617888 25.13864317 24.80359211 0.00319036 -0.00690647 -0.00016866
N 14.47892319 20.45419289 26.22273182 0.00029859 -0.00433482 0.00369939
N 13.44917385 27.68646728 21.39419623 0.00788881 -0.00050620 0.00689363
N 15.48762405 5.67967110 1.02270396 0.00120542 -0.00255607 0.00435120
N 15.96497296 4.12493982 5.55596706 0.00765756 -0.00299771 0.00366828
N 16.67862935 9.31682418 7.87808712 -0.00176136 0.01056073 -0.01184784
N 18.10963412 0.31537576 3.46553873 -0.00227052 0.00547703 0.00462148
N 16.09213259 3.50819915 1.65585595 0.00316465 0.00450222 -0.00688921
N 15.22706133 6.24175017 6.17607160 -0.00101084 0.00345668 -0.00005265
N 18.10191533 1.32033432 7.63623024 -0.00331663 -0.00145720 0.00061404
N 16.89236538 8.65892092 3.27650465 0.00227611 -0.00038440 -0.00556400
N 14.81595786 5.73939338 10.35824343 0.00195741 -0.00602802 -0.00449300
N 16.49172457 4.31628198 14.76474364 0.00022205 0.00354226 0.00332297
N 16.45380914 9.26988335 16.69916854 -0.00588839 0.00380334 -0.00073795
N 17.78843959 0.89429674 12.42407145 0.00079100 0.00555804 0.00505972
N 16.10911745 3.79582709 10.62705956 0.00655439 0.00485303 -0.00271333
N 15.19406129 6.20731323 15.20868221 -0.00358709 -0.00525481 0.00195273
N 18.18570427 1.48128555 16.70500118 -0.00097291 0.00405464 -0.00347217
N 17.01744617 8.47563190 12.45441178 -0.00339574 -0.00289421 -0.00179011
N 15.20697055 5.78091160 19.48445458 0.00407688 0.00887046 0.00154112
N 16.30767355 4.16843774 24.13204702 0.00092131 -0.00052805 0.00582014
N 16.79028688 8.62387562 26.56703013 -0.00814509 -0.00592859 -0.00386285
N 17.66320054 0.53992502 21.81484896 0.00112288 -0.00170046 -0.00268993
N 16.16093194 3.72790199 19.59717923 0.00738522 -0.00264043 0.00293872
N 14.98132034 5.97868964 24.56957031 -0.00370762 0.00104151 -0.00224344
N 18.12994930 1.28939119 26.24430925 0.00076894 0.00555313 0.00107339
N 17.04525279 8.64673011 21.28489114 -0.00150798 0.00165593 -0.00873453
N 15.08378047 15.07548355 0.91810328 -0.00309422 0.00078303 0.00138498
N 16.20350755 13.70661997 5.49523984 0.00087233 -0.00020019 -0.00465454
N 16.83551794 18.33872491 8.35557507 0.00405485 -0.00249995 0.00389096
N 18.52756828 10.39066604 3.17041524 -0.00391001 0.00188995 0.00258136
N 16.42620956 13.13911060 1.01229617 0.00381761 0.00600525 0.00249810
N 15.23455738 15.70392958 6.26975285 -0.00223225 -0.00057536 -0.00085741
N 17.96450442 11.20534718 7.75018554 -0.00346586 -0.00311840 -0.00202676
N 17.22916860 18.00458333 3.63440845 0.00889971 -0.00348588 0.00536454
N 14.95252276 15.22074784 10.21169413 -0.00240358 0.00284500 0.00171662
N 15.72193176 13.69914803 15.12901874 0.00020886 -0.00761195 0.00752378
N 16.80354514 18.67375585 17.27648315 -0.00037661 0.00226646 -0.00041053
N 17.80966957 10.57855400 12.78325870 -0.00092793 -0.00010742 -0.00456515
N 16.09909131 13.28553459 10.41827047 -0.00574962 -0.00633319 -0.00014363
N 14.85939654 15.84338344 15.31630858 0.00280912 0.00311384 -0.00795620
N 18.07715769 10.99430006 16.43587249 0.00111606 0.00308540 0.00039465
N 16.94765026 17.95729726 12.62482739 0.00684560 -0.00875750 -0.00866624
N 15.35021101 15.48759741 19.58065435 0.00694422 -0.00104758 0.00645944
N 16.35526300 13.65237483 24.03380350 -0.00662706 0.00501214 -0.00466702
N 16.94836816 18.56443736 26.99043766 0.00304436 -0.00030139 -0.00064083
N 17.98943066 10.68891439 21.74312818 -0.00290467 0.00800889 0.00258140
N 16.20551724 13.32504793 19.95076839 0.00429541 0.00433125 -0.00038440
N 15.35030902 15.58580841 24.82517057 0.00341490 0.00182839 -0.00202053
N 17.79805999 10.69009508 26.11717425 -0.00447353 -0.00217486 -0.00212219
N 17.09140387 18.08477593 21.43405902 0.00236144 -0.00441741 0.00877334
N 14.76444877 24.54069444 1.11094580 -0.00162124 0.00041118 -0.00640975
N 16.11091588 23.12213099 5.76075626 0.00155432 0.00072178 -0.00483952
N 16.69211344 28.34833467 7.95472764 -0.00653195 -0.00318599 -0.00286279
N 18.07708035 20.13595754 3.96389201 -0.00772881 -0.00380802 -0.00792729
N 15.98551691 22.72491108 1.75891384 0.00040238 0.00212591 -0.00249428
N 15.32902797 25.32734552 6.02551197 -0.00891032 0.00375326 -0.00672362
N 17.93676983 20.30213971 7.94799323 -0.00438479 -0.00126191 0.00201844
N 17.09072149 27.20081529 2.94766613 0.00211766 0.00321185 0.00236830
N 15.16718608 24.88403504 10.45927937 0.00198606 0.00176299 0.00353233
N 16.42689961 23.50839026 15.04836757 0.00426404 -0.00044217 -0.00015964
N 16.59346935 28.68796173 17.06619259 -0.00048040 0.00135031 0.00726234
N 17.99578730 20.11857419 12.88506313 0.00515607 -0.00298741 -0.00539831
N 16.05858312 22.80224240 10.59285208 0.00638439 0.00215436 -0.00334099
N 15.30767415 25.52601049 15.32922378 0.00393244 0.00846911 -0.00003036
N 18.06935987 20.42340126 16.70072225 0.00991167 0.00776721 -0.00057165
N 16.99726394 27.66507385 12.25987753 -0.00159920 -0.00443660 -0.00161557
N 15.01071228 24.70658834 19.37195960 0.00336613 0.00155282 0.01300865
N 16.49394524 23.45515811 24.34058031 0.00122056 -0.00168765 -0.00343520
N 17.06915165 28.13423432 26.48586593 0.00508399 -0.00267903 -0.00248718
N 18.24833244 20.07158488 21.87727069 0.00238048 0.00335761 0.00273621
N 16.14546511 22.68034107 19.61186573 0.00544321 -0.00232802 -0.00287162
N 15.14692138 25.33789300 24.40388004 0.00374625 -0.00003256 0.00014732
N 18.03824578 20.57016123 26.51760556 -0.00060377 -0.00280870 -0.00363785
N 16.80685921 27.48225208 21.16938182 -0.00069610 -0.00189186 0.00079761
N 18.56868466 5.15821758 1.51588115 -0.00571459 0.00175471 0.00209626
N 20.04634875 4.07491165 5.69151123 0.00150689 -0.00245167 -0.00737724
N 19.96852098 8.51789300 8.72031316 -0.00332051 -0.00417200 -0.00318668
N 22.03452650 0.46513485 3.36483655 -0.00177238 -0.00301824 -0.00087960
N 19.42362845 3.01807526 1.73248232 -0.00024550 -0.00180271 -0.00178594
N 18.59457562 5.76287352 6.37627826 -0.00465966 0.00291660 -0.00286055
N 21.50690141 1.28561811 7.63778878 -0.00258702 0.00607371 -0.00000967
N 21.35147373 7.72510861 3.27076437 0.00152915 0.00125872 0.00019546
N 18.85607765 5.43914175 10.60275716 -0.00184610 -0.00656467 0.00008450
N 20.09173504 4.06936094 14.92246811 0.00215084 -0.00193684 0.00125257
N 20.17596499 8.95542661 17.37754332 -0.00317315 0.00195153 -0.00300344
N 21.69568470 0.56690287 12.71152286 -0.00119905 -0.00146341 -0.00327603
N 20.18512537 3.54658632 10.29796730 0.00221648 -0.00036539 0.00266934
N 19.21442866 6.10463372 15.44354220 0.00563041 0.00292736 0.00457996
N 21.75549152 1.14060410 16.80769596 -0.00167415 -0.00211930 -0.00467421
N 20.57107276 8.86416870 12.35315733 -0.00512235 -0.00268047 0.00165651
N 18.62563727 5.45579255 19.61031226 0.00001567 -0.00516593 -0.00213071
N 20.15057027 4.11662613 24.08090687 0.00209546 -0.00050721 0.00099346
N 20.39523924 8.74155738 26.57214507 0.00594707 -0.00228315 -0.00130847
N 21.62975727 0.59227891 22.06177026 -0.00492485 -0.00293550 -0.00025290
N 19.43828209 3.35211517 19.92373003 -0.00390043 0.00567746 -0.00187817
N 18.71190888 5.94177451 24.52424766 0.00379655 0.00305764 -0.00052009
N 21.76166847 1.29856146 26.39222609 0.00208047 0.00328902 0.00136415
N 20.61106329 8.42390104 21.80767847 -0.00041779 0.00556184 -0.00749804
N 18.89187372 15.44875533 1.46618975 0.00518262 -0.00059938 0.00461748
N 20.33613634 13.82319209 6.03487788 0.00391385 0.00058824 -0.00431169
N 20.24813058 18.67254677 8.15114083 0.00127268 -0.00277235 -0.00135423
N 21.50191548 9.98915755 3.34361668 0.00613034 -0.00118350 -0.00389224
N 19.64458001 13.29084395 1.41304147 -0.00351162 0.00480507 -0.00496650
N 18.75550110 15.49164244 6.32285102 0.00051659 0.00695406 0.00087600
N 21.42023737 10.09669704 7.81729683 -0.00533960 -0.00134232 -0.00851888
N 20.54695423 18.13177681 3.17763838 0.00591671 -0.00706335 0.00387057
N 19.10908857 15.25834880 10.44336214 -0.00201331 -0.00375760 -0.00472210
N 19.89990627 13.44053450 15.02805383 -0.00207383 0.00329208 0.00444005
N 20.52647196 18.84016214 17.25057264 0.00506251 0.00436430 -0.00176683
N 21.90298516 10.58450825 13.03914160 0.00567730 -0.00122666 0.00103118
N 19.78780219 13.06649140 10.92218233 -0.00166402 0.00405519 0.00040552
N 19.07427655 15.58519568 15.42397763 0.00537331 -0.00356974 0.00242539
N 21.52537539 10.78958556 17.38364527 -0.00346052 -0.00128568 -0.00082580
N 20.86971309 17.86083479 12.65311329 -0.00043514 0.00248885 0.00500226
N 18.65115191 15.09580979 19.56716428 -0.00168882 0.00730843 -0.00334626
N 20.18782431 13.98219223 24.27707730 0.01027964 -0.00463661 0.00827337
N 20.61242321 18.49985167 26.30710894 0.00040454 -0.00073426 0.00011701
N 21.84965224 10.22266207 22.32997099 0.00797118 -0.00397061 -0.00681300
N 19.79020185 13.05811288 19.58035269 0.00533517 -0.00201980 0.00174101
N 18.73617049 15.75811730 24.42999039 0.00184161 -0.00028465 -0.00610582
N 21.60489845 10.65967159 26.22523504 0.00240163 -0.00132245 -0.00333556
N 20.60227649 18.01919158 21.50316769 -0.00106093 -0.00147697 0.00785118
N 18.80316023 24.74509629 0.90907620 -0.00096216 0.00042349 -0.00387084
N 20.07276678 23.46278028 5.73281940 -0.00156239 -0.00360156 0.00584629
N 20.39442529 28.25448339 8.01492714 0.00231488 -0.00174496 0.00783108
N 21.69512162 20.05542917 3.42403466 -0.00354957 0.00122082 0.00796804
N 19.97536996 22.81576003 1.50441205 0.00277121 -0.00377567 -0.00830027
N 18.79089389 25.34375736 5.96029147 0.00519754 -0.00313359 0.00269172