1728
Time=21999.99999999 pbc="T T T" Lattice="22.00745528 0.00000000 0.00000000 0.00000000 28.86685605 0.00000000 0.00000000 0.00000000 27.37736686" energy=-10389.24543536 virial="32.56257567 21.37710842 8.76447001 21.37710842 29.04983513 -18.30404039 8.76447001 -18.30404039 67.95449020" stress="0.00454113 0.00127983 0.00049609 0.00127983 0.00414498 -0.00106983 0.00049609 -0.00106983 0.00674299" Properties=species:S:1:pos:R:3:vel:R:3
N 0.35373643 5.49096162 1.30508938 -0.00358985 -0.00511505 -0.00169307
N 1.51442848 4.06330546 5.76542528 0.00519685 -0.00109647 0.00023542
N 2.32985272 9.18174984 7.82399437 0.00442730 -0.00602980 0.00470696
N 3.51990143 0.71871879 3.62805463 -0.00423624 -0.00101948 -0.00720884
N 1.55229713 3.48384636 1.66438613 0.00321360 -0.00259237 -0.00461025
N 0.44987019 6.12542925 6.12570173 0.00111926 0.00697911 0.00378309
N 3.16621819 1.27453661 7.86056099 0.00512722 0.00220020 -0.00186556
N 1.84872636 8.36047291 3.14961924 -0.00253005 -0.00237789 -0.00350277
N 0.25941098 5.82166055 10.44505892 -0.00067343 0.00444135 -0.00131407
N 1.64289214 4.40573267 15.13682705 -0.00305762 0.00074446 0.01088892
N 2.45864877 8.73140183 17.32833329 -0.00150305 -0.00090146 -0.00448504
N 3.52379937 0.84057412 13.07977513 0.00058285 -0.00284998 -0.00567311
N 1.30996331 3.81531466 10.77311649 -0.00834536 0.00836601 -0.00342461
N 0.24834356 6.25508242 15.18275185 -0.00371460 -0.00307141 0.00485901
N 3.32081327 0.98351051 17.07816097 -0.00077603 -0.00409473 -0.00274218
N 2.38263931 8.34992855 12.42019948 0.00266849 -0.00116788 0.00328279
N 0.36004190 5.87354659 19.58686599 0.00384488 0.00175522 0.00589787
N 1.87771011 4.31827121 24.00080364 0.00188261 0.00310221 -0.00061574
N 1.80762458 8.79322729 26.24817956 -0.00498950 -0.00017069 -0.00126739
N 3.61992238 0.59901006 21.88820192 -0.00525309 0.00024352 0.00260758
N 1.21194033 3.72176320 19.50366365 -0.00107730 0.00132874 -0.01062632
N 0.43238387 6.14080681 24.30929034 0.00589835 0.00049042 -0.00614413
N 3.26539318 1.24657753 26.03481650 0.00452832 0.00001442 0.00570721
N 2.36504470 8.37761065 21.42312575 -0.00575688 0.00660226 0.00658321
N 0.32764401 14.86606989 1.11228896 0.00671594 -0.00495062 0.00496959
N 1.58705375 13.63008384 5.80367242 0.01391923 -0.00621667 -0.00450518
N 2.05278450 18.74161561 7.86400903 -0.00268844 -0.00125915 -0.00148743
N 3.00682683 10.40317518 3.51337250 -0.00809071 -0.00675348 0.00114417
N 1.42671973 12.91963332 1.15978516 0.00185187 -0.00199821 -0.00683085
N 0.34513553 15.46982644 6.31538413 0.00687901 -0.00432373 0.00022354
N 3.82869890 10.96420727 7.51801580 0.00170093 0.00470071 -0.00314764
N 2.25708420 17.47892766 3.11223649 0.00189344 0.00126142 -0.00415314
N 0.36082945 14.84484356 10.41493090 -0.00121752 0.00170261 0.00358665
N 1.25695818 13.69208940 14.64330438 -0.00386717 -0.00316014 -0.00191076
N 2.09175192 18.48578002 17.18632013 -0.00160986 0.00340992 -0.00034137
N 3.30126250 10.37045280 12.40293393 0.00303886 0.00415358 -0.00188764
N 1.71817670 13.01408135 10.26610170 -0.00121664 0.00384814 0.00346463
N 0.56607797 15.80728112 15.25967389 -0.00247145 0.00247127 0.00475335
N 3.40862117 10.81568815 16.64375815 0.00017100 -0.00372215 0.00089584
N 2.21625563 18.09230977 12.18827863 -0.00008249 -0.00039514 0.00585389
N 21.72620237 15.35515890 19.36976678 -0.00204224 0.00263252 -0.00109334
N 1.52585291 13.70993176 23.77680587 -0.00836948 0.00451789 -0.00373765
N 1.76437759 18.33268858 25.93883116 0.00097392 -0.00121244 0.00585808
N 3.32441680 10.48255695 21.61107764 -0.00005084 0.00148883 0.00138723
N 1.12136234 13.53272201 19.54969825 0.00234978 -0.00131671 -0.00335856
N 0.38970748 15.60864799 24.12630540 -0.00333263 -0.00097978 0.00447172
N 3.06618766 10.76382990 25.97939165 0.00160153 -0.00098477 -0.00225838
N 2.05075287 18.01673695 21.10327896 -0.00119467 0.00771442 0.00504510
N 0.37879138 24.47966103 1.40110159 0.00105249 0.00084550 -0.00695229
N 1.54902561 23.45096915 5.51601100 -0.00167704 0.00000937 0.00009307
N 1.75127260 28.30691112 8.28044091 -0.00049505 0.00652624 0.00071033
N 3.04988656 19.63477832 3.22955526 -0.00005368 -0.00028352 0.01284283
N 1.17633847 22.29496788 1.40956266 0.00146802 -0.00637762 -0.00215091
N 0.40680638 25.42226069 5.90044970 -0.00398616 -0.00137251 0.00249049
N 3.17261234 20.74544510 7.57917822 -0.00126336 0.00860454 -0.00091553
N 2.28717190 27.65483180 3.10970443 -0.00394079 -0.00674480 0.00169551
N 0.89176721 24.76583403 9.84231406 0.00604851 -0.00543869 -0.00076629
N 1.75246730 23.23702858 14.58641936 -0.00341176 -0.00110412 -0.00097601
N 2.17739613 27.88504005 17.18781093 0.00277833 -0.00021592 -0.00129110
N 3.67930892 19.86848591 12.27175226 -0.00017045 0.00245458 0.00070508
N 1.51081596 22.47243626 10.39175582 0.00281553 -0.00508048 -0.00351917
N 0.57708047 25.22144713 15.07129910 0.00017145 0.00096877 -0.00289241
N 3.36917535 20.28165868 16.84142496 0.00058693 0.00171468 0.00051867
N 2.59377431 27.76138919 12.24246501 -0.00075866 0.00094211 0.00067270
N 0.75181722 24.69685492 19.39534548 0.00240226 -0.00133532 -0.00003053
N 1.56805883 23.30334209 24.08979557 0.00157974 -0.00128752 0.00323711
N 1.89064798 28.22749281 26.24255934 0.00235523 -0.00501759 -0.00077517
N 3.44342806 19.82827637 21.66410456 0.00216369 -0.00036538 -0.00086701
N 1.58339378 22.61933781 19.74408865 -0.00483064 -0.00667723 -0.00513311
N 0.60257105 25.29338970 24.51400449 0.00015122 0.00313240 0.00194749
N 3.01185949 20.23685897 25.49071730 -0.00165339 0.00630308 0.00306752
N 2.16372897 27.62977743 21.53090226 -0.00595854 0.00222490 -0.00983346
N 3.91821529 5.47925314 1.13674984 -0.00083210 -0.00126759 -0.00316474
N 5.02564793 3.91959379 5.90173517 -0.00187474 0.00199578 0.00374240
N 5.87238931 8.60290802 8.06158561 0.00454428 -0.00249770 -0.00280620
N 7.23822604 0.73422337 3.32378551 0.00533868 0.00899400 0.00428870
N 5.26871614 3.52986596 1.46273862 -0.00490579 -0.00100173 0.00418235
N 3.80745206 5.83696295 6.07327960 0.00101478 -0.00692155 0.00058542
N 6.92941339 1.18427993 7.70050764 -0.00504809 -0.00192131 -0.00474678
N 5.94961916 8.28051953 2.92936684 -0.00422728 -0.00206706 0.00161574
N 3.80089433 5.44615332 10.51601720 0.01131038 0.00124422 0.00631561
N 5.44667534 4.09117036 14.95245240 0.00454011 -0.00554964 -0.00143758
N 5.92808019 8.97576367 17.10379311 0.00517807 0.00069842 0.00257540
N 7.24442057 0.59452027 12.42097421 0.00019084 -0.00313766 -0.00053277
N 5.07424281 3.49535108 10.74171995 -0.00038579 -0.00044696 0.00089549
N 4.18814977 5.99042600 15.18510480 -0.00189209 0.00116184 -0.00343862
N 6.95254586 1.10247979 16.40615329 -0.00965516 -0.00232678 -0.00621712
N 5.85850164 8.24111489 12.26275381 -0.00230236 -0.00099717 0.00254507
N 3.75444338 5.44353472 19.20879901 -0.00574913 0.00695269 0.00147470
N 5.44934958 4.65152083 24.25593738 0.00376346 0.00059198 -0.00307871
N 5.44631102 8.98108262 26.26131830 -0.00357382 -0.00492307 0.00075160
N 7.20616514 0.79777064 21.42941290 -0.00201730 0.00378727 0.00020342
N 4.91282301 3.58642037 19.82945599 0.00228774 -0.00108008 -0.00281332
N 4.20380400 6.66975809 24.03147659 0.00149309 -0.00237857 0.00526631
N 6.82276314 1.25539918 25.95809257 0.01022879 0.00419485 0.00648657
N 5.87377026 8.61613060 21.56719933 -0.00720560 0.00164993 0.00437840
N 3.75574077 14.82694728 0.87078793 -0.00262373 0.00144885 0.00065124
N 5.21994443 13.57849876 5.50979924 0.00197803 -0.00075454 0.00090241
N 5.84677886 18.63955914 7.89707928 0.00536807 -0.00041405 -0.00233739
N 6.70517674 10.39881637 3.37228302 0.00330411 -0.00325124 -0.00388677
N 5.06677486 12.92529033 1.21099143 -0.00741031 -0.00273110 0.00013049
N 4.36580376 15.65163466 5.83489611 0.00075998 -0.00289638 0.00590905
N 6.88266495 10.64820790 7.78583310 0.00517412 0.00133043 0.00216195
N 5.49849583 17.67385640 2.88095228 -0.00714683 0.00363745 0.00323125
N 3.93446553 15.16396573 10.21059400 0.00272568 -0.00065341 0.00212765
N 5.28179529 13.82310833 14.90742235 0.00141344 0.00294946 0.00475282
N 5.96372374 18.42334722 16.97961786 0.00386092 0.00460359 0.00115771
N 7.31512557 10.14835357 12.29212454 0.00091457 -0.00630738 0.00019471
N 5.32809686 13.33190967 10.69140316 0.00064315 0.00710699 0.00364989
N 4.15046324 15.86797297 15.05999502 -0.00742681 -0.00311012 -0.00087670
N 6.82383778 11.11110896 17.12406941 0.00257926 0.00345381 -0.00192203
N 6.09577896 18.05225156 12.01937300 -0.00338310 0.00032205 0.00066684
N 4.18780077 15.39571265 18.82981491 -0.00447982 0.00037225 0.00463646
N 5.25551664 13.60995051 23.46346239 -0.00618599 0.00226015 0.00186762
N 5.94241102 18.22685279 26.06274014 0.00271347 -0.00709913 -0.00308652
N 7.15086023 10.53309064 22.09196894 0.00133262 -0.00451194 -0.00095670
N 5.13931837 13.44524873 19.71624841 0.00441582 -0.00291588 0.00240600
N 4.15580903 15.56812244 24.05015752 -0.00047283 0.00137028 0.00340638
N 6.74615393 10.88217782 25.87189161 0.00468929 0.00210612 -0.00105287
N 5.88077856 17.96230171 21.43280932 0.00216101 -0.00018687 0.00071771
N 3.52241217 24.63186162 1.30958694 0.00285542 0.00046076 -0.00550982
N 5.47512214 23.46055914 5.46886104 -0.01335291 -0.00294809 -0.00627318
N 5.44243193 28.30610441 7.90775720 0.00251952 -0.00828246 -0.00716814
N 6.31021913 19.77788870 3.15950406 -0.00500696 -0.00338978 0.00319541
N 4.87395410 22.72771913 1.29147199 0.00218086 0.00019398 0.00034318
N 3.87622431 25.18422401 5.93634541 0.00332465 0.00220181 0.00253739
N 6.81519460 20.73730498 7.33498122 0.00153994 0.00361298 -0.00140811
N 5.79361942 27.81828997 2.96088515 0.00006418 0.00024933 -0.00092199
N 3.79591268 24.82037982 10.43346003 -0.00258728 0.00008406 0.00169689
N 5.34933720 23.51652920 15.18133487 -0.00363209 0.00500696 -0.00209057
N 5.75169534 28.21817483 17.08086530 0.00074063 0.01127100 0.00168601
N 6.87748806 20.20555283 12.38104989 0.00394444 -0.00279002 0.00376614
N 5.24641989 22.97007340 10.46136937 -0.00474348 0.00252675 -0.00029778
N 3.88405500 25.17661954 15.50476366 0.00502746 -0.00803494 -0.00015620
N 7.23199479 20.36424131 16.93602618 0.00206345 -0.00172731 -0.00060887
N 5.94938942 27.53893981 12.15503082 -0.00456966 -0.00013812 0.00372030
N 4.01570299 24.60356852 19.59280756 -0.00309238 -0.00037009 0.00710664
N 5.25117481 23.47099118 24.17884430 0.00041564 0.00076529 0.00215713
N 5.59227380 28.17700418 26.27789871 0.00304436 0.00303912 -0.00002321
N 7.28479598 19.70464630 21.53483440 -0.00359545 -0.00261689 0.00405664
N 5.28345508 22.70231721 19.71323664 -0.00469517 -0.00323968 0.00161527
N 3.77032618 25.24119259 24.47591894 -0.00642016 0.00478300 -0.00121219
N 6.83286737 20.36591060 25.76025909 -0.00554907 0.00194118 -0.00007159
N 5.83269258 27.78894604 21.59161572 0.00236820 0.00440519 0.00123813
N 7.36060446 5.45205976 1.29818649 0.00267553 0.01231159 -0.00743029
N 9.02697989 3.90297061 5.63013733 -0.00271726 0.00137368 -0.00055572
N 9.28327520 8.81319862 7.90555878 0.01049786 0.00023954 0.00868331
N 10.35333396 0.71733008 3.47240605 0.00425868 -0.00569451 -0.00059307
N 8.88354496 3.68192187 1.38965628 -0.00713250 -0.00123524 -0.00076126
N 7.61250285 5.73984950 5.92711760 -0.00412482 -0.00346112 -0.00192521
N 10.51767344 1.08822780 7.54380467 0.00107627 0.00311334 0.00441244
N 9.31391118 8.54139423 3.26604849 -0.00057077 0.00029265 -0.00564465
N 7.50328550 5.24986198 10.47775256 0.00353288 0.00263019 0.00199147
N 9.19201120 4.32930595 14.87597445 0.00066804 0.00128303 -0.00520984
N 9.33551627 8.88262709 17.19785185 -0.00181069 0.00174283 -0.00083910
N 10.74226510 0.95888129 12.74681459 -0.00030712 0.00231020 -0.00173779
N 9.06995481 3.54900447 10.45018036 0.01004567 -0.00075814 -0.00235355
N 7.65402943 6.06799196 15.33537393 -0.00588755 -0.00247667 0.00193546
N 10.66253589 1.20508824 16.81529555 0.00616041 -0.00554097 -0.00902662
N 9.65166103 8.50355446 12.23764837 0.00232453 0.00275960 0.00270394
N 7.41278638 5.60811769 19.22788578 0.00116012 -0.00280173 -0.00184581
N 8.80941967 4.14300492 23.88576180 -0.00132176 -0.00220278 0.00178487
N 9.27321025 9.01814526 26.31710301 -0.00202552 0.00801917 -0.00076224
N 10.75586818 0.80745102 21.76343603 0.00083285 -0.00178491 -0.00376005
N 8.57923913 3.64120032 19.66294574 0.00354987 -0.00268567 -0.00787829
N 7.85502245 6.16958295 24.39268118 0.00220278 0.00337022 -0.00731570
N 10.60377208 1.33321124 25.86497753 0.00294642 0.00139560 0.00038306
N 9.65484289 8.54148259 21.25191065 0.01031490 0.00688634 0.00158250
N 7.37896165 14.96440653 1.07428968 0.00136974 -0.00357664 0.00421541
N 8.70736331 14.10988745 5.71543759 -0.00129434 -0.00176857 -0.00520344
N 9.49030467 18.73551515 7.85453569 -0.00082325 -0.00078177 -0.00074219
N 10.70056115 10.36031833 3.32653457 0.00532127 -0.00382190 -0.00307423
N 8.67444540 13.11510130 1.62528086 -0.00148562 0.00167243 0.00520836
N 7.29848417 15.93407276 6.12217082 0.00115716 0.00312906 0.00277815
N 10.64585120 10.53723333 7.45872142 -0.00237139 0.00334443 0.00217207
N 9.30799473 18.03474321 3.19845643 0.01079024 0.00265883 0.01369632
N 7.63109637 15.22752324 10.39081178 0.00230991 -0.00483164 0.00247749
N 9.23938477 13.81963835 14.93329919 -0.00234376 -0.00486269 0.00031257
N 9.63072747 18.41270972 16.90234460 0.00194560 -0.00287980 0.00512480
N 10.70785120 10.37902941 12.43355928 -0.00171547 0.00116106 0.00121872
N 8.77176658 13.26289793 10.42287178 0.00145970 0.00480812 0.00089764
N 7.76134909 15.63409594 15.21555097 -0.00507678 0.00485997 -0.00180010
N 10.59219264 10.59946795 16.58953801 0.00387758 0.00145928 -0.00700340
N 9.53707241 18.04272122 12.37346239 0.00363428 0.00571372 -0.00093121
N 7.45403427 15.16311065 19.35689435 0.00646938 -0.00523442 -0.00445242
N 9.02130622 13.81235275 24.01668987 0.00355117 -0.00378234 0.00161173
N 9.28273011 18.50584405 26.19249908 -0.00401072 0.00165159 -0.00137691
N 10.54503041 10.62578390 21.69265181 0.00108743 0.00054180 -0.00270263
N 8.87355102 13.38861634 20.02950156 0.00454337 0.00263693 -0.00856460
N 7.47462524 15.41382461 24.53295357 0.00776079 0.00486577 -0.00125099
N 10.55014203 11.00632972 25.80724527 0.00441655 0.00514869 -0.00043937
N 9.67143011 17.70144654 21.59373494 0.00250005 -0.00452572 0.00573970
N 7.12046899 24.49964371 1.38771293 -0.00609404 0.00061758 -0.00308740
N 9.04765532 23.45258709 5.86904352 0.00121321 -0.00168197 0.00487180
N 9.27684040 28.14329607 8.15432886 -0.00192463 0.00420156 0.00037065
N 10.15527605 20.10323748 3.60147531 -0.00788050 0.00060410 -0.00018648
N 8.44110053 22.65188434 1.65095570 -0.00551158 0.00456935 -0.00182715
N 7.77786927 25.38224242 6.22295670 -0.00159372 -0.00290481 -0.00187381
N 10.72710122 20.67145760 7.70654563 -0.00023778 0.00553909 -0.00231158
N 9.47395037 27.55456087 3.03922311 0.00493509 0.00183857 -0.00782438
N 7.73858162 24.69331870 10.51072831 -0.00333330 -0.00309782 0.00140525
N 9.09095117 23.65593304 15.50622476 -0.00076014 -0.00044702 -0.00123185
N 9.33348944 28.19078844 17.14757683 0.00686343 -0.00877822 -0.00086096
N 10.79313294 19.93058294 12.44646061 0.00258526 0.00167349 0.00214313
N 9.18674145 22.86501029 10.87926006 -0.00843842 -0.00253202 0.00111015
N 7.65339614 25.43367964 15.27626187 -0.00101001 0.00015323 -0.00511612
N 10.47360480 20.51092008 16.73019081 0.00305750 -0.00186680 0.00815017
N 9.73930792 27.84251897 12.26936679 0.01121676 0.00394795 0.00121162
N 7.57885239 24.71999037 19.96548639 0.00175244 -0.00011274 0.00468179
N 8.55728756 23.15829401 23.94364654 -0.00634680 0.00161210 -0.00302144
N 9.31300259 28.38517828 26.29804171 -0.00201284 -0.00280324 0.00641146
N 10.76957473 19.63709599 21.86790638 -0.00257981 -0.00173695 -0.00127404
N 8.98682273 22.87400656 19.95339560 0.00189957 0.00450147 0.00455509
N 7.71066861 25.31291927 24.39068212 -0.00058622 0.00420511 -0.00908787
N 10.30929921 20.57273734 26.01215536 0.00600138 -0.00293844 -0.00820836
N 9.69864295 27.74748233 21.15969280 0.00147383 0.00009589 -0.00323536
N 11.27981871 5.54601201 0.83707477 0.00333471 -0.00126978 0.00020788
N 12.71021028 4.01653849 5.85917165 -0.00591232 -0.00133751 0.00213595
N 13.07425242 9.02089760 8.15457020 -0.00262103 0.00117875 0.00223388
N 14.21892859 0.65964323 3.42782865 -0.00603302 0.00699215 -0.00019109
N 12.25847546 3.55237284 1.42224248 0.00792568 0.00086589 0.00575289
N 11.42101245 6.01366678 5.89610193 0.00242509 0.00043555 -0.00110312
N 14.19193314 1.43419000 8.25830588 -0.00480209 0.00101983 0.00251355
N 13.16230024 8.28971894 2.96769779 -0.00299684 -0.01107223 0.00044278
N 11.47368758 5.50958028 10.14680305 0.00306181 0.00130781 0.00268733
N 12.72301718 4.22995748 14.91456548 -0.00014091 0.00346170 -0.00063901
N 13.47546072 8.89621481 17.08648049 -0.00245831 -0.00103574 -0.00389807
N 14.81717626 0.72195526 12.37498812 0.00273472 -0.00061045 -0.00167526
N 12.97579514 3.69350453 10.57880863 0.00342684 0.00525887 0.00128111
N 11.52047412 6.15364627 15.31602120 0.00466134 0.00344474 -0.00101898
N 14.46597029 1.12001356 17.08202785 0.00216541 0.00401329 0.00132487
N 13.68010776 8.15495862 12.37937000 0.00370017 0.00534171 0.00208548
N 10.78991448 5.63062506 19.13447540 -0.00262303 -0.00372874 -0.01017331
N 12.35793326 3.96222068 23.96792907 -0.00043545 -0.00436444 0.00478739
N 13.04546875 8.57359652 26.48152086 0.00194483 -0.00543245 -0.00380030
N 14.11555886 0.82843907 21.89301232 0.00268608 -0.00224127 -0.00106462
N 12.05994813 3.76227676 19.38090764 -0.00323657 -0.00506491 -0.00508994
N 11.24702630 5.94481732 24.26802658 0.00297600 -0.00537855 0.00068847
N 14.03833784 1.16040447 25.81595817 -0.00032559 0.00128742 -0.00402396
N 13.31065368 8.34505394 21.25674391 -0.00130686 -0.00791162 0.00392460
N 11.16883740 15.08796394 1.11384413 0.00387582 0.00049565 0.00151041
N 12.46445759 13.78748102 5.84043336 -0.00006974 0.00022612 -0.00478446
N 12.97676462 18.66613422 8.03863552 -0.00414904 0.00590851 -0.00328002
N 13.89635676 10.40274549 3.60792967 -0.00337272 -0.00112544 0.00437050
N 12.51986067 13.17968271 1.42567647 -0.01063770 0.00992222 -0.00548705
N 11.40557668 15.79586824 6.26418860 -0.00156019 0.00043479 0.00490101
N 13.96448799 11.07728484 7.86984834 0.00214823 -0.00374524 -0.00279438
N 12.93253926 17.90262770 3.19765905 -0.00370492 0.00269044 0.00358917
N 11.09779713 15.01827492 10.47476188 -0.00571714 0.00077428 0.00222675
N 12.48482873 13.68678880 14.96982591 -0.00855108 0.00092708 0.00304117
N 13.06949105 18.85838250 17.07715041 -0.00127740 0.00701673 -0.00325085
N 14.29898338 10.38618911 12.65416692 0.00585078 0.00297488 -0.00208591
N 12.63721901 13.22345820 10.42578696 0.00158091 -0.00353817 0.00972424
N 11.39388750 15.70953964 15.06526761 0.00123394 0.00453502 -0.00138683
N 14.41187309 11.00704748 17.07539410 -0.00159936 -0.00248983 0.00156170
N 13.32452185 17.97806230 12.47954774 0.00014825 -0.00125796 -0.00235985
N 11.33988423 15.22585740 19.41860995 -0.00024602 -0.00630894 -0.00036866
N 12.90905147 13.59053389 24.08853197 0.00071396 0.00207964 0.00531115
N 12.90268854 18.65830578 26.15768818 -0.00540604 -0.00071909 -0.00573440
N 14.51405829 10.23945762 21.55609205 0.00568175 0.00438495 -0.00768029
N 12.38750356 13.27212298 19.91645247 0.00448012 0.00582955 0.00005249
N 11.54358458 15.44414994 24.20468073 0.00140311 0.00229600 -0.00626818
N 14.26238071 10.49468449 25.84558637 -0.00278842 0.00048414 0.00462155
N 13.35997918 17.92873171 21.31197410 -0.00212420 0.00231177 -0.00287236
N 10.88587851 24.54451831 1.57186701 -0.00502425 -0.00085199 0.00425289
N 12.64260750 23.65608992 6.04094935 0.00094095 -0.00192603 -0.00562446
N 13.41976577 28.14641225 7.97724964 -0.00203881 -0.00014918 -0.00329893
N 14.25837287 19.72247709 3.03489749 -0.00598149 -0.00576456 -0.00372415
N 12.12851851 22.61813985 1.71876504 -0.00070387 -0.00152916 -0.00904308
N 11.22303525 25.42499852 6.30244465 0.00533759 0.00694172 -0.00408215
N 14.54782116 20.26595437 7.55666457 0.00649242 0.00288417 0.00087837
N 13.22610640 27.50241306 3.16076667 0.00030837 0.00010497 0.00102858
N 11.46843744 24.68335121 10.49598621 -0.00507049 0.00216161 0.00410285
N 12.74407301 23.41242450 14.92336029 0.00065006 -0.00412052 0.00077526
N 13.27471037 28.07924088 16.99540911 -0.00546030 0.00250119 0.00004108
N 14.28973137 20.00296584 12.45558851 0.00347765 -0.00488462 -0.00280379
N 12.64953761 22.71719288 10.50112884 0.00068506 -0.00245005 0.00404509
N 11.34896461 25.28324649 15.35470678 0.00431241 -0.00606941 0.00547396
N 14.38399128 20.68878928 16.96071496 0.00050127 0.00404127 -0.00363509
N 13.38250387 27.70829460 12.20315245 0.00180658 0.00070355 0.00611644
N 11.41742287 24.80301694 19.72135295 -0.00487194 -0.00339383 -0.00355412
N 12.83516730 23.30902784 23.97653605 0.00047098 0.00354457 -0.00261110
N 12.91164750 28.08481508 26.27901739 0.00448307 0.00152428 -0.00418699
N 14.59187449 19.83001581 21.77740931 -0.00056762 -0.00171762 -0.00248502
N 12.81590547 22.98178423 19.86695704 -0.00010198 0.00543312 0.00055793
N 11.38073020 24.96745213 24.58261080 0.00261102 -0.00538277 -0.00668370
N 14.49252987 20.31985997 25.84906909 0.00396217 0.00635621 0.00235630
N 13.02484845 27.70756022 21.51725627 0.00185234 -0.00219541 -0.00085697
N 14.60689904 5.37963979 1.17221321 0.00495610 0.00348128 -0.00095576
N 16.22257712 4.15424851 5.65027638 0.00510577 -0.00423021 0.00653240
N 16.67824036 9.00092342 7.79516674 -0.00119427 -0.00281264 -0.00738325
N 17.91992601 0.95969302 3.15504420 -0.00679673 -0.00483688 -0.00339508
N 15.96745917 3.57302344 1.25006914 -0.00367409 0.00032246 0.00779983
N 14.77037303 5.94412834 6.12361113 0.00191027 0.00384966 -0.00594467
N 18.00975195 1.65703875 7.37001916 0.00157896 -0.00133212 0.00860357
N 16.85221877 8.62114360 2.95129887 0.00275299 -0.00496181 -0.00420171
N 15.26380575 5.56996695 10.25476083 -0.00100812 -0.00617706 -0.00309099
N 16.34001385 4.04324941 14.82607176 -0.00324508 -0.00982134 0.00084001
N 16.79285632 8.51499423 17.11103383 -0.00563690 -0.00050491 0.00592612
N 18.47013106 0.43303841 12.26871287 0.00058603 0.00054071 0.00215110
N 16.56764094 3.59013110 10.56170304 0.00375976 -0.00620135 -0.00298638
N 14.97665747 5.98978867 15.22716728 -0.00104824 0.00069179 0.00057712
N 18.19954963 1.07297686 16.57692789 -0.00304484 -0.00432336 0.00666311
N 16.90962196 8.26767508 12.33434348 0.00121004 -0.00991719 -0.00762001
N 14.51680754 5.35626470 19.30947103 0.00095575 -0.00332201 0.00020176
N 16.12274163 4.00469635 24.06022464 0.00525270 0.01030031 0.00312107
N 16.72086094 8.88029914 25.87673209 0.00027301 -0.00293298 0.00365215
N 18.28466875 0.56895499 21.40571726 0.00083710 0.00353344 0.00416395
N 15.82864182 3.43157677 19.54750421 -0.00532887 0.00557494 0.00178521
N 14.76437724 5.88883369 24.19620487 -0.00529504 -0.00492521 0.00412498
N 18.21159876 1.24578602 25.54311722 -0.00552230 0.00319172 0.00147711
N 16.78646497 8.54134393 21.25415203 0.00217278 -0.00426765 0.00215123
N 15.22730786 15.09834952 1.00076860 -0.00385202 -0.00411065 0.00009512
N 16.34520443 13.97414147 5.39028623 -0.00502532 0.00817734 -0.00246798
N 17.29252334 18.69784350 8.03560125 -0.00748176 0.00324876 -0.00652258
N 18.44882362 10.25778538 3.38075563 0.00083815 0.00436140 -0.00168483
N 16.23624172 13.08755001 1.45109058 -0.00136889 -0.00073992 -0.00702088
N 14.95977122 15.64118562 6.22140193 0.00531313 0.00140568 0.00211310
N 17.92375148 10.91422329 7.57567376 -0.00154014 -0.00349479 0.00565847
N 16.54195849 18.01711964 3.30863830 0.00143709 0.00042694 0.00101546
N 14.96149786 15.08498111 10.18858238 0.00250789 -0.00256587 -0.00072809
N 16.52689831 13.63411937 14.76676068 -0.00017007 0.00247727 -0.00651463
N 16.73548653 18.67446550 17.10707534 -0.00062659 0.00504051 0.00591228
N 18.00505087 10.31178194 12.46147001 -0.00250215 -0.00637850 -0.00010149
N 16.24864802 13.18743153 10.58189411 -0.00076176 0.00535066 -0.00319123
N 15.21427447 15.56672653 15.25554700 -0.00247289 -0.00162565 -0.00097680
N 17.78951731 10.63093667 16.71701723 0.00416042 0.00286694 0.00114443
N 16.79007362 18.05779156 11.91793556 -0.00480148 -0.00010864 0.00237680
N 14.60695374 15.02275525 19.23728322 0.00267510 0.00130530 0.00219586
N 15.79974099 13.43577732 23.62059060 -0.00088826 -0.00140816 0.00570061
N 17.24873807 18.38029468 26.40409327 0.00093921 0.00138799 -0.00751288
N 18.14321023 10.34685984 21.79288859 0.00461914 0.00377133 0.00459490
N 15.95309965 13.15700010 19.59635864 -0.00567032 0.00071580 0.00547180
N 15.26318976 15.62196391 24.17206059 -0.00211060 0.00359319 0.00740400
N 17.83714464 10.94898732 25.89772849 0.00478913 0.00052958 -0.00308407
N 17.06649828 17.98189627 21.58207899 -0.00031762 0.00154214 0.00114916
N 14.54221679 24.59054245 1.02744148 0.01107399 0.00046124 -0.00783596
N 16.13351744 23.24266326 5.44873821 -0.00171255 -0.00841428 0.00465074
N 17.52711725 28.27622830 7.64716125 0.00207281 0.00306474 0.00221764
N 18.00667013 19.74435790 3.31998843 0.00150865 -0.00022013 0.00026806
N 15.87287085 22.77917348 1.16100966 0.00827998 -0.00471067 -0.00094915
N 15.32935145 25.43023814 5.73002144 0.00024395 0.00313131 0.00622135
N 17.90098988 20.86051729 7.54250162 0.00647303 0.00498482 0.00239333
N 16.66146098 27.91053583 2.84410434 0.00418326 -0.00440685 0.00186893
N 15.51873088 24.80023500 9.64078288 0.00268081 -0.00017412 0.00616692
N 16.28676310 23.37779016 14.64552224 0.00727767 -0.00711761 -0.00013695
N 16.79840162 28.18202488 16.72869811 -0.00447050 -0.00216268 -0.00003379
N 18.45077630 19.80018217 12.13118308 -0.00561676 0.00733570 -0.00708843
N 16.43185238 22.92665230 10.79195638 0.00431019 -0.00202223 -0.00218970
N 15.10815713 25.44639870 15.11376157 -0.00128464 0.00454128 0.00673551
N 17.84149633 20.76649461 16.81190728 -0.00215787 -0.00193914 -0.00040421
N 17.07358553 27.39303102 12.01999775 -0.00049512 -0.00740494 0.00370937
N 15.14395714 24.79800373 19.31654626 0.00828457 -0.00324275 0.00034162
N 16.33957535 23.53823616 24.08354453 0.00243600 0.00160559 0.00721700
N 16.52383969 28.46548439 25.57313861 0.01316864 -0.00181233 -0.00102365
N 17.74890242 20.10850363 21.83668753 0.00128685 0.00047810 0.00595113
N 16.03175374 22.72250639 19.73001988 -0.00544585 -0.00658667 -0.00060501
N 14.99560827 25.39934096 24.44052000 0.00408653 -0.00193775 -0.00218739
N 18.13389738 20.50044019 25.85035101 0.00085636 0.00768640 -0.00631167
N 16.85991046 27.68727133 21.23540390 -0.00429970 -0.00035319 -0.00064465
N 18.63591086 5.85654561 1.09794126 -0.00310439 0.00448403 -0.00159942
N 19.98726339 4.47435654 5.53674996 -0.00223199 0.00124408 -0.00420995
N 20.26963656 9.02463867 7.98224110 -0.00518019 -0.00070755 0.01197306
N 21.94515797 0.55046639 3.17867914 -0.00173052 -0.00208733 0.00248014
N 19.70290948 3.83283685 1.40637679 -0.00950324 0.00057590 0.00558087
N 18.45498857 6.22650723 5.94772995 0.00182507 -0.01016100 -0.00156511
N 21.65103449 1.36772818 7.75393306 0.00191377 0.00409045 0.00140713
N 20.63219259 8.30570895 3.00633950 -0.00412617 -0.00459119 0.00157236
N 18.61256275 5.59182224 10.31768736 0.00389729 0.00235688 0.00594652
N 19.94139171 4.16385762 14.74078553 -0.00670690 0.00710162 -0.00170010
N 20.33273779 8.65588277 17.12637663 -0.00456570 0.00375313 0.00101747
N 0.17459768 0.50534714 12.36681609 -0.00608411 0.00332671 0.00117906
N 19.96778068 3.78582370 10.63936201 0.00179428 -0.00172838 0.00176840
N 18.59316080 5.99107175 15.23975643 -0.00033954 -0.00262674 0.00095988
N 21.80109020 0.82459404 16.35498137 -0.00187378 -0.00035239 0.00514921
N 20.73960992 8.63719070 12.36439933 0.00134141 -0.00166383 -0.00359321
N 18.17771394 5.43219958 19.20513130 0.00596901 0.00100910 -0.00032626
N 19.99097676 4.19056008 23.81328144 0.00216960 -0.00008007 0.00235608
N 20.16119922 9.12957374 26.00455496 -0.00102046 0.00166671 -0.00660289
N 21.64976893 0.73259104 21.34350970 0.00081980 -0.00075776 0.01066608
N 19.67565986 3.68116111 19.40246290 0.00152128 -0.00393834 0.00314855
N 18.81040830 6.13133254 24.20274143 -0.00208882 0.00017480 -0.00157261
N 21.81137167 1.50881974 25.95853426 -0.00007125 0.00607879 -0.00124848
N 20.74871003 8.66348036 21.44998575 -0.00186298 -0.00309981 0.00428450
N 18.93765497 15.12467964 1.37043236 -0.00024714 0.00263762 0.00127472
N 20.21829324 13.76347401 5.66575270 -0.00104945 0.00359621 0.00201246
N 20.26081958 18.73123229 8.21821784 -0.00076082 0.00020624 -0.00761696
N 21.64314167 10.33139808 3.23401901 0.00252882 0.00485879 -0.00314703
N 20.08177239 13.17018128 1.54853102 -0.00085739 -0.00482091 -0.00034950
N 18.93739718 15.71308954 6.28977663 0.00423836 0.00119212 0.00184457
N 21.99849631 10.70805056 7.67682036 -0.00767132 -0.00232262 0.00319487
N 20.45662361 17.75014847 3.26401583 0.00514377 0.00252404 0.00459382
N 18.72745816 14.74589051 10.85005922 0.00484472 -0.00056507 0.00062742
N 19.89251303 13.70832951 14.95252378 0.00276372 0.00254740 -0.00237610
N 20.37388772 18.79944399 17.51206341 -0.00389361 0.00000315 0.00761281
N 0.16014817 10.44147214 12.56611345 -0.00881613 -0.00059152 -0.00117601
N 20.03367870 12.78664573 10.73749658 -0.00329109 -0.00645600 -0.00294102
N 18.90875399 15.79872825 15.46932948 -0.00194370 -0.00072110 -0.00665408
N 21.70505998 10.38238299 16.79247702 -0.00445989 0.00709183 -0.00096763
N 20.78388661 18.15852090 12.46202240 -0.00049877 0.00166358 0.00254321
N 18.53898778 15.21772065 19.22256679 -0.00475010 -0.00128086 -0.01024879
N 19.92769798 13.63887047 23.69834086 -0.00399472 0.00708146 0.00467883
N 20.28122182 18.57968363 26.13975477 0.00446247 0.00010516 0.00153582
N 21.93341943 10.68337428 21.47787153 0.00213333 0.01212269 0.00035068
N 19.43044580 13.13841255 19.53801029 0.00079656 0.00702646 0.00192285
N 18.83311763 15.56374910 24.18754841 0.00706364 -0.00382893 -0.00234862
N 21.77912082 10.85570866 25.67872960 -0.00411171 -0.00359915 0.00114208
N 20.54439974 18.34803352 21.42262626 0.00554404 0.00080227 -0.00189946
N 18.48310601 24.64030278 1.23234617 0.00662214 0.01024133 -0.00588752
N 20.38407761 23.53997180 5.67185054 0.00251143 -0.00061338 0.00619214
N 20.48615821 28.22242679 7.79978431 -0.00670702 0.00422306 -0.00206597
N 21.78996102 19.66225967 3.33087447 0.00433570 0.00045602 -0.00102451
N 19.84768148 22.78825077 1.48243856 0.00066312 -0.00398558 0.00133069
N 18.57820072 25.19160203 5.95126826 0.00412089 0.00100662 0.00371265