1728
Time=77000.00000008 pbc="T T T" Lattice="22.18553419 0.00000000 0.00000000 0.00000000 28.83805601 0.00000000 0.00000000 0.00000000 27.36375283" energy=-10388.34973717 virial="35.95639986 2.91456954 2.46833037 2.91456954 32.42789283 -0.39540869 2.46833037 -0.39540869 -21.61811670" stress="0.00449169 0.00014042 0.00019277 0.00014042 0.00428527 0.00006156 0.00019277 0.00006156 0.00140811" Properties=species:S:1:pos:R:3:vel:R:3
N 0.29264467 5.59601891 1.19129894 0.00272804 0.00100162 0.00180563
N 1.67951515 4.28636031 5.99155002 -0.00513957 -0.00005439 -0.00009859
N 2.08919692 8.98423862 7.92943887 -0.00702750 -0.00554743 0.00257397
N 3.57267795 0.56715023 3.46746515 0.00207520 0.00097681 0.00119284
N 1.63790965 3.78746004 1.67532540 0.00389793 -0.00358733 -0.00751428
N 0.20485901 6.17891792 6.15388010 -0.00300532 0.00214073 -0.00140091
N 3.12588728 1.11533401 7.71823951 -0.00302063 0.00028566 0.00191104
N 2.29340684 8.68324270 2.93728357 0.00204003 -0.00832426 0.00025938
N 0.38366530 5.54770071 10.74118065 0.00391812 -0.00423236 -0.00018656
N 1.85210361 4.13993006 15.37079490 0.00184775 -0.00219595 -0.00210330
N 2.54152744 8.80251804 17.07494639 -0.00027659 0.00435903 -0.00641432
N 3.50809853 0.43415956 12.14808048 0.00828120 -0.00391216 0.00088132
N 1.58087529 3.55397782 10.73722508 0.00629051 -0.00095295 -0.00059310
N 0.69159252 6.11126861 15.24877087 0.00008083 -0.00163436 -0.00133452
N 3.66960366 0.87004164 16.85343149 -0.00287420 -0.00019097 -0.00445973
N 2.42986644 8.41219714 11.95000441 -0.00640656 -0.00394201 0.00142005
N 0.29347133 5.65886109 19.36415572 -0.00286243 -0.00035092 -0.00540645
N 1.55774211 4.18478023 23.86733434 -0.00692759 0.00691828 -0.00042996
N 2.02410546 8.84383125 26.22172395 0.00242605 0.00396232 0.00550886
N 3.25933737 0.69918895 21.60285611 0.00567441 -0.00013307 -0.00340390
N 1.47347458 3.71242078 19.74722150 -0.00208439 0.00935227 -0.00364008
N 0.22944291 6.07538083 24.13758795 0.00415388 0.00117265 0.00166864
N 3.19548867 1.27195726 25.80588599 -0.00645555 -0.00199822 0.00316007
N 2.09773650 8.26918429 21.32782765 -0.00349474 0.00368365 -0.00155783
N 0.27358830 14.86913108 1.10665716 0.00600172 -0.00301698 0.00121097
N 1.23043143 13.97914102 5.68489331 -0.00220146 0.00646872 0.00090805
N 2.45917460 18.46908304 8.30910607 -0.00385095 -0.00139487 0.00046409
N 3.43801681 10.59279233 3.29098411 0.00558115 -0.00424924 -0.00238219
N 1.67878918 12.94494063 1.09155059 0.00337888 -0.00445875 0.00364678
N 0.27853086 15.95188714 6.40191405 -0.00072238 0.00158303 -0.00429777
N 2.99037819 11.02327491 7.26955486 -0.00730420 0.00486144 -0.00268871
N 1.93007003 18.01421837 3.12946671 -0.00009889 -0.00672139 0.00077000
N 0.56211431 15.00334936 10.31245341 0.00454109 -0.00542449 0.00237218
N 2.00276964 13.96313459 14.60417057 -0.00491720 -0.00752993 0.00102799
N 2.43048424 18.54618368 17.05522321 0.00519525 -0.00397165 0.00275142
N 3.75027401 10.20414182 12.55332307 -0.00018930 -0.00409784 -0.00104886
N 1.72670611 13.01799291 10.39409770 -0.00315310 -0.00409762 -0.00493423
N 0.56599137 15.55578167 15.48362644 0.00332495 -0.00498744 0.00048908
N 3.46308485 10.92606579 16.75889433 0.00073590 0.00340847 -0.00274067
N 2.40427170 18.15197214 12.54564632 0.00193441 -0.00017265 -0.00675087
N 22.01937928 15.34800782 19.44748086 -0.00079140 0.00231192 0.00245535
N 1.65726529 13.70208807 24.23174210 -0.00258484 -0.00741789 0.00309406
N 1.94324498 18.53899925 26.31938409 0.00048027 0.00305771 -0.00219330
N 3.38166211 10.06404912 21.69028455 -0.00466351 -0.00080036 -0.00239033
N 0.93550890 13.43078189 19.98282404 -0.00576347 -0.00152146 -0.00200519
N 0.24956168 15.55315536 24.43843572 -0.00447702 0.00089254 -0.00394179
N 3.18426040 10.75183397 25.74306534 -0.00163520 0.00260270 0.00382639
N 2.29503116 18.05526135 21.20826811 0.00106903 0.00368230 0.00242227
N 0.37512237 24.74131837 1.22302817 0.00773720 -0.00270586 0.00710915
N 1.67386790 23.47399256 5.92313533 -0.00277000 0.00739558 0.00174274
N 1.79421645 28.10831611 7.83098961 -0.00234756 -0.00132858 -0.00145429
N 3.31130892 19.73311533 3.36960413 -0.00255928 -0.00303601 -0.00103248
N 1.68955963 22.82255420 1.63537685 -0.00436371 0.00038929 0.00083262
N 0.36512219 25.25490401 6.15622995 0.00435294 -0.00511226 -0.00050791
N 3.05780695 20.66518931 7.64496488 0.00242567 0.00412477 -0.00940109
N 2.41939029 27.47363720 3.34234681 0.00062393 -0.00621784 -0.00251714
N 0.22260715 24.71059055 10.18470142 0.00066066 -0.00150096 0.00096123
N 1.50520804 23.23805248 14.74243858 -0.00730517 -0.00065498 0.00013861
N 1.93305859 28.10517699 17.07570282 0.00649098 -0.00219534 -0.00374412
N 3.82128569 19.98905760 12.55110056 0.00180688 -0.00954806 -0.00286902
N 1.34001620 22.65346037 10.58251109 -0.00747427 0.00379705 -0.00837514
N 0.56738650 25.21436676 15.04919229 -0.01253102 0.00055517 0.00321935
N 3.44425357 20.65344263 17.06913076 0.00306364 0.00117697 -0.00412917
N 2.17555169 27.46472998 11.89694982 -0.00492151 -0.00512142 -0.00249534
N 0.47284409 25.07920578 19.33305041 -0.00509527 0.00403655 0.00295125
N 1.55261886 23.41634107 24.18649586 -0.00424041 -0.00826464 0.00199268
N 2.15625480 28.09553182 26.23077078 -0.00293744 0.00619294 0.00101929
N 3.50700878 19.93074338 21.58367874 -0.00033702 0.00491941 0.01059683
N 1.60369286 23.04525739 19.82725261 0.00468462 -0.00172762 0.00509378
N 0.26728262 25.27328394 24.36830090 -0.00340160 0.00083417 0.00272109
N 3.10830929 20.47954089 25.95069757 -0.00284068 -0.00301682 -0.00025219
N 2.17061052 27.46337987 21.25968669 0.00090586 -0.00473920 0.00431264
N 4.26175513 5.86023551 0.98280573 0.00162696 -0.00316275 -0.00065907
N 5.13224711 4.30453917 5.71935259 0.00001935 0.00197007 -0.00148780
N 5.62838914 8.81005817 7.85808722 0.00230281 0.00513524 -0.00172892
N 7.12721426 0.77033384 3.17166610 0.00334297 0.00764739 -0.00122422
N 5.24640296 3.72495488 1.35351414 -0.00631664 0.00208701 0.00123560
N 3.93797174 6.31640907 5.77223639 -0.00367665 0.00860457 -0.00344296
N 6.62884306 1.29787869 7.35925806 0.00261485 -0.00379022 -0.00145088
N 6.32338618 8.61799175 3.03159711 0.00278880 -0.00320344 -0.00380249
N 4.14625005 5.24418358 10.55168267 0.00339188 -0.00284007 -0.00147373
N 5.90952016 4.21127567 14.77279424 0.00193337 -0.00060960 -0.00575918
N 5.84467712 8.81010624 16.63148538 -0.00150058 0.00153151 0.00029478
N 7.28162585 0.50328313 12.40378077 0.00111269 -0.00525481 -0.00353529
N 5.36644774 3.32417642 10.65501161 -0.00159506 -0.00455190 -0.00049646
N 4.36025128 5.95088687 14.90632420 0.00028832 0.00043232 0.00223040
N 6.95391448 0.92445563 16.74484434 -0.00057227 -0.00473670 -0.00218871
N 5.97563299 8.31848222 12.06986818 -0.00023479 0.00381885 -0.00214864
N 3.75584452 5.35619751 19.37873022 -0.00571701 -0.00296555 -0.00470299
N 5.71508159 4.02537043 23.93008338 -0.00153383 0.00018989 -0.00257072
N 6.15213067 8.78951427 26.50166364 0.00039439 0.00272317 0.00473601
N 7.35657197 0.65764676 21.93876993 -0.00679288 0.00269303 -0.00806930
N 5.20772569 3.62369684 19.74494482 -0.00216159 0.00644545 -0.00177887
N 4.19387206 5.77034543 24.25057258 0.00007414 -0.00591677 0.00440366
N 7.07826861 1.29129115 25.80969929 0.00051029 -0.00143397 -0.00116664
N 6.20426498 8.23471610 20.92588991 -0.00089970 0.00128773 -0.00107060
N 3.63064164 15.15952740 0.52522800 -0.00311938 -0.00244404 -0.00098736
N 4.91078951 13.57077649 5.40891052 0.00150766 0.00186727 0.00326805
N 5.72297878 18.33065006 7.51906293 0.00093515 -0.00513871 0.00410427
N 7.41370819 10.64138540 3.46589147 0.00548376 -0.00257962 -0.00075016
N 4.85415800 13.56995298 1.58878567 0.00316006 -0.00280026 0.00252043
N 3.60702521 15.44882569 5.76532754 0.00423295 0.00205451 0.00432272
N 6.81421988 10.70018178 7.39118627 -0.00222325 0.00282657 0.00006661
N 5.85878079 17.95351693 2.74041616 0.00145305 -0.00309313 -0.00456790
N 3.94602607 15.06744016 10.59191440 -0.00384744 -0.00238147 0.00153012
N 5.33006727 13.95950729 15.05462417 -0.00163974 0.00507197 0.00152579
N 5.99201855 18.50404031 17.18885227 -0.00436533 -0.00387969 -0.00852646
N 6.95954781 10.42418366 12.09753556 0.00048575 -0.00144379 -0.00378307
N 5.21552324 13.20499995 11.00120709 -0.00828233 0.00581489 -0.00618291
N 4.11323229 15.89288690 15.04306736 -0.00043872 0.00515054 -0.00244474
N 7.30143127 10.73800340 16.42848431 0.00183575 -0.00392585 -0.00757981
N 5.82533114 18.12796492 12.15954049 0.00456444 0.00195535 -0.00039393
N 3.73276199 15.19034467 19.33393873 -0.00261981 -0.00099389 0.00617129
N 5.34484804 13.42390399 23.84551489 -0.00161387 0.00533901 0.00249163
N 5.62522530 18.54543915 25.91603565 0.00701234 -0.00464146 0.00314325
N 7.05788659 10.36414197 21.53864331 -0.00151416 -0.00252455 -0.00445378
N 4.73772043 13.09092663 19.67516046 -0.00158527 0.00207301 0.00460210
N 4.42914741 15.46977103 24.07115251 0.00525095 0.00587464 0.00227504
N 7.06439883 10.89995962 26.21703382 0.00323220 -0.00133278 0.00340128
N 6.11761460 18.02450352 21.24541931 -0.00131377 0.00013571 -0.00149764
N 3.85139116 24.65591365 1.30527377 0.00031614 0.00143654 -0.00164915
N 5.58789279 23.24299049 5.80496849 0.00502720 0.00424604 0.00081614
N 5.65316089 28.07273510 7.75074017 -0.00258099 0.00486064 0.00324931
N 7.18097907 19.84211827 3.28483816 -0.00166939 0.00052040 -0.00069685
N 5.19089188 22.79236434 1.50833931 0.00243449 0.00234255 0.00351339
N 4.26093604 25.20380372 6.17393036 -0.00263665 -0.01010952 0.00278261
N 6.88928479 20.41763424 7.53818755 -0.00550031 -0.00117546 -0.00395107
N 6.14998621 27.61121492 2.95167024 0.00239248 0.00301513 0.00557363
N 3.50978473 24.67712111 9.98281358 0.00721328 -0.00086050 0.00087066
N 5.22575881 23.37143914 14.76282460 -0.00193243 -0.00183512 -0.00012914
N 5.97202557 27.76237310 17.37768512 -0.00787313 -0.00621994 0.00166987
N 7.00853049 20.06803471 12.41544075 0.00020250 -0.00325736 0.00390507
N 4.88559072 22.91613234 10.54772377 -0.00376011 0.00575788 -0.00723005
N 4.03837036 25.34783257 14.93572951 -0.00361209 0.00931114 0.00197876
N 7.19766130 20.44442269 16.81324600 -0.00281313 0.00503307 -0.00133103
N 5.98990093 27.47833181 11.91040564 -0.00041289 0.00316021 -0.00032004
N 3.98147687 24.92015529 19.49235810 -0.00602549 0.00097582 0.00336205
N 5.22224163 23.29371850 23.83852563 0.00194505 0.00160406 -0.00268713
N 5.71440709 28.43125028 25.80974603 -0.00333010 -0.00731692 0.00606227
N 7.18326512 19.95376215 21.82628754 0.00570329 -0.00142606 -0.00406368
N 5.18149583 22.98327374 19.88320939 -0.00052186 -0.00452372 0.00583327
N 4.11695878 25.32422712 24.26686440 0.00496949 0.00277414 0.00324705
N 6.89980700 20.41052147 25.94983739 0.00545191 0.00414933 0.00139543
N 6.00383314 27.65788306 21.63747105 -0.00264199 0.00450567 -0.00379598
N 7.67231045 5.53330959 0.90855763 0.00733366 -0.00291237 0.00824504
N 9.11059147 4.16487882 5.56682601 -0.00189353 0.00226526 -0.00185172
N 9.35671517 8.95420588 8.38938160 0.00206852 -0.00155073 -0.00471908
N 10.52487391 0.68056861 3.32723489 0.00039421 0.00031665 -0.00549720
N 8.62331671 3.70748496 1.66150309 0.00622018 0.00335871 0.00822447
N 7.77731842 6.04212722 5.68764342 -0.00150694 0.00068863 -0.00233731
N 10.52576322 1.04281880 7.80596379 -0.00230404 0.00071516 0.00113410
N 9.86875104 8.55895700 3.06618337 0.00627223 0.00221499 -0.00788896
N 7.84913471 5.58013122 9.93249566 0.00375561 -0.00496074 0.00049050
N 9.31303188 4.00018512 14.47249267 0.00426957 0.00270907 0.00263260
N 9.98804641 8.86489936 16.75616163 0.00590653 0.00120664 0.00421314
N 10.58189292 0.65232738 12.45657022 0.00596381 0.00781510 0.00223005
N 8.76804154 3.52962622 10.46669213 0.00428387 0.00254731 -0.00090040
N 8.03173476 6.01426055 14.79175208 0.00786983 -0.00247767 -0.00316371
N 10.48474110 1.16649465 16.54902592 0.00214689 -0.00768917 -0.00373165
N 9.59856995 8.38559191 12.17083261 0.00503939 -0.00177373 -0.00240647
N 7.51842309 5.33032930 18.68917525 -0.00065934 -0.00282865 -0.00096388
N 8.82920553 4.24621033 23.75741775 -0.00300458 -0.00269650 -0.00073549
N 10.07723288 8.78317301 26.20805010 -0.00350511 0.00544367 -0.00422109
N 10.77790575 0.58142824 21.59791711 -0.00157216 0.01261271 0.00488854
N 8.63179650 3.34825481 19.31313241 0.00281059 0.00325484 0.00826791
N 7.78158372 6.28466133 23.98027053 0.00058092 0.00220857 0.00069892
N 10.56479485 1.30056146 25.99452071 -0.00141593 -0.00278867 0.00844693
N 9.37926487 8.52854271 21.22713115 -0.00548401 0.00042621 -0.00067180
N 7.50599855 14.91730721 1.59685849 0.00862550 -0.00212433 0.00167417
N 9.10731565 13.72429787 6.13748766 0.00047663 -0.00015281 -0.00017217
N 9.33530817 18.56910310 7.87578632 0.00083040 -0.00188319 -0.00118772
N 10.65832514 10.55327960 3.71899901 0.00334375 0.00026237 -0.00075472
N 8.83305628 13.04327375 1.51054322 0.00966084 0.00629426 0.00676879
N 7.70129954 15.54057418 5.99008137 0.00178890 -0.00201009 -0.00628840
N 10.59881161 10.72252282 7.63289897 -0.00272056 -0.00445702 0.00447287
N 9.49207203 17.96051847 3.18890779 -0.00296335 0.00030344 0.01191648
N 7.78997516 15.28540830 10.29861734 0.00372101 0.00240626 0.00238535
N 9.17245025 14.03496716 14.72771509 -0.00039715 -0.00323438 -0.00952640
N 9.59082678 18.64584378 17.38818768 0.00252257 -0.00160846 0.00301048
N 10.68199279 10.27005749 12.92364455 0.00300014 0.00049626 -0.00369763
N 8.82786735 13.24516208 10.15304876 0.00385825 -0.00546874 -0.00091566
N 7.86974274 15.72487295 15.23335282 -0.00284523 0.00551118 -0.01050213
N 10.87031717 10.99747883 16.62820137 -0.00133010 -0.00010862 0.00325003
N 9.70706873 18.16015691 12.29720132 -0.00510618 0.00130984 0.00190032
N 7.32498774 14.84479423 19.17850975 -0.00220870 0.00280137 -0.00366175
N 8.94768035 13.54489537 24.09373858 -0.00685611 -0.00407668 0.01000648
N 9.17370677 18.62515122 26.24206006 -0.00516492 -0.00193722 -0.00193577
N 10.74470226 10.42245224 21.71738640 0.00239740 0.00147528 0.00221084
N 8.67371770 13.03829705 19.70852375 0.00300751 -0.00548555 0.00408783
N 8.11840788 15.63860459 24.09445257 -0.00294908 0.00263446 -0.00241543
N 10.82648111 10.92749715 26.21114539 -0.00252902 0.00682228 -0.00290137
N 9.51645306 17.78809924 21.29124758 0.00062482 0.00080933 0.00490999
N 7.54352392 24.68961702 0.94792504 -0.00763877 0.00821214 -0.00012053
N 8.77767409 23.14033479 5.47375797 -0.00327858 -0.00285382 0.00028649
N 9.52537749 27.72468515 7.76170149 0.00074053 0.00586175 0.00110515
N 10.88682031 19.90758096 3.56387507 -0.00106959 -0.00437810 0.00580486
N 8.34107078 22.65821679 1.50141354 -0.00904662 0.00457383 0.00122628
N 7.87069345 25.18732724 6.00876051 -0.00119256 -0.00634721 0.00547080
N 10.59628681 20.50158121 7.92361034 -0.00302569 -0.00105986 -0.00118870
N 9.59157327 27.46869099 3.27580294 -0.00450955 -0.00094344 -0.00383499
N 7.16077436 24.43493797 10.19986982 0.00665557 0.00115338 -0.00131189
N 8.57519080 23.29465536 14.64494070 0.00228414 -0.00248748 -0.00018305
N 9.37756043 27.98290531 17.05794681 0.00610004 -0.00225531 -0.00194448
N 10.75758631 20.14273241 12.59025361 -0.00594370 -0.00250034 -0.00296872
N 8.61389859 22.78623966 10.42722813 -0.00087463 0.00258849 0.00565269
N 7.50265921 25.38767122 14.75453323 0.00580816 -0.00184319 0.00012366
N 10.79231917 20.55875652 16.83569377 0.00866905 -0.00065179 0.00556069
N 9.52959113 27.49447647 12.36868879 -0.01031044 0.00058544 -0.00162574
N 7.82079917 24.76717053 19.64587120 0.00754806 0.00490438 0.00385637
N 8.87064277 23.08913924 23.87884355 -0.00057014 -0.00409105 -0.00279220
N 9.96118243 27.98198719 26.36225366 0.00069634 -0.00069345 0.00765976
N 10.74172712 19.71667018 21.71613524 0.00082825 0.00757894 -0.00722822
N 9.04010684 22.74715449 19.77253882 -0.00586434 0.00131641 0.00592804
N 7.65926544 24.99393692 24.25515930 -0.00112459 0.00272808 -0.00457705
N 10.63666142 20.37723641 25.98650809 0.00254813 0.00508840 0.00140952
N 9.71433681 27.42028063 21.46103770 0.00204601 0.00529398 0.00888571
N 11.11399411 5.32115514 1.61759776 -0.00262033 -0.00108923 0.00210580
N 12.82518989 4.10327340 6.02878454 0.00524971 -0.00097432 0.00261183
N 13.03357840 9.00525974 7.91751425 0.00028420 0.00020290 0.00367144
N 14.63656223 0.84115435 3.70279042 0.00535571 -0.00515074 -0.00604052
N 12.63958817 3.60434298 1.77666053 0.00508405 0.00019241 0.00030197
N 11.41137582 6.01654124 6.18741506 -0.00001941 0.00351052 0.00631738
N 14.45051606 1.00801767 8.12379225 -0.00129193 -0.00699651 0.00263190
N 13.38520170 8.53658536 3.55314391 -0.00178199 0.00028962 0.00153701
N 11.02121543 5.43706070 10.36930256 0.00778379 -0.00136529 0.00309500
N 13.00491056 4.02273608 14.92780987 0.00243415 -0.00083067 0.00019862
N 13.50206700 8.69353669 17.13394408 0.00525030 0.00440238 0.00402868
N 14.65941940 0.76782758 12.79797327 -0.00034486 0.00073323 -0.00284577
N 12.34710937 3.54503928 10.44260267 -0.00504336 -0.00490870 -0.00011344
N 11.55590032 5.75745235 15.35063694 -0.00092435 -0.00672397 -0.00211606
N 14.23197742 1.15245269 16.81689839 -0.00242913 0.00205711 -0.00432941
N 13.30390059 8.52162719 12.18193148 0.00367146 0.00789737 -0.00041484
N 11.07154221 5.23017726 19.65810612 -0.00831340 -0.00328531 -0.00016754
N 12.43985994 4.32622961 24.25784874 0.00067983 -0.00776164 -0.00163224
N 12.98934743 8.91588463 26.68261232 0.00480127 0.00004660 -0.00646952
N 14.67616258 0.60185595 21.47242641 0.00195984 -0.00732927 -0.00137646
N 12.51643154 3.50384202 19.78636482 0.00027819 0.00159105 -0.00427014
N 11.15866418 6.24801058 24.25684862 -0.00129037 -0.00271443 0.00218743
N 14.20333751 1.27497771 25.75708218 0.00086706 0.00253840 -0.00465592
N 13.14299480 8.65593803 21.37804745 -0.00502999 0.00668324 0.00191481
N 11.17417283 15.46926105 1.21484731 -0.00209568 0.00195497 -0.00300579
N 13.02826718 13.90270745 5.46138663 -0.00016302 -0.00375264 -0.00591702
N 13.16890045 18.54713577 7.99823334 0.00038802 0.00384752 0.00174946
N 14.57059479 10.44836560 3.80741251 0.00217289 -0.00756851 -0.00485467
N 12.42033108 13.57025238 1.71552362 -0.00837882 -0.00135973 -0.00288332
N 11.58215506 15.71495097 6.09102713 0.00326161 -0.00391969 0.00134091
N 14.11965621 11.01301836 7.80780440 -0.00084610 0.00069425 -0.00735088
N 13.31067321 18.35214764 3.15773895 0.00165401 0.00738238 -0.00114385
N 11.10089612 14.91595736 10.34130170 0.00131138 -0.00105180 -0.00490528
N 12.96938842 13.89594188 14.97767158 -0.00050197 -0.00009410 -0.00096155
N 13.55404777 18.69531810 17.04682810 -0.00348806 -0.00114423 -0.00476912
N 14.79035069 10.26330064 12.47792163 0.00113702 0.00025740 -0.00411660
N 12.48398142 13.05328274 10.59921256 -0.00370854 -0.00031309 0.00202972
N 11.52234816 15.67683338 15.38868895 -0.00063406 0.00012210 -0.00022805
N 14.44964842 10.77719297 16.90448333 0.00120757 -0.00214117 -0.00377270
N 13.20820312 18.08729528 12.23275151 -0.00167371 -0.00148930 0.00413572
N 11.11070960 14.79037557 19.66300150 -0.00028004 0.00207767 -0.00591070
N 12.77169263 13.77858376 24.43888560 0.00229710 0.00959822 0.00465046
N 13.11845013 18.61724866 26.43539884 0.00927184 0.00909550 0.00239130
N 14.56653156 10.41616982 22.08674181 0.00474942 0.00365311 -0.00300235
N 12.60792319 13.08734227 19.94281373 -0.00115337 0.00354673 0.00426714
N 11.40012100 15.66292866 24.57646882 0.00222022 -0.00570052 0.00564446
N 14.21378197 10.84029963 26.26304081 0.00197668 0.00384512 0.00153080
N 13.24528794 18.03058080 21.26288046 -0.00235482 0.00314520 -0.00239073
N 11.44980708 25.22076252 1.57887760 0.00208831 0.00326023 0.00213544
N 12.68704944 23.20439622 5.79668076 -0.00278281 0.00368161 0.00202351
N 13.02546554 28.05032945 8.42677113 -0.01036403 -0.00234053 -0.00079436
N 14.61226772 20.10177347 3.38728263 -0.00454505 0.00494145 -0.00232457
N 12.20986867 23.04356461 1.47594495 -0.00478711 -0.00251885 -0.00026257
N 11.30202164 24.97005918 6.05080208 0.00173431 0.00265579 -0.00453884
N 14.21433323 20.62149854 7.99993596 -0.00104203 -0.00283525 -0.00203358
N 13.52109703 27.71624869 3.24494661 -0.00040559 -0.00539000 -0.00213648
N 10.91811354 24.72020286 10.40424257 -0.00482916 -0.00041579 0.00392730
N 12.61608605 23.34636072 14.56876677 0.00366068 -0.00429541 -0.00379785
N 13.28573208 27.91777425 17.12283539 0.00581340 0.00640808 0.00064220
N 14.69062936 19.82406745 11.99896789 -0.00187810 -0.00208721 0.00022140
N 12.44422420 22.99197259 10.67440812 -0.00248815 0.00164443 -0.00049427
N 11.37937916 25.27657396 15.23330809 0.01011243 0.00515942 0.00175399
N 14.25620189 20.83361227 16.57031717 0.00355486 -0.00374183 0.00276673
N 13.60909861 27.52394999 12.62069369 0.00063916 0.00494691 0.00479790
N 11.18357359 24.61867766 19.18606753 0.00655147 -0.00186447 -0.00859904
N 12.84411142 23.06465497 23.96109415 -0.00009817 0.00681188 0.00294975
N 12.97551183 28.21040756 26.05861183 0.00442799 0.00280666 -0.00240721
N 14.51180015 19.92246756 21.70056391 -0.01086755 -0.00582995 -0.00617676
N 12.44182313 22.71225197 19.57935898 -0.00255921 -0.00582529 0.00082337
N 11.73433599 25.03097612 24.27755464 0.00100473 0.00510303 0.00098852
N 14.41803582 20.47080573 26.13219707 0.00642221 -0.00417460 0.00560018
N 13.46898086 27.46271238 21.13650892 -0.00332404 -0.00852126 -0.00660480
N 15.14071479 5.49305596 1.53999207 0.00469341 -0.00881158 0.00438876
N 16.31961061 3.85592109 6.14123145 0.00631926 0.00855424 0.00083009
N 16.78714617 8.80150165 8.36722021 -0.00320324 -0.00848418 0.00316320
N 18.48278733 0.87622950 3.22101008 0.00011517 -0.00072052 0.00188937
N 16.48610550 3.57934878 1.54261647 0.00179418 -0.00306703 0.00555420
N 15.05227764 5.73434500 6.38299478 -0.00564904 0.00326370 -0.00791899
N 18.35806897 1.51955962 7.70715883 -0.00157048 -0.00541686 0.01096138
N 17.40494937 8.52746315 3.15646887 -0.00789376 -0.00410834 -0.00351538
N 14.95805099 5.37820719 10.45122493 0.00151132 0.00361545 -0.00100830
N 16.34382394 4.25677450 14.92189783 -0.00239207 0.00355058 -0.00278922
N 16.63930148 8.66952043 17.34457514 0.00398935 0.00101827 0.00089927
N 18.13147180 0.76249827 12.38877977 0.00447596 -0.00436295 -0.00426985
N 16.16893444 3.42180846 10.47533837 -0.00274518 -0.00506325 0.00059655
N 15.04044143 6.19653375 14.72918502 -0.00128298 -0.00432483 -0.00254724
N 18.35342264 1.47013889 16.83536437 0.00175292 -0.00381916 0.00107050
N 17.08757879 8.41905356 12.08089101 0.00390322 0.00322710 -0.00405976
N 14.73520231 5.57323886 19.53081897 -0.00750743 -0.00649683 -0.00194944
N 16.02503944 4.06758238 24.11510503 -0.00250272 -0.00197379 0.00101895
N 16.75937883 8.95913990 26.20617704 -0.00143102 0.00289763 0.00314722
N 18.23197170 0.23083494 21.55478468 0.00145894 0.00754482 -0.00672008
N 16.34490072 3.91045917 19.71014334 0.00165011 -0.00160066 -0.00208634
N 14.87112222 6.03266716 24.52260923 0.00259771 -0.00606425 0.00080949
N 17.98100480 1.33589322 25.83130409 -0.00157189 0.00334039 -0.00322413
N 16.51662966 8.49484692 21.39655894 0.00659593 -0.01006312 -0.00454995
N 15.24513960 15.33019019 1.19879557 -0.00092665 0.00709420 -0.00181279
N 16.33525024 13.78797919 5.82726491 0.00759882 0.00199635 0.00054879
N 17.20105882 18.51354978 7.52309658 0.00035938 0.00278806 -0.00002248
N 18.42215363 10.41036693 3.61184560 0.00187402 0.00332271 0.00670127
N 16.26180796 13.33338489 1.77288045 -0.00052615 0.00293310 0.00214554
N 15.37369508 15.89855463 5.91212240 0.00399212 -0.00287532 0.00567527
N 17.89821154 10.81967618 7.89880391 0.00509769 -0.00040976 -0.00101007
N 16.77745352 18.43963525 2.73887632 -0.00458971 0.00353705 0.00683304
N 15.03814225 15.43453207 9.97686124 0.00428936 0.00086985 -0.00833319
N 16.49653827 13.73472168 14.64093256 0.00070584 -0.00310321 -0.00038792
N 16.80070546 18.63830204 17.15632673 -0.00316109 -0.00627473 -0.00474712
N 18.05292068 10.37470001 12.57906862 -0.00094005 0.00154133 -0.00311144
N 16.14151796 13.62262671 10.65185763 -0.00193311 0.00397839 0.00130447
N 15.28218284 15.66435807 15.08710352 0.00538553 0.00000396 0.00279233
N 17.65078830 10.54966102 16.37508267 -0.00519022 0.00357201 0.00254321
N 17.10882474 18.17649194 11.70215360 -0.00338413 0.01208810 0.00855643
N 14.80373214 14.81572887 19.26962827 0.00195281 0.00543292 0.00130450
N 16.12906747 13.57155565 24.09416038 0.00110265 -0.00189001 -0.00097110
N 17.45864607 18.38050080 25.95588385 -0.00142400 0.00582872 0.00186381
N 18.25344440 10.12074656 21.52290008 -0.00226543 -0.00419872 -0.00089093
N 16.21142856 12.98794309 19.54364358 0.00506765 -0.00362679 -0.00165664
N 15.01993679 15.57734902 24.47974286 0.00029050 -0.00151179 -0.00435964
N 18.04233747 10.90437155 25.85566238 0.00205456 -0.00014252 0.00073812
N 16.88640654 17.50762775 21.47326580 -0.00320550 -0.00363042 0.00156408
N 15.09246208 24.75461064 1.00496130 0.00249679 -0.00762320 0.00173098
N 16.11233823 23.41653336 5.85820373 -0.00427498 -0.00075934 -0.00281356
N 16.93456789 28.48900746 7.61940365 0.00282400 -0.00460761 0.00158599
N 18.20121657 20.19166424 3.18539910 0.00277695 -0.00685657 0.00492535
N 16.13545837 22.77769558 1.50256135 -0.00213379 -0.00653021 -0.00154027
N 15.18110987 25.52166996 6.23318174 -0.00200152 0.00150644 0.01158767
N 18.32901571 20.57545671 7.49779825 -0.00057664 -0.00202348 -0.00223506
N 17.54278472 27.67209251 2.85407253 0.00359112 -0.00641021 -0.00218872
N 14.80945693 24.50787352 10.48874121 0.00770192 0.00161073 -0.00327392
N 16.21236195 22.97679621 14.73690316 0.00263415 -0.00342170 -0.00223657
N 17.07595222 28.31749878 17.03749788 0.00067661 0.00000521 0.00549329
N 18.28092816 20.09850859 12.02691570 -0.00679951 -0.00111080 0.00342802
N 16.39816789 22.92065759 10.62541588 -0.00515881 -0.00086736 -0.00726513
N 15.49849338 25.15241606 15.02403440 -0.00021494 -0.00216293 -0.00162569
N 18.22473205 20.50585849 16.79264136 -0.00020036 0.00057688 0.00253908
N 17.09298056 27.53813887 12.14175101 -0.00170576 -0.00114920 0.00238783
N 14.88305073 24.45353682 19.61002636 -0.00734570 0.00646366 -0.01605964
N 16.31731605 22.72140230 23.91405157 -0.00069318 0.00115876 -0.00296772
N 16.59761760 28.32719318 26.14969984 -0.00010334 -0.00011345 -0.00631480
N 17.83252898 19.56043527 21.86255041 0.00318893 0.00274307 -0.00434652
N 16.28297277 22.61845205 19.58319991 -0.00317954 -0.00382384 -0.00403543
N 15.17152902 24.62752817 24.36196402 0.00126303 0.00033973 0.00285376
N 18.30367241 20.52138409 25.98619549 0.00203236 -0.00095821 0.00286850
N 17.05603197 27.03336256 21.41447390 -0.00018509 0.00413256 0.00780067
N 18.76482816 5.48626092 1.11591467 0.00507933 0.00999367 -0.01276413
N 20.26958843 4.18353699 5.50825542 -0.00156151 0.00935680 -0.00079061
N 20.68597221 9.00846673 7.80030903 -0.00952312 -0.00106474 0.00324601
N 0.21451691 0.55185343 3.36170956 0.00808052 -0.00236260 -0.00106535
N 20.21796720 3.73496798 1.51106572 0.00065318 0.00590563 0.00145883
N 18.80092338 5.95422691 5.94316605 0.00360959 0.00293066 0.00314598
N 21.60987121 1.24603293 7.67195863 0.00044012 -0.00076534 0.00216209
N 20.84604059 8.36732481 2.93736989 -0.00066093 0.00250978 0.00710619
N 18.81670942 5.61509115 10.48643183 0.00073982 -0.00106871 -0.00041812
N 20.01552345 4.15677627 15.03821547 -0.00597803 -0.00113440 -0.00256363
N 20.67999540 9.13860368 17.03336226 -0.00115649 -0.00622549 0.00462268
N 22.03715504 0.28477305 12.39983137 0.00156010 -0.00220685 0.00441291
N 19.94461554 3.64730939 10.79827324 0.00176451 0.00008504 -0.00042599
N 19.10939509 6.22494321 15.08872331 0.00576443 0.00318919 0.00499069
N 21.92686126 1.11622112 17.00981861 0.00991947 -0.00055262 0.00356293
N 20.59618351 8.44440481 12.17389125 0.00137276 0.00376552 0.00530479
N 18.78678612 5.48212342 19.55399564 -0.00237904 0.00644979 -0.00336625
N 20.29832159 4.20825382 24.06279783 -0.00195795 -0.00287449 0.00879905
N 20.34582209 8.73561375 26.21444471 -0.00414954 0.00227049 -0.00276108
N 21.75174298 0.56135365 21.74897712 -0.00273585 -0.00057605 0.00016250
N 19.87505816 3.45896714 19.77221949 0.00617759 0.00051321 -0.00422438
N 18.61155730 5.66972358 24.46563341 -0.00646122 0.01028442 -0.00426400
N 22.12354090 1.18058265 25.91453645 -0.00665572 -0.00722791 -0.00600353
N 20.67524986 8.31612021 21.23703629 -0.00029317 -0.00170967 0.00406174
N 18.80799387 14.96311940 1.11498731 0.00558864 0.00290497 -0.00689746
N 20.14176023 13.74033640 5.86910437 -0.00436252 -0.00122202 0.00083349
N 20.36330508 18.59801958 8.36265869 -0.00257558 0.00124522 0.00325614
N 22.14732129 10.37754739 3.23720274 0.00315242 0.00135562 -0.00548935
N 19.91489306 13.08149673 1.63947281 -0.00309623 -0.00327079 -0.00463736
N 19.08018308 15.79282952 5.97714975 0.00101504 -0.00675471 -0.00123682
N 21.66569596 11.14041662 7.35341246 0.00318203 0.00440903 0.00307101
N 20.54779248 17.99839484 2.98353683 0.00058451 -0.00057850 -0.00111760
N 18.85901218 15.40763932 9.79791442 0.00091434 -0.00204712 0.00000791
N 20.30795116 13.91709295 14.73830489 0.00117927 0.00298400 0.00334604
N 20.51393060 18.33729396 17.80453144 0.00506711 -0.00320573 0.00276620
N 21.98760285 10.23091555 12.21176773 -0.00197368 -0.00554122 0.00125693
N 20.12122634 13.48315685 10.20985707 0.00613882 -0.00302104 -0.00159954
N 19.50013813 15.99259018 15.21517513 0.00564280 -0.00052516 -0.00153302
N 21.77718338 11.07521410 16.71625093 -0.00000117 -0.00105677 -0.00321236
N 21.10429804 18.15933883 12.49361176 -0.00229787 0.00427783 -0.00050380
N 18.83481902 15.09013717 19.09629438 0.00333295 -0.00104073 -0.00538371
N 20.35936767 13.41880386 23.79680374 -0.00009681 0.00267261 -0.00399744
N 21.15073958 18.39588921 26.14224714 -0.00011186 0.00587354 0.00092511
N 21.83800168 10.25223185 21.74813723 -0.00435829 0.00647959 -0.00299912
N 19.91566393 13.22641034 19.83103028 0.00053875 0.00347089 0.00628355
N 18.97877833 15.19671177 24.14065817 -0.00389841 -0.00343302 0.00089448
N 21.66365499 10.67553541 26.18367610 -0.00276670 0.00228709 -0.00436874
N 20.98336037 18.29738507 21.75114034 0.00182012 0.00034027 0.00108990
N 18.49615911 24.85853543 0.86950663 -0.00292501 0.00309565 0.00279448
N 20.20703663 23.40272271 5.26904072 0.00345225 0.00340870 0.00208122
N 20.36695639 28.11724880 7.71150152 -0.00132866 -0.00224598 0.00462714
N 21.37921496 20.12557251 3.31864517 -0.00396641 -0.00460732 0.00916334
N 19.88108814 23.12046161 1.22404182 -0.00045650 -0.00672751 0.00527183
N 18.70008876 25.16523953 5.64630968 -0.00282661 0.00348982 -0.00144975