1728
Time=90000.00000003 pbc="T T T" Lattice="22.07082209 0.00000000 0.00000000 0.00000000 29.14054743 0.00000000 0.00000000 0.00000000 27.19309651" energy=-10388.13880217 virial="1.29371063 -9.37331674 -6.10529832 -9.37331674 3.15160955 -8.86845602 -6.10529832 -8.86845602 36.11161144" stress="0.00245744 -0.00052951 -0.00031832 -0.00052951 0.00270942 -0.00054224 -0.00031832 -0.00054224 0.00485031" Properties=species:S:1:pos:R:3:vel:R:3
N 0.17815950 5.55023339 0.68645587 -0.00015110 0.00409899 0.00130076
N 1.84498612 4.39889849 5.61459661 0.00157823 0.00017828 -0.00402691
N 2.15737629 8.91400486 7.75574937 -0.00269107 0.00361660 -0.00206288
N 3.87805629 0.64974076 3.32660595 -0.00546382 0.00908313 -0.00145174
N 1.41744556 3.96522663 1.70972834 -0.00624060 0.00113401 0.00305106
N 0.30263805 5.95130793 6.10097593 -0.00170832 0.00269900 0.00318309
N 3.36267137 1.28296923 7.57953711 -0.00438277 0.00272496 -0.00517383
N 2.31805109 8.37182956 2.72109154 0.00577801 0.00224150 -0.00181449
N 0.26555202 5.32393141 10.25595761 0.00063186 0.00240974 -0.00785303
N 1.45811916 4.16771161 14.63229361 -0.00429060 0.00185584 0.00625871
N 1.66805372 9.09171834 16.71734263 0.00606876 -0.00013082 0.00045529
N 3.47547513 0.45835347 12.48752225 0.00196840 0.00325982 0.00072369
N 1.68776757 3.58928591 10.65151654 0.00120947 0.00177827 0.00302356
N 0.28221689 6.12814518 14.89620700 0.00157898 -0.00081459 0.00009279
N 3.12412436 1.46765345 16.58538959 -0.00141073 0.00470314 -0.00213022
N 2.59861262 8.55709217 11.78172698 -0.00567345 -0.00298122 -0.00030722
N 0.42475106 5.80042456 19.18303130 -0.00502797 0.00056514 0.00164810
N 1.75699242 4.24340009 23.62327298 0.00095937 0.00750405 0.00556984
N 2.22038961 9.39290511 25.47969456 -0.00475131 0.00115821 -0.00767675
N 3.41616462 0.81085598 21.77819714 0.00588406 -0.00087874 -0.00806382
N 1.31428454 3.77632007 19.64985116 0.00557685 0.00134671 0.00186948
N 0.74141770 6.30892255 24.14406185 -0.00384964 -0.00496149 -0.00212753
N 3.30766745 1.40836142 25.91821027 -0.00543362 -0.00728475 0.00580402
N 2.24423634 8.29459423 21.10625125 -0.00315935 -0.00238160 0.00693507
N 0.26025996 15.41056055 1.21639184 0.00248368 -0.00126181 0.00276519
N 1.73220172 13.97822749 5.79726553 -0.00186647 -0.00473016 0.00251494
N 2.09703234 18.92548902 7.95386875 0.00132451 -0.00357721 0.00106511
N 3.63900367 10.27326809 3.07794684 -0.00019941 0.00297822 0.00727526
N 1.20618062 13.31565903 1.62664874 0.00677941 0.00260473 0.00254731
N 0.43337794 15.81628360 6.08290983 0.00246722 0.00595052 -0.00132930
N 3.00144790 10.83323659 7.15949209 -0.00524660 0.00129121 -0.00248303
N 2.45681505 18.09711285 3.02531113 0.00018113 -0.00361051 -0.00339726
N 0.34195727 15.43974433 10.24555863 -0.00191692 0.00092728 -0.00147124
N 1.66030982 13.81598381 14.79359241 -0.00490128 -0.00264796 -0.00038737
N 1.91436628 18.80917866 17.18974685 -0.00004986 0.00328555 -0.00292985
N 3.65304640 10.52007405 12.36553441 -0.00331600 0.00214414 0.00220204
N 1.11298472 13.32583612 10.69852705 0.00392113 0.00677584 -0.00072655
N 0.35778028 15.75450296 15.04631421 0.00087647 -0.00056447 -0.00077161
N 3.28485639 10.77057327 16.64337670 0.00206291 -0.00687320 0.00336494
N 2.32494403 18.20510992 11.97159826 -0.00125816 -0.00124895 0.00375670
N 22.05632285 15.19306887 19.10836248 0.00226449 -0.00360153 -0.00266360
N 1.35248235 13.86837227 23.53544224 -0.00100544 -0.00030950 0.00162707
N 2.08626371 18.63548684 26.01025964 -0.00122828 -0.00211442 0.00403690
N 3.31378400 10.27647977 21.30264231 -0.00037759 -0.00046020 -0.00233265
N 1.12197079 13.26339433 19.69354281 0.00364857 -0.00375815 0.00053078
N 0.17194626 15.79296743 23.86362892 0.00077868 0.00512732 -0.00206116
N 3.60001809 11.28074488 25.46776478 -0.00088237 0.00057774 0.00017183
N 2.00643082 18.07605518 21.21399285 -0.00123078 -0.00249209 0.00153613
N 0.37654425 25.10793307 1.38225145 -0.01037355 -0.00909624 0.00535618
N 1.63168625 23.60004913 5.79512092 -0.00382361 -0.00077418 -0.00359512
N 2.22511292 28.44281783 7.77932015 0.00118914 0.00090304 -0.00841897
N 3.41651116 20.22928574 3.41728327 0.00165617 0.00193182 0.00322274
N 1.37016921 23.05429026 1.59751695 -0.00002287 -0.00203808 0.00286920
N 0.61641120 25.70670631 6.09817950 0.01235845 -0.00667679 0.00086323
N 3.40048852 20.78063629 7.63901501 -0.00038998 0.00516384 -0.00764544
N 2.47135849 27.99400722 3.18082258 0.00225012 -0.00684217 -0.00300440
N 0.36730424 24.85286048 10.27732900 -0.00661849 -0.00044202 0.00159587
N 1.44405221 23.73948790 14.95396174 -0.00415522 0.00175005 0.00217203
N 2.02218548 28.64309620 17.09809493 0.00547810 0.00178430 0.00206275
N 3.53466228 20.12456193 12.72147365 -0.00174642 -0.00234017 -0.00520328
N 1.64569148 22.91117225 10.55013947 -0.00816037 -0.00429723 0.00475691
N 0.24029587 25.66341584 15.28819190 -0.00195506 0.00678382 0.00482082
N 3.09086609 20.76913700 16.83425835 -0.00073922 -0.00487353 0.00040941
N 2.27331041 27.59822302 12.25972336 -0.00169109 0.00638751 -0.00254295
N 0.32124701 24.95862377 19.41084022 -0.00651194 -0.00195736 0.00078503
N 1.37883402 23.54524197 23.83029372 0.00030742 0.00220947 0.00544636
N 2.19274057 28.46985632 26.11832780 -0.00332556 -0.00264745 -0.00017020
N 3.55222297 19.79095309 21.71584131 0.00555820 -0.00051608 -0.00219017
N 1.48103606 22.97334408 19.75766043 0.00549228 0.00055928 0.00851273
N 0.23417462 25.58195617 24.15264372 0.00182057 -0.00276134 0.00448591
N 3.00985489 20.73856553 25.76847650 -0.00223053 -0.00296869 -0.00214759
N 2.00976785 28.16655810 21.23873560 -0.00054344 0.00161642 0.00182115
N 3.81677064 5.66202477 0.98844097 0.00189262 0.00392506 -0.00790054
N 5.23044270 4.30116538 5.49499139 -0.00365194 -0.00544124 0.00147347
N 5.58350799 9.30601605 7.76736916 0.00115368 0.00296967 -0.00232981
N 7.02747926 0.71891994 2.87383842 0.00433309 -0.00136655 0.00210883
N 5.13581952 3.75005810 1.12606978 -0.00279753 0.00189037 -0.01185891
N 4.24521797 6.35593525 5.72165047 0.00300290 -0.00216040 0.00395217
N 6.91487474 1.13871597 7.23612497 -0.00033421 -0.00758024 0.00523642
N 5.88280962 8.57276595 2.78616275 0.00448899 -0.00014634 -0.00026129
N 4.00454199 5.49058703 10.10563748 0.00493744 -0.00199153 0.00152593
N 5.16815833 4.23896084 14.62595275 0.00153636 0.00555178 -0.00427290
N 5.73898299 9.21087938 16.92109610 0.00517901 -0.00106081 -0.00015750
N 7.17931729 0.48694739 11.93255440 -0.00049252 0.00245595 0.00013855
N 5.09886547 3.49356941 10.41175705 -0.00477569 -0.00289644 -0.00370939
N 4.06177463 6.36152968 14.65425714 -0.00085528 0.00148600 0.00599989
N 7.16411244 1.45637147 16.68951544 -0.00668737 0.00436930 -0.00114726
N 6.00901745 8.59846360 11.82503432 -0.00310574 -0.00077869 -0.00184479
N 3.64006190 5.54521803 18.78629633 0.00011402 -0.00274725 0.00059174
N 5.51164990 4.12484021 23.48594022 -0.00476081 0.00183287 0.00197299
N 5.89618335 9.14761381 25.95975314 0.00277454 0.00353204 0.00187889
N 6.51758366 0.78876310 20.93389941 -0.00230148 0.00452081 -0.00625620
N 5.28114864 3.89783420 19.53151709 -0.00713545 -0.00446242 -0.00559606
N 4.10381405 6.00412609 23.85210352 -0.00123401 0.00165379 -0.00359272
N 7.23126166 1.21685830 25.32288527 0.00829008 0.00661481 -0.00133472
N 5.94585442 8.61039615 21.08387247 -0.00389971 -0.00121683 -0.00325463
N 4.08957458 15.14441722 0.72818824 -0.00290294 -0.00176210 -0.00203614
N 5.02895222 13.92568122 5.71612427 0.00296904 0.00098771 0.00714351
N 5.69660233 18.94239218 7.76465419 0.01018996 -0.00444499 0.00758327
N 6.74580155 10.63611696 3.32713967 0.00167367 -0.00355617 0.00236428
N 5.31277133 13.23752870 1.30644887 -0.00507599 0.00255260 0.00479578
N 4.21700084 16.12076994 5.90887909 -0.00088471 0.00044078 0.00573004
N 6.97057238 11.06089067 7.63094990 -0.00307449 -0.00096097 -0.00194925
N 5.77306030 18.54101938 3.10263137 -0.00355147 -0.00366462 0.00372527
N 4.42935540 15.70932024 10.29886402 -0.00079734 0.00365242 -0.00505978
N 5.15599541 13.97908110 14.81113060 0.00562832 0.00028136 -0.00127012
N 5.56326514 18.90437461 17.20084247 -0.00644279 0.00206841 0.00679961
N 7.16871546 10.54221931 12.32447454 0.00521536 0.00187026 -0.00172598
N 4.93737470 13.39178611 10.37972783 0.00467130 0.00702825 -0.00272406
N 4.13027030 16.02095655 15.04042222 0.00261670 -0.00717679 -0.00202260
N 7.06886650 11.16035073 16.65003296 0.00137545 0.00480343 0.00233274
N 5.64120296 18.24780143 12.14282168 -0.00450753 -0.00012191 0.00519017
N 4.00845431 15.32007040 18.82319093 0.00920260 -0.00177630 -0.00073036
N 5.53407500 14.12837756 23.42986003 0.00205876 0.00500926 0.00173798
N 5.82117085 18.56244575 25.65974235 0.00169233 0.00302151 -0.00872610
N 7.08921366 10.54843734 21.54265974 -0.00389988 -0.00139727 -0.00088040
N 5.18108698 13.49978918 19.74138476 -0.00157005 -0.00273552 -0.00197468
N 3.85719176 15.63341692 23.94106237 0.00196440 -0.00244090 -0.00751297
N 6.81284595 11.20974271 25.60849989 0.00202209 0.00382864 0.00421723
N 5.88771613 17.60826110 21.55439845 -0.00038095 -0.00086272 0.00479767
N 3.71464980 24.84037957 1.01311438 0.00643890 0.00134134 0.00516482
N 5.58066160 23.66569148 5.47489807 -0.00182475 0.00100052 0.00037416
N 5.75756612 28.28712008 7.70715912 0.00335689 0.00332152 0.00093617
N 7.45514818 20.21211189 3.34139214 0.00126566 0.00028097 0.00576626
N 4.99673450 22.92335260 1.36533001 0.01220249 -0.00105337 -0.00401984
N 4.26351045 25.52985010 5.76177045 -0.00136691 0.00337342 0.00724876
N 6.85029538 20.90148264 7.39840495 0.00045963 0.00292555 -0.00861258
N 6.06992758 27.77184054 2.78506698 -0.00230080 -0.01025897 -0.00180258
N 3.77709258 25.06534443 10.00951096 -0.00273314 0.00486506 0.00100643
N 5.18885429 23.64185344 14.88951203 -0.00259124 0.00006522 -0.00365831
N 5.79848378 28.77202144 16.40195410 0.00464523 0.00361718 0.00053398
N 7.06419909 20.26996315 12.36872484 -0.00138571 0.00515095 0.00488326
N 5.19091724 23.35784570 10.69056506 0.00321070 -0.00172774 -0.00602241
N 4.04030465 25.56949505 15.15162906 -0.00590940 -0.00694076 -0.00379230
N 6.97368734 20.67421965 16.87012374 -0.00137734 0.01139081 -0.00242808
N 6.01031432 27.69338927 11.59582011 0.00187760 0.00158924 -0.00416116
N 3.59512860 24.85591457 19.81264310 0.00082391 -0.00025832 0.00776935
N 5.05067871 23.40508252 23.66014299 -0.00601704 -0.00552750 0.00285213
N 5.59240369 28.64795507 25.68996543 0.00428059 0.00416927 -0.00107437
N 7.15274513 19.53563137 21.25144825 -0.00491891 0.00333608 -0.00640258
N 5.25316924 22.96615805 19.96772976 0.00017056 -0.00292598 0.00099315
N 3.92387883 25.43417105 23.85029832 -0.00591350 0.00894729 -0.00324128
N 6.89746812 20.72321659 25.53678312 -0.00246799 0.00324499 0.01541646
N 5.91246145 27.75164350 21.01400977 -0.00682696 0.00203273 -0.00414090
N 7.89067330 5.73260614 0.85457197 0.00520125 -0.00293947 -0.00736561
N 9.06099605 4.46365706 5.77698559 -0.00118840 0.00236061 0.00167014
N 9.34938008 9.33050364 7.94234396 0.00950047 0.00323514 -0.00386618
N 11.04011968 0.87899518 3.71057411 0.00228867 0.00101146 -0.00312347
N 8.92462109 3.76685025 1.39424095 0.00533375 -0.00179619 0.00195057
N 7.66141275 6.23712835 5.98878396 0.00385003 0.00129876 0.00304389
N 10.83887754 0.86988831 7.84456149 0.00668508 -0.00345436 -0.00741262
N 9.59249227 8.45748753 2.99277760 -0.00317445 0.00674454 0.00093833
N 7.75493435 5.54438847 9.97183881 -0.00115882 0.00009496 0.00022713
N 8.51793869 3.92025103 14.10074011 0.00374897 0.00922887 -0.00313251
N 9.25881400 9.14129213 16.48047287 -0.00050987 0.00045838 -0.00013659
N 10.97559065 0.68861945 12.52853449 -0.00527716 -0.00287535 -0.00361830
N 8.88763125 3.51419105 10.53304782 0.00009741 -0.00015965 -0.00404687
N 7.68822200 6.01940021 14.86595204 -0.00256093 0.01006305 -0.00218220
N 10.41357398 1.33904906 16.64419156 -0.00221009 -0.00284133 -0.00361262
N 9.51318299 8.52272968 12.16774757 -0.00335192 0.00363848 0.00274257
N 7.45803922 5.86713753 18.88761886 -0.00499447 -0.00003332 -0.00121561
N 8.99216746 4.22793573 23.96595567 -0.00232464 -0.00299361 -0.00048308
N 9.58606577 8.70884344 26.36702271 0.00292508 -0.00241930 -0.00195424
N 10.59134648 0.77043671 21.62755920 0.00260429 0.00370929 -0.00254821
N 8.61905853 3.91624518 19.61880886 -0.00147488 0.00240801 -0.00180511
N 7.79207586 6.17770924 24.31247904 -0.00183853 -0.00385568 -0.00003151
N 10.70196229 1.16497912 25.81631400 -0.00228397 0.00028078 0.00242393
N 9.35232399 8.32274256 21.20547253 -0.00268745 0.00526421 0.00259665
N 7.63218082 15.51598296 1.04399093 -0.00038399 -0.00488124 -0.00642025
N 8.65987267 13.97568358 5.91943937 -0.00543438 0.00029255 0.00467328
N 9.24744579 19.08263953 8.19951330 -0.00359777 0.00133205 0.00569825
N 10.41415899 10.57940554 3.51901895 0.00664442 0.00980855 0.00955953
N 8.71675549 13.49729465 1.55888264 0.00167432 0.00151192 -0.00158143
N 7.90380463 16.20037464 6.10934657 0.00464012 -0.00347828 0.00040006
N 10.90298283 11.00393872 7.43332422 -0.00310469 -0.00311437 -0.00086256
N 9.50420053 17.96065841 3.05321930 0.00839840 0.00270168 0.00030897
N 7.50622809 15.17212567 10.55386929 -0.00299413 -0.00004782 -0.00080687
N 9.06477040 14.04506352 14.44502889 -0.00120586 0.00073794 0.00267976
N 9.59380797 18.48672525 16.94671245 -0.00415059 0.00242471 0.00774029
N 10.45363493 10.60925488 12.38283783 -0.00749919 -0.00546480 -0.00200670
N 8.95469701 13.41453867 10.32436896 0.00545311 0.00079143 0.00495974
N 7.67051432 15.84410247 15.01728294 0.00297860 0.00486922 0.00251302
N 10.78915245 10.83737656 16.17280209 -0.00380665 -0.00648783 0.00162204
N 9.47075679 18.43119113 12.17318189 -0.00167140 0.00393760 0.00245244
N 7.59853979 15.06016817 19.27725855 0.00579491 0.00302705 0.00168116
N 9.09933678 13.69779813 23.64376597 -0.00735864 0.00234789 0.00896747
N 8.92148071 18.44661358 26.42914639 0.00127413 0.00063152 -0.00102733
N 10.73290031 10.10636281 21.28730501 -0.00115281 -0.00007500 0.00094582
N 8.91978284 13.25797772 19.29789882 0.00483278 -0.00084138 -0.00099097
N 8.21853251 15.71385606 24.49935043 -0.00333707 -0.00377331 0.00600128
N 10.63636149 10.72779394 26.06132444 -0.00032243 -0.00463332 -0.00059342
N 9.66601038 17.91339085 20.99366139 -0.00515554 0.00159861 0.00015550
N 7.66562951 24.87949579 1.20621992 0.00073001 -0.00210839 0.00105673
N 8.85823117 23.63708726 5.52496781 -0.00333929 -0.00558054 0.00951009
N 9.32225859 28.22436665 7.75708101 -0.00085942 -0.00278085 0.00058176
N 10.93699000 19.79882535 3.24284491 0.00292826 0.00569260 -0.00949307
N 8.97830816 22.90677395 1.45768971 -0.00142985 -0.00832148 0.00000737
N 7.64204397 25.58398897 5.57341000 -0.00316087 0.01059780 0.00153547
N 10.61169809 20.89976375 7.55942095 0.00349895 -0.00167088 0.00168447
N 9.94131106 27.96483786 3.30316471 -0.00335542 -0.00528207 -0.00199950
N 7.66168734 24.84247691 10.10098461 0.00349956 0.00078225 0.00500160
N 8.58408791 23.52941303 14.53274151 0.00291036 0.00302459 0.00072087
N 9.44652769 28.44465570 16.94481214 -0.00029749 -0.00223999 -0.00378340
N 10.83778322 20.33334303 12.50799846 0.00507291 0.00543621 -0.00010661
N 9.01533275 23.13792192 10.86756026 -0.00009519 -0.00078231 0.00544232
N 7.45007833 25.59741691 14.97294612 -0.00346461 0.00228778 -0.00156330
N 10.20890270 20.66223815 16.54168526 -0.00406702 0.00102712 -0.00407249
N 9.58475849 27.98689664 11.94494739 0.00362373 -0.00230760 -0.00107722
N 7.22812849 24.82103650 19.18940380 -0.00076166 0.00457752 -0.00436789
N 8.76285745 23.36268992 24.00517151 -0.00353668 -0.00473119 0.00747804
N 9.41714599 28.48850729 26.51165836 -0.00142219 0.00230898 0.00289957
N 10.70348264 19.84574881 21.54191419 0.00061919 -0.00039445 0.00554834
N 8.63594938 23.02963020 19.65623552 0.00773061 0.00268310 -0.00770062
N 7.93912211 25.49948068 24.13462331 -0.00495891 0.00350798 -0.00769349
N 10.35505261 20.18454031 25.86216660 0.00191486 0.00233625 0.00056595
N 9.37595694 28.10052642 21.15836334 0.00006400 0.00613242 0.00378653
N 11.74312883 5.67490703 1.26251949 -0.00004730 -0.00175870 0.00091932
N 12.75186852 4.35625941 5.74439223 0.00499411 -0.00281301 -0.00250711
N 13.20197316 9.06771706 7.86007194 0.00630100 -0.00595190 0.00035365
N 14.71935078 0.45868384 3.35897945 0.00812458 0.00216698 -0.00056468
N 12.48117252 3.45462166 1.32770571 0.00159090 -0.00309001 0.00024035
N 11.34246374 6.16560090 5.85615532 0.00052702 0.00555841 -0.00795236
N 14.06985696 1.39733431 7.70367809 0.00386482 0.00265073 0.00049445
N 13.05336962 8.67193227 3.22867052 0.00086250 -0.00537319 -0.00317037
N 11.24268115 5.20643503 10.25032008 0.00336917 -0.00168708 0.00118865
N 12.42664034 4.12999691 14.47484815 0.00081117 0.00176387 0.00026007
N 13.08044015 8.82553571 16.80044462 -0.00716392 0.00006545 -0.00483278
N 14.46578452 0.52337789 12.58512642 0.00717299 0.00057074 -0.00273931
N 12.37184685 3.18414742 10.21774298 -0.00452394 0.00366165 -0.00663151
N 11.12869507 6.05512217 14.95929413 0.00026641 0.00165717 -0.00394681
N 13.95546980 1.14403514 16.56191966 -0.00101712 -0.00030423 0.00354804
N 13.31256868 8.25108743 12.08551451 -0.00234779 -0.00276070 -0.00449857
N 11.16209536 5.46564963 19.39344914 0.00055495 0.00287332 -0.00195077
N 12.75575809 4.19332283 23.85374589 -0.00276743 -0.00390226 -0.00525005
N 13.24218028 9.13906648 26.07156711 -0.00026028 -0.00353002 0.00116638
N 14.33536296 0.72297757 21.51656299 0.00005621 0.00239652 0.00579642
N 12.42723563 3.64239044 19.58195116 -0.00658387 -0.00222913 -0.00467842
N 11.48742077 6.07271229 24.30497604 -0.00102584 -0.00480795 0.00234642
N 14.32770717 1.49124666 25.85909591 0.00036609 -0.00138401 0.00166054
N 12.99324460 8.38658192 21.12716590 -0.00536515 0.00496245 -0.00456029
N 11.06574668 15.02164097 0.74313980 0.00140086 -0.00716560 0.00727038
N 12.60362903 13.84706540 5.65689739 -0.00282423 0.00049525 0.00483942
N 13.32207728 18.84151132 7.86345529 0.00406714 -0.00192896 0.00577704
N 14.34520420 10.54663816 3.39318244 0.00554347 0.00288215 0.00062839
N 12.30522717 13.30533615 1.60602833 0.00159947 0.00217680 -0.00681998
N 11.52695246 15.87348797 5.86243249 0.00847498 -0.00041906 -0.00708958
N 14.41724034 11.03151583 7.53183596 -0.00232404 0.00514843 0.00337108
N 13.09133322 17.86099479 3.02209156 0.00238938 -0.00026474 -0.00273222
N 11.36092267 15.58968947 10.22018493 -0.00201951 0.00155241 -0.00263020
N 12.76562671 13.65842610 14.49133818 -0.00557807 -0.00380069 -0.00259588
N 12.76420572 19.17776782 16.94209080 -0.00160951 -0.00082498 -0.00397359
N 14.57957329 10.17824894 12.30765262 0.00171993 0.00640961 0.00452190
N 12.64872547 13.56642350 10.36673479 -0.00211094 0.00590463 0.00258076
N 11.55576190 15.58242720 15.08288897 -0.00126895 -0.00459642 0.00132532
N 14.19478569 10.87766280 16.59709605 0.00418111 -0.00099195 -0.00648676
N 13.41811772 18.29663433 12.10631913 -0.00080698 -0.00128377 -0.00120372
N 11.72496800 15.21897975 18.86476365 0.00080087 0.00107216 0.00243876
N 12.63086340 14.05236647 23.83057370 -0.00428991 -0.00012706 0.00631042
N 12.97152128 18.40461475 26.05979498 0.00088682 -0.00202450 -0.00779223
N 14.74753966 9.84806490 21.43471570 0.00516003 -0.00137973 0.00046948
N 12.53611147 13.11147759 19.67114561 -0.00434620 0.00131005 -0.00604992
N 11.60968373 16.05852180 23.93356969 0.00812761 -0.00287997 0.00052528
N 14.28896045 11.09629476 25.76129727 0.00401322 -0.00374421 -0.00090077
N 13.10257177 18.33837433 20.94725382 0.00328819 0.00037621 -0.00154908
N 11.03413461 24.99105393 0.82851923 -0.00124055 0.00363828 -0.00195103
N 12.71628112 23.17369408 5.01209832 -0.00226022 -0.00028914 -0.00252343
N 13.39979333 28.27673651 7.78124825 -0.00182550 0.00502411 0.00304588
N 14.65371356 19.68336372 2.95266504 0.00262479 0.00583376 -0.00011273
N 12.15767334 22.96969856 1.18684786 -0.00482200 0.00678696 -0.00296080
N 11.87547706 25.16879130 5.71317416 0.00459161 -0.00013049 0.00115139
N 14.49504379 20.79447511 7.43946866 0.00104083 -0.00069380 0.00276529
N 13.42615477 27.68322572 3.00618086 -0.00785655 -0.00023942 -0.00247276
N 11.43895235 25.09652965 9.98346460 -0.00034302 0.00305837 -0.00503109
N 12.22098327 23.26185495 14.47615079 -0.00823546 -0.00041535 0.00266116
N 12.73155442 28.36065430 16.90413135 -0.00624478 -0.00152727 -0.00588675
N 14.27994127 20.33724533 12.39579266 -0.00058508 0.00187129 -0.00053315
N 12.16273845 22.99360452 10.35853870 0.00089715 0.00140010 0.00141812
N 10.96745427 25.14491415 15.17243442 -0.00175916 -0.00840735 -0.00034682
N 14.18307063 21.01842462 17.02602544 -0.00029151 -0.00072488 0.00002784
N 13.27853991 27.70796592 12.45145111 -0.00824621 0.00033706 -0.00130367
N 11.01822230 24.97688496 18.89730739 0.00249829 0.00795774 0.00586901
N 12.54697798 23.45664473 23.32771560 0.00441965 -0.00468802 0.00351461
N 13.47737548 28.56203491 25.65805812 0.00151617 0.00259083 -0.00314803
N 14.50355643 20.16935314 21.42211221 0.00256959 0.00423094 -0.00015860
N 12.05202465 23.05659068 19.75028814 0.00220153 -0.00551354 0.00124714
N 11.21080586 25.25910979 24.00413025 0.00366066 -0.00441383 -0.00254152
N 13.79323045 20.53156353 25.57993668 0.00046433 0.00118542 0.00063830
N 13.12448768 28.03685355 21.08147876 0.00460677 -0.00290438 -0.00065949
N 14.91414946 5.37581234 1.31282366 -0.00028322 0.00267176 0.00079218
N 16.10802040 4.17731218 5.39495970 -0.00169974 0.00316881 -0.00478431
N 17.07359190 8.86962898 8.13903880 0.00172646 0.00265937 -0.00655721
N 18.22229677 1.02878665 3.41880865 -0.00248595 0.00068073 -0.00178621
N 16.03402758 3.38125423 1.71824796 0.00121887 -0.00054847 -0.00299669
N 15.16366876 6.12715018 6.23552104 0.01254400 0.00489845 -0.00022442
N 18.03774382 1.25580730 7.65998459 0.00486222 -0.00243363 -0.00328170
N 16.81331184 8.71048905 3.33093658 -0.00154292 0.00376911 0.00302794
N 14.89857827 5.39936285 10.29550668 0.00334189 0.00338749 0.00172022
N 16.23423748 3.97678263 14.91380756 0.00139328 -0.00593062 0.00056260
N 16.75109904 8.96222343 17.17076146 0.00057762 -0.00169474 0.00161371
N 17.96338947 0.55370796 12.86393750 -0.00042308 -0.00616010 -0.00426354
N 16.34676547 3.57040379 10.37591261 0.00109028 -0.00202817 -0.00908736
N 14.98308738 5.93774818 15.01950544 -0.00508263 0.00289971 0.00296772
N 17.80527843 0.72693087 17.06389146 0.01000491 0.00412490 0.00072883
N 17.22809158 8.34664635 12.30209225 0.00561186 -0.00216223 0.00416488
N 14.60689721 5.93120352 19.39493047 0.00510743 -0.00326453 0.00650843
N 16.49966169 4.37796026 24.01191851 -0.00473118 0.00286327 -0.00536389
N 16.85750569 8.91781686 26.31210848 -0.00407595 -0.00397752 0.00077393
N 18.48472231 1.10562036 21.76525097 0.00212989 -0.00668882 0.00234168
N 15.58558725 3.79757590 19.69359058 0.00003582 -0.00050760 0.01116251
N 15.02121145 6.12539310 24.15751425 0.00674885 -0.00053222 0.00237118
N 17.89779522 1.41895045 26.00688058 -0.00575963 0.00109882 0.00033534
N 17.06721736 8.22779513 21.55854711 0.00151000 0.00483619 0.00044725
N 15.38525924 15.50932763 1.52973812 0.01006544 -0.00588331 0.00392979
N 16.64866216 13.77853824 5.81381906 -0.00167310 0.00424551 -0.00553909
N 16.94375284 18.73585438 8.13319747 0.00017916 0.00902533 0.00248009
N 18.38267873 10.40312848 3.48185438 0.00013071 -0.00210636 -0.00356181
N 16.21359389 13.29602415 1.33684456 0.00106675 -0.00689155 -0.00789675
N 15.37963452 15.67915477 6.21394945 0.00343766 -0.00536132 -0.00291674
N 17.99786672 10.97517329 7.75531540 0.00295100 -0.00173564 -0.00075501
N 17.06404643 18.17577727 3.03911653 -0.00656773 0.00168064 0.00209869
N 15.11922181 15.31345735 9.99562328 -0.00300359 -0.00054668 -0.00216722
N 16.60384437 13.89196413 15.15771865 -0.00685169 0.00918847 -0.00142998
N 16.66708463 18.83219719 17.25324104 -0.00315705 -0.00661167 -0.00131000
N 18.30464924 10.34421939 12.48934734 0.00073035 -0.00115952 0.00667442
N 16.27411065 13.26271441 10.52299378 -0.00001391 0.00521940 0.00956438
N 15.34656205 15.83725152 15.47765437 0.00072048 0.00362414 -0.00218463
N 17.99548969 11.03731466 17.05483894 0.00031400 0.00658285 0.01282268
N 17.01489859 18.18733401 12.38304508 -0.00047468 -0.00593266 -0.00060582
N 15.10738819 15.07453198 19.65835487 -0.00875912 -0.00305829 0.00223236
N 16.41689340 13.75946082 23.83889975 -0.00348836 0.00187409 0.00199929
N 17.10619679 18.53391983 26.51104373 -0.00203825 -0.00095554 -0.00904944
N 18.23278770 10.23985041 21.77709163 -0.00426058 0.00467782 -0.00152684
N 16.22646998 13.15175319 19.89715636 0.00428189 0.00221336 -0.00137206
N 15.17957121 15.67803258 24.27710279 -0.00475909 0.00227895 0.00025033
N 17.82518685 10.87670086 25.60107589 -0.00411780 -0.00126040 0.00251289
N 16.75015531 18.33072104 21.52524553 0.00119840 0.00130681 -0.00389793
N 15.00528055 24.72386123 1.40634182 0.00205198 -0.00085178 0.00093183
N 16.43676842 23.39928921 5.73571091 0.00765045 0.00155485 -0.00009819
N 17.05306168 28.40040240 8.12987233 0.00006448 -0.00211174 0.00105403
N 18.20372838 20.05665206 3.86966248 -0.00165336 -0.00069006 -0.00223894
N 16.29282824 22.74139169 1.41430536 0.01087984 -0.00090878 -0.00074552
N 15.16525473 25.25159802 5.98637060 0.00189357 0.00629372 0.00533348
N 18.29110729 20.67918946 7.82062524 0.00132618 0.00088400 -0.00196452
N 17.15477633 28.19771800 3.00955881 -0.00549840 0.00178361 -0.00294793
N 14.99953437 24.97200190 10.21891661 -0.00004183 -0.00432063 0.00201855
N 16.39631099 23.46476630 14.65543638 0.00205476 -0.00422354 -0.00161031
N 16.48867750 28.04692241 17.15636943 0.00135182 -0.00911381 -0.00455255
N 18.22373270 20.19832448 12.51157806 0.00592234 0.00120013 0.00244608
N 16.23896506 23.10856735 10.55660872 0.00586834 -0.00753239 -0.00910115
N 15.12962635 25.24571248 15.21453866 0.00449064 0.00058053 0.00101250
N 17.90835726 20.71518055 16.83039224 0.00114697 -0.00072022 0.00361874
N 16.85248326 27.69199615 12.86055259 -0.00124787 -0.00321387 -0.00659738
N 14.69680355 24.57075497 19.47434720 0.00470582 -0.00361999 -0.00472335
N 16.44533969 23.45931012 24.06159162 -0.00649523 0.00710539 -0.00146701
N 16.55960239 28.70727490 25.96647151 -0.00002655 0.00029412 -0.00749617
N 18.13063632 20.11850253 21.65493991 -0.00190727 0.00179283 -0.00188401
N 16.15887009 22.92707476 20.06459809 -0.00385221 -0.00270542 -0.00104029
N 15.39407789 25.47536842 24.23305736 -0.00141938 0.00270491 -0.00403705
N 18.15068129 20.59504849 25.99790257 0.00001739 -0.00059085 -0.00571457
N 17.15776479 28.28750887 21.39794419 0.00460823 0.00125684 0.00869650
N 18.44078118 5.82871648 1.58693810 0.00217732 0.00607381 -0.00182827
N 20.03286716 4.19717106 5.79405810 0.00330789 0.00024206 0.00246786
N 20.25251738 8.80963478 8.68619108 0.00491695 0.00110788 0.00011602
N 21.88729267 1.16331840 3.24530523 -0.00018164 -0.00071188 0.00320026
N 19.81951865 4.03274852 1.75885345 0.00285501 -0.00331620 0.00357063
N 18.96269176 6.14599845 6.20670532 0.00260590 0.00009247 -0.00131094
N 21.85715772 1.47342526 7.20074333 -0.00155646 -0.00692492 0.00649068
N 20.81946502 8.38685032 3.31069657 -0.00389058 0.00323206 -0.00009775
N 19.26808163 5.55982384 10.27818783 0.00249528 -0.00451725 0.00094490
N 19.68350464 4.24813112 14.85072658 0.00377263 0.00613490 -0.00289167
N 20.40600008 8.75736561 17.18868259 -0.00270355 -0.00050359 0.00187018
N 21.89000421 0.32646590 12.19220194 -0.00335519 0.00910080 0.00235112
N 20.09631402 3.36756157 10.56820220 -0.00346134 0.00131510 -0.00352740
N 18.32131272 6.13953021 15.12134986 -0.00055147 0.00204863 -0.00454329
N 21.81203196 1.16297845 16.34772654 -0.00297946 -0.00484824 0.00433775
N 20.79028940 8.75309338 12.14092968 0.00895050 -0.00357056 0.00284503
N 18.32014533 5.55558662 19.01236792 -0.00490591 0.00316013 -0.00236978
N 20.11112723 4.37090395 23.63436127 0.00368042 -0.00521933 0.00383827
N 20.53359148 8.94923269 26.25324477 0.00513637 0.00432493 0.00348504
N 21.35201835 0.78239346 21.36475523 -0.00748321 0.00380276 -0.00308161
N 19.71232616 3.82703934 19.25176911 0.00404277 0.00775764 0.00402895
N 18.73719590 6.01419622 24.35517231 0.00051800 0.00477579 0.00367944
N 21.76509208 1.35675520 25.68022110 0.00293682 -0.00112147 0.00257322
N 20.69863154 8.32367060 21.18093569 0.00374521 -0.00079374 0.00241490
N 19.10339539 15.28956525 1.32163737 -0.00352194 0.00043922 -0.00370999
N 19.92309007 13.58862255 6.11412499 -0.00094957 0.00058241 0.00110066
N 20.46268040 18.80350353 7.96623073 -0.00284395 0.00341571 0.00823082
N 0.04714603 10.27456701 3.82162270 0.00162268 0.00142403 0.00032034
N 20.04297580 13.18832978 1.35392743 -0.00094966 0.00058344 -0.00024103
N 19.25759676 15.78016007 6.21134144 0.00209558 0.00049892 0.00422118
N 21.76626836 10.40425822 7.74963046 -0.00083185 0.00363500 0.00168637
N 20.71369998 18.26227449 3.08055010 0.00353018 0.00375663 0.00093815
N 18.66752969 15.15220066 10.46824795 0.00092119 -0.00462166 -0.00702996
N 20.08987574 14.02458739 15.08008828 -0.00010931 -0.00371346 -0.00087223
N 20.78586407 18.67231710 16.83182601 -0.00197057 -0.00487306 0.00573578
N 0.10349234 10.47821707 13.05270274 0.00195400 -0.00349106 0.00011148
N 20.11004665 13.32756159 10.96613298 0.00379100 -0.00189773 0.00403743
N 18.75464956 15.96348416 15.23935457 -0.00256127 -0.00389176 -0.00402707
N 21.45767648 10.74388227 16.99760073 0.00616512 0.00561108 -0.00013902
N 20.66708146 18.04347203 12.39119892 0.00169435 -0.00570128 0.00287394
N 18.38048399 15.18893340 19.55323200 0.00209141 -0.00534700 -0.00060825
N 20.05859037 13.80458270 24.03652739 0.00523451 -0.00316462 0.00689793
N 20.48247188 18.84639756 25.66881653 -0.00143710 -0.00104684 -0.00218396
N 21.94716771 10.14036556 21.79785913 -0.00566426 0.00620081 0.00249430
N 19.86745873 13.42512632 19.74331028 0.00308466 -0.00048986 0.00089391
N 18.77822745 15.70353250 24.32162146 -0.00131684 0.00145643 0.00358039
N 21.62902745 10.88859885 25.69456486 -0.00814289 -0.00173333 -0.00082778
N 20.21864435 17.92504528 20.79758532 -0.00499876 0.00124107 0.00300869
N 19.09108163 25.39712161 1.10597853 -0.00016074 0.00023139 -0.00778256
N 19.98523341 23.82191146 5.73234935 0.00336023 -0.00455292 -0.00558633
N 20.39170839 28.82151349 7.55029323 -0.00113972 -0.00151784 0.00520276
N 21.90267499 20.13063859 3.71276509 0.00469823 -0.00219536 -0.00285708
N 19.75035289 23.15458473 1.53689984 0.00374495 -0.00371092 0.00301061
N 18.60253935 25.59773794 5.93138134 0.00116659 -0.00578113 0.00123409