1728
Time=10000.00000000 pbc="T T T" Lattice="21.90865779 0.00000000 0.00000000 0.00000000 28.96190714 0.00000000 0.00000000 0.00000000 27.45118730" energy=-10387.28556132 virial="28.90056283 6.58824462 15.31524714 6.58824462 8.52202078 -37.19370841 15.31524714 -37.19370841 -32.93920921" stress="0.00378639 0.00034467 0.00096995 0.00034467 0.00304391 -0.00214371 0.00096995 -0.00214371 0.00114668" Properties=species:S:1:pos:R:3:vel:R:3
N 0.00212678 5.27001272 1.06464437 -0.00160929 -0.00409761 -0.00137397
N 1.64981214 4.15557018 5.67796860 -0.00267944 -0.00440468 -0.00444202
N 2.39072683 9.13276679 7.82928974 -0.00130489 -0.00052523 0.00475447
N 3.34109920 0.65916394 3.30816953 0.00461549 0.00128591 -0.00072985
N 1.56523241 3.54527912 1.26470602 -0.00530798 0.00542524 0.00064001
N 0.31327974 6.06897686 6.13564933 -0.00229216 0.00240607 0.00790329
N 3.34390688 1.06627213 7.57379907 0.00552897 -0.00261081 0.00000198
N 2.41358120 8.28334444 2.94578172 0.00128140 0.00142106 -0.00155371
N 0.54122788 5.73734065 10.21012052 0.00313101 -0.00189074 0.00303527
N 1.47008949 4.35194941 14.90849707 0.00212642 0.00374654 -0.00141736
N 2.53680368 8.88991447 17.05513821 0.00067505 0.00064104 -0.00376179
N 2.97077594 0.73944705 12.33669539 0.00268002 0.00156273 0.00017259
N 1.29051875 3.55729448 10.33427739 0.00164740 0.00108706 -0.00043166
N 0.21499999 6.28130318 15.15724871 -0.00369530 0.00087520 0.00164357
N 3.21364740 1.16381769 16.70036472 -0.00318019 -0.00319144 0.00308437
N 1.79947526 8.40443722 12.21747437 -0.00316728 0.00639236 0.00225667
N 0.02358662 5.66459639 19.48392566 0.01021451 -0.00447602 -0.00377662
N 1.75399517 4.48081263 23.93090394 -0.00371178 -0.00145786 -0.00211002
N 2.36411695 8.94861703 26.08912526 0.00139238 -0.00395167 -0.00184994
N 3.30576567 0.79747671 21.52976346 0.00289559 -0.00389855 0.00592014
N 1.27066535 3.73177090 19.89691826 0.00204681 -0.00151726 -0.00445944
N 0.33508369 6.25764964 24.31124363 -0.00092769 -0.00043415 0.00191928
N 3.03496295 1.51265599 25.70104808 -0.00045536 0.00636820 0.00572685
N 2.15434348 8.55964505 21.23364360 0.00189167 0.00093124 -0.00687656
N 0.03980471 15.26937069 1.11768355 0.00692826 -0.00420950 -0.00300146
N 1.66508770 13.86225756 5.81529104 0.00299336 -0.00643674 -0.00157898
N 2.24610942 18.65276398 7.95383897 0.00003562 -0.00458310 0.00044594
N 3.44648442 10.32309708 3.10258436 0.00661104 -0.00642261 -0.00084781
N 1.25088281 13.37213397 1.40464028 -0.00443797 -0.00334864 0.00038385
N 0.54266666 15.85438030 5.96008825 -0.00923262 -0.00828952 0.00517827
N 3.51534000 11.16075464 7.80585876 0.00533161 -0.00068844 0.00277680
N 2.63439248 18.06265122 2.73609478 -0.00328777 -0.00112358 -0.00799006
N 21.86751626 15.11532579 10.40788124 0.00175543 0.00125976 0.00626569
N 1.49819553 13.71547854 14.94391390 -0.00104587 0.00231220 -0.00031601
N 1.99331086 18.68600008 17.26753891 0.00006321 0.00398737 0.00276696
N 3.23130687 10.27809524 12.58316331 0.00113666 -0.00075582 0.00543575
N 0.90151502 13.10896432 10.79329311 0.00506200 0.00440434 0.00096696
N 0.25194632 15.62189165 15.09206579 -0.00128330 -0.00128022 0.00286931
N 2.96499894 11.13230454 17.01698466 -0.00130468 -0.00399521 -0.00172878
N 2.34073952 17.85969629 12.47691989 -0.00260678 -0.00095197 0.00183556
N 0.32193388 15.17378992 19.35153460 -0.00278592 0.00295720 -0.00487135
N 1.60145547 14.04766151 23.98784375 0.00429797 0.00538094 -0.00556587
N 2.39356080 18.74693025 26.17733215 -0.00192474 -0.00132653 0.00305458
N 3.30104793 10.59749676 21.76085273 0.00440245 -0.00162386 0.00348587
N 1.16771264 13.11289252 19.86075048 0.00011121 -0.00189654 0.00036879
N 0.50925409 16.09236914 24.21803200 0.00242818 0.00500049 0.00567859
N 3.19173302 11.09287745 26.02718255 0.00250382 0.00380201 0.00203095
N 2.18868026 17.97520533 21.39636041 -0.00301705 0.00621572 -0.00109449
N 0.15709101 24.65112699 1.22657785 -0.00184389 -0.00385649 -0.00070246
N 1.52376015 23.61170195 5.80717976 -0.00561336 -0.00325188 0.00129561
N 1.81017717 28.25649072 7.83698684 0.00473590 0.00266932 -0.00309608
N 3.47145784 20.03048786 3.47843538 0.00679944 0.00085950 0.00709211
N 1.59825729 22.91708150 1.44976082 0.00772626 -0.00237701 -0.00148967
N 0.15488309 25.46187987 5.87744462 0.00387973 0.00227693 0.00350262
N 3.54118358 20.70331496 7.89167932 -0.00386973 0.00182176 0.00146421
N 1.91326213 27.77164598 2.87779176 -0.00019881 0.00452862 -0.00314342
N 0.18570838 24.85328573 10.37662883 0.00234251 -0.00649676 0.00738943
N 1.55481030 23.40981105 14.96985455 0.00423846 -0.00310605 0.00095146
N 1.93365669 28.25281409 16.88601490 -0.00150401 -0.00076548 -0.00375549
N 3.36582918 19.79702620 12.85867154 -0.00876044 -0.00771452 0.00391275
N 1.45868808 22.92754526 10.75411046 0.00213338 -0.00126237 -0.00635458
N 0.32523569 25.39472814 15.11020538 -0.00367352 -0.00280289 0.00025521
N 3.31224117 20.54488747 17.09685509 0.00426008 0.00295187 0.00238434
N 2.12725465 27.55706557 12.25513130 0.00527251 -0.00798438 0.00613871
N 21.80324208 24.82434917 19.47849620 0.00134670 0.00166468 0.00447748
N 1.73417425 23.47476419 23.99635753 0.00156534 0.00506782 -0.00422452
N 2.36435689 28.30491840 25.97839300 0.00129963 -0.00578531 0.00640803
N 3.40277975 19.91253219 21.49652198 0.00310634 0.00413858 0.00374885
N 1.46757573 23.11895920 19.89591326 -0.00328979 0.00122179 0.00040296
N 0.61383211 25.43313856 24.26868648 -0.00225173 0.00148839 0.00320235
N 3.63546933 20.69871292 25.99883383 0.00472197 -0.00280862 0.00372804
N 2.08819659 27.83634324 20.97745469 -0.00331464 0.00031183 -0.00257159
N 4.15739174 5.67632336 1.04275061 0.00153929 0.00118326 0.00334187
N 5.12910888 4.09880743 5.67844760 -0.00250444 -0.00254129 0.00153777
N 5.59597533 8.96766194 7.69951420 0.00351926 -0.00357988 0.00434961
N 7.19072990 0.72716441 3.56427947 -0.00232554 0.00196044 0.00155977
N 5.15005547 3.67377195 1.37550691 -0.00233584 -0.00063337 -0.00118226
N 4.05543448 6.13422647 6.00589328 0.00319544 0.00166558 0.00290841
N 6.91294862 0.97959063 7.87578642 0.00075972 0.00339019 -0.00016486
N 5.85409612 8.23859634 2.92496964 0.00245500 -0.00266511 0.00329887
N 3.62698047 5.38926658 10.28083176 -0.00192997 0.00643212 0.00029718
N 5.20857125 3.99830163 14.95548588 -0.00544508 -0.00652561 -0.00268700
N 5.67943575 9.00893569 17.07862572 0.00493756 0.00208764 0.00317713
N 6.90773011 0.27526917 12.80637001 -0.00099571 0.00447166 -0.00273314
N 5.05054176 3.46159356 10.53335603 0.00040094 0.00039563 -0.00443741
N 3.88905884 5.97244004 15.03115427 -0.00029504 -0.00638168 0.00075739
N 7.04599431 0.98205395 16.82301792 -0.00244310 0.00054304 -0.00490223
N 5.79069295 8.42971982 12.18258324 0.00420981 0.00052808 -0.00563158
N 3.70208360 5.42651251 19.64309324 -0.00838899 -0.00399458 -0.00058418
N 5.65856261 4.53479367 24.13526629 0.00268021 -0.00477744 0.00415588
N 5.62143030 9.04566275 26.24164721 -0.00215812 0.00077933 -0.00236063
N 6.98896833 0.82778219 21.55008005 0.00349678 -0.00126864 -0.00979667
N 5.12659652 3.66303331 19.58090465 0.00369161 -0.00033336 0.00580788
N 4.15985954 6.36909762 24.37451009 0.00398361 0.00214686 -0.00468686
N 6.85483287 1.43399311 25.78643378 0.00177832 -0.00005984 -0.00289040
N 5.91445100 8.55636129 21.33402502 -0.00349201 -0.00254686 -0.00359005
N 3.83134242 15.08544336 1.06473634 -0.00161581 -0.00043664 -0.00078262
N 5.37399408 13.63392643 5.59262351 -0.00120457 -0.00163668 0.00636130
N 5.73504940 18.71355900 7.71563260 0.00144107 0.00292541 -0.00597036
N 6.99700346 10.21588527 3.34184590 -0.00061489 -0.00529565 0.00020173
N 5.19643440 13.33244215 1.42796725 -0.00326159 0.00058235 -0.00022913
N 4.05998686 15.56804475 6.01992373 0.00374201 0.00053218 0.00089317
N 7.11953031 10.76759161 7.62299152 -0.00468252 -0.00019315 0.00706162
N 6.16104302 17.86292792 3.03341693 0.00048300 0.00447304 0.00492560
N 3.75999648 15.13066967 10.13314887 0.00522596 0.00053748 -0.00026211
N 4.77095438 13.55956539 14.75734261 -0.01023475 0.00215829 0.00237086
N 5.93524230 18.53745022 17.18759850 0.00628949 -0.00039494 0.00086896
N 6.94548392 10.46068629 12.42514495 0.00602303 0.00764819 -0.00070910
N 4.99379606 13.33113845 10.69794384 -0.00828902 0.00343112 -0.00259558
N 3.77381649 15.63916097 15.27219815 0.00205462 0.00193719 -0.00134667
N 6.96645547 10.95087879 16.83981489 -0.00030685 -0.00400147 -0.00112797
N 5.63084622 17.95375660 12.28199311 0.00121365 -0.00350240 0.00678040
N 3.60865899 15.08353386 19.49523639 -0.00036930 -0.00724151 -0.00429905
N 5.54121598 13.85141789 24.20524392 0.00585974 -0.00283374 -0.00609857
N 5.96718294 18.51801751 26.25401803 0.00433686 -0.00797579 0.00349320
N 6.66827744 10.65168054 21.91276756 -0.00403170 0.00412404 0.00094377
N 5.13513120 13.47975361 19.88829240 0.00533234 0.00598741 0.00105961
N 4.04078206 15.63301766 24.28173451 0.00021351 -0.00093953 -0.00360064
N 6.71430716 11.05258181 25.90432846 -0.00131828 -0.00246648 -0.00649645
N 5.81670718 17.91752197 21.33527535 -0.00216048 -0.00288577 -0.00116012
N 3.79633933 24.76665919 1.28031956 0.00240419 -0.00275110 0.00454919
N 5.23918388 23.63598323 5.71704507 0.00248119 0.00452803 -0.00320885
N 5.91205210 27.92618454 8.36493175 0.00183209 -0.00174114 -0.00784521
N 7.50826036 19.75359484 3.36413824 0.00120074 0.00041183 0.00073454
N 5.29957826 23.02341829 1.45545788 -0.00470721 0.00466466 -0.00625621
N 4.03013636 25.53948914 6.09063877 -0.00753250 0.00584049 -0.00109498
N 6.91310221 20.62374162 7.71590172 -0.00186211 0.00352180 0.00166767
N 5.90481341 27.84681208 3.05018560 0.00146127 -0.00338037 -0.00177986
N 3.96742998 24.68292877 10.43188030 -0.00008482 0.00078309 0.00195643
N 5.22059454 23.55324579 15.02274265 0.00189742 0.00161955 -0.00254806
N 5.59017158 28.12864640 17.03621158 0.00541891 0.00901202 -0.00156353
N 6.81181356 19.88349189 12.57706282 -0.00145544 0.00247608 0.00671215
N 5.28688113 22.78885885 10.75336214 0.00026647 0.00217199 -0.00032082
N 4.03805928 25.47716632 15.27765345 -0.00334071 0.00075975 0.00346185
N 6.81757360 20.61832039 16.81778954 0.00077895 -0.00298972 0.00519044
N 5.77186307 27.29892259 12.60036368 -0.00623047 -0.00176972 -0.00137984
N 3.74049519 24.95050659 19.55896579 -0.00673772 0.00644449 -0.00120135
N 5.47147826 23.73765394 24.24166935 0.00624777 -0.00148620 -0.00121799
N 5.72884423 28.38670689 26.06954542 0.00427098 0.00106322 0.00217264
N 7.06297907 19.96687828 21.61109697 -0.00022702 -0.00048794 -0.00196927
N 5.00286511 23.17614481 20.12866169 -0.00224811 -0.00086349 0.00340100
N 4.05509331 25.50325121 24.59772282 0.00226374 0.00090382 0.00033301
N 7.19911978 20.38026282 25.91322713 -0.00086648 -0.00541362 0.00317354
N 5.65143188 27.86720125 21.53598852 -0.00323777 0.00333431 -0.00209497
N 7.67838197 5.33776379 1.07379628 0.00133507 -0.00085977 -0.00047520
N 8.88689031 4.14769858 5.66775343 0.00113421 -0.00124056 -0.00221105
N 9.24443723 8.85353965 8.01675633 -0.00373095 0.00087501 -0.00300840
N 10.55153105 0.51558844 3.24190095 0.00218671 -0.00191493 -0.00262540
N 8.80228162 3.34547202 1.42124701 0.00728605 0.00524489 0.00293292
N 7.69296476 6.11197956 5.93391231 -0.00190865 -0.00350079 -0.00544902
N 10.65248258 1.08530807 7.70069721 -0.00526938 0.00343991 -0.00667575
N 9.49581977 8.24151618 3.30324264 0.00171994 0.00616249 -0.00458068
N 7.44446589 5.29842625 10.20533621 0.00296592 0.00086843 0.00218849
N 9.03543196 4.36372798 14.79893541 -0.00045049 -0.00239989 0.00350838
N 9.51725478 8.90740252 17.30439453 0.00297480 -0.00765274 -0.00408406
N 10.63150681 0.64345652 12.56418272 0.00226005 -0.00146060 -0.00251705
N 8.80651130 3.48553128 10.36044418 0.00170907 0.00259174 -0.00388474
N 7.52980919 6.11514798 15.10275903 0.00032577 -0.00107464 0.00363368
N 10.55998797 1.35550085 16.72089159 -0.00473787 0.00162457 -0.00454208
N 9.34263459 8.33666920 12.29374221 0.00454981 -0.00084780 -0.00262399
N 7.68172167 5.69131543 19.31934884 0.00311590 0.00230031 0.00329116
N 9.02728678 4.30285375 23.95717960 -0.00132407 0.00321436 -0.00470584
N 9.67509472 8.93457751 26.52803199 -0.00024788 0.00352690 0.00465539
N 10.57804568 1.11528385 21.86279045 -0.00622794 -0.00219514 0.00260055
N 8.68043502 3.64438531 19.61750339 0.00589656 0.00123175 0.00121074
N 8.14509522 6.39596935 24.32528404 0.00448750 0.00418886 -0.00585646
N 10.49297310 1.39117847 25.76128742 0.00164969 -0.00581864 -0.00473804
N 9.99537642 8.22429413 21.30523944 -0.00426059 -0.00720932 -0.00726631
N 7.73385273 15.08832378 1.15314614 -0.00060152 0.00186363 -0.00643454
N 8.97485528 13.57757631 5.99908372 -0.00258925 0.00362987 -0.00351338
N 9.31504423 18.64559922 7.82063231 0.00115336 -0.00285152 0.01121524
N 10.51612097 10.37306115 3.51973054 -0.00018635 0.00608817 -0.00431857
N 8.89443150 13.20879453 1.57183228 -0.00198204 0.00734754 0.00368268
N 7.71871982 15.44756082 6.18901836 0.00288902 0.00075282 0.00560222
N 10.72854501 10.59797901 7.54981319 -0.00160821 0.00270945 0.00152739
N 9.93443704 17.82028490 3.13326844 -0.00400027 0.00260726 -0.00300598
N 7.47824755 15.00944257 10.53244007 0.00478877 -0.00034101 0.00097566
N 9.25348737 13.67019983 14.81926078 0.00495161 -0.00398722 0.00346369
N 9.37394416 18.76167010 17.13897391 0.00402052 -0.00169021 0.00196772
N 10.42574119 10.21410481 12.73606958 -0.00326829 -0.00557600 -0.00211975
N 8.89782621 13.14856599 10.60617358 0.00051647 0.00388957 -0.00414219
N 8.22666920 15.71067944 15.19920927 -0.00375208 -0.00146625 -0.00201291
N 10.67857109 10.96886228 16.92152535 -0.00261586 0.00307172 0.00202965
N 9.21578791 18.17202520 12.19004233 0.00788437 0.00040634 0.00467143
N 7.65181374 14.88021276 19.53379977 0.01221856 0.00836889 -0.00393042
N 8.99297771 13.84883773 24.03769026 0.00727613 -0.00051231 0.00535336
N 9.51544411 18.38662013 26.41734462 0.00185003 0.00117311 -0.00399544
N 10.75635990 10.22495078 22.25686712 -0.00564019 0.00218489 0.00218549
N 8.95265301 13.02377744 19.78114467 -0.00619311 -0.00044713 0.00168375
N 7.73398132 15.74739692 24.41389835 -0.00115796 0.01016173 0.00071676
N 10.74210671 10.93559407 26.05360848 -0.00421792 0.00159800 0.00430760
N 9.50254647 18.19623998 21.65683137 0.00140229 -0.00058220 0.00293179
N 7.48775927 24.55309661 1.07958066 0.00315000 -0.00316462 0.00774493
N 9.00447358 23.52074672 5.53564134 0.00149392 0.00160660 -0.00030971
N 9.33089654 28.15385785 7.95261827 -0.00592570 -0.00187116 -0.00040493
N 10.59450979 19.98418498 3.37226666 -0.00174210 -0.00531373 -0.00089087
N 8.77290841 22.68020551 1.43803908 -0.00186937 0.00900732 -0.00208214
N 7.64894052 25.48530665 6.02103986 -0.00299443 -0.00331826 0.00070964
N 10.65145411 20.58593430 7.75148151 0.00225561 -0.00079608 0.00093346
N 9.21544804 27.60396142 3.05735780 0.00794194 -0.00135495 0.00452406
N 7.39217991 24.83841815 10.52316304 0.00303576 -0.00291479 -0.00389067
N 8.92148297 23.40265319 14.82580946 -0.00384383 0.00408209 0.00104578
N 9.78225136 28.20825354 17.31603710 0.00049766 0.00524431 -0.00362836
N 10.56053591 19.99685674 12.53962556 0.00475384 -0.00648276 0.00048742
N 8.76872578 23.05612755 10.72680996 0.00401826 -0.00678164 -0.00460934
N 7.76178738 25.29641143 15.02142899 0.00242331 -0.00011472 -0.00341876
N 10.59250412 20.70657426 17.13363154 -0.00124013 -0.00307975 -0.00033155
N 9.34509784 27.65074840 12.27085874 -0.00618000 -0.00430310 -0.00403202
N 7.40697627 24.87471059 19.24194567 -0.00352845 -0.00144015 -0.00487321
N 8.88951171 23.34853634 23.70491007 -0.00254906 -0.00586009 -0.00119397
N 9.31584833 28.40088204 26.06411193 0.00533471 -0.00390364 0.00071211
N 11.00536134 19.95815781 21.90681228 0.00235313 -0.00005268 0.00175070
N 8.65569345 23.04883403 19.77714103 0.00507042 -0.00361422 0.00174094
N 7.92548299 25.43231332 24.11560373 0.00053472 -0.00745572 0.00527345
N 10.54580294 20.47269629 26.15212476 0.00033733 0.00303589 -0.00397938
N 9.43373087 28.20246413 21.24978569 0.00491608 0.00110867 -0.00024699
N 11.17854355 5.31990507 0.87721866 0.00285482 -0.00214560 -0.00040553
N 12.58244616 4.13661491 5.98259330 0.00244438 -0.00183060 -0.00470271
N 13.19634746 9.00570518 7.91200871 -0.00048090 -0.00208410 -0.00392353
N 14.50870372 0.54550681 3.29666657 -0.00175847 0.00336501 -0.00276558
N 12.28234207 3.45591470 1.43973084 0.00432933 0.00667745 0.00148693
N 11.13915846 5.94327241 6.18507861 0.00497306 -0.00373613 -0.00238615
N 14.40393159 1.08243745 7.65650395 -0.00265511 -0.00256024 0.00480609
N 13.43353404 8.20354216 3.07326798 -0.00414018 -0.00149501 0.00059726
N 11.15352905 5.45283104 10.48767275 0.00548238 0.00643490 -0.00504282
N 12.27646097 4.19858100 14.69735968 -0.00057040 -0.00015622 -0.00152773
N 12.84606796 8.94470100 17.09418977 0.00087817 -0.00347905 0.00140547
N 14.17465784 0.61917445 12.48747068 0.00246290 0.00102803 0.00234318
N 11.87022143 3.23018064 10.58391513 0.00066201 0.00521623 -0.00102416
N 11.16383123 6.23647714 14.86310725 -0.00359617 0.00076196 -0.00408973
N 14.31818634 1.24001945 16.65569462 0.00651202 0.00373109 -0.00423582
N 13.05054495 8.44038673 12.32995635 -0.00021311 0.00817947 -0.00296156
N 10.99918132 5.33755458 19.38476676 -0.00548820 -0.00355700 -0.00005466
N 12.70082002 4.04131314 23.85785459 -0.00059702 0.00119724 0.00400623
N 13.03989440 8.70223479 26.20023829 0.00124283 -0.00379258 -0.00694408
N 14.20523644 0.76735054 21.67088995 0.00434741 0.00306296 -0.00349600
N 12.34571757 3.50914947 19.31926117 0.00238398 0.00104623 0.00992947
N 11.53702796 5.96785152 24.11606204 -0.00380842 -0.00658462 0.00169582
N 14.23690119 1.17167905 25.73596791 0.00394119 0.00229222 0.00116550
N 13.54649691 8.36829535 21.07471588 0.00236141 -0.00267848 0.00127208
N 11.27254030 14.97637600 1.06980280 -0.01065297 0.00761424 0.00614692
N 12.53371141 13.77944849 5.75157924 -0.00444809 0.00076463 -0.00273565
N 13.05393862 18.86388147 8.07238653 0.00401270 0.00114879 0.00120852
N 14.49304631 10.22478845 3.34876950 0.00458054 -0.00567465 0.00063158
N 12.44354862 12.98550104 1.34500154 0.00139088 0.00421181 0.00226087
N 11.27006911 15.74227360 5.99626880 0.00762145 -0.00207141 -0.00217563
N 14.20070107 11.08504871 7.65301096 0.00844955 0.00579113 0.00138688
N 13.47332567 18.27006377 2.96645113 0.00218615 -0.00649388 0.00008535
N 11.26114553 15.28115415 10.27073735 -0.00291326 0.00015562 -0.00383579
N 12.37290989 14.14689305 14.89323377 -0.00186658 -0.00516543 -0.00037013
N 12.86915653 18.89028616 17.40408492 -0.00626634 0.00090854 -0.00303657
N 14.32500730 10.32354178 12.50872607 0.00753633 -0.00333900 -0.00311414
N 12.27492950 13.27893811 10.72931352 0.00225682 -0.00161509 -0.00006938
N 11.54188556 16.18324084 15.31755540 0.00375003 -0.00239273 0.00597876
N 14.23570395 10.87092643 16.89589109 -0.00020210 0.00152186 -0.00281410
N 12.84978326 18.20818230 12.38410048 -0.00383929 -0.00048766 -0.00184178
N 11.15228745 15.11618675 19.68230902 -0.00300992 0.00806366 -0.00236419
N 12.59886886 13.65931291 23.80708616 0.00396226 -0.00518831 -0.00648733
N 12.96004841 18.63281489 26.44527245 -0.00470610 0.00067682 -0.00059145
N 14.51940593 10.37480485 21.70390276 0.00168222 0.00754402 0.00272502
N 12.56829279 13.31807601 19.93693267 -0.00521263 -0.00133385 0.00235107
N 11.76261027 15.79144075 24.46019215 0.00228969 0.00516181 0.00108646
N 14.02750128 10.80126349 25.93884987 0.00221952 -0.00532010 -0.00957972
N 13.33023361 18.15433580 21.64204159 0.00198368 0.00057481 0.00160524
N 11.08968963 24.76543447 1.52331675 0.00872617 0.00055798 -0.00249566
N 12.39365769 23.26429019 5.87325677 -0.00186758 0.00351173 -0.00243469
N 12.91419545 28.31400787 7.98558046 -0.00102618 -0.00283468 -0.00139341
N 14.63786116 20.17869387 3.58655804 -0.00151724 -0.00758774 -0.00502887
N 12.44395836 22.95186603 1.73892064 -0.00470068 -0.00139198 0.00018361
N 11.28505076 25.35983728 6.09421925 -0.00380721 0.00329394 -0.00226385
N 14.33987248 20.74686468 7.91600242 0.00017504 -0.00109986 0.00221358
N 13.06183374 27.73756834 3.03286553 -0.01029791 0.00310103 -0.00245256
N 11.17157483 24.85583964 10.39656571 -0.00114754 -0.00309121 0.00639834
N 12.38635114 23.49770160 14.90591383 0.00380332 -0.00010275 0.00085755
N 12.86987353 28.42559574 17.04146553 -0.00189522 -0.00262808 -0.00605076
N 14.36831183 19.77707113 12.66859464 -0.00149634 -0.00253078 -0.00390100
N 12.28357077 22.82460376 10.73042286 -0.00828630 -0.00159149 0.00053429
N 11.26939688 25.46604352 15.20767234 -0.00085292 -0.00203375 -0.00177850
N 14.15936601 20.79103374 17.08060856 -0.00517168 -0.00007298 -0.00921787
N 13.04404352 27.68631655 12.06848992 -0.00396446 0.00318330 -0.00030983
N 11.30992202 25.00306794 19.59771403 0.00312564 0.00398827 -0.00353965
N 12.66343034 23.50917542 24.49244465 -0.00279042 0.00104235 0.00137231
N 13.14176122 28.29235089 26.37907174 -0.00272423 -0.00111163 -0.00295121
N 14.05500063 20.30693741 22.20903276 -0.00081433 -0.00383224 -0.00080490
N 12.33656327 22.98694282 19.69666293 -0.00328133 0.00391253 0.00317769
N 11.45126249 25.54701291 24.44247556 0.00097808 -0.00368268 -0.00250669
N 14.26689060 20.51812985 26.08195972 0.00128677 -0.00030753 -0.00617709
N 12.85326101 27.81712372 21.40010115 -0.00435135 0.00270109 0.00160093
N 14.70260777 5.13960345 1.38300342 0.00288055 -0.00148367 0.00371343
N 15.93200486 3.94310163 5.85948521 0.00201220 -0.00158534 -0.00833478
N 17.01345051 8.87860739 8.07581886 -0.00069431 0.00424436 -0.00403747
N 17.84913213 0.69997549 3.47622431 -0.00067053 -0.00199599 -0.00557287
N 16.15031578 3.29889166 1.54670226 -0.00166896 0.00144887 0.00175468
N 15.02909377 6.04193707 6.15650243 -0.00592494 0.00095920 0.00400206
N 18.04689590 1.21515216 7.84132192 0.00541454 0.00266645 0.00211561
N 17.03751674 8.21925044 3.31526196 -0.00279018 -0.00251833 0.00283384
N 14.56091825 5.43058587 10.22294253 -0.00104379 0.00820926 -0.00311686
N 15.91265386 4.26678900 15.01218279 -0.00215824 0.00087097 -0.00013036
N 16.63432179 9.02278717 17.22477335 -0.00007320 0.00273808 -0.00263332
N 17.89786924 0.71049155 12.75841856 -0.00326038 -0.00139260 0.00145102
N 15.79917743 3.54927478 10.69946806 -0.00421530 -0.00696974 0.00920043
N 14.68718850 6.15769538 15.24096489 0.00242155 0.00595057 0.00077388
N 17.65272978 1.12574768 16.56690358 -0.00094250 0.00000833 -0.00243443
N 16.67855913 8.09338713 12.24877764 -0.00603988 -0.00176679 0.00315723
N 14.94229945 5.37240291 19.39895604 -0.00820501 0.00001333 -0.00309651
N 16.16541305 4.00057060 23.92002475 0.00196193 0.00750502 -0.00137235
N 16.65849716 8.97436481 26.28500375 0.00247005 -0.00270665 -0.00156917
N 18.08359948 0.73900274 21.58118181 -0.00918206 0.00966658 -0.00027611
N 16.03219499 3.40671320 19.59217591 0.00057605 -0.00016836 0.00259138
N 15.02651017 5.97430328 24.45300637 0.00439649 -0.00335341 -0.00246137
N 18.40452549 1.18810340 25.77965385 -0.00248117 -0.00465028 -0.00528566
N 16.93377025 8.56925492 21.36565070 0.00080502 -0.00103510 0.00110076
N 15.11698796 15.36108776 1.15137388 -0.00231029 0.00611072 -0.00616872
N 16.35049500 13.82479578 5.54406348 0.00127773 0.00000002 0.01174299
N 17.19009420 18.68932204 8.03156236 0.00013588 -0.00062919 -0.00185571
N 17.98462053 10.27270038 3.53629525 0.00313724 0.00784872 0.00770359
N 16.08477322 13.33674300 1.58468699 -0.00161934 0.00208699 0.00248040
N 15.07311420 15.75741760 5.98550826 0.00099676 -0.00236515 -0.00000543
N 17.91600022 10.91786383 7.65415211 -0.00639453 -0.00028529 -0.00079467
N 16.84083794 18.11914342 2.97902862 0.00157920 -0.00051606 0.00182560
N 14.61138925 15.31725709 10.25847127 -0.00525414 -0.00057566 -0.00289079
N 16.01422252 13.74688327 14.83522015 0.00276827 0.00616347 -0.00469924
N 16.55283621 18.79334528 17.36363712 0.00003444 -0.00269413 -0.00041870
N 17.96097106 10.06216253 12.26821288 -0.00319373 -0.00077935 -0.00274616
N 16.05022518 13.53386953 10.68984686 0.00059908 0.00320182 -0.00014872
N 14.91280875 15.74970378 15.21943012 0.00414991 0.00131148 -0.00752222
N 17.59303663 11.17177647 17.09834640 -0.00099250 -0.00496891 0.00074651
N 16.70293406 18.10704137 12.19561953 -0.00168897 0.00164123 -0.00064693
N 15.09758505 15.41065883 19.55914493 0.00256048 -0.00215999 0.00386908
N 16.29254240 14.05363984 24.02654340 0.00319626 -0.00627149 -0.00466076
N 16.51893011 18.70725173 26.44844252 -0.00176335 -0.00076570 -0.00147797
N 18.28739520 10.43470274 21.62109583 0.00729788 -0.00350963 0.00386900
N 16.46095213 13.59851602 19.94942371 -0.00463443 0.00391932 -0.00054836
N 14.80650207 15.76703938 24.66068361 -0.00197744 0.00272096 0.00193877
N 17.86107800 11.04198135 26.04273078 -0.00236890 -0.00341457 -0.00230664
N 17.12553155 18.00545997 21.59005691 -0.00332066 0.00129566 -0.00542203
N 14.75968854 24.62400698 1.29537889 -0.00230631 0.00633919 -0.00105173
N 16.09200563 23.44672026 5.53176666 0.00363156 0.00038970 0.00124826
N 16.80577219 28.33773674 8.12697747 0.00704152 -0.00516390 -0.00011068
N 18.00697188 20.04023189 3.48672884 -0.00408616 -0.00414140 -0.00280983
N 16.25624271 22.90745402 1.45881916 0.00482206 -0.00038847 -0.00041420
N 14.95147895 25.34084758 6.17394030 -0.00657707 -0.00276171 0.00336627
N 17.73339497 20.86831183 7.72471951 0.00211239 0.00069781 0.00440340
N 16.86944885 27.57354383 3.28368678 0.00329271 0.00429381 -0.00149379
N 14.89407074 24.73696885 10.32308143 -0.00083932 0.00225299 0.00347838
N 16.22256966 23.31905676 14.94197726 -0.00107547 -0.00064571 -0.00298586
N 16.90905424 28.08253538 17.16854513 0.00094332 -0.00633511 -0.00253262
N 18.07095142 20.01765191 12.50705935 0.00319870 -0.00030123 0.00352110
N 16.13887058 22.84538328 10.80642691 0.00188324 0.00150580 -0.00543225
N 14.89317997 25.24301438 15.34786956 0.00044213 0.00096148 0.00417082
N 17.76355217 20.61795303 16.85264492 0.00279251 -0.00423945 0.00513571
N 16.73924301 27.71083588 12.42482001 -0.00379840 -0.00684520 0.00416767
N 14.64876314 24.88151826 19.42776396 0.00136061 -0.00123047 -0.00121891
N 16.51668626 23.55722921 23.97873947 -0.00494579 -0.00073057 0.00352434
N 16.80754195 28.41084558 26.09312703 0.00087000 0.00245150 -0.00285727
N 18.27755101 19.98333037 21.81635906 -0.00064131 -0.00855438 0.00176029
N 16.03797000 23.01779665 19.74357909 -0.00603298 0.00209918 -0.00435044
N 15.05162521 25.30483764 24.47735827 0.00770921 0.00320416 -0.00029485
N 17.92076705 20.51504148 25.96800881 -0.00263128 0.00060308 0.00502613
N 16.78626478 27.73626752 21.13093086 -0.00734482 -0.00141514 0.00788627
N 18.29225625 5.20054608 1.21751744 0.00375873 0.00356646 0.00452963
N 19.75015909 4.27217382 5.74533820 0.00265930 -0.00389528 -0.00539692
N 20.37733613 9.09915477 7.95354737 0.00460362 0.00278366 0.00151695
N 21.59222217 0.67342208 3.38521806 0.00402813 0.00005983 -0.00396372
N 19.51851780 3.23633364 1.48979289 -0.00443120 0.00205639 0.00083651
N 18.55185948 6.22654495 6.13738763 0.00611136 0.00391517 0.00020625
N 21.48168347 1.14928914 7.51462479 0.00171311 -0.00390332 -0.00532910
N 20.40032931 8.26848965 3.10883475 -0.00038359 0.00056809 -0.00465603
N 18.45024462 5.44975455 10.32893956 -0.00045130 0.00157299 0.00268605
N 19.22272262 3.94294850 15.10885162 0.00145477 -0.00039377 0.00136426
N 20.04601256 9.18462670 17.40787793 -0.00415415 0.00241255 0.00019462
N 21.64704344 0.54294897 12.34710776 -0.00164140 -0.00068467 0.00058865
N 19.65498773 3.43544992 10.47226706 0.00664163 -0.00216076 -0.00371982
N 18.37673446 6.08436508 15.57162225 0.00282804 -0.00181564 -0.00111775
N 21.52977187 1.09667499 16.60665337 -0.00194009 -0.00265193 0.00321693
N 20.41521035 8.12316629 12.19660003 0.00281831 0.00565766 -0.00593649
N 18.79437168 5.73627660 19.64111670 -0.00145667 0.00340098 -0.00323240
N 20.08408633 4.10102517 24.24347972 0.00003726 -0.00129313 -0.00121331
N 20.29701969 8.92995856 26.41046093 0.00190383 0.00669635 -0.00700480
N 21.59120087 0.86406660 21.73513984 -0.00168550 0.00113509 0.00148301
N 19.80779105 3.60524115 19.49265517 0.00069841 -0.00027607 -0.00381512
N 18.54481543 5.88033583 24.34617113 0.00357485 -0.00241793 -0.00192248
N 21.59728575 1.00352954 26.05839456 -0.00088321 -0.00441122 -0.00157861
N 20.52683179 8.83707323 21.73660061 -0.00037522 0.00292534 0.00344481
N 18.34239778 15.11602886 1.59566532 0.00630936 0.00330577 0.00603895
N 20.31443709 13.78186710 5.89513629 -0.00110426 0.00048545 0.00061094
N 20.20445102 18.70396328 7.85478743 -0.00209496 -0.01178938 0.00448410
N 21.86738141 10.03873199 3.41548449 0.00338891 -0.00396715 0.00058943
N 19.70270751 13.20814682 1.67339632 -0.00259815 -0.00103667 0.00284678
N 19.02510906 15.71537308 5.92028621 0.00380364 0.00291004 0.00296142
N 21.77151711 10.98086282 7.85244215 -0.00286342 -0.00234773 0.00050388
N 20.47668497 18.53833104 2.78414763 0.00213206 -0.00211874 0.00435130
N 18.52401934 15.42047576 10.18384022 -0.00144462 0.00042315 -0.00447555
N 19.80342836 13.74284509 14.88817365 0.00226191 0.00749509 -0.00406648
N 20.12779258 18.70481139 16.94420278 0.00240591 0.00578544 0.00177682
N 21.36094410 10.13837413 12.63869192 -0.00159970 0.00591375 -0.00207397
N 19.35655886 13.33685297 10.60142385 0.00234414 0.00057200 0.00032889
N 18.65844726 15.72360323 15.01707351 0.00245646 0.00421280 -0.00281440
N 21.40813884 10.90789718 17.06736595 0.00154614 0.00435542 0.00166273
N 20.39407589 18.06469075 12.19897881 0.00349571 -0.00048901 0.00252983
N 18.62110925 15.48994627 19.43033001 -0.00493493 -0.00386337 -0.00193589
N 19.63747591 13.72671821 24.37415699 0.00321147 0.00548147 -0.00149316
N 20.34682103 18.66869809 26.33356756 0.00181813 -0.00033871 0.00083262
N 21.88982398 10.71263535 22.01175006 -0.00548126 0.00072276 -0.00140892
N 19.79715121 13.54119203 19.88233379 -0.00271448 0.00426518 0.00234371
N 18.70804262 15.90572128 24.46016476 -0.00195811 -0.00087647 0.00377068
N 21.23432007 10.93778659 26.00317164 -0.00346540 0.00401126 -0.00510649
N 20.64696849 18.02184611 21.21027381 0.00516832 0.00925999 0.00208362
N 18.66642376 24.76954041 0.98233647 -0.00187483 -0.00010342 0.00671077
N 19.56588538 23.37029180 5.53837319 -0.00134999 0.00435874 0.00174115
N 20.35545122 28.14296854 7.80567364 0.00741763 0.00284933 0.00355733
N 21.82901309 20.24187376 3.36737535 0.00431762 -0.00607868 0.00697275
N 19.81916823 22.82037866 1.48374229 -0.00055189 0.00131170 0.00251444
N 18.49488651 25.42708330 5.91656100 0.00207960 0.00192101 0.00026490