1728
Time=57000.00000005 pbc="T T T" Lattice="22.26039871 0.00000000 0.00000000 0.00000000 28.89798958 0.00000000 0.00000000 0.00000000 27.30323140" energy=-10386.62270999 virial="12.88470652 -1.59639267 -1.28017722 -1.59639267 3.45723448 -2.25525232 -1.28017722 -2.25525232 1.14359349" stress="0.00322865 -0.00008459 -0.00006162 -0.00008459 0.00282758 -0.00010021 -0.00006162 -0.00010021 0.00289770" Properties=species:S:1:pos:R:3:vel:R:3
N 22.10976396 5.35543142 1.06464059 -0.00010040 0.00197990 -0.00475948
N 1.79826378 4.26928548 5.66455460 0.00104945 0.00349885 -0.00840922
N 2.30395180 9.03961238 7.93037591 0.00305217 -0.00039623 -0.00727937
N 3.33414309 0.73773129 3.14247973 0.00779704 0.00637005 -0.00156696
N 1.19906246 3.47452237 1.29899130 0.00359753 -0.00243592 0.00044451
N 0.55613515 6.09237920 5.96214546 0.00463564 0.00108291 -0.00212273
N 3.53582683 1.38339855 7.31072841 -0.00174994 0.00812417 -0.00304055
N 3.02976174 8.53350292 2.79432612 0.00393724 0.00856843 -0.00505572
N 0.35726317 5.38221836 9.87111175 -0.00963249 -0.00549098 -0.00754595
N 1.71641658 4.00735970 14.64140292 -0.00109585 -0.00625204 -0.00189313
N 1.97683920 8.78885055 16.99657215 -0.00105557 -0.00582581 0.00002808
N 3.52799678 0.63663165 12.07041756 0.00193683 -0.00059146 -0.00635756
N 1.50445056 3.46659532 10.55971070 0.00095941 -0.00252624 -0.00537596
N 0.67219767 5.97719352 15.01108950 -0.00129909 -0.00240509 -0.01298090
N 3.46115743 1.54074338 16.45684233 0.01080339 0.00621812 0.00288250
N 2.49427519 8.12428046 11.78340825 0.00292002 -0.00151503 0.00020580
N 0.24776344 5.68075591 19.01383110 0.00109562 0.00328833 -0.00442648
N 1.30210858 4.12371362 23.92091076 -0.00405419 0.00537590 0.00008696
N 1.95482397 9.00702943 25.79969761 0.00435877 0.00208218 0.00655514
N 3.34841696 0.66647740 21.36693639 -0.00010332 -0.00484217 -0.00726668
N 1.54568248 3.89453816 19.61782673 -0.00265180 -0.00128902 -0.00310582
N 0.20041307 6.17972025 23.92194691 0.00810668 -0.00596154 0.00615932
N 2.82077813 0.94282677 25.51756061 0.00222639 0.00393232 0.00019189
N 1.97888853 8.40552561 20.95741453 0.00209358 0.00437877 -0.00342368
N 0.25971147 14.83249720 1.48906402 0.00866559 0.00276024 -0.00121443
N 1.25367911 13.83731596 5.79149029 0.00450580 -0.00171808 0.00109909
N 1.91422075 18.82194136 8.01053266 0.00399429 0.00011904 0.00458404
N 4.05835781 10.46527026 3.29776684 0.01001878 0.00571042 -0.00006737
N 1.83882620 13.20561863 1.95942481 0.00762379 0.00110560 -0.00369372
N 0.41989485 15.92345242 6.38245762 -0.00392137 0.01131805 0.00094477
N 3.44715299 11.07423695 7.59664213 0.00596740 0.00167024 -0.00048388
N 2.12931733 17.98609231 3.28874586 0.00283872 0.00276997 -0.00291304
N 0.09709829 15.17525319 10.24555748 -0.00460938 -0.00228005 -0.00403372
N 1.40348353 13.94396598 14.72685601 -0.00052714 -0.00121401 0.00027741
N 2.20648499 18.84453232 17.18248164 -0.00136597 -0.00003621 -0.00258496
N 3.53627377 10.20789795 12.32166951 -0.00398184 0.00033867 0.00029742
N 0.97554476 13.11854630 10.85725319 -0.00641491 -0.00390489 0.00386280
N 0.53279865 16.03309747 15.01364947 -0.00098708 -0.00120874 0.00109317
N 3.23567082 10.71324103 16.60650915 -0.00295419 0.00554263 -0.00410170
N 2.25981287 18.07163989 11.92267206 0.00153011 -0.00284021 -0.00711474
N 0.64563493 15.31295582 19.22280130 -0.00000314 0.00383578 0.00588109
N 1.54274245 13.83062640 24.06713201 -0.00206357 -0.00000168 -0.00101750
N 2.15429922 18.24755289 26.44897365 0.00070633 0.00624194 -0.00333211
N 3.31164359 10.13649341 21.67259812 -0.00013528 0.00345172 0.00509588
N 1.25840686 13.15156917 19.56547606 0.00579674 -0.00466258 0.00500074
N 0.56668990 15.92994320 24.15228192 -0.00091180 0.00025952 0.00699106
N 3.46043406 10.82378066 25.84482331 -0.00440078 -0.00529897 0.00133916
N 2.08016529 17.91949383 21.42015988 -0.00360389 0.00089097 -0.00058338
N 0.05692136 24.60490003 0.87020806 -0.00124396 0.00308163 0.00020629
N 1.80547880 23.68411590 5.63173557 -0.00541901 -0.00629871 0.00269741
N 2.28961822 28.38105376 7.48412879 -0.00598969 -0.00147269 0.00119445
N 3.69839848 19.82469303 3.47324948 0.00290654 -0.00393950 -0.00018325
N 1.39278755 22.89437760 1.37288702 -0.00602372 0.00482106 -0.00592314
N 0.23358354 25.31538544 5.99773260 0.00179494 -0.00094523 -0.00114706
N 3.26744907 20.62164742 7.54872859 0.00746271 -0.00140159 -0.00181814
N 2.00177672 27.79271016 3.20510018 0.00357000 -0.00134592 0.00149555
N 0.24523111 25.02034421 10.13823346 -0.00171144 -0.00131009 -0.00354547
N 1.36808716 23.39380686 14.58544241 0.00023229 0.00256710 0.00045549
N 2.19444955 28.42135646 16.52622568 -0.00084162 -0.00007852 0.00281153
N 3.56054401 19.92074274 12.48057966 -0.00340237 -0.00253837 0.00333014
N 1.51766776 23.13161919 10.24449948 0.00080986 0.00384160 0.00134358
N 0.34266812 25.42656850 15.08824541 -0.00157155 -0.00015365 0.00374715
N 3.47947107 20.76883400 17.05156771 -0.00322591 0.00444187 -0.00115539
N 2.39734545 27.58260373 11.72387785 0.00177515 0.00233451 0.00794875
N 0.36472340 24.88367473 19.07256092 -0.00615572 0.00057508 -0.00213717
N 1.53362776 23.15364149 23.76866970 -0.00792871 -0.00298779 0.00086248
N 1.73172494 27.87032196 26.08748747 0.00603897 0.00062152 0.00055729
N 3.49896227 19.77627414 21.89533419 0.00121010 0.00073401 0.00005846
N 1.72324434 23.05665778 19.61968695 0.00156226 0.00918880 0.01301369
N 0.24116908 25.06270148 24.07644287 0.01026429 -0.00247992 0.00134959
N 3.14941235 20.28738217 26.28893023 -0.00440432 0.00346974 -0.00024794
N 2.24584844 27.58943768 21.20729241 0.00254873 -0.00135839 -0.00538569
N 3.60066595 5.32708958 0.77913445 -0.00038028 -0.00595180 0.00096685
N 5.39940893 4.23836289 5.29518291 0.00158863 0.00383293 -0.00303204
N 5.51558289 8.83172412 8.42172245 0.00051885 -0.00207194 -0.00597474
N 7.25614979 0.79427565 3.32887375 -0.00078146 0.00008486 0.00023230
N 5.20976556 3.63073539 1.17998718 0.01039102 0.00550269 0.00181367
N 4.27924242 6.20601514 5.76390838 0.00329759 -0.00364169 -0.00062557
N 6.94691580 1.51161475 7.51254695 -0.00487400 -0.00209651 0.00384694
N 6.41331267 8.62150235 3.30427385 0.00009024 -0.00183164 0.00026451
N 4.40019675 5.48916172 9.81827396 -0.00765553 -0.00047896 0.00268962
N 5.40710659 4.17824407 14.46711090 0.00127584 0.00012993 -0.00039041
N 5.72570554 8.79193763 16.47960248 -0.00387939 0.00105113 -0.00434373
N 7.14004257 0.77224240 12.29428419 -0.00104144 -0.00140404 -0.00879111
N 5.73083153 3.55802258 10.15933339 0.00240610 -0.00375025 -0.00522771
N 3.97774358 6.00652800 14.77867258 0.00132596 0.00367574 -0.00445816
N 6.96255380 1.23726020 16.61275734 0.00298409 0.00195904 -0.00030907
N 6.02879997 8.42399184 12.19859601 -0.00473358 0.00030824 -0.00211116
N 3.94357268 5.68524201 18.81214296 0.00230923 0.00092378 -0.00097580
N 5.32550455 3.80280011 23.40312390 0.00231417 0.00532734 0.00207531
N 5.72839864 8.64921553 26.32508676 -0.00066846 -0.00109602 0.00416028
N 7.02960599 0.70454411 21.34767512 -0.00532395 0.00380816 0.00020977
N 5.17476387 3.86372721 19.50781354 -0.00522257 0.00072247 0.00639630
N 4.13208422 5.64912604 23.78540115 0.00564496 0.00353158 -0.00045457
N 7.00678512 0.98413525 25.63586609 0.00333000 -0.00076640 -0.00026782
N 5.76276397 8.24431491 21.00859631 0.00653634 -0.00204559 -0.00386205
N 4.34788905 15.21234875 1.30571901 -0.00383004 0.00233599 -0.00038847
N 5.09095223 13.74736766 5.87619020 0.00219245 0.00739335 -0.00431322
N 5.53633992 18.75902555 7.84345611 -0.00030623 0.00473034 -0.00267421
N 7.31175864 10.60961440 4.14745845 0.00345578 -0.00400711 0.00446570
N 5.49338324 13.27958118 1.50635369 -0.00140367 -0.00354003 -0.00292445
N 3.87131546 15.54891265 6.62047625 -0.00316601 0.00175245 -0.00030789
N 6.92472340 10.61266889 7.95980325 0.00036553 0.00718187 0.00897196
N 5.86107650 17.45305271 3.48840974 0.00324963 0.00216345 0.00188585
N 4.01450279 15.11875902 10.52127985 0.00145188 -0.00626233 0.00283229
N 5.31333337 14.15053250 14.88157575 -0.00000494 -0.00144279 0.00276478
N 6.07658863 18.61031954 16.89488696 0.00404134 -0.00294419 -0.00096655
N 6.74958253 10.45930548 12.85027509 -0.00122463 0.00264923 -0.00057723
N 5.26337984 13.26794051 11.00643194 -0.00204570 0.00722331 0.00078092
N 3.77960877 15.89487282 15.14943428 -0.00177505 -0.00055975 0.00445168
N 6.98756663 10.67636467 16.62579001 -0.00435050 0.00469019 0.00743774
N 5.70821133 18.07008521 12.28864941 -0.00326266 -0.00939296 0.00241964
N 3.77701705 15.27656531 19.64465962 0.00005915 -0.00064333 0.00006298
N 5.42614730 13.69016335 24.10455150 -0.00403487 0.00204344 0.00069878
N 6.29115122 18.41818120 26.47916263 0.00492205 -0.00481130 0.00089968
N 6.95342019 10.13066222 21.42427125 0.00231968 0.00351270 0.00339087
N 5.13915901 13.36268628 19.95639159 0.00436277 0.00266317 0.00009618
N 4.13431129 15.54579814 24.73345587 0.00183267 0.00443786 0.00222339
N 6.94999759 10.55862812 26.07823637 0.00258500 0.00827417 -0.00115721
N 6.05923649 17.99400065 21.48513046 -0.00053347 0.00104147 0.00084208
N 3.76738593 24.65989258 1.35645223 -0.00096835 0.00168087 0.00331376
N 5.50597750 23.35958149 5.53285454 0.00604897 -0.00612242 -0.00548502
N 5.84037601 28.40672750 7.78964372 0.00709164 0.00220580 -0.00254021
N 6.79487077 19.55247048 3.32558983 0.00137804 0.00031234 0.00079772
N 5.10236492 22.76614150 1.36747639 -0.00308154 0.00063867 0.00430454
N 4.28556819 25.31039697 5.53683372 0.00407064 0.00057402 0.00264926
N 7.06173198 20.46413853 7.44752458 0.00149056 0.00192887 -0.00317446
N 5.86367234 27.93423493 2.93304661 -0.00344133 -0.00338050 -0.00366856
N 4.35422820 25.14387541 9.77558684 0.00131629 -0.00102403 -0.00317542
N 5.55037552 23.39683862 14.26451402 0.00032219 -0.00285724 0.00014893
N 5.65606168 28.30823283 16.60625475 0.00327516 -0.00266317 0.00120017
N 6.95651300 20.00201860 12.47588712 0.00144446 -0.00262442 0.00080318
N 5.02888294 23.03287844 10.33404742 -0.00510816 -0.00143992 -0.00039341
N 4.03791196 25.01894533 14.62210113 -0.01077774 0.00240568 0.00206824
N 7.37998672 20.47233754 17.05958040 0.00269278 0.00012702 0.00138415
N 5.87008159 27.79162315 11.88113040 0.00637273 -0.00218968 0.00380252
N 4.14916452 24.83389558 19.02750076 -0.00485689 -0.00386237 0.00474919
N 5.06416844 23.20248267 23.88478702 0.00027016 0.00076188 -0.00311944
N 5.42429635 28.27673784 25.97790695 0.00126900 0.00741611 -0.00466610
N 6.93581218 20.10804851 21.67886212 0.00243139 0.00608350 -0.00421498
N 5.45308924 22.98005745 19.46603456 -0.00214124 -0.00255880 -0.00256689
N 3.81041988 25.13828816 24.24810467 0.00272960 0.00257725 0.00288139
N 6.90462434 20.50200443 25.71632289 -0.00146644 -0.00152884 0.00520052
N 5.86197817 27.66155776 20.97976058 0.00577620 0.00197751 0.00066359
N 7.84504651 5.85443581 1.24466435 0.00164958 0.00339362 -0.00641403
N 9.17477531 4.06022511 5.33724806 -0.00096949 -0.00143765 0.00378378
N 9.76400434 9.08633158 7.66618208 0.00751933 -0.00265708 -0.00537904
N 10.66847526 0.82210416 3.44405933 0.00063457 -0.00272433 0.00576841
N 8.67805188 3.65954326 1.40946580 0.00619717 -0.00334514 -0.00296092
N 8.00501528 5.89316830 6.24006994 0.00163441 -0.00196353 -0.00114513
N 10.73340248 1.33560337 7.48046549 -0.00288754 -0.00349468 0.00263900
N 9.76789738 8.48934696 3.24382610 0.00479436 -0.00193328 -0.00187903
N 7.79968851 5.34404496 10.23549897 -0.00172765 0.00398770 -0.00293365
N 9.30792743 3.90949061 14.11535572 0.00503018 0.00265433 0.00561121
N 9.54931769 9.01751407 16.94681101 -0.00142150 -0.00229623 -0.00297173
N 11.37774453 0.91791525 12.46876881 0.00216576 -0.00119515 0.00435222
N 9.13391823 3.41865274 10.69690221 -0.00090493 -0.00099722 0.00164858
N 8.15061993 5.69557308 15.09990013 -0.00173044 -0.00145649 -0.00383573
N 10.39214265 1.61429270 16.82788706 -0.00157801 -0.00340304 -0.00252243
N 9.98869411 8.30502992 12.01634180 -0.00157491 0.00173019 -0.00437512
N 7.68838312 5.70862997 18.90568784 -0.00305254 0.00480103 -0.00551022
N 8.76843843 4.17351135 23.67211028 -0.00123801 -0.00945753 -0.00555203
N 9.35573127 9.10051557 26.35434688 0.00775129 0.00440924 -0.00659425
N 10.64583545 1.00681851 21.62082285 0.00838835 -0.00134589 -0.00068888
N 8.82859115 3.80140043 19.57993132 -0.00282444 -0.00476445 0.00170423
N 7.81133995 6.21719059 24.27390167 0.00334608 -0.00261603 0.00216128
N 10.30062410 1.45841609 25.74174308 0.00831656 -0.00086778 0.00100459
N 9.30642228 8.25140964 21.40790631 0.00390830 0.00555855 0.00440463
N 8.11175690 15.09886599 1.36897795 -0.00471970 -0.00141044 0.00423476
N 8.69553283 13.57047485 5.96739683 -0.00058131 -0.00834540 -0.00273876
N 9.40379338 18.79395265 7.95574412 -0.00330459 0.00142277 0.00202219
N 11.23201687 10.25034558 3.33771402 0.00527244 0.00190780 -0.00723632
N 9.26856095 13.11533269 1.70108605 0.00451864 -0.00567470 -0.00089317
N 7.94557307 15.61036734 6.78716149 -0.00265878 0.00014146 0.00251855
N 10.69005906 11.12805914 7.67006114 -0.00401691 -0.00526139 0.00235814
N 9.56498386 18.00077770 3.24458000 -0.00537132 -0.00092432 -0.00062809
N 7.72015126 14.91772172 10.80952802 0.00258220 0.00578446 0.00288644
N 9.21305564 13.71930888 15.23227348 0.00538750 0.00043734 -0.00453854
N 9.75377581 18.48633695 17.18536914 0.00359126 0.00203408 -0.00339635
N 10.80979022 10.44414843 12.26610940 0.00703202 -0.00556615 0.01252077
N 8.92511956 12.99972772 10.61567713 0.00249328 -0.00714804 -0.00371033
N 7.86198925 15.63370356 15.40390175 0.00422481 -0.00269648 -0.00684903
N 11.00256041 10.78303854 16.88272482 -0.01163995 -0.00334616 0.00052924
N 9.62791848 17.88129472 12.37565133 -0.00016256 0.00116333 0.00472593
N 7.81507601 15.16700312 19.41757554 -0.00187455 -0.00371218 -0.00270844
N 9.12939382 13.62466123 23.91297454 -0.00038916 -0.00033111 -0.00984094
N 9.94709568 18.22638335 26.09281497 0.00474612 0.00013373 -0.00502901
N 10.66524282 10.07809672 21.62333637 -0.00513435 -0.00417639 -0.00293444
N 9.08826336 13.30236069 19.53396791 0.00848248 0.00130564 0.00072076
N 7.74831326 15.40722764 24.26560264 0.00240686 -0.00339724 -0.00679520
N 10.60902420 10.96034333 26.01400990 -0.00153037 0.00371059 0.00356613
N 9.59010379 18.00144497 21.24422767 0.00083924 0.00066390 0.00409351
N 7.69761026 24.67495719 1.31715551 0.00361922 0.00326338 0.00317110
N 9.14442058 23.70062504 5.55768161 0.00100506 0.00101295 -0.00036136
N 9.46131071 28.49422924 8.23028430 -0.00472795 -0.00173208 -0.00956733
N 10.77687370 19.86102232 3.62727901 0.00239536 0.00564163 -0.00705522
N 8.76811308 22.58892161 1.43124008 0.00110518 -0.01269640 -0.00585259
N 8.04272258 25.61525024 6.03581240 -0.00487933 0.00224912 -0.00266031
N 10.96955964 20.47549273 7.64048896 0.00802452 -0.00365871 0.00012939
N 9.43396565 27.72126144 3.03456073 0.00052240 -0.00018759 0.00132601
N 8.15178924 24.90749444 10.11642912 -0.00243212 0.00441572 0.00536095
N 8.94859924 23.56909615 14.91558815 0.00304918 0.00143718 0.00017396
N 9.84442329 28.27778623 17.33663541 -0.00490250 0.00751704 -0.00348840
N 10.64234265 19.98960375 12.63926661 -0.00257219 0.00040350 -0.00416432
N 8.77381084 22.65172373 10.38309454 -0.00353710 -0.00304405 0.00134406
N 8.03257574 25.75213935 15.06018483 0.00205202 0.00047701 0.00151182
N 10.78931915 20.45526359 16.82144192 0.00130695 -0.00307652 -0.00246999
N 9.78849464 28.11470250 12.34685693 0.00414124 -0.00572089 0.00387211
N 7.77840424 24.82333122 19.53114273 -0.00005260 0.00300634 -0.00311539
N 8.77912015 23.33438293 24.09132662 -0.00487823 -0.00197390 0.00388870
N 9.34506310 28.29147797 26.08798392 -0.00079963 -0.00203713 0.00508820
N 10.89168543 19.83634988 21.56986892 0.00304744 -0.00439617 -0.00331218
N 9.14608255 22.97272978 19.89211273 0.00122444 0.00063554 -0.00378717
N 7.48779318 25.21135183 24.12197834 -0.00256092 0.00732109 -0.00341552
N 10.54895236 20.47665272 25.94500923 -0.00224789 -0.00546559 0.00076935
N 9.45596502 27.94744243 21.31422210 0.00185357 -0.00540726 0.00209496
N 11.27641366 5.37602824 1.57194074 -0.00256330 -0.00087779 -0.00721896
N 12.82800785 3.81584918 5.67722571 -0.00803085 0.00014545 0.00171184
N 12.84902321 9.17217890 7.83282298 0.01160429 0.00376986 0.00648068
N 14.59351351 0.67765514 3.50832217 0.00125984 -0.00549009 -0.00149093
N 12.62789678 3.51450581 1.79585912 -0.00211250 -0.00618201 0.00134245
N 11.56344224 5.74107777 6.18733375 -0.00126189 0.00678980 -0.00056418
N 14.44082912 0.83960844 7.59092522 0.00062912 -0.00433297 0.01075886
N 13.65776999 8.15696651 3.21767621 -0.00264665 0.00342069 0.00222003
N 11.41534156 5.34364208 10.24809676 -0.00663758 -0.00072774 -0.00851605
N 12.93567919 3.98024159 14.77099431 -0.00124466 -0.00408057 -0.00256065
N 13.33614270 8.90415880 17.13321785 -0.00915857 0.00090272 0.00233743
N 14.84751807 0.73741892 12.40442335 -0.00260697 -0.00053460 0.00132441
N 12.62272468 3.46491777 10.62253310 0.00030064 0.00810595 -0.00490503
N 11.73528323 5.92523388 15.21331826 -0.00025974 0.00029299 0.00080242
N 14.68443965 1.24802841 16.62089568 0.00376848 0.00362109 -0.00489280
N 13.15996148 8.49405176 11.80507451 0.00006088 -0.00496438 0.00837668
N 11.29179506 5.62359167 19.57583968 0.00651779 -0.00067741 0.00452889
N 12.60671761 4.44436693 24.10107939 -0.00879855 0.00181734 -0.00068251
N 13.15369198 8.93165061 26.51587614 -0.00326996 -0.00494100 0.00133585
N 14.56434424 0.88025158 21.69394015 -0.00393238 -0.00586770 0.00105419
N 12.68842544 3.81856042 19.86009035 -0.00312284 -0.00181947 -0.00188138
N 11.12153638 6.05218184 24.78235850 0.00086674 0.00275067 0.00186174
N 14.28189211 1.41637540 25.85572175 -0.00600549 -0.00082128 0.01142013
N 13.43899456 8.10314432 21.36357219 -0.00824518 -0.00659913 -0.00480880
N 11.63549324 15.02458638 1.30577008 -0.00123854 -0.00244902 -0.00300827
N 12.34228691 13.65164988 5.35638328 0.00280723 0.00021523 0.00322625
N 12.96539939 18.35015230 7.81099337 0.00208283 0.00168542 -0.00827665
N 14.77661394 10.22724925 3.40369598 0.00351038 0.00292693 -0.00045996
N 12.60482067 13.05225547 1.69755022 0.00576786 -0.00547373 -0.00093378
N 11.28593867 15.59089976 6.07331526 0.00672076 0.00573791 0.00024614
N 14.25278898 10.98707982 7.31544434 -0.00253705 -0.00612915 -0.00112897
N 13.16570400 17.96151993 3.08245420 -0.00012421 -0.00544518 -0.00097422
N 11.55227576 15.15625329 10.47220640 -0.00869030 -0.00068978 -0.00034989
N 12.98751838 13.76199955 14.98813940 0.00422406 -0.00447422 0.00161173
N 13.20288792 18.80322744 17.04032646 -0.00153323 -0.00831111 -0.00167411
N 14.70108091 10.14981668 12.25411749 0.00736283 -0.00649029 -0.00453422
N 12.39431562 12.99222876 10.62517699 -0.00008108 0.00007818 0.00033701
N 11.60019571 15.60167196 15.31828814 0.00006668 0.00865356 -0.00303959
N 14.74524642 10.77356660 16.93892967 -0.00521392 -0.00038497 0.00201541
N 12.83081307 18.21080974 12.33786174 0.00473434 -0.00618639 0.00462786
N 11.53483133 15.32033450 19.28362271 -0.00438987 0.00569041 0.00210756
N 12.29074959 13.44074837 23.94399321 -0.00534695 0.00602176 0.00186168
N 13.06983501 18.69722014 26.60698018 -0.00449854 -0.00399989 0.00806067
N 14.76183633 10.04153800 21.71819729 -0.00514616 0.00079651 -0.01000722
N 12.39893100 13.32765236 19.98842307 0.00438561 0.00081969 -0.00753684
N 11.74053554 15.63977665 24.16211960 0.00378206 0.00993917 0.00140549
N 14.25427725 10.73778187 25.69866839 -0.00282799 0.00831995 0.00171516
N 13.47505843 17.97463993 21.94669604 0.00868612 -0.00139862 -0.00361192
N 10.93099429 24.95728891 1.27884219 -0.00172041 0.00265388 0.00315552
N 12.62458453 23.26409044 5.80422497 -0.00002698 -0.00075879 -0.00325506
N 13.13252461 27.91238130 8.29098846 -0.00041875 -0.00505358 -0.00764684
N 14.46119615 19.83876231 3.59960248 -0.00214663 0.00479786 -0.00323776
N 12.31590912 23.14779646 1.59328513 0.00454543 -0.00299540 -0.00321710
N 11.69961688 25.28959258 6.19488642 0.00042069 0.00197491 0.00072519
N 14.32075768 20.19934733 7.64398476 0.00079721 -0.00618821 -0.00054370
N 13.09853947 27.81280206 3.59220939 0.00425181 0.00511491 0.00382881
N 11.31891602 24.86174914 10.37998863 -0.00535463 0.00170296 0.00186846
N 12.77278296 23.37526687 14.46643183 -0.00038515 0.00464549 0.00062207
N 13.70921754 28.18517052 17.34361838 0.00063544 -0.00893699 -0.00094935
N 14.33743535 19.91719428 12.47111739 0.00013215 0.00032961 -0.00511188
N 12.22333825 22.83143465 10.40962061 0.00054340 -0.00274537 -0.00281981
N 11.64285630 25.35663408 14.90922168 0.00699365 0.00137430 0.00011158
N 14.31005129 20.88537147 16.67479686 -0.00201293 -0.00123600 -0.00131192
N 13.52677632 27.74394727 11.96933350 -0.00422506 0.00057121 0.00530047
N 11.46238845 25.05285045 19.11952793 -0.00158450 0.00721516 -0.00333979
N 12.01637562 23.40930125 24.10742974 -0.00650575 -0.00002744 -0.00493282
N 12.98512981 28.30884243 26.32933625 0.00496475 0.00241339 -0.00433478
N 14.89375385 19.89462256 21.65697502 0.00360549 -0.00917254 0.00761960
N 12.84466451 23.08280513 19.43705840 -0.00022498 0.00327295 0.00766395
N 11.23796419 25.58497969 24.13342800 0.00276765 -0.00442851 0.00018183
N 14.04949775 20.73666066 26.03661642 -0.00386046 -0.00057159 0.00303159
N 13.53886577 27.67680821 21.38414727 -0.00324741 0.00099324 0.00049279
N 14.96541839 5.39054136 1.14997917 0.01033358 0.00203090 0.00582812
N 16.79633863 3.97037134 5.33165062 0.00213138 0.00014380 -0.00298341
N 16.74168477 9.33944797 7.79602821 0.00016347 -0.00007844 0.00762598
N 18.30865925 0.45683339 3.30631156 -0.00151526 -0.00571469 -0.00403897
N 16.20844837 3.46532262 1.63400531 0.00521067 0.01173115 0.00101378
N 15.36247360 5.74569958 6.22954848 0.00203492 -0.00065214 0.00592853
N 18.20622302 1.33034621 7.62114115 0.00020940 -0.00264593 0.00319014
N 17.26422431 8.19007143 3.44654147 0.00068508 0.00531469 -0.00257153
N 14.93838159 4.99950847 9.46220835 0.00036087 0.00209084 -0.00484427
N 16.68200643 3.93162372 14.37887342 0.00015072 -0.00314405 0.00138894
N 17.08280956 8.83873631 16.57115836 0.00112092 -0.00284374 0.00379587
N 18.58757221 0.42507937 12.39707153 0.00317151 0.00717334 0.00008179
N 16.62984134 3.66380139 10.40953640 -0.00326668 -0.00201193 0.00024241
N 15.29849954 5.71647478 14.94383488 -0.00194307 -0.00083014 -0.00627637
N 18.42234212 1.36504257 16.66753144 -0.00163452 0.00149168 -0.00246918
N 17.00382063 8.30811530 11.65029236 0.00040402 -0.00242007 0.00735575
N 15.15974082 5.47547086 19.41417972 0.00069877 0.00396589 0.00369798
N 16.51325428 4.25600834 23.96067845 0.00021311 -0.00164280 0.00389161
N 16.97048155 9.26278005 26.39147960 0.00006173 0.00469344 -0.00037409
N 18.33344138 0.75492734 21.75807614 -0.00380066 0.00198097 0.00980894
N 16.26228810 3.50407240 19.81353439 -0.00671654 -0.00326201 0.00197467
N 15.55189251 6.32984481 24.43883530 0.00031646 -0.00647879 -0.00947278
N 18.00054427 1.20640549 25.76164485 -0.00398283 0.00799082 -0.00212660
N 17.04311411 8.16828329 21.39024048 -0.00240797 -0.00470325 -0.00103358
N 14.99292228 15.03318528 1.13821529 0.00525655 -0.00013355 0.00619103
N 16.20410632 13.39801173 5.23876277 -0.00243500 0.00345532 0.00339830
N 16.87063474 18.48625007 7.92227525 0.00082294 0.00451088 0.00137095
N 18.54156121 10.10567285 3.69708270 0.00100326 0.00048010 0.00679806
N 16.53795160 13.32883594 1.41343952 -0.00156499 -0.00512066 0.00060563
N 15.19480623 15.37622189 5.85103838 -0.00804977 0.00587506 0.00110289
N 18.34948270 10.95519089 7.60715302 -0.00657662 0.00605849 -0.00494614
N 16.86736292 18.09577683 2.82380602 0.00346349 -0.00258734 0.00059992
N 14.66603605 15.31751184 10.40311222 -0.00568067 -0.00259684 -0.00479367
N 16.26499996 13.65817195 14.77998068 0.00127390 0.00148740 -0.00097225
N 16.87170167 18.81857747 17.10871516 -0.00082139 0.00020155 0.00035726
N 18.10900989 10.24884640 11.99698875 0.00027294 -0.00137580 0.00145053
N 16.19788011 13.59424682 10.45909275 -0.00141520 0.00631919 -0.00386899
N 15.19200014 15.65185460 15.10687768 0.00490248 0.00420982 0.00512601
N 18.23649099 10.75396277 16.51527991 -0.00431574 0.00057340 0.00629517
N 16.84275107 18.29815510 12.18563812 -0.00687174 0.00183914 0.00304893
N 14.74969036 15.07831267 19.85740300 -0.00168999 -0.01050884 -0.00042147
N 16.79360978 13.50335513 23.92750020 -0.00077633 0.00144713 -0.00633650
N 16.39613630 18.67484386 26.18204508 -0.00421469 0.00031615 0.00121619
N 18.39144899 10.05680309 21.43732785 -0.00204816 0.00319924 0.00812425
N 16.39487771 13.39026108 19.76612567 0.00477827 -0.00310105 -0.00289352
N 15.38969194 15.35736981 24.23621464 -0.00011344 -0.00293396 0.00502756
N 18.33027369 11.11047326 25.98825428 -0.00116911 -0.00552054 0.00119862
N 17.31858532 17.78776909 21.35191534 0.00301972 -0.00323340 0.00142783
N 14.97646950 24.85406839 1.57534344 -0.00851303 0.00423486 -0.00689022
N 16.46888839 23.31093568 5.96392836 -0.00520293 0.00191543 -0.00202428
N 17.12817138 28.28566856 8.06284873 0.00130314 -0.00357759 0.00038539
N 18.17232935 20.02049192 3.48601785 -0.00081838 -0.00151017 -0.00114141
N 15.86508925 22.76959203 1.80003294 0.00349840 0.00314991 -0.00026626
N 15.34367410 25.35226838 5.96643199 -0.00305258 0.00306446 0.00695670
N 17.81291847 20.63942415 7.74232408 -0.00571980 -0.00501293 -0.00307400
N 17.00631963 27.49637986 3.30930616 0.00819838 -0.00313278 0.00337386
N 14.71412993 24.69931172 10.46061862 0.00217775 0.00050638 0.00160974
N 16.52236277 23.60489555 14.95589976 0.00123748 0.00571336 0.00750536
N 17.31089913 28.34374622 17.08468126 -0.00229257 0.00455476 0.00973443
N 18.27796204 19.94544851 12.83810789 -0.00159464 0.00479628 0.00324692
N 16.25259199 22.95531387 10.67649607 0.00347951 -0.00489101 -0.00065084
N 14.98834579 25.32236650 15.46857051 0.00773203 -0.00037886 -0.00431801
N 18.24360331 20.65281793 16.76835982 -0.00052944 0.00491875 -0.00798591
N 17.13352453 27.50027543 12.28577172 -0.00681216 0.00422611 -0.00020078
N 15.19680156 24.92235356 19.63649809 0.00193615 0.00398861 -0.00172250
N 15.96949012 23.47667719 24.18002578 0.00532196 0.00148803 -0.00222869
N 16.82159192 28.03783856 25.94906101 0.00142947 -0.00645153 -0.00278497
N 18.07165851 19.89212977 21.84170853 -0.00440516 -0.00307933 0.00606762
N 16.39028714 23.01855700 19.94020197 0.00207828 -0.00060204 0.00164312
N 14.71376969 25.39445823 24.32768300 0.00047193 -0.00305932 -0.00080149
N 17.63077910 20.63595627 26.10404427 -0.00100770 -0.00312537 -0.00000736
N 17.12155788 27.73148568 21.20094236 -0.00058415 0.00517153 -0.00600506
N 18.49725024 5.41031428 1.32356451 0.00855190 -0.00385800 -0.00324153
N 20.23419436 4.00049832 6.00640272 -0.00344597 0.00145289 -0.00036561
N 21.11719539 8.91900760 7.83922785 -0.00040949 -0.00375942 -0.00442292
N 21.43140974 0.76284910 3.43563082 0.00200326 -0.00090358 -0.00177268
N 19.90744008 3.63555509 1.41291802 0.00573200 0.00481280 0.00242174
N 19.04308760 5.89951769 6.03248722 0.00377568 -0.00027275 0.00057913
N 21.91479687 1.57551320 7.85374978 0.00494796 0.00280763 0.00061570
N 21.05448814 8.34541244 2.85680161 -0.00009858 0.00262254 -0.00303781
N 18.71496630 5.42917811 10.42953673 0.00770899 -0.00117935 -0.00017486
N 20.47219726 4.08729597 14.91355298 -0.00002453 -0.00253586 0.00302231
N 20.70707810 8.93276168 16.73844629 0.00045516 0.00091430 -0.00007249
N 22.20627984 0.70534559 12.20866340 0.00291245 -0.00474321 0.00312505
N 20.05485763 3.64524278 11.15481286 0.00467121 -0.00390113 0.00008566
N 19.11862219 5.93872875 15.08890131 -0.00412148 -0.00632098 0.00063529
N 0.00249441 1.40618427 16.77093425 0.00213072 0.00357963 -0.00410706
N 20.95397707 8.19147728 11.67602669 0.00381573 -0.00178146 0.00308373
N 18.82389067 5.25960659 19.53758486 0.00265513 -0.00540225 -0.00152694
N 19.93253332 4.30556470 23.99184353 -0.00199519 -0.00054489 -0.00900899
N 20.62659695 8.99528530 25.97103977 -0.00110340 -0.00758643 0.00328240
N 21.86352862 0.69329677 21.74795444 0.00481773 0.00584741 0.00228890
N 19.93981222 3.29581273 19.59679074 0.00271097 -0.00277478 -0.00272983
N 18.79769580 6.19269322 24.23366371 -0.00272581 -0.00152976 -0.00165531
N 21.50630944 1.08153077 25.80832041 0.00194144 -0.00192939 0.00261934
N 20.88715180 8.53981696 21.13161576 0.00190678 0.00089790 -0.00667250
N 18.98905475 15.23129156 1.04146944 -0.00053032 0.00453365 -0.00363430
N 20.08802228 13.82204829 5.49711249 -0.00013432 0.00001862 0.00141630
N 20.50343332 18.27502538 8.22298918 -0.00230797 -0.00222174 -0.00100048
N 0.31298853 9.88759372 3.41748267 0.00246220 0.00577551 0.00779586
N 19.95235045 13.19329831 1.46632697 0.00327694 -0.00054137 0.00231202
N 18.85890575 15.71362903 5.96785015 -0.00788614 0.00359592 -0.00202699
N 21.77128094 11.04654947 7.58577520 -0.00516683 -0.00571848 0.00140380
N 20.51242742 18.21525481 3.14580073 0.00260728 -0.00171420 -0.00236291
N 18.60695660 15.06243377 10.39398645 0.00364539 0.00347185 0.00102270
N 20.12356461 14.02145804 14.99652378 -0.00037999 0.00328280 0.00035302
N 20.87034321 18.71927383 16.84542722 -0.00545944 0.00154687 0.00061576
N 0.05166635 10.09558151 12.05277465 -0.00409943 0.00091712 -0.00514993
N 20.04446217 13.30179403 10.67720384 -0.00021931 0.00101993 -0.00254880
N 18.86247271 15.97525355 15.07543585 -0.00262168 0.00294091 0.00024223
N 21.90557524 10.91108063 16.54378760 0.00627649 -0.00271769 -0.00091947
N 20.68982579 18.02096504 12.24261818 -0.00066037 0.00891297 -0.00250942
N 18.60158391 15.18748751 18.95544152 -0.00241719 -0.00528213 -0.00054499
N 20.24781348 13.90567656 23.70382625 0.00425492 -0.00838964 0.00777767
N 20.15553243 18.85210375 26.18548304 0.00458712 -0.00066116 0.00188239
N 0.00305820 10.31948225 21.46815988 0.00043322 -0.00427842 0.00706878
N 19.87074245 13.31619125 19.42835805 0.00374058 -0.00073205 -0.00150087
N 19.13684506 15.87039030 24.23886468 0.00258925 -0.00265655 -0.00124371
N 22.02291679 10.89772393 25.75056064 0.00410129 0.00145239 -0.00268270
N 20.84398499 17.83545176 21.22580776 -0.00572558 0.00192028 0.00124077
N 18.54491234 24.63630624 1.42019650 0.00195747 0.00021819 0.00148423
N 20.09811435 23.37612047 5.80667921 -0.00311628 0.00624808 0.00078548
N 21.51228406 28.26105323 7.97739345 0.00296711 0.00282201 0.00839557
N 21.71236331 20.22662804 3.69914180 0.00321982 -0.00719391 0.00380740
N 20.09500399 22.94719495 1.59609988 0.00400854 -0.00661306 -0.00161642
N 18.95327140 25.31713608 6.10127777 -0.00338499 -0.00340794 -0.00907805