1728
Time=83000.00000008 pbc="T T T" Lattice="22.21649671 0.00000000 0.00000000 0.00000000 28.86823109 0.00000000 0.00000000 0.00000000 27.17444192" energy=-10388.84215283 virial="0.38551127 26.76373003 -24.58012082 26.76373003 9.42370345 -9.98764545 -24.58012082 -9.98764545 38.91351486" stress="0.00234887 0.00143468 -0.00152737 0.00143468 0.00307872 -0.00051969 -0.00152737 -0.00051969 0.00526286" Properties=species:S:1:pos:R:3:vel:R:3
N 0.34185173 5.53333410 0.96497210 0.00450066 0.00098644 -0.00042440
N 1.22216287 4.25777255 5.50057391 -0.00344840 0.00022072 0.00103756
N 2.02907780 9.21312242 7.89213521 0.00092689 0.00224986 0.00149719
N 3.63381144 0.54676279 3.44937186 0.00423279 -0.00097167 -0.00420269
N 1.56786102 3.56738827 1.29724411 0.00091767 0.00318504 -0.00208888
N 0.57363362 6.31486560 6.32423977 -0.00343100 -0.00508526 0.00103158
N 3.29226256 1.25441239 7.62328849 -0.00570216 0.00345396 -0.00063036
N 2.21613706 8.65661275 3.16373912 0.00579779 0.00786915 -0.00430111
N 0.21077432 5.53877863 10.29420653 -0.00621257 0.00148473 0.00208265
N 1.54358874 3.96351636 14.66505576 -0.00419272 -0.00089435 -0.00504579
N 2.27385107 8.79888079 16.82260650 0.00465155 -0.00615685 0.00077099
N 3.34067094 0.52831886 12.24555345 -0.00229420 -0.00162916 -0.00259109
N 1.46967873 3.51128634 10.42447708 0.00317955 -0.00014840 0.00453462
N 0.56029975 5.85827406 15.43054561 -0.00001090 -0.00076753 -0.00988953
N 3.35722487 1.20818871 16.70779575 0.00040133 -0.00555691 0.00100979
N 1.96316153 8.42137169 12.36129323 -0.00176926 0.00192878 0.00457982
N 0.26066866 5.80433638 19.22287923 -0.00387004 -0.00590817 0.00500744
N 1.63229296 4.26086851 23.97762597 -0.00658001 0.00013153 -0.00088845
N 2.19572769 8.65422335 26.38583503 0.00739368 -0.00637776 -0.00429235
N 3.39249087 0.92067192 21.44884663 0.00260423 -0.00522074 0.00237778
N 1.28585402 3.83918875 19.70164663 0.00365587 -0.00510773 0.00137793
N 0.21594415 6.09717128 24.17102386 0.00044884 0.00735463 0.00754417
N 3.12925255 1.28641770 25.63625935 0.00595818 0.00388990 0.00655616
N 2.33189097 8.42311028 21.18768496 -0.00529274 0.00363841 -0.00390774
N 0.10738864 15.10814511 0.58572055 0.00143766 0.00546992 -0.01013010
N 1.52153809 13.91922119 5.63628973 -0.00474000 -0.00674719 -0.00702129
N 2.57712266 18.18398599 8.59171368 0.00408260 0.00173255 0.00902510
N 3.42182353 10.55762396 3.40955757 -0.00150692 0.00185595 0.00417429
N 1.29362756 13.28716535 1.40177497 -0.00179846 0.00338707 -0.00019444
N 0.76392678 15.98484602 6.11208993 -0.00200723 0.00086250 0.00281515
N 2.95892162 11.23271497 7.68686535 -0.00490766 -0.00164653 0.00096627
N 2.18192819 17.65610616 3.26181748 0.00382993 0.00079303 0.00453607
N 0.04756631 14.78193485 10.03627422 0.00044965 -0.00192557 0.00459692
N 1.64798198 13.56166852 14.49270443 0.00131872 0.00060146 0.00336727
N 2.24490348 18.67343582 16.62513974 -0.00007799 0.00241484 0.00582706
N 3.22864034 10.39411402 12.72437489 0.00184218 -0.00273278 0.00286054
N 0.96772474 12.76549584 10.80429865 -0.00167263 -0.00885809 -0.00459868
N 0.39680601 15.39089667 15.16866864 0.00241125 -0.00321877 -0.00114765
N 3.30818496 10.72440414 16.54661814 0.00033373 0.00054453 -0.00076673
N 2.26078185 17.92510092 12.26110300 -0.00343615 0.00240813 0.00152051
N 0.32197851 14.83141543 19.08540297 0.00255688 -0.00296015 0.00089074
N 1.51960943 13.55126361 23.30811347 -0.00705963 0.00095053 0.00685125
N 2.13864936 18.44196519 26.13072443 0.00112101 -0.00100696 -0.00016848
N 3.31117003 10.47089409 21.33796711 0.00405847 0.00226269 0.00428157
N 1.25487249 12.83009257 19.69530445 -0.00597190 0.00115990 -0.00689850
N 0.45700201 15.55057019 23.72609190 -0.00869094 -0.00323687 -0.00679125
N 3.08015110 10.74493620 25.98489521 0.00456648 -0.00663508 -0.00691999
N 2.16433953 17.99443172 21.24132903 -0.00167696 0.00700697 -0.00481936
N 0.90386492 24.67004402 0.75727712 0.00106176 -0.00123830 -0.00231605
N 1.88201419 23.30398571 5.65745430 -0.00194451 -0.00436362 0.00326014
N 2.02780166 28.21123116 7.98787068 0.00323801 0.00663752 0.00153072
N 3.43009699 19.67554021 3.46230912 -0.00466496 -0.00236997 -0.00055215
N 1.80702628 22.66728302 1.43899443 0.00183351 0.00846734 0.00558630
N 0.51633993 25.25111274 5.66447660 0.00085189 0.00371423 0.00408530
N 3.36161293 20.32320802 7.83958507 0.00122656 0.00497720 0.00215061
N 2.16533843 27.66218477 3.05291965 0.00095424 -0.00305247 -0.00647241
N 0.41260315 24.71011895 10.29226084 -0.00166087 -0.00139656 -0.00075830
N 1.29739326 23.19636110 14.60341277 -0.00076758 0.00057003 0.00464611
N 2.44648813 27.98329497 17.02355931 0.00105892 -0.00545660 0.01102877
N 3.67330980 19.75943133 12.33996556 -0.00302401 -0.00630520 0.00337629
N 1.55764860 22.84356586 10.83544346 -0.00369003 0.00141833 0.00081679
N 0.45623655 25.26893790 15.00666751 -0.00054457 -0.00227703 0.00303105
N 3.25720615 20.74691851 16.61800668 0.00149238 -0.00216482 -0.00192395
N 2.05054142 27.51963252 12.10594193 0.00408493 -0.00244094 0.00581414
N 0.00206899 24.60587300 19.15666785 -0.00176281 0.00145150 0.00095707
N 1.38382952 23.18936430 23.55815607 0.00042700 -0.00853631 0.00296927
N 2.37159478 27.98131787 25.78088753 -0.00530264 -0.00096962 -0.00134411
N 3.65075609 19.76967971 21.65713551 0.00254467 0.00364503 -0.00466841
N 1.44403038 22.70613466 19.30347336 -0.00111497 -0.00774472 -0.00306725
N 0.34943581 25.09326183 23.94578117 0.00539963 -0.00301507 0.00088655
N 3.16356013 20.43075342 25.62986245 -0.00601762 0.00100477 -0.00037900
N 2.44869513 27.65947659 21.43737214 -0.00097548 0.00093732 0.00221451
N 4.27250565 5.77421387 1.33988136 -0.00155250 0.00196146 -0.00266459
N 5.12175809 4.19891934 5.91800544 0.00242590 -0.00084903 -0.00465362
N 5.76460320 8.65893788 7.76873712 -0.00351233 0.00904647 0.00265625
N 7.00436433 0.71051284 3.23715307 -0.00190668 -0.00206864 0.00144527
N 4.95933641 3.53024923 1.53457269 -0.00331809 -0.00752494 -0.00068794
N 3.80592970 6.13120910 6.00539590 -0.00312655 -0.00279396 0.00244904
N 6.89100455 1.30655120 7.72106696 -0.00071880 -0.00105042 -0.00912057
N 5.99756766 8.70350125 3.10426750 -0.00882732 -0.00438567 0.00231618
N 3.83308546 5.45794073 10.38346262 0.00628360 0.00716011 -0.00378715
N 5.05703222 3.90480356 15.01360202 0.00005431 0.00037687 0.00419642
N 5.78247485 8.65724713 16.91153052 -0.00599548 -0.00037695 -0.00011419
N 6.99901529 0.74335016 12.67546265 -0.00092130 0.00153656 0.00505110
N 5.32678752 3.64598814 10.43302263 0.00017272 -0.00127370 -0.00625130
N 4.05344013 5.84940546 15.23249121 -0.00123446 0.00070971 -0.00204895
N 7.04296367 1.04868469 16.87610655 -0.00403870 0.00140249 -0.00010219
N 6.05600695 8.27814479 11.89081217 0.00052204 0.00327659 -0.00077830
N 3.76635281 5.39083052 19.59289668 -0.00499483 -0.00470014 0.00014613
N 5.21245406 4.34279234 23.84153708 0.00028951 -0.00052761 0.00588013
N 5.51941041 9.07485054 26.13154624 -0.00212727 -0.00739799 -0.00123920
N 7.25703951 0.75743771 21.52482635 0.00700527 -0.00116655 0.00338680
N 5.11227815 3.45776520 19.30638209 -0.00136575 0.00049164 0.00606503
N 3.93748551 6.20336263 24.04208088 0.00118488 -0.00157429 0.00230056
N 7.03410606 1.36443877 25.83224127 -0.00178470 0.00217795 -0.00497087
N 6.04298490 8.37717448 21.34355773 0.00247898 0.00218551 0.00436932
N 3.89000416 15.09456043 1.27654683 0.00232116 -0.01042619 0.00139252
N 4.88368810 13.52756503 5.68917355 0.00228734 0.00250309 0.00799831
N 6.01582344 18.61829533 7.82177120 0.00535464 0.00308702 0.00204210
N 7.06321293 10.64208441 3.72154576 -0.01024529 -0.00151761 -0.00340264
N 5.34492032 13.39390238 1.30332561 -0.00332695 0.00743710 -0.00516301
N 3.87742479 15.67076029 5.95444159 -0.00683481 0.00603889 0.00544770
N 7.03749263 10.53878376 7.27946752 0.00217312 0.00160641 -0.00885134
N 5.90010101 18.14995274 3.04848778 0.00948894 -0.00301577 -0.00503566
N 3.93426459 15.16303208 10.01408684 0.00380552 -0.00007085 0.00503428
N 5.41283541 13.59977995 14.79705617 -0.00202550 -0.00043039 -0.00076115
N 5.54585260 18.65597629 16.71667596 0.00094089 -0.00004153 0.00046561
N 7.18876604 10.30606358 11.96274860 -0.00434841 -0.00200362 -0.00310248
N 5.20004489 13.34460080 10.71591747 -0.00198245 0.00572562 -0.00417280
N 4.19795618 15.42967563 15.23385686 0.00840652 0.00165682 0.00439761
N 7.09790340 10.55841026 16.69351241 -0.00204807 -0.00181688 -0.00158586
N 6.15367473 18.12790135 11.91076843 -0.00242629 0.00149370 0.00326416
N 3.96093999 14.71513023 20.01590014 -0.00523983 0.00168922 -0.00424739
N 5.21483610 13.56066912 23.77663998 -0.00950726 -0.00080053 -0.00105022
N 5.81862490 18.64474763 25.85214784 -0.00282326 -0.00861438 -0.00269943
N 6.94145530 10.52970926 21.77145676 -0.00075601 0.00370022 0.00567577
N 5.22558075 12.83379132 19.84503929 0.00432692 -0.00169405 -0.00321045
N 4.26971760 15.66001763 24.07625821 -0.00190698 0.00259573 0.00520519
N 6.92245993 10.90483123 25.71244745 0.00366067 0.00112417 -0.00627979
N 6.13879496 17.86086416 21.49406807 0.00071882 -0.00235159 -0.00316195
N 4.13025581 24.59175286 1.34424710 0.00062011 0.00091043 0.00284763
N 5.49272450 23.68449447 5.91254322 0.00191673 -0.00283372 -0.00405284
N 5.71725267 28.27220572 7.91455736 0.00226000 0.00645512 -0.00069107
N 7.18668070 19.93778923 3.48819099 -0.00228865 -0.00155651 -0.00275218
N 5.15681497 22.52100918 1.57410756 -0.00127991 -0.00349806 -0.00805766
N 3.97001961 25.39866084 6.26931565 -0.00078314 -0.00926125 -0.00155289
N 7.35903606 20.55295517 7.67602319 0.00149034 -0.00599502 -0.00007796
N 5.99311331 27.56659536 3.20492535 -0.00294440 0.00632623 0.00107641
N 4.01276697 24.67775950 10.16724033 0.00027493 -0.00437884 -0.00467128
N 5.54139186 23.52479694 14.66349625 -0.00099565 0.00253443 -0.00568940
N 5.68724830 27.97870278 16.90034795 0.00443550 -0.00547006 -0.00585352
N 7.11578797 20.10797013 12.52473803 0.00729752 0.00210602 -0.00132777
N 5.24061338 22.68321691 10.43344087 -0.00051337 0.00037465 0.00062385
N 4.17481517 25.28621156 14.99962213 0.00126343 0.00218979 0.00248520
N 6.93557158 20.49677331 16.60017535 -0.00097217 0.00599278 0.00483412
N 5.77321709 27.74945181 12.31419897 -0.00172859 -0.00068354 0.00071086
N 4.02748633 24.73216174 19.19995990 0.00027527 -0.00475021 0.00217444
N 5.19016945 22.92664634 23.41785198 -0.00484157 -0.00200180 0.00148456
N 5.84657054 28.25669433 26.11084472 0.00393407 -0.00733013 0.00010396
N 6.81507965 19.94698187 21.44755851 0.00315850 -0.00104487 0.00522675
N 5.25105060 22.78737911 19.63469473 0.00006849 0.00237013 -0.00788816
N 4.11507322 24.98887911 24.15694449 -0.00075610 -0.00671838 0.00355727
N 7.12798040 20.58823756 25.89140976 -0.00003466 -0.00290176 -0.00601399
N 5.93353605 27.75633973 21.22410751 0.00032938 -0.00454956 0.00223827
N 7.17860698 5.60373106 1.45759936 -0.00465034 -0.00335853 -0.00224861
N 8.83464041 4.01000341 5.61670658 -0.00631645 0.00176490 0.00487305
N 9.14197134 8.67086738 7.76633087 0.00282982 0.00035565 0.00738303
N 11.34969710 0.73963015 3.51524176 0.00228037 0.00158885 0.00102369
N 8.63468586 3.80990068 1.45320519 0.00124847 0.00077424 -0.00033104
N 7.46624226 5.80708060 5.74146314 -0.00513385 -0.00319602 0.00991155
N 10.89252888 1.15784963 7.71830575 -0.00927647 0.00232125 0.00141155
N 9.60324019 8.56133170 2.75539331 0.00149098 -0.00128354 0.00086445
N 7.56843166 5.53921413 9.84104794 0.00972911 -0.00905263 -0.00305445
N 9.07916668 3.98028743 15.05538592 0.00249610 -0.00228278 0.00595681
N 9.75398629 8.73355186 17.08325309 -0.00608672 -0.00651003 -0.00321297
N 10.66805729 0.61319484 12.57462622 -0.00290126 -0.00025292 0.00433627
N 8.96005424 3.87003990 10.69647743 -0.00233145 0.00381087 -0.00370789
N 7.94991170 6.01678352 15.13735347 0.00177429 -0.00197776 0.00177014
N 10.77183549 1.12930092 16.76659223 0.00435656 -0.00121035 0.00136683
N 9.93482128 8.15022386 12.11058393 -0.00898019 -0.00071049 -0.00114870
N 7.88244357 5.64736186 19.26923585 -0.00506724 0.00121023 0.00092474
N 9.05016568 4.51853854 24.07551352 0.00667535 -0.00334543 0.00065240
N 9.34065582 9.40246000 25.89279777 -0.00072379 -0.00121237 -0.00034166
N 10.77383649 0.56099914 21.68306786 -0.00803449 -0.00383204 0.00154070
N 8.62470163 3.49832782 19.47149263 0.00424698 0.00440571 0.00155740
N 7.54151341 6.22820168 24.25067378 0.00332564 -0.00855600 0.00526959
N 10.81929985 1.15993478 26.04780950 0.00017977 0.00235227 0.00184966
N 9.89590925 8.44373006 21.21481788 -0.00065349 -0.00121431 0.00506350
N 7.80952361 15.27832807 1.49686363 -0.00489247 0.00341689 0.00749320
N 8.62952723 13.70283280 5.61056717 -0.00100242 -0.00106461 0.00115669
N 9.66060125 18.71673778 7.89003672 -0.00489033 0.00075633 -0.00063315
N 10.73824621 10.52092487 3.27159643 -0.00197402 -0.00075667 0.00081661
N 9.21370315 13.47528024 1.62713384 -0.00170474 -0.00555260 0.00438260
N 7.85144070 15.85262837 6.04796844 0.00027583 0.00074223 -0.00005842
N 10.28646494 10.63874592 7.52665736 0.00467575 -0.00495432 -0.00188536
N 9.77350065 18.20448399 3.04961278 0.00300569 0.00212152 0.00320650
N 7.79721752 14.99886848 10.23769896 0.00390430 -0.00807764 -0.00330321
N 8.82759887 13.51827964 15.05390499 -0.00426633 -0.00143927 -0.00442799
N 9.14274872 18.56949200 17.11848103 -0.00466883 0.00191106 -0.00126165
N 10.81660838 10.21086910 12.51196021 -0.00152249 -0.00295853 -0.00628537
N 8.71739366 12.88032862 10.43579562 0.00264308 -0.00336883 0.00099252
N 7.58744729 15.48358523 14.99559441 0.01119934 -0.00361469 -0.00601393
N 10.75227033 10.65960726 16.27756949 0.00177186 -0.00152721 -0.00159647
N 9.69969824 18.06880232 12.11772557 0.00254827 0.00385868 -0.00334900
N 7.54801320 14.98060118 19.49757585 0.00009032 -0.00402850 -0.00654091
N 9.13112121 13.70788665 23.90809030 0.00762155 -0.00468180 0.00351108
N 9.85052796 18.62118846 25.92747127 -0.00885838 0.00386502 -0.00018649
N 11.22188869 10.29886023 20.90555408 -0.00046367 0.00064669 0.00500942
N 8.92908951 13.13255901 19.66971921 -0.00704913 -0.00275564 -0.00032623
N 8.05050172 15.75201439 24.07090555 -0.00120861 0.00676629 -0.00322054
N 10.76574918 11.18534101 25.61304718 -0.00539088 -0.00505743 0.00281395
N 9.69339367 17.98361820 21.14733232 -0.00121800 0.00453632 -0.00662106
N 7.78330599 24.49759993 1.30605943 -0.00397462 0.00795775 0.00009580
N 8.96229579 23.68055990 5.87128673 0.00177184 -0.00108468 0.00019380
N 9.18952217 28.37940589 7.73537218 -0.00105339 0.00457348 -0.00760545
N 10.92561539 20.15323114 3.17045489 0.00419529 0.00131296 0.00287360
N 9.29355796 22.70048909 1.65175836 -0.00383666 -0.00057175 -0.00132236
N 7.71626937 25.50656428 6.41845233 -0.00206677 -0.00317095 -0.00701701
N 10.74360544 20.71377935 7.68625950 -0.00345523 0.00031489 0.00209616
N 10.39027948 27.57072673 3.18144622 0.00264439 -0.00403771 0.00289215
N 7.28865591 24.90266742 10.28413245 0.00071721 0.00445716 -0.00424481
N 9.19436718 23.66917793 14.93840612 -0.00347309 0.00145905 -0.00220146
N 9.52295327 28.19404438 17.28969714 -0.00459808 0.00126528 -0.00545788
N 10.90829356 20.08611605 12.51736626 -0.00110284 0.00469923 0.00180400
N 8.66957533 23.06006573 10.91453852 -0.00329843 0.00152734 0.00161587
N 7.90167568 25.62392328 15.23093501 0.00642251 0.00076273 -0.01037445
N 10.45768127 20.38815302 16.53821638 -0.00532396 0.00070922 -0.00284930
N 9.46067177 27.51823842 12.34067328 -0.00094174 0.00260675 0.00465719
N 7.80996364 24.74706407 19.30075761 0.00364165 -0.00187728 -0.00214587
N 8.85485121 23.46995722 23.89571234 0.00221545 0.00066224 -0.00443402
N 9.47368183 28.14597037 26.03319864 0.00019164 -0.00280477 0.01040502
N 10.91541352 19.99345715 21.23664191 0.00041178 0.00072891 -0.00003366
N 8.79820954 22.67439329 19.67176480 -0.00637841 -0.01057784 0.00056068
N 8.18881004 25.57985587 24.35240600 0.00924485 0.00255880 -0.00528160
N 10.79419725 20.72983589 25.70733863 0.00406720 -0.00035017 0.00176255
N 9.50928088 27.59533329 21.27042463 0.00277399 -0.00066376 0.00643748
N 10.96678237 5.59043847 1.08610171 -0.00291562 0.00148086 0.00762313
N 12.93367192 4.13798438 5.61395950 -0.00231912 0.00223607 -0.00010022
N 13.09615661 8.85892321 7.30723609 0.00033352 -0.00218851 -0.00356480
N 14.76790735 1.04302431 3.64000474 -0.00333642 0.00862756 -0.00616724
N 12.56577409 3.90217039 1.29177319 0.00253831 0.00117646 -0.00574155
N 11.41064586 5.82754342 5.93650338 0.00491703 0.00066669 -0.00538700
N 14.64627888 1.35222011 7.59080596 -0.00359668 0.00178755 0.00552327
N 13.14811308 8.57463005 3.40749484 0.00613426 -0.00851555 0.00107836
N 11.54308930 5.53649583 10.05557634 -0.00004823 0.00217984 0.00540197
N 12.96660967 4.03985820 14.66504334 -0.00445390 -0.00513757 0.00056989
N 13.06094726 8.93423013 16.90539925 -0.00066687 0.00362515 -0.00358687
N 14.83600456 0.88130773 12.51070005 -0.00334393 0.00031172 -0.00273545
N 12.45768445 3.46498990 10.33715552 0.00001103 -0.00527376 -0.00408144
N 11.75459064 5.96565753 14.92529925 0.00870150 0.00067256 -0.00340348
N 14.12976461 1.21526886 16.79843031 0.00346064 0.00203529 -0.00474051
N 13.37712818 8.47542820 11.95033881 0.00420330 -0.00143371 0.00674122
N 11.17117486 5.28475051 19.59069917 -0.00024584 -0.00114420 -0.00564777
N 12.34499712 4.33002352 23.75145724 0.00286172 -0.00524515 0.00122634
N 13.25066191 9.24168503 25.89880021 -0.00176392 -0.00385701 0.00043969
N 14.24468865 0.50733902 21.74966539 0.00360134 0.00074900 -0.00608405
N 12.59752203 3.49717273 19.90194543 0.00007836 0.00607284 0.00596360
N 11.33237909 6.41239962 23.92491761 -0.00707079 0.00108131 0.00215219
N 14.41387535 1.30815292 25.77352382 0.00165265 0.00086814 -0.00262932
N 13.68156878 8.31734635 21.00557487 -0.00496670 0.00116533 -0.00073383
N 11.56432039 15.22220639 0.93542536 -0.00295894 -0.00626210 -0.00265493
N 12.90452882 13.89561771 6.05018795 0.00124946 0.00139104 -0.00287890
N 13.35648280 18.63612630 7.88453245 -0.00032485 0.00281142 0.00306175
N 14.39483161 10.48254439 3.34403127 0.00240361 0.00882267 -0.00386630
N 12.99943443 13.41267136 1.56182527 -0.00489720 0.00783083 -0.00130105
N 11.71643179 15.89878044 5.98814641 0.00203635 -0.00057679 0.00582769
N 14.38184290 10.75718753 7.44822733 0.00031515 0.00147092 -0.00161151
N 13.37432552 18.02173973 3.03585441 -0.00798475 -0.00334680 0.00647542
N 11.80734732 14.96252344 10.10148544 -0.00159237 -0.00057218 -0.00052426
N 12.68120564 13.95033089 14.72353941 0.00067414 0.00067263 0.00649036
N 12.92358402 18.65171365 17.01599582 -0.00098160 0.00136288 0.00219572
N 14.47674897 10.45026122 12.49108927 0.00142448 -0.00145526 0.00241759
N 12.28938716 12.69632455 10.28056460 -0.00121522 -0.00677223 -0.00123025
N 11.49519661 15.93334358 14.92720126 0.00193475 0.00100797 0.00258781
N 14.57276159 10.61458769 16.62644528 -0.00340003 0.00428107 0.00295724
N 13.31309854 17.99816182 12.02312123 0.00590911 0.00085177 -0.00499830
N 11.67408716 15.36240901 18.80433492 -0.00248618 0.00168905 -0.00897542
N 12.94545411 13.97133702 23.31065642 -0.00246886 0.00374882 0.00138163
N 13.28074453 18.66469188 25.81416449 -0.00090805 0.00507326 0.00546333
N 14.42667338 10.46983639 21.36926291 0.00201348 0.00496702 -0.00054244
N 12.73598101 13.39484534 19.45554479 0.00125023 0.00184528 -0.00647082
N 11.63770827 15.75431385 23.97356595 -0.00512890 0.00280497 -0.00653250
N 14.55745441 11.17150958 25.95627660 0.00517014 -0.00374136 -0.00387496
N 13.38380144 18.24141521 21.25880059 0.00238923 -0.00552357 0.00507842
N 11.33360077 24.92672227 0.83684165 -0.00087920 0.00936214 -0.00316479
N 12.87574744 23.57778400 5.55078978 0.00326512 0.00110883 -0.00207416
N 13.39279444 28.32949976 7.88307207 -0.00251289 0.00645702 -0.00050653
N 14.27958075 20.10396682 3.20605981 0.00251068 0.00091571 -0.00031786
N 12.85350452 23.15953588 1.17127795 0.00586096 0.00259149 -0.00014656
N 11.90023768 25.63631564 6.03571608 -0.00044876 0.00674965 0.00315734
N 14.21854557 20.75545990 7.52063131 0.00398684 -0.00114522 -0.00357126
N 14.22419526 27.84609033 2.80985312 -0.00367041 -0.00017052 0.00744679
N 11.18912247 24.84316675 10.23208696 -0.00083771 0.00144906 0.00436050
N 12.71258327 23.55179153 14.64474629 -0.00365415 0.00146358 -0.00639186
N 13.08433712 28.07232198 16.87974261 0.00606723 0.00351828 -0.00285799
N 14.16665641 20.04623991 12.39514794 -0.00348881 0.00151566 0.00162787
N 12.23537729 22.77925546 10.46627390 0.00059820 0.00369270 -0.00417399
N 11.44695533 25.45135155 14.61838549 0.00006262 0.00120416 0.00092362
N 14.34800421 20.36317523 16.45147133 0.00817473 0.00131382 0.00199160
N 13.91591266 27.65497461 12.08082949 -0.00298062 -0.00079262 -0.00009047
N 11.23395977 24.65721358 19.14524381 -0.00247593 0.00393644 -0.00239206
N 12.63446609 23.16478354 23.64081697 0.01115642 -0.00045653 -0.00560892
N 13.58741398 27.97736476 26.15293367 -0.00087617 -0.00030804 0.00524788
N 14.79387667 20.00956012 21.44223498 0.00161514 0.00316447 -0.00697449
N 12.59510884 22.82596580 19.37805340 -0.00156898 -0.00105195 -0.00849051
N 11.87221051 25.34984615 23.87897980 0.00168515 0.00124925 -0.00852083
N 14.46942487 20.60640188 25.57873300 -0.00097980 0.00103360 0.00107085
N 13.01183628 27.52487042 21.11726294 0.00471112 -0.00525739 0.00109882
N 15.10423723 6.00039137 0.98131668 0.00052131 -0.00236906 0.00069158
N 16.02779867 3.92582430 5.37562111 0.00086432 -0.00030630 0.00098396
N 16.69219810 8.83739675 7.41518229 -0.00173106 0.00200967 0.00559455
N 18.61522415 0.65154110 3.16904598 -0.00052748 0.00437309 -0.00422160
N 16.32842357 4.07016738 1.38228748 0.00365628 0.00272459 -0.00986220
N 15.24880018 5.94982165 5.89838958 0.00278354 -0.00190219 -0.00222521
N 18.15111930 1.25959652 7.20483607 -0.00038041 0.00615242 -0.00709401
N 17.03978172 9.00170346 3.10118421 -0.00130933 0.00348952 -0.00051694
N 15.14165281 5.59490635 9.96296669 -0.00031531 -0.00051663 0.00440494
N 16.26883709 4.18355687 14.45843790 -0.00169817 0.00605769 0.00472017
N 17.20593164 8.77429982 17.33978288 0.00886310 0.00471293 -0.00588923
N 18.29293752 0.57803068 12.15686462 0.00178339 -0.00005293 0.00648317
N 16.30354939 3.76242785 10.56779379 -0.00468428 -0.00433764 0.00081578
N 15.09659756 6.22867464 14.87602124 -0.00502690 -0.00262370 -0.00447704
N 17.48035077 1.30868318 16.57774842 -0.00473256 -0.00639818 0.00512136
N 17.45664793 8.24701599 12.01258771 0.00174073 -0.00029764 -0.00062905
N 14.87480613 5.22797529 19.23133015 -0.00564273 0.00085790 0.00542130
N 16.24856899 4.05301075 23.82227407 -0.00314994 0.00513949 0.00791715
N 16.70620209 9.06086420 25.98440475 -0.00715858 0.00053038 0.00406867
N 18.42884954 0.39153337 21.37057822 -0.00250826 0.01119473 -0.00176157
N 16.29756809 3.43919146 19.46336496 -0.00018435 0.00563603 0.00609144
N 15.14726924 6.03457082 24.22425236 -0.00666312 0.00604721 -0.00639368
N 17.81721651 1.30626262 25.59508796 -0.00098584 -0.00459531 -0.00533933
N 16.97897859 8.17932445 21.05111595 -0.00098506 0.00150491 -0.00117101
N 15.33839864 15.05897594 1.17718074 0.00220803 -0.00046593 -0.00430366
N 16.41682723 13.63979749 5.48570785 0.00075539 -0.00027729 0.00153804
N 16.72609945 18.70839259 7.66266612 0.00252015 0.00689576 -0.00242241
N 18.56964887 10.58105845 3.76878288 0.00266308 -0.00334367 0.00326071
N 16.39935988 13.04526327 1.45844730 0.00604757 -0.00008566 -0.00060617
N 15.57987486 15.72096743 6.16338793 0.00100035 0.00439579 0.00358782
N 18.04204985 10.69946180 7.44410700 -0.00136106 0.00307566 -0.00200614
N 17.24152211 18.06950848 3.02437887 0.00419621 0.00621567 -0.00203192
N 14.76187444 15.11527083 9.78354140 -0.00177008 0.00085625 -0.00318652
N 16.13160332 13.84977876 14.83899681 0.00228936 0.00212049 -0.00164181
N 16.97233090 18.57681726 16.78715607 -0.00731028 -0.00860932 0.00228534
N 17.85270010 10.44158399 12.34493270 -0.00425758 -0.00503061 -0.01003824
N 16.12838255 13.42385727 10.54228031 -0.00426700 -0.00499316 -0.00662849
N 14.89351243 15.75249162 15.35691901 0.00491725 -0.00109395 0.00119291
N 18.10426928 10.71632864 16.46576325 0.00998964 0.00218110 -0.00036555
N 16.83379889 17.87663342 11.70115977 -0.00435986 0.00001334 -0.00769234
N 15.19551835 15.24842220 19.46368240 -0.00484811 -0.00115912 0.00062720
N 16.61800554 13.72169013 23.93083572 -0.00156770 -0.00220647 0.00188300
N 16.89024787 18.58057786 26.06483575 -0.00655778 -0.00358780 0.00062371
N 18.11768245 10.21287854 21.37685308 0.00505090 0.00013486 -0.00060194
N 16.07765880 13.15999813 19.84685967 -0.00174345 -0.00129125 -0.00104051
N 15.19051607 15.61436288 23.89517625 -0.00237546 -0.00304632 0.01058041
N 18.32519396 10.74381925 25.71196283 -0.00775594 -0.00446432 0.00087885
N 17.20913131 18.20878053 20.83435492 -0.00212706 -0.00231036 -0.00247306
N 15.27029973 24.76236117 1.01413377 0.00028694 0.00729684 -0.00494219
N 16.46314620 23.14692936 5.51711673 0.00142635 -0.00196209 -0.00044861
N 16.98365366 28.26437863 7.56405951 -0.00090355 -0.00102680 -0.00474991
N 18.33299217 20.05162449 3.27222276 -0.00063903 -0.00542393 -0.00514968
N 16.44439966 22.85425808 1.42388380 0.00072565 -0.00169432 -0.00433093
N 15.33603833 25.10107899 6.05840178 0.00218029 -0.00226104 -0.00034622
N 18.14601174 20.38227427 7.29075223 -0.00113130 0.00736596 -0.00020095
N 17.16929356 27.63161627 2.92962907 -0.00309550 0.00016181 -0.00255449
N 14.75771645 24.50119161 10.26288937 0.00236573 -0.00503551 0.00025852
N 16.58241643 23.29134972 14.84484279 -0.00088661 -0.00119872 0.00747023
N 16.99709195 27.89749423 16.98545937 0.00124955 0.00412674 0.00066740
N 18.04071183 19.77443715 12.18605758 0.00392706 -0.00210764 0.00172368
N 16.37506842 22.71288753 10.53129941 0.00013226 -0.00498989 0.00236489
N 15.26706017 25.19814663 15.20872890 -0.00154159 -0.00001821 -0.00519488
N 18.12857960 20.57840001 16.83354809 -0.00361318 -0.00493165 0.00074806
N 17.03535464 27.51840319 12.11415963 -0.00047139 0.00307919 0.00404992
N 14.83557460 24.77414669 19.43609831 0.00207541 -0.00597680 -0.00391973
N 16.45484114 23.14760815 23.78354901 -0.00092972 0.00623749 0.00139788
N 16.74944782 28.14567265 25.95073167 -0.00033418 0.00127334 0.00256038
N 18.55595415 20.03512846 21.36569661 -0.00609992 -0.01051927 -0.00109515
N 16.00599947 22.79420751 19.54398658 -0.00816564 0.00102010 0.00100346
N 15.03431094 24.94018255 24.25873546 -0.00208625 0.00054186 -0.00421241
N 17.89012943 20.61085961 25.64823391 0.00183707 -0.00135912 -0.00093294
N 16.97299995 27.55259676 21.21305800 -0.00109075 -0.00048582 -0.00029008
N 18.70121039 5.79766035 1.32099535 -0.00593465 0.00145914 0.00449879
N 20.23867364 4.14982411 5.62971191 -0.00171644 0.00216864 -0.00318913
N 20.39473459 9.28734896 8.18181296 -0.00098822 0.00719003 0.00268202
N 21.71413810 0.78434414 3.24477172 0.00196420 -0.00084357 0.00539453
N 19.86672063 3.79681729 1.49445641 0.00292701 0.00051808 0.00062779
N 19.00964484 6.05663439 5.67657356 -0.00024741 -0.00774303 0.01116391
N 21.74794615 1.26455414 7.54906434 0.00493928 -0.00354846 -0.00618905
N 20.93652096 8.50792934 3.21064074 -0.00160187 0.00106417 -0.00030667
N 19.11464890 5.63111080 9.96236198 0.00545126 -0.00250377 -0.00237449
N 20.36161168 4.33858559 14.77765673 0.00163103 -0.00673727 0.00224931
N 20.52431511 9.21316974 17.22584597 0.00533717 0.00368074 0.00027895
N 21.79529008 0.78981014 12.41426488 -0.00089664 0.00450895 0.00230579
N 19.58379322 3.42773872 10.54037186 -0.00541482 0.00595831 -0.00282443
N 18.90173602 6.12003335 14.90259630 0.00271377 -0.00063736 -0.00010563
N 21.65106709 1.24885859 16.58118465 0.00715163 -0.00593566 -0.00215121
N 20.67000938 8.31595590 12.33100592 -0.00253585 -0.01045144 0.00383144
N 18.65749062 5.26198693 19.48134559 0.00245870 -0.00297919 0.00712065
N 20.12658241 4.23885774 23.97409266 -0.00191654 0.00015254 0.00256603
N 20.43714895 8.79740204 26.24125633 -0.00314335 -0.00427404 0.00440984
N 22.12723030 0.60094433 21.74100002 -0.00176025 0.00140475 -0.00432474
N 20.11562780 3.47505724 19.39285340 -0.00319198 0.00666747 -0.00362904
N 18.50652840 6.01838888 24.26855838 -0.00042715 0.00174793 0.00082744
N 21.59363068 1.41602586 25.98952345 0.00087924 0.00296574 0.00526151
N 20.40419443 8.44211058 21.28922259 -0.00062795 -0.00231375 0.00542694
N 18.84747012 14.98464032 1.00732190 -0.00027992 -0.00710038 -0.00375602
N 20.13669657 13.80933713 5.58631433 -0.00534345 0.00074795 0.00397262
N 20.77618846 18.57518760 8.11556553 -0.00417343 -0.00242790 0.00254589
N 22.04112523 10.51056647 3.62924005 0.00164256 -0.00273767 -0.00226143
N 20.23375731 13.23743421 1.58398566 -0.00338558 0.00077941 0.00659613
N 19.02370175 15.68895241 5.95350281 -0.00001545 -0.00482860 -0.00335340
N 21.93929409 11.00253364 7.84917826 0.00622171 0.00623970 -0.00555184
N 20.72094862 17.94625953 2.96312407 -0.00167412 0.00055692 0.00418644
N 18.56539921 15.14313617 9.94925978 0.00038496 0.00059533 -0.00059964
N 19.90920873 13.86430270 14.51069470 -0.00270955 -0.00346666 0.00486300
N 20.62011307 18.58917471 16.87762135 0.00154422 0.00120271 -0.00131324
N 21.48766354 10.36103690 13.10032026 0.00768767 -0.00010925 0.00777696
N 19.91688965 13.32360711 10.49242492 0.00825377 0.00667265 0.00133858
N 18.67219604 15.77374622 14.81147697 0.00127487 0.00240911 0.00586191
N 22.01595299 10.85214315 16.59389893 -0.00200822 0.00071440 -0.00051748
N 20.90044544 17.89905910 12.02304042 -0.00214886 -0.00433122 0.00199497
N 18.71848258 15.17965014 19.18014861 0.00338142 -0.00127375 -0.00081989
N 19.98476831 13.60380985 23.53449818 0.00313429 -0.00272000 -0.00177910
N 20.78749417 18.08673851 26.14890228 -0.00105888 -0.00226217 0.00454088
N 21.26122143 10.56203369 21.80616169 -0.00309426 -0.00354603 0.00636449
N 19.88599807 13.18657368 19.04089640 0.00062214 -0.00363286 -0.00386361
N 18.93332208 15.59413074 24.06383930 0.00129916 -0.00031216 -0.00512720
N 21.76184413 10.76508374 26.02032438 0.00110835 0.00453615 -0.00747113
N 20.79250098 18.12311997 21.05803268 -0.00449575 0.00147850 0.00295993
N 18.91875200 24.59793690 1.45440007 -0.00038531 0.00000134 -0.00126180
N 20.27150987 23.60109339 5.92702684 -0.00112681 0.00303366 -0.00130193
N 20.55900844 28.14668764 7.71155144 0.00279843 0.00104098 0.00041929
N 21.91870302 19.87793238 3.39913246 0.00667787 0.00410444 0.00431829
N 20.21411539 22.67375289 1.53128358 -0.00626127 0.00384754 -0.00504946
N 18.72401361 25.32551760 6.09023344 -0.00264315 -0.00048697 -0.00312339