1728
Time=36000.00000001 pbc="T T T" Lattice="22.01156020 0.00000000 0.00000000 0.00000000 28.84613420 0.00000000 0.00000000 0.00000000 27.39401251" energy=-10386.83526063 virial="13.18851308 -4.88837513 1.61544567 -4.88837513 24.87715035 -16.75384828 1.61544567 -16.75384828 -27.29807117" stress="0.00303614 -0.00025827 0.00008099 -0.00025827 0.00402108 -0.00099236 0.00008099 -0.00099236 0.00147071" Properties=species:S:1:pos:R:3:vel:R:3
N 0.36565562 5.27297384 1.07751991 -0.00288677 0.00063795 -0.00312490
N 1.49025065 4.04740505 5.74882682 0.00031354 0.00708842 -0.00424764
N 2.17164407 9.05598247 8.07270305 -0.00113870 -0.00108377 -0.00472225
N 3.31487545 0.52874706 3.68903339 0.00060023 -0.00769299 -0.00382612
N 1.41919132 3.21095343 1.58839340 -0.00721931 0.00138473 -0.01083791
N 0.73186526 6.13129293 6.23805681 -0.00240293 -0.00240914 0.00652368
N 3.37537291 1.28645693 7.61677431 0.00397115 0.00408518 0.00345578
N 2.27620845 8.34689815 3.34308023 -0.00033686 -0.00275234 -0.00087777
N 0.16400940 5.31280829 10.56979874 -0.00243053 -0.00099809 -0.00522945
N 1.80887956 4.20208595 15.32879747 -0.00211565 -0.00941146 -0.00393404
N 1.59053796 8.87988795 17.32880761 0.00345572 0.00534967 0.00457277
N 3.64082311 0.40284491 12.54677337 0.00084367 -0.00084976 -0.00017286
N 1.77228743 3.50449485 10.69262124 -0.00065743 0.00047732 0.00551977
N 0.56122207 6.09171479 15.29613723 0.00241199 -0.00470618 0.00792913
N 3.47769507 1.12377158 16.87343367 0.00077177 0.00024298 -0.00096926
N 2.03592338 8.38834525 12.40606941 -0.00019844 0.00295410 0.00061786
N 0.36309228 5.48715536 19.87447809 0.00008498 -0.00286001 0.00374879
N 1.61293438 4.18463588 24.04809936 0.00164383 0.00701106 0.00730042
N 1.85246851 9.20494409 26.43488831 0.00385191 -0.01263424 -0.00316703
N 3.27461077 0.47965259 21.72134943 -0.00138198 -0.00058416 0.00099921
N 1.32023532 3.39695121 20.05163721 -0.00808063 -0.00047983 0.00226730
N 0.48922130 6.17041059 24.44490791 -0.00564054 -0.00598445 0.00404509
N 3.34550348 1.37538834 25.99213994 0.00321559 -0.00266900 0.00587688
N 2.10782428 8.79838019 21.43721303 0.00452702 -0.00298929 -0.00728499
N 0.66198548 15.37851587 1.23289645 -0.00482785 -0.00021812 0.00237791
N 1.45161697 13.60548448 5.56831455 0.00893402 -0.00416388 -0.00340897
N 2.15818282 18.75677096 7.56418530 0.00193224 -0.00248971 0.00122109
N 3.43463801 10.37584806 3.29248687 -0.00169190 -0.00245261 -0.00317430
N 1.26394315 13.24930800 1.76180043 -0.00835832 -0.00159324 0.00572205
N 0.62409089 15.70821222 6.02846440 0.00154040 0.00012539 0.00098321
N 3.16376858 11.05009463 7.69708243 -0.00223044 -0.00817198 -0.01061180
N 2.43037946 17.90366766 3.28762233 0.00185205 0.00162260 -0.00739582
N 0.16190699 15.15307684 10.28452699 -0.00066093 -0.00266470 -0.00304091
N 1.37473340 13.57129243 14.71482348 0.00074202 -0.00004681 -0.00327086
N 2.18393079 18.50277844 17.18049679 0.00393296 0.00324433 -0.00074479
N 3.26479161 10.33347887 12.79572883 -0.00846079 0.00675507 0.00353991
N 1.44783533 13.27408087 10.63518467 -0.00656892 0.00704970 -0.00775296
N 0.49060596 15.63592040 15.08808733 -0.00540055 0.00501401 0.00667741
N 2.71231146 10.81719165 16.82776469 0.00125336 0.00457771 0.00018546
N 2.24903668 18.12380067 12.29221310 -0.00096926 0.00046098 -0.00229174
N 0.20924417 14.87226620 19.44090517 -0.00508100 -0.00215772 -0.00265577
N 1.81892193 13.80942334 23.94273013 0.00465030 -0.00141022 -0.00707358
N 1.96591749 18.67517207 26.27806590 -0.00481365 0.00050430 -0.00313961
N 3.65534397 10.55585650 21.83530880 0.00075419 -0.00592387 0.00245997
N 1.22831701 12.81138621 19.92000023 -0.00019845 -0.00190795 0.00016362
N 0.30164355 15.51389769 24.28416984 0.00344160 -0.00840712 0.00002519
N 3.11006833 11.10149263 26.11983680 0.00276831 -0.00803138 0.00394945
N 2.38037817 17.92205880 21.55010047 -0.00256872 0.00036765 0.00018097
N 0.40675930 25.04811778 0.85761841 0.00137369 0.00213988 -0.00180170
N 1.54650509 23.21871177 5.86893901 -0.00089655 -0.00079734 0.00114902
N 2.32884980 28.08728528 8.01295496 -0.00450511 0.00581475 0.00208893
N 3.34441714 19.94993879 3.70115211 -0.00644943 0.01053146 -0.00514508
N 1.56108854 23.00421470 1.28229923 -0.00092397 0.00178499 0.00336350
N 0.29664362 25.29304204 6.07728055 0.00324579 -0.00144343 0.00407141
N 3.65769489 20.49565340 7.67127898 -0.00241304 -0.00503547 0.00005190
N 2.30867423 27.51337325 2.95700814 -0.00491603 0.00110329 -0.00155447
N 0.18904738 24.87658169 10.30758753 0.00421608 -0.00643740 0.00384739
N 1.46483872 23.19397814 14.98091484 0.00755252 0.00978286 -0.00287610
N 2.26516436 27.93729592 17.19462384 0.00342484 0.00180856 -0.00219847
N 3.16119131 20.20387888 12.79072172 0.00621197 -0.00382860 0.00454004
N 1.39690686 22.82115981 10.69114396 0.00037498 -0.00350963 0.00434356
N 0.11804896 25.11023639 15.22263327 0.00077422 0.00057605 0.00240082
N 3.24168679 20.44544599 16.63124278 -0.00460331 0.00065425 0.00268751
N 2.47785404 27.27836254 12.12704775 -0.00255236 0.00060572 -0.00552999
N 0.13241485 24.35563500 19.25390250 0.00708577 0.00619720 0.00522167
N 1.49804750 23.15878041 23.75778154 -0.00277790 -0.00659650 -0.00227988
N 2.34180223 28.06318937 26.20121189 0.00276282 -0.00519068 -0.00545603
N 3.59759605 19.85630017 21.88844968 -0.00036228 -0.00542624 0.00325940
N 1.29101934 22.33971421 19.58726195 -0.00591648 0.00342958 0.00657201
N 0.40464838 25.15545424 24.20249118 -0.00113575 0.00616511 0.00461232
N 3.22397173 20.61033075 26.13298730 0.00622049 0.00461884 0.00132021
N 1.96049317 27.55447374 21.08536616 0.00278648 0.00233610 -0.00527430
N 3.84391389 5.46355767 1.16973644 0.00592428 0.00364234 -0.00308447
N 5.35453253 3.83109208 5.66681478 0.00019319 -0.00116867 -0.00080607
N 5.57484318 8.80285896 7.94567529 -0.00039560 -0.00238957 -0.00199341
N 7.31034405 0.49936865 3.28907107 -0.00074357 -0.00425449 0.00006298
N 5.28501313 3.70152178 1.85267449 0.00234329 -0.00336610 -0.00154041
N 3.96077535 5.74389215 5.72134868 -0.00338066 0.00125946 -0.00825404
N 7.36814942 1.25772266 7.97329322 -0.00203145 0.00568617 0.00059515
N 5.90449899 8.39270236 3.16216034 0.00034887 -0.00442189 -0.00009085
N 4.11300771 5.73531283 10.20800906 -0.00198416 0.00306384 0.00275502
N 5.39907132 4.07981358 14.98216630 0.00126993 0.01047731 0.00917447
N 5.45895056 8.76568371 17.13859506 0.00347790 0.00321361 -0.00129787
N 7.45874938 0.47808823 12.59590293 0.00036849 -0.00239459 0.00254970
N 4.99852245 3.62565696 10.67631324 0.00131728 -0.00139550 -0.00206119
N 4.32496881 6.12655493 15.37678341 -0.00179792 -0.00145932 -0.00176158
N 7.02399664 1.06647586 16.86354543 -0.00912384 0.00182024 -0.00201619
N 5.79089839 8.24690181 12.56360703 0.00368892 0.00111526 -0.00169096
N 3.57888976 5.59717881 19.57860781 0.00108691 -0.00247901 -0.00296493
N 5.05048614 4.32515235 23.59371047 -0.00474274 0.00074589 -0.00160698
N 6.03535055 8.84622700 26.42744180 -0.00145956 0.00259240 0.00034756
N 7.02376651 0.68908936 21.60083523 -0.00210190 -0.00889745 -0.00720481
N 4.64147603 3.51619520 19.81953473 -0.00609372 0.00021194 -0.00639430
N 4.22381178 6.37266933 24.42339074 -0.00098942 -0.00073329 0.00751888
N 7.03522191 1.60060812 26.06280106 -0.00419742 0.00260409 0.00552092
N 5.83495677 8.64144037 21.55925040 -0.00635241 0.00488221 0.00622042
N 4.14873452 15.37043561 1.02005472 0.00062140 0.00500480 0.00284490
N 5.21248548 13.43898272 5.71567002 0.00035813 -0.00651343 0.00654695
N 6.00172784 18.61445655 8.01143467 0.00106174 -0.00033066 -0.00377065
N 7.23925163 10.24392421 3.35539143 -0.00340612 -0.00370579 0.00963423
N 5.14964189 13.28104079 1.19511185 0.00412060 -0.00403996 0.00041322
N 3.89476619 15.25920156 6.15649468 -0.00362992 0.00179081 -0.00140016
N 6.96946432 10.59054683 7.84338842 -0.00173368 -0.00160314 -0.01046624
N 6.08848195 17.99100557 3.16781441 0.00270926 0.00090481 -0.00148897
N 3.82864160 15.15714844 10.25603249 -0.00113730 0.00062751 -0.01091971
N 5.04712921 13.40126553 14.93742962 -0.00234753 -0.00678993 0.00083129
N 5.79465918 18.24902881 16.77288347 -0.00291357 0.00582798 -0.00123537
N 7.21479629 10.07537710 12.30381458 -0.00587624 -0.00297149 -0.00268754
N 4.85565360 13.11378521 10.61488532 -0.00371898 0.00247075 -0.00418568
N 3.95836265 15.40244404 15.10568983 -0.00087116 0.00253180 -0.00307617
N 6.81317092 10.59598473 16.72294770 -0.00053115 0.00292991 -0.00267204
N 5.91546475 17.96857501 12.30311434 -0.00567095 -0.00003588 -0.00401175
N 3.80151786 14.81718023 19.76133978 0.00056878 -0.00093306 -0.00392777
N 5.30914684 13.73746302 24.06976645 -0.00266890 0.00811174 0.00048544
N 5.47929192 18.80601720 26.38615437 -0.00528447 -0.00282460 0.00322144
N 7.30042826 10.37020018 21.49403970 -0.00140006 -0.00138345 -0.00082608
N 5.13730602 13.01631773 19.76707954 -0.00254389 0.00446624 0.00437031
N 4.10662942 15.72441627 24.18672926 -0.00278894 0.00330451 0.00170542
N 7.06141108 10.88883883 25.97514363 0.00044316 0.00214887 0.00839589
N 5.67174996 17.84999362 20.90505265 -0.00026337 -0.00752525 -0.00267113
N 4.14802016 24.77313177 0.84168144 0.00086251 0.00066387 0.00168181
N 5.29421144 23.40636337 5.76960820 -0.00134744 0.00532392 0.00054721
N 6.28688773 27.99078481 8.11055864 -0.00257755 -0.00015409 0.00161507
N 6.85152032 20.08860302 3.59256029 0.00323617 0.00384164 -0.00012734
N 5.08795915 22.84713197 1.27272225 -0.00514274 -0.00253416 -0.00448558
N 3.93859654 25.17842666 5.90828692 -0.00234432 0.00219876 0.00262208
N 7.05090275 20.66243234 7.81817035 -0.00222029 -0.01182441 0.00109098
N 5.85422731 27.43415689 3.19957533 -0.00658794 -0.00294717 0.00790645
N 3.91274065 24.75974642 9.95627746 0.00260507 0.00081595 0.00742426
N 5.16301380 23.17719226 14.44452527 0.00143471 0.00416320 0.00291610
N 5.91453831 27.92428660 17.10723740 -0.00510165 0.00230204 0.00417193
N 6.97639403 20.09368996 12.59870254 0.00117868 0.00207315 0.00099982
N 5.16245672 22.80227580 10.31450198 0.00231729 -0.00134788 0.00219478
N 4.09955501 25.21463214 14.88656097 0.00385705 -0.00357219 -0.00629735
N 6.65521904 20.26409278 16.22491711 -0.00119423 0.00198630 -0.00405385
N 5.92822646 27.66069789 11.87656699 0.01012303 0.00283402 -0.00579698
N 3.89638034 24.45024723 19.34036983 -0.00268489 0.00247963 0.00205588
N 5.33142302 23.13763459 23.62722518 0.00435400 -0.00140012 0.00666833
N 5.82446750 28.49551375 26.05091505 -0.00193552 -0.00101544 -0.00207524
N 6.96135730 19.73091663 21.48102338 -0.00470589 0.00175853 -0.00182173
N 4.97766852 22.47402494 19.40445498 0.00234886 -0.00547976 0.00072837
N 4.04355566 24.95230640 24.21053032 -0.00511637 -0.00870941 0.00462659
N 6.73613293 20.62500091 25.70593208 0.00343951 0.00278766 0.00486810
N 5.77317767 27.69292440 21.31853631 -0.00589383 -0.00765016 -0.00562838
N 7.71142858 5.59272665 1.30317586 0.00532586 0.00495612 0.00072185
N 9.23204687 4.13228748 6.01522433 0.00485240 0.00051714 0.00425698
N 9.30628572 8.89781147 7.98662665 0.00018143 -0.00528955 0.00268635
N 10.39294939 0.85849495 3.79620409 0.00431426 -0.00107339 -0.00146578
N 8.99759627 3.63189880 1.37541776 0.00009697 0.00069895 0.00554780
N 7.74201985 5.89725008 6.27514229 -0.00152548 -0.00282890 -0.00709065
N 10.64374131 1.29054508 8.04801454 0.00069898 -0.00546623 0.01015776
N 9.88600478 8.29504797 3.25757689 0.00002858 -0.00115453 -0.00245005
N 7.52925998 5.44651708 10.71355608 0.00344153 -0.00601452 -0.00241102
N 9.10375320 4.31377515 15.11953535 0.00537823 0.00274804 -0.00543189
N 9.37643053 8.93902775 17.20440281 0.00121991 -0.00421028 0.00111650
N 11.01957872 0.51355037 12.81647609 -0.00046045 0.00179253 -0.00893347
N 8.70488618 3.35336274 10.92032611 -0.00402328 0.00223956 0.00827818
N 7.86635874 6.21657122 15.12144083 -0.00222129 -0.00090626 -0.00220049
N 10.19584514 1.25959087 16.85409305 0.00918145 0.00143250 -0.00169112
N 9.73845801 8.36114411 12.30100345 -0.00562912 0.00068343 -0.00190389
N 7.38742964 5.69463246 19.25876676 0.00259408 0.00509883 0.00935766
N 8.85044848 4.24295560 23.91278297 0.00188327 -0.00103338 0.00671263
N 9.23237376 8.82703158 26.21046456 0.00360980 -0.00265121 0.00240907
N 10.43245358 1.02912869 22.15936762 0.00113517 0.00299071 0.00121213
N 8.41365013 3.60428682 19.74688897 -0.00067947 -0.00500507 -0.00322705
N 7.57269620 6.07490099 24.42983460 0.00143400 0.00095159 0.00219272
N 10.52570337 1.31738172 26.04649616 0.00651195 -0.00346702 0.00069671
N 9.60611955 8.35248522 21.50364137 0.00369759 0.00372784 0.00183516
N 7.77615554 15.36953489 0.86224933 0.00111517 -0.00183381 0.00153671
N 8.92353785 13.56589015 5.71533854 0.00014081 0.00027555 -0.00577935
N 9.39157152 18.33052214 7.99660022 -0.00180471 -0.00503381 -0.00096953
N 11.09661881 10.21319993 3.54229244 -0.00029416 0.00337917 0.00032025
N 8.85528174 13.34535838 1.43683731 0.00285444 -0.00080412 0.00455552
N 7.79559073 15.55164958 6.01272834 0.00501832 -0.00126222 -0.00276992
N 10.53652642 10.72013707 7.73790663 -0.00461272 -0.00214715 0.00137656
N 9.20141713 17.94207508 3.06343649 0.00331351 0.00662720 0.00325264
N 7.46239939 15.18441245 10.26596155 -0.00355336 0.00643421 0.00341376
N 8.97275289 13.57188289 14.76084892 0.00130234 0.00648031 0.00348403
N 9.30092008 18.32764072 17.28028641 -0.00192829 0.00490196 -0.00693087
N 10.68952417 10.49166364 12.59320858 0.00803995 -0.00042166 -0.00670593
N 8.53327820 13.22237517 10.44641590 -0.00043843 -0.00099254 0.00020423
N 7.67250673 15.49499669 15.18922666 0.00754560 -0.01113804 0.00408802
N 10.56855442 10.92441393 16.84813868 0.01061277 0.00603937 -0.00265371
N 9.96900206 17.85431068 12.44741176 -0.00151726 -0.00171001 -0.00240519
N 7.61236331 15.22663619 18.80194599 -0.00622818 -0.00009985 0.00405931
N 8.67730132 13.69863949 23.98743788 0.00282823 -0.00535620 0.00118123
N 9.07889343 18.65424800 26.35440704 -0.00251899 -0.00872092 -0.00385586
N 10.86520790 10.21747944 21.07333544 0.00067154 -0.00092080 0.00380752
N 8.70404481 13.30760011 19.54419757 -0.00007119 -0.00006014 -0.00576607
N 7.82687530 15.83289676 24.14882720 -0.00123351 -0.00257546 0.01049396
N 10.53366836 10.83407283 26.07406908 0.00118701 0.00171653 0.00271423
N 9.49262797 17.76117063 21.46296283 0.00563726 0.00632577 -0.00186020
N 7.75294971 25.07763823 1.14991409 0.00325520 0.00211837 0.00063280
N 8.57603380 23.43638245 5.51097942 -0.00637284 -0.00362176 -0.00666214
N 9.98182698 27.90513813 8.28651814 -0.00297689 0.00220293 0.00515179
N 10.70718452 19.68664401 3.38173363 -0.00482148 0.00319214 0.00264377
N 8.61204724 22.91697325 1.60801949 -0.00096250 0.00113457 -0.00459840
N 7.73125337 25.49423005 6.22565592 0.00572998 0.00033762 -0.00020993
N 10.57073092 20.23579654 7.49245457 0.00151508 -0.00252299 0.00619186
N 9.71196828 27.53730494 3.50700908 -0.00817997 -0.00306327 0.00895647
N 7.59733453 24.69379445 10.27424267 -0.00182069 -0.00227633 -0.00057395
N 8.96983606 23.36597457 14.84081585 0.00239482 -0.00012958 -0.00065560
N 9.70626343 27.98296175 17.36770529 -0.00125030 -0.00244858 -0.00744451
N 10.80673818 20.05749685 12.63343410 -0.00179439 0.00017145 0.00491292
N 8.80698184 22.64823515 10.42897716 -0.00232272 -0.00135793 -0.00197074
N 7.54857112 25.21760723 15.06056514 0.00678057 -0.00269514 -0.00329033
N 10.41087788 20.39643636 16.97197913 0.00107911 -0.00044096 -0.00404688
N 9.90942462 27.39189956 12.11966084 0.00599794 0.00880453 0.00078007
N 7.48308000 24.51655080 19.28118324 -0.00101442 0.00461519 -0.00052272
N 8.74237442 23.52495184 23.68250242 0.00118759 -0.00303358 0.00884617
N 9.05181504 28.37500287 26.37669845 -0.00009949 0.00522389 0.00106139
N 10.97627425 19.60435588 21.80301176 -0.00024104 0.00032925 0.00179901
N 8.71826256 22.56998484 19.77094117 -0.00079245 0.00191514 0.00430417
N 7.44132011 25.41670072 23.91815638 0.00082548 -0.00086675 0.00101505
N 10.19479380 20.68122523 26.23763832 -0.00082870 0.00519697 -0.00287118
N 9.53964212 27.83999770 21.57601803 -0.00016698 0.00191627 0.00399743
N 11.46051392 5.61990702 1.05166454 -0.00176988 0.00034564 -0.00221372
N 12.51732248 4.23694321 5.80443588 -0.00226973 -0.00324765 -0.00628049
N 13.59071172 8.87280510 7.88106757 -0.00809734 -0.00268169 -0.00006823
N 14.52816391 0.45629711 3.25030698 0.00113400 0.00579376 0.00566941
N 12.58743717 3.68536871 1.38673046 0.00625188 0.00057614 0.00287422
N 11.46897610 6.19256660 5.97674711 -0.00133173 -0.00846833 -0.00116075
N 14.36984347 1.08616809 7.74759506 0.00168082 -0.00197488 -0.00755129
N 13.42896624 8.39795723 3.43474446 -0.00315390 0.00207469 0.00568747
N 11.07266837 5.39216278 10.36588441 -0.00294506 -0.00182484 -0.00558592
N 12.30920342 3.97435454 14.90673895 -0.00020619 -0.01054601 -0.00312590
N 13.11917640 9.07692143 16.96444337 0.00580721 -0.00224514 -0.00014457
N 14.77623226 0.67275763 12.46485987 0.00029240 -0.00000594 -0.00385361
N 12.36222328 3.50444763 10.70846299 -0.00258571 0.00388206 0.00024390
N 11.49861726 6.10281023 15.26666447 -0.00045886 0.00087783 0.00526247
N 14.13211134 1.15394137 16.64970695 0.00596695 0.00048150 -0.00804514
N 13.08440453 8.20088854 12.16218924 0.00441760 0.00235302 0.00008144
N 10.89227044 5.37104132 19.60278844 -0.00168278 -0.00247092 -0.00513711
N 12.06772720 4.19450465 23.92471850 0.00375058 -0.00382385 -0.00103218
N 13.07129844 9.06280402 26.02786275 -0.00266543 -0.00418775 -0.00266528
N 14.00587683 0.78021229 21.56858381 -0.00212167 0.00202561 -0.00995125
N 12.30310910 3.61815285 19.79901238 0.00685836 -0.00076428 0.00430962
N 11.83556221 6.43816910 24.06420323 -0.00403574 -0.00207635 0.00191081
N 14.36832739 1.56680793 25.58738916 0.00156509 0.00168630 0.00892669
N 13.06281447 8.26767621 21.03774825 -0.00119772 -0.00415362 0.00227184
N 11.31006702 15.11991358 1.43921687 0.00327675 -0.00799473 0.00295578
N 12.83070105 13.99789301 6.05518321 -0.00000684 0.00033946 0.00376811
N 13.23673970 18.76655310 7.98471228 0.00397928 -0.00013815 -0.00186764
N 14.52302088 10.39538887 3.42216251 -0.00093334 -0.00246378 0.00730439
N 12.55753590 13.12253463 1.54309253 -0.00760947 0.00521510 -0.00365054
N 11.38834561 15.80711209 6.16189634 -0.00014290 0.00167101 -0.00144132
N 14.53993839 10.96321046 7.63293327 -0.00064489 -0.00585543 -0.00428704
N 13.47233897 17.87246875 2.96521473 -0.00510619 0.00178795 0.00234282
N 11.62674843 15.22051253 10.42631080 -0.00136323 -0.00274773 -0.00089597
N 12.73826142 13.87915036 15.07632105 -0.00034867 -0.00142972 -0.00397237
N 12.92653946 18.54242664 17.04104299 0.00176048 -0.00053351 0.00018153
N 14.30164505 10.19550218 12.40222921 0.00165434 -0.00188087 0.00236665
N 12.58506883 13.06467448 10.32454662 0.00275199 -0.00054071 -0.00227319
N 11.14328933 15.62400318 15.26405460 -0.00105859 -0.00001266 0.00052184
N 14.20506502 11.02730796 16.55846665 -0.00312049 -0.00519780 -0.00095043
N 13.38680219 18.16140729 12.07617507 0.00181662 -0.00744713 0.00133255
N 11.50675593 15.34494030 19.31974053 0.00052786 -0.00109625 -0.00102126
N 12.60657290 13.77807430 23.99534291 -0.00572934 -0.00174059 0.00361662
N 13.14230344 18.55034355 26.40662287 0.00023667 0.00082419 -0.00315910
N 14.00569602 10.33820027 21.56193449 0.00037396 -0.00337244 0.00073463
N 12.52062608 13.35762221 19.48153451 -0.00355439 -0.00283869 -0.00296167
N 11.19722113 15.56465200 24.43976871 -0.00086508 0.00166315 -0.01014099
N 14.37451041 10.91414820 25.91400290 -0.00037588 -0.00059705 -0.00188931
N 13.44095239 17.96834337 21.66852592 -0.00767918 -0.00226091 -0.00533493
N 11.13579095 24.45424259 1.55310445 -0.00334896 0.00405633 -0.00294264
N 12.65669158 23.32276638 5.76376840 0.00218099 -0.00466087 0.00439964
N 13.05249800 27.97603346 8.03492768 -0.00011499 0.00312305 0.00555960
N 14.68412386 19.79922577 3.51711762 -0.00425778 -0.00500259 0.00182536
N 12.61957583 22.73611722 1.73757178 -0.00506046 -0.00343973 0.00482695
N 11.30001930 25.22578504 5.90503409 0.00407819 -0.00189831 0.00224125
N 14.26203248 20.68392754 7.59972419 -0.00061593 0.00006478 0.00744330
N 13.11724741 27.52525375 3.19751453 0.00075681 -0.00036858 0.00049990
N 11.92673660 24.73519386 9.78414060 -0.00015739 0.00330446 -0.00523289
N 12.57246311 23.29305897 14.97252546 0.01196557 0.00068111 -0.00753837
N 12.77343695 28.22320830 16.89292929 -0.00219640 0.00472748 -0.00625174
N 14.58612456 20.11741233 12.57364333 -0.00454203 -0.00035409 -0.00070286
N 12.52577775 22.59925623 10.56206976 0.00378075 -0.00678467 0.00603850
N 11.35365607 25.12406633 15.54448173 -0.00364878 0.00304243 -0.00794632
N 14.15486029 20.51916735 17.04701182 0.00214981 0.00004920 -0.00201112
N 13.68194401 27.56066439 12.33934780 -0.00218991 -0.00134932 0.00037518
N 11.34282353 24.57180089 19.48166263 -0.00154274 -0.00364728 0.00061343
N 12.46368022 23.58490212 24.26807968 -0.00038767 -0.00441965 -0.00097121
N 13.03993861 28.57829284 25.96591325 -0.00324217 0.00624352 0.00386637
N 14.60673136 19.97763515 21.49257592 -0.00164112 0.00122575 -0.00780337
N 11.99269302 22.42354976 19.86766257 -0.00194252 -0.00036460 -0.00172897
N 11.24244199 25.57458786 24.53011041 -0.00342961 0.00224134 0.00332667
N 14.31265663 20.66017360 26.11361222 -0.00721483 0.00028439 -0.00038720
N 12.91952327 27.55787402 21.69374775 -0.00071263 -0.00835000 -0.00419412
N 14.79607640 5.46345201 0.91572477 0.00207173 -0.00034929 0.00316668
N 16.21396369 3.97329210 5.75690043 -0.00468104 0.00017681 -0.00102499
N 16.78949189 9.00688879 8.11026255 -0.00040503 0.00235865 -0.00143243
N 18.07809463 0.64553452 3.26672628 -0.00355912 0.00099777 -0.00428654
N 16.44268754 3.74680488 1.32732937 0.00317935 0.00488185 -0.00284490
N 15.12635383 6.02800107 5.75030431 0.00390543 0.00455821 0.00617625
N 18.15637141 1.17224858 8.02651919 -0.00039028 -0.00152987 -0.00245494
N 17.13406180 8.35507309 3.09449201 -0.00203765 0.01438373 0.00485962
N 14.91973024 5.21711585 10.58028736 0.00649725 0.00335744 -0.00235442
N 16.08694380 3.76027565 14.77765307 -0.00018967 -0.00246844 -0.00148336
N 16.41281822 9.01460338 17.06523163 -0.00259012 -0.00558639 0.00385568
N 18.26326709 0.76609032 12.86978070 0.00008985 -0.00317584 0.00657447
N 16.17256064 3.31495343 10.48549362 -0.00150786 0.00295402 0.00164315
N 15.29318871 5.86385549 15.12493977 0.00097826 0.00007932 0.00326591
N 17.95008079 1.11467230 17.08916631 -0.00310353 0.00612453 -0.00010642
N 16.91113348 8.47455979 12.31056683 0.00466861 -0.00082499 -0.00078523
N 15.00941503 5.92024979 18.90715378 0.00204057 -0.00111877 0.00024353
N 16.48617464 4.18746168 23.59650807 0.00281767 0.00036763 -0.00147630
N 16.74611537 9.08379686 26.36432643 -0.00339855 0.00470442 0.00222876
N 17.40861907 0.91832011 21.59807124 -0.00603706 0.00103190 -0.00515007
N 15.84996760 3.85376020 19.51356776 -0.01066599 -0.00403634 -0.00101986
N 15.37402935 6.15978272 24.10246440 0.00415568 -0.00039690 -0.00354606
N 18.03227011 1.30070602 26.05799186 -0.00521629 -0.00169908 -0.00334609
N 16.62257891 8.56498641 21.30530144 -0.00346781 -0.00182663 0.00000971
N 14.88793434 14.99980656 1.27207589 0.00148121 -0.00385393 0.00427955
N 16.65118327 13.93458921 5.70691315 -0.00257644 0.00350777 0.00265139
N 16.88771567 18.79045383 7.84230402 -0.00356251 -0.00053263 -0.00034443
N 18.31069485 10.29324171 3.40418274 -0.00569258 0.00526028 0.00687668
N 15.83532145 12.87694608 1.44023490 0.00323649 0.00107674 -0.00470675
N 15.38761678 15.93630765 6.02471596 0.00229669 -0.00270107 0.00168875
N 18.14039543 10.87002005 7.79575124 0.00005182 -0.00092302 -0.00454617
N 17.25354037 18.05720688 2.96329320 -0.00210338 0.01022005 0.00102062
N 14.75111143 14.95222407 10.32322788 0.00992710 -0.00518382 -0.00121611
N 16.19783318 13.84720095 15.21653234 0.00410439 -0.00881002 0.00211566
N 16.41810054 18.68613241 16.82330115 -0.00747061 -0.00275399 -0.00052403
N 18.03601252 10.34573890 12.65444351 0.00150445 0.00764670 0.00651578
N 16.35758232 13.17777436 10.70453803 -0.00660953 -0.00005038 -0.00013248
N 14.95892270 15.84426119 14.89978799 0.00034031 0.00441145 -0.00324723
N 17.68327714 10.85551584 16.83902610 0.00064947 0.00021563 -0.00115605
N 17.02859218 18.22164194 11.81352452 -0.00213433 0.00380576 -0.00316704
N 14.77634570 15.18666986 19.66378013 -0.00656876 -0.00362531 0.00756314
N 16.32399329 13.71916019 24.23007835 -0.00154729 0.00365894 -0.00028546
N 16.69221411 18.42682668 26.18188379 0.00831322 0.00207513 0.00164804
N 17.54534350 10.59280285 21.78421392 0.00344183 0.00477775 -0.00258353
N 15.96425617 13.17385312 19.79236581 -0.00301383 -0.00086539 0.00644996
N 14.96003655 15.58886320 24.18100887 0.00321950 0.00598761 0.00315177
N 17.85027052 11.01902486 25.87306921 -0.00566622 0.00368914 0.00570062
N 17.14844700 17.81169976 21.43631593 0.00090999 -0.00186016 0.00077395
N 14.76930610 24.63195325 1.32555736 0.00023865 0.00205640 -0.00020843
N 16.12413330 23.05432880 5.79322497 0.00190516 0.00003823 0.00277122
N 16.96965230 28.05070516 8.20335973 -0.00548329 -0.00450117 -0.00549249
N 18.15214964 20.18630109 3.19748705 -0.00710796 0.00584940 0.00288372
N 16.09742111 22.83973329 1.54279294 -0.00296130 -0.00239146 -0.00562636
N 15.15481132 25.04191860 6.19341380 -0.00756731 -0.00294645 -0.00464416
N 18.09128698 20.66711844 7.73053283 -0.00524210 0.00566084 0.00374155
N 16.89970141 27.37668141 3.20966914 -0.00340785 0.00076416 0.00274823
N 15.28268347 24.78218149 10.20747458 -0.00569480 -0.00158287 0.00592068
N 15.94872081 23.30639998 15.01220600 -0.00303775 0.00456988 0.00269191
N 16.67300123 28.06841486 17.23407883 0.00267696 0.00263038 0.00174598
N 18.21749977 20.01067848 12.62459555 0.00076743 -0.00025165 -0.00279302
N 16.20574241 22.74045696 10.67417179 0.00078046 0.00017657 -0.00832166
N 14.92506615 25.31140987 15.46590061 -0.00499595 -0.00551855 -0.00160061
N 17.92666293 20.46638297 16.65299966 0.00062146 0.00126611 0.00720851
N 17.19310658 27.60166478 12.20450881 -0.00063212 0.00097923 0.00000768
N 14.41259856 24.68136490 19.57645136 -0.00094567 -0.00335020 0.00231972
N 16.18542744 23.54307403 24.02818138 -0.00209605 -0.00357191 -0.00349105
N 16.92189013 28.16587644 26.17937111 0.00366551 0.00053840 0.00016616
N 17.84691199 20.06306635 21.49224251 -0.00521225 -0.00201373 0.00014678
N 15.97149016 23.00195455 19.64011882 -0.01137231 -0.00128125 -0.00613359
N 15.07538578 25.52252857 24.48187053 -0.00225401 -0.00076854 0.00259812
N 17.93639294 20.33069613 25.89197867 0.00071108 0.00060098 -0.00671922
N 16.76824481 27.61949617 21.20342286 -0.00415194 -0.00425215 -0.00377983
N 18.67521657 5.37387332 1.18010440 -0.00439028 0.00046305 -0.00307570
N 20.14240097 4.15740502 5.88023870 0.00275920 0.00877604 -0.00825078
N 20.50569806 9.07377429 7.84698127 -0.00786865 -0.00319915 0.00149979
N 21.67609017 0.60699776 3.29788297 -0.00101178 -0.00012740 -0.00266004
N 19.97314460 3.59090585 1.60714276 0.00614341 0.00172031 0.00320232
N 18.68906974 5.95621794 6.12849849 -0.00519807 0.00633722 -0.00858364
N 21.86927915 1.15593252 7.75375997 -0.00176131 -0.00217322 -0.00186384
N 20.72083814 8.04070498 3.02398706 0.00198288 0.01320756 0.00295003
N 18.71814725 5.32053865 10.64250388 -0.00060907 0.00557491 -0.00231680
N 20.26988618 4.05886197 14.89656177 0.00161411 0.00376628 0.00357768
N 20.58639931 8.90570941 17.00652848 0.00188870 0.00010567 0.00573817
N 0.14053664 0.46910928 12.20463226 0.00567951 0.00893193 -0.00059287
N 20.12300602 3.34479213 10.59088775 -0.00658299 0.00019648 0.00416281
N 18.92574360 5.95102939 15.03896195 0.01082340 0.00242223 -0.00114519
N 0.08858073 1.28778932 17.07827460 -0.00246370 0.00661720 -0.00516335
N 20.28240984 8.41781786 12.14164622 0.00134985 -0.00052294 -0.00336271
N 18.38819773 5.48417708 19.11319370 0.00530612 -0.00217495 0.00201042
N 20.17116065 4.43402917 23.86613966 -0.01384282 0.00195075 -0.00402362
N 20.22355272 9.10856189 26.06528340 0.00634922 0.00631909 0.00327476
N 21.19625239 0.80678002 21.47808601 0.00170509 -0.00479724 0.00304406
N 19.52161599 3.54010324 19.77592635 -0.00420067 0.00356090 -0.00501481
N 18.83531802 6.20135964 24.33500578 -0.00080732 -0.00757567 0.00179362
N 21.76884795 1.49850276 26.06599331 -0.00380724 0.00844615 0.00327357
N 20.11741760 8.30377239 21.47074089 0.00049140 0.00114672 0.00474594
N 18.89494748 15.10960236 0.68023344 0.00076818 0.00254515 -0.00090961
N 19.86462714 13.74715239 5.38393744 0.00188621 0.00335983 0.00385738
N 20.80978048 18.61964781 8.06498671 -0.00175595 -0.00014979 -0.00494019
N 21.39781809 10.18772599 3.58460535 0.00123629 -0.00082538 0.00020766
N 20.02972056 13.27146734 1.32787135 0.00000233 -0.00108633 0.00117734
N 19.10302705 15.93935380 5.78493132 0.00112682 0.00619230 -0.00330460
N 21.62282402 11.07739526 7.48618557 0.00116911 0.00000710 0.00160978
N 20.77091401 18.05426741 2.79996263 0.00327820 0.00304881 0.00100158
N 18.63385250 15.13491621 9.87802179 -0.00378730 0.00669197 -0.00607549
N 19.77766719 13.99862946 14.79062236 -0.00106529 0.00507904 -0.00108492
N 20.31998591 18.26772013 16.72504684 -0.00027578 0.00026429 0.00135027
N 21.63884979 10.36062738 12.22824773 0.00670718 0.00560984 -0.00094314
N 19.65019794 13.14034570 10.38520934 -0.00190644 0.00008093 0.00177876
N 18.57315440 16.03364326 14.96524073 -0.00354609 -0.00357494 -0.00127491
N 21.62167642 10.97322187 16.71314742 -0.00082481 -0.00262173 0.00058273
N 20.43904891 18.11553699 12.20358727 -0.00246766 0.00110020 -0.00044492
N 18.36718680 15.00743059 19.30369516 -0.00110915 0.00484052 0.00401546
N 20.15278855 13.70884024 23.40758169 -0.00655754 0.00065019 0.00025140
N 20.51925033 18.14336388 26.38833788 0.00335810 0.00469319 -0.00267458
N 21.57316941 10.12075367 21.32708207 -0.00423705 0.00312332 -0.00556457
N 19.69927560 13.12116794 19.95784908 0.00543345 0.00355506 0.00591894
N 18.93514773 15.51145240 24.33721602 -0.00221726 0.00120524 0.00445227
N 21.39492251 11.12970663 25.88007338 0.00522054 -0.00026471 -0.00292676
N 20.19708170 17.84961379 21.07894079 -0.00573052 0.00162649 0.00817245
N 18.51030936 24.70959861 0.93044730 0.00056701 -0.01285263 -0.00217989
N 20.14507477 23.31495810 5.32919160 0.00995730 0.00517805 0.00053648
N 20.53678563 28.06339449 7.79054127 -0.00035822 -0.00360573 -0.00410592
N 0.20700990 19.73237246 3.47828829 0.00711785 0.00194605 0.00521406
N 19.93917201 23.12475210 1.57140733 -0.00301518 0.00684843 -0.00319697
N 18.83371231 24.85970152 6.26551047 0.00321958 -0.00979417 -0.00500498