1728
Time=98999.99999996 pbc="T T T" Lattice="22.34562056 0.00000000 0.00000000 0.00000000 28.59940591 0.00000000 0.00000000 0.00000000 27.28361523" energy=-10386.58821046 virial="11.39517421 -4.50832814 -31.82052667 -4.50832814 18.54184037 -1.57322240 -31.82052667 -1.57322240 74.34632143" stress="0.00302821 -0.00033986 -0.00187824 -0.00033986 0.00364829 0.00004163 -0.00187824 0.00004163 0.00703161" Properties=species:S:1:pos:R:3:vel:R:3
N 0.28905818 5.19870616 1.03998260 -0.00557450 -0.00268366 -0.00579516
N 1.62062473 3.98362157 5.56087197 -0.00050918 0.00094003 -0.00408185
N 2.22867274 8.95948863 7.54430007 -0.00043228 0.00377893 -0.00011637
N 3.40024927 0.21708782 4.04973570 0.00626596 -0.00444418 -0.00347440
N 1.57548693 3.38960986 1.62814181 -0.00220608 0.00759635 0.00517641
N 0.45874801 6.00941244 5.94666999 0.00000662 0.00565455 0.00094322
N 3.07831271 1.02317384 7.79974675 -0.00056904 -0.00079483 -0.00175138
N 2.66399417 8.32028906 3.14982972 -0.00248915 0.00255358 -0.00217846
N 22.33351066 5.68423580 9.64244126 0.00252073 0.00270148 -0.00087605
N 1.77741555 4.23959443 14.07434745 -0.00382732 0.00014030 -0.00001045
N 2.12932067 8.91072093 16.71391329 -0.00511710 -0.00158693 -0.00675068
N 3.52304492 0.44901605 12.42065388 0.00446035 0.00329087 0.00123093
N 1.23812243 3.78440161 10.17644526 -0.00457187 -0.00887236 0.00313322
N 0.54366656 6.09102732 14.79600284 -0.00148774 -0.00474082 0.00316943
N 3.33447374 1.71926485 16.80553784 -0.00058522 -0.00128159 0.00271329
N 2.34522729 8.50334528 11.86952254 -0.00016155 -0.00240114 -0.00730434
N 0.66641299 5.69438941 19.04386576 0.00209141 -0.00578769 -0.00447538
N 1.85944571 4.27220022 23.69737625 -0.01127271 0.00281719 0.00165607
N 1.69003804 9.02625967 26.08089359 -0.00515204 0.00373665 0.00068230
N 3.64730260 0.87055428 21.94368182 -0.00615988 0.00187500 0.00953173
N 1.35294643 3.55302049 19.45981011 -0.00060004 0.00113168 0.00103723
N 0.20640787 5.96429790 24.05450222 -0.00130443 0.00175738 0.00364855
N 3.24137545 1.14601347 26.08793296 -0.00346370 0.00549785 0.00676321
N 2.13328954 8.66936471 21.39802250 0.00527510 -0.00326027 -0.00463948
N 0.23705421 14.91741385 0.66274281 0.00261587 0.00276464 -0.00093136
N 1.77673251 13.71466822 5.25097947 -0.00185397 -0.00465816 -0.00364108
N 1.77530925 18.26876441 7.78296745 -0.00040035 0.00826124 -0.00327291
N 4.05313395 10.22032125 3.14974853 -0.00104983 -0.00008882 -0.00252322
N 1.45571630 12.93511605 1.13784699 0.00321435 0.00273507 0.00029430
N 0.42652382 15.54284803 5.67304586 0.00035351 -0.00123268 -0.00389746
N 3.44537650 10.97042652 7.36480376 -0.00450999 0.00191786 0.00034045
N 2.30709973 17.62471012 3.09462511 -0.00258468 -0.00868807 0.00017330
N 0.16258839 14.52800581 9.62149925 -0.00286959 -0.00211352 -0.00026896
N 1.67846709 13.92480041 14.83311167 0.00062817 0.00537096 -0.00426563
N 1.90263670 18.20489662 17.57635708 -0.00873296 0.00034867 -0.00195364
N 3.80766656 10.06945290 12.50466055 -0.00015137 0.00004960 0.00180310
N 1.69171540 12.96360667 10.43268238 -0.00076798 0.00838251 -0.00421680
N 0.25398119 15.79086497 14.99081288 -0.00097315 -0.00113724 -0.00951048
N 3.25254621 10.87924247 16.80814683 -0.00049600 -0.00419441 -0.00042495
N 2.02635582 18.03794635 12.22590627 0.00374169 -0.00916864 0.00198602
N 22.22415373 14.80524812 18.93513079 0.00875551 0.00078535 0.00144458
N 1.58737731 14.15908995 23.46045591 -0.00411946 -0.00044914 -0.00287632
N 1.79642263 18.46050469 25.98806074 0.00201438 0.00287698 0.00215104
N 3.31101926 10.56568516 21.89420459 -0.00347669 0.00119869 0.00142719
N 1.15201789 12.87412866 19.26233817 0.00026861 -0.00026256 -0.00202198
N 0.10040447 15.73462445 24.04752985 -0.00221435 0.00050637 -0.00287152
N 3.15211530 10.81718584 25.72455568 0.00057623 0.00454042 -0.00314272
N 1.84099690 17.83455296 21.54854582 -0.00171928 -0.00122365 -0.00283316
N 0.82388077 24.21740443 1.15509564 0.00462914 0.00665366 -0.00176778
N 1.83625453 23.14571758 5.88215097 0.00071614 -0.00077524 0.00094549
N 2.15320614 27.64196509 8.59355385 0.00409916 -0.00062631 0.00193355
N 3.88434918 19.27835245 3.03328194 0.00306371 0.00128157 0.00547589
N 1.80025786 22.08662364 1.46453272 -0.00085300 -0.00436401 -0.01345352
N 0.35589665 24.95789290 6.13211788 -0.00299362 -0.00410198 -0.00268375
N 3.07779623 20.20499922 7.59310889 0.00226823 -0.00717265 0.00201902
N 2.26670183 26.99729444 3.19955543 0.00911432 0.00101127 0.00944603
N 0.09980529 24.38177518 10.39101299 0.00465937 0.00416724 -0.00268579
N 1.65064944 23.29546883 14.82010243 -0.00043771 -0.00073696 -0.00222923
N 2.23987974 28.38541118 16.98107365 0.00574838 0.00196523 -0.00500800
N 3.37954002 19.66515323 13.07101713 -0.00376238 -0.00703017 -0.00403436
N 1.54283787 22.57238063 10.68383358 -0.00032477 0.00413979 0.00208176
N 0.61049193 25.41019950 15.20929115 0.00297573 -0.00028125 0.00264423
N 3.04346806 20.10418090 16.83282929 -0.00009932 0.00476417 0.00320899
N 2.27288824 27.20413220 12.21534509 0.00261412 -0.00127146 0.00454247
N 0.01737963 24.42961363 19.22707068 -0.00293566 -0.00618319 0.00050572
N 2.07676152 23.00009574 23.95343356 0.00065504 -0.00198058 0.00477615
N 2.08419468 27.91975859 26.94010828 -0.00328817 -0.00081864 -0.00178085
N 3.54883282 19.42517086 21.43063808 0.00013246 0.00243172 0.00379743
N 1.39481062 22.52230419 19.74543917 0.00049587 -0.00624019 -0.00317880
N 0.57437825 24.86440848 24.09055162 0.00498951 -0.00045206 -0.00195860
N 3.53466207 20.09713448 25.94685085 -0.00188077 -0.00167386 -0.00164051
N 2.54647870 27.63180377 21.34868814 -0.00037405 0.00708890 0.00203188
N 4.06608989 5.18468274 1.13388849 -0.00228716 -0.00480265 0.00164269
N 5.06436432 3.97017689 5.78691713 0.00313839 0.00129753 0.00869484
N 5.55267169 8.94935023 8.23396169 -0.01271241 0.00164978 -0.00228701
N 6.93264682 0.30037321 3.53595678 -0.00227126 0.00548668 0.00402317
N 5.25898505 3.30178490 1.33241018 -0.00063298 0.00018440 0.00296626
N 3.87179279 5.80777797 6.25353475 0.00476305 0.00276861 0.00125183
N 7.15980702 1.15175190 7.77190086 -0.00968390 0.00081828 0.00483294
N 6.47893738 8.60286855 3.04416094 -0.00353144 0.00172597 -0.00413873
N 4.08321771 5.51867475 10.09978401 -0.00236587 -0.00624154 0.00043072
N 5.58530614 3.77594937 14.99594819 0.00594048 0.00244324 0.00397662
N 5.85525432 9.12538777 16.97414592 -0.00004484 -0.00455413 -0.00104220
N 7.16336697 0.78328469 12.75867872 -0.00061001 -0.00300010 -0.00348423
N 4.96354236 3.44462070 10.71908441 -0.00272113 -0.00223024 -0.00237259
N 4.80694730 5.90488638 15.14411108 -0.00050709 -0.01166090 0.00352818
N 6.95123696 1.66696060 17.15321885 0.00112184 0.00063466 -0.00245727
N 6.08921629 8.26370901 12.17088975 -0.00549497 0.00455044 -0.00102997
N 3.55642580 5.96143249 19.51875061 0.00106089 -0.00068847 -0.00021377
N 5.15093238 4.34411368 24.08807418 0.00460647 0.00115010 0.00125066
N 5.65274916 8.72019922 26.82687292 0.00269830 0.00424724 0.00332765
N 7.23119406 0.70707833 21.65899793 -0.00428698 0.00465115 -0.00179575
N 4.56260262 3.91353017 19.85355467 0.00039408 -0.00480795 0.00440510
N 3.90306243 6.20498428 24.51601885 -0.00207459 -0.00302244 -0.00290120
N 6.78103498 1.27716853 25.70271901 -0.00290358 -0.00252719 -0.00223454
N 5.85647813 8.61958966 21.04480459 0.00566588 0.00410270 0.00744507
N 3.92164538 14.99439337 1.05183167 0.00284060 0.00361395 -0.00328457
N 5.34275379 13.73195724 5.44688722 -0.00353249 -0.00048538 -0.00316956
N 5.46544764 18.34783680 7.85979049 -0.00201258 -0.00054120 0.00105182
N 7.61453446 10.53857875 3.95059805 -0.00129863 0.00084422 -0.00105085
N 5.30114847 13.01597068 1.08711678 0.00329577 -0.00431515 0.00420667
N 3.90750014 15.41192535 6.06958469 0.00441193 0.00010507 -0.00565328
N 6.71055960 10.87448852 7.75897705 0.00221589 -0.00730465 0.00128549
N 6.45478027 17.99707443 3.11776955 -0.00115000 -0.00655595 0.00155721
N 3.97960862 14.72629590 10.47314695 0.00944988 0.00199710 -0.00791424
N 5.45859075 13.65797099 14.89651673 -0.00312756 -0.00403300 0.00636468
N 6.12734934 18.26153879 17.19707050 0.00034391 0.00393034 -0.00022457
N 7.53767058 10.01298951 12.54786791 0.00530765 -0.00843383 -0.00181560
N 5.41210308 12.96828269 10.89502936 0.00356087 -0.00674002 -0.00530549
N 4.18153900 15.50181688 15.44288722 -0.00208645 0.00400139 0.00182290
N 7.65749633 10.64574387 16.53310628 0.00810354 -0.00134926 -0.00434845
N 5.78288279 17.69703551 12.22279561 -0.00274133 0.00227073 -0.00087838
N 4.30942451 14.89437811 19.48235377 0.00378481 -0.00097815 -0.00461957
N 5.27689066 13.53580740 23.77745150 0.00264601 0.00698361 -0.00007982
N 5.96015336 18.37996943 26.44603441 0.00042023 -0.00157175 0.00344163
N 7.04862654 10.39128939 21.57510730 -0.00017005 -0.00332041 0.00554723
N 5.59720379 12.95089445 19.29653808 -0.00092895 0.00472913 0.00032348
N 4.38143617 15.45639827 24.75250283 0.00240892 -0.00482279 0.00252449
N 6.64218171 10.35808998 25.63097257 0.00798132 -0.00183178 0.00326641
N 6.18346936 17.73804370 21.25688841 -0.00232600 -0.00176772 0.00153038
N 4.00777131 23.97014090 1.44936279 -0.00347235 0.00187479 -0.00230057
N 5.18896180 22.67506409 6.04664567 0.00339468 0.00037707 -0.00129930
N 6.18915912 27.68593749 8.01660920 0.00568026 0.00329950 -0.00098137
N 7.90742890 19.69237049 3.77462876 -0.00723320 0.00299402 -0.00286436
N 5.52187311 22.25635232 1.64344102 -0.00769437 0.00778316 0.00071909
N 4.25429363 24.86170526 6.21428643 -0.00310680 -0.00442614 -0.00311133
N 7.19163463 19.92560599 7.92480893 0.00489993 -0.00029884 -0.00908209
N 5.57893255 27.00792365 3.29337013 -0.00090069 -0.00434491 0.00435341
N 3.88139416 24.22039085 10.29093952 0.00060670 -0.00124578 0.00186711
N 5.26698284 23.48691059 15.01781518 0.00426156 -0.00175570 0.00004835
N 5.71157239 28.30012378 17.13121088 -0.00071847 0.00368590 -0.00232579
N 7.11933978 19.55994204 12.20668218 -0.00435771 -0.00277204 -0.00714686
N 5.29187169 22.43548483 10.88239487 0.00292793 0.00123597 -0.00154777
N 4.00510938 25.41698730 15.10413954 0.00155543 0.00671358 -0.00360938
N 6.94277597 20.42810966 16.93789464 0.01407513 0.00077228 0.00825913
N 5.83834281 27.57665418 12.17553385 -0.00167256 -0.00379279 -0.00004336
N 3.77026192 24.63597274 19.70459613 0.00634828 0.00413137 0.00195354
N 5.56450342 23.23332467 24.17935450 -0.00163386 -0.00816340 0.00569232
N 5.99129559 27.74126594 26.19944005 -0.00086574 0.00084283 0.00159815
N 7.06088815 19.79176900 21.86411603 0.00381400 0.00215810 0.00110785
N 5.15254779 22.72178565 20.02426396 -0.00754330 -0.00544668 -0.00543827
N 4.26037032 25.06490645 24.50311288 -0.00300311 -0.00376104 -0.00566875
N 7.18378587 20.22445953 25.73791471 -0.00553056 -0.00203904 0.00583128
N 5.67981730 27.44017758 21.44000198 -0.00472139 0.00513554 0.00674646
N 7.70426644 5.54118327 1.14905305 -0.00277097 -0.00069774 0.00258301
N 8.84675302 3.83592415 5.80617288 -0.00081001 -0.00432462 -0.00192362
N 9.26406049 8.41396086 8.36216512 0.00131020 0.00398941 -0.00200746
N 10.41291913 0.73433952 3.54960697 -0.00615999 0.00318742 -0.00102582
N 8.58831477 3.44854175 1.53712090 -0.00153814 0.00226781 0.00268707
N 7.60821570 5.81845888 6.28402213 -0.00112964 -0.00218792 -0.00184279
N 10.92846989 0.94011939 7.86646624 0.00031364 0.00306446 -0.00228772
N 9.76229483 8.23068203 3.11870228 -0.00085835 0.00446787 0.00015359
N 8.16224644 5.62045295 10.10451631 0.00175730 0.00007090 -0.00538803
N 9.02110997 3.80851083 14.43866040 -0.00468191 0.00116106 0.00097957
N 9.72702500 8.71336100 16.78378990 0.00474340 0.00221246 0.00278717
N 10.92583481 0.54148982 12.66491055 -0.00524545 0.00518802 0.00004495
N 8.98418207 3.50597688 10.63779201 0.00562688 0.00183829 0.00299953
N 7.93293937 5.78596096 15.00702992 0.00123200 -0.00168164 -0.00077708
N 10.21716170 1.41210356 16.75592433 -0.00742774 -0.00309856 -0.00029728
N 9.96188067 8.14268312 12.32360618 -0.00453491 -0.00469041 0.00426156
N 7.68788465 5.86258516 19.07048042 0.00932996 -0.00454442 0.00450222
N 8.94271043 4.22360816 23.81378779 -0.00266527 0.00116315 -0.00276686
N 9.39865756 9.22012814 26.10253743 0.00043739 0.00579832 0.00723799
N 10.74849120 0.71576105 21.88138455 0.00801028 0.00147862 0.00937600
N 8.30951352 3.76756907 19.63063250 -0.00176312 -0.00061418 -0.00212066
N 7.65812001 6.09411428 24.10110450 0.00265994 0.00053598 -0.00352071
N 10.57048515 1.25173995 26.00150587 -0.00186056 -0.00205135 0.00043543
N 9.50623496 8.58195980 21.37931713 0.00245179 -0.00462710 -0.00282883
N 7.69837773 15.01719559 1.22560093 -0.00400407 0.00544995 -0.00191853
N 9.19711087 13.72891970 5.69971221 0.00001948 0.00486323 0.00114869
N 9.66527988 18.60268815 8.38681980 0.00466829 0.01284451 0.00201210
N 11.35073704 9.95255234 3.58513027 -0.00595714 0.00073599 -0.00783153
N 9.17908166 13.22206173 1.67000304 -0.00089268 -0.00562914 -0.00104810
N 7.97096138 15.58215662 6.02995922 0.00445565 -0.00254992 -0.00405478
N 10.29629884 10.38199619 7.59600840 0.00048947 -0.00232279 0.00149221
N 10.20763402 18.01058106 3.64891017 0.00054651 -0.00105428 0.00600339
N 7.96789376 15.09424386 10.22069780 0.00220720 -0.00097809 -0.00586938
N 8.84684422 13.54323822 14.78426446 -0.00513002 0.00513190 0.00839616
N 9.42759798 18.45394895 17.51175990 -0.00274499 0.00120351 0.00239984
N 10.97219572 10.21628214 12.51592782 -0.00084489 0.00084704 0.00384880
N 8.96404747 12.97474031 10.47746742 -0.00012990 0.00322701 0.00246516
N 7.79734863 15.50843778 14.88987861 0.00014122 0.00507702 0.00143767
N 10.67901836 10.72694477 16.67968632 0.00233714 0.00601616 0.00389856
N 9.65496336 17.93057480 12.43449851 0.00802588 0.00117608 0.00010415
N 7.99530453 14.95609658 19.35717551 -0.00343015 -0.00200054 0.00182887
N 9.07682968 13.81748914 23.94660250 0.00143634 0.00359223 -0.00169278
N 9.54860416 18.57951753 26.28885152 -0.00119883 -0.00003839 -0.00878680
N 11.06299379 10.26518676 21.65421338 -0.00115134 0.00477663 0.00164341
N 9.05187890 12.91302964 19.60213908 -0.01031669 0.00728291 -0.00455941
N 7.81502691 15.70559788 24.52610709 -0.00193306 -0.00012296 0.00002511
N 10.67733243 11.14786570 26.03023280 0.00012569 0.00985418 -0.00382251
N 9.53512796 17.93348352 21.46950640 0.00666071 0.00323792 0.00020586
N 7.72476045 24.26026345 1.25905087 -0.00048358 0.00170441 -0.00274019
N 8.90370478 22.66234064 5.63943833 -0.00163487 0.00886197 -0.00206585
N 9.39253392 27.77319610 8.26603877 -0.00253181 0.00070772 0.00195231
N 11.42277487 19.94518380 3.65151437 -0.00184653 -0.00564514 0.00308383
N 9.08151871 22.34011944 1.38375004 0.00256313 -0.00307063 -0.00079869
N 7.87849139 24.64826388 6.33044724 0.00592913 0.00541231 0.00323877
N 11.00196889 20.37571353 7.70731668 0.00406808 0.00074723 0.00619178
N 9.51105254 27.20357590 3.12308110 -0.00113880 0.00013469 -0.00419666
N 7.61670815 24.49556155 10.17096623 0.00950866 0.00305196 -0.00141463
N 8.99644178 23.11634849 14.83891594 0.00357125 -0.00217884 -0.00130187
N 9.28667798 27.85772878 17.11206829 0.00023139 0.00297312 0.00123462
N 10.76502327 19.83844456 12.79534506 0.00264550 0.00025319 0.00319966
N 8.93905278 22.59824124 10.54590718 0.00612024 -0.00659123 -0.00199732
N 7.71359704 25.00420445 15.05208381 -0.00070811 -0.00612663 -0.00361538
N 10.69166709 20.33007362 17.05400163 -0.00185546 0.00129574 0.00264417
N 9.67562520 27.17751640 12.58280272 -0.00705787 0.00337378 0.00349459
N 7.31317994 24.81818361 19.07191696 0.00303412 -0.01073727 0.00234739
N 9.10314891 23.28999579 23.99450637 -0.00533997 -0.01099060 -0.00099311
N 9.74943305 27.73354416 26.29054664 0.00126255 -0.00779290 -0.00154356
N 10.90502007 19.79429449 21.89117085 -0.00462303 -0.00312698 0.00355619
N 8.76586579 23.18284375 19.51114736 -0.00124585 0.00556108 -0.00346619
N 7.71494930 25.22423708 24.09599421 0.00116462 0.00233847 0.00298804
N 10.58556139 20.59293403 25.76446143 -0.00315319 0.00207003 0.00486618
N 9.55447162 27.35541538 21.52140331 0.00128320 0.00208943 -0.00242067
N 11.28061498 5.36284722 1.14525811 -0.00295358 0.00365982 0.00343418
N 12.78219758 4.33175756 5.48365263 -0.00260295 -0.00275547 -0.00300485
N 12.81462822 8.89912064 7.37536365 0.00077654 -0.00388796 -0.00576005
N 14.79471411 0.97156121 3.86975658 0.00273493 0.00584706 -0.00706297
N 12.38342505 3.38188903 1.44618204 -0.00531015 -0.00045609 0.00399026
N 11.09390786 5.98938957 5.89151037 -0.00271319 0.01200314 -0.00455700
N 14.27563148 1.34274915 7.84024441 0.00567106 -0.00152871 -0.00346229
N 13.59230253 7.76008518 2.97679434 -0.00625912 0.00102146 -0.00474192
N 11.39623358 4.99302948 9.96132996 0.00453024 0.00083089 0.00303021
N 13.14087122 3.86722244 15.08739038 0.00158746 -0.00467169 0.00055428
N 13.43779452 9.15955852 16.81239050 0.00111641 -0.00356489 -0.00522810
N 14.60304104 0.61175851 12.48511725 -0.00036082 -0.00069398 0.00282446
N 12.52592936 3.01758724 10.35188422 -0.00542740 0.00327548 -0.00402433
N 11.63700588 5.63003355 15.19813572 0.00186984 0.00330632 0.00331277
N 14.45805500 0.96895688 17.19735426 0.00192721 -0.00102433 0.00316890
N 13.59393393 7.82708422 12.04164703 -0.00355464 0.00121222 0.00179223
N 11.75127215 5.58412716 19.47216004 0.00068924 0.00219858 0.00000283
N 12.73543919 4.06294019 23.94480363 -0.00377911 0.00075568 0.00754239
N 13.11408685 8.58517054 26.22877961 0.00561365 -0.00431870 -0.00296652
N 14.79906611 0.67894509 21.71742740 -0.00319973 -0.00086676 0.00365587
N 12.13108581 3.34819046 19.79731016 -0.00005848 -0.00522682 0.00444486
N 11.39507190 5.95569994 24.28379669 0.00287874 0.00076380 0.00380869
N 13.77987130 1.11689074 25.78021728 0.00166003 -0.00719075 -0.00150188
N 13.32514577 8.20954102 21.29954700 -0.00977651 -0.00076509 -0.00009072
N 11.72514418 14.98088256 1.05263831 0.00238573 0.00278142 -0.00141552
N 12.73521916 13.69024907 5.72545901 -0.00261688 0.00816339 -0.00147571
N 13.91228532 18.03631940 7.92090325 -0.00816555 0.00456526 0.00700867
N 14.40729579 9.79277422 3.39449975 -0.00641049 0.00399691 -0.00168300
N 12.90436093 13.05724429 1.55470350 -0.00429824 0.00541839 0.00189115
N 11.67402202 15.61228066 6.46005262 -0.00380983 -0.00321702 -0.00310084
N 14.26366611 10.68949933 6.95026032 0.00143474 -0.00428587 0.00313950
N 13.82347724 17.78700714 3.16021644 0.00073458 -0.00448596 -0.00147944
N 11.55037489 14.99722434 10.25267067 -0.00183072 -0.00087715 0.00569595
N 12.42568325 14.01302650 14.32255389 0.00114946 0.00050479 -0.01073064
N 13.13781491 18.27104896 17.13922808 0.00237746 0.00469207 0.00056531
N 14.57419252 9.89856030 11.99492537 0.00797770 -0.00305593 0.00161211
N 12.53521116 12.91585576 10.34107443 -0.00048535 0.00037483 0.00273662
N 11.07802658 15.65838064 15.23727559 0.00397994 -0.00116249 0.00179174
N 14.42652787 11.25613737 16.97701372 0.00493040 0.00938871 0.00747040
N 13.13154815 18.06619988 12.20465543 0.00104904 0.00245813 0.00026503
N 11.29325106 15.09665277 19.08560094 0.00034956 0.00014206 -0.00175226
N 12.57961692 13.56297829 23.67041336 -0.00051925 0.00553666 0.00902889
N 13.42808534 18.77668787 25.99778908 0.00003658 0.00402852 -0.00265925
N 14.62825398 10.08663006 21.63782966 -0.00709425 -0.00173201 -0.00575772
N 12.51786103 13.12601814 19.44282959 0.00492454 -0.01072310 0.00004725
N 11.42608777 15.57483144 24.05414168 0.00451898 -0.00047374 -0.00114686
N 14.01248442 10.70398428 25.76364606 -0.00298659 0.00099812 -0.00525036
N 13.06296540 18.05711996 21.39120052 0.00338694 -0.00568583 -0.00052597
N 11.73714233 24.74084674 1.14975923 -0.00012561 -0.00213460 -0.00119994
N 12.83813929 23.44408509 5.85810357 -0.00007223 0.00567319 -0.00016299
N 13.46129498 27.77005448 8.16115800 -0.00724275 0.00248313 -0.00558483
N 15.02251205 19.80374751 3.47408470 -0.00395854 0.00643710 -0.00309515
N 13.04495918 22.76460988 1.36421171 -0.00233502 0.00725025 0.00124614
N 11.38760558 25.32014414 6.01213499 0.00133659 -0.00026264 -0.00120416
N 14.72154960 20.23781202 7.53628334 -0.00692378 0.00453942 0.00638165
N 13.49323002 27.58353509 3.79523566 -0.00074436 -0.00201280 0.00116425
N 11.73798296 24.54022623 10.15062539 -0.00058746 -0.00229397 -0.00199331
N 12.94586649 23.44276495 14.79597414 -0.00229023 0.00310599 0.00072711
N 13.02558945 27.87530216 16.88577888 0.00240987 0.00467806 0.00593591
N 14.68895158 19.87538187 12.31058756 0.00137298 -0.00017569 -0.00050221
N 12.63822789 22.50737989 10.76408127 -0.00706757 0.00278776 -0.00059264
N 11.19980167 24.96976543 15.22169608 -0.00204294 0.00458900 -0.00114222
N 14.34797488 20.13084886 16.46398916 -0.00004033 0.00279067 -0.00391158
N 13.31567938 27.30620437 12.25823917 0.00108163 -0.00358004 0.00170089
N 11.22765274 24.93684239 19.72361888 0.01071553 0.00013021 -0.00200886
N 12.93976034 23.31550832 23.92168007 0.00485630 0.00073501 0.00568423
N 13.76866708 27.50228349 26.66234084 0.00093001 0.00152190 0.00297435
N 14.56607174 19.91372229 21.41933402 0.00136838 0.00125409 -0.00115300
N 12.44644162 22.97405739 19.94225335 -0.00063803 0.00501724 -0.00265242
N 11.38204940 25.05363193 24.34590064 0.00791921 0.00749778 -0.00257445
N 14.61528662 20.65618275 25.63212546 -0.00490827 -0.00425070 0.00418976
N 13.13750256 27.69639925 21.18586240 0.00069919 -0.00326944 -0.00373870
N 15.12469668 5.22998347 0.90341551 0.00249082 0.00040057 0.00065002
N 16.75078950 4.19383024 4.96611643 -0.00054185 0.00616128 0.00219643
N 17.15029668 8.42125328 8.22403075 -0.00675555 -0.00031103 -0.00309488
N 18.51079248 0.64225279 3.33286667 -0.00236510 -0.00104580 0.00607186
N 15.97931074 3.12600257 1.36442613 -0.00144964 -0.00041286 0.00645736
N 15.42444967 5.66353882 6.10436055 0.00830736 0.00199511 0.00368676
N 18.22945311 1.39455105 8.02019603 0.00281218 -0.00160014 0.00166575
N 17.17836396 8.29883712 3.21286968 -0.00139841 0.00449612 -0.00202927
N 15.57355898 5.13018157 9.71743709 0.00620120 -0.00149256 -0.00778842
N 16.54693447 4.10441179 14.62052956 0.00335307 -0.00208260 -0.00140061
N 16.82274935 9.20843008 16.82129957 0.00400905 -0.00391999 -0.00568984
N 18.61345196 0.66470469 12.94533607 0.00534168 -0.00368307 0.00459973
N 16.75244326 3.22678967 10.38489456 0.00847403 0.00036911 0.01036834
N 15.24259766 5.86271124 15.19420460 0.00333234 0.00096128 0.00599881
N 18.00984459 1.03716569 17.01658939 -0.00155844 -0.00143073 0.00267970
N 17.21325253 8.12023828 12.02887439 -0.00429680 -0.00167381 -0.00411324
N 15.22300393 5.19778480 19.39222874 -0.00404586 0.00055273 0.00122634
N 15.96602458 3.94956783 23.85125515 0.00019768 0.00686050 0.00370208
N 16.60307944 9.07996250 26.08018976 -0.00501520 -0.00364941 0.00075190
N 18.66776257 0.87022285 21.45074031 0.00126224 -0.00226929 -0.00212710
N 16.23984985 3.20347633 19.69050055 -0.00103237 -0.00231925 0.00928613
N 15.01771453 6.00668965 24.18081932 -0.00163461 0.00394548 0.00281291
N 18.33981424 1.27048633 25.46067101 0.00121651 0.00599461 0.00176165
N 17.14013595 8.32153591 21.13238491 0.00170727 0.00537019 -0.00135812
N 15.38027415 14.80644130 0.90874450 0.00280051 0.00050728 0.00410001
N 16.50247813 13.40502099 5.38827219 -0.00133053 0.00671177 0.00204321
N 17.40377208 18.23116368 7.88068501 -0.00426608 0.00059483 -0.00440912
N 18.69505133 9.95992195 3.32694508 0.00302156 -0.00761952 0.00807245
N 16.27234239 12.75673336 1.43371506 0.00008409 0.00001239 0.00053334
N 15.50277567 15.42918319 5.97003402 -0.00054115 -0.00136074 0.00868635
N 18.14761109 10.40145866 7.57711482 0.00064196 -0.00161423 -0.00086775
N 17.26759736 17.66582865 3.02303153 -0.00248076 -0.00216504 -0.00055723
N 15.48790205 15.36541112 10.33599060 -0.00766394 0.00802381 -0.00310577
N 16.55639684 13.75635087 14.68491273 -0.00463757 -0.00415389 -0.00171589
N 16.76427743 18.43909510 17.40159714 -0.00192286 -0.00517612 0.00342729
N 17.72704482 10.43102535 12.28309123 -0.00429023 0.00510510 -0.00079307
N 16.44883270 13.26832938 10.55757913 -0.00070186 0.00402770 -0.00302668
N 15.51540089 15.74664384 15.37326544 -0.00277666 0.00509451 -0.00299504
N 18.48465917 10.84422919 16.62288450 -0.00306293 -0.00672738 -0.00684832
N 16.96545164 17.89427261 12.09373741 0.00901040 -0.00089958 -0.00108579
N 15.31121875 15.16860019 19.73885215 0.00514442 -0.00281430 -0.00352431
N 16.65388113 13.94140213 23.82082030 -0.00018164 0.00164400 -0.00042415
N 17.45682911 18.64583609 25.63284720 -0.00176240 0.00251760 -0.00682901
N 18.34784771 10.18726019 21.64370334 -0.00023100 -0.00473178 -0.00121752
N 16.08297758 12.96767939 20.07752025 0.00781291 0.00173119 0.00084446
N 15.04231647 15.68600528 23.94707434 -0.00627025 -0.00105898 0.00228726
N 17.90168214 10.94271709 25.85144710 0.00061039 0.00040358 0.00970687
N 16.92595623 18.36360981 20.88350418 0.00532303 -0.00333273 -0.00257601
N 15.93378810 24.72855830 1.20778579 -0.00684752 -0.00090456 -0.00102989
N 16.32802490 23.13108715 5.37498864 -0.00277447 -0.00278229 0.00083994
N 17.08428537 28.00942079 8.22317773 -0.00538876 0.00096414 -0.00442094
N 18.45091082 19.68669786 3.11670706 0.00449834 -0.00197914 -0.00321738
N 16.69090785 22.66521302 1.35737486 0.00316375 -0.00829485 -0.00079947
N 15.33292672 24.92210069 6.36685379 0.00490557 -0.00303524 0.00631230
N 18.32457369 20.25641318 7.55460172 -0.00833070 -0.00079760 -0.00885773
N 17.01139099 27.57177575 3.15465741 0.00694961 0.00375464 -0.00480775
N 15.07750164 24.60195222 10.39104235 -0.00258510 0.00169290 -0.00271293
N 16.73436619 23.21753939 14.99764712 0.00231274 -0.00502769 0.00165062
N 17.00410251 27.48341633 17.17091580 0.00239913 0.00531788 -0.00602120
N 18.40364851 19.72310951 12.41174682 0.00307487 0.00990990 0.00523862
N 16.19495731 22.59775728 10.79292343 -0.00259773 0.00042485 0.00240809
N 15.29103588 25.03618676 14.95721179 0.00000717 0.00191043 -0.00333227
N 18.02681900 20.21842751 16.63460761 0.00655943 0.00420677 -0.00930517
N 17.08153747 27.69413373 12.26578600 0.00008618 0.00050386 0.00082934
N 14.87580782 24.71528413 19.36148133 0.00015323 -0.00771836 0.00027637
N 16.71160619 23.36861576 23.66298565 -0.00088456 0.00679592 0.00160117
N 16.94564173 28.22588938 26.19473465 0.00090729 0.00059300 0.00125248
N 18.51394287 20.04724426 21.01009803 0.00090834 0.00268757 -0.00294759
N 16.35280385 22.97878775 19.48992357 0.00439437 0.00282424 0.00154141
N 15.42183822 25.21475066 24.11944015 0.01016787 0.00373068 -0.00021558
N 18.46848754 20.77190366 25.44588688 -0.00013755 0.00825848 0.00210942
N 17.95930088 27.26978140 20.86904599 0.00036272 -0.00503626 0.00508950
N 19.14541617 5.41118109 0.85178035 -0.00202865 -0.00077393 -0.00047354
N 20.33890030 4.32588610 5.72375871 -0.00890871 0.00429375 0.00353718
N 20.91460125 8.74748118 8.00487446 -0.00021553 0.00063275 0.00183884
N 22.27205447 0.30797226 3.10940562 0.00873664 -0.00384359 0.00198882
N 20.30352198 3.49303583 1.15915906 -0.00705572 -0.00607886 -0.01109503
N 19.11963514 6.28266619 5.93143259 -0.00350449 -0.00110918 0.00112039
N 22.08078735 1.08851415 7.33904451 -0.00309477 0.00028969 0.00274890
N 21.36194074 8.08212095 2.95005816 -0.00374620 -0.00402252 0.00105903
N 19.13488933 5.27192337 10.50703269 -0.00077301 0.00191271 -0.00059900
N 20.20855222 4.34830189 15.32041106 0.00139677 -0.00102424 0.00715160
N 20.63526329 8.87735650 17.02783935 -0.00268400 -0.00218890 0.00675050
N 22.16161844 0.94083671 12.30735733 0.00230474 -0.00615038 -0.00427765
N 20.25531878 3.26582166 10.61243859 -0.00163265 -0.00313171 0.00135026
N 18.88855292 6.10129160 15.02242536 0.00477610 0.00063932 -0.00525212
N 22.03863475 1.34449489 16.41319645 -0.00165783 0.00377881 0.00613184
N 20.85141897 8.56165207 12.17189815 0.00218083 0.00454242 0.00100674
N 18.92908971 5.42358080 19.30133108 -0.00086055 -0.00326358 0.00012507
N 20.57720573 4.06887246 23.69455169 -0.00320356 0.00096447 0.00107633
N 20.38985663 8.59023996 26.21234926 -0.00595553 0.00184032 -0.01102924
N 0.12050108 0.73935586 21.37978576 0.00322240 0.00221099 -0.00022844
N 20.14383347 3.51108292 19.32264248 0.00215509 -0.00354370 0.00326006
N 19.10762357 5.88668208 23.78396611 0.00077834 -0.00119144 -0.00362195
N 0.13225160 1.31509874 25.81277193 -0.00113514 0.00657623 -0.00208135
N 20.88341485 8.04790357 21.16034200 -0.00896140 -0.00506079 -0.00023857
N 18.88681362 14.96219185 1.01593458 -0.00076264 -0.00271184 -0.00459456
N 20.20787901 13.27564317 5.62717758 0.00205502 -0.00236680 0.00083741
N 20.76187725 18.26306547 7.92386405 0.00352771 -0.00558803 0.00304336
N 22.05340017 10.29638804 3.05915246 0.00512805 -0.00014136 0.00221629
N 19.97526161 12.93969635 1.14350222 0.00780170 0.00357997 0.00116015
N 18.79376418 15.09789215 5.74855839 -0.00421055 0.00434337 -0.00099047
N 22.08518442 10.66460205 7.55478231 -0.00011276 0.00012222 0.00313781
N 21.05889368 17.59552309 2.91939115 0.00036837 -0.00307850 0.00234847
N 19.08658700 14.89972614 9.89813347 -0.00251919 0.00041584 0.00062404
N 20.53427825 13.86617882 14.76086184 0.00467825 0.00253144 0.01043460
N 20.66886397 18.33868528 17.02775796 -0.00924816 -0.00334812 -0.00177215
N 21.93333352 10.53329631 12.54542311 -0.00280735 0.00393142 -0.00288371
N 20.13763764 12.92640861 10.33918865 -0.00153473 0.00734893 0.00769744
N 18.87828669 15.51418876 15.07146230 0.00942383 -0.00535718 -0.00308288
N 22.02996953 10.58362810 16.40576346 -0.00449642 0.00381945 -0.00037144
N 21.23895784 17.34912105 12.09444891 -0.00410623 -0.00111965 -0.00021616
N 18.65822568 14.88467420 19.36689169 -0.00067371 -0.00213874 -0.00091011
N 20.15646241 13.82465952 23.91780914 0.00206309 0.00154465 -0.00076264
N 21.01070977 18.40264068 26.25788500 -0.00259331 0.00362562 -0.00202799
N 21.45039287 10.29521524 21.59018049 0.00071747 -0.00012305 0.00145223
N 19.72004508 12.79851034 19.44219239 0.00037611 0.00539044 -0.00539927
N 18.97407163 15.69223485 24.24052115 -0.00064527 -0.00150433 0.00022839
N 20.96195448 10.68932604 25.38811445 0.00091872 -0.00280721 0.00385330
N 20.60251351 17.77022005 21.17576368 0.00469362 -0.00124791 -0.00580940
N 19.19981291 24.61956751 0.94399191 0.00299882 -0.00508876 -0.00683209
N 20.35862399 23.17854491 5.52175290 0.00216842 -0.00190331 0.00388840
N 20.56451288 27.94158455 7.61059605 0.00461322 -0.00480869 -0.00398196
N 22.28547871 19.42542728 3.35003907 -0.00379178 0.00281541 0.00844639
N 20.44912978 22.74902346 1.29236757 0.00358996 -0.00035905 0.00006934
N 19.20068671 25.18391033 5.87238494 -0.00662442 -0.00340701 -0.00116400