1728
Time=88000.00000005 pbc="T T T" Lattice="22.22735395 0.00000000 0.00000000 0.00000000 28.87684394 0.00000000 0.00000000 0.00000000 27.23959126" energy=-10387.55840492 virial="17.12003537 -14.23339001 3.57145511 -14.23339001 -1.21790548 -5.89781172 3.57145511 -5.89781172 17.38251144" stress="0.00325046 -0.00080694 0.00024622 -0.00080694 0.00247734 -0.00036457 0.00024622 -0.00036457 0.00367457" Properties=species:S:1:pos:R:3:vel:R:3
N 0.21691824 5.37625923 1.24501896 -0.00534461 0.00248622 -0.00130575
N 1.72992698 3.91355324 5.77939692 0.00393168 0.00486830 -0.00103954
N 2.36090000 8.75220315 7.83880611 -0.00661228 0.00279282 -0.00433555
N 3.44666408 0.57318446 3.46976981 -0.00040761 0.00824605 0.00158091
N 1.12937667 3.34358762 1.53148674 -0.00071532 -0.00156362 0.00104791
N 0.36655458 5.76298002 5.82824840 -0.00101852 -0.00337551 -0.00055044
N 3.84355849 1.19900220 8.10447378 0.00121593 -0.00440262 -0.00658482
N 2.33503870 8.22783457 2.92975230 -0.00093299 0.00605713 -0.00228432
N 0.70700263 5.75587679 10.38798708 0.00344662 -0.00057589 0.00589354
N 1.63175770 4.34870358 14.81263984 0.00306849 -0.00157962 0.00667485
N 1.99956915 8.86745065 17.39048510 0.00206043 0.00288673 -0.00398267
N 3.86198720 0.75953941 12.35458111 0.00322565 -0.00116670 0.00005785
N 1.91177354 3.86117156 10.88085664 -0.00273462 0.00282648 0.00072686
N 0.19815414 6.22583508 15.27728745 0.00294381 0.00329362 -0.00011581
N 2.76044907 1.36385119 16.51719198 -0.00276681 0.00729199 0.00727207
N 2.26605917 8.65537846 12.27985581 -0.00140372 -0.00160898 0.00084318
N 22.18410073 5.48550925 19.47198178 -0.00448448 0.00598341 -0.00113273
N 1.71280500 4.02467219 24.01137297 -0.00019047 -0.00503716 0.00189229
N 2.31283341 8.61463035 26.07861023 0.00021609 -0.00548290 0.00056688
N 3.65750240 0.49704472 21.47762391 -0.00460751 0.00899406 0.00062851
N 1.49672896 3.80866680 19.71758407 0.00145543 0.00119139 -0.00267408
N 0.32504260 5.72950606 24.29226299 -0.00321008 -0.00048566 0.00482579
N 3.37842963 0.91879717 25.49377354 0.00704112 0.00817236 0.00370569
N 2.30500236 8.04432363 21.48280762 -0.00035815 0.00443891 0.00119512
N 0.48823914 15.09515142 1.18599299 0.00028410 0.00466089 -0.00021351
N 1.58452394 13.71419684 5.92606892 -0.00099086 -0.00618131 0.00325333
N 2.27162472 18.79856636 7.62631832 0.00070472 0.00718948 -0.00103469
N 3.62170390 10.12496830 3.38366489 0.00185590 -0.00127808 -0.00492717
N 1.74763741 13.20451760 1.80708528 -0.00729246 -0.01042368 0.00669999
N 0.58407850 15.75223582 6.23808528 -0.00023177 0.00278419 0.00280422
N 3.66388686 10.57532630 7.36085253 0.00589815 -0.00700844 0.00338296
N 2.26641081 18.03956965 2.97563686 0.00476789 -0.00043143 -0.00219455
N 0.14525117 15.13167186 10.57028967 -0.00649447 0.00080801 -0.00095896
N 1.45714331 13.63787877 14.57322083 0.00203323 -0.00210637 0.00093515
N 1.85464266 18.42223770 17.05389383 0.00041496 -0.00420798 -0.00068288
N 3.39947178 10.65669258 12.51834904 -0.00421863 -0.00127194 -0.00138931
N 1.64206967 13.25933373 10.59800214 -0.00413549 -0.00052546 -0.00119707
N 0.42672816 15.68253788 14.96722852 0.00739611 0.00001482 -0.00257746
N 3.17688295 10.73039324 16.64421187 0.00280933 -0.00322372 -0.00139268
N 2.18624740 18.07024529 12.47855378 0.00532937 0.00596049 0.00395540
N 0.09906220 15.05269968 19.49507311 0.00001361 0.00284677 -0.00205832
N 1.64553297 13.48552307 23.84166724 -0.00203305 0.00282908 0.00627961
N 2.12370379 18.48221995 25.91186191 0.00018147 0.00590412 -0.00006363
N 3.23081145 10.20927082 21.42170686 -0.00022587 -0.00456499 -0.00368517
N 1.56895102 13.34023121 19.74984758 0.00553628 0.00392862 -0.00672392
N 0.72195369 15.52786473 24.28597523 -0.00079584 0.00408535 0.00010759
N 3.24099240 10.77537104 25.80251835 0.00293681 -0.00091208 0.00000862
N 2.27548342 18.18277586 21.06404486 0.00222527 0.00405903 0.00012499
N 0.64706704 24.69134428 1.42571236 -0.00499596 0.00119649 -0.00004946
N 1.31247102 23.26659479 5.76423792 -0.00444213 -0.00104173 0.00172698
N 2.44185413 28.21065186 8.11217093 -0.00449716 0.00035471 0.00266104
N 3.64847589 19.82610073 3.47583126 0.00356744 0.00446043 -0.00291546
N 1.99087780 22.71641828 1.28933715 0.00334538 -0.00251088 0.00038047
N 0.28044558 25.30209070 6.21160674 -0.00229383 -0.00286513 0.00157641
N 3.10195989 21.02785247 7.72337176 -0.00708859 -0.00286643 -0.00268663
N 2.87259015 27.21554270 3.18162402 -0.00976368 -0.00233763 -0.00294638
N 0.02644672 24.70514405 10.62122285 -0.00316900 0.00421128 0.00075240
N 2.21307048 23.59173289 14.63352804 0.00171785 -0.00474459 0.00033394
N 2.07765927 28.11020422 16.95538689 -0.00043149 0.00552865 0.00229158
N 3.23009697 20.02228718 12.68146777 -0.00095268 0.00681379 0.00160009
N 1.37861450 22.80592132 10.50897011 -0.00326219 -0.00274768 -0.00099104
N 0.49250775 25.12351741 14.86914314 0.00200714 0.00550117 -0.00080950
N 3.14893689 20.25973958 16.65338806 -0.00192168 0.00324227 -0.00491817
N 2.47564431 27.80427519 12.04610237 0.00539618 -0.00070781 -0.00223983
N 0.24262402 24.61255509 19.00518320 0.00179753 0.00608281 0.00002333
N 1.52488383 23.29075999 23.50855843 0.00218608 0.00110540 0.00597422
N 1.79362815 28.23120193 26.12847202 -0.00539659 0.00100634 0.00241208
N 3.88022070 19.71798991 21.66412026 0.00910193 0.00041517 0.00190419
N 1.85310669 22.84594289 19.22424820 -0.00623368 -0.00195933 0.00429060
N 0.25743004 25.14240668 24.15966888 0.00116139 0.00095490 0.00054536
N 3.28093472 20.48693103 25.63543660 -0.00338675 0.00591023 -0.00056715
N 2.35410743 27.50303411 21.28859873 0.00139748 0.00834190 -0.00298168
N 4.23015545 5.15823605 1.11563273 -0.00111373 -0.00527278 -0.00449172
N 5.58447472 3.95627501 5.36997805 0.00409658 -0.00174685 -0.00599744
N 5.75509556 8.55858207 7.60716916 -0.00415645 -0.00060058 0.00294281
N 7.30087641 0.45173808 3.38905293 -0.00415877 -0.00044512 -0.00425024
N 5.09147822 3.09640273 1.17141995 0.00009559 -0.00150175 -0.00188191
N 4.17330686 5.61888474 5.83395211 0.00379602 -0.00057738 0.00459584
N 7.54156482 1.18731744 7.61939181 -0.00208935 0.00187746 -0.00269700
N 5.76588402 8.34967254 3.07888720 0.00201289 0.00043555 0.00188045
N 3.94996683 5.76726930 10.32063894 -0.00070741 -0.00113837 0.00333454
N 4.83795067 3.94905506 14.86363252 0.00660032 0.00460348 0.00204398
N 5.78581665 8.86465527 16.73427730 -0.00524023 0.00091007 -0.00458335
N 7.23481068 0.76958195 12.58676781 -0.00560902 -0.00629182 0.00083193
N 5.27450920 3.95414021 10.57481233 0.00398420 -0.00325315 0.00518500
N 4.07353242 6.05189667 14.86124163 0.00377025 0.00242470 0.00018864
N 7.03425501 0.93891867 16.56036402 0.00417945 0.00280581 0.00506748
N 6.03983256 8.48740750 11.81949076 -0.00592271 -0.00368346 0.00100268
N 4.06359623 5.58613366 19.23152689 -0.00003252 -0.00051236 -0.00345987
N 5.33808287 3.80385381 23.67624471 0.00152489 -0.00194585 0.00183459
N 5.54665565 9.07299705 26.09254564 -0.00425022 0.00157308 0.00520199
N 7.33646509 0.69044774 21.21698171 0.00211420 0.00147350 0.00136750
N 5.08958721 3.57108660 19.59796936 -0.00164915 0.00655638 0.00020508
N 4.21086698 5.80353972 24.28886563 -0.00139058 -0.00099771 0.00326440
N 7.01577210 0.87168787 25.73279361 0.00731735 -0.00132175 0.00221951
N 5.81796186 8.33539987 21.43837472 -0.00130881 0.00043655 -0.00122627
N 3.89103554 15.22947097 0.82354954 0.00161630 0.00611159 0.00113834
N 5.34862420 13.30592873 5.35544298 0.00605709 -0.00248228 -0.00341562
N 5.44262421 18.77362114 7.52643689 0.00000203 -0.00040161 -0.00132407
N 7.07500793 10.21553545 3.12745737 -0.00114958 0.00020998 0.00465767
N 5.11731867 13.28168619 1.17714486 0.00344138 0.00455218 0.00827933
N 4.24566410 15.17930352 6.00035445 0.00101498 -0.00709237 -0.00141738
N 6.78028254 10.63274853 7.36805810 -0.00364777 0.00005318 -0.00547674
N 6.04783868 18.13804403 2.82154790 0.00079654 -0.00262137 0.00230071
N 3.82747906 15.11792728 9.58453756 0.00049012 0.00019192 0.00247762
N 5.36671586 13.61424442 14.76901828 -0.00595570 0.00328785 0.00213938
N 6.06933937 18.53573202 16.77634635 0.00043825 -0.00285889 0.00541251
N 7.45625210 10.36262944 12.22608826 -0.00124593 -0.00357619 0.00058733
N 5.00370461 13.34239029 10.40968795 -0.00133020 -0.00539140 -0.00344437
N 4.32307244 15.61021618 15.07759890 0.00871458 -0.00337265 -0.00235998
N 6.95359149 10.88342705 16.71315138 0.00561588 -0.00430253 -0.00428962
N 5.94424941 18.04698812 11.78655284 -0.00504667 0.00076059 -0.00004317
N 3.83143822 15.08882490 19.34624380 0.00415275 -0.00313511 0.00066301
N 5.32967312 13.71753496 23.33200121 -0.00484808 -0.01026813 -0.00117756
N 5.95523044 18.91602511 25.59022124 0.00767519 -0.00282575 0.00290190
N 6.98026392 10.37022577 21.75186848 0.00308912 0.00675073 -0.00275910
N 5.11404908 13.16553944 19.39968037 -0.00298488 -0.00004934 -0.00357923
N 4.06730573 15.37926378 24.23105888 -0.00279775 -0.00452213 0.00083053
N 6.88890961 10.90803427 25.61478108 0.00214364 -0.00101597 0.00349969
N 6.03200461 17.98484999 20.82449253 0.00152808 0.00549358 0.00138634
N 3.95184862 24.53799096 0.65136167 -0.00205318 -0.00241904 -0.00080960
N 5.52416930 23.49513186 5.36055096 -0.00171150 -0.00611039 -0.01042728
N 6.09893454 28.29855402 7.89506069 -0.00632937 -0.00204682 0.00722933
N 7.27827289 20.14652730 3.28281175 0.00015760 0.00235066 -0.00732790
N 5.40656219 22.90571939 1.18284838 -0.00345792 0.00767478 -0.00146238
N 4.16621966 25.23381317 6.11142244 -0.00349557 0.00095839 -0.00348502
N 6.72820409 20.79830933 7.56931624 0.00286009 0.00132096 -0.00513522
N 5.97988825 27.48295061 3.17107504 -0.00062738 -0.00331934 -0.00449311
N 3.83309461 25.16901378 9.98801252 0.00047745 -0.00525023 -0.00187798
N 5.58139663 23.53754663 14.40865261 0.00556052 0.00058848 0.00013046
N 5.78365960 27.85945811 17.09934780 0.00179481 -0.00264337 -0.00343330
N 6.76056637 20.21177098 12.28564447 0.00278038 0.00441458 0.00194906
N 5.00506237 23.25597743 10.59799823 0.00198233 0.00312606 -0.00062772
N 4.47135216 25.45861800 14.91757034 0.00048124 0.00110526 -0.00173522
N 6.87724032 20.70291161 16.42579555 0.00499989 -0.00487057 -0.00740654
N 6.66194130 27.57252426 12.01157526 0.00347803 0.00276868 0.00336093
N 4.14012338 24.54490403 19.00542373 0.00434179 0.00385266 0.00549774
N 5.31777530 23.09838057 22.95036895 0.00013537 0.00141819 -0.00048776
N 5.95044721 27.76720739 26.17183705 0.00156405 -0.00326246 0.00944425
N 7.27593482 19.93570521 21.24555257 -0.00327535 0.00195874 0.00605653
N 5.27042384 22.64063644 19.30613645 0.00585592 -0.00509957 -0.00141533
N 4.05533335 24.95042848 23.63350349 0.00480563 -0.00630719 -0.00579750
N 7.46083417 20.74266743 25.57529890 -0.00202773 0.00361656 0.00050277
N 6.01982781 27.68077650 21.03818028 0.00386087 -0.00115442 -0.00156666
N 7.60200888 5.22961710 1.28348499 -0.00184580 -0.00102091 -0.00189030
N 9.10423485 4.29483730 5.90725898 -0.00352831 0.00821378 -0.00150391
N 9.35023437 9.16091621 7.77361710 -0.00047280 -0.00829167 0.00541923
N 11.14822106 0.41703271 3.43352310 0.00140672 0.00099975 0.00407636
N 8.96776027 3.47828760 1.68696416 0.00908697 0.00270561 -0.00086933
N 7.80511403 6.21819624 6.04648980 -0.00094070 -0.00087747 -0.00628325
N 10.77963572 1.21438926 7.39340030 -0.00077501 0.00743838 0.00433936
N 9.65526515 8.13682224 2.82630043 -0.00932850 0.00858858 0.00203476
N 7.79293756 5.69917615 10.58862557 0.00172445 -0.00090527 0.00921180
N 8.92012119 4.16982781 14.96465446 -0.00373546 -0.00872855 0.00012435
N 9.45468227 9.20360848 17.12167900 0.00448134 0.00402452 -0.00907350
N 10.94320142 1.02043478 12.52689688 -0.00679261 0.00127507 -0.00564821
N 9.12444039 3.71544452 10.74151647 -0.00096156 -0.00600924 0.00137037
N 7.88997915 6.16028995 14.98738129 -0.00623898 0.00089480 0.00354472
N 10.77551101 1.09425521 16.59502376 0.00097197 -0.00216037 -0.00306168
N 9.69650199 8.51121046 12.01457306 -0.00531908 0.00059727 0.00560365
N 7.65754730 5.68919292 19.44014350 -0.00348268 0.00141607 -0.00086762
N 9.13283050 3.78890856 24.08784635 0.00066205 0.00092084 0.00372854
N 9.04301844 8.83842537 26.05254591 -0.00009832 -0.00038772 -0.00779193
N 11.07832633 0.40936050 21.59980133 -0.00017367 0.00064452 0.00496241
N 8.59426532 3.65378723 19.14257459 0.00430571 0.00021772 -0.00811110
N 7.98197932 5.82063008 24.16757669 0.00348264 0.00258905 0.00004184
N 10.87699714 0.77136960 25.77069653 -0.00143548 -0.00704068 -0.00810468
N 9.36992023 8.16494011 21.26652076 0.00386671 -0.00274967 0.00230051
N 7.86315756 15.30270059 1.08979786 -0.00044838 -0.00509905 -0.00280256
N 9.20108317 14.07187248 5.82203060 0.00310504 -0.00229928 0.00173880
N 9.31172270 18.51020930 8.06935045 0.00523381 -0.00161549 -0.00517384
N 10.24153871 10.36860643 3.13796853 0.00020700 -0.00399131 0.00468949
N 8.61107155 13.13876376 1.47133159 0.00737711 0.00250547 0.00640878
N 7.51408947 15.73050114 5.75086342 0.00270050 0.00171818 -0.00096324
N 10.33978855 11.22145374 7.40785907 -0.00788217 0.00670806 0.00063866
N 9.55285911 18.56172803 2.83991914 -0.00283387 0.00142206 0.00379154
N 7.43157102 15.37822232 10.10819420 0.00154399 -0.00529225 -0.00151713
N 9.09028080 13.90036433 14.59533637 0.00150419 -0.00512125 0.00363759
N 9.06815091 18.29364312 17.24396492 0.00301944 0.00635024 0.00013616
N 10.61949230 10.62847534 12.28162678 0.00147550 -0.00011248 -0.00591230
N 8.58668558 13.33395931 10.16210034 -0.00157267 0.00262633 0.00427312
N 7.71818233 15.65465014 14.93937031 -0.00162803 -0.00937571 -0.00036259
N 10.72012104 11.11370096 16.54038021 0.00689790 0.00336326 -0.00157327
N 9.56034072 18.01498306 11.82846874 -0.00102008 -0.00219536 -0.00044891
N 7.65443863 15.22469436 19.13245442 0.00488663 0.00527929 -0.00256989
N 9.29061910 13.61675879 23.60116620 -0.00141606 -0.00194259 -0.00439204
N 9.43611647 18.72786356 25.50958162 -0.00496813 -0.00218328 0.00375275
N 10.60791083 10.08390532 21.48415025 -0.00167255 -0.00296316 -0.00254505
N 8.70840171 13.25669116 19.55228265 -0.00295557 0.00487248 0.00094085
N 7.90374690 15.47876743 24.04247752 -0.00591797 0.00933892 0.00137380
N 10.52518646 10.54094282 25.87379990 -0.00366508 0.00022245 0.00095275
N 9.81376697 18.20741545 20.98685712 -0.00477336 -0.00059962 0.00004924
N 8.00720465 24.66564700 0.91149278 -0.00456862 0.00929451 -0.00525797
N 9.14476693 23.44347333 5.46036721 -0.00183024 0.00031071 -0.00490635
N 9.67663521 28.17925367 8.01412249 0.00151682 0.00049521 -0.00736869
N 11.22592057 20.10376894 3.52099129 -0.00891992 -0.00416495 -0.00701579
N 8.84673366 22.56784470 1.43542714 -0.00281137 -0.00559203 0.00076205
N 7.90949849 25.38212043 5.88858199 0.00063289 0.00031382 -0.00609343
N 10.54926514 20.38748533 7.72598759 -0.00042372 0.00081563 0.00208555
N 9.85693668 27.37225135 3.03120803 0.00086738 0.00054216 -0.00338166
N 7.83373840 25.04881158 10.09665515 0.00334006 -0.00550948 0.00352971
N 9.17219455 23.34671640 14.45248394 0.00392513 -0.00487969 0.00515854
N 9.71098802 27.99686999 17.09846220 0.00353917 -0.00805112 0.00287188
N 10.61489396 19.92520590 12.49835346 0.00233854 -0.00284108 0.00328860
N 8.60193239 22.90139589 10.70415819 -0.00349936 0.00319380 -0.00459677
N 8.12283244 25.30658866 15.06803938 0.00230449 0.00197444 -0.00511145
N 10.47861233 20.10172533 16.54228644 0.00059118 -0.00048068 -0.00163718
N 9.69182280 28.06901204 12.27305330 0.00787520 0.00391773 0.00439575
N 7.59243974 24.64891509 19.03166321 0.00055111 -0.00316539 0.00868581
N 9.16866621 23.32856833 23.34570271 -0.00017564 0.00008626 -0.00240864
N 9.65585294 27.71494383 26.04844993 -0.00099744 -0.00723240 -0.00233861
N 11.02582570 20.07959279 21.37944987 0.00259905 -0.00148037 0.00632895
N 8.70974014 22.67591972 19.36193439 -0.00081793 -0.00083694 -0.00502418
N 7.84656513 25.06357119 23.97239572 -0.00433008 -0.00042650 -0.00626546
N 11.04699151 20.41548454 25.53107650 -0.00217817 0.00121375 -0.00208806
N 9.75077818 27.42850654 21.20193397 -0.00070674 0.00482113 -0.00263497
N 11.57480182 5.63980471 0.80898979 -0.00336677 -0.00399801 -0.00626785
N 12.62820006 4.44195860 5.39881586 -0.00633150 0.00060906 0.00032416
N 13.12747854 9.08104137 8.79478136 -0.00139239 0.00466826 0.00639645
N 14.47753289 0.69234225 3.65343182 -0.00040394 0.00055922 0.00201011
N 12.43691618 3.55276493 1.30693260 0.00222562 -0.00539359 0.00149763
N 11.45399925 6.44885363 5.69044229 -0.00028946 0.00508995 0.00058669
N 14.88490518 1.41203109 7.48552744 0.00310556 -0.00350681 -0.00163880
N 13.13857367 8.48417523 3.26195654 0.00233365 0.00307596 0.00143701
N 11.42167064 5.67799066 10.03585401 -0.00024034 0.00404638 -0.00474496
N 12.81978631 4.24508794 14.69243185 -0.00208343 0.00056585 0.00290664
N 12.89902529 8.96146582 16.82080898 -0.00393593 0.00216286 -0.00734485
N 14.78438396 0.76610536 12.32935297 0.00856397 0.00009861 -0.00157850
N 12.59827882 3.64840801 10.26307563 -0.00099071 0.00154664 -0.00028057
N 11.65980590 6.24085923 14.95052728 0.00203991 0.00256011 0.00022513
N 14.40403087 1.33926066 16.86162277 0.00137979 -0.00924835 -0.00029781
N 13.36520841 8.24978947 12.68778110 0.00183938 0.00416919 -0.00127559
N 11.00570993 5.38429522 19.16366037 -0.00079272 -0.00123000 -0.00380313
N 12.85724523 4.12905510 23.98688641 -0.00091460 0.00016567 0.00455730
N 12.84478611 8.74735454 26.29084096 -0.00545689 0.00049618 -0.00465533
N 14.92926298 0.66025487 21.63425606 -0.00512262 -0.00087162 -0.00340129
N 12.40942410 3.49166689 19.47842155 -0.00649663 -0.00701590 -0.00080959
N 11.25132980 5.82311558 23.95988076 0.00601218 0.00354901 -0.00176128
N 14.32121699 0.79109835 25.84806085 -0.00014805 0.00150273 -0.00155929
N 13.05176738 8.34906767 21.50030754 -0.00200586 0.00296566 -0.00182207
N 11.24364882 15.16267300 0.77495123 0.00390952 0.00094262 -0.00297190
N 12.79417610 13.98053231 5.40298770 0.00234811 0.00278266 0.00192765
N 13.13371192 18.50484571 7.78092405 -0.00490861 0.00632545 -0.00798784
N 14.67788915 10.14486700 3.74612884 -0.00280488 0.00783753 0.00458486
N 12.51981614 13.30795009 1.25903465 0.00025581 0.00064328 -0.00087126
N 11.53352415 15.90143056 5.91587773 0.00882726 -0.00097864 0.00113077
N 14.27700385 10.81286933 7.71907348 0.00211770 0.00508727 0.00150382
N 13.31405123 17.99644497 3.32623447 -0.00178430 -0.00593128 -0.00856298
N 10.87454408 15.27881914 9.79769769 0.00122103 0.00277015 -0.00044531
N 12.72105518 13.84272148 14.66430967 -0.00148096 -0.00756833 0.00101870
N 13.00535257 18.42301580 17.47681437 0.00055186 -0.00476200 -0.00142254
N 14.22424419 10.32695291 12.91496201 0.00135309 -0.00100412 0.00468628
N 12.50426673 13.75346930 10.36208583 0.00859734 0.00478900 0.00226268
N 11.54391617 15.85441853 14.80377677 0.00956731 0.00153385 -0.00524386
N 14.17967893 10.84313546 16.91312335 -0.00346628 0.00068872 -0.00604372
N 13.04657386 18.14238578 11.95213064 -0.00454449 -0.00140458 -0.00219422
N 11.14152626 15.16961527 19.07774628 0.00190174 0.00134714 -0.00352473
N 12.35131422 13.68257545 23.98217421 -0.00005992 0.00242989 -0.00262589
N 13.55313249 18.91924386 25.88578939 0.00704498 -0.00309706 0.00756266
N 14.13290235 10.41140227 21.69179226 -0.00946953 0.00125993 -0.00041402
N 12.57931046 13.38041466 19.78660079 -0.00170258 -0.00978819 0.00362454
N 11.54727976 15.75584961 23.88542094 0.00337721 0.00112742 -0.00115351
N 14.07347823 10.71143772 25.89401893 -0.00844608 0.00088730 -0.00016816
N 13.34573104 17.85879751 21.20926508 0.00160621 -0.00108216 -0.00526921
N 11.62978274 24.51275734 1.12822370 0.00146831 0.00116479 0.00175860
N 12.99901380 23.56590568 5.58723872 0.00383765 0.00321639 -0.00075702
N 13.39256290 28.54983595 7.58137878 -0.00021006 0.00025609 -0.00037082
N 14.23172068 20.13825188 3.53816488 -0.00922420 -0.00450519 -0.00107436
N 13.10026455 22.79171098 1.30870692 -0.00154873 -0.00240621 -0.00284285
N 11.55126683 25.27942787 6.09430234 -0.00339855 -0.00118065 -0.00336329
N 14.44743719 20.33943424 7.58055588 0.00060308 0.00160437 -0.00242568
N 13.44887250 27.56919868 3.32017866 0.00394617 -0.00015457 0.00538886
N 11.22541630 24.75484074 10.23126565 0.00363895 0.00115195 -0.00678107
N 12.28462246 23.50440753 14.41905566 -0.00483948 -0.00254387 -0.00057897
N 13.21224030 28.31857195 16.85837346 0.00041682 0.00709105 0.00049187
N 14.37271778 20.01564705 12.23020365 -0.00088710 -0.00192872 -0.00278591
N 12.43715552 22.75443783 10.29329028 0.00193374 -0.00258188 0.00032391
N 11.58232229 25.68179235 14.73165912 0.00229922 0.00464542 0.00403950
N 14.02797541 20.27201812 16.37359979 0.00077662 0.00076509 0.00248751
N 13.56610190 27.73599145 11.98845596 -0.00936981 0.00317114 0.00206863
N 11.29227444 24.78851620 18.54688880 -0.00577459 0.00091231 0.00019809
N 12.96898292 23.39941760 23.07445929 0.00273346 -0.00228077 0.00034740
N 13.25939825 27.67495447 26.03261866 -0.00200601 -0.00688124 0.00114736
N 14.88367795 19.71885064 21.43079041 -0.00775474 0.00141113 0.00158409
N 12.56398921 23.01787899 19.29589540 -0.00264618 0.00320935 0.00530338
N 11.50307855 24.93992073 23.74651406 -0.00034794 -0.00015271 -0.00217431
N 14.94645659 20.70436322 25.77479365 0.00070771 0.00106143 -0.00260428
N 13.43810163 27.72599256 21.23877622 -0.00542790 -0.00678059 0.00096081
N 14.88078062 5.45068392 1.34714162 -0.00804901 -0.00084566 0.00023135
N 16.44781395 4.10298199 5.58130479 0.00170883 0.00004626 0.00334832
N 16.62319591 9.12328346 7.83956477 0.00562285 -0.00484677 -0.00223820
N 18.18836670 0.45891093 3.17463968 -0.00204655 -0.00031971 0.00213515
N 16.00335595 3.44737658 1.47238386 -0.00046919 -0.00711615 -0.00115353
N 15.18208119 5.99795066 5.98161647 -0.00218637 0.00458316 -0.00019970
N 18.25560511 1.23187362 7.91987854 0.00004723 0.00150711 0.00604853
N 16.90954464 8.37728828 3.46384376 -0.00083477 -0.00437761 0.00589101
N 14.90386942 5.55755386 10.21069132 -0.00290848 0.00100736 0.00404580
N 16.65025820 4.18505068 14.91519920 -0.00949252 0.00272226 -0.00049108
N 16.77135602 9.02970211 17.18094358 -0.01170165 -0.00334085 -0.00612804
N 18.33376256 1.00574761 12.81863453 0.00246879 0.00383659 0.00234454
N 16.05786748 3.64563638 10.69747566 0.00545057 0.00242329 0.00167576
N 15.32691153 6.05068979 15.33273348 0.00196707 -0.00114799 -0.00482498
N 18.33733910 1.25083331 16.96615632 0.00308549 0.00737394 -0.00223443
N 17.00747565 8.37505716 12.29066679 -0.00062191 -0.00545069 0.00380851
N 14.76036463 5.42314721 19.24353131 0.00112227 0.00087600 -0.00210073
N 16.13678779 3.96740034 23.97939161 -0.00324624 0.00080026 0.00187310
N 16.35576109 9.03872234 26.54270216 0.00446921 0.00322546 -0.00081703
N 18.63390721 0.43295072 21.74963921 0.00353687 0.00313342 0.00325017
N 16.15639115 3.79567192 19.90856402 -0.00000107 -0.00193834 0.00448941
N 15.08866243 5.92865652 24.44331262 -0.00079392 0.00534284 -0.00069777
N 17.89845017 1.03003805 25.60880895 -0.00184859 0.00965879 0.00563146
N 16.61615124 8.47633442 21.37096931 -0.00267171 0.00022409 -0.01066530
N 14.98194029 15.04180147 1.14346010 -0.00028425 0.00316067 -0.00156229
N 16.29390830 13.83843280 5.60515792 -0.00155084 0.00590513 -0.00507375
N 16.66696563 18.75166238 8.33449504 0.00226084 0.00098283 -0.00398298
N 18.55292993 10.08528622 3.46352634 -0.00400534 0.00681135 0.00241088
N 15.96300995 12.94443106 1.44825769 0.00680311 -0.00066659 -0.00280642
N 15.14012010 15.80652899 5.94621637 -0.00349390 0.00041641 0.00500737
N 17.95130675 10.89269167 7.72931568 0.00711754 0.00213515 -0.00132944
N 17.27757915 18.66538111 3.26048459 0.00574255 -0.00178007 0.00375963
N 15.18687741 15.33470378 10.36541195 -0.00974765 -0.00043744 0.00226356
N 16.37115965 13.77480232 14.92222843 -0.00312798 0.00553112 0.00133350
N 16.58004316 18.39380214 17.39211228 0.00127011 -0.00051761 -0.00249147
N 18.11180696 10.36722858 12.57959336 0.00526241 0.00032801 -0.00838514
N 16.44238458 13.38022711 10.33429201 0.00461901 0.00122468 0.00188899
N 15.02234603 15.66138093 15.16477050 -0.00136264 0.00529169 0.00058724
N 17.97821785 11.10447361 16.89647032 -0.00405297 -0.00500415 -0.00652661
N 17.22689647 18.15275032 12.70955183 0.00026419 0.00450663 0.00136796
N 15.03883159 15.08443749 19.34019499 0.00499735 -0.01187120 -0.00152139
N 16.47068628 13.83066186 23.87924270 -0.00287039 -0.00094780 -0.00633638
N 17.11956346 18.41318775 26.51589588 0.00360555 0.00554513 0.00143163
N 17.58298869 10.46675760 21.95743170 -0.01190603 0.01097239 0.00161835
N 16.24197752 13.23940123 19.89361500 0.00442224 0.00388793 0.00467324
N 15.35316776 15.75859492 24.01673548 0.00113667 -0.00000246 -0.00141570
N 17.92050212 10.74715293 26.04257357 -0.00239466 0.00752025 -0.00113524
N 17.19454841 17.87907622 21.35462192 -0.00653016 0.00232759 -0.00154407
N 15.23210319 24.65541002 1.28019016 0.00236732 0.00321473 0.00105094
N 16.63763873 23.63032853 6.21258866 -0.00200443 0.00368128 0.00351138
N 17.24192134 28.06744788 8.49913244 -0.00554114 0.00052601 0.00272816
N 18.68824865 20.16584238 4.30847498 -0.00085397 -0.00256121 -0.00174904
N 16.39754520 22.73272982 1.69936413 0.00020532 -0.00369153 -0.00034046
N 15.31005837 25.46913807 6.56610035 -0.00376167 0.00433243 -0.00036355
N 17.90754456 20.78816300 8.24818795 -0.00045592 -0.00538759 -0.00413941
N 17.05030715 27.33379715 3.17571024 -0.00087020 0.00098063 -0.00336892
N 15.35911587 25.11452827 10.29674418 -0.00027331 -0.00783537 0.00218686
N 16.03344797 23.36591015 14.17669425 0.00410571 -0.00703931 0.00000048
N 16.75845549 28.36822944 17.29152828 -0.00030036 0.00080434 0.00238710
N 17.99705467 20.22836471 13.36942086 0.00280052 -0.00421835 -0.00238242
N 16.39731021 22.99054196 10.43007334 -0.00069638 0.00482965 -0.00052015
N 15.14237849 25.18894466 15.18798098 0.00189759 0.00414922 0.00043821
N 17.84468107 20.23385792 16.92785646 0.00563025 0.00222752 -0.00571122
N 17.31040519 27.95847172 12.12666275 -0.00257748 0.00462259 -0.00151485
N 15.05609160 24.86801268 18.99528108 -0.00078555 -0.00130462 0.00132703
N 16.58660375 23.24626315 23.64675638 0.00109637 0.00113830 -0.00336760
N 16.88409699 27.87719115 25.89415836 0.00191795 0.00014972 -0.00575675
N 18.40990967 19.76877229 21.48887459 0.00278932 -0.00042048 0.00334944
N 15.95749720 22.75481706 19.37058979 0.00550887 -0.00363507 0.00311164
N 15.34321577 25.17039960 23.99588828 0.00456443 -0.00563048 0.00483715
N 18.37546355 20.36219211 25.86199922 0.00505887 0.00690442 -0.00492059
N 17.21995760 27.69384110 20.97688657 -0.00355217 -0.00492675 0.00965722
N 18.69789505 5.42396254 1.60703722 0.00716675 0.00558902 -0.00262586
N 19.71590085 3.70621264 5.94846436 0.00406536 0.00354761 0.00155512
N 20.50462342 8.98106979 8.05865506 0.00380125 -0.00498223 -0.00358663
N 21.86760378 0.67266446 3.33653179 0.00119498 -0.00469700 0.00100874
N 19.66632655 3.48088945 1.38567481 0.00632751 0.00067322 -0.00435108
N 19.13872840 5.99070897 6.08573451 -0.00066121 0.00276146 0.00318203
N 21.99658944 1.17858053 7.91799092 -0.00019499 -0.00172099 0.00203761
N 20.83002967 8.36387102 3.17431900 -0.00022599 0.00119181 0.00578783
N 19.06440349 5.46686151 10.49817531 0.00164203 -0.00033764 -0.00006089
N 20.08080261 3.99248110 15.05147260 0.00391939 0.00295781 -0.00232449
N 20.54147310 9.07489409 17.02872919 -0.00437854 0.00150875 -0.00194221
N 0.06488176 0.67851767 12.78153867 0.00642110 0.00037218 -0.00002131
N 20.40611892 3.65917010 10.99788993 0.00604775 0.00039516 -0.00868879
N 18.95193635 5.97465392 15.44035348 -0.00008144 -0.00726614 -0.00020144
N 21.89585116 1.00234915 16.76568992 0.00204728 0.00060503 0.00165752
N 20.74793944 8.20144421 12.46576937 -0.00088451 0.01034673 -0.00335810
N 18.76030989 5.62032118 19.51115443 0.00239613 -0.00055693 0.00325133
N 20.01676321 4.07832152 24.20829028 -0.00238997 -0.00081639 -0.00165104
N 20.35775032 9.11955948 26.13768754 -0.00020887 0.00172598 0.00295759
N 0.09892515 0.56709133 21.72846487 0.00730302 -0.00291241 -0.00054151
N 19.98438249 3.55880570 19.63308783 0.00627841 -0.00591458 -0.00171103
N 18.75949356 5.93786020 24.27749869 -0.00517172 -0.00264707 -0.00485288
N 21.78591895 1.16574403 25.48833843 -0.00507660 -0.00102425 0.00172240
N 20.79954433 8.28459603 21.51351568 0.00768927 -0.00247845 -0.00998051
N 18.56225755 14.89654825 1.56215971 -0.00539387 -0.00058031 0.00046199
N 20.16112101 13.70416712 5.73163153 0.00147241 -0.00165993 0.00052378
N 20.49146823 18.77092015 8.01074495 0.00374544 -0.00315286 0.00341420
N 22.08250679 10.31548119 3.38055906 0.00400379 -0.00090930 -0.00081981
N 19.86291349 12.98836806 1.79284594 -0.00377595 -0.00332044 -0.00548996
N 19.05737652 15.69081435 6.10122619 -0.00614604 0.00049235 0.00668805
N 21.44400415 11.06772718 7.82663218 -0.00006087 -0.00241644 -0.00028548
N 20.94960960 17.99188420 3.30362037 0.00403589 0.00287530 0.00044400
N 18.83646881 15.26754437 10.52918607 0.00186539 0.00474705 0.00086853
N 20.22569302 13.80985092 14.91994701 -0.00361870 0.00042671 -0.00100769
N 20.38712810 18.49315537 17.55248111 0.00100546 0.00335122 0.00031949
N 21.60353364 10.30052184 12.57288319 0.00196171 -0.00160182 0.00340318
N 19.85135597 13.31001083 10.55825972 0.00075829 0.00226443 -0.00172361
N 18.78459069 15.59077642 15.26745842 -0.00169088 0.00306115 0.00299923
N 21.87054520 10.96507519 16.88094377 0.00010011 0.00247135 -0.00085127
N 20.68410795 18.25403406 12.29128258 0.00210642 0.00292018 0.00228925
N 18.64480881 15.29099412 19.43367896 0.00348209 -0.00222573 0.00012385
N 19.36699491 13.60788987 24.22131210 0.00337133 0.00138243 0.00243076
N 20.74197598 18.60809156 26.39101085 0.00129305 -0.00403169 -0.00103498
N 21.80245719 10.32101695 21.77852069 0.00084450 -0.00506437 0.00716286
N 19.91678415 13.43642524 19.88964627 -0.00006956 -0.00239808 0.00227513
N 18.94232721 15.89318238 24.61304041 -0.00167288 -0.00226458 0.00175929
N 21.68842184 11.07391372 25.98494924 0.00204656 0.00380982 -0.00418087
N 20.94740013 17.91035573 21.39332679 0.00046152 0.00048959 -0.00568885
N 18.89416244 24.51708587 1.00580554 -0.00414654 -0.00545566 0.00600778
N 20.21743222 23.61764246 5.67766264 -0.00024096 -0.00333920 -0.00005115
N 21.10479716 27.96743264 8.48398534 0.00038438 -0.00748376 -0.00352054
N 21.78623097 20.29716324 3.59054370 -0.00025600 0.00563186 -0.00478719
N 20.10595669 22.53090425 1.36407847 -0.00047215 -0.00121325 0.00664937
N 18.83549251 25.48498045 5.94018978 -0.00601498 -0.00239896 0.00051812