1728
Time=2000.00000000 pbc="T T T" Lattice="22.04792959 0.00000000 0.00000000 0.00000000 28.77056325 0.00000000 0.00000000 0.00000000 27.29725052" energy=-10368.21912670 virial="7.59375478 -11.13159127 12.92097029 -11.13159127 -35.64101812 12.75970083 12.92097029 12.75970083 -45.65390700" stress="0.00278667 -0.00070128 0.00088397 -0.00070128 0.00118605 0.00068019 0.00088397 0.00068019 0.00164343" Properties=species:S:1:pos:R:3:vel:R:3
N 0.32491833 5.53484366 0.97927247 0.00005732 -0.00034984 -0.00181039
N 1.69270358 4.15145933 5.41229507 -0.00276568 -0.00460450 0.00685841
N 1.91647865 9.10144756 7.78263503 -0.00106231 -0.00064621 -0.00473286
N 3.43604975 0.59283552 3.13428640 0.00361359 -0.00167690 -0.00200215
N 1.42370676 3.58308857 1.44075909 0.00036621 -0.00156650 -0.00126917
N 0.53154162 5.99395348 6.04812922 -0.00005392 0.00293989 0.00221598
N 3.15667873 1.35322829 7.36921388 0.00265051 -0.00295025 0.00584614
N 2.42428406 8.42699840 3.14177130 -0.00053427 -0.00394899 -0.00295560
N 0.28745521 5.25347388 9.87579488 -0.00071431 0.00337496 -0.00156199
N 1.58501930 4.17484444 14.23969002 0.00508078 0.00344042 0.00038807
N 2.41997180 8.86690251 17.22255369 0.00329119 0.00558752 -0.00216808
N 3.37974472 0.50932729 12.19920117 -0.00040656 -0.00238930 -0.00393536
N 1.46075994 3.41897006 10.31280577 0.00256168 0.00322076 0.00108352
N 0.30639854 6.01300850 14.75355597 -0.00167246 -0.00040254 -0.00816655
N 2.96064940 1.53011843 16.56230185 0.00151097 -0.00092045 0.00515387
N 2.18323763 8.24560948 12.08869767 -0.00111124 -0.00106431 -0.00045493
N 0.47340634 5.55306289 19.26057688 0.00666777 -0.00138402 -0.00260272
N 1.81436954 4.07472794 23.83474650 0.00356959 -0.00375649 -0.00326547
N 2.21561375 8.87914977 26.30781220 0.00350857 0.00064637 0.00093688
N 3.65512136 0.77787596 21.39318086 -0.00310950 0.00260444 -0.00590504
N 1.31699815 3.34468613 19.52453248 0.00192664 -0.00096181 0.00123997
N 0.52332238 5.86333919 24.29924412 -0.00377402 0.00205497 0.00142747
N 3.35370863 1.19928237 25.60065298 0.00088717 -0.00454394 0.00367859
N 2.12327279 8.63622961 21.35199242 0.00103736 0.00726485 -0.00804057
N 0.10069166 15.26982328 0.93025364 0.00337697 0.00116697 0.00645219
N 1.48881716 13.93402353 5.24648193 0.00736863 0.00117846 -0.00343582
N 2.03545435 18.78797061 7.95027783 0.00143750 0.00261243 0.00879230
N 3.38581355 10.46222039 3.57545899 -0.00379556 -0.00089619 -0.00184124
N 1.10817151 13.23262020 1.32892542 -0.00082858 -0.00513868 -0.00022291
N 0.39437490 15.86647259 5.96066918 -0.00040345 0.00438930 -0.00049026
N 3.18017152 11.06656656 7.61228522 0.00030325 -0.00570477 -0.00181156
N 2.39281517 18.13577025 3.34774185 0.00509718 -0.00111798 0.00012731
N 21.89987045 15.05401762 10.18468959 0.00290668 -0.00370724 -0.00466134
N 1.76742386 13.78923440 14.88373607 -0.00249100 0.00087883 0.00672057
N 1.88943166 18.43599361 17.35828181 -0.00274819 0.00112770 -0.00244259
N 3.49991349 10.17462861 12.38535540 -0.00114590 0.00316273 -0.00530130
N 1.22396034 13.18323786 10.45699427 -0.00395858 0.00726495 0.00293593
N 0.47928940 15.77249673 15.08074101 -0.00767787 0.00163708 0.00382225
N 3.42110983 10.92372922 16.71255264 -0.00584194 0.00261816 0.00228012
N 2.48351301 18.01735495 12.25991162 0.00075700 -0.00017230 0.00493896
N 0.12927931 15.09121110 19.51200038 -0.00253499 -0.00206508 0.01017110
N 1.43561005 14.06817770 23.92847067 0.00469718 -0.00068102 0.00076717
N 1.92679000 18.50050306 26.25394376 0.00082431 0.00155331 -0.00045895
N 3.70910614 10.37543406 21.75368433 -0.00283107 -0.00180078 -0.00476480
N 1.61175598 13.28326522 19.77577723 -0.00139283 -0.00046348 0.00121216
N 22.03336598 15.72074547 24.47204333 -0.00216466 0.00288973 -0.00536622
N 3.24780087 10.95371421 25.71920627 0.00240982 0.00219043 0.00177525
N 2.26987213 18.01296879 21.55967818 -0.00145866 -0.00265004 -0.00323307
N 0.28996745 24.81119594 1.19387755 0.00264350 -0.00089257 -0.00094448
N 1.80976963 23.13672509 5.68431429 0.00274201 -0.00411781 0.00271303
N 2.05150159 28.10184007 7.58057708 0.00255480 -0.00298912 0.00058452
N 3.50734443 20.16944197 3.50679368 0.00200012 0.00047540 -0.00064597
N 1.53218027 22.78287358 1.65554895 0.00039826 -0.00400847 0.00149853
N 0.53190210 25.05518809 5.98588160 -0.00398844 0.00139538 -0.00285398
N 3.62791092 20.56877589 7.91006928 -0.00037704 -0.00718250 -0.00211401
N 2.25856093 27.38964686 3.03489223 0.00482995 -0.00117533 0.00065642
N 0.32800635 24.50176081 10.35550695 -0.00122628 0.00151590 -0.00958895
N 1.54698792 23.38679152 14.95838946 -0.00458668 -0.00187428 -0.00302675
N 2.19562996 28.13581875 16.88262881 0.00375240 -0.00251541 0.00096818
N 3.57190738 19.98686221 12.95470185 -0.00076952 -0.00212976 -0.00545642
N 1.68250262 22.55903376 10.68848130 -0.00198676 0.00257629 -0.00521071
N 0.34839816 25.31257188 15.26312719 -0.00663119 -0.00271091 0.01089463
N 3.37959308 20.18314095 17.10529332 -0.00245568 -0.00168764 -0.00626706
N 2.27388910 27.12587446 12.19782363 0.00206478 0.00403008 0.00549648
N 0.31145286 24.73764004 19.53590698 0.00230916 0.00307150 -0.00035165
N 1.73112211 23.37207490 24.08820695 0.00183142 0.00222929 0.00769711
N 2.07996313 28.10625899 25.92933338 0.00494005 0.00605165 -0.00283451
N 3.61090868 19.81738735 22.13836132 -0.00103380 -0.00058538 0.00292163
N 1.45228890 22.77354874 19.93985941 -0.00028157 -0.00521630 -0.00242146
N 0.59177381 25.40982636 24.49309799 -0.00832279 -0.00022148 0.00186671
N 3.40270978 20.26934625 26.12206060 -0.00398974 -0.00505740 -0.00014531
N 2.40848102 27.57645516 21.06669354 0.00663718 0.00257380 0.00100218
N 3.90013496 5.39073515 1.00622221 -0.00030768 -0.00004434 -0.00056241
N 5.34585307 4.14930350 5.76757614 -0.00223380 0.00531471 -0.00077615
N 5.86403400 8.90378494 8.12200740 0.00246274 -0.00277333 -0.00077912
N 7.13590813 0.48444591 3.59573084 0.00114787 0.00030782 -0.00076012
N 5.18481145 3.51443287 1.27496772 -0.00519828 0.00918364 -0.00669936
N 4.03895649 6.03285864 5.86503566 0.00621685 -0.00304993 0.00639667
N 6.86362126 0.96836654 7.66166851 0.00234463 -0.00573481 -0.00427874
N 5.88560272 8.48995808 3.30621512 0.00089380 0.00626084 -0.00400265
N 3.97532691 5.48363616 10.27968442 -0.00267649 0.00766596 -0.00182956
N 5.11160430 4.11516141 14.73044892 -0.00705376 -0.00066266 -0.00736469
N 5.86330774 8.92374782 16.93892079 0.00402503 -0.00280416 0.00513066
N 7.05649269 0.59291335 12.27294803 -0.00062017 -0.00101113 -0.00240900
N 4.97590768 3.42400988 10.31955067 0.00032095 0.00074731 0.01047447
N 3.88221976 6.08229085 15.08574147 0.00019714 0.00345448 0.00074879
N 6.76769467 1.33608860 16.69042817 0.00436335 -0.00712789 0.00464748
N 5.89619993 8.53237093 12.13203621 -0.00226241 0.00617632 -0.00304311
N 3.78296278 5.39806918 19.23930339 -0.00231839 0.00489215 -0.00013367
N 5.42286227 4.13939073 23.86352034 -0.00594867 0.00488900 -0.00463697
N 5.63036484 8.94511457 26.14533668 -0.00194156 0.00265642 -0.00471024
N 7.22520072 0.82642271 21.71094118 0.00418363 0.00269166 -0.00305217
N 5.11347282 3.63042295 19.65729475 -0.00299906 -0.00065044 0.01016502
N 4.16799353 5.99585224 24.24292675 -0.00245867 0.00614112 0.00252516
N 6.97870022 1.03848948 25.91861405 -0.00409601 -0.01033526 -0.00086393
N 5.66127986 8.38082819 21.21856852 -0.00504534 0.00023201 -0.00097191
N 4.32752450 15.18442261 1.26068879 0.00237813 -0.00407797 0.00895998
N 5.13461622 13.60821711 5.72631098 -0.00336051 0.00525437 -0.00614998
N 5.87143012 18.60312803 7.76299322 -0.00636620 -0.00261632 0.00571882
N 7.33745322 10.28678200 3.30189562 -0.00240207 -0.00835450 0.00010352
N 4.91347390 12.99501181 1.50638269 0.00159445 0.00326897 0.00029866
N 3.93307327 15.59373302 6.09129292 -0.00196023 -0.00225203 -0.00076541
N 7.12397204 10.73018062 7.53865602 0.00057856 -0.00593734 -0.00098950
N 5.98986920 18.08561785 2.91667016 -0.00348120 -0.00599085 -0.00131640
N 3.73332414 15.19059318 10.21511152 0.00363631 0.00147613 0.00517767
N 5.08507680 13.62905221 14.75729179 0.00282300 -0.00086885 -0.00227350
N 5.71687546 18.11645299 17.00480308 0.00141215 -0.00394383 -0.00088854
N 7.17077978 10.49434122 12.29904882 0.00034611 0.00116413 -0.00262534
N 5.14864099 13.38140919 10.68197946 0.00265034 0.00606577 0.00269166
N 4.05256798 15.67760502 15.07977284 -0.00315600 0.00195133 -0.00645087
N 7.19472859 10.85693499 16.64877877 -0.00932480 0.00553560 0.00451002
N 5.66737759 17.95390614 12.12075004 0.00008172 0.00320299 0.00753524
N 3.82719058 15.24090971 19.50456228 0.00241803 0.00110706 -0.00219540
N 5.24692765 13.69568525 23.85031808 -0.00177439 0.00163194 0.00041378
N 5.98216839 18.39975381 25.94699947 -0.00855993 -0.00680505 0.00561595
N 7.04267048 10.10125607 21.40479751 0.00038964 -0.00250503 -0.00255576
N 5.08362297 13.28005007 19.77933768 0.00068770 0.00381111 0.00288751
N 3.80558511 15.40492283 24.27956374 0.00934894 -0.00136275 -0.00688484
N 6.65245075 10.86996846 25.51521194 -0.00419072 -0.00290855 -0.00762905
N 5.85540652 17.91869362 21.28274939 0.00153308 0.00153399 0.00073902
N 3.86394035 24.49475180 0.79295072 0.00560760 0.00318891 0.00079532
N 5.66391410 23.18801591 5.76989019 -0.00277228 0.00345187 0.00610860
N 5.34881402 27.92117809 7.90925465 0.00291724 0.00207920 -0.00515889
N 7.37140863 19.88206826 3.32899184 -0.00191561 0.00294048 0.00382105
N 5.33685275 22.79575366 1.13711239 0.00229628 0.00511265 -0.00337747
N 4.18910989 24.89444217 5.90827051 0.00398993 0.00142089 0.00717042
N 7.38446530 20.36579151 7.65063040 -0.00066320 0.00110322 -0.00492678
N 6.00789339 27.30522711 3.14130518 0.00129242 0.00487269 0.00542715
N 3.99944505 24.32422283 10.31783129 0.00328429 0.00516348 -0.00115480
N 5.38647469 23.19386835 15.02598675 -0.00225028 0.00237381 -0.00768304
N 5.60821461 28.20229580 17.29004458 0.00237435 -0.00302306 -0.00715589
N 7.23915361 19.73027011 12.42010643 -0.00459325 0.00094822 0.00066869
N 5.21463740 22.48278474 10.69204717 -0.00045979 -0.00395136 0.00444251
N 4.09847940 25.13353901 15.32223062 -0.00422983 0.00066499 0.00234529
N 6.79945548 20.04742689 16.57984008 -0.00060692 -0.00253866 0.00505423
N 5.77843976 27.46366530 11.98215146 0.00096178 -0.00605845 0.00049431
N 4.06159929 24.71058892 19.28781004 0.00257941 0.00512402 0.00332751
N 5.02985262 23.28046847 23.53658541 -0.00630015 0.00449964 0.00531000
N 5.97923536 27.80321380 26.07771676 -0.00399288 0.01041755 -0.00176248
N 7.09545807 19.81248654 21.28815057 0.00524804 0.00488975 -0.00363612
N 5.14474431 22.69893089 19.68694779 -0.00377488 0.00072682 -0.00689247
N 4.10681771 25.39535859 24.10037199 0.00457740 -0.00369303 0.00574427
N 6.64899046 20.51095145 25.41812831 0.00425098 0.00328536 0.00326192
N 6.16175872 27.73343078 21.23932633 0.00154012 -0.00700625 -0.00079529
N 7.61634259 5.32155712 1.05646847 0.00648925 0.00866575 -0.00488888
N 8.74365497 3.83386369 5.50440910 -0.00193665 0.00132048 -0.00057534
N 9.51748530 9.10843112 7.79000926 -0.00444344 -0.00148808 -0.00328894
N 10.85527504 0.68315139 3.27119985 0.00346268 0.00006079 0.00388754
N 8.81645210 3.39680742 1.47911133 0.00159985 0.00096077 0.00126277
N 7.93447549 5.92748975 5.95895496 -0.00043637 0.01221328 0.00657214
N 10.61788827 1.07590392 7.66626275 0.00238877 -0.00464598 -0.00008008
N 9.54665869 8.24001686 3.07113895 -0.00173596 0.00276058 -0.00075469
N 7.34387777 5.42295097 9.75446777 -0.00425566 0.00287265 -0.00130109
N 8.85494722 4.06159604 14.83736391 0.00149861 -0.00162492 -0.00028914
N 9.35802691 8.65418431 16.92535268 0.00279125 0.00032830 0.00651354
N 10.91363068 0.75122941 12.35738021 -0.00108198 -0.00626304 -0.00108801
N 8.70878795 3.62044622 10.31278592 0.00275023 -0.00444958 0.00350770
N 7.60512027 6.02429128 15.12020431 0.00371337 0.00037887 0.00048422
N 10.69677261 1.52175040 16.74793755 0.00410894 -0.00111357 -0.00474224
N 9.23741732 8.47588353 11.95208834 -0.00283552 0.00234635 0.00791266
N 7.40724527 5.54477063 19.25376788 0.00291102 0.00367383 -0.00854983
N 8.81205458 4.22068110 23.86248083 0.00181650 0.00088392 -0.00137412
N 9.23510271 9.03250857 26.12626289 0.00237249 -0.00798361 0.00450219
N 10.86502383 0.78808331 21.46931790 -0.00189572 0.00336727 -0.00257036
N 8.36635296 3.47233448 19.76643847 -0.00629961 0.00660151 -0.00060438
N 7.54838993 6.09523782 24.14461669 -0.00029588 0.00184027 -0.00048199
N 10.75228697 1.23899482 25.53899857 0.00031849 -0.01325947 -0.00382865
N 9.64289637 8.56699981 21.24982947 -0.00104414 0.00445262 -0.00268258
N 7.38460180 15.12552308 0.96122722 0.00320303 -0.00759568 0.00802467
N 9.14210408 13.84869366 5.54318019 -0.00238223 0.00204910 0.00555745
N 9.55392277 18.46574915 7.75055389 0.00441641 -0.00052056 0.00365138
N 10.41365934 10.38725414 3.46029882 -0.00345533 0.00220454 -0.00455255
N 8.61728630 13.05576777 1.07920002 0.00307955 -0.00009642 0.00579608
N 7.68666626 15.53502565 5.81389011 -0.00266762 -0.00637892 -0.00050034
N 10.67600711 11.03971749 7.55520349 0.00084731 -0.00841993 -0.00122512
N 9.93185131 17.95578302 2.92741200 -0.00123212 -0.00210120 -0.00388625
N 7.43306007 15.21342806 10.15430673 0.00004819 0.00430188 0.00211367
N 8.87076417 13.69902061 14.62740913 0.00611212 0.00364294 -0.01083545
N 9.48679884 18.32249755 16.97799521 0.00424493 0.00256221 0.00516032
N 10.38062240 10.38743388 12.46604368 0.00409953 -0.00300311 -0.00103039
N 8.73792717 13.35337554 10.28748025 -0.00066067 -0.00394784 0.00022459
N 7.56909464 15.53677291 15.17767963 -0.00239828 0.00187236 0.00376616
N 10.76699216 10.51761299 16.75765263 0.00503350 -0.00425281 -0.00070707
N 9.59550233 18.04955547 12.21992064 -0.00249226 -0.00219254 -0.00134027
N 7.57493651 15.04987223 19.34595227 0.00349384 0.00250451 -0.00134448
N 9.04654399 13.81747569 23.90927526 0.00150489 -0.00609314 0.00395899
N 9.41528034 18.36705973 25.88900379 0.00210324 0.00405388 -0.00179970
N 11.19174561 10.29544905 21.87789376 0.00150258 -0.00260056 0.00115520
N 8.91189041 13.21403285 19.51978987 -0.00020479 -0.00761256 0.00619113
N 7.60304560 15.51237228 24.11879556 0.00378616 -0.00229503 0.00311863
N 10.79277483 10.70804962 25.80149067 -0.00237585 -0.00230798 -0.00253274
N 9.52067545 17.84598582 21.19482384 0.00048248 0.00320580 0.00530228
N 7.88038349 24.76862259 1.35536514 -0.00306363 0.00960902 0.00718028
N 9.29611866 23.43874741 5.84382750 -0.00112020 0.00020263 0.00109122
N 9.35431212 27.91641055 7.96114351 0.00104578 0.00665647 -0.00324462
N 11.11459241 19.94383623 3.28613788 -0.00037418 0.00328617 0.00654890
N 8.82858031 22.66967630 1.71911756 0.00429007 0.00050716 0.00533653
N 7.83776493 25.20245435 6.25613830 0.00409036 -0.00578011 0.00141144
N 10.66960352 20.45406366 7.49658723 -0.00373745 -0.00460118 -0.00549714
N 9.60769456 27.51464649 3.00304715 0.00432435 0.00246632 -0.00348154
N 7.65960252 24.95073075 10.06990614 -0.00287800 0.00133128 -0.00580632
N 8.69606757 23.33190929 14.65926951 0.00012249 -0.00047704 0.00759635
N 9.26679488 28.47013054 16.55436081 0.00222590 -0.00270194 -0.00274926
N 10.59458435 20.07319467 12.58377543 0.00242584 -0.00455387 0.00358787
N 8.97301175 23.14005434 10.52272791 0.00262017 -0.00717960 0.00034914
N 7.54616584 25.18570795 15.04110604 0.00209843 -0.00959009 -0.00354169
N 10.60729990 20.35291057 16.60748170 0.00135010 -0.00765892 -0.00625945
N 9.42536099 27.72091024 12.33254935 -0.00260180 0.00551348 -0.00056997
N 7.58601554 24.64195703 19.20884302 0.00502959 -0.00609457 -0.00699728
N 8.73476246 23.29498365 23.52451208 -0.00377765 0.00065391 0.00224850
N 9.42128506 28.09368885 25.89015055 0.00654685 0.00194045 0.00897902
N 10.65533039 19.85847031 21.36237809 0.00130778 -0.00372662 0.00535277
N 8.77810706 22.68255244 19.39491584 -0.00436006 -0.00212588 -0.00364081
N 7.67148601 25.27598192 23.85793955 0.00170302 -0.00569626 -0.00067358
N 10.78971988 20.36667321 25.89779618 -0.00303773 -0.00444728 -0.00018936
N 9.53241958 27.69164213 20.97487550 0.00061168 0.00119634 -0.00066251
N 11.48608031 5.58255270 1.00277077 -0.00281792 -0.00545896 0.00182448
N 12.71430689 4.14383945 5.56281389 -0.00049231 -0.00165297 0.00667470
N 13.28575831 8.93653851 7.79679303 0.00121663 0.00944117 -0.00480006
N 14.35719544 0.64096269 3.19462075 -0.00012585 -0.00883838 -0.00128558
N 12.52155320 3.55655193 1.19467271 -0.00093738 0.00124260 -0.00007087
N 11.66139311 6.08697195 5.93498365 -0.00526728 -0.00351071 -0.00375207
N 14.27622043 1.36658632 7.54836735 -0.00086536 0.00365606 -0.00495446
N 13.55000898 8.22813361 3.35434747 0.00070546 -0.00019142 0.00265673
N 11.18254886 5.70192912 10.14204324 0.00210917 0.00289138 0.00417054
N 12.58187426 3.79490423 14.59199700 0.00304030 -0.00011571 -0.00156609
N 12.99802012 8.75514273 17.43280521 -0.00628433 0.00567023 -0.00752398
N 14.51630580 0.95341199 13.07193577 0.00237005 0.00343313 0.01287102
N 12.15090620 3.55890302 10.39538206 0.00607082 0.00010580 0.00036867
N 11.40378686 5.70888155 15.29970830 -0.00185499 0.01029312 0.00173762
N 14.30224880 1.26985203 17.09604004 0.00253202 -0.00468974 0.00393901
N 12.90347289 8.51369336 12.33159469 -0.00136651 0.00738256 0.00110003
N 11.52571819 5.71822262 19.42204810 0.00447931 -0.00256601 -0.00639006
N 12.62435579 4.21527459 24.07808811 -0.00011450 0.00062328 -0.00032124
N 13.11115355 8.90757977 25.99505178 0.00113343 0.00398220 -0.00122979
N 14.52745131 0.85574194 21.78702666 -0.00134705 -0.00268980 0.00273365
N 12.74766487 3.70815266 19.83165772 0.00141985 -0.00052052 0.00081089
N 11.23144183 6.07509585 24.13402385 0.00013751 -0.00168962 -0.00390162
N 14.46856245 1.17221263 25.84514489 0.00162639 -0.00578848 0.00068582
N 13.39006158 8.45206523 21.20598355 -0.00282033 -0.00738502 0.00236458
N 11.25183238 14.84967199 1.20066310 0.00423612 -0.00274822 -0.00366251
N 12.70252006 13.57784548 5.66828436 0.00170793 -0.00639472 -0.00149571
N 13.03767915 18.63926896 8.05331066 -0.00771276 0.00025624 -0.00411627
N 14.70242865 10.23611563 3.38906205 -0.00346442 0.00080266 -0.00291289
N 12.61920361 13.00013524 1.54713695 -0.00205262 -0.00073241 0.00197535
N 11.72264945 15.59425127 6.24728605 -0.00359023 -0.00162054 -0.00061016
N 14.38037619 10.96969361 7.68124881 0.00274751 -0.00748860 -0.00071643
N 13.16788353 17.80534255 3.35279827 -0.00086459 0.00544577 -0.00042445
N 11.29483028 15.15206878 10.25482059 0.00229648 -0.00068673 -0.00185908
N 12.36841710 13.49504264 14.58014247 0.00022893 -0.00255687 -0.00010403
N 13.24725595 18.28406800 17.07018480 0.00489625 -0.00524355 0.00430952
N 14.50036058 10.28382114 12.47684259 0.00797055 -0.00126567 -0.00346265
N 12.54625707 13.14795412 10.61812471 -0.00949639 0.00710419 -0.00091762
N 11.49605981 15.66104300 14.90781061 0.00055702 -0.00028070 -0.00435139
N 14.15735797 10.48005435 16.57472618 -0.00670111 0.00069804 -0.00123312
N 13.20505059 17.73267919 12.23902258 0.00071612 0.00238895 0.00265632
N 11.30838310 15.11613372 19.50550113 -0.00413518 -0.00261128 -0.00014500
N 12.58216969 13.71632957 23.98745459 -0.00198757 0.00333708 -0.00218585
N 13.00356748 18.42728006 26.37260449 -0.00459271 0.00176667 0.00184104
N 14.65272497 10.27702526 21.77300824 0.00183572 0.00197227 0.00288344
N 12.26254742 13.02134199 19.69928021 0.00234555 0.00558723 0.00058537
N 11.32396109 15.64888659 24.05715020 -0.00091533 0.00535652 0.00417422
N 14.00601873 10.95232859 25.65434260 0.00302614 0.00366129 0.00410244
N 13.14303354 17.90932951 21.23261616 0.00330749 0.00109296 -0.00875187
N 11.17274553 24.95079452 0.96209087 -0.00359925 -0.00056111 -0.00001168
N 12.83436513 23.40768783 5.56868800 -0.00007263 0.00331845 0.00672722
N 13.08262571 28.19288329 7.92312930 0.00098971 -0.00163453 -0.00493921
N 14.39655892 19.77206457 3.41475905 -0.00154264 0.00127503 0.00505961
N 12.32568967 22.94003376 1.35426206 -0.00398413 0.00537458 0.00137493
N 11.52450368 25.26287921 6.05508188 0.00327278 -0.00405026 -0.00130684
N 14.35730831 20.50378343 7.73737436 0.00282599 0.00429757 -0.00293251
N 13.18697642 27.47803684 3.40313780 0.00248283 0.00190270 -0.00325187
N 11.59171430 25.04434531 10.34003458 -0.00048517 -0.00096569 0.00042593
N 12.60772501 23.23574919 14.86896231 -0.00401249 0.00593263 -0.00333582
N 12.89328810 28.27561170 17.10162285 -0.00017959 0.00266197 -0.00390637
N 14.29884434 19.70910765 12.51092770 -0.00010576 -0.00052870 0.00095445
N 12.22732930 22.89770012 10.82525683 0.00548501 0.00611063 0.00848796
N 11.36906904 25.18612594 14.75784269 0.00112701 -0.00367035 -0.00525014
N 14.20916670 20.34159810 16.64795504 0.00626141 -0.00162491 0.00424613
N 13.28139316 27.80087398 12.24964619 -0.00423677 0.00175025 0.00083307
N 11.44239861 24.80435246 19.32260561 0.00171377 -0.00143851 -0.00689182
N 12.59782756 23.33125208 23.94922420 -0.00551580 0.00516995 0.00113757
N 13.09119369 28.19801911 26.12290150 0.00378810 0.00696141 0.00039736
N 14.46730167 19.80462064 21.49933582 -0.00005153 0.00244765 -0.00556911
N 12.49414612 22.79305765 19.74795967 -0.00180239 -0.00555700 0.00128072
N 11.23926938 25.21026012 24.00218058 0.00238724 0.00036329 -0.00511091
N 14.03226803 20.35606670 25.83804170 -0.00169066 0.00159057 -0.00082702
N 13.35514895 27.63983931 21.52727904 -0.00636769 -0.00024058 0.00482458
N 15.26705885 5.67867367 1.14997024 -0.00549670 0.00027140 0.00144543
N 16.54941887 3.80911756 5.75713563 0.00083340 0.00033118 0.00283801
N 16.87832578 8.73820670 7.82931343 0.00243869 -0.00464420 -0.00061467
N 18.24614997 0.54954983 3.61764268 0.00441142 -0.00585238 0.00572161
N 16.20912439 3.57773675 1.68362158 0.00012065 -0.00049304 0.00116177
N 15.33361223 5.75793081 6.00520813 -0.00361571 -0.00458241 0.00496283
N 18.08748379 1.10399225 7.78049338 0.00560918 0.00493902 0.00030800
N 16.95113164 8.28963731 3.26815076 0.00308854 -0.00113244 -0.00008456
N 14.53461448 5.43493575 10.20005386 0.00005735 -0.00435751 -0.00526774
N 16.33136415 4.04184325 14.98828425 0.00144960 -0.00000747 0.00127384
N 16.74996888 8.97601821 16.83878802 0.00539987 0.00334376 0.00190262
N 18.02033490 0.54906888 12.50777123 0.00416226 0.00026017 0.00005130
N 15.46393406 3.36094445 10.80565877 -0.00752947 0.00073864 0.01013257
N 14.87834347 5.91280827 15.29425622 0.00844773 0.00469376 -0.00455542
N 18.06215481 1.12587638 16.89765575 -0.00775386 -0.00253991 -0.00016941
N 16.74946907 8.24960060 12.17959813 0.00409313 0.00318642 -0.00567867
N 15.26809400 5.41760235 19.23700574 0.00412470 -0.00227808 -0.00458306
N 16.27948992 4.07182535 24.05923129 -0.00337953 0.00122931 0.00678255
N 16.70514556 9.04706180 26.05060870 -0.00035858 -0.00536803 -0.00103651
N 18.18898247 0.57487325 21.62078952 0.00128167 0.00342098 0.00861970
N 16.37922426 3.53837204 19.90343788 0.00011589 -0.00055801 -0.00041126
N 14.96896890 6.00812318 24.20578499 0.00285182 -0.00338567 0.00324295
N 17.87121664 1.35953233 26.07726098 -0.00344257 -0.00725981 -0.00423576
N 17.04722316 8.16800636 21.25373687 -0.00524659 0.00468516 -0.00376829
N 14.90674590 15.05507736 1.09834344 -0.00125769 -0.00245554 0.00512967
N 16.22901155 13.74200927 5.69803866 -0.00777815 0.00423454 0.00300326
N 16.90568868 18.28986403 8.12756793 0.00439393 -0.00094925 0.00089440
N 18.45483218 10.15871417 3.35192195 -0.00178311 -0.00054954 -0.00059267
N 15.98580217 13.06168845 1.41709613 -0.00875641 0.00197316 0.00172842
N 15.13518893 15.56738503 6.31299953 0.00009963 -0.00189381 -0.00836423
N 17.95613282 10.83541227 7.69951001 0.00558458 -0.00224433 0.00405332
N 16.68783892 17.89594432 3.59026027 -0.00266390 0.00187098 0.00148521
N 14.77902589 15.31554981 10.33907503 0.00414370 0.00645220 0.00268673
N 16.66258748 13.76435960 14.87919039 -0.00132222 -0.00792856 0.00015420
N 16.54905876 18.54950491 16.89827359 0.00188044 -0.00190177 0.00331219
N 18.10420359 10.12901348 12.30304266 -0.00337416 -0.00168433 0.00586399
N 16.09982536 13.38104981 10.63911505 -0.00233221 -0.00470254 0.00062849
N 15.06965869 15.34936493 14.97523659 0.00049839 0.00676856 0.00000263
N 18.15583905 10.86803821 16.83660502 0.00566630 -0.00318617 -0.00021907
N 16.88929734 17.98604357 12.47511128 0.00225311 -0.00383252 -0.00259092
N 14.70042424 14.81707011 19.27249458 -0.00257481 -0.00348049 -0.00329699
N 16.09291154 13.59838876 23.83245216 0.00162265 -0.00397791 -0.00202873
N 16.51487763 18.91307489 26.08915417 0.00028299 -0.00010862 -0.00565225
N 18.23982047 10.05315264 21.49859417 0.00140345 -0.00045312 -0.00044513
N 16.28286461 13.07888259 19.44094596 0.00180351 -0.00397545 0.00180881
N 14.86602802 15.53637432 24.11285832 -0.00637275 -0.00404290 -0.00162321
N 18.04737975 10.91951589 26.09844427 -0.00162046 -0.00053333 -0.00227782
N 16.66901084 17.74388622 21.43900374 -0.00165900 -0.00105559 0.00853422
N 14.84756783 24.64898808 1.30010042 0.00275920 0.00417801 -0.00197490
N 16.33581774 23.07400299 5.75731681 0.00080025 0.00615153 -0.00419639
N 16.77270299 28.05652828 8.30163515 -0.00584323 0.00221779 0.00379848
N 17.93846076 19.81207897 3.52799154 0.00250629 -0.00066680 0.00445532
N 15.96503062 22.63821068 1.13446995 0.00313064 0.00099380 0.00007641
N 15.22768108 25.05975832 6.27325548 -0.00636948 -0.00691609 -0.00437824
N 17.94210745 20.34116355 7.75993002 -0.00086542 0.00046717 -0.00136935
N 16.93585767 27.34636301 3.21919895 0.00012967 -0.00455127 -0.00122509
N 14.95838531 24.75928743 10.47245925 0.00063616 -0.00542371 0.00180371
N 16.26300008 23.38203375 14.91163477 0.00002058 0.00052387 -0.00049833
N 16.90038610 27.98650861 17.24463774 0.00346980 0.00378793 0.00173705
N 17.94981969 20.03758461 12.58211245 -0.00111439 -0.00109404 0.00191630
N 16.26643151 22.82480319 10.74601922 -0.00945475 0.00877581 0.00469023
N 14.85285741 25.06437918 15.34519840 0.00118165 -0.00868885 -0.00614504
N 17.93400601 20.44640444 16.76148027 -0.00126107 -0.00272960 0.00065277
N 16.69401274 27.46915046 12.45693311 -0.00120098 -0.00132271 0.00298399
N 14.61698616 24.72895226 19.32235864 0.00009417 0.00233907 -0.00118799
N 16.28889088 23.26914378 23.68736436 -0.00183980 0.00306934 0.00064593
N 17.04572042 27.98357348 26.30414741 0.00030526 -0.00536472 0.00563053
N 18.09973775 19.67209897 21.70153126 0.00066151 0.00491666 -0.00081377
N 15.94698750 22.88112742 19.59850306 0.00374641 0.00130319 -0.00116582
N 14.95984138 25.15648603 24.21193975 0.00644860 -0.00003717 -0.00009934
N 17.89463352 20.72183515 25.95088463 0.00474719 0.01210928 -0.00321936
N 17.00718316 27.47497155 21.29959090 0.00331718 0.00538340 -0.00415762
N 18.83392726 5.43250092 1.29434998 -0.01034619 -0.00425184 -0.00113779
N 20.39259999 3.89825937 5.77144823 0.00166343 -0.00118173 -0.00303023
N 20.34120225 8.95271788 7.69205266 -0.00577844 -0.00418482 -0.00179059
N 22.01532022 0.17026640 3.35076535 0.00251931 -0.00763478 0.00074781
N 19.96020154 3.48938647 1.56680915 0.00390041 0.00189954 -0.00163402
N 19.09423197 5.85333846 5.94050378 -0.00592649 0.00070969 0.00124119
N 21.65070328 1.22179291 7.50444468 -0.00178305 -0.00349520 0.00271013
N 20.71514446 8.47739335 2.92858710 0.00501019 -0.00722015 -0.00294903
N 18.42054517 5.27188858 10.25125210 -0.00238212 -0.00344341 0.00289250
N 19.91153757 3.93114512 14.72946680 0.00485440 0.00198506 -0.00401256
N 20.46913965 8.86334429 16.71899283 -0.00514714 -0.00182624 0.00266366
N 21.67953164 0.57257302 12.45732909 0.00581769 0.00135001 0.00370684
N 19.49755294 3.28808454 10.57701952 -0.00051031 0.00449860 -0.00129218
N 18.61522407 5.91608292 14.94101324 0.00062735 0.00392498 -0.00487194
N 21.89926579 1.22776735 16.54327644 0.00467195 -0.00394116 0.00247907
N 20.39652461 8.39054937 11.74006510 0.00333571 0.00319852 0.00202438
N 18.82186559 5.51262502 19.33130287 -0.00029968 -0.00195490 -0.00196372
N 19.98277468 4.10462346 23.89913995 0.00215564 -0.01130102 0.00403995
N 20.62492789 8.65998487 26.33318082 -0.00648231 -0.00187997 -0.00206781
N 21.83039705 0.68409972 21.52010033 -0.00117072 0.00701743 -0.00286166
N 20.11625012 3.69049822 19.66897168 0.01096709 -0.00070175 0.00332827
N 19.09710389 6.12659008 24.34539991 -0.00391114 0.00443494 0.00212792
N 21.74908875 1.28711086 26.05962581 0.00233043 0.00073129 -0.00986700
N 20.57290466 8.22466332 21.34261725 0.00448259 -0.00102381 0.00031589
N 18.40960136 15.02428077 1.43373599 -0.00850318 -0.00162561 -0.01061356
N 20.02096810 13.84503138 5.95337261 -0.00268434 0.00174323 0.00369714
N 20.43234736 18.59606391 8.10274211 -0.00258651 0.00125970 -0.00375005
N 0.03779012 10.38147313 2.96506049 0.00237088 0.00420066 -0.00135614
N 19.57521914 13.00983404 1.70362446 0.00468894 0.00222998 0.00132881
N 18.83145334 15.85120731 6.33141755 -0.00196099 -0.00179037 0.00206317
N 21.65381428 10.84583519 7.51650375 -0.00053957 0.00287691 0.00064982
N 20.48140371 18.07961410 3.15761871 0.00261637 -0.00328759 0.01012620
N 18.63037947 15.09071445 10.33297648 -0.00025186 0.00038917 -0.00347963
N 19.87969629 13.48870397 14.77091914 -0.00713580 0.00471941 -0.00686519
N 20.18860327 18.45721519 17.31370070 -0.00234087 -0.00304639 -0.00051658
N 21.92904320 10.07958085 12.39155175 -0.00130203 -0.00525229 0.00065443
N 19.79705183 13.13452474 10.58786697 0.00123225 0.00222124 -0.00362469
N 18.91042320 15.58220522 15.15318381 -0.00121864 0.00648199 -0.00745193
N 0.04191907 10.59758818 16.72613435 -0.00382491 -0.00973039 0.00023222
N 20.51641867 17.85357934 12.42894815 0.00071370 0.00298005 -0.00321707
N 18.51395467 14.94657103 19.20231739 -0.00055553 0.00302958 0.00282519
N 19.73231916 13.73299935 23.86158891 0.00002124 -0.00158433 0.00396278
N 20.32837469 18.90700861 26.34261579 0.00347867 -0.00316648 -0.00531619
N 21.73668612 10.18651372 21.60009708 -0.00161949 0.00138169 0.00271481
N 19.82378413 13.21215514 19.78742279 -0.00566267 -0.00232231 -0.00460766
N 18.60247656 15.61546201 24.26991339 0.00002932 0.00579912 0.00408659
N 21.79933653 10.60674464 25.75560259 0.00505398 0.00442374 0.00440620
N 20.41317705 17.73244536 21.71810864 0.00138444 -0.00072351 -0.00493884
N 18.45160235 24.40028445 1.20785150 -0.00179612 -0.00053257 0.00202720
N 20.09998379 23.31251968 6.19040362 0.00205725 -0.00345469 0.00776359
N 20.22354434 28.17682074 8.03052014 -0.00130673 -0.00037492 0.00465798
N 21.94366917 19.84448165 3.61427000 0.00395467 0.00013012 -0.00119225
N 19.88370977 22.72503299 1.75899960 -0.00037427 0.00706822 0.00276727
N 18.79717038 25.28672125 6.12583442 0.00111140 0.00218998 -0.00138042