1728
Time=20999.99999999 pbc="T T T" Lattice="22.02588289 0.00000000 0.00000000 0.00000000 28.96088613 0.00000000 0.00000000 0.00000000 27.25112473" energy=-10389.43956375 virial="43.44145743 -27.17667141 35.50841458 -27.17667141 43.59456459 13.70732370 35.50841458 13.70732370 -56.06283019" stress="0.00470594 -0.00149451 0.00201399 -0.00149451 0.00516138 0.00089682 0.00201399 0.00089682 -0.00028687" Properties=species:S:1:pos:R:3:vel:R:3
N 0.37678295 5.21433609 1.24971873 0.00010702 -0.00032958 0.00204610
N 1.34886003 3.90826750 5.88791265 0.00106658 0.00591990 -0.00464547
N 2.07984319 8.99955904 7.70028529 -0.00678281 0.00199625 0.00582504
N 3.58897469 0.55075350 3.21729506 0.00186625 -0.00510195 -0.00108437
N 1.65590928 3.37654974 1.64936830 -0.00435887 -0.00473325 -0.00073355
N 0.35892297 5.92152304 6.08987955 -0.00413928 0.00168391 0.00146845
N 3.00201337 1.25156513 7.53426090 -0.00584158 -0.00409920 0.00220240
N 1.79090591 8.24699473 3.11120449 -0.00243996 -0.00664882 -0.00459033
N 0.31600757 5.33549642 10.72145674 -0.00637788 -0.00171036 0.00133686
N 1.53380039 3.94300794 14.57865575 0.00047405 -0.00231684 0.00434494
N 2.41242090 8.78248089 17.08010945 0.00131434 -0.00614582 0.00212867
N 3.37989980 0.71465612 12.55820357 0.00212562 0.00103019 0.01013660
N 1.46078479 3.33207214 10.74102149 0.00014504 -0.00124124 -0.00070374
N 0.63261157 5.98854679 14.99304202 -0.00328269 -0.00122987 0.00402920
N 3.30788394 1.33783636 16.92657579 -0.00037537 0.00219812 0.00136466
N 2.07484879 8.77357078 11.97733306 -0.00087474 0.00489814 0.00752124
N 0.14251485 5.39704644 19.47110711 0.00276484 -0.00513194 -0.00078529
N 1.55230017 4.15396508 23.32200180 0.00379100 -0.00579501 -0.01162008
N 1.98519787 8.93174365 26.09075899 -0.00051142 0.00014624 0.00474157
N 3.10815816 0.56218363 21.24535619 -0.00525893 -0.00110783 -0.00522579
N 1.63155918 3.57068177 19.42722432 0.00714535 0.00187514 -0.00407345
N 0.61354540 6.17968808 23.86738089 -0.00587957 0.01023121 0.00342013
N 3.43065758 1.34915296 25.37529338 -0.00037388 -0.00954922 -0.00049440
N 2.22472761 8.81141018 21.28456835 0.00258766 0.00698560 0.00104418
N 0.26562299 15.24302823 1.24999349 -0.00236719 0.00109562 0.00563334
N 1.38469461 13.90732848 5.94945332 0.00637836 0.00268733 0.00048289
N 1.94590852 18.81079421 8.01286102 0.00415774 -0.00670353 -0.00415444
N 3.09453135 10.20951993 3.38073922 0.00376097 0.00029130 0.00902332
N 1.52666774 13.33750984 1.47458769 0.00809033 -0.00212078 -0.00676089
N 0.62291388 16.03061933 6.36451182 -0.00036185 0.00067815 -0.00664491
N 2.98733328 11.09105808 7.45311360 0.01101340 0.00991823 -0.00760796
N 2.27413065 17.94807737 3.18624578 0.00448735 0.00363709 0.00159970
N 0.17144826 15.40443790 10.53592477 -0.00219637 -0.00098665 0.00617786
N 1.27515971 13.74860696 15.10915463 -0.00021229 -0.00074822 -0.00148463
N 2.16285287 18.55754707 16.65703417 -0.00490790 -0.01137066 0.00347096
N 3.27387634 10.65635467 12.53511126 -0.00211287 0.00177984 -0.00428626
N 1.44690918 13.48479117 10.52780503 0.00220296 0.00721483 0.00470366
N 21.89200943 15.55126528 15.26073554 -0.00564159 -0.00533851 0.00386743
N 3.08136137 10.94672993 16.59757202 0.00071629 0.00102729 0.00614397
N 1.79393217 18.18540183 11.96033920 0.00211049 0.00118953 -0.00189233
N 0.10541502 15.31335596 19.58802810 0.00296160 -0.00690773 -0.00803713
N 1.83029149 13.99263002 23.86150284 0.00132049 -0.00027172 -0.00234504
N 2.27294781 18.71543802 25.82012597 -0.00384638 0.00754894 -0.00069468
N 3.19109909 10.89597222 21.34196948 -0.00063618 0.00016472 0.00297585
N 1.52592942 13.32060025 19.62929747 -0.00264878 -0.00325289 0.00358550
N 0.68199587 15.95853316 23.81193402 0.00294072 0.00547765 -0.00469597
N 3.38042838 10.77486745 25.74359548 -0.00538391 0.00720630 -0.00147769
N 2.15941996 18.42954389 21.15248179 0.00042356 0.00058403 -0.00160353
N 0.12891115 24.83653201 1.31301314 0.00254517 0.00231202 0.00776023
N 1.67664368 23.26609453 5.55304303 -0.00066898 0.00024536 -0.00173851
N 2.07305239 28.18475104 8.09445931 -0.00883639 -0.00263981 -0.00547202
N 3.49891757 19.88758384 3.36096548 0.00010125 0.00234847 -0.00383527
N 1.57722215 23.09777742 1.54624551 0.00160842 0.00172766 -0.00521567
N 0.32650143 25.12976565 5.86121746 0.00525598 0.00488078 0.00014372
N 3.30468303 20.73864260 7.76349049 0.00425663 -0.00339578 0.00383353
N 2.09457094 27.69468431 3.08343838 0.00572623 0.01047614 -0.00148080
N 0.31298588 24.70727863 10.55758532 0.00202538 -0.00050617 -0.00488143
N 1.67287153 23.45759915 14.92793316 0.00104236 0.00516110 -0.00237152
N 2.14689953 28.30932474 16.85324760 -0.00356038 0.00239658 0.00445835
N 3.50228489 19.77348118 12.23161201 0.00162628 0.00068860 -0.00363391
N 1.47379933 22.80343579 10.56518949 0.00267340 -0.00032354 -0.00212629
N 0.31590012 25.26312933 15.32564771 0.00693518 -0.00443133 -0.00574754
N 3.47166806 20.47566912 16.62802744 0.00381856 0.00252964 -0.00659939
N 2.33163850 27.59413083 12.41349206 -0.00678261 -0.00184331 -0.00506216
N 0.35944578 24.51758075 19.60198070 0.00322849 0.00136889 0.00240131
N 1.89142600 23.59080367 24.27486141 0.00632869 0.00407019 0.00247129
N 2.26034748 28.51305824 26.08446704 -0.00145665 0.00031993 0.00182616
N 3.30924334 20.33827212 21.72203367 -0.00103463 -0.00340867 0.00404230
N 1.84100937 22.66507702 19.71544989 -0.00307360 -0.00037715 0.00475046
N 0.52192927 25.56546891 24.53454430 -0.00360155 -0.00452843 0.00478381
N 3.45809001 20.65936535 25.90670517 0.00230783 0.00322887 0.00276322
N 2.26460600 27.41552271 21.13449161 0.00037159 0.00849137 0.00244638
N 4.08058382 5.19155485 1.07656175 0.00049086 0.00362643 -0.00616998
N 5.39005714 3.98398730 5.56658419 -0.00014226 0.00063137 0.00007359
N 5.33517718 8.73077200 7.87959071 0.00532644 -0.00152195 -0.00114704
N 7.29778286 0.51434495 3.12074246 -0.00254741 0.00050834 0.00794876
N 5.35320619 3.34219546 1.12452006 -0.00229143 -0.00001924 -0.00399349
N 3.77683023 5.60150993 6.10033833 -0.00041439 -0.00693192 -0.00110628
N 7.22497319 1.11936367 7.48852700 -0.00160744 0.00555874 -0.00871135
N 5.65874001 8.20416943 2.87131482 0.00324573 -0.00028889 0.00226361
N 3.85257352 5.60939736 10.45261810 0.00347145 0.00632046 -0.00219848
N 5.34869185 4.25115594 14.56516457 -0.00431772 -0.00008568 -0.00128349
N 5.52860565 9.15960013 16.78530777 -0.00491625 0.00287015 0.00503586
N 7.36347118 0.81376395 12.36549227 -0.00255205 0.00033763 -0.00614849
N 5.19427915 3.72292139 10.52305277 0.00500534 0.00944673 0.00619642
N 4.27253070 6.29160803 14.97716562 0.00480989 -0.00482649 0.00015341
N 6.74812054 1.67383097 16.46029741 -0.00070127 0.00742975 -0.00617724
N 5.86709574 8.45688169 12.15435874 -0.00393598 0.00074365 0.00608634
N 4.00730098 5.96727283 18.88782946 0.00579290 -0.00413361 -0.00568110
N 5.25208031 3.88141227 23.40097874 -0.00030876 0.00116790 -0.00063516
N 6.00776532 8.56231656 26.08690181 -0.00098881 0.00268828 0.00250537
N 6.46243933 0.48500208 21.49564795 -0.00333971 -0.00473089 0.00524882
N 4.95503209 3.87608398 19.28979614 -0.00085078 -0.00618144 0.00180936
N 4.32858088 5.83660456 24.05635085 0.00031265 -0.00624401 0.00266657
N 7.14127303 1.25050278 25.38270107 -0.00545790 -0.00309310 0.00016436
N 6.16510065 8.42544038 21.13677029 -0.00227656 -0.00445520 0.00044780
N 3.78926095 14.84580367 1.51548595 0.00365032 -0.00088773 0.00399301
N 5.27412904 13.29812042 5.18910992 -0.00545806 0.00562734 -0.00145687
N 6.02055550 18.32530623 8.00617809 -0.00597050 -0.00163683 -0.00275784
N 6.90794198 10.06726873 3.25912442 -0.00113597 -0.00460519 0.00562138
N 5.05404126 12.88518960 1.70355233 -0.00020740 -0.00037168 -0.00485332
N 4.02801283 15.01762841 6.01663277 -0.00790587 0.00891192 -0.00222722
N 6.57543614 10.66358121 7.42214631 0.00160228 0.00459229 0.00318381
N 5.98624072 17.98957426 3.04359279 -0.00475187 0.00194891 0.00853568
N 3.85620304 15.36044136 9.82093383 -0.00597080 0.00636793 -0.00398351
N 5.24272329 13.81287276 14.48513125 -0.00102877 0.00208410 0.00065469
N 5.77796695 18.55131225 16.92199280 0.00160326 0.00333728 0.00572831
N 6.91278081 10.55274341 12.53504909 0.00298986 0.00464538 0.00619909
N 4.92833901 13.58630264 10.78220764 0.00158399 0.00068250 0.00156830
N 4.31016442 15.86854437 14.76734017 -0.00268249 -0.00376894 0.00225582
N 7.09692444 10.80342282 16.53607031 0.00373336 0.00464965 -0.00094242
N 5.72775137 18.09006440 12.01858064 -0.00331701 0.00031476 0.00022521
N 3.88396421 15.32376522 18.98670214 0.00144765 -0.00283169 -0.00451111
N 5.03390439 13.59390730 24.03557978 -0.00360260 -0.00120821 -0.00132590
N 5.66566458 18.87229187 25.97868916 -0.00450963 0.00079095 0.00569715
N 7.26867593 10.40629399 21.38242904 0.01026789 -0.00129317 0.00081658
N 4.94738684 13.26637894 19.30828746 -0.00022467 0.00379468 -0.00051041
N 4.33887174 15.72557605 24.26370930 -0.00475850 -0.00288855 0.00160081
N 6.83691362 10.69225011 25.88330602 -0.00714296 0.00813237 -0.00054925
N 5.84635684 18.16629284 21.20731662 0.00485274 -0.01074511 -0.00393532
N 3.93398560 24.82547840 1.11171656 0.00342521 0.00366908 0.00392202
N 5.20330805 23.54975054 5.82952661 -0.00028191 0.00363723 0.00435262
N 5.49662267 28.58273794 7.76256768 -0.00411225 -0.00076934 -0.00052866
N 6.89714969 20.07772672 3.58809866 -0.00047920 -0.00274405 0.00046286
N 5.13973138 22.92915645 1.55234549 -0.00055080 0.00898423 0.00260388
N 3.90006031 25.54851981 5.91499973 0.00171830 0.00097996 -0.00192390
N 6.80824718 20.45156117 7.74890637 -0.00011169 0.00035759 0.00238872
N 5.74917416 27.74656050 2.79565827 -0.00237017 0.00109675 -0.00151959
N 4.08169188 24.64251580 10.35239488 -0.00094836 0.00414807 -0.00531685
N 5.27767867 23.50576954 14.76566389 -0.00650905 -0.00363588 0.00125444
N 6.25228185 28.28456444 16.76056897 -0.00315317 -0.00108267 0.00509120
N 7.52729754 19.59096386 12.13506878 0.00405993 -0.00201863 0.00356990
N 5.19973933 22.60406132 10.38081441 0.00251627 0.00231499 0.00263231
N 4.02379622 25.40419119 15.35537794 0.00690053 0.00067251 0.00296244
N 6.89891634 20.57327215 16.78465193 -0.00609151 -0.00373523 -0.00071922
N 6.14374041 27.86754006 12.38366158 0.00407681 0.00378597 0.00314568
N 3.82631593 25.14946509 19.13664510 0.00655722 0.01079740 0.00481243
N 5.17587114 23.13276874 23.85134598 -0.00449416 0.00329576 -0.00077975
N 6.04068888 28.38448288 25.91633062 -0.00287477 0.00113795 -0.00263638
N 6.96307625 20.18327299 21.32778953 -0.00009797 -0.00126492 0.00104059
N 4.95082760 23.23239724 19.63417507 0.00458250 0.00322846 0.00188921
N 4.27381383 25.21374166 24.26586276 0.00282196 -0.00384701 -0.00116072
N 7.08423470 20.73853082 25.87492961 -0.00217886 0.00298874 -0.00069865
N 5.99244652 27.23912392 21.27316543 0.00096982 0.00703987 -0.00148634
N 7.69001955 5.54209744 1.03918398 0.00432439 -0.00153931 0.00191530
N 8.84354288 4.17932784 5.49581293 0.00140339 -0.00380219 0.00314068
N 9.05076700 8.88290301 8.02596320 -0.00011065 -0.00342420 0.01123980
N 10.81687359 0.63639358 3.70449746 -0.00219707 -0.00660128 0.00290190
N 8.93691255 3.75092894 1.31620987 -0.00419770 0.00476237 -0.00005464
N 7.50267990 6.02659561 5.75645762 0.00309732 0.00052303 -0.00310465
N 10.92952441 1.23822590 7.65268205 -0.00205500 0.00052640 -0.00841306
N 9.57368823 8.10850520 3.01783061 -0.00552338 -0.00001029 0.00162844
N 7.57071498 5.89792478 9.86787900 0.00417951 0.00284730 -0.00279304
N 8.94076441 4.52245168 14.65357205 -0.00107128 -0.00089209 -0.00332069
N 9.46647017 8.90577243 16.95729971 0.00949708 0.00127963 0.00078426
N 11.10448140 1.18533987 13.30498822 0.00331564 -0.00233023 0.00220051
N 8.68131370 3.90977640 10.56857018 0.00491900 0.00927020 0.00156660
N 7.61850703 6.30267874 15.11313351 0.00086554 -0.00603041 -0.00517007
N 10.21430459 1.52531053 17.10089471 -0.00321054 -0.00466508 -0.00058554
N 9.52993136 8.20245231 11.93244431 -0.00442151 0.00409506 0.00940581
N 7.43091042 5.67905212 19.45305152 0.00314420 -0.00075405 -0.00117653
N 9.02616638 4.12957412 23.98813479 0.00426551 0.00390602 -0.00584698
N 9.32369055 9.14009099 26.11331865 0.00325856 -0.00031162 0.00367503
N 10.79985861 0.57751506 21.48243060 -0.00046646 0.00097842 0.00059919
N 8.29101003 3.55524886 19.70824092 0.00712483 -0.00024590 0.00021024
N 7.56720466 5.99641600 24.20622593 0.00934300 0.00357534 0.00189990
N 10.78773449 1.12104744 25.53158635 0.00555433 -0.00572555 0.00373149
N 9.78764557 8.32328736 21.29172126 -0.00569262 -0.00119883 0.00110998
N 7.44499602 15.03473621 1.04406115 -0.00033372 -0.00603882 0.00924581
N 9.24361365 13.49541381 5.35149990 -0.00295286 0.00614669 0.00355436
N 9.53386562 18.76099487 7.67585030 -0.00640851 0.00502473 -0.00420419
N 10.75020055 10.04645638 3.40580992 0.00367374 0.00029716 0.00127002
N 8.87767384 13.40254370 1.52499741 0.00442377 -0.00399125 0.00148676
N 8.02539994 15.44128364 5.70476904 0.00113822 0.00010621 0.00774028
N 10.45970622 10.57646617 7.43319281 -0.00140875 -0.00142864 -0.00030759
N 9.35344596 18.02225064 2.82085998 -0.00704957 0.00014666 -0.00949881
N 7.65871508 15.16764440 9.95042324 -0.00369016 -0.00370845 0.00968421
N 8.91362743 13.56214598 14.47382109 -0.00199839 -0.00097368 -0.00108901
N 9.87497518 18.42415217 16.84080978 0.00422712 -0.00014272 0.00039758
N 10.57491089 10.34601178 12.19212590 -0.00323978 0.00053689 -0.00043504
N 8.55847628 13.08650275 10.03709288 0.00331853 0.00531660 0.00639609
N 7.82429871 15.53487694 15.05907685 0.00450073 0.00014923 -0.00107434
N 10.58494881 10.92350277 16.72401356 0.00781105 -0.00118625 -0.00022709
N 9.69546367 17.88393670 12.04997848 -0.00845845 0.00355272 0.00235920
N 7.54023823 15.23450279 19.35069860 -0.00780983 -0.00092092 0.00133768
N 9.05682830 13.96137690 24.22993223 -0.00578025 -0.00436319 0.00189589
N 9.38509923 18.52398639 26.22796547 0.00052012 -0.00504501 -0.00409595
N 10.96335537 10.26950551 21.75254556 -0.00430342 0.00484650 -0.00001089
N 8.79206400 13.39592507 19.57719544 0.00077494 -0.00120691 0.00323210
N 7.89798862 16.08187410 23.99002586 0.00014439 -0.00149264 0.00103628
N 10.39927211 11.18438046 25.75776296 -0.00030021 0.00537639 -0.00007637
N 9.57012971 17.93756983 20.95344403 -0.00360849 -0.00162449 -0.00228563
N 7.46398606 24.77909979 1.24623065 0.00068336 0.00061402 0.00021000
N 8.77211888 23.87595011 5.70633758 -0.00159093 0.00298931 -0.00002300
N 9.56394602 28.43512744 8.48339931 0.00437012 0.00184964 -0.00073165
N 10.50381410 19.84156217 3.51726347 -0.00908243 -0.00368330 0.00137582
N 8.71554099 22.94900240 1.62811550 -0.00457763 -0.00026371 -0.00064401
N 7.81450582 25.89476324 5.63334456 -0.00261455 -0.00486074 -0.00026372
N 10.62672314 20.88678064 7.50014457 0.00487313 0.00126571 0.00140340
N 9.47284280 27.87202852 3.07396323 -0.00064056 -0.00330913 -0.00285235
N 7.60586016 25.06302797 10.31257353 -0.00295955 -0.00188358 -0.00326457
N 9.06949780 23.68340532 14.78826988 -0.00339028 0.00356926 0.00057611
N 9.22825601 28.42113931 17.04403628 -0.00525593 -0.00310778 -0.00217459
N 10.55847264 20.02023817 12.10931191 0.00095773 0.00457892 -0.00139946
N 8.73738333 23.17354992 10.72033828 -0.00065948 -0.00007174 0.00638347
N 7.67788171 25.40590438 15.16581043 0.00557986 0.00273088 -0.00212827
N 10.44934843 20.63832181 16.48094296 -0.00116476 -0.00574893 0.00281016
N 9.96265651 28.46323734 12.26887830 -0.00045033 0.00210566 -0.00641045
N 7.63239601 25.07045946 18.50568655 -0.00495430 0.00155430 0.00042771
N 9.20529139 23.26036402 23.68929550 0.00440931 -0.00138414 -0.00146405
N 9.55118800 28.20009424 25.94502085 -0.00007603 0.00401420 0.00369506
N 10.74058810 19.81170737 21.34993495 0.00003606 -0.00368324 -0.00221246
N 8.36004785 23.16352184 19.56208013 -0.00136202 -0.00274135 0.00234638
N 7.91677809 25.10677217 24.29257413 -0.00641171 0.00588964 -0.00025071
N 10.62756708 20.43134520 26.13814357 -0.00027750 0.00127715 0.00059630
N 9.54200933 27.63019857 21.55082483 -0.00251682 -0.00333151 -0.00032394
N 11.17041655 5.62108928 1.32391522 0.00572239 -0.00090354 -0.00583748
N 12.32909902 3.90142261 5.92077504 -0.00504789 -0.00580646 -0.00075714
N 12.96404883 8.78552424 7.95154896 0.00046932 -0.00243862 0.01101783
N 14.35602970 0.91608482 3.59344257 0.00880479 0.00524385 0.00180448
N 12.68790360 3.85009807 1.57035850 -0.00048083 0.00131722 0.00989307
N 11.35217123 5.93898672 6.29916468 -0.00161932 0.00470542 0.00061263
N 14.41309608 1.65278128 7.77524252 0.00083461 0.00065196 -0.00219881
N 13.42671884 8.31974381 2.79150105 0.00272721 -0.00167717 0.00331171
N 11.01458841 5.48522644 10.95672306 -0.00040293 -0.00603519 0.00318189
N 12.52839731 4.28817320 15.13179050 -0.00014296 0.00579879 -0.00519356
N 13.00840824 9.04197679 17.23167594 0.00012203 0.00219863 -0.00516828
N 14.87457010 0.77287867 12.68477169 0.00258338 0.00002555 -0.00016156
N 12.53774213 3.88307356 10.96078913 0.00067103 -0.00634182 0.00049493
N 11.26511991 6.28072398 15.04478876 -0.00228443 -0.00055804 0.00014565
N 14.15642523 1.29584935 16.58469442 0.00116970 -0.00399661 -0.00174926
N 13.36559740 8.44284270 12.42915065 0.00106182 0.00333253 0.00190225
N 11.11389882 5.38307216 19.49460958 0.00276588 -0.00181057 0.00257190
N 12.57400846 4.09999828 24.00825957 -0.00163487 -0.00509045 0.00370856
N 13.22783543 8.73535283 26.11753348 0.00179251 0.00253289 0.00129668
N 14.56684695 0.47589064 21.61298707 0.00476825 0.00170380 0.00007720
N 12.39171504 3.38508125 19.80561221 -0.00213996 0.00675114 0.00330159
N 11.38680049 5.97463643 24.15994533 0.00475256 0.00248268 -0.00440116
N 14.36939116 1.12375931 25.77622578 -0.00331670 -0.00202255 -0.00154178
N 13.20909592 8.39422388 21.63266029 0.00418332 0.00459613 0.00819700
N 11.29937851 15.08462200 0.86549459 -0.00523448 0.00263056 0.00271958
N 12.78286295 13.58663479 5.75101612 0.00580977 -0.00315268 0.00168464
N 12.78741882 18.54907653 7.66022166 0.00191632 -0.00021266 0.00423936
N 14.63500801 10.22966258 3.55897325 0.00275439 -0.00581337 0.00228654
N 12.14704138 12.95479395 1.30481907 0.00293394 0.00698778 0.00279508
N 11.58474729 15.53365109 6.00332900 -0.00698822 -0.00418575 0.00425542
N 14.42364139 10.55231147 7.57395750 0.00060807 0.00296658 0.00216443
N 13.10968142 17.90597626 3.14185905 -0.00570055 0.00073040 0.00434995
N 11.37846170 15.05455964 10.06007971 -0.00690769 0.00286297 0.00143893
N 12.72535908 14.08049738 14.61765843 -0.00735426 0.00283145 0.00194938
N 13.06910086 18.51107075 16.70593113 0.00043747 -0.00137368 -0.00069298
N 14.33939574 10.54790092 12.73711753 0.00319523 0.00215414 -0.00302310
N 12.28554431 13.00073635 10.58473023 -0.00550944 -0.00086283 0.00036951
N 11.18138413 15.81347364 15.01745309 -0.01022280 0.00602086 -0.00462409
N 14.12302574 10.85419377 16.50548500 0.00250028 0.00021291 -0.00169470
N 13.23932087 18.06068887 11.89574076 -0.00066733 -0.00636879 -0.00018771
N 11.08996034 15.03799455 19.67478349 0.00144091 0.00702620 -0.00525080
N 12.72176672 13.60393945 23.68537804 -0.00067495 -0.00110280 -0.00276092
N 13.36004628 18.37510900 26.18863329 0.00130107 0.00528387 0.00286459
N 14.85402412 10.08912172 21.54101846 -0.00349898 -0.00543510 -0.00979043
N 12.49875888 13.27148791 19.84347469 0.00023162 -0.00255776 0.00497788
N 11.58524294 15.56693284 24.02230617 0.00449188 -0.00355398 -0.00441598
N 14.56633815 10.59855773 25.78977120 -0.00106101 -0.00122587 0.00058997
N 13.32865285 17.79151346 21.20446558 0.00105147 0.00003824 -0.00110729
N 11.13923039 24.87646180 1.26964446 0.00033246 -0.00018308 -0.00097948
N 12.58217375 23.46416512 5.52273778 -0.00119199 0.00040540 -0.00066067
N 13.29925816 28.62590698 8.18359734 0.00428209 -0.00420515 0.00019040
N 14.30141089 19.86721275 3.52041989 0.00082659 -0.00351715 0.00097314
N 12.43360388 23.08024463 1.97452561 -0.00314324 -0.00284400 0.00122371
N 11.64682907 25.57183586 6.14710352 0.00296037 0.00510972 -0.00228736
N 14.14192904 20.39290767 7.57892141 -0.00069986 0.00545086 -0.00165100
N 13.26650006 27.74644332 3.28194830 -0.00041320 -0.00288650 0.00135665
N 11.03421801 25.04252064 10.22445977 0.00133304 0.00121494 0.00170238
N 12.74325762 23.63050023 14.73353524 0.00068438 0.00527106 0.00216951
N 13.21545788 28.10881878 17.17803204 0.00729857 0.00155793 -0.00417466
N 14.39362688 20.01868688 12.16787533 -0.00801164 0.00297519 -0.00089813
N 12.15334880 23.12582817 10.52096217 -0.00590078 0.00181279 -0.00529531
N 11.49903972 25.54550564 15.00062663 -0.00429196 -0.00285017 -0.00048396
N 14.20811050 20.56197862 16.62100260 -0.00294778 -0.00130586 -0.00122346
N 13.56113046 27.94793616 11.99580693 -0.00206351 0.00134772 -0.00059507
N 11.06206303 24.83161513 19.41095603 0.00063699 -0.00327559 -0.00374329
N 12.80732782 23.53933869 23.98398368 0.00395395 0.00059092 0.00506324
N 13.06519627 28.25142406 26.39553068 0.00257041 -0.00766296 -0.00146170
N 14.39969597 19.74092114 21.42710982 0.00174158 0.00383382 0.00008458
N 12.20244298 22.77846396 19.49079377 -0.00287523 -0.00462222 0.00054860
N 11.85347316 25.59827958 24.23567268 0.00043297 0.00046864 0.00561869
N 14.11436775 20.59891968 25.94235772 -0.00628851 0.00309324 0.00014578
N 13.16802959 27.68370094 21.30889682 0.00494062 -0.00024963 0.00174832
N 15.04066343 5.43678376 1.15306831 0.00395451 -0.01226968 0.00480021
N 16.31598723 4.42719777 5.69696209 -0.00178118 -0.00340223 0.00145845
N 16.67193008 8.91188028 8.18437437 -0.00231349 -0.00047456 0.00481136
N 18.54077197 0.68698878 3.40769742 0.00631779 0.00419802 -0.00213297
N 16.25999457 3.48877319 1.39822943 0.00381486 0.00377745 0.00424984
N 15.08381198 6.39017318 6.05767103 -0.00053613 -0.00541252 -0.00690134
N 17.71910005 1.52682508 7.67889855 -0.00021737 0.00701730 0.00046241
N 16.92001917 8.47143855 3.11531657 -0.00044179 0.00019328 0.00311281
N 14.95707553 5.63006575 10.37941341 -0.00258672 -0.00721976 -0.00055119
N 16.15500429 4.32170842 14.94121796 0.00786093 0.00403067 -0.00402562
N 16.85791548 8.50614901 17.62800928 0.00387435 0.00274432 0.00143976
N 18.04528650 0.53093618 12.59645577 0.00743395 0.00143082 0.00706668
N 16.44785221 3.93329947 10.62497536 0.00081572 0.00338973 0.00264510
N 15.15114470 6.34599267 15.38466207 0.00027494 -0.00690041 -0.00084048
N 17.98192839 1.25344312 16.24358042 -0.00193849 0.00065844 -0.00187967
N 16.70419265 8.66199490 12.21055649 0.00228151 0.00106894 0.00080552
N 14.76344426 5.29036069 19.55202956 -0.00035754 0.00560872 0.00310210
N 16.54721135 3.96559420 23.75420621 -0.00048147 0.00020273 -0.00104701
N 16.78296822 8.98938281 26.65850144 0.00122574 -0.00035062 0.00983305
N 18.26274305 0.72012450 21.23708878 0.00204694 0.00126870 0.00243303
N 16.10282207 3.38298963 19.57475804 0.00382050 -0.00097770 -0.00486092
N 15.73773506 6.15282632 24.25131380 -0.01038989 -0.00107121 0.00309509
N 18.32823292 1.44716662 25.60967339 0.00084474 0.00320937 -0.00058512
N 17.04321013 8.30274404 21.40221587 0.00215749 -0.00272460 0.00196349
N 15.12505150 15.15978737 0.90647536 -0.00594256 0.00492222 -0.00479817
N 16.52605077 13.83372432 5.87100496 0.00447218 -0.00068596 0.00163325
N 16.72022665 18.92128584 8.07290871 -0.00192362 -0.00302595 0.00158788
N 18.21568525 10.33427719 3.54143198 0.00013391 -0.00535613 0.00041821
N 16.33020395 13.34077209 1.32869517 -0.00192959 0.00682500 -0.00247799
N 15.09197015 15.59412698 5.87978936 0.00378908 -0.00015947 -0.00244581
N 17.93989066 10.71835638 7.72426215 0.00938583 -0.00469602 -0.00164890
N 16.89603512 18.23376024 3.30001051 -0.00336218 0.00052160 -0.00090396
N 15.05346719 15.28810290 9.82432089 0.00152549 -0.00775348 0.00026567
N 16.22602872 13.51391528 14.47028651 0.00101780 -0.00733149 -0.00075404
N 16.45133808 18.66814804 17.18535644 -0.00765330 0.00286869 0.00288070
N 18.09067186 10.48426631 12.93828387 0.00070692 -0.00444860 -0.00407326
N 15.99107268 13.15961604 10.46628797 0.00314926 0.00390583 -0.00339020
N 15.27860912 15.58489262 14.83380745 0.00341983 0.01042631 0.00322268
N 17.90868107 10.46810064 16.95210182 0.00119668 0.00150790 0.00555560
N 16.83826275 17.86866992 12.10499397 0.00007829 -0.00036066 0.00070339
N 15.03836233 15.09117703 19.04208298 0.00157873 -0.00687840 0.00399983
N 16.56288385 13.88845072 23.95852706 -0.00751157 -0.00329495 0.00436497
N 16.78793020 18.61836370 26.31156953 0.01369248 -0.00413507 -0.00649511
N 17.98580282 10.41367702 21.81511764 0.00051837 0.00034094 0.00147912
N 15.74870233 12.92813006 19.35445903 0.00061284 -0.00890929 0.00116944
N 15.31407515 15.87726643 24.06686339 -0.00205906 0.00242121 -0.00277661
N 17.97244284 10.86689818 25.92647045 -0.00587388 0.00481734 0.00365532
N 16.84877163 18.17058586 21.15887929 -0.00343334 0.00023515 0.00041475
N 14.86017218 24.77109539 1.42156270 -0.01017470 -0.00396855 -0.00416656
N 16.36829120 23.51720930 5.95532948 0.00163336 0.00741894 -0.00115827
N 16.72791004 28.45708737 8.02193802 -0.00180383 -0.00105341 -0.00371025
N 18.26896712 20.02368285 3.56679771 0.00208384 0.00216068 0.00108760
N 16.16108274 22.79357738 1.69247591 -0.00961277 0.00513802 0.00966205
N 14.91206110 25.40555164 6.20522157 -0.00705505 0.00266329 -0.00294059
N 18.17883101 20.64108572 7.45262988 -0.00136956 0.00328682 -0.00140825
N 17.05691716 27.97707536 3.04216147 0.00115725 0.00049783 -0.00139967
N 14.15767925 24.98338067 9.61359429 0.00353530 -0.00649516 -0.00430016
N 16.16128616 23.33918138 14.62919110 0.00602248 -0.00297286 0.00418006
N 16.69264514 28.32512276 16.66503726 0.00904931 -0.00177828 0.00675913
N 17.35470399 20.05961500 12.65797670 -0.00523710 -0.00026166 -0.00120413
N 15.79111515 23.38850244 10.02679057 0.00100657 0.00084712 -0.00962411
N 15.13969841 25.39833445 14.79114352 0.00356283 0.00239926 0.00435936
N 17.44334337 20.68415927 16.93502813 0.00147129 -0.00035754 -0.00086240
N 16.99950703 27.52217691 12.26144720 -0.00648551 -0.00032912 0.00076487
N 14.35090688 24.78183162 19.45140567 0.00409814 0.00056578 0.00067315
N 16.15887069 23.68373602 24.02911689 -0.00086888 -0.00196077 -0.00062572
N 17.15440326 28.43670686 25.89045752 -0.00512546 -0.00061279 -0.00134930
N 18.09887114 20.12413224 21.65481471 -0.00309562 0.00342178 -0.00184558
N 15.90259775 22.94641317 19.79383388 -0.00428769 -0.00467918 0.00724078
N 15.00220448 25.67000691 24.22773500 0.00127063 -0.00270668 0.00272023
N 18.02117252 20.53958801 25.99643181 0.00026129 0.00092702 0.00182698
N 16.87970701 27.75095843 21.12483794 -0.00006324 0.00259395 -0.00322101
N 18.63068830 5.43115911 0.65352723 0.00068776 -0.00211147 -0.00118226
N 19.91307465 4.17948048 5.75573496 -0.00278634 0.00430126 0.01345995
N 20.43797818 8.74222268 7.91642236 0.00311689 -0.00451895 -0.00593419
N 21.87299522 0.72671695 3.56160456 0.00499244 -0.00786842 0.00132058
N 19.87781184 3.56627838 1.25674917 -0.00285111 0.00181294 -0.00432309
N 18.81036609 6.14894055 6.07830722 -0.00563188 0.00555310 -0.00200957
N 21.41182268 1.19405842 7.71865753 -0.00435596 0.00217554 -0.01109142
N 20.57673673 8.59719745 3.27536643 -0.00363491 -0.00354514 0.00481284
N 18.71879507 5.58522300 10.20794240 -0.00199410 0.00144601 -0.00915154
N 19.92730014 3.95725638 14.80893585 0.00446113 -0.00569117 -0.00090230
N 20.63967573 8.77047173 17.31617268 0.00775385 -0.00868771 -0.00259324
N 21.20701746 0.83161484 12.65981340 -0.00254091 -0.00920399 -0.00007705
N 19.82663632 3.53874650 10.61172053 -0.00380902 0.00177341 -0.00088160
N 18.85644572 5.96672977 15.23717586 -0.00232354 0.00501221 -0.00004133
N 21.42040267 0.85960134 16.60873699 0.00049292 0.00158486 -0.00223929
N 20.39148970 8.20568587 12.14537305 -0.00621863 -0.00174526 -0.00398449
N 18.34919435 5.47240332 19.26792784 -0.00118559 -0.00067331 0.00709130
N 20.31774744 4.39187104 23.58613890 -0.00288830 0.00214594 -0.00198656
N 20.91416552 8.89867390 26.06166549 0.00306281 0.00265094 -0.00005849
N 0.06276249 0.45880125 21.15507788 0.00548629 0.00116802 -0.00108866
N 19.67415777 3.62408735 19.33326243 0.00378808 -0.00363700 -0.00079517
N 18.86794021 6.09821686 24.07091124 -0.00622913 -0.00278044 -0.00349800
N 21.80541847 1.38306828 25.70234138 -0.00058195 0.00497868 0.00280090
N 20.54747723 8.43512021 21.32452576 -0.00671373 0.00340632 0.00117220
N 19.19297374 15.52774975 1.09124857 0.00356094 -0.00135085 -0.00132193
N 19.84779375 13.87355375 5.72510003 0.00002365 0.00105491 -0.00225999
N 20.37906573 18.38027459 8.20810325 -0.00099753 -0.00525713 -0.00361818
N 21.70530416 10.56179566 3.48888340 -0.00381241 0.00214204 0.00790807
N 19.87004777 13.30589865 1.52084922 0.00426345 -0.00455029 -0.00266702
N 18.88297936 15.97667672 6.33039243 0.00002873 -0.00308744 0.00026315
N 21.54369482 10.76017931 7.73692303 0.00049545 -0.00632024 -0.00375127
N 20.57252381 18.29358186 3.24785173 0.00002586 -0.00077576 0.00365850
N 18.26934865 14.82588375 10.34983490 0.00120210 -0.00355002 -0.00170654
N 19.50022334 13.73102779 14.79128676 -0.00180067 -0.00692898 0.00368214
N 20.42183902 18.71376316 17.12760456 0.00017756 0.00152077 -0.00511101
N 21.56552193 10.15403407 12.31967539 0.00380878 -0.00190887 0.00061470
N 19.72548727 12.99983946 10.62315727 0.00697577 -0.00076315 -0.00234194
N 18.26454302 15.65858809 15.35634623 -0.00203888 0.00135040 0.00514084
N 21.59779310 10.70971634 16.48586796 -0.00425792 0.00121102 -0.00172079
N 20.70031726 18.14222789 12.15520811 0.00340197 0.00001276 0.00140739
N 19.06278035 15.38397222 19.28200800 0.00044070 0.00863126 -0.00389555
N 19.88235712 13.77142335 23.83560186 -0.00027732 0.00386048 -0.00676901
N 20.27500866 18.60537558 26.28304030 -0.00201782 0.00156678 0.00324115
N 21.76467950 10.29918908 21.42878110 -0.00450063 0.00235243 -0.00025044
N 19.79472729 13.19638524 19.79884804 0.00167128 0.00175170 -0.00610858
N 18.87940276 15.75390205 24.18108652 0.00008103 -0.00387443 0.00251052
N 21.51960610 11.02898678 25.84330126 0.00174618 -0.00099138 -0.00153712
N 20.56533174 18.33424026 21.47103596 -0.00300011 0.00486904 0.00098203
N 18.52891470 24.56139708 1.12935650 -0.00175808 0.00385524 -0.00006473
N 19.95830003 23.45310465 5.96071995 0.00241972 0.00802718 -0.00132727
N 20.05348909 28.28075984 7.92730359 0.00303762 0.00470606 -0.00957315
N 21.87778091 20.20795897 3.67942709 0.00901015 0.00316860 0.00570961
N 19.96692176 22.87870355 1.59033684 0.00131009 -0.00122926 -0.00457522
N 18.80311185 25.40522150 5.92736137 0.00410033 0.00802388 -0.01167854