1728
Time=39000.00000002 pbc="T T T" Lattice="22.06942612 0.00000000 0.00000000 0.00000000 28.86006778 0.00000000 0.00000000 0.00000000 27.32541085" energy=-10386.31346667 virial="-9.27166366 -0.40647891 -2.09214859 -0.40647891 -22.61347349 -25.41147066 -2.09214859 -25.41147066 -10.37107428" stress="0.00184005 -0.00000648 -0.00019782 -0.00000648 0.00128466 -0.00140682 -0.00019782 -0.00140682 0.00218244" Properties=species:S:1:pos:R:3:vel:R:3
N 0.19313151 5.50333761 1.08818895 -0.00106912 0.00169262 0.00757844
N 1.47805047 3.93243762 5.53754100 -0.00347718 -0.00065470 -0.00038394
N 2.17560674 8.77162421 8.09951530 0.00655351 0.00263938 -0.00200690
N 3.17081960 0.49281504 3.18333084 -0.00017066 0.00276699 0.00319136
N 1.29646279 3.54033854 1.21926009 0.00325784 -0.00150030 0.00574104
N 0.10433180 5.69406471 6.00905117 -0.00372243 0.00110353 0.00029989
N 3.76642113 1.06367003 7.58877712 0.00208215 -0.00015252 0.00540459
N 2.16773035 8.31741559 3.09495314 0.00434476 0.00218901 -0.00563003
N 0.19433397 5.19828393 10.46465099 -0.00281584 0.00348335 -0.00260104
N 1.64934678 4.37507224 15.05447618 -0.00029459 0.00723758 -0.00053222
N 1.72688570 8.74833067 16.97351151 -0.00541732 0.00630510 0.00533036
N 3.42057474 0.61887181 12.84198054 0.00158116 -0.00405725 0.00395938
N 1.47850255 3.31718517 10.49124431 0.00052576 0.00285063 -0.00095882
N 0.30097278 6.22810666 15.17644946 -0.00274449 -0.00376099 -0.00293967
N 3.26817707 0.89043731 16.68991959 -0.00199754 -0.00328068 -0.00499441
N 2.33333299 8.49324351 12.11313848 0.00008388 0.00094468 -0.00143143
N 22.06077501 5.39811370 19.45946716 -0.00057427 0.00099435 0.00178270
N 1.87050532 4.31636418 23.87729495 -0.00289011 0.00253531 -0.00184218
N 1.89977980 9.07243217 26.11350028 -0.00198226 -0.00319626 -0.01313938
N 3.78536541 0.43686308 21.72543929 0.00132990 0.00213147 0.00287725
N 1.31377022 3.45367628 19.42452629 0.00428081 0.00474217 0.00227435
N 0.73525757 6.36828849 23.92691764 0.00169705 -0.00282422 0.00878665
N 3.24747577 1.27335801 25.86111811 -0.00190000 0.00235409 -0.00492939
N 1.95188095 8.72878494 21.07871141 0.00685434 -0.00271244 -0.00038659
N 0.20512897 14.98593938 1.29395349 0.00396849 -0.00806239 0.00009141
N 1.70651032 13.77017276 5.72018215 -0.00293753 0.00586518 -0.00292989
N 1.75009582 18.63952801 9.04718984 -0.00443087 0.00334197 0.00200674
N 3.31940701 10.27442112 3.48300521 0.00205416 0.00523848 -0.00443944
N 1.33568889 12.97984410 1.26472467 0.00340457 -0.00325518 0.00780754
N 0.41940509 15.69293816 6.21470615 0.00308702 -0.00014677 -0.00657211
N 3.49644151 10.68393988 7.54457997 -0.00134956 0.00076891 -0.00911900
N 2.12772183 17.79955488 3.43535913 -0.00019702 -0.00137604 0.00303412
N 0.42683704 15.25672213 10.07566611 -0.00482391 -0.00539134 0.00447503
N 1.62777958 13.88282890 14.79366752 -0.00216433 -0.00078421 -0.00066046
N 2.11014829 18.61635150 16.88490653 -0.00776295 -0.00438817 -0.00240538
N 3.53042251 10.31186783 12.71143788 -0.00423453 0.00360743 0.00037514
N 1.68746974 13.24369218 10.41114322 -0.00282361 -0.00081403 0.00690561
N 0.82207706 15.94798710 15.21101048 -0.00079696 -0.00238602 0.00363758
N 3.06308727 10.62390227 16.81003640 -0.00295044 -0.00843466 -0.00109015
N 2.33542885 18.23418778 12.30378171 0.00638448 -0.00064063 -0.00521513
N 21.96896104 15.16977158 19.26075052 0.00224713 0.00115253 -0.00201509
N 1.74831222 13.85625578 23.70919614 0.00431120 0.00090567 -0.00657490
N 2.24181138 18.80641882 26.00480584 -0.00533948 -0.00088468 0.00432563
N 3.24680131 10.65460452 21.68045360 -0.00557121 -0.00128931 0.00304177
N 1.09581508 13.21015297 19.35763685 0.00086831 0.00346303 -0.00285909
N 0.40575276 15.58043890 24.23926939 0.00531963 0.00536172 -0.00247651
N 3.02556762 11.04556313 25.87609158 0.00331924 -0.00501342 -0.00320629
N 2.15987508 18.20432055 21.61344202 0.00580066 0.00738424 -0.00370803
N 0.20633041 24.53711675 1.18984954 -0.00366147 -0.00222633 -0.00084224
N 1.69560542 23.03336363 5.80324682 -0.00580142 -0.00234542 0.00641149
N 2.29426791 28.09024039 8.03128598 0.00081907 0.00800800 0.00398345
N 3.55130758 19.49907490 3.87045118 0.01295965 -0.00350983 -0.00145746
N 1.55651545 22.72361441 1.36678684 -0.00556622 0.00107096 0.00064529
N 0.72267476 25.15883976 6.17214371 -0.00135045 0.00794902 -0.00234967
N 3.22785815 20.22874773 8.37463635 -0.00189859 0.00523805 -0.00082414
N 2.20787927 27.35233937 2.93565942 -0.00188897 -0.00307553 0.00361779
N 22.03330416 24.87892714 10.31265488 -0.00311785 -0.00369731 -0.00814779
N 1.91200460 23.41224755 15.01906289 -0.00184652 0.00841125 -0.00072424
N 1.61352873 28.35404404 17.17343599 -0.00478088 0.00190299 0.00601232
N 3.28996489 20.20126688 12.83568852 -0.00115535 -0.00232472 -0.00126161
N 1.11563792 22.98425288 10.91962420 -0.00277054 0.00382652 0.00184555
N 0.60458849 25.38895103 15.21342340 0.00011511 0.00623321 0.00082090
N 3.62417999 20.41071436 16.81355550 0.00374531 -0.00377982 -0.00384710
N 1.96872257 27.68633268 12.46224652 -0.00404556 -0.00027986 -0.01064592
N 0.67548960 24.73971885 19.31486234 0.00462939 -0.00401676 -0.00510731
N 1.49279343 23.44030894 23.92713129 0.00074393 0.00055485 0.00401853
N 2.27684019 28.04116778 26.26754800 -0.01093098 -0.00162205 -0.00392447
N 3.51343797 20.19689279 21.55765897 -0.00037785 0.00448530 -0.00318347
N 1.55483928 22.56859886 19.60206203 0.00022041 -0.00311374 -0.00465026
N 0.18465855 25.37510722 24.27542711 0.00195437 0.00645871 0.00834382
N 3.65368075 20.59866538 25.54934039 0.00078229 0.00394290 -0.00077979
N 2.17318453 27.54289388 21.42282041 0.00662900 0.00035780 -0.00276040
N 4.32707824 5.55934317 1.46748900 -0.00442731 0.00270185 0.00101323
N 5.26856919 4.13906349 5.77427142 0.00268562 0.00199154 0.00105920
N 5.82971496 8.73471384 7.69389617 0.00116102 -0.00037550 0.00246319
N 7.02241794 0.78633507 3.65896586 0.00491727 0.00121442 -0.00677216
N 5.04703417 3.42368512 1.57378627 0.00263878 -0.00084172 0.00157828
N 3.92860039 5.94285508 5.87950688 -0.00389397 0.00034433 -0.00017008
N 7.02380071 1.07350889 7.78993650 -0.00505820 0.00602846 0.00220401
N 5.82703993 8.43301901 3.38637983 -0.00470670 0.00834462 -0.00563355
N 3.80751118 5.31241861 10.32042813 0.00516940 0.00157780 -0.00356932
N 5.47250036 4.19004457 14.87968875 0.00732986 0.00023211 -0.00893632
N 5.76933524 9.37892822 16.55058001 0.00008343 -0.00418674 -0.00782278
N 7.12090432 0.53811317 12.82378005 -0.00667986 -0.00591049 0.01017591
N 5.00113703 3.29810708 10.57914447 -0.00057754 0.00249887 0.00247326
N 4.26163162 6.01502916 15.35858807 0.00492121 -0.00253227 -0.00060127
N 6.86609498 1.27478669 16.80591849 -0.00206529 0.00148874 0.00559696
N 6.27335484 8.05634920 12.14576408 -0.00253684 0.00192610 0.00416551
N 4.11150252 5.44643130 19.42230077 0.00224938 -0.00184552 -0.00076046
N 5.50899181 4.42940130 24.09882865 -0.00168915 0.00205643 0.00524943
N 6.08175875 8.58609524 26.60305852 0.00292063 -0.00131828 -0.00001749
N 6.99841009 0.66603031 21.57474806 0.00032306 -0.00173472 -0.00120383
N 5.40736033 3.52073521 19.65621935 -0.00159844 0.00297447 0.00766088
N 4.07559780 6.28091676 24.39950850 0.00104512 -0.00202772 0.00074367
N 7.00541123 1.23090560 25.88818342 0.00002290 0.00364452 -0.00014221
N 5.70490228 8.42773124 21.37232906 0.00103798 -0.00700336 -0.00113959
N 3.56097698 15.19829804 1.46369165 0.00478745 -0.00001135 0.00136990
N 5.40595698 13.53671327 5.57612024 -0.00178406 0.00211474 -0.00052878
N 5.94439690 18.70653325 7.65830577 0.00654887 -0.00143027 -0.00765454
N 7.13664607 10.32700142 3.30897433 0.00726363 -0.00654743 0.00474401
N 5.10249238 13.37909186 1.59793276 -0.00182798 -0.00344789 0.00020771
N 4.07985244 15.41545285 6.27999531 -0.00411967 -0.00315262 -0.00620999
N 7.26939048 10.60941656 7.45479647 0.00219212 -0.00077895 0.00408236
N 5.82161951 17.96897159 3.25420453 -0.00079004 0.00273782 -0.00889711
N 3.84963754 15.23830606 10.30624663 -0.00466795 -0.00402899 0.00565784
N 5.02022557 13.34527076 14.75564558 0.00258832 -0.00146404 0.00053882
N 5.64346624 18.15371996 17.24739918 -0.00418670 0.00664476 -0.00433336
N 7.15250092 10.17103705 12.35140682 -0.00261679 0.00097046 -0.00083545
N 4.87472567 13.19339938 10.76294576 -0.00130127 -0.00248958 0.00646027
N 4.25228976 15.40273475 15.33893116 -0.00215744 -0.00492657 -0.00633488
N 7.00658985 11.33643761 16.66320894 -0.00553335 -0.00249519 -0.00556305
N 5.82574944 17.95365662 12.05581054 0.00244747 0.00121302 -0.01082544
N 3.62551554 14.98395766 19.45232008 -0.00633163 -0.00594394 -0.00254275
N 5.22656132 13.69893499 24.08062921 -0.00439764 -0.00534574 0.00318394
N 5.80150399 18.70611379 26.14462846 -0.00438391 -0.00241497 -0.00465633
N 7.07894842 10.31098210 21.31844995 0.00668515 -0.00310338 -0.00185863
N 5.23716585 13.32115580 19.42659054 0.00134437 -0.00112139 0.00570354
N 4.10991533 15.64578400 24.21904835 0.00102881 -0.00112977 0.00430077
N 6.69737344 10.75533316 25.93527194 -0.00659397 -0.00470419 -0.00117811
N 5.92255866 18.15323770 21.25392443 0.00874384 0.00480882 -0.00331331
N 3.90431477 24.42566078 1.14610107 -0.00271582 -0.00512249 -0.00356461
N 5.08429546 23.56697450 5.77205753 -0.01112372 0.00280883 -0.00025374
N 6.10043862 27.79852845 8.13439894 0.00140809 -0.00413111 -0.00675555
N 7.06129571 19.97070978 3.34882186 0.00868612 0.00193327 -0.00073735
N 5.11982925 22.53990836 1.89995412 -0.00038962 0.00275892 -0.00226714
N 3.84772795 25.47222904 6.21285122 -0.00578246 0.00206005 0.00849402
N 6.99476294 20.63847887 7.52456142 0.00029130 -0.00053412 0.00205786
N 5.88473904 27.72142448 3.15234859 0.00700549 0.00341899 -0.00498935
N 3.67838099 24.87127743 10.00109133 -0.00385105 0.00414576 -0.00327540
N 5.50368021 23.32957172 14.99614127 -0.00513988 0.00401065 0.00494205
N 5.68915149 28.23773931 17.11558615 0.00149582 -0.00587498 -0.00251329
N 6.84957576 20.00995282 12.40505025 0.00091743 0.00245184 0.00056485
N 4.80519638 22.94234514 10.82011999 0.01035971 -0.00141864 0.00201702
N 4.33014977 25.19145938 15.22683992 -0.00823415 -0.00100938 -0.00149848
N 6.97097199 19.91474556 16.50102522 0.00851667 0.00380890 0.00165873
N 5.83412858 27.57313287 12.29004635 -0.00347467 -0.00431362 0.00039695
N 3.87827436 24.54521450 19.38884113 0.00013125 0.00882590 -0.00060947
N 5.61504696 23.46324062 23.92798162 0.00306010 -0.00594026 -0.00622466
N 5.93616723 28.05550422 25.90511101 0.00254375 0.00409098 0.00209642
N 7.18965236 20.06059580 21.65608092 -0.00528605 0.00117880 -0.00098217
N 5.49460306 22.88017177 19.59911532 0.00137075 -0.00134743 -0.00412786
N 4.15853166 25.30737516 24.23712937 0.00041493 0.00149851 0.00745727
N 7.13690578 20.66104479 26.13945705 -0.00635810 0.00130921 -0.00005427
N 6.11419953 27.43997496 21.28581550 -0.00433499 -0.00350526 0.00717838
N 7.44931758 5.78330339 1.22865930 -0.00031129 0.00460668 -0.00238094
N 8.77324793 4.18255961 5.57179168 0.00117567 0.00059158 -0.00110388
N 9.96076212 8.76420928 8.28784168 -0.00048865 0.00030542 -0.00172597
N 10.65689672 0.53934903 3.34133155 0.00224319 -0.00041658 -0.00014043
N 8.91875647 4.02629946 1.66451507 -0.00209701 0.00076989 0.00643882
N 8.11057610 6.29437468 6.15763811 -0.00044530 -0.00038857 -0.00177349
N 10.77140464 0.83443547 7.56780036 -0.00356080 0.00666587 0.00529026
N 9.67149897 8.38606874 2.67938855 0.00099494 -0.00363160 -0.00009337
N 7.80464832 5.29671684 10.56965732 0.00092527 0.00872591 -0.00678492
N 8.78727451 4.09848259 15.11929193 0.00164362 0.00228025 -0.00083825
N 9.53455425 8.98892711 17.32468344 0.00220861 0.00494463 0.00272128
N 10.54344831 0.67855649 12.47375337 0.00010680 -0.00088444 -0.00354109
N 9.06712705 3.37370083 10.78242476 -0.00026039 -0.00498925 0.00625770
N 7.69690560 6.02028100 15.44297373 0.00749050 -0.00297076 0.00756969
N 10.56784242 1.11391860 16.70471514 -0.00024199 0.00008504 0.00296281
N 9.80139275 8.18972512 12.43407617 0.00300873 -0.00212350 -0.00410727
N 7.59633477 5.36853860 19.73668665 0.00463309 -0.00051336 -0.00168020
N 8.91902242 4.56378465 24.25839089 0.00258042 -0.00164189 0.00513892
N 9.63212724 8.92172995 26.29778800 -0.00169822 0.00278444 -0.00242263
N 10.94158477 0.57252539 21.50805874 -0.00247320 0.00198395 -0.00283018
N 8.78345047 3.45171441 19.98204063 -0.00272079 -0.00262708 0.00558686
N 7.76974829 6.55464317 24.17092615 -0.00473293 -0.00390636 -0.00324996
N 10.62360194 1.45329934 25.49277664 -0.00169731 -0.00348688 -0.00156246
N 9.51359531 8.71943375 21.24480879 0.00796366 -0.00187060 0.00328009
N 7.55171087 15.41481661 0.98424707 -0.00163893 0.00392087 -0.00851501
N 9.13130884 13.36488514 5.31377674 -0.00998056 -0.00219882 0.00485499
N 9.69722116 18.28624238 8.08165253 0.00202002 0.00920453 -0.00228387
N 10.79009335 10.31459009 3.28171705 0.00040965 -0.00518800 -0.00310904
N 8.45333084 13.35194012 1.55005764 -0.00330021 0.00547465 -0.00775205
N 7.87891724 15.21457894 5.82526607 0.00167128 0.00138204 0.00070572
N 10.57223626 10.98324669 7.84979029 -0.00091526 -0.00325345 -0.00606237
N 9.55880032 17.89251095 3.23012600 0.00700078 0.00107632 -0.00180110
N 7.55790015 14.98686954 10.27155509 0.00094919 -0.00279733 0.00244405
N 8.88056173 13.91096628 14.81887790 0.00204788 -0.00029555 0.00623547
N 9.41207323 18.37958796 17.84646195 0.00130843 -0.00664545 0.00118083
N 11.05763618 10.10583515 12.79396605 -0.00222750 0.00170574 0.00773499
N 8.81090639 13.06292988 10.49761609 -0.00523024 -0.00036741 0.00921937
N 7.46295774 15.73847166 14.72006692 -0.00513957 0.00326103 0.00526375
N 10.62443093 10.97877341 16.89677302 -0.00000174 -0.00401320 0.00637783
N 9.41602134 18.07760602 12.10456555 -0.00201287 -0.00995380 -0.00113755
N 7.75171570 15.25844922 19.36128188 -0.00001890 0.00831032 0.00483108
N 8.88648416 13.52294834 24.21180968 -0.00460048 -0.00222979 0.00361224
N 9.27871056 18.70385100 26.53338090 0.00373323 0.00126813 -0.00382649
N 10.87949013 10.48408746 21.68638884 0.00139406 -0.00218815 -0.00293939
N 8.86648828 13.23011180 19.80539716 0.00265254 0.00429829 -0.00793622
N 7.53929382 15.49507745 24.11459645 -0.00059205 -0.00304077 0.00073109
N 10.79015252 10.82454163 25.80562211 -0.00131734 -0.00480975 0.00100218
N 9.37492492 17.91981946 21.31594141 0.00282115 -0.00671729 0.00183125
N 7.50667001 24.46007199 1.34019225 -0.00038482 -0.00478582 -0.00971924
N 9.09362433 23.30170748 5.69854568 -0.00300296 -0.00025904 -0.00031048
N 9.39680343 27.88638983 7.68526939 0.00348804 -0.00238987 -0.00522170
N 10.89493947 19.72158221 3.51186433 -0.00931413 -0.00577061 0.00410316
N 8.84041389 22.57177215 1.15743984 0.00254841 -0.00025874 0.00360101
N 7.63147923 25.14574127 5.67391676 0.00262149 0.00002238 -0.00176253
N 10.19296272 20.43835524 7.70176960 -0.00362849 -0.00273340 0.00371879
N 9.52134571 27.38790970 3.19126004 -0.00537962 0.00141734 -0.00174879
N 7.31434266 24.74344483 10.54947417 0.00398232 -0.00490629 0.00009319
N 9.17521908 23.70179753 15.08063438 0.00558589 0.00127484 0.00198482
N 9.28566541 28.14247997 17.33176797 0.00010997 0.00260518 -0.00111686
N 10.56161585 19.98151189 12.62352791 -0.00142927 0.00570566 -0.00046109
N 8.83064398 22.95068590 10.61979288 -0.00284210 0.00128493 -0.00115520
N 7.86241390 25.61332044 15.11917326 0.00762108 0.00311507 0.00125937
N 10.80605078 19.76432719 16.48189198 0.00382617 0.00098579 0.00139693
N 9.43213729 27.44124450 12.32499245 0.00722646 0.00688819 0.00230995
N 7.77900668 24.65507153 19.39280695 0.00918601 0.00072177 -0.00158886
N 9.22653749 23.35279379 23.90712602 0.00015385 -0.00170876 -0.00289777
N 9.62032460 28.37660609 26.17511956 -0.00404853 0.00470201 0.00579213
N 10.67460721 19.70565698 21.70897819 0.00080035 -0.00334887 0.00084365
N 8.91936468 22.80856758 19.91606069 -0.00094831 -0.00628034 -0.00501091
N 8.03834136 25.35179401 24.13511298 0.00816669 -0.00419694 -0.00572944
N 10.79318498 20.27017454 25.85563536 0.00423340 0.00065045 0.00280544
N 9.83018908 27.45819935 21.21371301 -0.00126902 -0.01061440 -0.00561137
N 11.23563478 5.64458354 1.19723042 0.00030270 -0.00372699 -0.00206339
N 11.91963554 3.96006316 5.82602013 0.00024540 -0.00002876 0.00499478
N 13.21474503 8.95269441 7.99279858 0.00550764 0.00514099 0.00312905
N 14.24658549 0.52811572 3.42841468 -0.00459157 -0.00042761 -0.00275453
N 12.43076499 3.54248535 1.32090910 -0.00575833 -0.00846621 -0.00270187
N 11.64923425 6.26987020 6.07546628 -0.00842689 -0.00157656 -0.00192809
N 14.51570116 1.17597900 7.66489715 0.00725305 0.01072834 0.00186106
N 13.28343750 8.34329122 3.04324412 -0.00557701 0.00519039 -0.00011037
N 11.16405787 5.49044485 10.42146025 -0.00439687 0.00122393 -0.00368755
N 12.53607967 4.14685353 14.82647722 0.00317586 -0.00581296 -0.00294450
N 13.15326692 9.23475715 16.93615165 0.00208393 0.00263706 0.00093434
N 14.29828770 0.88829130 12.29890813 0.00485911 -0.00188498 -0.00215001
N 12.43668165 3.58467597 10.36539416 0.00367638 -0.01079524 -0.00520924
N 11.24312425 6.06522760 15.33608951 -0.00097607 0.00191127 0.00413179
N 14.34876069 1.35663246 16.70558792 -0.00377751 -0.00168472 0.00040037
N 13.28612715 8.36244219 11.97710646 0.00550193 -0.00486663 0.00295866
N 11.32483270 5.64295973 19.14986865 0.00127266 -0.00355078 0.01188356
N 12.76141498 4.23963247 23.91153008 0.00252184 -0.00030882 0.00315884
N 13.29914255 9.15545714 26.01790879 0.00681579 0.00462193 0.00348850
N 14.36666545 0.94484950 21.43928954 0.00228629 -0.00449467 -0.00112946
N 12.57887617 3.76550021 19.73582186 0.00420215 0.00647488 0.00364910
N 11.66264348 6.21088384 24.18404695 -0.00534011 -0.00063648 0.00228520
N 14.12278605 1.56292463 25.81399163 -0.00401007 -0.00883620 -0.00457432
N 13.00263766 8.35456312 21.25889984 -0.00389818 0.00443023 0.00244025
N 11.03364658 15.13198438 1.18105797 -0.00339690 -0.00093622 0.00063245
N 13.11333383 13.67895858 5.79336019 0.00119158 0.00486376 0.00241236
N 13.22543098 18.30460431 8.14358888 0.00583479 0.00236009 -0.00332644
N 14.43379038 10.39580762 3.43590934 0.01204578 0.00240276 -0.00743926
N 12.11935346 13.13529639 1.28234579 0.01120700 -0.00313692 -0.00932642
N 11.68852987 15.55084859 6.05794723 -0.00181222 0.00545780 -0.00082492
N 14.36342126 11.03544633 7.87301100 0.00016638 0.00289951 -0.00416774
N 13.49929633 17.63909947 2.77584079 0.00049401 0.00142169 -0.00545137
N 11.77067264 15.16470433 10.52504913 -0.00459335 0.00698357 0.00021886
N 12.74641359 14.19226393 14.81870200 -0.00347014 -0.00626336 0.00809250
N 13.29182248 18.52161519 17.14774073 -0.00405273 -0.00403979 0.00103311
N 14.67764424 10.15432373 12.65912731 0.00025469 -0.00082115 0.00276347
N 12.87849257 13.14672968 10.95077707 -0.00163731 0.00003959 0.00266321
N 11.32138664 15.91187438 15.24106582 0.00780556 0.00610462 0.00142172
N 14.22598540 11.22325420 16.43662068 0.00119601 -0.00281685 -0.00214850
N 12.97529821 18.24953737 12.21804117 0.00698258 0.00359049 -0.00070648
N 11.31330961 15.29058581 19.27958726 -0.00842878 -0.00178095 -0.00412436
N 12.75585090 13.82792108 23.77169461 -0.00199013 0.00854211 -0.00224384
N 13.00689213 18.36190242 25.79875417 -0.00336098 -0.00156492 -0.00035104
N 14.45390819 10.15302917 21.35725769 0.00303959 0.00090427 0.00409621
N 12.59434076 13.36359257 19.53246458 0.00544166 -0.00054788 -0.00042819
N 11.59335886 15.78397952 24.22321289 0.00007466 0.00000891 0.00304504
N 14.46762260 11.06477113 25.42826404 -0.00251672 -0.00072353 -0.00337874
N 13.69529920 18.04492631 20.92106903 0.00062524 0.00789154 0.00352817
N 11.29565186 24.45464508 1.10148987 -0.00090011 -0.00468990 -0.00145767
N 12.74563622 23.09762380 5.72501279 -0.00462121 -0.00069603 -0.00186577
N 13.20135599 28.07659024 7.76064366 -0.00458858 0.00074221 -0.00644781
N 14.74118238 19.44552465 3.40822336 0.00431522 -0.00514472 0.00225473
N 12.52485567 22.56545490 1.29915678 0.00702158 0.00168060 0.00186328
N 11.38504736 25.00759652 6.18210101 -0.00215283 0.00399835 0.00261093
N 14.17783125 20.39902217 7.96438554 0.00844042 -0.00290225 0.00893035
N 13.48265657 27.26775947 2.96849240 -0.00530208 0.00377753 0.00348439
N 11.30694361 24.66144457 10.13620094 -0.00319225 0.00415991 0.00139084
N 12.93619898 23.40181947 14.50110946 0.00233567 0.00035531 -0.00819383
N 13.11343078 28.38108618 17.00047252 -0.00335242 0.00534473 -0.00341421
N 14.29215232 20.01892427 12.59958213 0.00228357 -0.00028832 0.00347346
N 12.36038827 22.51739580 10.62628111 0.00108448 0.00647988 0.00338819
N 11.66855836 25.27649059 14.90056166 0.00092599 0.00597195 0.00334163
N 14.37490523 20.48761192 16.41138837 -0.00026841 0.00770134 0.00098930
N 12.87345173 27.85295480 12.28844599 -0.00229134 -0.00291906 -0.00264222
N 11.28287056 24.64566971 18.28143826 -0.00516203 0.00084960 0.00108448
N 12.90570029 23.38620398 23.56413211 -0.00059776 -0.00829364 0.00147953
N 12.83684755 28.45573035 26.15755354 -0.00003106 -0.00061894 -0.00433820
N 14.53891418 20.22907981 21.26725381 0.00950988 -0.01021174 0.00439394
N 12.44673505 22.93106122 19.09736468 0.00347801 0.00013829 0.00483436
N 11.63346806 25.21339693 24.25170866 -0.00353029 -0.00094206 0.00192128
N 14.25583888 20.27638978 25.47103771 0.00206499 -0.00077716 0.00567613
N 13.29410625 27.73505285 21.04343960 0.00469233 0.00226012 -0.00381515
N 15.02357879 5.59037114 1.15308983 0.00582406 -0.00159770 0.00279694
N 16.16172883 3.82126116 5.49599048 0.00187004 0.01007705 -0.00097455
N 16.93086775 8.92058579 7.92008061 0.00248455 0.00029429 -0.00152919
N 18.24497687 0.56501451 3.46749968 0.00238945 0.00053081 -0.00257060
N 16.14559068 3.64695869 1.37175364 0.00318372 0.00006854 0.00221215
N 15.30975179 5.88582632 6.06074114 0.00321447 0.00692164 0.00534192
N 17.84392605 0.86578538 7.47427490 0.00673752 0.00770210 -0.00014314
N 16.74559051 8.46885855 3.22759920 -0.00775109 0.00134596 0.00836611
N 14.86881611 5.65884328 9.96624254 -0.00387433 -0.00752925 -0.00201980
N 15.92557788 4.14067076 14.67324339 -0.00178724 -0.00127165 -0.00891670
N 16.66520790 8.80662135 17.10318028 0.00360546 -0.00268433 0.00580335
N 17.82077036 0.69108757 12.61852926 0.00041162 0.00175936 0.00069931
N 15.96456725 3.68385332 10.50300097 0.00234908 0.00260615 -0.00032638
N 15.31912253 6.27307136 15.02598518 0.00000903 -0.00413100 0.00635325
N 18.02614837 1.31857457 16.82405916 -0.00652526 -0.01501060 -0.00018449
N 17.11482538 8.58397069 12.31913450 0.00188593 -0.00005413 -0.00156270
N 15.01202656 5.71185342 19.18363295 -0.00323203 -0.00026822 -0.00038020
N 16.38277457 4.59370454 23.78447508 -0.00151392 -0.00930706 -0.00206752
N 16.37188856 8.93841410 26.35260624 0.00046840 -0.00029216 -0.00084007
N 17.89983774 0.72529022 21.75961848 -0.00115435 -0.00278053 -0.00127398
N 16.20142661 3.68828329 19.52323051 0.00645990 0.00461408 -0.00463304
N 14.88430743 6.29437588 24.22256197 0.01018974 0.00279826 -0.00604964
N 17.91369079 1.19995921 25.62270838 -0.00739355 0.00209815 -0.00017194
N 16.87950415 8.56058528 21.27128190 -0.00508664 0.00301806 0.00246774
N 14.93228862 15.22505742 1.13973242 -0.00134778 -0.00027832 -0.00012976
N 16.34701810 13.67468122 5.71620033 -0.00078906 0.00722942 -0.00333966
N 17.02797932 18.53841786 8.24069723 -0.00412923 0.00386910 -0.00014499
N 17.82395289 10.43038899 3.39938100 -0.00710854 0.01017798 -0.00797506
N 15.87612997 13.11617113 1.23430993 -0.00327726 -0.00194610 0.00466197
N 15.27296055 15.75940855 5.98738953 -0.00058142 0.00327726 -0.00071873
N 18.29988793 10.75235499 7.78196176 -0.00092970 -0.00377833 0.00402554
N 17.34972286 17.88706484 3.19577734 0.00029483 -0.00384525 -0.00371814
N 15.02765627 15.27688223 10.28023230 0.00080767 0.00366655 -0.00398862
N 16.37912777 13.87248565 14.79075103 0.00056969 -0.00435628 0.00156682
N 16.55687049 18.77453451 17.27358468 0.00220296 0.00264136 -0.00339998
N 18.41882202 10.45351582 12.48586445 -0.00176413 0.00059883 0.00179655
N 16.12639139 13.19378861 10.74174451 0.00025645 -0.00315527 -0.00619397
N 15.36988202 15.92304525 15.25200694 -0.00375116 0.00310064 0.00399424
N 17.24440060 10.99374447 16.47907559 -0.00326630 -0.00149463 0.00321174
N 16.81381571 18.02605790 12.21463335 -0.00393618 -0.00087940 -0.00640072
N 15.03985004 15.08418995 19.26430443 0.00114938 0.00428693 -0.00102994
N 16.61692867 13.69896145 23.88753698 0.00443166 0.00212075 -0.00346202
N 16.67374892 18.72274588 26.56279247 0.00668581 0.00103965 0.00965167
N 18.09564518 10.42628482 21.64051391 -0.00690573 0.00573380 0.00199837
N 16.38361424 13.11616710 19.84365546 0.00584745 0.00379693 -0.00611549
N 15.23763390 15.42562223 24.68996939 0.00092025 -0.00054167 -0.00224393
N 17.56999207 10.92935988 25.77255466 0.00598372 0.00353441 0.00518565
N 16.96258494 17.80853868 21.50236584 0.00389188 -0.00767641 0.00306101
N 14.80791828 24.58800327 0.58268962 0.00287478 0.00118796 -0.00135256
N 16.42211273 23.31917317 5.50962038 0.00108521 0.00656527 0.00003303
N 16.70020377 27.86874795 8.03666439 -0.00066850 -0.00710380 0.00279428
N 18.42645648 19.81129077 3.79222928 -0.00191566 0.00554572 -0.00076989
N 16.25419129 22.93440264 1.10271686 -0.00241807 0.00127401 -0.00238535
N 15.09040110 25.14688132 5.77322702 0.00901572 -0.00862576 -0.00097928
N 17.99904317 20.64449137 7.96717121 0.00434968 -0.00017798 -0.00190347
N 16.88870710 27.68662215 2.79152908 -0.00433884 -0.00133092 -0.00158370
N 14.67997821 24.74539168 10.48018792 -0.00279824 0.00175026 -0.00086015
N 16.37638732 23.40713420 14.79050238 0.00377242 0.00092782 -0.00053513
N 16.74392875 28.20723829 17.15351236 0.00065780 -0.00022556 -0.00201800
N 17.86333803 20.00466945 12.79763051 -0.00713063 0.00239363 0.00284196
N 15.96076498 22.95235955 10.66825120 -0.00537385 0.00797673 -0.00567114
N 15.30425175 25.38255530 14.93281837 0.00508279 -0.00309913 -0.00057543
N 18.18681928 20.51780357 17.15239988 0.00326446 0.00096723 -0.00279692
N 16.64402297 27.76107206 12.00047810 -0.00694491 0.00193409 0.00163374
N 14.86847090 25.18437071 18.87414701 -0.00035601 0.00009092 -0.00755602
N 16.54338531 23.69884576 23.65240353 -0.00166314 0.00349570 -0.00305514
N 16.66646663 28.27903166 26.24886250 -0.00191160 0.00053099 0.00126797
N 17.56589500 19.91022270 22.09600952 -0.00060131 -0.00307226 0.00220389
N 15.96494357 23.29315687 19.46372602 -0.00085177 -0.00192059 -0.00036633
N 15.11488902 25.40856941 24.47473761 -0.00014260 -0.00210102 0.00340464
N 18.01949666 20.48022027 26.04976132 -0.00072754 0.00175763 0.00728252
N 16.74097780 27.57218355 21.41644054 -0.00553205 -0.00113339 -0.00031479
N 18.54158743 5.52346832 1.13704407 -0.00704547 0.00007667 0.00076769
N 19.71025851 3.96894536 5.48979931 -0.00496686 0.00398063 -0.00705974
N 20.63435154 8.76924805 8.30203537 -0.00037865 -0.00681428 0.00113445
N 21.83862076 0.53864040 3.48479529 0.00210914 -0.00388866 0.00137653
N 19.83104313 3.56881994 1.21515106 0.00401017 0.00745976 0.00112146
N 19.03827886 6.11628902 5.99928312 -0.00033368 0.00524042 -0.00134534
N 21.35274155 1.47420693 7.66300304 -0.00397977 -0.00163567 -0.00063788
N 20.64437752 8.27817144 3.19780606 -0.00673890 -0.00250649 0.00365271
N 19.03266063 5.37850789 10.06494660 -0.00135545 -0.00159073 -0.00097235
N 19.58950587 4.04911717 14.64719699 -0.00307626 -0.00534731 -0.00395480
N 19.99514925 8.96434121 17.07249428 0.00818745 -0.00065955 -0.00152015
N 21.68958385 0.76319512 12.60570753 -0.00097192 0.00120975 0.00708795
N 19.83748922 3.34793165 10.65018710 -0.00354135 0.00515034 -0.00268915
N 18.49799916 6.11059411 14.76044721 0.00085167 -0.00122852 -0.00055601
N 21.14344037 1.39166277 16.72163158 -0.00110054 0.00387357 -0.00037589
N 20.74915996 8.62894824 12.40363014 0.00613287 0.00331046 0.00177581
N 18.47153406 5.36787330 19.39110838 -0.00237687 0.01036861 0.00797607
N 19.81888740 3.98086572 23.72156110 -0.00578687 -0.00486497 -0.00116433
N 20.33998333 8.91297794 26.04299714 0.00078088 0.00034902 -0.00460475
N 21.87870445 0.93385302 21.51284326 -0.00296144 0.00075366 0.00164625
N 19.62350130 3.47406407 19.64326353 0.00422481 -0.00127136 -0.00283201
N 18.74931638 6.02034461 24.11147672 0.00191593 -0.00790967 0.00294109
N 21.59184948 1.24991342 25.57319967 -0.00360787 -0.00515401 0.00118959
N 20.43411683 8.42505080 21.10891909 -0.00019969 -0.00346537 -0.00279409
N 18.97257032 15.49983949 0.90328342 0.00509652 0.00357162 0.00779348
N 20.25982290 13.79784436 5.55893396 0.00150681 -0.00244936 -0.00357657
N 20.32090785 18.49902419 7.88508594 -0.00091561 -0.00460234 -0.00384107
N 21.41560187 10.45383195 3.14896135 -0.00273945 -0.00413024 0.00224064
N 19.73584876 13.31877310 1.24708011 0.00345020 0.00363432 -0.00061567
N 18.86470264 15.60825298 5.83564226 -0.00210692 -0.01311040 0.00494469
N 21.73613927 10.74434821 7.74815728 -0.00834337 -0.00599989 -0.00436479
N 20.45217558 17.97486563 2.97196060 0.00238946 -0.00158370 0.00260581
N 18.60811590 15.14589383 10.35490713 0.00421285 0.00200442 -0.00387059
N 19.84729247 13.76106183 14.81255883 0.00655158 -0.00272326 0.00740649
N 20.87188447 18.38545012 16.92585372 0.00019586 0.00900404 -0.00192280
N 0.26076772 10.28876546 12.67753075 -0.00423647 0.00537234 -0.00728802
N 20.16917924 13.51960495 10.40716631 0.00416426 0.00369319 0.00146300
N 18.87354181 15.83589608 14.94252717 -0.00370142 0.00539156 -0.00119549
N 21.31788531 10.79323971 16.70528632 -0.00217256 0.00237513 -0.00361350
N 21.07510038 18.00564837 12.02588586 0.00424139 0.00842696 -0.00210996
N 18.88541295 15.29067959 18.95352866 0.00234381 -0.00245084 0.00179171
N 19.77516625 13.66291200 23.45277741 0.00033925 0.00435664 -0.00054608
N 20.43993656 18.84832672 25.70807432 0.00308283 -0.00291508 -0.00356149
N 21.75263193 10.22944133 21.72033981 -0.00224435 0.00629908 0.00814827
N 19.47878410 13.13017394 19.47420272 -0.00598459 -0.00400943 0.00674340
N 18.77600092 15.62615126 24.10585831 -0.00562888 -0.00864724 -0.00169324
N 21.48132401 10.87981644 25.61849592 0.00205963 0.00791780 -0.00293286
N 20.20065382 18.22144889 21.30290555 0.00094229 -0.00461084 -0.00433844
N 18.89526641 24.47765348 1.12323262 0.00318779 0.00635007 -0.00070209
N 20.20000322 23.54020862 5.94513943 0.00106226 0.00565919 -0.00136739
N 20.30598888 28.22370798 8.10597340 0.00551398 0.00325539 0.00187861
N 21.70867837 19.88477920 3.37718002 -0.00566659 0.00284043 0.00198552
N 19.76143293 22.40045890 1.48789717 -0.00648422 0.00323275 -0.00341671
N 18.56182751 25.19386126 6.22496597 0.01098875 -0.00489824 -0.00301646