1728
Time=25000.00000000 pbc="T T T" Lattice="21.91892433 0.00000000 0.00000000 0.00000000 28.83834289 0.00000000 0.00000000 0.00000000 27.43333627" energy=-10389.40050519 virial="32.26207848 16.46310978 3.80569451 16.46310978 44.80191432 43.28535802 3.80569451 43.28535802 -17.35168641" stress="0.00410520 0.00094705 0.00032663 0.00094705 0.00515347 0.00255274 0.00032663 0.00255274 0.00187257" Properties=species:S:1:pos:R:3:vel:R:3
N 0.31914566 5.62540048 1.08896958 -0.00325071 -0.00392890 -0.00215344
N 1.76771585 4.28689766 5.60265033 0.00204250 -0.00554128 -0.00483057
N 2.22117942 9.22021608 8.09007952 0.00444235 -0.00155320 -0.00021615
N 3.29406919 0.86483177 3.01403206 -0.00030104 0.00138486 -0.00236665
N 1.48545075 3.58150241 1.33425788 0.00038168 0.00280094 -0.00114620
N 0.45197661 6.08769105 6.23203772 -0.00475996 0.00294631 -0.00106078
N 3.40315452 1.40576375 7.22288185 0.00001534 0.00452771 0.00434205
N 2.59325878 8.49372584 3.23248615 -0.00236700 0.00555597 0.00105794
N 0.53642589 5.34887859 10.23934986 -0.00276409 0.00440543 -0.00182742
N 1.32332628 4.26705601 14.57097900 0.00079540 -0.00209145 -0.00114211
N 2.35068036 8.99619440 17.25658074 0.00039355 0.00319846 -0.00099648
N 3.01522505 0.57347862 12.37679836 0.00113634 -0.00529319 0.00188349
N 1.53676375 3.27537037 10.36951338 0.00162471 -0.00106176 -0.00207165
N 0.32548174 6.20252339 15.51832017 -0.00326625 -0.00474475 0.00289480
N 3.40546897 1.40537810 17.00453655 -0.00284633 0.00470206 0.00307699
N 2.64394627 8.13293693 12.48230811 0.00072061 0.00266927 0.00376875
N 0.17429474 5.57074533 19.56518341 -0.00140426 -0.00061292 0.00350580
N 1.50204742 4.49359677 23.96128505 0.00258660 0.00191673 0.00477115
N 1.92421632 8.88618901 26.29813219 -0.00234194 0.00455109 -0.00149315
N 3.44828270 0.86897717 21.62440041 0.00294547 0.00158821 0.00736537
N 1.48929267 3.68896196 19.80542713 0.00018365 -0.00579058 -0.00408507
N 0.28302885 6.41496773 24.26997758 -0.00569394 0.00285357 -0.00419952
N 3.28881328 1.37321525 25.87302513 0.00026089 0.00675244 -0.00105165
N 2.05612935 8.39225996 21.27384527 0.00444679 0.00738588 -0.00544090
N 0.29831303 15.16275706 1.36560803 -0.00344881 0.00044282 0.00318948
N 1.88995255 13.50830720 5.61510494 0.00599198 0.00016748 0.00428131
N 1.83067881 18.43480051 8.23751652 0.00141002 -0.00070785 0.00280508
N 3.68460028 10.51691382 3.50309953 -0.00106330 0.00318490 0.00454422
N 1.46662422 13.15332160 1.77497571 0.00289099 0.00354465 0.00131415
N 0.61696753 15.36490629 6.16057226 0.00311240 -0.00370770 -0.00237109
N 3.59588465 10.93489566 7.56017646 -0.00095951 -0.00570099 0.00695191
N 2.47450983 17.81384064 3.28220333 -0.00222027 0.00505564 0.00444615
N 0.37283218 14.67525960 10.25950000 -0.00095473 0.00619775 -0.00278575
N 1.60201826 13.82372852 14.91476211 -0.01015935 0.00324315 0.00007189
N 1.94346635 18.45632376 17.23603838 0.00741356 -0.00261548 0.00197691
N 3.74702863 10.17986166 12.53732520 -0.00324698 0.00064655 0.00672306
N 1.29760837 12.63537847 10.67850309 -0.00488427 -0.00882568 -0.00198356
N 0.35153801 15.72099519 15.10601978 -0.00856178 -0.00089851 -0.00094061
N 3.31341124 11.04576299 16.84098397 0.00034769 0.00645772 0.00064076
N 2.17892447 17.52254874 12.34707634 0.00939599 -0.00234304 0.00968292
N 0.56354063 15.13508186 19.52680360 -0.00325484 -0.00070238 -0.00093804
N 1.35145056 13.68454484 24.22742741 0.00477816 -0.00278988 -0.00306854
N 2.34400424 18.35501298 26.38395281 0.00224168 -0.00104308 -0.00003274
N 3.32926863 10.19557438 21.95797859 -0.00904017 0.00354607 0.00114771
N 1.62659270 13.12176417 19.93383549 -0.00008869 -0.00666548 0.00122735
N 0.19655120 15.62446990 24.29472823 0.00562322 -0.00000007 -0.00357896
N 3.37560041 10.68514326 26.17857684 0.00203885 0.00653893 -0.00650241
N 2.18038455 17.77726870 21.51202686 0.00319319 -0.00442520 0.00339995
N 0.44885100 24.71789448 0.99606478 -0.00297128 0.00063424 -0.00192996
N 1.47845877 23.36520075 5.68665042 -0.00193655 0.00526865 -0.00118941
N 2.19285299 28.24186734 7.59782128 0.00329708 -0.00355523 0.00812826
N 3.44430799 19.88066407 3.17283462 -0.00068570 0.00064172 0.00001037
N 1.66933192 22.74163093 1.22075993 0.00446533 -0.00026461 -0.00628057
N 0.32124705 25.35766800 6.05108525 -0.00333011 0.00848832 -0.00667449
N 3.01187338 20.42597325 7.66156090 0.00652152 0.00527136 0.00289111
N 2.06248131 27.79701153 3.14719756 -0.00020228 0.00020754 0.00192904
N 0.09962163 24.63977576 10.24618606 -0.00403515 -0.00129810 0.00612230
N 1.64483235 23.55364045 14.95153038 0.00358507 0.00172303 0.00024238
N 1.94943446 28.50620790 17.08582854 0.00289487 -0.00924532 0.00138264
N 3.16040900 19.59403221 12.74702835 -0.00344523 -0.00117800 0.00769159
N 1.48350806 22.80948727 10.74990739 0.00281503 0.00274747 0.00103503
N 0.15359133 25.38920478 15.13795879 0.00214013 0.00499050 -0.00170370
N 3.44800319 20.25569275 16.79312003 -0.00358881 0.00447208 -0.00055360
N 2.22459965 27.29287604 12.00084243 -0.00171135 -0.00349979 0.00362520
N 0.17157903 24.84814117 19.65425565 -0.00277969 0.00258726 -0.00037577
N 1.90604002 23.19536260 23.86178480 -0.00067922 0.00298109 0.00656259
N 2.10248733 28.21312883 26.03183229 0.00487839 0.00005977 -0.00623948
N 3.53062278 19.62846327 21.94058077 -0.00247771 0.00208854 -0.00102801
N 1.38321726 22.90882438 19.59383344 -0.00571740 0.00418938 -0.00350796
N 0.59168449 25.09447268 24.39835437 0.00050417 -0.00481058 0.00736297
N 3.12590079 20.56565176 26.30675433 0.00226561 0.00496650 -0.00110710
N 2.31252865 27.73925097 21.61677891 0.00238518 0.00065805 -0.00203015
N 3.46473303 5.81297174 1.10920272 0.00566205 -0.00173104 -0.00127458
N 5.24538691 4.39650753 5.72922497 -0.00012097 -0.00052505 0.00264009
N 5.82076768 8.89185492 7.82278539 -0.00488364 0.00336131 0.00008471
N 6.90874073 0.93076062 3.61615914 -0.00389926 -0.00042518 -0.00641556
N 4.97745996 3.94961426 1.54989023 0.00069173 0.00009361 -0.00805729
N 4.05072903 6.32419692 6.26317088 0.00058865 0.00329180 -0.00384119
N 6.74116374 1.35626283 7.50518208 0.00012848 -0.00705582 -0.00024808
N 6.06328881 8.34852921 2.81183573 0.00379770 -0.00101380 -0.00135904
N 3.84630484 5.05408872 10.34258091 -0.00173305 0.00209200 0.00340835
N 5.00803847 4.00523014 15.06082835 -0.00054111 0.00544463 -0.00480540
N 5.62285819 9.14844168 16.83070871 0.00364745 0.00047992 -0.00397148
N 7.04775291 0.64787448 12.62726948 0.00012607 0.00258188 0.00007549
N 5.10488184 3.18249814 10.53055986 -0.00294965 0.00443008 0.00014399
N 3.65940457 5.90050967 15.37810886 0.00264105 -0.00386224 -0.00123304
N 7.01804858 1.29765058 16.67370340 -0.00466581 0.00497052 -0.00276950
N 6.09409162 8.29428491 12.08197354 -0.00670159 -0.00447166 -0.00733813
N 3.99158513 5.64073352 19.63722910 -0.00019609 0.00265793 0.00270980
N 5.11035537 4.45933218 23.99285027 0.00683796 0.00293477 0.00172521
N 5.75201130 8.95329850 25.86527557 -0.00347947 -0.00281114 0.00137007
N 7.25442728 0.56322613 21.65730614 0.00322781 0.00073780 0.00836552
N 5.44807775 3.92418788 20.03885958 -0.00385399 -0.00472287 0.00285660
N 4.05798934 6.52794338 24.08209661 0.00255196 0.00106446 0.00269770
N 7.01307916 1.43136924 26.03922744 -0.00118666 0.00652676 0.00394835
N 5.83152195 8.61553031 21.22753118 0.00037299 0.00209730 -0.00129541
N 4.13643231 14.86173737 1.31879625 -0.00175700 0.00478056 -0.00155108
N 5.22243301 13.54549872 5.74172606 -0.00351949 0.00460765 -0.00179542
N 5.63362209 18.72494284 7.88553685 0.00557984 -0.00280816 -0.00131539
N 7.29583170 10.17353017 3.36034064 -0.00247790 -0.00130609 0.00617613
N 5.20656495 12.85486270 1.34457679 -0.00422718 0.00071718 -0.00004117
N 4.32127939 15.62451932 6.13811235 -0.00549660 -0.00020462 -0.00131160
N 7.12307083 10.82101820 7.66016430 -0.00728290 -0.00417952 0.00211062
N 5.92263721 17.96247910 3.06705304 -0.00186141 0.00063706 0.00002990
N 3.65713867 14.72422576 10.53713535 -0.00277030 0.00338440 -0.00104775
N 5.40363188 13.88132815 15.01247022 0.00033330 -0.00131607 -0.01312978
N 5.79266822 18.42477566 17.26089292 0.00460901 0.00006758 -0.00114500
N 7.12198575 10.34756745 12.27372984 0.00248931 -0.00367514 -0.00191712
N 5.28723568 13.02932463 10.68863044 -0.00381595 -0.00070391 -0.00097916
N 4.01100271 15.64230402 15.50880964 0.00205949 -0.00825644 -0.00447898
N 7.22857609 10.86717399 16.53563008 0.00265404 0.00589135 -0.00063783
N 5.61371050 18.09249106 12.38787484 -0.00481990 -0.00015868 0.00186225
N 4.22791676 15.24035810 19.52810547 0.00532385 -0.00295905 0.00348845
N 5.33507932 13.57541805 24.07679880 -0.00291884 -0.01075777 0.00859990
N 5.56682428 18.70179307 26.37184710 -0.00886538 -0.00031621 0.00359435
N 7.19421422 10.38973159 21.39704655 0.00079776 0.00334172 0.00529582
N 5.41753167 13.29593845 19.88496303 -0.00157182 0.00266814 0.00365724
N 4.27591022 15.55008855 24.54474858 -0.00348373 -0.00054321 -0.00086261
N 7.04859940 10.88107284 25.70597585 -0.00432845 -0.00181118 0.00064578
N 5.80427016 17.98304921 21.90933781 -0.00217598 -0.00135642 -0.00357008
N 3.86434270 24.93794253 1.37378877 0.00122999 0.00101108 -0.00466811
N 4.47786654 23.12173766 5.63593239 -0.00319449 0.00455849 0.00245417
N 5.68694921 28.21181304 7.87758266 -0.00147894 0.00948322 -0.00439166
N 6.82078385 20.10228569 3.29312366 0.00457990 0.00229049 0.00174974
N 5.08080092 22.97901725 1.48820539 -0.00177690 -0.00396819 0.00154893
N 3.68103323 25.27162182 6.04483277 -0.00206202 0.00094155 -0.00790495
N 7.05475143 20.52767505 7.77892754 0.00450359 0.00110038 -0.00040718
N 5.83572036 27.78282564 3.05280802 0.00224671 0.00255888 -0.00111002
N 4.05153424 24.45610631 9.99240670 -0.00472467 -0.00164627 -0.00460586
N 5.15860241 23.42126925 15.02539758 -0.00119492 0.00330582 0.00098083
N 5.78314734 28.17262643 17.08753979 -0.00372265 -0.00224695 0.00174913
N 6.87931335 19.98998372 12.75461927 -0.00051239 0.00006018 0.00573606
N 5.09762951 22.44085942 10.53208793 -0.00226301 -0.00355164 0.00068604
N 3.86525198 25.35621350 15.17848429 0.00100851 0.00033037 -0.00525725
N 6.86160185 20.51131416 17.01184784 0.00074512 -0.00124841 0.00560852
N 5.61967726 27.67656974 12.31944294 0.00867293 -0.00105218 -0.00123203
N 3.96354152 24.64584252 19.34725385 -0.00068777 -0.00580300 -0.00344930
N 5.01573568 23.33083101 23.71808357 0.00504088 0.00073883 0.00025394
N 5.74615404 28.32211703 26.21780673 -0.00366971 0.00379570 0.00044412
N 7.01719992 19.94150481 21.70099908 0.00649831 0.00444530 -0.00378445
N 4.95251572 22.63090698 19.70951478 0.00278764 -0.00219180 0.00008569
N 4.20662213 25.42474017 24.11972249 0.00194018 -0.00368151 -0.00465176
N 6.81503197 20.55311777 25.79164396 0.00494982 -0.00086181 0.00052403
N 5.85723548 27.58515163 21.38647230 0.00265114 -0.00177123 -0.00170920
N 7.82273951 5.49103293 0.95854563 -0.00834350 -0.00914096 -0.00256076
N 8.53098329 3.93249380 5.56711205 0.00237693 -0.00204493 -0.00099459
N 9.48436650 8.88973055 7.87780983 0.00310470 0.00263947 -0.00936501
N 10.82274613 0.75852735 3.49215733 -0.00195720 0.00158358 0.00372604
N 8.82338383 3.38442969 1.46869027 0.00313916 -0.00814821 -0.00908921
N 7.83571819 6.21938071 5.72157736 0.00280222 0.00046358 0.00250755
N 10.62626532 1.36816507 7.82532514 0.00741132 0.00159851 -0.00542162
N 9.78964964 8.13288675 2.87849044 0.00372361 0.00142560 0.00899472
N 7.41347867 5.14424133 10.06710525 -0.00106282 -0.00117647 -0.01123602
N 8.65663028 4.07556850 14.40452261 0.00014704 -0.00240072 0.00208834
N 9.24297519 9.10440545 17.28667291 0.00119397 0.00362015 0.00542296
N 10.59718362 0.73765588 12.60743952 -0.00185118 0.00077331 0.00055844
N 8.72244768 3.43375466 10.88055406 -0.00272582 -0.00002920 -0.00148013
N 7.72383582 6.08068317 15.11133557 0.00114993 0.00271191 0.00644202
N 10.48152197 1.18594188 16.78694352 -0.00235391 -0.00449064 0.00521806
N 9.70091406 8.06992059 12.37506847 0.00074375 -0.00282461 0.00189379
N 7.78328676 5.56845934 19.27788969 0.00237863 -0.00082558 -0.00137561
N 8.84386647 4.36581101 23.89355465 0.00052275 0.00367898 -0.00278972
N 9.29965285 9.08460136 26.13402134 -0.00214755 0.00515234 0.00253780
N 10.69353779 0.67723489 21.67747904 -0.00197317 -0.00225038 -0.00015635
N 8.78035447 3.55572398 19.55533089 0.00057089 -0.00011679 0.00486874
N 7.59306553 6.29968901 24.18331717 0.00833462 0.00234052 -0.00216393
N 10.41684382 1.26369627 26.15943434 -0.00509545 -0.00739495 0.00276687
N 9.55643880 8.51563101 21.33595380 -0.00462522 -0.00485944 -0.00029842
N 7.26416553 15.14867162 1.13726499 0.00000724 -0.00064183 0.00562943
N 8.60266047 13.68055131 5.84399865 0.00063642 -0.00129156 0.00142981
N 9.32897311 18.90832659 7.74767313 -0.00025455 -0.00393022 0.00222609
N 11.00826402 10.09772554 3.13153234 -0.00491927 0.00584715 0.01372217
N 8.65034608 13.21274777 1.51053915 -0.00063901 -0.00250752 -0.00983713
N 7.58683236 15.78629257 5.98887662 0.00160841 -0.00137447 0.00401927
N 10.50987804 11.04521480 7.63930459 0.00320694 0.00019942 0.00074965
N 9.77839671 17.99892118 2.88900222 -0.00177479 0.00821154 -0.00416495
N 7.31091311 15.18601860 10.47367711 0.00064345 -0.00063650 -0.00351054
N 8.77291404 13.93633471 14.89345917 -0.00614958 -0.00002640 0.00248469
N 9.32655446 18.63330718 17.14693104 -0.00315983 0.00286822 0.00345143
N 10.43193905 10.23972379 12.60688281 0.00032951 -0.00162427 0.00048590
N 8.76152611 13.37437583 10.49957987 -0.00193998 0.00287801 0.00126465
N 7.65971809 15.94144139 15.23976449 0.00125301 0.00531607 0.00204289
N 10.68914469 10.79734603 16.71365985 0.00346964 0.00334847 0.00147925
N 9.27240946 18.32769454 12.22833154 0.00073802 -0.00291254 -0.00200490
N 7.95575540 15.10371520 19.56511460 -0.00224595 -0.00111780 -0.00181188
N 8.82304469 13.86755569 24.23430219 0.00480971 0.00078881 -0.00198101
N 9.13132790 18.76406393 26.26444430 0.00749146 -0.00505362 -0.00834961
N 10.88237067 10.31819429 21.56500862 0.00204064 -0.00493080 0.00026819
N 8.95297352 12.97489671 19.72434449 -0.00095878 -0.00497514 -0.00696923
N 7.53332810 15.75514307 24.43698524 0.00321483 0.01166523 0.00124185
N 10.68351062 10.86373762 25.94169287 0.00082347 -0.00122799 0.00272918
N 9.41780309 18.05175802 21.48917748 0.00023784 0.00330830 0.00447775
N 7.46702953 24.71039115 1.00194419 -0.00920503 0.00362276 -0.00254832
N 8.75950567 23.47887960 5.50733869 0.00097213 -0.00135776 0.00149082
N 9.48755757 28.22947999 8.10048561 0.00665492 0.00064101 -0.00165557
N 10.65837243 20.10300054 3.28786053 -0.00132196 -0.00215087 -0.00312965
N 8.83831969 22.83261711 1.42867837 0.00281262 0.00259396 0.00054545
N 7.58209076 25.40641711 5.74193511 -0.00473448 0.00134879 0.00158160
N 10.71331044 20.72224967 7.61561354 -0.00182307 0.00186538 0.00316025
N 9.29305132 27.80959349 3.39082873 -0.00205384 0.00426302 -0.00130935
N 7.39143861 24.74627291 10.55595294 -0.00391709 0.00076325 0.00612181
N 8.40036194 23.27124261 14.65456349 0.00102239 -0.00278681 -0.00503471
N 9.40256019 27.97901379 17.10976909 -0.00484067 0.00191675 -0.00444164
N 10.70154922 19.95869186 12.81620862 -0.00659167 0.00103284 0.00441699
N 8.60448880 22.82159228 10.86229817 -0.00039813 0.00258693 0.00720884
N 7.48780322 25.34172087 15.11062230 0.00235762 -0.00806017 0.00072570
N 10.28080711 20.76693795 16.93005150 0.00717057 0.00445101 0.00369582
N 9.42199675 27.62971678 12.17957224 -0.00647979 -0.00029116 0.00480096
N 7.39070909 24.46997753 19.52270570 0.00159311 -0.00213781 0.00225064
N 8.61602012 23.13834939 23.82543342 -0.00008282 0.00459471 0.00231444
N 9.57413468 27.97487262 26.04922217 0.00214475 -0.00698688 -0.00884958
N 10.60994631 20.02325520 21.82230952 0.00750400 -0.00261861 0.00549861
N 8.88674882 22.71455371 19.59743648 -0.01292514 0.00318051 0.00024247
N 7.83561728 25.28591494 24.08222348 -0.00019994 0.00290117 0.00220277
N 10.47878420 20.60748571 25.95840894 0.00084034 -0.00897550 -0.00870391
N 9.40080017 27.64881114 21.17685881 0.00452175 -0.00191962 0.00181681
N 11.32471918 5.05336896 1.35587648 -0.00176025 -0.00620701 0.00013704
N 12.33789893 4.09742960 5.94100950 0.00204865 0.00176193 0.00134402
N 13.13706170 8.90030250 7.81708994 0.00118890 0.00449236 -0.00499967
N 14.48553690 0.59193554 3.92557514 -0.00287279 0.00199007 0.00115138
N 12.50626852 3.14147529 1.74954846 0.00213654 -0.00688437 -0.00381221
N 11.03824313 6.05804337 6.12492790 -0.00439317 0.00468268 -0.00401581
N 14.02274088 1.36158540 7.70289212 -0.00108376 -0.00441312 -0.00161928
N 13.47029883 8.33658065 3.06855385 0.00251101 0.00233343 -0.00044634
N 10.91266565 5.22425083 10.46328647 0.00183290 -0.00283194 0.00101232
N 12.07724093 4.04872505 14.85290603 -0.00591945 0.00311839 0.00772034
N 12.96459075 9.09367866 17.34127638 0.00444280 -0.00063207 0.00451170
N 14.07476519 0.79449603 12.53415395 -0.00275512 0.00658972 -0.00225743
N 12.57012515 3.63621592 10.64380208 -0.00564636 -0.00418598 0.00533605
N 11.57846497 6.27537198 15.46026258 -0.00298530 -0.00212327 -0.00304340
N 14.20704953 1.16920855 16.94776193 0.00483081 -0.00606271 -0.00425059
N 13.13919215 8.40037843 12.38608655 -0.00003349 0.00131199 -0.00357041
N 11.21877698 5.40677751 19.51641975 0.00270346 0.00361865 0.00121336
N 12.59101364 4.15201317 23.99852662 0.00334931 0.00375627 0.00080785
N 12.80246101 8.99979936 26.32209334 0.00732546 -0.00037100 -0.00019430
N 14.06693469 0.83485161 21.72982664 -0.00592852 -0.00829557 -0.00220928
N 12.56538448 3.54873905 19.87688780 -0.00338058 0.00494951 -0.00004910
N 11.21901986 6.01811431 24.18478252 0.00215821 -0.00752818 0.00488915
N 14.62752867 1.16021603 25.88571631 -0.00588308 0.00213825 -0.00076235
N 13.22323250 8.59171142 21.34167810 -0.00770548 0.00082592 -0.00035264
N 11.17050172 15.14448378 1.22720573 -0.00001962 -0.00427069 0.00531443
N 12.79616503 13.66623837 5.61164529 0.00471075 -0.00124328 0.00347905
N 12.88543669 18.64822048 7.64244281 -0.00240594 0.00409886 -0.00446480
N 14.54098302 10.39312509 3.52968095 0.00047950 -0.01105989 -0.00349554
N 12.39790467 13.27584230 1.55198381 0.00509453 -0.00001195 -0.00464994
N 11.55124062 15.60084675 5.82164052 -0.00266172 0.00150239 -0.00423332
N 14.21448168 10.92846036 7.62612180 0.00692956 -0.00535798 0.00556924
N 13.16077351 18.24906501 3.15894721 0.00493421 -0.00252508 -0.00074423
N 11.34871058 14.92066284 10.35067585 0.00226945 0.00074049 0.00506074
N 12.57221008 13.88106875 15.03187464 -0.00262725 0.00539996 -0.00119909
N 12.75165497 18.77060576 17.00500968 -0.00323421 -0.00147816 0.00164554
N 14.43607504 10.20153806 12.59446348 0.00550454 -0.00640750 -0.00578449
N 12.65625017 13.06757802 10.57725182 0.00357729 0.00267585 0.00613090
N 11.42818328 15.91881086 15.26905917 0.00446983 0.00128469 0.00012934
N 14.43402895 10.81540640 16.81887928 0.00131531 -0.00392155 -0.00322024
N 13.14495880 17.96037959 12.05962684 -0.00117853 -0.00123773 0.00155458
N 11.27136518 15.27831669 19.43327674 0.00001083 0.00007096 0.00211186
N 12.54439249 13.82516476 24.11340160 0.00277278 -0.00728546 0.00374391
N 12.82097381 18.73438832 26.14346603 -0.00170729 0.00356549 -0.00215688
N 14.07766352 10.70049624 21.86791300 -0.00029708 0.00175169 0.00505060
N 12.69225565 13.37521186 19.69904448 0.00114956 -0.00102159 -0.00066617
N 11.28054224 15.65325773 24.37302418 -0.00210852 0.00347226 -0.00161372
N 14.26531573 10.75595276 26.11509580 -0.00133891 -0.00162280 -0.00193163
N 12.89110921 17.98413563 21.16354147 -0.00494624 -0.00734829 -0.00290070
N 11.16062020 24.83753668 1.05020571 0.00108895 0.00191010 0.00372589
N 12.59248487 23.66972612 5.61253522 0.00605624 -0.00052763 0.00232177
N 13.14604643 28.12775866 8.09157479 0.00484708 -0.00775701 0.00047793
N 14.39477005 20.16730237 3.17432345 -0.00325082 0.00215529 0.00198608
N 12.43142149 22.90247319 1.36073797 0.00117326 0.00233252 -0.00527799
N 11.12839702 25.50159346 5.90334682 -0.00761536 -0.00559322 -0.00210717
N 14.06126538 20.69444458 7.74851751 -0.00487966 -0.00078747 -0.00350918
N 13.06734605 27.76236876 3.09862084 -0.00288142 -0.00259742 -0.00497940
N 10.93289526 24.67843345 10.46581667 0.00198883 -0.00209776 -0.00527158
N 12.41406823 23.58916080 14.97291850 -0.00074855 -0.00078996 -0.00551918
N 12.94967356 28.19197206 17.34975600 0.00190888 -0.00024984 -0.00488136
N 13.80983890 20.20547084 12.45776448 -0.00166484 0.00184345 0.00761328
N 12.18739221 22.76096669 10.72393604 0.00768484 -0.00308948 0.00548588
N 11.07899377 25.48399441 15.34181850 -0.00025119 -0.00373683 -0.00206775
N 14.20406517 20.52700970 16.81077204 -0.00121621 -0.00690361 -0.00532558
N 12.99261041 27.73188423 12.36063264 -0.00332208 -0.00400834 -0.00136182
N 11.49996215 24.67767041 19.51681187 0.00110084 0.00276098 0.00156028
N 12.61229373 23.33495305 23.99725069 0.00367592 -0.00183716 0.00240758
N 13.15593323 28.23831464 26.14877955 0.00082384 0.00028910 -0.00466962
N 14.26108314 19.83322846 21.42631389 0.00075718 -0.00044258 -0.00101691
N 12.76424627 22.78596272 19.87602887 -0.00590620 -0.00949364 -0.00215362
N 11.61254532 25.35016746 24.18611117 0.00429986 0.00278056 0.00696568
N 14.24444172 20.54796148 26.06299416 -0.00349937 0.00166898 -0.00611857
N 13.13425813 27.60176376 21.37807667 -0.00298061 -0.00338910 0.00325663
N 14.77475167 5.29243690 1.25276869 0.00092798 -0.00226785 -0.00268710
N 16.22422071 4.09503164 5.71728256 0.00507601 0.00260208 -0.00235771
N 16.60454787 9.02936887 7.48743729 0.00344302 -0.00308484 0.00228931
N 17.95160149 0.45077518 3.65102010 0.00071611 -0.00321995 0.00051657
N 16.05709619 3.30409888 1.48684222 0.00152155 0.00322644 0.00869574
N 14.85952137 5.87445961 5.84836316 -0.00184900 -0.00372416 -0.00220954
N 18.34287776 1.25374162 7.58664450 -0.00306637 -0.00921497 -0.00059158
N 16.98499042 8.57594732 3.28593448 -0.00407903 0.00539921 -0.00153736
N 14.94841803 5.83147937 10.08792142 -0.00041966 0.00648924 0.00312176
N 16.39421693 4.14661191 14.83806988 -0.00825904 0.00108370 -0.00252893
N 17.12475417 8.60285465 17.05604467 0.00045154 -0.00143087 -0.00481589
N 17.58526791 0.61656896 12.38413792 0.00370224 -0.00158049 0.00499925
N 16.02186894 3.84816690 10.42844238 0.00113156 0.00136197 -0.00681118
N 14.88395939 5.96498931 14.76349850 0.00671926 0.00246028 0.00283589
N 17.81968572 1.34617771 17.01362347 -0.00214472 -0.00301089 -0.00509888
N 16.47280177 8.24206488 11.94391271 -0.00549727 -0.00450893 0.00370885
N 14.79480259 5.50607421 19.42969973 -0.00080724 0.00154881 -0.00517248
N 16.24874592 4.36218416 23.98993243 -0.00453772 -0.00271517 -0.00211601
N 16.87373844 8.92704173 26.31286572 -0.00351253 0.00232244 -0.00395183
N 18.07433961 0.56450623 21.70359487 -0.00199070 -0.00209824 0.00149754
N 16.13696877 3.77895154 20.06131413 -0.00228411 -0.00313140 -0.00368205
N 14.72560982 6.03047259 24.49859630 0.00054379 -0.00068725 0.00498284
N 18.36304016 1.14362045 25.99916299 0.00046534 -0.00102615 -0.01071630
N 16.79009578 8.27162258 21.49609840 -0.00598310 -0.00016300 0.00087679
N 15.19868325 15.29142821 1.04455653 -0.00029967 0.00622257 -0.00616712
N 16.52573470 13.67305624 5.94119196 -0.00181549 -0.00438075 0.00390836
N 16.59670966 18.71506639 7.87425870 -0.00453176 0.00394450 -0.00049226
N 18.43927398 10.42530786 3.45667824 -0.00407862 0.00166317 -0.00150946
N 16.16477370 13.22155339 1.54274826 0.00332922 0.00428751 0.00281306
N 15.11907454 15.56664882 5.92568448 0.00440416 -0.00252013 -0.00531587
N 17.95179186 10.89639339 7.71060942 0.00416375 0.00527880 -0.00110886
N 16.75719464 17.92116083 2.88354176 0.00647805 0.00811055 0.00119101
N 14.68808407 14.95999444 10.30706180 0.00338709 -0.00611403 0.00068145
N 16.05256035 13.88487242 14.78097041 0.00199148 -0.00365695 -0.00272131
N 16.74137088 18.65618443 17.15371449 -0.00117795 -0.00308685 -0.00665389
N 17.88499228 10.09092619 12.18470217 -0.00562139 0.00007204 -0.00007639
N 16.02049157 13.07728530 10.54934790 0.00392666 0.00723459 0.00463106
N 14.99013032 15.86941145 15.16704428 -0.00447946 -0.00646667 0.00719888
N 17.91589965 10.75752574 16.62119394 -0.00252604 -0.00535460 -0.00214224
N 16.83561018 17.76545368 12.03308572 -0.00058628 0.00172373 -0.00539097
N 15.09971136 15.07053759 19.26779729 0.00012554 -0.00137324 -0.00737259
N 16.06033555 13.82879338 24.01661895 -0.00153786 -0.00437231 0.00298526
N 16.55575230 18.42231951 26.15183887 0.00573248 0.00019357 0.00095364
N 17.82562025 10.23484171 21.43644040 -0.00153751 -0.00092087 -0.00462955
N 16.11089371 13.06559603 19.57972378 -0.00172479 0.00715996 0.00099084
N 15.07156899 15.89283985 24.34530264 0.00114114 0.00758500 0.00651144
N 17.52371992 11.09596668 25.95488805 -0.00377409 0.00510243 0.00198842
N 16.90654804 17.88066790 21.23098261 0.00198092 0.00023673 0.00669606
N 14.80101260 24.81502007 1.23261533 0.00481416 0.00277431 0.00187884
N 16.29698317 23.39776610 5.97402109 0.00055464 0.00606278 0.00362195
N 16.84555407 28.46900936 8.36766467 -0.00248365 -0.00276695 -0.00384772
N 17.99267787 19.82720270 3.18383120 0.00359726 -0.00509319 0.00191114
N 16.00681565 22.77985610 1.41942801 -0.00140738 -0.00114939 -0.00032928
N 15.02851381 25.30056776 6.19561260 -0.00503030 0.00128632 -0.00083006
N 17.90820416 20.54911138 7.86164842 -0.00824132 -0.00254179 -0.00287673
N 16.69582882 27.37436066 3.41659584 0.00075116 0.00854275 0.00043512
N 14.70746360 24.76374743 10.61913491 -0.00453138 -0.00035033 -0.00247944
N 16.16425735 23.46769998 15.04235932 0.00060119 0.00564630 -0.00173855
N 16.64332308 28.34190415 17.16941704 -0.00393568 -0.00607184 -0.00119758
N 18.06685684 19.61962916 12.54345329 -0.00184468 0.00289744 0.00219327
N 16.13283066 23.00966225 10.57580667 -0.00057202 0.00115539 0.00071761
N 14.86222384 25.27132162 15.25117986 -0.00394962 -0.00562886 -0.00734795
N 17.97513070 20.60781660 16.98247185 0.00022096 -0.00361985 -0.00268904
N 16.43080213 27.36495686 12.47198669 -0.00507759 0.00900470 -0.00600084
N 15.23510056 24.97871714 19.31658559 -0.00327863 0.00293682 0.00112313
N 16.08035827 23.18256667 24.02110424 -0.00018148 0.00276483 0.00068664
N 17.04472012 28.15460527 26.08937717 -0.00308906 -0.00243622 0.00173490
N 18.01480168 19.73197899 21.86059982 0.00372669 0.00470383 0.00493337
N 16.19449138 22.91212709 19.84646039 -0.00033575 -0.00246320 -0.00429907
N 15.04907270 25.24460613 24.40089995 0.00382470 0.00222075 0.00242099
N 17.87441307 20.22839550 25.67549947 0.00566101 -0.00223428 -0.00058321
N 16.89624552 27.42903499 21.28450436 -0.00028609 0.00002426 0.00342695
N 18.32327373 5.47889372 1.33464178 -0.00490113 0.00115895 0.00013000
N 20.25380905 4.00863917 5.39104926 0.00006620 0.00171706 0.00473121
N 20.41638556 8.92280786 7.88526271 -0.00575543 -0.00240359 -0.00086900
N 21.42986995 0.71846251 3.48343856 -0.00189420 -0.00693333 -0.00047133
N 19.66488741 3.45547960 1.39009077 0.00672329 0.00163048 0.00119709
N 18.66552898 5.55666988 6.06887489 0.00074095 0.00252533 0.00232861
N 21.53730780 0.92336810 7.52985458 -0.00515061 0.00344934 -0.00273519
N 20.82238356 8.16410183 3.07158722 0.00053640 -0.00420653 -0.00353238
N 18.52133376 5.13179651 10.28114907 0.00314619 -0.00485151 -0.00097900
N 19.93196971 3.87670171 14.74197092 -0.00349111 -0.00001973 -0.00492289
N 20.54644534 9.06788705 17.46397417 -0.00426691 0.00120045 -0.00061303
N 21.50189374 0.58516820 12.63328402 -0.00111326 -0.00979682 0.00181782
N 19.75929111 3.19666933 10.59753295 0.00317346 -0.00247581 0.00060487
N 19.11375221 5.96685722 15.15657249 0.00521472 0.00712364 -0.00069063
N 21.34064752 1.31077362 16.88797079 0.00170153 0.00454174 -0.00545636
N 20.33276682 8.23660302 11.92120674 -0.00109903 -0.00127404 -0.00204110
N 18.44051565 5.41322932 19.34418811 0.00250631 0.00523162 0.00676945
N 20.08267989 4.15505044 24.17452949 0.00885476 0.00045596 -0.00195813
N 20.18276350 9.21434321 26.22495850 -0.00215053 -0.00682757 0.00078211
N 21.82243262 0.47994160 21.74775494 0.00280794 0.00196288 -0.00588177
N 19.72529609 3.54389127 19.79529843 0.00121123 -0.00936512 0.00483190
N 18.58369784 5.97878604 24.67606727 0.00160541 -0.00160673 0.00029006
N 21.74508989 1.24199657 25.89427040 0.00694802 -0.00466131 -0.01318912
N 20.57347913 8.19374994 21.45022045 0.00217336 0.00033561 0.00245035
N 18.34711829 15.12991512 1.27358778 0.00176005 0.00537484 -0.00016032
N 20.05627693 13.86368283 5.89554042 0.00223151 -0.00858244 0.00399712
N 20.29342966 18.53067999 7.72426612 0.00087246 -0.01162490 0.00217402
N 0.08007926 10.01617242 3.47847217 -0.00284918 -0.00175010 -0.00097906
N 19.94242601 13.32698149 1.47675144 0.00241897 -0.00104651 -0.00396380
N 18.86163866 15.88555948 6.33617540 0.00143991 -0.00029746 0.00759094
N 21.60385684 10.82184875 7.64833688 -0.00000238 0.00423715 -0.00282020
N 20.42999182 18.01392660 3.22605614 0.00077972 0.00595331 -0.00571352
N 18.38885903 14.58269853 10.37607784 0.00293281 -0.00649434 -0.00549150
N 19.71358502 13.53528153 14.71816776 -0.00377802 -0.00315687 0.00471591
N 20.19941420 18.32518957 17.11231700 -0.00412116 0.00339652 0.00113901
N 21.85969182 9.92844611 12.39465410 0.00318469 -0.00018267 -0.00340810
N 19.87090949 12.70420341 10.68785174 0.00306247 -0.00210046 0.00261493
N 18.88077586 15.66272086 15.16940818 0.00337841 0.00043489 -0.00186847
N 21.52409463 11.00826385 16.72449197 -0.00361020 0.00057552 0.00017864
N 20.56188212 17.66992264 12.20584160 0.00304223 -0.00062077 -0.00135516
N 18.84426027 15.01892818 19.27958487 0.00067334 -0.00038313 0.00166124
N 19.70831119 13.87049618 24.08508558 -0.00481573 -0.00259255 -0.00766679
N 20.23613069 18.66330048 26.16710332 0.00934901 0.00420465 -0.00323874
N 21.47280835 10.28266822 21.63404204 0.00318809 0.00398353 0.00358657
N 19.97514928 13.09225735 19.62406441 -0.00006112 -0.00089320 0.00293675
N 18.47289147 15.77951105 24.12493223 0.00211108 -0.00080246 -0.00278322
N 21.31820078 11.11155294 25.89925525 0.00238796 0.00225609 -0.00285757
N 20.84453920 17.48996619 21.19846837 0.00018042 0.00096802 -0.00162311
N 18.67437840 24.60669924 1.13621722 -0.00118334 -0.00450265 0.00063587
N 19.76648349 23.21362500 5.83601951 -0.00682819 0.00285965 -0.00507298
N 20.41884658 27.85695301 8.06406087 -0.00713923 -0.00045076 0.00621671
N 21.54833587 19.99603759 3.60787499 0.00571384 -0.00127477 -0.00341930
N 19.63395169 22.67741991 1.84336912 0.00058330 -0.00151125 0.00047950
N 18.46266313 25.13571085 6.25045725 0.00156150 0.00290855 -0.00091048