1728
Time=72000.00000007 pbc="T T T" Lattice="22.19753765 0.00000000 0.00000000 0.00000000 28.64040432 0.00000000 0.00000000 0.00000000 27.35839833" energy=-10389.41315985 virial="41.13351417 4.73427281 -11.25003149 4.73427281 65.96014380 11.96868674 -11.25003149 11.96868674 29.24965419" stress="0.00477201 0.00025976 -0.00053679 0.00025976 0.00625292 0.00073903 -0.00053679 0.00073903 0.00429229" Properties=species:S:1:pos:R:3:vel:R:3
N 0.42682054 5.40446674 0.98274066 0.00153562 -0.00179202 0.00145204
N 1.87381693 4.04048101 5.74016450 0.00142335 0.00064566 -0.00056383
N 2.27701519 8.55870588 8.22689251 -0.00082837 -0.00327423 0.00115771
N 3.76339600 0.80083770 3.43191943 -0.00511834 0.00413394 -0.00818438
N 1.61969002 3.43628154 1.44195448 -0.00393254 -0.00712045 0.00013655
N 0.24044294 5.72792126 5.98969288 0.00394344 -0.00365786 -0.00196235
N 3.77620715 1.20982939 7.60707962 -0.00397020 -0.00862863 0.01199961
N 2.21876477 8.22307091 3.21475098 0.00066974 -0.00350943 -0.00783795
N 0.32935327 5.25761797 10.27700312 -0.00131888 0.00344379 0.00493096
N 1.35210273 4.14252316 14.97047067 -0.00267351 -0.00072342 -0.00586797
N 2.28533312 8.83047782 17.18331276 0.00683363 0.00344092 -0.00039951
N 3.86738219 0.47847085 12.49686380 -0.00084539 -0.00046637 -0.00521432
N 1.53551961 3.24593975 10.60229881 0.00444457 0.00503594 -0.00795010
N 0.01896000 6.01570498 15.15425074 -0.00447860 -0.00221564 -0.00150440
N 3.22632251 1.50168647 16.79208648 -0.00154595 0.00139531 -0.00333847
N 2.00235990 8.07616786 12.34588421 -0.00714285 -0.00118134 -0.00076073
N 0.05429820 5.33035609 19.37752656 0.00882011 0.00337255 0.00190917
N 1.69747133 4.17218158 23.91274453 0.00547274 -0.00218588 -0.00348069
N 2.11321304 8.75053188 26.31684670 0.00177685 -0.00069846 -0.00326608
N 3.47608120 0.49831184 21.41301788 -0.00365295 0.00169047 -0.00330890
N 1.36132475 3.40014290 19.77847770 0.00168259 0.00056773 0.00010678
N 0.26686960 5.95730083 24.07167343 0.00138628 0.00366658 -0.00541815
N 3.54333827 1.16499659 25.70621310 -0.00082135 -0.00204762 0.00338673
N 1.96162436 8.28952112 21.42746313 0.00243436 -0.00490260 -0.00419792
N 0.32898445 14.71113124 1.23375157 -0.00522648 0.00221256 -0.00476632
N 1.82185976 13.72121312 5.84427953 -0.00015305 -0.00217489 0.00032413
N 2.33128413 18.50150204 8.06409797 0.00097945 0.00568976 -0.00196028
N 3.47717089 10.11774022 3.57869436 -0.00585001 0.00227162 -0.00411625
N 1.74599045 12.89958617 1.60378935 0.00082001 -0.00126739 0.00497009
N 0.43974975 15.64167236 5.90952634 0.00433387 -0.00358758 0.00017062
N 3.39905712 10.47746488 7.65952249 -0.00410230 -0.00291018 0.00873272
N 2.27670804 17.76880376 3.08340504 -0.00294232 0.00213893 -0.00848561
N 0.53447539 14.98278438 10.43141860 0.00425655 0.00455776 -0.00053705
N 1.48300549 13.62409968 15.15531223 0.00438109 -0.00141005 0.00366735
N 1.97148375 18.44187006 17.12299027 -0.00164058 0.00598547 0.00473446
N 3.21275647 10.03576116 12.62220669 -0.00049641 0.00422678 0.00152464
N 1.39701827 12.84410068 10.44711341 0.00010107 0.00037880 0.00235121
N 0.18715606 15.57118166 15.23900382 0.00080609 0.00322229 -0.00098857
N 3.13365089 10.96206831 16.94810475 0.00030840 0.00689170 0.00204598
N 2.29317270 18.00559442 12.67630565 0.00188152 0.00101813 -0.00321983
N 22.03710841 15.09338958 19.52741807 0.00623321 0.00359768 -0.00146289
N 1.88741088 13.62694227 23.94960115 0.00104243 0.00004382 -0.00357364
N 2.02032399 18.31317348 26.07875654 0.00056714 -0.00086123 0.00012552
N 3.18260918 10.16808366 21.56781159 0.00033790 -0.00069659 -0.00326657
N 1.31124809 13.27914611 19.62139910 -0.00110473 -0.00629874 0.00738366
N 0.26056471 15.37993615 24.03891142 0.00081401 -0.00442615 -0.00230796
N 3.13060736 10.80692391 25.83382862 0.00451034 0.00205025 -0.00165696
N 2.05245494 17.87521189 21.56647310 0.00469122 -0.00153689 -0.00638675
N 0.39506509 24.92578549 1.04534920 0.00323885 -0.00853251 0.00358154
N 1.69682223 23.41205256 5.66861872 -0.00107743 0.00339590 -0.00202430
N 2.55597037 27.83856316 7.86382190 -0.00287572 -0.00040716 0.00695095
N 3.34441574 19.81366849 3.47172009 -0.00083706 0.00215177 -0.00107129
N 1.53511036 22.84629874 1.12424631 -0.00382446 -0.00542092 -0.00166007
N 0.39230936 25.28114227 5.92092574 -0.00007864 0.00355920 -0.00627884
N 3.50120104 20.41236535 7.48668251 0.00558492 -0.00271328 0.00086228
N 2.76441426 27.30179054 3.14129778 0.00442060 0.00914398 -0.00055296
N 0.66187345 24.37560470 10.36698475 -0.00373804 -0.00565513 -0.00244036
N 1.57515432 23.33590462 14.57540821 -0.00576282 -0.00418866 -0.00220905
N 2.45170939 28.02197959 16.97236243 0.00449079 0.00106811 -0.00298577
N 3.74731825 19.80880558 12.74355737 -0.00082169 -0.00182426 0.00186282
N 1.64871161 22.23731696 10.37304734 -0.00035076 -0.00237056 -0.00084929
N 0.22204602 24.92676281 15.38858341 -0.00303046 -0.00293862 -0.00181476
N 3.04468219 20.44101017 16.82559564 0.00199401 -0.00863714 -0.00623772
N 2.06938199 27.67225015 12.40377996 0.00086018 -0.00342910 0.00048087
N 0.02970411 24.65449038 19.36529873 0.00095592 0.00308493 -0.00255257
N 1.79454971 23.18652502 24.25692225 -0.00065537 -0.00166656 0.00249102
N 2.02238153 28.20449914 26.14191626 -0.00632254 0.00282428 0.00009408
N 3.02759965 19.91345795 21.68919728 0.00197959 -0.00582682 -0.00147826
N 1.45137430 22.79217662 19.66890554 0.00595238 -0.01274756 0.00085203
N 0.20146286 24.95067524 24.35678671 -0.00288479 -0.00502682 0.00620406
N 3.19260961 20.28917372 26.05712437 0.00181359 -0.00840566 0.00084499
N 2.22312476 27.21557466 21.49088121 -0.00339884 -0.00572862 0.00430636
N 4.03279849 5.66939199 1.21363215 0.00161934 0.00048892 -0.00177864
N 5.60428734 4.18352150 5.76335700 0.00257129 0.00892674 -0.00309952
N 5.70440288 8.86282841 7.78515257 -0.00127855 0.00034803 -0.00885742
N 7.34328892 0.71369603 3.91791738 -0.00085245 -0.00412404 -0.00484670
N 5.42513236 3.79252541 1.42037274 -0.00007484 -0.00101530 0.00262623
N 3.98360358 5.81451488 5.99414811 -0.00594225 -0.00094647 -0.00042872
N 6.99086932 0.97225647 7.68018555 0.00907727 0.00367450 -0.00717212
N 5.81940286 8.36216271 3.02061606 0.00451198 -0.00674620 -0.00083130
N 4.24876919 5.36480275 10.21753207 -0.00471111 -0.00123467 0.00775781
N 5.38783324 4.09039321 14.75677581 -0.00063048 -0.00163728 0.00336802
N 5.42868069 8.93316229 16.98377386 0.00232161 0.00741195 -0.00235586
N 7.30896817 0.42221977 12.39832263 0.00352018 -0.00010292 0.00081561
N 5.41993853 3.35621335 10.44015942 0.00485730 0.00716830 -0.00366139
N 3.85036915 5.87684837 14.94016530 0.00428296 0.00507661 0.00187175
N 6.76483145 1.45327939 16.70001907 0.00236162 -0.00821576 0.00047050
N 6.14105701 8.04689308 12.02021776 0.00726882 0.00364585 0.00347364
N 3.71274038 5.32087645 19.30499149 0.00189402 -0.00100048 0.00391696
N 5.30737777 4.39561169 23.95872333 0.00016697 0.00464516 0.00429275
N 5.90262380 8.95453849 26.20505544 0.00091693 -0.00041344 -0.00271155
N 7.41273145 0.75881529 21.81827374 0.00493933 0.00276028 0.00206706
N 5.11042411 3.56384219 19.80363424 0.00015917 -0.00847431 0.00571153
N 3.99895570 6.23860499 24.01358947 -0.00037745 0.00079476 -0.00272241
N 6.86040187 1.56210142 26.21023657 -0.00417021 0.00132124 0.00237466
N 5.61489922 8.36765029 21.16606343 0.00788872 -0.00884945 0.00189125
N 3.94417893 14.82849350 1.49313641 -0.00385929 0.00241965 -0.00467724
N 5.01331722 13.32632036 5.58545175 -0.00003875 -0.00074018 -0.00756839
N 6.06275095 18.32061496 8.16328558 -0.00326636 0.00221687 -0.00327101
N 7.19200896 10.17949056 3.26417070 -0.00153931 -0.00377493 -0.00322795
N 5.25956541 12.95398100 1.46975446 0.00274331 -0.00573702 0.00018923
N 4.29965209 15.43369055 6.08226439 0.01011709 0.00025587 0.00003228
N 7.06826676 10.76210701 7.36980436 -0.00541820 0.00290993 0.00249270
N 5.76739041 17.99217369 2.97903712 0.00360416 0.00248654 -0.00530327
N 3.54128929 14.78466501 10.66306488 0.00101957 0.00307487 -0.00681327
N 5.17027003 13.75057227 14.87431379 -0.00214775 0.00574575 0.00235487
N 6.02036787 18.22552474 17.23014941 -0.00205286 -0.00440500 0.00513562
N 7.03400063 10.14211510 12.54990287 0.00876653 0.00152626 0.00330017
N 4.90344978 12.86094614 10.64397397 -0.00152883 0.00490322 0.00244722
N 3.79920306 15.51963831 15.60112720 -0.00331717 -0.00381881 -0.00089711
N 6.59962712 10.97539536 16.69240494 -0.00006412 0.00358608 -0.00694618
N 5.98400188 17.85277577 12.38362516 0.00174140 0.00247799 0.00194865
N 3.80922127 15.05036511 19.68538737 0.00569073 -0.00973865 0.00374861
N 5.39578147 13.86611069 24.35153159 -0.00753082 -0.00181863 0.00444599
N 5.50425930 18.60809470 26.17831528 0.00270391 0.00432900 -0.00040962
N 6.68709496 10.29332862 21.86324457 -0.00551252 -0.00060238 -0.00116733
N 5.07780362 13.10511876 19.93639191 -0.00396149 -0.00105223 -0.00088828
N 3.86487113 15.61957118 24.54629607 0.00868208 -0.00495472 0.00576010
N 7.21969905 10.75460513 25.72175681 0.00444479 0.01004473 -0.00012706
N 6.05526097 17.64301895 21.24527688 0.00122746 0.00444606 -0.00217881
N 4.63030349 25.06451947 1.07020137 -0.00580622 0.00082370 0.00153451
N 5.29403588 23.08858276 5.59712305 0.00826919 -0.00303617 -0.00159939
N 5.89038081 27.62228550 7.97721784 -0.00030125 -0.00277222 0.00559416
N 6.94272405 19.88857562 3.30350969 0.00348193 -0.00901419 0.00154661
N 5.25634511 22.84980868 1.22059734 -0.00037114 0.00129636 -0.00243996
N 4.06826858 25.01013959 6.00917975 -0.00265315 0.00282130 0.00294069
N 7.04508141 20.37212114 7.69533121 0.00324777 -0.00162575 0.00113993
N 6.23082538 27.55305847 3.15909397 -0.00442370 -0.00267331 -0.00171822
N 4.11922157 24.51910506 10.19754393 0.00139512 -0.00544633 0.00068800
N 5.33595702 23.16339581 14.95154383 0.00183476 -0.00078525 0.00228247
N 6.33337670 27.82400723 17.12310856 -0.00020771 0.00113647 0.00051635
N 7.03008125 19.87861145 12.93709434 -0.00648332 0.00114285 -0.00512735
N 5.36357121 22.53251772 10.36927717 0.00253528 -0.00114653 0.00312052
N 4.14297124 25.07913591 15.08873418 -0.00416372 -0.00212768 -0.00188835
N 7.21766597 20.25364211 17.13378717 0.00172599 0.00626486 0.00179808
N 6.03912300 27.21772523 12.17593585 -0.00207914 -0.00324798 -0.00046250
N 4.00790289 24.56246104 19.52039644 0.00086588 0.00336196 0.00099306
N 5.52289096 23.46028856 24.50148213 0.00488015 -0.00119946 -0.00182382
N 5.68493684 28.20054302 26.65290331 0.00018992 0.00048352 -0.00274004
N 7.15029764 19.71043624 21.77654108 -0.00031711 -0.00352713 -0.00358014
N 4.86725650 22.51495688 19.90110130 0.00094376 0.00299663 -0.00055329
N 4.06645065 25.28385675 24.67149394 0.00252075 0.00507542 0.00334073
N 6.81257573 20.47343115 26.20669975 -0.00624219 -0.00653182 0.00051805
N 6.06965339 27.61563123 21.31775873 0.00084089 -0.00086994 0.00439645
N 7.96862491 5.78605427 1.31340349 -0.00075141 0.00041629 -0.00039110
N 9.25390066 3.83200939 5.62898735 -0.00071968 0.00329949 0.00762960
N 9.34679668 8.69010180 8.07528432 0.00096300 0.00202346 0.00379046
N 10.69948299 0.78527912 3.17731129 -0.00258906 0.00657904 0.00119512
N 9.18643246 3.86552043 1.25689680 -0.00084979 -0.00577068 0.00115009
N 8.11400723 5.86618272 5.94072036 0.00328684 -0.00005002 -0.00177551
N 11.01378472 1.01511537 7.38650967 0.00696991 -0.00084279 0.00402884
N 10.07228023 8.30208964 3.31597245 0.00192050 0.00354445 -0.00136014
N 7.85092548 5.53471202 10.15105913 -0.00062973 0.00270230 0.00452836
N 9.10320179 3.98177735 14.84587309 -0.00344730 0.00280486 -0.00217397
N 9.73850045 8.46101631 16.96411072 -0.00940194 0.00035087 0.00138652
N 10.83290038 0.93036955 12.48187615 0.00299965 -0.00182567 0.00023594
N 9.05895997 3.55953012 10.43340031 -0.00132379 -0.00236051 0.00092500
N 7.88444496 5.90991825 15.16075721 0.00015998 -0.00203476 0.00478179
N 10.62348007 0.99337633 16.80831398 0.00278044 0.00179353 0.00436737
N 9.21306643 8.06539264 12.25677564 -0.00100333 0.00039204 -0.00788649
N 7.39661006 5.48379934 19.37253464 0.00322979 0.00085947 -0.00143974
N 8.99313392 4.45025388 24.20050138 0.01028856 0.00243252 -0.00033313
N 9.49414310 8.98555300 26.11892106 -0.00283734 -0.00121278 0.00412543
N 10.92077702 0.43451553 21.48839904 -0.00096503 -0.00405675 0.00387144
N 8.63623932 3.49318052 19.66848313 0.00684035 0.00249198 -0.00108230
N 7.61261843 6.33794590 24.10552367 -0.00165622 -0.00551182 -0.00699434
N 10.72394327 1.33864823 25.68324893 -0.00492513 0.00622641 0.00168167
N 9.47107626 8.37249747 21.15089655 -0.00323486 -0.00069464 -0.00200624
N 7.76782837 15.18264172 1.26518210 -0.00767986 0.00286699 0.00377239
N 9.09229607 13.52286836 5.64358963 -0.00724400 0.00770502 -0.00109078
N 9.34487168 18.40962523 7.92942108 0.00501748 0.00288419 0.00009648
N 10.88044530 10.50638345 3.52210807 -0.00275350 0.00293212 0.00120238
N 8.83608901 13.16328118 1.55376493 0.00512225 0.00151301 0.00447929
N 7.92347086 15.42183813 6.03417860 0.00142774 -0.00195027 0.00012429
N 10.77596689 10.61379886 8.02014629 0.00107363 -0.00445888 -0.00201279
N 9.55553723 18.07900337 3.58847032 -0.00247338 -0.00740855 -0.00234090
N 7.34058443 15.16449139 10.45009562 0.00078708 0.00314302 -0.00379009
N 8.95293213 13.55748801 14.57286602 -0.00208287 -0.00292276 -0.00470145
N 9.35759428 18.29745023 16.90755861 0.00478069 -0.00047124 -0.01050385
N 10.45364139 10.06739290 12.41304377 -0.00280000 -0.00104780 0.00267756
N 8.49485374 13.19787135 10.46089180 -0.00144532 0.00066286 -0.00680560
N 7.57635024 15.50389001 14.85350229 -0.00278918 0.00419283 0.00230802
N 10.71392022 10.50461079 16.61769162 -0.00780779 0.00076189 -0.00323371
N 9.41910548 17.88869124 12.03648797 0.00355912 0.00210416 0.00661318
N 7.40743335 14.85916755 19.25790368 0.00594888 0.00164758 0.00221206
N 8.85862733 13.97750816 24.05225167 0.00161179 0.00057082 0.00532453
N 9.67620260 18.32350559 26.63106549 -0.00629313 -0.00167616 0.00066497
N 10.56703797 10.39901014 21.27217945 -0.01057727 0.00055577 0.00213187
N 8.63087678 12.89497702 19.46755740 0.00375876 0.00265189 0.00222559
N 7.57075944 15.86317100 24.41588163 -0.00194135 -0.00607022 0.00443194
N 10.46955060 10.90582958 25.76857901 0.00013725 0.01083734 -0.00294042
N 9.49907603 17.74643062 21.46007340 0.00526453 0.00150776 -0.00031999
N 7.68388592 24.68017663 1.01743842 0.00412364 -0.00053733 -0.00174135
N 8.80188244 22.88102358 5.71258369 -0.00166708 -0.00067539 -0.00052438
N 9.48739618 27.95861305 7.84276339 -0.00187694 -0.00032496 -0.00031598
N 11.23781934 19.69051488 3.54484912 0.00519347 0.00280815 0.00421225
N 8.78502493 22.68884798 1.68339926 -0.00744340 0.00305822 -0.00446447
N 7.82193200 24.95839719 6.01229423 0.00074468 -0.00007293 -0.00273401
N 10.77256611 20.20590413 7.78851287 -0.00218980 -0.00299248 -0.00080376
N 9.94714576 27.23911437 2.90166033 0.00212014 -0.00235347 0.00139851
N 7.88986130 24.83568233 10.00435993 -0.00027864 0.00077706 -0.00073189
N 8.91809306 23.14443112 15.11867017 0.00983805 -0.00053393 0.00514008
N 9.33520779 27.80637539 16.99763716 0.00223634 0.00310042 -0.00279916
N 10.72189042 19.76749411 12.50406176 0.00086739 0.00350238 -0.00430578
N 8.75228474 22.86738958 10.85715607 -0.00065067 0.00287253 -0.00127860
N 7.71072435 25.10981194 15.20757661 0.00133988 0.00248743 -0.00623672
N 10.64980547 20.20065584 16.71529352 -0.00608115 0.00406933 0.00294481
N 9.86662093 27.47363244 12.11672700 -0.00720429 -0.00005024 -0.00143711
N 7.21621041 24.29682515 19.76121673 -0.00801103 -0.00303185 0.00104179
N 8.81007424 23.15913199 23.92969092 -0.00446104 -0.00422816 -0.00447673
N 9.37987179 28.10523282 26.01044042 -0.00200090 -0.00756215 -0.00155053
N 10.76822625 19.83809412 21.67454422 0.00749527 -0.00172496 -0.00316728
N 8.73733218 22.54621083 19.91767676 0.00005836 0.00129923 0.00059756
N 7.98383516 25.26647901 24.33094970 0.00479668 0.00022769 -0.00479375
N 10.67342414 20.45619907 26.41003539 -0.00688518 -0.00454472 -0.00492872
N 9.60880030 27.24751174 21.18563259 0.00457181 -0.00076073 0.00434641
N 11.84699011 5.40316636 1.27028610 0.00390094 0.00062700 -0.00168354
N 12.92227017 4.42813308 5.68012523 -0.00075932 0.00304410 0.00383171
N 13.73265279 8.63398256 8.08926890 0.00367106 -0.00505179 0.00436368
N 14.64786404 0.40070449 3.40895577 -0.00340318 0.00127852 0.00327600
N 12.92454224 3.47339935 1.45412272 -0.00095063 -0.00213222 -0.00009768
N 11.58926628 6.32991665 6.06838171 -0.00282575 -0.00521013 -0.00030949
N 14.50172109 0.94983582 7.77445370 -0.00125401 -0.00408327 -0.00710352
N 13.71848766 8.57920658 3.26914004 0.00339136 0.00203317 0.00202368
N 11.58946029 5.43790308 10.02837542 0.00032082 -0.00121568 0.00037417
N 12.74532783 3.67712822 14.67293582 0.00096211 -0.00307754 -0.00089552
N 13.35507157 8.88572874 16.88297705 0.00880818 -0.00098554 -0.00614580
N 14.87373795 0.70016715 12.56272823 -0.00044428 -0.00384238 -0.00365151
N 12.46268474 3.32660542 10.23145353 0.00805823 -0.00218010 0.00023622
N 11.77327268 5.69588429 15.21419822 0.00090890 -0.00014798 0.00712837
N 14.58099989 0.82952904 16.82091244 -0.00171603 0.00172965 -0.00474775
N 12.99229705 8.24328406 12.21851649 -0.00042384 0.00054199 0.00110120
N 11.23281772 5.38914787 19.42226054 0.00139998 -0.00254302 -0.00206778
N 12.66336979 4.17707728 23.92400512 0.00345523 0.00304219 -0.00394114
N 13.33500534 8.89643060 25.99765390 0.00717788 0.00258836 -0.00137592
N 14.72859970 0.83868813 21.58689038 -0.00000996 0.00123661 0.00105175
N 12.30898521 3.35602368 19.54102030 -0.00100316 -0.00255515 -0.00297806
N 11.34991404 6.05175270 24.50864475 0.00350252 0.00536794 0.00551577
N 14.37305694 1.39424831 25.96924162 -0.00505860 -0.00015326 0.00139836
N 13.27076093 8.36485930 21.11111327 0.00601790 -0.00087528 -0.00548722
N 11.16004141 15.13889840 1.44981437 -0.00530312 -0.00120302 0.00293064
N 12.87876624 13.78558313 5.92778127 0.00110957 0.00585299 -0.00036044
N 13.14707423 18.60365527 8.11067859 -0.00088765 0.00565700 -0.00082102
N 14.56746862 10.67422613 3.28477464 0.00319461 -0.00091250 -0.00020796
N 12.24273679 13.14632163 1.66700578 0.00601282 -0.00390396 -0.00909137
N 11.30702479 15.35919601 6.47383397 0.00439666 -0.00265819 -0.00164709
N 14.43699010 10.84841885 7.83331594 0.00614233 -0.00346518 -0.00459678
N 13.37187304 17.45979562 3.29913665 0.00129789 0.00176880 -0.00109363
N 11.10296730 15.02230793 10.29202742 -0.00636446 -0.00264914 0.00055866
N 12.50087908 13.62282483 14.32037283 0.00146277 0.00516259 -0.00689601
N 12.97274396 18.39198027 16.94353065 0.00301296 0.00390771 -0.00176214
N 14.64182645 9.82637855 12.55829585 -0.00363834 -0.00240752 0.00164199
N 12.48170461 13.20291940 10.66534606 0.00158760 -0.00502176 0.00391844
N 11.69395552 15.77244326 14.84268007 0.00250599 0.00123085 0.00246677
N 14.53978162 10.77165835 16.11285943 0.00251682 -0.00248878 -0.00406602
N 13.32759353 18.14809836 12.05318538 0.00324287 0.00348017 -0.00332102
N 11.06795569 14.84510895 19.09520451 0.00143837 0.00365242 0.00054739
N 12.81729703 13.88458417 24.02895942 0.00891469 0.00185253 -0.00461444
N 13.70758210 18.13779346 26.06379030 -0.00429283 -0.00571209 -0.00183462
N 14.60694280 10.24505242 21.32883788 -0.00215733 -0.00042356 -0.00147356
N 12.30847529 12.87385724 19.47440891 -0.00062017 -0.00034482 0.00208192
N 11.46606820 15.84714484 24.31579667 -0.00014504 0.00224418 -0.00401819
N 14.80924320 10.59969962 25.56726969 0.00148982 0.00015506 -0.00379089
N 12.85611133 18.15857696 21.16997152 0.00740219 0.00202687 -0.00006877
N 11.41749411 24.35258445 1.10976693 0.00113857 -0.00162411 0.00694872
N 12.77906543 23.40961067 5.60153880 0.00154316 0.00268641 0.00161249
N 13.34804285 27.57904270 8.12632008 -0.00164497 -0.00578671 -0.00071467
N 14.74218693 19.32429539 3.35491933 -0.00149984 -0.00355387 0.00110526
N 12.58190907 22.46088722 1.55257548 -0.00837329 0.00925292 0.00018292
N 11.39691921 25.14734036 6.04095897 0.00060145 0.00679001 -0.00165097
N 14.45341027 20.45789160 7.50651045 0.00854367 0.00027331 -0.00324860
N 13.41819601 27.04474666 3.14832783 -0.00244554 -0.00439528 0.00136047
N 11.32729824 24.56475351 10.36144733 -0.00007326 -0.00537438 0.00170583
N 12.61504527 23.21955201 14.92278246 0.00853844 0.00449356 0.00276969
N 13.01780381 27.77642057 17.21698371 0.00322901 -0.00016772 0.00092609
N 14.19765077 20.17231827 12.57331412 -0.00406415 -0.00367941 0.00591451
N 12.66333650 22.67039502 10.69448348 -0.00067982 0.00024963 -0.00609851
N 11.31570863 25.12287121 14.98284729 -0.00506163 -0.00371914 -0.01043790
N 14.25222191 20.31204152 16.74527184 -0.00444656 0.00199586 0.00197151
N 13.21315029 27.79241424 12.31063092 0.00049953 0.00591211 -0.00011597
N 11.10192727 24.35302430 19.45345749 0.00220231 -0.00158919 0.00364770
N 12.41544711 23.13945670 23.93367496 0.00395119 0.01081382 -0.00021451
N 13.66100661 27.83036739 26.14984522 0.00002666 -0.00238768 -0.00361221
N 14.17632235 20.07123811 21.44253991 -0.01204184 -0.00157694 -0.00288422
N 12.42183335 22.44636965 19.58535853 0.00210789 -0.00681522 -0.00343413
N 11.32920527 25.14978160 24.23104725 -0.00290911 -0.00331309 -0.00129274
N 14.47025135 20.34634421 25.77187769 0.00549499 0.00265841 -0.00199018
N 13.40602541 27.48607053 21.30304579 -0.00478227 0.00219467 -0.00042816
N 15.17936216 5.35474811 1.31982715 0.00180389 0.00268922 -0.00705115
N 16.17523828 3.95220008 5.76911738 -0.00470583 -0.00226956 -0.00382104
N 17.40097546 8.85769096 7.87663320 -0.00192918 -0.00292298 0.00395586
N 18.07318050 0.56486922 3.91089217 0.00633062 -0.00162553 -0.00254912
N 16.46547544 3.42506821 1.58965206 0.00619651 -0.00398766 -0.00631740
N 15.49118198 6.07510336 6.01150985 0.00456113 -0.00111628 0.00185501
N 18.48584287 1.08513879 7.70360478 -0.00282388 0.00235480 0.00197933
N 17.60417424 8.43570215 3.00902720 -0.00124309 -0.00120266 -0.00416408
N 15.11196628 5.26491780 10.29463427 0.00046370 0.00204045 -0.00394922
N 16.50089456 3.72628465 14.46242110 0.00782342 -0.00052086 -0.00500115
N 16.75403898 8.96323810 17.10885319 0.00355297 0.00467783 -0.00643136
N 18.07034661 0.56706498 12.76809566 -0.00522532 0.00135030 -0.00402826
N 16.33058435 3.40737385 10.58550824 -0.00110458 -0.00790448 0.00187009
N 15.19322956 5.57423185 14.87076864 -0.00497989 0.00426449 -0.00293338
N 17.98074645 1.04685648 16.72348548 0.00298612 0.00317334 0.00809091
N 17.35618601 8.36890557 12.14174394 -0.00511918 -0.00310538 -0.00423955
N 14.43986136 5.35580926 19.06698173 -0.00427672 -0.00191782 -0.00478113
N 16.54961250 4.28140061 24.12922710 0.00045573 -0.00235810 -0.00248887
N 17.16883183 8.83674376 26.26152517 0.00536135 -0.00069803 -0.00667715
N 18.19812149 0.74893387 21.75917638 0.00015320 -0.00283944 0.00008652
N 16.07446154 3.83799871 19.63083734 0.00076996 0.00838317 0.00278733
N 14.98566252 5.94198997 24.22033185 0.00298863 0.00640022 -0.00084658
N 18.21751153 0.99330651 25.94075084 0.00172059 0.00248669 0.00219999
N 16.84810702 8.12990899 21.33900603 -0.00246528 -0.00308942 -0.00047342
N 15.54654078 15.26153553 1.17345085 -0.00096506 0.00535118 0.00106991
N 16.40364196 13.94294634 5.68506448 0.00634737 -0.01030676 -0.00303865
N 17.05103201 18.76821115 7.52239566 -0.00158426 -0.00393891 0.00094625
N 17.56736758 10.74600922 3.51502235 0.00441461 0.00428656 0.00184430
N 16.54573627 13.16668332 1.27796173 -0.00236886 -0.00210125 -0.00010020
N 15.22767024 15.80256540 6.27877081 -0.00080975 0.00121155 -0.00479875
N 18.33170678 10.94003113 7.73668422 0.00558539 -0.00237916 -0.00297079
N 17.17300469 17.82667690 3.32937280 0.00073928 0.00509663 -0.00307933
N 15.12447666 14.79116110 10.53376381 -0.00555167 0.00146269 0.00593539
N 16.22760050 13.88813721 14.93240166 0.00135840 -0.00704664 -0.00333808
N 16.61239580 18.46146523 17.03593915 -0.00434218 -0.00817939 0.00063732
N 18.51829220 10.30765156 12.62021586 0.00042095 -0.00756418 0.00586377
N 16.36390306 12.84164708 10.81998130 -0.00254942 0.00176993 0.00680853
N 15.04355782 15.82291965 15.02896363 -0.00726217 -0.00618588 -0.00068915
N 18.17994331 10.74609632 16.85674982 -0.00985552 0.00161077 0.00129102
N 16.91915857 17.90712057 12.39018000 0.00488837 0.00478604 -0.00380998
N 14.54157164 14.93349960 19.35474714 0.00107027 0.00187743 0.00071436
N 16.36039886 13.69452605 23.75696637 0.00566880 -0.00507433 -0.00137498
N 16.73781467 18.27961291 26.38663465 0.00433551 0.00319168 -0.00340467
N 18.44326945 9.88505649 21.27637158 0.00066562 -0.00416951 -0.00020252
N 16.03356132 13.09373679 19.17750814 -0.00149380 0.00493413 -0.00078344
N 15.19219083 15.63810704 24.15345449 0.00188833 -0.00272940 -0.00012303
N 18.05937565 10.84140467 25.52431444 -0.00077135 0.00169853 -0.00485876
N 17.22164028 18.06812463 21.57888449 -0.00536874 -0.00401970 0.00254724
N 15.28833967 24.63701720 0.80224466 -0.00453973 -0.00363042 0.00013972
N 16.63744826 23.16566728 5.60358288 -0.00395833 -0.00283547 0.00695243
N 16.95241949 28.07730955 8.00115195 -0.00151619 -0.00647443 -0.00422004
N 18.33105553 19.79064084 3.16662647 -0.00449413 -0.00367809 -0.00492433
N 16.23546616 22.61051829 1.35237794 0.00032007 -0.00268460 0.00206027
N 15.18191641 24.93020484 6.00401400 -0.00191431 0.00126778 0.00358366
N 18.25825802 20.72673760 7.68436083 0.00689900 0.00487710 0.00525240
N 17.05329922 27.50905408 2.67133545 0.00357253 -0.00360896 0.00314277
N 15.00648190 24.86244591 10.32855161 -0.00340791 0.00191085 -0.00461196
N 16.25893898 22.61975930 14.59638952 -0.00664398 -0.00249829 -0.00148879
N 16.81827845 27.83555035 17.44561354 -0.00269290 -0.00338268 -0.00288814
N 18.43547408 19.72063914 12.33102967 0.00025091 0.00119521 0.00258534
N 16.23378169 23.02031955 10.58661957 -0.00845556 0.00324537 0.00128046
N 15.34935940 24.62387399 15.19881324 0.00073934 -0.00409755 -0.00215297
N 18.23920969 20.14133508 16.98446166 -0.00213489 -0.00247908 0.00368234
N 16.91965221 27.26229679 12.52626661 0.00371718 0.00109689 0.00639122
N 15.20633607 24.58538733 18.78781394 -0.00027571 -0.00643028 -0.00277557
N 15.89993643 23.22239771 23.23034733 0.00375076 -0.00345860 0.00188941
N 16.64959955 27.95828425 26.25085894 -0.00232619 0.00870780 0.00541923
N 18.16497276 20.10106672 22.11311752 0.00390481 -0.00026774 -0.00085268
N 16.19276190 22.57822000 19.46952970 -0.00113527 -0.00908517 -0.00393161
N 14.63379329 25.01662608 24.10423738 0.00127037 0.00091311 -0.00427240
N 17.95019609 20.21422677 25.88985038 -0.00396418 0.00741795 0.00477963
N 17.13508425 27.36165432 21.27938685 0.00586536 -0.00097698 0.00203758
N 18.95333701 5.43471920 1.15235037 -0.00427373 0.00338962 -0.00942536
N 19.84417869 3.59571498 5.68006370 0.00530096 -0.00589288 0.00021935
N 20.57986782 9.08727857 8.01876970 0.00686718 -0.00561157 0.00791870
N 0.38692963 0.69982442 3.54356747 0.00161418 -0.00041360 0.00514375
N 20.11917876 3.41108931 1.53663603 -0.00723369 0.00465364 0.00663795
N 18.99382948 5.72120859 6.08248700 0.00053621 0.00005583 0.00148208
N 22.04912050 0.98274386 7.73961286 -0.00333355 0.00345634 0.01052991
N 20.57022330 8.26919750 3.23225033 0.00106706 0.00873223 -0.00527670
N 19.08470760 5.40665859 10.33485130 -0.00236162 0.00096584 -0.00277137
N 19.88526763 4.05548758 14.61410305 0.00051584 -0.00600102 -0.00331029
N 20.52713452 8.79876968 17.08427270 -0.00500127 0.00520106 -0.00225156
N 21.65391372 0.51258134 12.43556465 -0.00814644 -0.00325208 -0.00043322
N 19.99563186 3.34439137 10.57943131 0.00383199 -0.00342872 0.00074887
N 18.61730168 5.89766132 15.08897563 -0.00000429 0.00298692 -0.00165085
N 21.74785311 1.31056722 16.90710500 -0.00036622 0.00044648 0.00293984
N 20.84680216 8.38020692 12.03578588 0.00010363 0.00412155 -0.00691008
N 18.96233183 5.67495842 19.19017018 -0.00329474 0.00328100 0.00086174
N 20.18960159 4.00523717 23.94189579 -0.00263308 -0.00552309 -0.00130020
N 20.47782912 9.08621995 26.19340487 0.00021534 0.00278590 0.00135090
N 21.77341134 0.58085751 21.78798933 0.00151970 -0.00094407 -0.00014694
N 19.74308268 3.57092767 19.56940059 -0.00076235 -0.00226492 0.00481256
N 19.02924782 5.92278860 23.83182914 0.00007413 -0.00240649 -0.00801718
N 21.65509866 1.24276094 26.03617502 -0.00615684 -0.00199747 -0.00415792
N 20.81811071 8.24540264 21.32366864 0.00013351 -0.00085842 -0.00006967
N 19.05950306 15.21862260 0.85473295 0.00710309 0.00022855 -0.00518601
N 19.80470277 13.51972177 5.61737129 0.00288606 0.00431565 -0.00724002
N 20.69626429 18.53807140 7.60495878 -0.00450498 -0.00119859 0.00462390
N 21.67799194 10.22565745 3.44503885 0.00398451 0.00028763 -0.00562895
N 20.10260056 13.22125113 1.31943235 0.00296077 0.00212520 0.00138084
N 19.05937549 15.70867053 5.82460196 -0.00469846 -0.00266233 -0.00220899
N 21.83205450 11.00547458 7.60957847 0.00246608 -0.00479792 -0.00963268
N 20.96333932 17.69564490 2.93461325 0.00685402 0.00262923 -0.00347486
N 18.44654676 15.20284216 10.37178611 0.00202805 -0.00297418 -0.00117742
N 19.86688248 13.63723915 14.85452879 0.00733571 0.00582554 -0.00643334
N 20.53684845 18.31525438 17.05211615 0.00136106 -0.00433570 -0.00366074
N 21.56492669 10.50922383 12.54108954 0.00345256 0.00034893 -0.00783608
N 19.81827241 13.29974505 10.23488204 0.00344194 0.00119593 0.00077273
N 18.75044405 15.63974348 14.93526081 0.00523221 0.00288135 -0.00068935
N 21.70289926 10.77095081 16.95524332 0.00192740 0.00098907 0.00184022
N 20.57552029 17.77499560 12.21532733 -0.00214625 0.00892090 0.00293599
N 18.44041230 14.86802330 19.47897456 0.00446975 -0.00354363 0.00104635
N 20.41994310 13.57412734 23.95993701 -0.00720631 -0.00386699 0.00014343
N 20.44554693 18.58047580 26.25114695 -0.00534608 -0.00146938 -0.00117261
N 21.57578937 10.47010325 21.71991857 -0.00690978 0.00424056 -0.00268422
N 19.68387301 13.06060624 19.75449675 0.00155408 -0.00165143 -0.00289899
N 18.81252551 15.20223596 24.16277855 0.00110313 0.00183565 0.00537099
N 21.75477978 11.01347216 25.84463137 -0.00002988 0.00399813 -0.01175534
N 20.53150164 17.84888962 21.41047728 -0.00109955 -0.00151052 -0.00428503
N 18.91242157 24.93079750 1.32899544 0.00664554 -0.00191877 0.00454119
N 20.25462479 23.20537911 5.74176257 0.00448264 0.00340163 0.00792471
N 20.81383660 27.75870535 8.12251527 0.00134488 0.00645703 0.00209037
N 0.11425082 19.70350029 3.11045558 0.00414418 -0.00569969 -0.00214621
N 19.86842241 22.78810247 1.55275188 0.00104977 0.00237143 0.00164265
N 18.76090759 24.92147125 6.00466596 0.00350694 0.00145483 -0.00227018