1728
Time=15000.00000000 pbc="T T T" Lattice="21.87289109 0.00000000 0.00000000 0.00000000 28.73632430 0.00000000 0.00000000 0.00000000 27.57817964" energy=-10389.49812794 virial="55.30678618 -1.97786673 14.61990243 -1.97786673 17.54846711 -13.61710397 14.61990243 -13.61710397 9.14025634" stress="0.00526632 -0.00007174 0.00077626 -0.00007174 0.00382580 -0.00075182 0.00077626 -0.00075182 0.00364206" Properties=species:S:1:pos:R:3:vel:R:3
N 0.30009576 5.65642017 1.17581777 0.00292952 0.00182037 -0.00489145
N 1.43397566 3.96466545 5.61427969 0.00325499 -0.00153021 -0.00318971
N 2.02523062 9.16258097 7.92889041 -0.00428402 -0.00147435 -0.00348934
N 3.43720412 0.75105457 3.37684562 0.00171568 -0.00051465 0.00842343
N 1.31078244 3.61192917 0.99750810 -0.00315215 -0.00001035 -0.00348096
N 0.44311232 5.96269068 6.11859452 0.00342871 -0.00603779 -0.00673855
N 3.28739373 1.22841721 7.75924952 -0.00543906 -0.00364001 0.00385026
N 2.23638874 8.37963606 2.86053792 -0.00064613 0.00793943 -0.00941672
N 0.04940460 5.43722442 9.99074570 -0.00135421 -0.00545409 -0.00010090
N 1.75004021 3.99886050 14.74009168 -0.00132770 0.00090142 0.00219714
N 2.20809307 8.68720907 16.91138039 -0.00229807 -0.00011416 -0.00769480
N 3.48519150 0.55079511 12.88179723 -0.00648961 0.00525410 -0.00148581
N 1.49519044 3.67485803 10.57676082 -0.00199445 -0.00504671 -0.00441208
N 0.35575210 5.80665182 15.22598247 -0.00054637 -0.00185920 0.00003717
N 3.58134685 1.15710376 16.60078715 -0.00059503 0.00062652 -0.00252942
N 2.26924224 8.27888182 12.13382112 0.00533538 0.00711535 0.00454551
N 0.23385155 5.53177633 19.13701922 -0.00494053 0.00011718 -0.00372000
N 1.66394560 4.02279909 24.06279612 -0.00062602 0.00431364 -0.00399607
N 1.99503898 8.74846530 26.38542772 0.00719178 -0.00313790 -0.00198957
N 3.28626748 0.63864917 21.57519553 -0.00704562 -0.00441800 -0.00100756
N 1.31939294 3.49247001 19.53257430 -0.00230201 0.00734779 -0.00051117
N 0.52628406 6.07528596 24.28466258 0.00139663 -0.00102551 -0.00100861
N 3.21724739 1.39888979 25.94771988 0.00774873 -0.00107109 0.00285640
N 2.46058315 7.86320786 21.28028987 0.00111325 0.00348067 -0.00078432
N 0.03388687 14.86394799 1.64311627 0.00170480 -0.00425280 -0.00083800
N 1.44692083 13.72250446 5.94877613 0.00036688 -0.00841034 0.00389921
N 2.11940020 18.36882501 7.95952818 -0.00255071 0.00168044 -0.00221346
N 3.48541890 10.29812596 3.22394663 -0.00123099 0.00458448 0.00540875
N 1.21077420 12.87920161 1.96011062 0.00333463 0.00361390 0.00056326
N 0.33909344 15.84713637 6.14124973 0.00362602 0.00079161 -0.00440384
N 3.67797710 10.75927026 7.35341832 0.00269918 -0.00245933 0.00078421
N 1.88194329 17.83812678 2.88903710 -0.00317613 -0.00079451 -0.00056698
N 0.56853899 15.16795276 10.42471462 -0.00685030 -0.00257071 0.00144358
N 1.83402809 13.81339348 14.90068757 -0.00092721 -0.00291814 0.00170567
N 1.83171875 18.55725676 17.15907058 -0.00017644 0.00090189 0.00018360
N 3.23195657 10.34269236 12.51322827 0.00170058 -0.00127981 -0.00452700
N 1.92519983 13.42357129 11.03466139 0.00267518 0.00223841 0.00064008
N 0.42349880 15.65399524 15.28663313 0.00145115 0.00240071 -0.00134302
N 3.26374174 10.69146366 16.74237547 0.00498696 -0.00054518 0.00465800
N 2.02273519 18.08739399 12.21947546 0.00249682 -0.00164198 0.00238625
N 0.33798607 14.72331089 19.61983433 -0.00121700 -0.00025695 0.00283773
N 1.51381763 13.77438668 24.41556197 -0.00229542 0.00420501 0.00061345
N 1.77254367 18.53796281 26.41415803 -0.00639745 0.00143281 -0.00588847
N 3.70062330 9.79565075 21.65551205 -0.00294211 -0.00854144 -0.00136533
N 1.87594118 12.94628485 19.96852512 -0.00208185 -0.00205286 -0.00054505
N 0.26084522 15.68054197 24.54816801 0.00190950 -0.00272941 0.00309587
N 3.10343484 10.74221677 26.15669311 0.00272388 -0.00648574 -0.00743748
N 2.15326884 17.97886905 21.42011650 0.00501763 -0.00481949 0.00158004
N 0.18318282 24.67186574 1.10917379 -0.00321169 -0.00376986 -0.00017673
N 1.34631520 23.27511902 5.72768881 -0.00066318 -0.00103046 -0.00612209
N 1.94141432 28.18780137 8.17570704 -0.00380514 0.00324526 0.00405078
N 3.18495410 19.70677226 3.18887556 0.00254539 -0.00012425 0.00587502
N 1.23744501 22.64468406 1.22345393 0.00271150 0.00092563 0.00308745
N 0.29620266 25.35770471 6.02871890 -0.00555370 -0.00086370 -0.00153975
N 3.37322903 20.34429403 7.69178634 -0.00507342 0.00287599 0.00746867
N 2.16013941 27.62751702 3.00250741 -0.00035169 0.00284094 0.00441408
N 0.30659886 24.80752560 10.50019772 0.00172054 0.00334651 0.00731240
N 1.72281287 23.39168069 15.06391497 -0.00245399 -0.00162953 0.00122335
N 2.06489081 28.11152231 17.01190986 0.00166898 -0.00377343 -0.00244034
N 3.24388967 20.02018835 12.62401866 -0.00437620 -0.00208210 0.00032963
N 1.23925701 22.67015836 10.81892705 -0.00312388 0.00770320 0.00664509
N 0.56456579 25.35413185 15.56703884 0.00327367 -0.00005119 0.00314700
N 3.22365601 20.31855096 16.65658765 0.00538027 0.00212605 0.00028208
N 2.10069853 27.50465379 12.58659259 0.00446299 0.00733020 0.00312307
N 0.25510436 24.76750514 19.70734234 -0.00013703 -0.00540992 -0.00117311
N 1.49631343 23.19355859 24.08538021 0.00276826 -0.00148929 0.00177258
N 2.14118241 28.12610166 26.26146005 0.00584334 0.00440075 0.00120351
N 3.11251509 20.06485306 21.64396697 0.00375208 -0.00152395 0.00220818
N 1.35418409 22.81682463 19.90004115 -0.00684807 0.00571079 0.00273039
N 0.40629167 25.18812571 24.58646872 0.00020387 0.00145462 0.00142814
N 3.26817004 20.26067166 25.84713279 0.00756206 -0.00054895 -0.00788981
N 2.27347402 27.38067612 21.17631890 -0.00001720 -0.00937257 -0.00525808
N 3.85322603 5.59813997 1.19182921 0.00108226 -0.00101804 -0.00740671
N 5.15014833 4.23034820 5.14834304 0.00330758 -0.00056337 -0.00820452
N 5.66865777 8.91208739 7.76113369 0.00424525 0.00333478 0.00436614
N 7.14271989 0.52420004 3.52910158 0.00215905 -0.00150200 -0.00246684
N 5.25569253 3.74287108 1.06354625 -0.00098313 0.00957532 -0.00321024
N 4.07337190 6.06101748 6.09712072 -0.00090449 -0.00289589 -0.00161676
N 6.85894540 1.38474713 7.76600449 0.00115013 -0.00152940 0.00394580
N 5.71510450 8.63458542 2.88299824 0.00019093 0.00596202 -0.00161683
N 3.76999012 5.33737008 10.08599165 -0.00157973 0.00513595 -0.00154590
N 5.03454596 3.85781930 14.77049112 0.00460235 0.00165685 0.00241245
N 5.51961535 8.93233591 17.01114702 0.00331194 -0.00045263 0.00579228
N 7.20804657 0.78387976 12.92540696 0.00587183 -0.00461470 -0.00145435
N 4.94217570 3.41312858 10.40631996 0.00187101 -0.00087424 0.00296998
N 3.91359537 5.83621225 15.08096877 0.00392964 0.00629753 -0.00617384
N 6.67597157 1.42812721 16.90422175 0.00308866 -0.00212004 -0.00058281
N 5.78699278 8.41353065 12.04375439 0.00148048 -0.00430507 -0.00333550
N 4.28828762 5.49538023 19.30319141 -0.00087994 0.00315190 0.00120808
N 5.21073909 4.18676750 24.08577981 0.00078756 0.00186267 0.00814786
N 5.85512042 8.84034821 26.22943702 -0.00645819 -0.00016972 0.00100573
N 7.58941365 0.58690191 21.71893006 0.00340918 0.00257914 0.00638472
N 5.17422727 3.40349983 19.83841920 0.00452360 -0.00403404 -0.00070063
N 4.05647061 6.17483726 24.31756922 0.00547486 0.00004209 -0.00138667
N 6.99815486 1.34313835 26.22020190 -0.00536009 -0.00357501 0.00331916
N 6.23263583 8.28864199 21.53017203 -0.00413760 0.00194025 0.00474555
N 3.87930867 15.19590213 1.29218644 -0.00058761 -0.00056780 0.00115888
N 4.65133071 13.55296229 5.58324102 -0.00566439 0.00603328 0.00663450
N 6.13068919 18.49401883 8.08892081 -0.00222989 0.00777430 -0.00145722
N 6.94460426 10.55270848 3.04618917 -0.00398495 -0.00345631 0.00076625
N 5.04094217 13.24130854 1.50504013 -0.00171089 0.00085527 -0.00071189
N 4.02208867 15.67179285 6.05029463 -0.00192910 -0.00551226 -0.00388655
N 6.90997994 10.76987729 7.57813097 -0.00324071 -0.00136382 0.00086091
N 5.53608238 18.07813255 3.20985281 -0.00258811 0.00003132 -0.00074749
N 4.30472105 14.90046719 10.33605289 -0.00069877 0.00014589 0.00252300
N 5.39071085 13.96163733 14.99423012 0.00014390 0.00109797 0.00341363
N 5.91635241 18.47226772 17.27316343 -0.00233313 -0.00007807 -0.00542298
N 7.15485796 10.15086737 12.51584518 -0.00459726 -0.00353169 0.00010016
N 4.96785977 12.79301838 10.71379037 0.00283771 -0.00008331 0.00394702
N 4.04183971 15.78403858 15.01461157 0.00112324 -0.01048450 -0.01262410
N 6.77863649 10.77084515 16.75698405 -0.00349540 -0.00180929 -0.00311964
N 6.12672193 17.87300370 12.31384142 -0.00259865 -0.00377737 -0.00103119
N 4.02627372 14.80047982 19.45535754 -0.00013973 -0.00228386 0.00460091
N 5.31222467 13.50155646 23.95504264 0.00473896 0.00904547 -0.00113895
N 5.39430152 18.37696079 26.34367421 0.00682488 0.00016447 -0.00688517
N 7.23605722 10.32599264 21.62085472 0.00762696 0.00968260 -0.00287574
N 5.12468556 12.82551228 19.69737424 -0.00456241 0.00457773 0.00134687
N 3.93229187 15.41906616 24.29468353 -0.00452169 -0.00795086 -0.00383853
N 6.75220638 10.97944649 26.15112468 -0.00260615 0.00322458 0.00159112
N 5.81221540 17.84722322 21.43481613 0.00307689 0.00110580 -0.00144168
N 3.78470263 24.58780219 0.96110014 -0.00170303 -0.00339862 0.00220168
N 5.17589341 23.18250782 5.31496233 -0.00099939 0.00071979 -0.00335746
N 5.61174202 28.09392406 7.77449268 0.00181122 0.00062497 0.00614697
N 6.80688651 20.00631942 3.24318169 -0.00228321 0.00286656 -0.00216162
N 5.02499333 22.60935789 0.90455072 0.00081510 0.00046902 -0.00275641
N 4.03341822 24.99106096 5.85080829 -0.00504752 0.00765209 -0.00368269
N 6.94640634 20.57130862 7.55379556 0.00522315 -0.00311924 -0.00272881
N 5.91840818 27.38414679 3.09429792 0.00094625 -0.00124847 -0.01012141
N 3.70508681 24.97004232 10.36709328 -0.00271582 0.00014005 0.00140158
N 5.23313730 22.99859368 14.58855094 0.00313263 -0.00577108 0.00361976
N 5.74324474 28.07836140 17.41121035 0.00228598 0.00096345 0.00687959
N 6.64111408 20.06840718 12.75990884 0.00049960 0.00191228 -0.00438597
N 4.91011495 23.00256842 10.42748237 -0.00159317 -0.00278278 -0.00041053
N 4.37037242 25.01265047 15.24691985 -0.00324255 -0.00083103 0.00208484
N 6.94513884 20.46446232 16.99970855 -0.00061962 0.00464930 -0.00131791
N 5.94721488 27.59595014 12.35152291 0.00378051 0.00439559 0.00872593
N 3.84815255 24.63898036 19.35646386 -0.00021263 0.00014162 -0.00016684
N 5.25512412 23.28691694 24.03788919 0.00143034 -0.00132445 -0.00933520
N 5.62561947 28.19808505 26.28735189 -0.00298937 0.00767154 -0.00350675
N 7.10994840 19.69553369 21.61413034 0.00077128 -0.00134757 0.00179758
N 5.11027921 22.74370288 19.66831164 -0.00437415 -0.00065912 0.00237544
N 4.22336905 25.28770054 24.23624680 -0.00069890 0.00045736 0.00108283
N 6.44806177 20.40980944 25.92602843 0.00166575 0.00642647 0.00066382
N 5.96726041 27.65429472 21.60876546 -0.00350664 0.00170158 0.00135254
N 7.56592117 5.50221017 1.26266641 -0.00075760 0.00184953 0.01032403
N 8.84829626 4.20928036 5.81756238 0.00104728 -0.00394570 0.00083388
N 9.35136902 8.76273585 7.96039924 0.00442598 -0.00361113 0.00485781
N 10.80151493 0.85205166 3.50233441 -0.00026682 -0.00186226 0.00888318
N 8.81191020 3.56722072 1.57213198 0.00280412 0.00227545 -0.00600390
N 7.57174305 6.23096954 5.98456872 -0.00175399 0.00002932 -0.00011115
N 10.56293388 1.43582951 7.74434726 -0.00430329 -0.00587451 -0.00326198
N 9.56665595 8.26819627 3.14153926 0.00143902 -0.00108910 -0.00612797
N 7.35576115 5.24113403 10.27116237 0.01264640 0.00096073 0.00254857
N 8.64724372 4.38593959 14.83369772 -0.00196485 0.00465188 0.00545648
N 9.19217309 8.94547770 17.61936558 -0.00379655 0.00510665 0.00129683
N 10.53004309 0.80540311 12.85611888 -0.00192355 -0.00048838 -0.00157203
N 8.67078872 3.47696476 10.89819037 0.00751272 -0.00580558 0.01184952
N 7.20515569 6.18308112 15.22527285 -0.00058937 -0.00573018 -0.00469502
N 10.66241131 0.86439430 16.27378897 -0.00209775 -0.00072786 0.00353273
N 9.50066651 8.12848558 12.40384693 0.00615153 -0.00026289 -0.00130857
N 7.67044020 5.30143497 19.34987780 0.00394069 -0.00789358 0.00734349
N 8.73858957 4.32290460 24.30716735 0.00230926 0.00414703 0.00206322
N 9.67738683 8.73390291 26.79962168 -0.00206457 -0.00203242 0.00634797
N 10.61945857 0.41721287 21.73779611 0.00474849 0.00021542 0.00097920
N 8.75734350 3.31768822 19.54742827 0.00116598 -0.00065706 0.00135951
N 7.34706392 6.23103840 24.54261171 -0.00356458 -0.00990648 0.00376360
N 10.46925991 1.45545293 26.23318787 0.00443458 0.00349983 0.00232591
N 9.81740386 8.02320803 21.88165669 -0.00060394 0.00380140 -0.00819221
N 7.29439029 15.10799877 1.38765679 -0.00091008 0.00232825 0.00851888
N 8.84612635 13.54945122 5.87364949 0.00529949 0.00044972 -0.00104390
N 9.22764996 18.47197899 8.11804031 -0.00559465 -0.00322637 -0.00183747
N 10.61249177 10.35337219 3.64453641 0.00372356 0.00062563 -0.00285233
N 8.65086928 13.33077386 1.55059669 -0.01050555 -0.00336408 0.00271896
N 7.54791747 15.43672962 6.09688788 -0.00135495 -0.00427838 -0.00070845
N 10.75114390 10.58376281 7.75596115 0.00326112 -0.00828054 -0.00616162
N 9.44386319 18.06625240 3.00038938 0.00232426 0.00155944 -0.00401131
N 7.77315458 15.07091139 10.25494424 -0.00274915 0.00110317 -0.00203295
N 9.28172305 13.76594688 15.20596061 -0.00786840 0.00358848 -0.00112389
N 9.53858646 18.28309980 17.02819971 0.00658668 -0.00725345 0.00351928
N 10.66932486 10.11531891 12.54633763 -0.00251874 -0.00566166 0.00295347
N 8.62827412 13.04853570 10.44399320 -0.00458167 -0.00314143 0.00360517
N 7.96445971 15.71128030 15.20988431 -0.00127849 0.00430198 -0.00211897
N 10.39037142 10.89193844 16.95851016 -0.00324395 0.00076554 -0.00360901
N 9.27587173 17.80907224 12.40060962 0.00583399 -0.00460404 -0.00589371
N 7.53215933 14.87697508 19.53434076 0.00016345 -0.00074277 0.00094214
N 8.85272007 13.53099374 24.30961719 -0.00007006 0.00051955 0.00204780
N 8.98644693 18.62752017 26.15698129 0.00054291 -0.00314269 -0.00021619
N 10.79060588 10.11247427 22.17535387 0.00057288 0.00735606 -0.00659449
N 9.00972791 13.17365111 19.84359807 0.00180901 0.00217647 0.00290080
N 7.56575875 15.44655784 24.32275834 0.00225890 -0.00551557 0.00012656
N 10.79860558 10.75660770 26.38868245 -0.00172111 -0.00024123 -0.00568230
N 9.37949854 17.99599010 21.22106157 -0.00212255 0.00094742 0.00154656
N 7.55496233 24.58294546 1.09520219 -0.00221957 -0.00160532 0.00222912
N 9.02947590 22.92328246 5.83152730 0.00306608 -0.00470126 0.00358582
N 9.22164395 28.19685113 7.91552105 -0.00851901 0.00456751 0.00253937
N 10.81183135 19.84759578 3.36394495 -0.00365194 0.00459159 0.00102276
N 8.73463891 22.66270222 1.57242702 0.00298391 -0.00352003 0.00513394
N 7.67441008 24.89548559 6.04780614 -0.00083329 0.00184767 0.00066352
N 10.52368064 20.37239415 7.85154625 -0.00180417 -0.00390985 0.00823688
N 9.63984629 27.58231545 3.31860778 -0.00094247 -0.00409110 -0.00457616
N 7.38564771 24.87290578 10.27049507 0.00012870 -0.00025532 0.00566118
N 9.04708166 23.44015757 14.83808584 0.00401631 0.00790366 -0.00358638
N 9.17975021 28.14964503 17.11136687 0.00200738 0.00161078 0.00034049
N 10.51871865 19.75751767 12.60703261 -0.00093835 -0.00339968 0.00125851
N 8.69749836 22.89169477 10.34196031 -0.00016286 -0.00595214 -0.00186261
N 7.60845477 25.19992952 15.25717485 -0.00120486 -0.00116274 0.00013138
N 10.46912372 20.33400532 16.84494035 -0.00805641 0.00745085 0.00328725
N 9.36927752 27.69908415 12.04624354 -0.00106520 0.00012233 0.00326946
N 7.72286950 24.51359193 19.47313466 0.00105128 -0.00489543 0.00146993
N 9.06024123 23.14482261 23.99180068 -0.00216880 -0.00031699 -0.00813985
N 9.53216496 28.09475830 26.53405415 -0.00458763 0.00139207 -0.00071562
N 10.74001303 19.81758870 21.87309138 0.00006163 0.00422437 0.00105697
N 8.79193535 22.50213488 19.60471126 0.00094300 0.00137847 0.00398186
N 7.90697461 25.14376493 24.48530767 0.00155670 0.00106468 0.00930602
N 10.49184109 20.34996479 26.26301169 0.00098531 -0.00568094 0.00487851
N 9.68479476 27.06205658 21.38893467 -0.00345359 -0.00520904 -0.00322212
N 11.17793942 5.15520496 1.71800428 0.00120834 0.00010066 0.00104587
N 12.99490638 4.26848731 6.11883457 -0.00058974 -0.00393398 0.00422477
N 13.08590818 8.96223247 7.95891804 0.00666478 -0.00042911 0.00377065
N 14.49587643 0.50725800 3.45457225 0.00425066 0.00139765 0.00108623
N 12.50516365 3.40790843 1.46913718 -0.00369623 -0.00346792 0.00157758
N 11.43864125 6.03575855 6.13704041 -0.00111998 0.00350620 -0.00283478
N 14.04861283 1.25692130 7.87710820 0.00163582 -0.00549701 0.00258507
N 13.29275156 8.35194343 3.49786158 -0.00464170 -0.00841757 -0.00227281
N 11.12723673 5.51277575 10.43496802 -0.00148103 -0.00995121 0.00477575
N 12.33373734 4.45885168 15.12091787 -0.00242947 0.00372777 0.00350613
N 12.82145681 9.06705659 17.44171609 -0.00213470 -0.00507034 0.00444332
N 13.88265018 0.75894320 12.78571701 0.00773176 -0.00287342 -0.00641796
N 12.47321217 3.65794541 10.72263055 -0.00138259 0.00637360 0.00083647
N 10.96667835 6.25820392 15.32220452 0.00207779 -0.00063507 -0.00382105
N 14.17484075 1.38296867 17.02301071 0.00884690 0.00292330 0.00016839
N 13.05788903 8.20864733 12.40509563 -0.00177023 -0.00214924 0.00218342
N 10.88213806 5.31817234 19.81875554 -0.00502509 -0.00479893 -0.00993496
N 12.46958890 4.19368364 24.33940124 -0.00038354 0.00296651 -0.00261696
N 13.01141733 8.87399745 26.42016728 -0.00053098 0.00719217 0.00022761
N 14.23528908 0.55631505 21.78362892 -0.00274781 0.00252005 0.00359555
N 12.27695587 3.51812075 19.85751633 0.00210399 -0.00394201 0.00535337
N 11.04945001 5.96219893 24.93684898 0.00374291 0.00415939 -0.00579087
N 14.33073920 1.34591954 26.19787733 -0.00426763 -0.00465400 -0.01069123
N 13.20440809 8.49864652 21.51362030 0.00278519 0.01101760 0.00047864
N 11.03299231 15.04311676 1.16603150 -0.00879276 0.00060848 0.00510059
N 12.24740166 13.48161269 5.73947785 -0.00354784 0.00376931 -0.00451645
N 12.92020715 18.37238008 8.01769791 -0.00643216 0.00097921 0.00598633
N 14.00984968 10.48394404 3.49271973 -0.00253100 0.00535565 -0.00314905
N 12.43258760 13.19083688 1.50912383 -0.00293656 0.00310448 -0.00021939
N 11.16851567 15.54413368 6.17091553 -0.00014148 -0.00724313 0.00201399
N 14.34710764 10.88311205 7.50785823 -0.00154807 0.00017118 -0.00165088
N 13.21734205 17.67524278 3.00965161 -0.00076851 0.00921763 0.00352182
N 11.42552988 14.98580244 10.38652990 0.00203239 -0.00226620 -0.00096249
N 12.50057657 13.81601527 15.00407387 -0.00231198 0.00011155 0.00670861
N 13.06297015 18.51731340 17.20585694 -0.00135020 0.00176100 -0.00148186
N 14.31517703 10.16175480 12.58257422 -0.00164918 0.00300254 -0.00631767
N 12.59661257 13.00724107 10.47642940 0.00208612 0.00187194 0.00305833
N 11.60385150 15.88190566 15.05853764 0.00340674 0.00734765 -0.00137356
N 14.10951743 10.94978371 17.09911518 0.00117700 0.00001146 -0.00304185
N 13.11730304 18.10457113 12.29979589 -0.00058379 -0.00215381 0.00065525
N 11.39316952 14.87353004 19.44903994 0.00272970 -0.00220505 0.00737828
N 12.35379309 13.80009311 24.18946212 0.00620493 -0.00490822 0.00371460
N 12.91082313 18.56322069 26.31632033 -0.00893344 0.00301059 0.00498966
N 14.65045304 10.23145092 21.83337259 -0.00077657 -0.00277565 -0.00254061
N 12.83468795 13.26495597 20.12042728 0.00244537 -0.00641694 0.00612675
N 11.17446726 15.65271559 24.40777933 -0.00325879 0.00482763 -0.00381181
N 14.58156692 10.65826410 26.15684360 -0.00021117 0.00125250 -0.00660497
N 13.18464020 17.81397943 21.20826126 -0.00084019 -0.00614926 -0.00514210
N 11.04042268 24.78667196 1.28008373 -0.00416324 -0.00105054 0.00380620
N 12.21026258 23.16289400 5.79251162 -0.00208828 0.00754324 -0.00258488
N 12.71728337 28.05758966 8.00846448 -0.00410778 0.00053037 -0.00446901
N 14.44012439 19.66774016 3.38162731 0.00354032 -0.00308470 -0.00780302
N 12.24602286 22.87776251 1.43642589 -0.00335154 0.00186527 0.00263029
N 11.09039478 25.10752543 6.17852148 0.00652786 -0.00205469 0.00520527
N 14.09218334 20.30329670 7.60785722 0.00194733 -0.00106439 -0.00333127
N 12.99596021 27.50722022 2.90378004 0.00225262 -0.00270676 0.00257274
N 11.25992331 24.69776031 10.22672510 -0.00706752 0.00231273 0.00613156
N 12.58477132 23.33541867 15.13356240 -0.00184267 -0.00271193 -0.00815456
N 12.93017623 28.21069796 17.21345862 0.00378299 0.00339342 -0.00126696
N 13.73900837 20.28719087 12.86068484 -0.00072944 -0.00266869 -0.00276552
N 12.21933053 22.61574786 10.48620273 -0.00018288 0.00130975 0.00552514
N 11.34538494 25.29254588 15.22726955 -0.00505993 0.00255174 0.00381964
N 14.00406848 20.59748554 16.73129744 -0.00000270 -0.00229612 0.00195659
N 13.17784432 27.31449976 12.31360448 0.00919657 0.00305094 0.00241066
N 11.26719021 24.30981365 19.77346418 -0.00373477 0.00047583 -0.00439593
N 12.60493417 23.03745112 24.31489044 0.00575438 0.00562578 0.00262081
N 12.78827061 28.38038576 26.20954429 -0.00503146 0.00005454 -0.00778831
N 14.47498286 19.58047189 21.93490566 -0.00098962 0.00155793 -0.00245029
N 12.88404405 22.50253868 19.86794110 -0.00211279 -0.00136072 0.00276246
N 11.38924946 24.99696498 24.45457386 0.00235533 0.00243006 -0.00856432
N 14.19182060 20.49468956 26.08357690 0.00531378 0.00212569 -0.00428567
N 13.04061156 27.29220861 21.53106384 -0.00241983 -0.00173978 0.00378967
N 15.20940097 5.78613799 1.33245287 -0.00215389 0.00224777 0.00422146
N 16.28429704 4.09156632 6.06331182 0.00009574 0.00005134 0.00658446
N 16.68364482 8.92101620 8.08996017 0.00081170 -0.00129101 0.00021350
N 18.04509159 0.09904088 3.63715916 -0.00467474 -0.00101337 -0.00026329
N 16.29859917 3.70813674 1.73668251 -0.00231860 -0.00250589 -0.00226086
N 15.22168741 6.11651292 6.27421222 -0.00321406 0.00234946 0.00518329
N 17.65243876 0.92840800 7.85551282 -0.00497611 -0.00042551 -0.00136463
N 16.65986207 8.31698989 3.08700107 0.00070140 -0.00557809 -0.00399421
N 14.73476505 5.79364181 10.46298888 -0.00199141 0.00710365 0.00264882
N 16.16613618 4.53979964 15.33747840 0.00259469 0.00023132 0.00571165
N 16.54830082 8.98905729 17.29061079 0.00534789 -0.00021552 -0.00048309
N 17.74676547 0.93618918 12.70546007 0.00704893 -0.00012164 0.00101200
N 15.79272679 3.81039109 11.05446896 0.00025495 0.00371191 0.00264294
N 14.84541343 6.43007872 15.23955301 -0.00109424 -0.00284532 -0.00369392
N 17.79282207 1.37383369 17.14281136 0.00398277 -0.01006253 0.00437069
N 16.81986424 8.55239397 12.47193253 0.00183167 0.00735560 -0.00159235
N 14.65305946 5.41563411 19.99751422 -0.00054669 -0.00114566 0.00221310
N 16.14154994 4.14129972 24.54876942 -0.00200594 0.00096808 -0.00475355
N 17.09204299 8.86728033 26.45534677 0.00201184 -0.00438737 0.00778889
N 17.96179279 0.51014812 21.87137588 -0.00068320 -0.00170460 0.00249644
N 16.09869481 3.64858794 20.19831756 -0.00164079 -0.00005548 -0.00051297
N 14.78576744 6.06231479 24.70802427 0.00124450 -0.00485476 -0.00029973
N 17.92560963 1.20873087 26.41370867 -0.00433032 -0.00685296 0.00117459
N 16.67492507 8.26825505 21.81648389 0.00329554 0.00213891 0.00502356
N 14.90234961 14.86591271 0.88938921 -0.00453535 0.00023840 -0.00553946
N 16.28088828 13.62993945 5.50665381 -0.00102383 0.00179620 -0.00226209
N 16.86375272 18.28222898 8.14897095 -0.00047959 0.00032614 -0.00093004
N 18.27675965 9.94802750 3.51020203 0.00069696 -0.00125831 -0.00094619
N 16.14449519 12.97919660 1.47641424 0.00420291 -0.00665775 0.00321006
N 14.78368566 15.46726035 5.77112836 -0.00079522 -0.00691455 -0.00202585
N 17.98165097 10.71348812 7.84274748 0.00417138 -0.00032850 0.00615499
N 16.72492236 17.95811643 2.93750047 -0.00359078 -0.01288297 0.00735451
N 14.68840849 14.80337178 10.22423013 -0.00608458 -0.00311776 -0.00451190
N 16.22968395 13.73539017 14.77466283 0.00079385 -0.00039973 -0.00702985
N 16.61526293 18.55800457 17.22405488 -0.00229671 0.00527929 0.00262521
N 18.19869663 10.38403665 12.46601291 0.00670601 0.00183965 -0.00722642
N 16.18298547 13.03430695 10.42924403 0.00344007 0.00587071 -0.00184849
N 15.26646970 15.77748878 15.06307825 0.00067091 -0.00538640 -0.00148430
N 17.84087988 10.97765970 17.22288295 0.00031564 -0.00371568 -0.00380598
N 16.76173615 18.10696569 12.19919093 -0.00057739 0.00288211 -0.00174986
N 15.19009250 15.14714239 19.03264226 -0.00596760 -0.00312603 0.00230232
N 16.29739559 13.68372280 24.06610459 -0.00101527 -0.00077146 -0.00319174
N 16.60830894 18.44466330 26.47139995 -0.00162936 0.00737095 0.00468254
N 18.29473096 9.96019949 21.81639914 -0.00391967 0.00472436 -0.00035820
N 16.13321875 13.17426130 19.90656667 -0.00361616 0.00173313 0.00514880
N 14.90709537 15.60717306 24.33246003 -0.00424133 0.00737635 0.00543541
N 18.00973443 10.90925325 26.05426544 0.00249220 0.00759431 0.00665813
N 16.85933542 17.96355047 21.74825817 -0.00237799 0.00424588 0.00163300
N 14.73848123 24.69269306 1.01304292 -0.00239703 0.00147602 -0.00282346
N 15.86039346 23.14297108 5.92621281 -0.00557335 0.00185492 -0.00999674
N 16.34949007 27.75304886 8.24504018 0.00192647 -0.00122503 -0.00384646
N 17.86234035 19.77273291 3.35039191 -0.00204594 -0.00254046 -0.00379017
N 15.84333367 22.67278655 1.39206308 -0.00587410 -0.00738519 -0.00373195
N 14.95614513 25.24397226 6.08377233 -0.00392176 -0.00078669 0.00248865
N 17.79635507 20.36838352 7.68985381 0.00257414 -0.00521819 -0.00097522
N 16.56304386 27.13876860 3.24645733 0.00465822 -0.00078209 0.00256681
N 14.56636147 24.53022349 10.53031779 -0.00132748 0.00336504 -0.00250125
N 16.32431933 23.39810303 15.04372803 -0.00309047 0.00023895 -0.00195291
N 16.53259896 28.17509582 17.37612719 0.00191042 0.00428722 -0.00392445
N 18.04372016 19.97423856 12.55144390 -0.00368585 -0.00697629 -0.00603768
N 15.74091862 22.63746818 10.72699757 -0.00168118 -0.01229866 0.00230226
N 14.83292045 25.15453095 15.52497581 0.00221913 -0.00062989 0.00087487
N 17.67317557 20.56376837 17.00350847 0.01035105 0.00030078 0.00360255
N 16.48072304 27.78142688 12.55023498 -0.00081282 0.00152045 0.00031951
N 14.94069938 24.73260190 19.50551576 -0.00276186 -0.00303482 0.01059135
N 16.39312944 23.11504770 24.21053690 0.00370886 0.00024095 -0.00217590
N 16.53463791 28.18260165 26.72584178 0.00031659 -0.00104024 0.00106005
N 18.15334633 19.80838976 21.90553014 -0.00593852 0.00497733 0.00172206
N 16.28798974 22.85916073 19.91818169 0.00048465 0.00158596 -0.00091369
N 15.11441598 24.97856054 24.70771768 0.00191579 0.00514784 -0.01176654
N 17.71911895 20.44358757 26.24906127 0.00533493 0.00586512 0.00212519
N 16.63507907 27.37420280 21.62199217 -0.00053690 0.00464631 -0.00048831
N 18.60250308 5.50680171 1.41929047 0.00053654 -0.00493283 0.00009811
N 19.95175998 4.03186592 5.99499408 -0.00092100 0.00190625 0.00042883
N 20.47905655 8.82866732 7.95800504 -0.00392763 -0.00247366 -0.00804137
N 21.32407900 0.84232011 3.50427580 0.00215099 -0.00181504 0.00356345
N 19.95403628 3.59702833 1.61788503 0.00211306 0.00258660 -0.00492505
N 18.81591818 6.00826970 6.12422949 -0.00624314 -0.00249039 -0.00606281
N 21.47657460 1.00888542 7.62490895 -0.00484101 -0.00388489 -0.00061723
N 20.46743950 8.35450528 3.42344347 -0.00274731 -0.00135613 0.00050752
N 18.53931963 5.55935980 10.44143622 0.00567787 0.00211591 -0.00019481
N 19.61505385 4.22856885 14.94932757 -0.00210993 -0.00202576 0.00598164
N 20.36815971 8.80671644 17.37400229 0.00153186 -0.00103142 -0.00383330
N 21.45516136 0.73294268 12.72475600 -0.00275909 -0.00235880 0.00263613
N 19.61705191 3.54493739 10.78362027 0.00704645 0.00299395 0.00201208
N 18.75662242 6.33924734 15.31648790 0.00183369 -0.00104139 -0.00728554
N 21.44334083 1.19341565 16.94382447 -0.00149841 -0.00625941 -0.00257459
N 20.44186312 8.44252084 12.29517749 -0.00558257 -0.00255596 0.00124159
N 18.29744546 5.53154518 19.52462939 -0.00610053 -0.00094357 -0.00638078
N 19.60293456 3.78402868 24.34111231 -0.00055171 0.00146983 -0.00646628
N 20.61338637 8.69178350 26.55686833 0.00654315 -0.00090573 0.00457318
N 21.60527325 0.92721384 22.09283957 0.00518259 -0.00033006 0.00160553
N 19.25745780 3.57387845 20.05081389 0.00295960 0.00032885 0.00347519
N 18.54691548 5.84434462 24.53791686 -0.00500119 0.00018122 0.00569446
N 21.54895970 1.31818989 26.01404535 -0.00468527 0.00255119 0.00071263
N 20.65405998 8.08833805 21.66655103 -0.00610536 0.00114627 -0.00564798
N 18.49705358 14.85089731 1.35111772 0.00023309 0.00359355 0.00170034
N 19.56664362 13.88874291 6.34717325 0.00855922 0.00448873 -0.00063845
N 20.95584296 18.34290883 8.13133668 0.00351977 -0.00246677 -0.00033309
N 21.78980232 10.20375534 3.61697074 0.00263123 0.00157085 0.00413950
N 19.73044784 12.97664386 1.75742758 0.00027299 0.00101628 0.00293267
N 18.28991003 15.77096752 6.07889033 -0.00466062 0.00407804 -0.00057656
N 21.61777091 10.86897602 7.81084094 0.00539888 0.00412346 -0.00397418
N 20.10810948 17.77652785 3.23988152 0.00316412 0.00095113 0.00429741
N 18.89780206 15.37246326 10.29104964 -0.00080966 0.00056111 0.00122335
N 20.00879324 13.71424352 14.80877598 0.00369422 0.00259852 -0.00114153
N 20.11945401 18.56942142 17.23400466 -0.00180160 0.00155357 0.00749757
N 0.11062398 10.12753611 12.75442741 -0.00308005 -0.00056873 0.00628538
N 20.07364557 13.62111496 11.24599592 0.00336759 -0.00106079 -0.00418407
N 18.59720418 15.52299184 15.34926000 -0.00002152 0.00191799 -0.00937830
N 21.33690784 10.91374972 17.04509176 -0.00223279 0.00383524 -0.00507349
N 20.35620859 18.07983175 12.25436983 0.00545686 0.00692504 -0.00465246
N 18.49555013 14.91435374 19.66410310 -0.00569309 0.00341812 -0.00091533
N 20.12757657 13.68352782 24.33381074 0.00656309 -0.00264116 -0.00438466
N 20.06987941 18.67864803 26.30874434 -0.00452533 -0.00252524 0.00293684
N 0.03389875 9.94663322 21.81180083 -0.00781783 0.00117050 0.00281886
N 19.76093957 12.99702096 19.81188174 -0.00012115 -0.00157137 -0.00121458
N 18.81021488 15.48753102 24.57847594 0.00186948 0.00030415 -0.00252159
N 21.35663126 10.96930900 26.17868657 -0.00532420 -0.00012491 -0.00061950
N 20.19150624 17.88373189 21.47781712 0.00019356 0.00050853 -0.00067496
N 18.24272942 24.69852146 1.08047258 -0.00282944 -0.00705536 -0.00458893
N 19.84089163 23.29302462 5.62790899 -0.00030166 0.00450435 -0.00278567
N 19.93125617 28.06149444 8.03230113 0.00047958 -0.00463529 0.00193305
N 21.28737108 19.87332766 3.32706111 -0.00159413 0.00376688 -0.00393384
N 19.60277747 22.82841862 1.33585833 -0.00357269 -0.00406833 0.00117603
N 18.38687505 25.02508003 6.15516548 -0.00873786 -0.00353725 0.00389940