1728
Time=17999.99999999 pbc="T T T" Lattice="21.99842223 0.00000000 0.00000000 0.00000000 28.76768517 0.00000000 0.00000000 0.00000000 27.36785350" energy=-10389.39055026 virial="20.11959583 2.51532368 11.58260948 2.51532368 21.89389897 16.85879193 11.58260948 16.85879193 18.70609371" stress="0.00341357 0.00019472 0.00066480 0.00019472 0.00394289 0.00105143 0.00066480 0.00105143 0.00405835" Properties=species:S:1:pos:R:3:vel:R:3
N 0.66084682 5.56513468 1.07238693 0.00034014 -0.00002186 -0.00515911
N 1.41972713 4.06770086 5.82828329 0.00138868 -0.01082977 0.00470052
N 2.01815834 9.09366411 7.62416935 -0.00571060 -0.00307558 0.00139566
N 3.32495309 0.72109963 3.32761692 -0.00033157 -0.00572479 0.00695111
N 1.55251280 3.53969002 1.67267434 0.00150181 -0.00705856 -0.00006752
N 0.28321063 6.06381287 6.06311525 -0.00387859 -0.00292386 -0.00198897
N 3.31092549 1.15109147 7.72108239 -0.00248128 -0.00748909 -0.00095659
N 2.34930652 8.42236312 2.87536827 -0.00138754 -0.00040490 0.00576483
N 21.96615652 5.39983445 10.46609588 -0.00240006 0.00763491 0.00264918
N 1.74249333 4.24727975 14.88346917 0.00192345 0.00190513 -0.00254420
N 2.16477849 8.81396051 16.83993104 -0.00638329 0.00195522 0.00710083
N 3.10249479 0.86231256 12.57119674 0.00694423 -0.00016285 0.00447072
N 1.73927549 3.81524146 10.59348575 -0.00208097 0.00155701 -0.00135033
N 0.38477795 6.12918589 14.90351765 -0.00240061 -0.00498760 -0.00396224
N 3.29214137 1.01312054 16.95589557 0.00350556 -0.00069432 0.00016663
N 2.08247541 8.31369913 12.01719608 -0.00219850 0.00366912 0.00149437
N 0.56181338 5.74323757 19.49779481 0.00511065 -0.00258000 -0.00117547
N 1.34724057 3.99423078 24.00190969 -0.00993919 -0.00630484 0.00027232
N 2.25290284 9.00314864 26.10940462 0.00181210 -0.00098323 -0.00082805
N 3.41292279 0.68655558 21.78492265 -0.00722847 -0.00077697 -0.00582870
N 1.37308450 3.49684964 19.72344930 -0.00263480 0.00000406 -0.00145638
N 0.62447585 6.22002582 24.56487747 -0.00084519 0.00328977 0.00216596
N 3.45182171 0.93796780 26.01752964 -0.00006263 0.00616589 0.00116560
N 2.13918929 8.63355295 21.34798323 0.01059241 -0.00751828 -0.00189859
N 0.16755993 14.99549738 1.01829806 0.00280135 -0.00478563 -0.00041709
N 1.35971825 13.92637200 5.44399140 -0.00452681 0.00597457 0.00251375
N 3.18697561 18.51276830 8.05136054 0.00089951 -0.00277968 0.00349500
N 3.79151742 10.24944047 3.20050725 -0.00294832 0.00323704 -0.00495380
N 1.68687838 13.28906591 1.41485124 -0.00266784 -0.00267808 0.01196278
N 0.03192979 15.69714202 6.14712017 0.00547704 0.00621427 0.00012710
N 3.03169624 11.18479760 7.54803250 0.00096514 0.00455659 0.00014805
N 2.00009213 17.74742712 3.33927026 0.00591130 -0.00405111 -0.00164765
N 0.14673172 15.04196038 10.54729893 -0.00004388 -0.00196291 -0.00532242
N 1.71924241 13.93113539 14.76296885 -0.00027888 -0.00150538 -0.00045959
N 2.21105468 18.50448189 16.88294381 -0.00007259 -0.00407637 -0.00472727
N 3.11277949 10.31772143 12.41187173 -0.00736799 -0.00340204 0.00038702
N 1.18120705 13.04075590 10.53109791 -0.00328279 -0.00587687 -0.00601577
N 0.22496420 15.62941461 15.21770434 0.00561201 -0.00254570 -0.00036628
N 3.15553877 10.88090963 16.65071999 0.00746910 0.00337662 -0.00331578
N 2.18273076 18.02401272 12.04982070 -0.00217234 -0.00539900 0.00318307
N 0.28158051 15.16880022 19.28020745 -0.00745116 0.00217999 0.00527213
N 1.38502083 13.70959268 23.90061979 -0.00053025 0.00338429 -0.00897678
N 2.01703807 18.70647559 26.04408904 -0.00735066 0.00444192 0.00377914
N 3.29646709 10.63623767 21.55287340 -0.00328536 -0.00232879 -0.00509903
N 1.03493108 13.09545670 19.85973104 0.00563483 -0.00103271 0.00506482
N 0.41217732 15.86944149 24.05840390 0.00420183 0.00309823 0.00579645
N 3.40787730 10.98586401 25.94071588 0.00202433 0.00694278 -0.00231887
N 2.32543016 17.89900507 21.02758191 -0.00397405 0.00227157 -0.00815349
N 0.57701789 24.63777615 1.19326958 0.00077292 -0.00046028 0.00202935
N 1.80831847 23.19347656 5.81566607 -0.00265121 0.00378943 0.00363743
N 1.83324783 28.11124189 7.99099283 0.00102598 -0.00093492 -0.00004204
N 3.07148153 19.74293498 3.42980946 -0.00024507 -0.00102263 -0.00070562
N 1.61787698 22.62257170 1.53973009 0.00433358 -0.00241256 0.00017741
N 0.58095807 25.03037169 5.82191383 0.00314118 -0.00683405 -0.00073828
N 3.69287446 20.74564686 7.92252335 -0.00196098 -0.00217947 0.00556938
N 2.33832193 27.41373890 3.16522887 -0.00098404 -0.00048632 0.00047653
N 0.56755955 24.65921913 10.15106213 0.00074677 0.00031359 -0.00184492
N 1.54964951 23.58777552 14.92835716 -0.00351653 -0.00005890 0.00135749
N 1.95304930 27.96048648 17.24662866 0.00061231 0.00387327 0.00421535
N 3.49581803 19.82089060 12.34620590 -0.00211754 -0.00108626 -0.00356815
N 2.02925504 23.02340914 10.85816610 -0.00237686 0.00230397 0.01223281
N 0.03315757 25.38284260 15.14951417 -0.00222812 -0.00718998 -0.01075599
N 3.32803518 20.42728546 16.50515140 -0.00094170 0.00511970 -0.00369161
N 2.26835569 27.50933539 12.32679144 -0.00346883 0.00872759 0.00141275
N 0.29772491 24.80787779 19.49562151 -0.00401314 0.00520086 0.00555432
N 1.53111455 23.25827262 23.83569146 0.00814260 -0.00172206 0.00146544
N 2.08354729 27.89216943 26.34064108 0.00330267 -0.00188541 0.00270034
N 3.46704254 19.89686278 21.29273026 0.00143390 0.00521790 -0.00522365
N 1.57641254 22.83654985 19.72019024 -0.00620054 0.00914066 0.00644492
N 0.24631808 25.20626412 24.06794491 0.00056974 0.00983604 -0.00368288
N 3.21165350 20.62186848 25.58270778 -0.00782301 -0.00488181 -0.00206477
N 1.95409580 27.70046384 21.36183473 -0.00028441 0.00309314 0.00691963
N 3.84891178 5.57648334 1.18490324 0.00674137 -0.00204569 -0.00317106
N 5.17382181 3.95491753 5.30524485 -0.00370428 0.00007480 0.00075135
N 5.77155330 8.77112223 8.08832413 0.00270885 -0.00704742 -0.00337583
N 7.13680742 0.62377160 3.42973145 0.00105738 0.00187646 0.00295040
N 5.05963659 3.66288259 1.53235365 -0.00217056 -0.00959637 -0.00575221
N 3.93368458 5.82815794 5.82124941 -0.00070970 -0.00281772 -0.00219593
N 6.98026185 1.15334509 7.74736847 -0.00010579 0.00508312 0.00912277
N 6.24891534 8.31576362 3.04884929 -0.00220230 -0.00426666 -0.00299322
N 4.07093529 5.54192312 9.94021468 -0.00070287 0.00075171 -0.00351256
N 5.44271296 3.96810864 15.15049065 -0.00185108 -0.01072069 -0.00164630
N 5.42355628 9.14777121 16.87522610 -0.00594686 0.00271598 -0.00550975
N 6.87718768 0.78974935 12.64718243 -0.00237690 0.00438874 0.00084857
N 5.25609526 3.65308592 10.41689691 -0.00891471 0.00368451 0.00268629
N 4.23877080 5.97513576 15.29069092 -0.00093072 -0.00513730 0.00005444
N 7.10751504 1.29411585 16.95385011 0.00132952 -0.00460404 0.00609699
N 5.70110343 8.25938458 12.16325806 -0.00020292 -0.00839981 0.00019098
N 3.71110051 5.37797053 19.61787964 -0.00057857 -0.00008001 -0.00135722
N 4.70567436 4.15090825 24.11243137 0.00248056 0.00177937 0.00779622
N 5.92344331 9.09816167 26.40287852 -0.00937332 -0.01178004 -0.00645174
N 7.22175839 0.81078274 21.83414499 0.00053959 -0.00449530 0.00564815
N 4.98446425 3.49989286 19.99430650 0.00428551 -0.00399640 0.00358093
N 3.92845889 6.19702213 24.39925231 0.00590489 -0.00317879 -0.00387498
N 6.95540772 1.31722448 26.03675350 0.00803169 -0.00105492 -0.00360141
N 5.71352247 8.39909876 21.29528671 0.00225371 0.01180515 0.00292097
N 4.02589628 15.03396264 0.98786353 0.00622890 -0.00449494 -0.00128608
N 5.42142217 13.34501809 5.64866752 -0.00430481 0.00000620 -0.00230074
N 6.34326337 18.75079941 7.80548244 0.00141861 -0.00348249 0.00144237
N 7.06890198 10.32989567 3.72573514 0.00661207 -0.00004670 -0.00053630
N 5.25383671 13.08329797 1.45597125 0.00043574 -0.00100796 -0.00256635
N 4.56742452 15.55521365 5.81309485 -0.00108314 0.00506396 -0.00803290
N 6.79312349 10.74086674 7.70797369 -0.00177471 -0.00454571 0.00388056
N 5.88067405 17.63637023 2.85904752 0.00124988 0.00037748 0.00144538
N 3.76353307 15.06502913 10.23743553 -0.00164194 0.00006205 -0.00207396
N 5.11585426 13.53802596 14.59553231 0.00217902 -0.00155377 0.00668246
N 5.82022400 18.61349666 16.87301109 0.00869985 0.00170172 0.00314179
N 7.13988291 10.16132842 12.31147684 -0.00291912 -0.00014162 0.00202176
N 4.89389449 13.09461095 10.59896165 -0.00294761 0.00194242 -0.00108373
N 4.00140021 15.54844181 15.07853615 0.00522277 0.00259530 0.00702145
N 6.80691943 10.98736189 16.74708493 0.00369272 -0.00447167 -0.00077729
N 5.79360486 17.90141744 11.95522546 -0.00056743 -0.00188189 -0.00119599
N 3.35445371 14.97768845 19.34316228 0.00292010 -0.00295213 -0.00238913
N 5.29527352 13.63283135 23.89474839 0.00489222 -0.00499932 0.00302711
N 5.52393389 18.23434413 25.81522801 0.00462348 0.00571395 0.00747227
N 6.75805305 10.53974364 21.41809478 0.00091559 -0.00186316 -0.00388140
N 4.98042572 13.37777005 19.35074974 0.00286449 0.00478423 0.00605105
N 3.85379948 15.38686855 24.19610473 -0.00185946 0.00611666 -0.00435881
N 7.46828583 10.58649320 25.73179997 0.00319621 -0.00147767 -0.00529697
N 5.71304955 17.81227356 20.95500898 0.00185198 0.00591620 -0.00268102
N 4.18130734 24.44292258 1.12087724 0.00135082 0.00050484 0.00469079
N 5.48482936 23.46376733 5.77170406 0.00043218 0.00124820 0.00042593
N 5.67116172 28.12689134 8.42467385 -0.00767989 -0.00144664 0.00374119
N 7.03633105 19.49732968 3.31931869 0.00310542 -0.00538624 -0.00388657
N 5.15711723 22.39217397 1.37143533 0.00544754 0.00317598 0.00144708
N 4.10887192 25.38396679 6.23241935 0.00363298 -0.00542191 -0.00189629
N 6.99802549 20.91643950 7.78554946 0.00382093 0.00442229 -0.00431209
N 6.07447667 27.37180950 3.16723742 0.00024268 0.00677750 -0.00299435
N 4.48407330 24.47397401 10.16179350 -0.00895045 -0.00182114 -0.00286166
N 5.34882331 23.44383026 14.77089276 -0.00579570 -0.00020190 -0.01144160
N 6.20074514 27.96602895 17.24030359 -0.00189748 0.00521716 -0.00241790
N 7.04246086 19.70951587 12.49061269 0.00062064 0.00644257 0.00294068
N 5.47490942 22.39584281 10.50770728 -0.00046569 0.00170393 -0.00116422
N 3.95726429 25.16580893 15.19404547 0.00150457 0.00211611 -0.00333325
N 6.86319414 20.66187426 16.75457701 0.00014836 0.00077621 -0.00278066
N 5.72914991 27.54271348 12.65696437 0.00299519 -0.00221081 -0.00310792
N 4.18979086 24.89395848 19.53974346 0.00008249 0.00072259 0.00162315
N 4.96353377 23.11289257 23.77120986 -0.00038812 -0.00206336 -0.00176266
N 5.80853572 28.14651748 25.99705283 -0.00069277 -0.00763329 0.00017832
N 7.14347678 19.60561531 21.32476015 0.00475537 0.00293509 0.00185613
N 4.95322297 22.67649626 19.49836830 -0.00146420 0.00086910 0.00706404
N 4.14526853 25.20786189 24.14235696 0.00058544 -0.00076534 0.00055092
N 7.00974092 20.05670172 25.66531456 0.00293603 -0.00136022 -0.00256839
N 5.67767007 27.95678289 21.49547305 0.00029206 -0.00298193 0.00198119
N 7.46310190 5.25900237 1.11882813 0.00681431 -0.00349036 0.00112088
N 9.15032629 4.12113149 5.84917611 -0.00164696 -0.00021927 0.00994949
N 9.41372601 8.47602733 7.98337129 -0.00693385 0.00247505 0.00149834
N 10.79636177 0.52904063 3.76103515 -0.00194266 -0.00261346 -0.00040110
N 8.78875845 3.47885630 1.87328799 0.00259345 -0.00159887 -0.00392886
N 7.78822546 5.98976010 5.89317168 0.00203957 -0.00184001 0.00036044
N 10.49405039 1.51303025 7.79064235 -0.00816543 0.00119394 0.00086566
N 9.44865342 8.26946247 3.06957009 0.00073659 0.00453521 -0.00008709
N 7.61596962 5.34729883 10.49152548 0.00240673 -0.00054859 0.00375364
N 8.79264780 4.36833429 15.19296417 -0.00031626 -0.00202571 -0.00151308
N 9.37344178 9.05042237 17.06691870 0.00947665 0.00266253 0.00006805
N 10.85876859 0.74135668 12.92569654 -0.00554094 -0.00870518 -0.00348404
N 8.87100923 3.32822047 10.51756029 0.00283185 -0.00434855 0.00012376
N 7.58261769 6.32373707 15.32707918 -0.00729658 0.01000417 0.00232137
N 10.74865169 1.29945085 17.02748754 0.00377147 0.00130382 -0.00082574
N 9.55556758 8.31684483 12.16744796 0.00280583 0.00877408 0.00408084
N 7.44224013 5.44660199 19.74525097 -0.00271629 0.00823861 -0.00492292
N 9.08151519 4.27220410 24.10244694 0.00420579 0.00358081 -0.00662281
N 9.57299086 8.86988470 26.13702654 -0.00563050 0.00761884 0.00822605
N 10.69654247 0.71679902 21.96500303 -0.00192609 -0.00250696 -0.00249125
N 8.78296395 3.59717245 20.09969756 0.00189112 -0.00507537 -0.00149434
N 7.66414898 6.17156249 24.17795000 0.00310711 0.00402495 -0.00883360
N 10.55076274 1.42029486 26.02370707 -0.00059771 -0.00026133 -0.00061815
N 9.65366890 8.51533869 21.35510320 -0.00033079 -0.00192248 0.00139775
N 7.71463405 14.57649596 1.01611174 -0.00194801 -0.00019972 -0.00249261
N 9.09270404 13.55734578 5.72098985 0.00944982 0.00032415 -0.00591757
N 9.45398671 18.55981303 7.71228587 -0.00128248 -0.00302997 -0.00691204
N 10.71812745 10.08550196 3.48210837 -0.00093178 -0.00903349 0.00239539
N 9.00001721 12.70080074 1.29647795 -0.00461045 -0.00007289 0.00048420
N 7.93784348 15.52932041 5.93108756 -0.00323751 0.00182928 0.00375679
N 10.47296469 10.59987667 7.82262580 -0.00356410 0.00027420 -0.00281296
N 9.43567653 17.86055504 3.05609917 0.00017356 -0.00090223 0.00428136
N 7.39439698 15.10679552 10.35246302 0.00059007 0.00309415 -0.00643836
N 9.11167785 13.89872187 14.89719910 0.00401441 -0.00692381 -0.00220173
N 9.18510738 18.66811814 16.88962884 -0.00010144 -0.00279013 0.00859283
N 10.85514336 10.28015715 12.53752415 -0.00229852 0.00354669 0.00402255
N 8.48458762 13.13335278 10.51247638 0.00087855 -0.00301223 0.00032086
N 7.69034398 15.70472752 14.80857685 0.00372247 -0.00063628 -0.00113051
N 10.53257693 11.02170306 16.73423110 -0.00609225 -0.00311317 -0.00205899
N 9.59928339 18.04227073 11.98519406 -0.00566115 -0.00538985 0.00458242
N 7.50069889 15.26184366 18.77110658 0.00116935 0.00104444 -0.00625156
N 9.05549624 13.31709607 23.66812422 0.00338356 -0.00061264 0.00373246
N 9.35558316 18.12233160 26.10779152 0.00732799 0.00033544 0.00227905
N 10.65104422 10.56937348 21.52501881 0.00472373 0.00265497 -0.00383835
N 8.69418456 13.41209909 19.43321593 0.00418830 -0.00109578 0.00893357
N 8.03355311 15.35815567 24.08144602 -0.00640134 0.00092921 0.00635602
N 10.95337424 10.71946716 25.91731520 -0.00187090 0.00387495 -0.00580695
N 9.38922310 17.79400226 21.14820492 0.00493002 -0.00435524 0.00156792
N 7.70896097 24.39791844 0.91783351 -0.00177110 -0.00667032 -0.00123856
N 9.07925944 23.70341077 5.73255725 -0.00141195 0.00190798 0.00265247
N 9.57130819 28.26268611 8.30811806 0.00407114 0.00485134 0.00058848
N 10.67384554 19.83100896 3.24392514 -0.00250667 -0.00589763 -0.00213464
N 8.59545726 22.30771391 1.45552688 0.00575037 0.00359839 0.00290869
N 7.95449192 25.56219388 6.21424479 0.00638674 0.00675421 0.00598856
N 10.78955865 20.42733939 7.53391014 0.00042465 0.00692182 0.00133959
N 9.32447081 27.59333172 3.11617225 -0.00123022 -0.00309635 0.00485050
N 7.50556206 24.78947274 10.79313745 -0.00403988 -0.00133307 0.00589681
N 8.71674854 23.19450895 15.01781569 0.00560212 -0.00155885 -0.00231491
N 9.65160326 28.09338086 17.53188573 -0.00414310 -0.00089617 -0.00237417
N 11.04313240 19.86122241 12.34599308 -0.00286011 -0.00301907 -0.00080387
N 9.24424626 23.25653829 10.72410627 -0.00750310 -0.00322597 -0.00290830
N 7.69393382 25.22640206 15.10907284 0.00262398 -0.00279792 -0.00122856
N 10.75306818 20.40462843 16.85725156 0.00072628 0.00651822 0.00719084
N 9.51640462 27.69783604 12.54935009 0.00049642 0.00812328 0.00052887
N 7.43798877 24.63305689 19.68779092 0.00324717 0.00080274 0.00454445
N 9.03060391 23.34519044 23.96279146 0.00787118 0.00176323 -0.00738658
N 9.58650571 28.06180284 26.36194236 -0.00570799 0.00598901 -0.00145584
N 10.83763118 19.54273661 21.37450738 0.00090567 -0.00502061 0.00250949
N 8.83107382 22.79514477 19.49553084 0.00001970 -0.00279122 -0.00285519
N 7.75995440 25.18291057 24.14792470 0.00409915 0.00474272 -0.00307746
N 10.26410262 20.22806326 25.90284194 0.00085697 -0.00510483 0.00115807
N 9.56760689 27.49993397 21.62444821 -0.00546864 -0.00788806 0.00340189
N 11.20163288 5.19533666 1.30650723 -0.00255076 -0.00295145 -0.00051424
N 12.50428014 4.10643373 5.72335691 0.00218428 -0.00128679 -0.00216576
N 12.88102458 8.88520246 8.20305358 0.00287299 0.00396037 -0.00980273
N 14.42448726 0.57099062 3.36683079 -0.00047607 -0.00703015 -0.00635977
N 12.41410365 3.22890340 1.60587783 -0.00323704 0.00307203 0.00682975
N 11.36195623 6.03367808 6.22085580 -0.00453536 0.00120969 0.00166184
N 14.60096681 1.29883587 7.60442135 0.00345630 -0.00124324 0.00057259
N 13.28429729 8.19257393 3.07749527 -0.00503732 0.00020465 0.00659629
N 11.37748875 5.37162625 10.42421256 0.00291561 0.00271265 -0.00142758
N 12.80043737 4.12505601 14.95402848 0.00492415 0.00260804 0.00000106
N 12.58459431 8.93102546 17.12082509 -0.00550377 0.00121381 0.00268054
N 14.33544529 0.54793451 12.80646095 0.00455220 -0.00482203 -0.00169061
N 12.59699756 3.37570533 10.52203267 0.00209061 -0.00660127 0.00284084
N 11.33362049 5.98060604 15.09479315 0.00025929 0.00324441 0.00110345
N 14.33509233 1.20370224 17.02807393 0.00591669 0.00504321 -0.00088623
N 13.32758444 8.34405270 12.19796069 -0.00154735 -0.00038018 -0.00548991
N 11.15121579 5.42231013 19.43347659 -0.00560555 -0.00250593 0.00646835
N 12.37909050 4.05789995 24.12658496 0.00379834 -0.00413767 -0.00438842
N 13.14828459 8.96561311 26.38103527 0.00289212 -0.00390282 0.00383804
N 14.50349123 0.79032237 21.73042034 -0.00328470 0.00482995 0.00412449
N 12.15102166 3.38710999 19.85026949 0.00538154 0.00573498 -0.00133566
N 11.56826719 6.14324858 24.26854748 -0.00413553 -0.00359239 -0.00227552
N 14.42918609 1.21979307 26.11805242 -0.00050556 0.00264122 0.00405423
N 13.04048537 8.42213065 21.31883883 0.00034195 -0.00891252 -0.00272798
N 11.02240149 14.98969502 0.97587025 -0.00281917 -0.00322946 -0.00768865
N 12.52056396 13.60272087 5.55147905 -0.00287273 -0.00117096 -0.00043911
N 13.13727189 18.44926775 8.03941415 -0.00185669 -0.00524229 -0.00682921
N 14.24239124 10.19808427 3.54729303 0.00234398 -0.00273185 -0.00373781
N 12.17808269 13.13140169 1.56542301 -0.00341199 -0.00228162 -0.00374015
N 11.44436662 15.60867449 5.89172349 -0.00428006 0.00116797 0.00607418
N 14.01556581 10.77848601 7.64561240 0.00141105 -0.00316021 -0.00283492
N 13.16521400 17.83274811 3.10126877 -0.00041338 -0.00033673 0.00012865
N 10.86586171 14.87440549 10.06048108 -0.00377489 -0.00084411 0.00230380
N 12.18849877 13.65261795 14.65236694 0.00162894 0.00470586 0.00453447
N 13.09832975 18.39868505 17.04715547 0.00730071 -0.00123462 -0.00492934
N 14.15139439 10.51774554 12.33449689 0.00080455 -0.00208367 0.00325152
N 12.20403600 13.10080854 10.59903640 0.00352660 -0.00422356 -0.00048147
N 11.42366716 15.84595116 14.93590573 0.00413508 0.00215171 -0.00113011
N 14.10976041 10.65785651 16.60303604 0.00146048 -0.00060920 0.00013493
N 13.36403508 17.97896467 12.36992289 -0.00662638 0.00699301 0.00731074
N 10.92714914 15.15128551 19.06855753 0.00358490 0.00184789 -0.00222464
N 12.74868534 13.74690366 23.92888911 0.00617104 0.00879609 0.00519490
N 13.11059504 18.24238021 26.33463977 -0.00286132 0.00348718 -0.00017454
N 14.51588172 10.33689909 21.28967289 -0.00620540 0.00274248 -0.00055757
N 12.16179086 13.33710524 19.63571905 0.00006456 -0.00320172 0.00228628
N 11.57744554 15.73256220 23.97201266 -0.01013193 -0.00581899 0.00374846
N 14.68726639 10.77542246 25.74841440 -0.00309927 -0.00271137 -0.00476128
N 13.28643063 18.11186784 21.01627587 -0.00022083 0.00565734 0.00022616
N 11.01606807 24.43028523 1.53562876 0.00030217 -0.00000841 0.00987018
N 12.78730865 23.38897662 5.71486940 0.00353093 -0.00050104 -0.00058578
N 13.18899240 28.23035192 7.95291842 0.00455412 -0.00050998 -0.00135524
N 14.47473807 19.64134459 3.42462971 0.00159622 -0.00456718 -0.00493414
N 12.45695735 22.65663081 1.46334084 0.00105842 0.00173797 -0.00207479
N 11.58037313 25.31515837 6.00148856 -0.00456768 -0.00450983 -0.00018890
N 14.08719227 20.52463009 7.77685619 0.00204061 -0.00355389 -0.00432221
N 13.15124809 27.45463745 3.09685414 0.00550502 0.00106849 -0.00123833
N 11.59717343 24.84956598 9.84033153 -0.00139804 -0.00381376 -0.00515116
N 12.59383084 23.04415230 14.97763157 0.00209085 0.00421048 -0.00384012
N 13.15529838 28.00143439 17.19292484 0.00188497 -0.00066564 0.00963285
N 14.47707176 19.89162164 12.60806192 0.00459665 0.00266869 0.00752648
N 12.63417668 22.79800112 10.33810139 0.00292329 0.00012096 0.00183904
N 11.46188734 25.10960554 15.17043803 0.00434251 -0.00280057 -0.00367118
N 14.32976519 20.34824980 16.82736151 -0.00277427 -0.00321112 -0.00424049
N 12.97071762 27.39539446 12.42399047 -0.00656718 -0.00274458 -0.00572774
N 11.40879907 24.79322754 19.51641023 -0.00419897 -0.00100899 0.00096633
N 12.39460420 23.02171805 24.18661729 -0.00522219 -0.00333363 -0.00304109
N 12.95394866 28.16894862 26.24271562 0.00261242 -0.00219313 0.00411293
N 14.51067216 19.96302123 21.79115703 0.00254298 -0.00100274 0.00164047
N 12.49075710 22.77738714 19.61276381 -0.00583326 -0.00194354 -0.00055775
N 11.43158369 25.15325407 24.36793243 0.00203877 0.00348308 0.00792396
N 14.15439864 20.24258331 26.14102855 0.00486209 -0.00002290 0.00302704
N 13.35234977 27.62819264 21.59786491 0.00068847 -0.00249305 0.00026318
N 14.78188715 5.12107917 1.04510738 -0.00382154 0.00179784 0.00261264
N 16.18938902 4.42036819 5.88487082 -0.00413546 -0.00869806 -0.00117932
N 16.67242115 9.18862358 8.32016411 -0.00210867 -0.00268429 -0.00136723
N 18.04721523 0.63383832 3.56218979 0.00178449 -0.00529524 0.00728846
N 16.13862446 3.33656086 1.62311500 -0.00339242 0.00264945 -0.00639083
N 15.03023575 6.39597880 6.22341070 0.00212948 -0.00102790 0.00929841
N 17.58854229 1.33241967 7.54092586 0.00303202 -0.00059447 -0.00227897
N 17.02386697 8.07330416 3.02885384 -0.00692198 -0.00194419 0.00415631
N 14.89639366 5.41107505 10.52575132 0.00356679 0.00370485 -0.00171686
N 16.22580815 4.24179986 15.01658286 -0.00198502 0.00411932 -0.00014967
N 16.65565051 9.28468129 17.08413886 -0.00342813 -0.00358115 0.00484999
N 17.99264005 0.85158982 12.26839232 -0.00092671 -0.00060732 0.00048623
N 16.15987199 3.43972265 10.64191634 -0.00563708 -0.00508274 -0.00268233
N 14.98526459 6.14309620 15.24536704 -0.00321578 -0.00579478 0.00050773
N 18.05127706 1.42659505 16.79520122 0.00405882 0.00055733 0.00197534
N 16.86795372 8.28490980 12.20373054 -0.00125245 -0.00328382 -0.00170894
N 14.70503937 5.70989269 19.41472635 0.00152517 0.00032898 -0.00141293
N 15.77827518 4.26354923 24.02621706 0.00723971 -0.00548816 0.00140243
N 16.99441832 8.89784576 26.27100360 -0.00442831 0.00447622 0.00681062
N 18.01099809 0.89160260 21.74788062 -0.00126759 -0.00277358 -0.00715832
N 15.88065652 3.77350223 19.80006983 -0.00552469 -0.00011875 0.00179564
N 14.74449235 6.34998013 24.37564937 0.00819482 0.00284894 -0.00053284
N 17.93314125 1.48642998 25.92682066 0.00080091 -0.00055099 -0.00709078
N 16.70325457 8.41581558 21.28506983 -0.00013139 -0.00255791 -0.00685365
N 14.63455012 14.96611610 1.24418838 -0.00056845 0.00344923 -0.00945883
N 16.12089082 13.35312406 5.69507493 0.00226677 -0.00058558 0.00311613
N 16.75763577 18.37127502 8.15642456 -0.00270996 0.00477068 0.00128378
N 18.15041758 10.01597801 3.37705906 0.00154453 0.00472056 0.00112730
N 16.19165679 13.19030806 1.27350236 -0.00171996 -0.00149353 -0.00325997
N 14.95083512 15.27088987 6.14601492 0.00299339 0.00094646 0.00491868
N 17.85164652 11.03763406 7.68341932 0.00023470 0.00640872 -0.00099206
N 16.81784187 17.64309183 3.20828675 -0.00292646 -0.00427411 0.00796012
N 14.86226478 15.15555835 10.05265072 -0.00397634 0.00058388 -0.00547810
N 16.35305911 13.47148399 14.78481697 -0.00382571 0.00581588 -0.00575345
N 17.04634375 18.15720755 17.27385224 -0.00814709 0.00274863 -0.00450723
N 18.30585398 10.15583428 12.42794833 0.00210065 0.00116991 -0.00027683
N 15.83819471 13.15085329 10.44431439 0.00457016 0.00243042 -0.00367094
N 14.98039807 15.31693434 14.96524419 0.00054363 -0.00084543 0.00184955
N 17.99937874 11.11862932 16.71742176 -0.00040857 -0.00096398 -0.00147259
N 16.92337987 18.09104838 12.36457101 0.00553647 0.00887477 0.00169719
N 14.74241307 15.30785876 19.10032148 0.00140751 -0.00031855 -0.00401270
N 15.95820183 13.49504828 23.50380415 -0.00300724 -0.00376246 0.00150176
N 16.48318710 18.49120686 26.01637562 0.00333763 -0.00170165 -0.00397662
N 18.00405440 10.28569331 21.58362727 -0.00562766 0.00109842 -0.00513164
N 16.01722723 13.39553821 19.50574274 -0.00075973 -0.00551468 0.00182122
N 15.20002222 15.56725179 24.14050822 -0.00028339 -0.00067830 -0.00231002
N 18.24757290 10.90525821 25.93213655 0.00393009 0.00552385 0.00829056
N 16.87614117 17.88146212 21.26688646 -0.00246857 -0.00425870 -0.00346654
N 15.25587489 24.63683155 1.22538084 -0.00898558 0.00378561 0.00037685
N 16.46406333 23.25748090 5.87000249 0.00029261 -0.00485425 0.00107492
N 16.81564991 27.96978004 7.84970797 0.00098492 -0.00851518 0.00697242
N 17.95708704 19.69880166 3.26092870 -0.00836555 -0.00037069 0.00249552
N 16.26911216 22.58862697 1.42591392 -0.00645920 0.00111872 0.00164197
N 15.10346903 25.17431340 5.86272268 0.00605292 0.00360322 0.00438084
N 17.90199431 20.35188939 7.84547277 0.00233923 -0.00065189 0.00328692
N 16.82119808 27.58665147 2.92911650 0.00249268 0.00368073 0.00267964
N 15.08940019 24.74360544 10.51088534 -0.00462586 0.00079914 -0.00526264
N 16.12253075 22.85135587 15.10130574 -0.00292585 -0.00657125 0.00548276
N 16.90371535 28.18253806 16.94938595 -0.00788627 0.00165761 -0.00421458
N 18.12512332 19.98312923 12.92234507 0.00321021 -0.00713681 -0.00553317
N 16.36416343 22.79506027 10.62192108 -0.00126834 -0.00034837 -0.00085222
N 15.00586495 24.79707646 15.44015885 0.00144586 -0.00111677 0.00574187
N 18.11745862 20.13675513 16.86397233 0.00172378 0.00347009 -0.00639702
N 16.85443881 27.65400104 12.30856014 0.00051416 0.00110450 -0.00067890
N 15.09703071 24.65687286 19.75892516 0.00037487 -0.00416667 -0.00075319
N 15.88611167 23.33464022 24.20634056 0.00106213 0.00430925 0.00510758
N 16.70076546 28.37722923 26.16406849 0.00013228 0.00114331 0.00738913
N 17.98671771 19.83854453 21.40728552 -0.00488432 -0.00506179 0.00245366
N 16.26755774 22.57679551 19.80542897 0.00701270 0.00335213 0.01081043
N 14.89036735 25.48086239 24.38854973 0.00684849 -0.00132404 -0.00577869
N 18.02729370 20.33873832 25.90842378 -0.00418184 -0.00849892 -0.00317751
N 16.80790380 27.69073229 21.44864793 0.00202943 -0.00026812 0.00556393
N 18.67017114 5.26462566 0.99222359 -0.00410355 -0.00539156 -0.00061944
N 19.67284091 4.17613365 5.74406741 0.00215540 0.00429854 0.00158469
N 20.06129195 9.05110173 7.88328587 0.00507758 0.00075965 0.00417331
N 21.82661230 0.36069564 3.40592646 0.00657808 0.00027043 0.00648535
N 19.69215908 3.29869975 1.65461692 0.00038566 -0.00216483 0.00118275
N 18.48231586 6.15125853 5.96314553 0.00905048 -0.00468946 0.00550457
N 21.43405505 1.61684437 7.48002905 0.00131817 -0.00021877 -0.00065812
N 20.78650523 8.66221868 2.93420187 -0.00109978 -0.00018305 0.00071704
N 18.56493695 5.60342468 10.14916202 -0.00251329 -0.00597171 0.00143176
N 19.87064981 4.24113494 14.99520508 0.00443352 0.00306106 -0.00124969
N 20.19930679 8.98741712 16.91500510 -0.00122576 -0.00102283 0.00562084
N 21.63168155 0.67822068 11.99126104 0.00456657 -0.00529448 -0.00048216
N 19.47769985 3.63761774 10.64991044 0.00525588 0.00159194 0.00043936
N 18.70758462 6.17094605 15.12096051 -0.00118559 0.00304191 -0.00180849
N 0.03950773 1.43914397 16.67427316 -0.00117323 -0.00102290 -0.00305876
N 20.46749384 8.15355556 12.48808525 0.00296913 -0.00579046 0.00476038
N 18.81467584 5.83705393 19.18522512 -0.00356739 0.00251768 -0.00253814
N 19.79857018 4.16858106 23.80975816 0.00129473 -0.00545781 0.00320531
N 20.39543021 8.88196968 26.05141392 -0.00366450 0.00032037 0.00288685
N 21.69896337 0.60408327 21.89115695 -0.00391727 0.00089787 -0.01010899
N 19.86619355 3.73761258 19.46577472 0.00506464 0.00590616 -0.00188440
N 18.62792113 6.07072329 24.17514933 0.00481183 0.00497832 -0.00105786
N 21.63903554 1.11187005 25.91201677 -0.00096769 0.00373768 -0.00085261
N 20.22368753 8.47126800 21.31892037 0.00087747 0.00447462 0.00040787
N 18.67247385 14.69205403 1.00182240 0.00294249 -0.00101543 0.00096226
N 19.74159999 13.86554560 5.74291427 0.00030985 0.00698113 0.00251859
N 20.59645236 18.44897263 8.01902258 0.00411852 0.00105875 -0.00030550
N 0.13933313 10.30508039 3.68278759 -0.00269041 -0.00627313 -0.00304295
N 19.92110376 12.76812757 1.37317115 -0.00209444 0.00334505 0.00418560
N 18.43705626 15.80738783 5.95108652 0.00012933 0.00105901 0.00477762
N 21.38509912 10.92685715 7.66483179 -0.00113240 -0.00975963 0.00523870
N 20.48167489 17.59278418 3.46574871 -0.00344522 -0.00435330 0.00195396
N 18.27418439 14.84971756 10.15568116 -0.00196718 0.00093749 0.00256871
N 20.03024678 13.75210955 14.70332003 0.00108243 -0.00162341 -0.00575397
N 20.32163353 18.66031832 17.39156151 -0.00602204 0.00112113 0.00142841
N 21.53610086 10.20309027 12.47478865 0.00248403 0.00027470 -0.00245760
N 19.81467608 13.22562851 10.68071519 -0.00135143 0.00012097 0.00022637
N 18.60259176 15.44051820 15.31428646 0.00282254 -0.00380490 0.00083562
N 21.61634267 10.89233106 16.89437696 -0.00319373 -0.00204852 0.00225148
N 20.34189622 17.57297098 12.44020509 0.00318130 0.00105960 0.00153063
N 18.75964598 15.33998801 19.27674023 -0.00232546 -0.00610859 -0.00010861
N 20.11130472 13.73363229 23.82366081 -0.00262255 0.00288493 0.00679137
N 20.32077483 18.31982034 26.48351912 0.00766507 -0.00126040 0.00004810
N 21.77876723 10.14693778 21.64712622 -0.00171900 0.00246002 0.00295860
N 19.75457160 13.23888753 19.59945547 0.00039195 -0.00382397 0.00074067
N 18.85373455 15.61900961 24.22148749 -0.00442458 -0.00323765 0.00258832
N 21.62119019 10.88658849 25.88450283 0.00142214 -0.00672763 -0.00269873
N 20.38470721 18.31463415 21.24399242 -0.00156164 0.00715256 0.00115299
N 18.92815313 24.37913996 1.15913403 -0.00321146 0.00041949 -0.00582254
N 19.62171343 22.96333905 5.58135705 -0.00099306 -0.00301948 0.00026899
N 20.42827657 28.26444486 7.83475222 -0.00578108 0.01092330 0.00174586
N 21.76464781 19.50320721 3.59405853 0.00340207 -0.00286213 0.00029753
N 19.98005221 22.39560877 1.72899544 0.00243347 -0.00304196 0.00027391
N 18.99733617 25.14546846 6.13944223 0.00114485 -0.00041632 -0.00594923