1728
Time=84000.00000008 pbc="T T T" Lattice="22.07496623 0.00000000 0.00000000 0.00000000 28.95343183 0.00000000 0.00000000 0.00000000 27.25042719" energy=-10389.24622023 virial="17.03666509 -6.43317704 13.45351473 -6.43317704 8.19692595 11.41795296 13.45351473 11.41795296 -20.36794149" stress="0.00332195 -0.00042078 0.00068426 -0.00042078 0.00303971 0.00057081 0.00068426 0.00057081 0.00167672" Properties=species:S:1:pos:R:3:vel:R:3
N 0.23218843 5.42253434 1.36208858 -0.00000886 0.00413365 -0.00109521
N 1.97194043 4.09153171 5.48339545 0.00426790 0.00360434 0.00680436
N 2.22413952 9.29291236 7.59686762 -0.00298694 0.00879875 -0.01033597
N 3.50541224 0.43107713 3.20359837 0.00793230 0.00562320 0.00130885
N 1.19953870 3.31367656 1.68637641 -0.00070114 0.00032992 0.00430311
N 0.63791970 5.84805674 6.11088238 -0.00571476 -0.00056078 0.00403948
N 3.30619410 1.05166498 7.49962376 -0.00165142 -0.00312830 0.00208764
N 2.23337917 8.46999117 2.94678453 0.00075491 0.00243769 -0.00614382
N 0.04432497 5.46687747 10.19763269 -0.00337151 0.00020515 0.00338760
N 1.56217927 4.17066327 14.73087593 0.00131470 -0.00429116 -0.00178177
N 2.01925729 8.78339813 17.01285171 0.00734360 0.00321902 0.00060758
N 3.43600477 0.47375244 12.59542500 0.00684305 0.00675959 -0.00175359
N 1.35135339 3.57408116 10.43886333 0.00159902 0.00280050 0.00175557
N 0.29424314 5.96636344 15.17821185 0.00014804 -0.00039316 -0.00553930
N 3.05357977 1.00526626 16.62285633 0.00077261 0.00057489 -0.00628744
N 1.72651074 8.34037875 12.12055770 -0.00822605 -0.00354027 0.00345617
N 0.33614654 5.28263756 19.58082581 0.00109390 0.00248628 -0.00840754
N 1.31384601 4.21325367 23.91147232 0.00312466 -0.00317155 -0.00054277
N 1.76222533 8.74505991 26.26182020 0.00337232 0.00702736 -0.00501738
N 3.69992517 0.57773684 21.63343681 0.00561097 0.00495102 -0.00279224
N 1.52325749 3.22643544 19.70405155 0.00155240 -0.00107611 0.00784302
N 0.16155061 6.07887567 24.41149121 -0.00244988 -0.00019536 -0.00509797
N 3.15603465 0.98966745 25.78706143 0.00139007 -0.00857225 -0.00563086
N 2.46536967 8.48991908 21.02887065 0.00193447 0.00054530 -0.00317952
N 22.00420751 15.06239177 1.05265461 -0.00073006 -0.00410253 -0.00192122
N 1.46422378 13.84273818 5.61679104 -0.00133812 0.00156506 0.00002951
N 2.17741174 18.37684538 7.86637972 -0.00457722 -0.00557610 0.00542770
N 3.57728494 10.36486610 3.21267746 0.00375101 -0.00076177 -0.00173969
N 1.27584755 13.16985470 1.38886543 0.00536036 0.00703473 -0.00028756
N 0.18216662 15.71121861 6.30284156 -0.00078406 0.00104401 0.00127173
N 3.46579325 11.17960276 7.46540885 -0.00919886 0.00762729 -0.00202148
N 2.13939479 17.99532201 3.17510940 0.00419890 0.00231752 -0.00070862
N 0.34469580 15.33872718 9.98684580 0.00349341 0.00248626 0.00192323
N 1.57350050 13.51550616 14.45572588 0.00287290 -0.00179089 0.00666277
N 2.14967230 18.68778462 17.12244303 -0.00553069 -0.00296016 -0.00285087
N 3.18667932 10.12772590 12.08059696 0.00164801 0.00313851 -0.00472560
N 1.35307794 13.43104717 10.67172629 -0.00012178 -0.00574290 -0.00752899
N 0.75651511 15.59643619 14.99210518 0.00003953 -0.00443622 0.00234314
N 3.31449946 10.62566902 16.45041216 -0.00395918 0.00904102 -0.00035823
N 2.32775978 17.85704444 12.17127750 0.00533339 0.00026747 -0.00166122
N 21.76514075 15.04570325 19.31390825 -0.00271124 -0.00506233 0.00549593
N 1.88008301 13.92008565 23.67637965 0.00109892 -0.00019495 -0.00657276
N 1.79706245 18.46519365 26.19992091 -0.00342912 -0.00391068 0.00434642
N 3.39316669 10.45158105 21.77000042 0.00306941 0.00627852 0.00321226
N 1.19201686 13.27795068 19.83973426 0.00423507 0.00039599 0.00737696
N 0.21300338 15.52786977 23.88787928 -0.00458155 -0.00021845 0.00247138
N 2.79179895 10.72857930 25.46552028 -0.00096744 -0.00099937 -0.00252006
N 2.41457816 18.08145250 21.35507153 -0.00114404 0.00067497 -0.00013757
N 0.21356857 24.80999558 0.92557712 0.00369523 0.00205290 0.00757422
N 1.78591383 23.40699691 5.78978030 -0.00538804 -0.00012316 -0.00001324
N 2.21362700 28.06810006 7.83192395 -0.00406863 -0.00148751 0.00228686
N 3.12692512 19.99155890 3.43825901 -0.00409327 0.00508550 -0.00029031
N 1.28839765 22.91493526 1.57073614 0.00331004 0.00009677 -0.00470971
N 0.50081604 25.29434573 5.72746577 -0.00114206 0.00115150 0.00059270
N 3.37751796 20.27269513 7.69143620 -0.00675675 0.00398362 0.00057949
N 2.11134419 27.62833001 2.83669749 0.00419747 0.00562256 0.00020910
N 0.17593640 24.57630623 10.56685083 -0.00156636 -0.00266118 0.00113688
N 1.92840527 23.51360765 14.86718067 0.00643256 0.00044062 0.00257896
N 2.48542468 27.85624226 17.25838243 -0.00493040 0.00403585 -0.00026780
N 3.36925746 19.89018130 12.59761957 -0.00004196 0.00896174 -0.00351203
N 1.69043783 22.85430881 10.71101279 -0.01168494 -0.00569238 0.00301247
N 0.49102918 25.28342166 15.08557509 0.00302676 -0.00562320 -0.00794588
N 3.44852115 20.46655551 16.81778028 0.00518398 0.00363022 -0.00235703
N 2.23115029 27.49760922 12.22709344 0.00511132 -0.00937410 0.01142506
N 0.24568582 25.01286687 19.08583831 0.00031603 -0.00392417 -0.00444449
N 1.63919944 23.21820713 23.37625189 -0.00214048 -0.00189911 0.00153172
N 1.72846269 28.20337596 26.31006476 -0.01209566 0.00164321 -0.00198753
N 3.10658784 20.27669602 21.74792996 -0.00296754 0.00469605 -0.00045183
N 1.62073600 23.11248210 19.37521027 0.00316013 0.00490677 0.00045799
N 0.70515295 25.06753638 24.20727506 -0.00449238 0.00388720 0.01268274
N 3.02196201 20.48604114 25.79167941 0.00343735 -0.00238033 -0.00259687
N 2.21979679 27.61914784 21.49074700 -0.00270580 0.00179058 -0.00149488
N 3.73059454 5.29685444 0.88047974 -0.00427947 0.00080240 -0.00362205
N 5.30380533 4.19814612 5.55933776 0.00088311 -0.00297323 -0.00302397
N 5.66798990 9.01628228 7.84204833 0.00376253 0.00352788 0.00288105
N 7.10123648 0.57446430 3.15760101 -0.00052473 0.00134948 -0.00045140
N 5.09316461 3.54211286 1.35062133 -0.00462698 -0.00024777 -0.00444601
N 4.27988670 6.20571404 5.82808770 -0.00383555 -0.00142612 0.00276924
N 7.00705805 1.35295004 7.52355293 -0.00353009 -0.00078773 0.00140165
N 5.82883860 8.59783655 2.83670053 -0.00234277 0.00636495 0.00446172
N 3.68002611 5.55684645 9.56997204 -0.00005589 -0.00031007 -0.00515729
N 5.38253121 4.29011864 14.44719753 -0.00281807 0.00961753 -0.00479258
N 5.53227573 8.88669569 16.92557193 -0.00002632 -0.00197687 -0.00173569
N 7.47714132 0.38184672 12.34546864 -0.00675957 -0.00223240 0.00348291
N 5.08106429 3.99931846 10.51616230 0.00384436 0.00425495 -0.00072507
N 3.86821143 5.98493087 14.75957212 -0.00065617 0.00072317 0.00809439
N 6.95444184 1.31149322 16.77891813 0.00059965 -0.00844494 0.00263251
N 5.75522717 8.51689526 12.13688576 -0.00773395 0.00171325 -0.00136221
N 3.82647167 5.56293557 18.94768273 -0.00755450 0.00160389 0.00163880
N 5.20304153 3.77879716 23.26448106 -0.00084704 -0.00080289 -0.00003384
N 5.43087151 8.89996407 25.81735512 -0.00308877 -0.00094935 0.00247070
N 7.01569905 0.62605393 21.56493484 -0.00586625 0.00025889 -0.00403768
N 5.01179878 3.71287325 19.55678093 -0.00016318 -0.00981923 -0.00033909
N 3.81948710 5.53656530 24.03882402 -0.00303829 -0.00099344 0.00210000
N 6.92249011 1.17416969 25.65560880 -0.00364634 -0.00315342 -0.00051634
N 6.08788447 8.40303646 20.89148250 -0.00380555 -0.00212056 -0.01172345
N 3.70097535 15.03555203 1.07614051 -0.00456244 0.00075566 -0.00898444
N 5.31222151 13.56419632 5.44961231 -0.00280596 0.00086857 0.00221849
N 5.58956951 18.62265726 7.64778212 0.00596086 -0.00237246 -0.00289170
N 6.86269389 10.64616501 3.04121533 -0.00091683 -0.00170672 0.00866204
N 5.15775484 13.20411817 1.23705126 -0.00237709 -0.00012080 -0.00218849
N 3.97991696 15.40723380 5.77985268 0.00403054 0.00510678 0.00051141
N 6.95501453 10.79222189 7.24037801 0.00469435 -0.00780677 0.00515462
N 6.01586727 18.11839479 2.77770056 -0.00455943 -0.01113819 0.00217837
N 3.88846789 15.14512774 10.34473989 -0.00116565 0.00291593 0.01181030
N 5.36962820 13.44189590 14.81852036 0.00052236 -0.00190994 0.00057881
N 6.22790498 18.38491988 17.23612370 -0.00307552 -0.00037787 -0.00335303
N 7.14494245 10.38112306 12.37926971 0.00175068 0.00452090 0.00551884
N 4.97212360 13.11962904 10.30719612 0.00778672 0.00372311 -0.00469529
N 4.15599980 15.36044758 15.15362220 0.00014123 0.00740132 0.00266324
N 7.02624230 10.68149207 16.81402757 0.00392994 0.00460408 -0.00805964
N 5.93597681 18.20006554 12.12640131 -0.00182558 0.00166602 0.00597322
N 3.46866232 14.97955190 19.04001353 -0.00183287 0.00949779 -0.00074578
N 5.14164009 13.67622756 23.66106466 0.00044323 0.00051592 0.00500794
N 5.97341688 18.51829514 26.04771139 0.00089393 0.00436213 -0.00358324
N 6.83703661 10.49693305 21.47804393 -0.00136096 0.00105737 -0.00065037
N 4.98433506 13.27965415 19.48596232 -0.00017971 -0.00529376 0.00562648
N 4.16097448 15.72162385 24.06456602 0.00377811 -0.00242582 0.00380972
N 6.91190560 10.68093273 25.51650276 -0.00281750 -0.00892657 0.00002969
N 6.12821654 18.19116757 21.27100558 0.00110970 0.00199537 -0.00012562
N 3.76149186 24.61854415 1.18778099 0.00538599 0.00158021 0.00354006
N 4.98523429 23.10602732 5.74641709 -0.00125428 -0.00500303 0.00654414
N 5.94365523 28.28667779 7.77188418 -0.01191464 0.00332759 -0.00508599
N 7.04695582 20.03708102 3.35906784 -0.01050746 0.00150560 0.00464034
N 5.21781127 22.90147668 1.57867619 0.00606431 -0.00241828 -0.00272741
N 4.22784820 25.24102697 5.67264590 -0.00115318 -0.00175995 0.00094801
N 7.10312077 20.40266569 7.54378090 -0.00116920 -0.00357333 -0.00109079
N 5.89728165 27.52103675 2.86629755 0.00463837 -0.00118580 0.00061635
N 4.32850208 24.96701417 10.06549499 -0.00072250 0.00077543 0.00309688
N 5.52926512 23.50320758 14.97780348 -0.01110119 0.00416015 0.00604382
N 5.66272699 28.30733087 16.79664396 -0.00086341 0.00208970 0.00057610
N 7.24239364 20.05139460 12.42543433 0.00460003 0.00224817 0.00295848
N 5.43566595 23.04072308 10.64463626 -0.00186952 0.00183851 0.00255734
N 4.23931593 25.43956497 14.97387829 -0.00218777 -0.00299207 0.00156789
N 7.08609579 20.45886982 17.00265803 0.00351965 -0.00061892 -0.00050792
N 5.88210163 27.61244444 12.17702731 0.00075517 0.00146617 -0.00173464
N 3.84306334 24.68618702 19.68417829 0.00678768 -0.00066549 0.00133429
N 5.45866397 23.53699937 24.22783389 0.00154565 0.00654374 0.00640120
N 6.16278211 27.93940738 26.04683593 -0.00551489 -0.00691260 0.00722349
N 7.38842298 20.07147076 21.69965229 -0.00078213 0.00394816 -0.00226445
N 5.26740583 22.86458554 20.07621793 -0.00190695 -0.00022029 -0.00184152
N 3.98766257 25.31721039 24.03354884 -0.01045489 0.00282532 -0.00277107
N 6.97384983 20.54682200 25.68209007 -0.00564585 0.01086621 0.00237972
N 5.97723811 27.57001630 21.26850758 0.00282135 -0.00443164 -0.00742851
N 7.60028171 5.75014748 1.13739191 -0.00371780 -0.00371143 0.00114148
N 8.89784828 4.12507942 5.64789633 -0.00089705 0.00008976 0.00612327
N 9.46314494 9.04854133 7.89025114 -0.00153390 0.00382658 0.00521279
N 10.52498899 0.94754356 4.07417948 -0.00002096 -0.00139514 0.00778670
N 8.71513436 3.80186382 1.50754196 -0.00117837 -0.00022976 0.00096898
N 7.78873033 6.18864803 6.00910053 0.00513314 -0.00028959 -0.00063503
N 10.58413959 1.15579819 7.43285194 0.00031337 0.00401513 -0.00262212
N 9.45376931 8.69420200 3.25508312 -0.00010197 -0.00197726 0.00589774
N 7.35519072 5.68087207 10.23771480 0.00372024 -0.00237531 -0.00314898
N 8.86472105 4.19215822 14.78102563 0.00265846 -0.00272514 -0.00423392
N 9.49623163 9.11756541 16.99255599 0.00072365 -0.00817499 0.00173790
N 10.88411221 0.80559762 12.52495647 -0.00246852 -0.00186473 0.00118393
N 9.07683811 3.87145673 10.54659355 -0.00420420 0.00052809 0.00529989
N 7.90216130 6.29068386 15.13563699 -0.00219671 -0.00338942 -0.00983085
N 10.61364888 1.17157325 16.63751931 0.00184588 0.00571968 0.00353725
N 9.42177599 8.46012998 11.92038735 0.00002041 0.00817904 0.00256836
N 7.34743622 5.38901714 19.32130798 0.00121728 -0.00095720 -0.00018311
N 8.86722340 4.17285069 23.86793689 0.00335929 -0.00413148 -0.00109333
N 9.10102358 8.92247045 26.53690945 -0.00779881 0.00173724 0.00503087
N 10.85571679 0.85844283 22.01937522 0.00036453 0.00015369 0.00088237
N 8.61441314 3.50302759 19.52563364 0.00309241 -0.00699207 0.00628846
N 7.41051357 5.94184775 24.12380102 0.00036278 -0.00445586 -0.00024276
N 10.54045952 1.52666460 26.16764339 -0.00167560 0.00391061 -0.00405352
N 9.31166775 8.25329618 21.08147999 0.00000701 -0.00025526 -0.00378639
N 7.34839695 15.22515625 0.87697368 0.00218789 -0.00482296 0.00342970
N 8.86243569 13.91390491 5.41503937 -0.00327686 -0.00020026 0.00140644
N 9.50151593 18.69571007 7.58511300 0.01104678 0.00334277 -0.00243052
N 10.67538237 10.59106349 3.60601709 0.00357822 0.00402395 -0.00144021
N 8.70502131 13.23771306 1.00500188 0.00013317 0.00471925 -0.00143914
N 7.65069258 15.79215862 5.84398315 0.00232394 0.00275835 -0.00325570
N 10.55379878 11.05241560 7.49782499 -0.00729606 -0.00480553 -0.00574284
N 9.76945962 18.32975968 3.16016085 0.00054824 0.00115607 -0.00187677
N 7.65823110 15.19978480 10.25329632 -0.00025540 -0.00461992 -0.00351485
N 9.03477538 13.95131981 15.09910938 -0.00482039 0.00063982 0.00100203
N 9.67990099 18.72717904 17.00239284 -0.00191385 -0.01066302 -0.00105020
N 10.83367736 10.28187392 12.23216605 -0.00452900 0.00038676 -0.00327144
N 8.70993943 13.07802320 10.30533498 0.00358749 -0.00080877 0.00246097
N 7.72014864 15.75261064 14.96695690 -0.00323436 0.00461499 -0.00197547
N 10.75540059 11.09038208 16.56442110 -0.00318169 -0.00191435 0.00449592
N 9.47993093 18.26653682 12.08614958 0.00107383 -0.00071542 0.00350783
N 7.54839205 15.17827842 19.01269506 -0.00317084 -0.00321196 0.00105100
N 8.63492042 13.63031194 23.42252712 0.00246360 -0.00429493 -0.00880718
N 9.57047262 18.46127366 25.95023424 0.00904594 0.00433934 0.00148898
N 10.59219737 10.08611847 21.62672658 0.00228438 -0.00190690 -0.00042621
N 8.72271509 13.16037667 19.18967227 -0.00395609 -0.00128365 -0.00493750
N 7.78909800 15.67906370 24.01260673 0.00218775 0.00254021 -0.00464300
N 10.43620433 10.64902278 25.74130211 0.00207892 -0.00018222 -0.00091187
N 9.77974686 18.24917120 21.00972096 -0.00741221 -0.00303567 0.00149584
N 7.92859593 25.03682303 0.41530963 0.00070186 0.01053783 0.00687315
N 9.36653035 23.52961557 5.32137797 0.00340472 -0.00231738 -0.00172772
N 9.53520170 28.16770448 7.85806110 -0.00568737 -0.00394448 -0.00031361
N 11.13628627 20.19112826 3.42055967 -0.00079434 0.00219831 0.00284789
N 8.79215559 23.13855918 1.58657030 0.00069995 -0.00193593 -0.00173673
N 7.85616906 25.24919553 5.70129908 0.00781737 -0.00293004 -0.00433353
N 10.67566233 20.67423594 7.48245548 0.00088443 0.00298301 -0.00493503
N 9.37343303 27.96391545 3.24520463 -0.00219136 0.00113556 0.00649619
N 7.68232791 24.83520706 10.08896928 0.00546031 -0.00009227 0.00459450
N 8.96582086 23.62384610 14.48736887 0.00470823 -0.00244990 0.00086737
N 9.28181873 28.38231857 17.58776472 -0.00283244 -0.00563535 0.00484410
N 10.84972265 20.06283374 12.44200164 -0.00179685 0.00473955 0.00579784
N 8.89280788 22.83458289 10.41849003 -0.00797456 0.00098712 0.00400692
N 7.72026978 25.35593639 15.26706170 0.00123027 -0.00181078 -0.00059759
N 10.84097237 20.66484716 16.67624574 0.00358407 0.00660665 0.00451499
N 9.81852515 27.70037701 12.15590647 -0.00179268 -0.00409421 0.00649774
N 7.41751614 24.85353044 19.15213747 0.00293380 -0.00578702 0.00046594
N 8.94792275 23.48056169 23.93315639 -0.00069193 0.00615695 0.00665339
N 9.59281730 28.41690564 26.21205330 -0.00166132 -0.00795198 -0.00219474
N 10.97799057 20.10534429 21.64756185 0.00417507 -0.00330687 0.00982144
N 8.87257950 23.19394014 19.66105792 0.00454600 -0.00228414 -0.00592308
N 7.78151925 25.34812980 24.36082561 0.00349935 -0.00545364 -0.00887121
N 10.86141231 20.41093312 25.60345059 0.00406903 0.00170810 0.00582028
N 10.01600475 27.87567579 21.01954072 -0.00336414 -0.00086910 -0.00723668
N 11.07331641 5.43063632 1.38034344 -0.00169783 -0.00593591 0.00736106
N 12.70646480 4.21165681 5.73335861 -0.00404687 0.00620759 0.00025260
N 12.98160625 8.97778917 7.69733673 0.00109757 -0.00085384 0.00062005
N 14.36787263 0.89764026 3.20882425 0.00072070 -0.00459464 0.00018471
N 12.28118881 3.49840993 1.48461498 0.00098126 0.00841990 -0.00273961
N 11.40087337 6.11779457 5.92437530 0.00217916 0.00470155 -0.00175564
N 14.59064768 1.06310262 7.47344229 0.00270703 -0.00377246 -0.00330769
N 13.31192209 8.59470320 2.61106716 0.00198507 0.00174973 -0.00145563
N 11.42328160 5.62312842 10.32019496 -0.00144122 0.00174780 0.00270545
N 13.12641872 4.34845736 14.58783961 -0.00065638 0.00034653 -0.00166368
N 13.07159949 8.95501538 16.77982958 -0.00058312 0.00196578 -0.00339889
N 14.58063987 0.47541218 12.55787267 0.00389503 -0.00041923 -0.00112146
N 12.65407409 3.66478558 10.40518461 -0.00724555 -0.00130059 -0.00110612
N 11.60386633 6.05292783 14.92184708 0.00171654 0.00016164 0.00066196
N 14.46164839 1.32551526 16.90639453 -0.00126043 0.00282242 0.01063639
N 13.33490562 8.50478880 11.82853341 0.00485938 -0.00114797 -0.00369334
N 10.85933727 5.58810160 19.13150089 -0.00564753 -0.00294148 0.00160406
N 12.61133321 4.61509339 23.83737195 0.00123705 0.00095468 -0.00302713
N 12.94674080 8.99595694 26.06033409 0.00356842 0.00026053 0.00017734
N 14.49696027 0.69446772 21.37123963 -0.00264636 0.00185060 -0.00560607
N 12.41823741 4.01071414 19.59658476 0.00058727 -0.00791876 -0.00502819
N 11.10916769 6.33987251 23.84173261 0.00077044 -0.00286636 -0.00516440
N 14.03740652 1.35128926 25.43286270 0.00326763 0.00685220 -0.00046099
N 13.26441377 8.42261341 21.24822215 -0.00213305 0.00113786 0.00684373
N 11.46522337 15.56148828 1.29135761 -0.00079918 0.00691383 -0.00295407
N 12.69606287 13.95662416 5.87429479 -0.00017630 0.00022247 -0.00342089
N 12.96966807 18.71750953 7.93099891 0.00332319 -0.00495941 0.00042539
N 14.28137195 10.56083128 3.19145664 -0.00563936 -0.00121922 -0.00523389
N 12.33870297 13.45124008 1.50799666 -0.00132614 -0.00317880 -0.00088766
N 11.72794942 15.99911206 6.31487126 0.00416792 -0.00554542 -0.00853313
N 14.35336377 10.91529618 7.52418988 0.00410873 0.00960161 -0.00237724
N 13.43451563 18.18801269 3.27137206 -0.00109064 0.00212214 0.00235107
N 10.88729931 15.12539194 10.67390946 0.00208978 0.00203696 -0.00504235
N 12.68368408 13.76476062 14.63152511 0.00096286 0.00296958 -0.00155283
N 13.17130635 18.71775645 16.96154341 0.00996794 0.00172379 0.00354236
N 14.59145931 10.39725373 12.20123621 -0.00335865 0.00181409 -0.00453466
N 12.18908760 13.18201479 10.57562222 -0.00097309 0.00436051 -0.00157004
N 11.64208604 15.82343929 14.81588809 -0.00214448 -0.00612922 0.00473524
N 13.87974157 11.13410112 16.46726527 0.00529970 -0.00229834 -0.00219043
N 13.05287583 18.14957753 12.11257618 -0.00515108 -0.00099157 0.00480055
N 11.28379746 15.26597255 19.35737078 -0.00596851 -0.00120246 -0.00385103
N 12.23612725 13.71930216 24.10426317 0.00174986 0.00368415 -0.00281819
N 13.20960843 18.55658227 26.30857774 -0.00175089 0.00384911 -0.00097751
N 14.38340861 10.48620003 21.52518113 -0.00109060 -0.00445984 -0.00360903
N 12.42280404 13.32962979 19.71075281 -0.00196432 0.00505250 -0.00228870
N 11.40877536 15.82519334 24.47029925 -0.00010275 -0.00106760 0.00157252
N 14.17842238 10.94096037 25.76927718 -0.00278275 -0.00001557 0.00317356
N 13.24188911 18.09266936 21.40577654 0.00546953 -0.00364006 -0.00058211
N 11.06046996 24.98089277 1.04867648 0.00021910 0.00427079 -0.00441415
N 12.90315442 23.31783481 5.86899902 -0.00247900 0.00511636 -0.01012021
N 13.11528781 28.26507840 7.88739312 -0.00094532 -0.00094698 -0.00197376
N 14.86571828 19.91574998 3.60304849 -0.00351256 0.00225412 -0.00172655
N 12.30484578 23.01479165 1.42673058 -0.00109791 -0.01156856 0.00355031
N 11.72661173 25.26872607 6.07116335 -0.00092586 0.00585337 -0.00090182
N 14.47150066 20.41548662 7.87451357 -0.00394425 0.00033450 0.00515628
N 13.38327259 27.80270371 2.97504980 0.00104352 -0.00053138 0.00357263
N 11.42173689 24.94605826 9.67202815 -0.00299881 -0.00245991 0.00309132
N 12.58409684 23.64676032 15.00128199 -0.00082198 -0.00160846 0.00229517
N 13.23065451 28.39320605 17.37206077 0.00093476 -0.00571547 -0.00013337
N 14.39159523 20.11401713 12.40171517 -0.00239081 -0.00120139 0.00710502
N 12.54007197 23.15116720 10.79657326 0.00325709 -0.00576484 0.00243239
N 11.15988600 25.53884459 15.29768884 0.00215635 0.00001148 -0.00097556
N 14.54102823 20.54092688 16.65840918 0.00040157 -0.00416837 0.00181975
N 13.12983846 27.69186604 12.32275440 0.00566808 0.00283979 -0.00038967
N 11.26860175 24.86052510 19.52312681 0.00067026 0.00129563 0.00583876
N 12.62158775 23.51008577 23.83838267 0.00934692 0.00093390 -0.00648372
N 12.73299664 28.44362176 25.80156974 -0.00202055 -0.00581932 0.00296102
N 14.37261579 20.08357093 21.74428562 0.00395850 -0.00451136 0.00554900
N 12.56311726 22.96970843 19.68362765 -0.00609136 -0.00426469 0.00060614
N 11.30527553 25.39987878 23.86203169 0.00308260 0.00267680 0.00759434
N 14.30786659 20.64105471 25.97204516 0.00860134 -0.00069955 0.00516830
N 13.18332367 27.73737094 21.24512849 0.00490834 0.00083357 0.00136407
N 14.80463157 5.52768499 1.13117506 0.00581126 0.00026094 0.00365419
N 16.07887157 4.06488092 5.48259748 0.00155559 -0.00163382 -0.00136423
N 16.72732322 9.20324066 7.80902204 0.00100180 0.00493044 -0.00627164
N 18.53625915 0.58754286 3.43585572 0.00352854 0.00554483 -0.01128058
N 15.89946425 3.58157049 1.10915532 0.00200979 -0.00050368 0.00638175
N 15.07198637 6.08373579 5.80755716 0.00126092 -0.00176690 0.00233666
N 18.26369015 1.20013616 7.51542698 0.00512611 0.00225689 -0.00226155
N 17.20238145 8.46910813 3.05784249 0.00727472 0.00394493 -0.01061753
N 15.32680073 5.33317425 10.05085350 0.00032327 -0.00043267 -0.00057918
N 16.29099489 3.96691487 14.66968653 -0.00783840 0.00124055 0.00161360
N 16.68414817 9.05120000 17.28195244 -0.00704174 0.00207533 0.00105768
N 18.13510503 0.64149839 12.66526255 0.00018228 -0.00217481 0.00424680
N 16.30714204 3.24772712 10.32754562 0.00189174 -0.00849624 0.00504690
N 15.54952140 6.11837430 14.93162935 0.00234651 -0.00078354 -0.00370207
N 17.92609886 1.27500555 16.71890357 0.00608466 0.00398385 -0.00280090
N 16.81877316 8.40719489 12.12630560 0.00514669 0.00349910 0.00912921
N 14.95663462 5.45202820 19.53272609 -0.00389688 0.00162674 -0.00474242
N 16.18753212 4.18066841 23.89822368 0.00330416 0.00664031 -0.00408436
N 16.56413397 9.00057055 25.95800371 0.00156215 -0.00392768 -0.00403847
N 17.89002481 0.72281239 21.65372217 -0.00285717 -0.00412033 -0.00538904
N 16.29738787 3.70802651 19.80614430 -0.00887992 0.00275656 0.00051869
N 15.05569209 6.20963022 23.94226820 0.00247248 0.00281823 -0.00304939
N 17.72589891 1.14147251 25.73604815 -0.00055544 -0.00187794 0.00011598
N 17.06273332 8.37624044 21.09387936 0.00228809 -0.00297216 -0.00148360
N 14.67525019 15.22794651 1.24647467 0.00029845 -0.00159312 0.00119621
N 16.32975998 13.66271679 5.59966076 -0.00324227 -0.00412044 0.00083998
N 16.92142057 18.50721133 7.90862319 0.00121840 0.00304026 -0.00726105
N 18.35278379 10.40258605 3.40536330 -0.00101237 -0.00396387 0.00309856
N 16.16720038 13.39825792 1.15939585 0.00215872 0.00388197 -0.00825657
N 15.17666054 15.52716666 6.19646208 -0.00514063 -0.00132094 -0.00402267
N 18.09746415 10.99465190 7.61748376 -0.00161578 0.00190124 -0.00116060
N 17.18805975 18.21974436 3.19052533 -0.00383889 0.00813808 -0.00241870
N 14.85275152 15.29722093 9.94212225 -0.00129590 -0.00547068 0.00147989
N 16.29605881 13.90226165 15.04033432 -0.00622496 -0.00139243 -0.00050099
N 17.02967643 18.49902215 17.34040021 -0.00216751 -0.00462484 0.00321534
N 18.29399619 10.38220075 12.47455663 0.00223316 0.00181954 0.00144212
N 15.95515433 13.38913935 10.66460718 -0.00257928 0.00148533 0.00122396
N 15.10044915 15.88126460 15.17047974 -0.00074698 0.00125193 -0.00393640
N 18.13526030 10.84529427 16.83679404 -0.00388614 -0.00283372 -0.00790435
N 16.91010264 17.76280284 12.12802405 -0.00200292 0.00889098 0.00636037
N 14.87855844 15.40983304 19.56475859 0.00690646 -0.00374443 0.00227573
N 16.14187204 13.98173255 23.93300426 0.00226939 -0.00304280 -0.00285100
N 17.01431505 18.50253826 26.16985160 0.00195533 -0.00679246 0.00189017
N 18.27759616 10.23498948 21.77844522 0.00621915 0.01017553 0.00236691
N 15.85936311 13.30119096 19.70651928 0.00244696 -0.00165874 -0.00486717
N 14.98747555 15.88169376 24.30148958 0.00107278 -0.00414492 0.00076386
N 17.43653112 11.06854103 25.74958643 -0.00288982 -0.00488498 -0.00214885
N 16.84701195 18.29117898 21.41688649 0.00055721 -0.00125560 -0.00224548
N 15.14321576 24.85871445 1.32942028 0.00208694 -0.00924976 0.00149302
N 16.12216040 23.74492371 6.06586422 -0.00184780 -0.00768522 -0.00106695
N 16.84639069 28.44726129 8.18195624 0.00158559 0.00026230 -0.00398834
N 18.38248696 20.22832478 3.56768651 0.00922750 -0.00336754 -0.00659183
N 16.15528286 22.85378971 1.66259267 -0.00623640 0.00327070 0.00500393
N 14.96389987 25.72336886 6.13984652 -0.00532550 -0.00118735 0.01239434
N 18.07786620 20.54346889 7.72340694 0.00066062 0.00216872 -0.00870362
N 16.85524013 27.83615420 3.50014220 0.00278588 -0.00260681 0.00296912
N 15.01563628 25.03880650 10.42303658 -0.00153520 -0.00525027 0.00411618
N 16.47200428 23.37376990 14.44303756 -0.00055120 -0.00445278 0.00555735
N 17.35685790 28.05240759 17.10838360 -0.00700374 -0.00110988 0.00503904
N 18.18562842 19.55864515 12.44411947 -0.00506356 -0.00192495 -0.00079402
N 16.12091843 23.07711636 10.94958323 0.01104384 -0.00644414 -0.00421677
N 15.11543276 25.09370445 15.30454836 -0.00273975 -0.00253532 0.00817994
N 18.39507815 20.33188957 16.98139525 -0.00505441 0.00531885 0.00306700
N 17.13537108 27.49502303 12.59006405 -0.00200476 0.00122804 0.00427963
N 15.14867510 24.91091924 19.35328567 -0.00296609 0.00176485 -0.00315456
N 16.23958497 23.69142552 24.26134128 -0.00019973 -0.00780193 -0.00096868
N 16.47396151 28.24668639 26.33589685 -0.00023402 -0.00649032 0.00255785
N 18.11428075 20.17107229 21.97994150 -0.00020138 0.00074973 -0.00067243
N 16.05238912 22.84201645 19.69693255 0.00551011 0.00274696 0.00399796
N 14.81380449 25.50392736 24.33688965 -0.00204941 -0.00017907 -0.00038861
N 17.78609085 20.54411640 25.94906148 -0.00285915 0.00340585 -0.00150754
N 16.88851944 27.58779535 21.31090411 -0.00323548 0.00144240 0.00127563
N 18.90565755 5.50662512 1.20645007 0.00432888 0.00196291 -0.00617969
N 20.23161916 4.13648259 5.66016611 0.00070382 0.00272382 0.00160198
N 20.64152616 8.99073056 8.44654918 0.00088395 0.00689655 -0.00304242
N 0.08817859 0.71428629 3.25271488 -0.00262985 -0.00215608 0.00503658
N 19.91921109 3.45663595 1.36792698 -0.00623339 0.00763900 -0.00062156
N 19.48819980 6.25856506 6.43330888 0.00280897 0.00250929 -0.00407637
N 21.94188039 1.19646612 7.55177600 0.00438620 -0.00058401 0.00038876
N 20.73554527 8.70981586 3.17098285 -0.00822891 -0.00286564 0.00321295
N 18.56090592 5.29009685 10.11422528 -0.00220206 0.00221845 0.00110762
N 19.98266619 4.03993332 14.85860010 0.00139960 0.00000922 -0.00281326
N 20.35177743 8.93615047 17.49771199 -0.00353165 0.00217124 -0.00699026
N 22.03349703 0.52108354 12.48375459 -0.00483963 -0.00418578 -0.00476292
N 19.84227829 3.47772058 10.71742914 0.00195749 -0.00670777 0.00094018
N 18.99500701 6.14716774 15.25144986 -0.00360919 -0.01058802 -0.00488200
N 21.73817221 1.03812389 16.91847906 -0.00316608 -0.00255858 0.00716850
N 20.50561206 8.40441555 12.18677622 0.00156302 -0.00205247 -0.00196228
N 18.93120214 5.61366195 19.19813239 0.00487721 0.00115660 -0.00860735
N 19.51117347 3.75107505 23.66999258 -0.00464330 0.00725016 0.00057982
N 20.43673368 9.12402625 26.50046546 0.00791317 0.00511932 -0.00224403
N 22.03125381 0.53797420 21.90941095 -0.00018296 0.00100710 -0.00539560
N 19.96235532 3.46683429 19.20520563 0.00233325 0.00369345 0.00118511
N 18.63542360 5.88095951 24.15462143 -0.00237544 -0.00731794 0.00596492
N 21.49834289 1.30070810 25.77760052 0.00509058 -0.00399782 0.00226256
N 20.59756980 8.35552081 21.49808065 -0.00043878 -0.00567569 0.00193186
N 18.50305212 15.04587914 0.68321928 -0.00590832 0.00145967 -0.00356936
N 20.06912079 13.73492288 5.73411028 -0.00013428 0.00022871 -0.00377421
N 20.53250640 18.48625003 7.98964226 0.00481481 -0.00622655 -0.00705837
N 22.00022726 10.46967214 3.93123199 -0.00362840 -0.00194884 -0.00020856
N 19.87833798 13.21839883 1.26293132 0.00060475 -0.00011962 -0.00066411
N 18.59858870 15.46978261 6.20532521 -0.00203252 0.00001482 -0.00018038
N 21.69626623 11.04582885 7.99441783 0.00821630 0.00240972 -0.00212274
N 20.61436557 17.60291899 3.11384064 0.00230402 -0.00045336 -0.00193292
N 18.59077121 15.10974838 10.43817012 0.00077547 -0.00314048 -0.00227983
N 19.69781169 13.79734862 15.25163391 -0.00779598 0.00136966 -0.00192857
N 20.99693926 18.16780292 17.25292528 0.00518696 -0.00100103 -0.00375913
N 21.43213996 10.33400370 13.10626005 -0.00357612 0.00327144 -0.00362617
N 19.50625173 12.93035051 10.73791149 0.00220705 0.00575241 0.00396788
N 18.50099672 15.74295041 15.15075955 -0.00448809 0.00071838 -0.00317142
N 21.59771031 10.82055151 16.99841861 -0.00494771 0.00025117 -0.00043821
N 20.73848634 17.81056925 12.27441358 -0.00500430 -0.00236107 0.00693057
N 18.39056884 15.01891387 19.21715362 0.00015561 -0.00420454 0.00125210
N 20.14558120 13.60449681 23.09079438 0.00195642 0.00612148 0.00339431
N 20.21784704 18.42900897 26.03349811 0.00119098 -0.00426593 0.00648699
N 21.79675625 10.27461439 22.02994930 -0.00025988 -0.00430969 0.00159236
N 19.50169769 12.98529133 19.65493027 0.00399346 0.00117144 -0.00754414
N 18.93757895 15.35082491 23.91582649 0.00333342 0.00319758 0.00076034
N 21.66899881 11.02659740 25.93435339 -0.00112379 -0.00093029 -0.00365786
N 20.46978701 18.42990364 21.16367803 0.00374093 -0.00611657 0.00417777
N 18.40131669 24.68850427 1.53203673 0.00021678 0.00268722 -0.00010610
N 20.04758861 23.60999486 6.08917628 0.00638953 -0.00079697 -0.00253916
N 20.69038653 28.19052519 8.04636450 -0.00090404 -0.00061540 0.00444771
N 21.29211264 19.74805019 3.36497238 0.00339160 0.00270782 -0.00248241
N 19.65175624 22.77840139 1.74846472 0.00312556 -0.00057620 -0.00717775
N 18.72897699 25.53651364 6.07033208 0.00982447 0.00291617 0.00885982