1728
Time=66000.00000006 pbc="T T T" Lattice="22.04430111 0.00000000 0.00000000 0.00000000 28.88382125 0.00000000 0.00000000 0.00000000 27.38200767" energy=-10387.78094637 virial="7.26058058 22.01854667 -9.90046243 22.01854667 30.25182133 -11.18044016 -9.90046243 -11.18044016 39.43663492" stress="0.00269917 0.00123566 -0.00049257 0.00123566 0.00431268 -0.00067666 -0.00049257 -0.00067666 0.00498055" Properties=species:S:1:pos:R:3:vel:R:3
N 0.17633525 5.32688846 0.89050700 -0.00467331 0.01005993 0.00582324
N 1.33813943 4.18786321 5.96929608 -0.00570247 0.00139838 0.00080434
N 2.19750871 9.09593799 8.11342314 -0.00470449 -0.00358793 0.00498018
N 3.46155948 0.77098999 3.48039202 -0.00234444 0.00753482 -0.00284370
N 1.66688993 3.80165782 1.67292267 0.00261016 0.00302964 -0.00009758
N 0.26882770 6.18046649 6.03212058 -0.00088402 0.00593678 -0.00132504
N 3.08390082 1.23343934 7.62009299 0.00219052 0.00099113 -0.00202071
N 2.04583115 8.21758624 2.82819745 0.00655104 -0.00419736 0.00050004
N 21.99867081 5.42360660 10.63787532 -0.00445401 0.00149665 -0.00432630
N 1.60716504 4.12586522 14.87808366 0.00340487 -0.00137384 -0.00453982
N 2.12825972 9.05762552 17.11146858 0.00404688 -0.00041426 0.00096130
N 3.61880494 0.72371343 12.28806306 0.00339727 -0.00528192 0.00124033
N 1.07803509 3.35842499 10.27760126 0.00068194 -0.00200226 -0.00405919
N 0.53334802 6.19143041 15.30075836 -0.00205729 -0.00260703 -0.00131389
N 3.38206242 1.34762135 16.95691910 0.00443775 -0.00527218 0.00021599
N 2.08172126 8.61875897 12.14060879 -0.00073983 -0.00627732 -0.00061766
N 0.14717548 5.26601484 19.17018184 0.00189532 -0.00107606 -0.00559807
N 1.31262953 4.40503550 23.91626860 0.01352268 0.00169056 0.00488699
N 1.94762136 9.08888598 26.16041423 -0.00331587 -0.00328932 0.00039062
N 3.53468772 0.43631106 21.68299946 -0.00492707 -0.00046092 -0.00671352
N 1.29878529 3.32797638 19.75368551 -0.00709135 -0.00740833 0.00046622
N 0.22379898 6.38421165 24.18632220 0.00190756 -0.00001938 0.00227865
N 3.28410365 1.61854068 26.23612120 -0.00501113 0.00196894 0.00135555
N 2.17201816 8.37833147 21.11927385 0.00745218 -0.00393012 0.00399386
N 21.83738847 15.17022617 1.57199072 0.00119234 0.00010006 -0.00192504
N 1.21040818 13.59523575 5.98377247 0.00071558 0.00193692 -0.00016977
N 2.45145132 18.41788808 8.32721652 0.00255542 -0.00244974 -0.00754392
N 2.98939898 10.22546729 3.54795981 -0.00178342 -0.00323384 0.00636260
N 1.26508889 13.32993393 1.52926534 0.00014338 0.00466374 -0.00015599
N 0.09097557 15.57834181 6.34937496 -0.00362586 -0.00018749 -0.00100020
N 3.23539982 11.13959324 7.73455462 -0.00231397 -0.00035428 -0.00675197
N 1.97838672 17.82830093 3.30505155 -0.00141738 0.00395293 -0.00005607
N 0.34327265 15.10797804 10.52687468 -0.00340775 -0.00249869 0.00658065
N 1.83142005 13.72555323 15.14801958 0.00144877 0.00355166 -0.00010599
N 2.34747354 18.60040980 17.12524693 0.00351910 0.00163010 -0.00194270
N 3.71074179 10.23090525 12.52530794 -0.00513215 0.00687334 0.00800136
N 1.68161642 13.21080314 10.83307944 0.00077410 -0.00297238 -0.00034046
N 0.43175885 15.58121934 15.14799185 0.00194670 -0.00193507 0.00597391
N 3.59904720 10.85294898 16.77855555 -0.00009758 -0.00191461 0.00348926
N 2.14305720 17.99430749 12.56070581 -0.00519956 -0.00131302 0.00081278
N 0.26517535 14.99689183 19.66382291 0.00331059 0.00573375 -0.00177177
N 1.20048616 13.64808849 24.04296852 -0.00128623 -0.00136253 -0.00289943
N 2.25049341 18.83355398 26.18197736 -0.00075475 -0.00017043 0.00310026
N 3.35977158 10.24535078 21.70676270 -0.00066949 0.00087955 -0.00298063
N 1.51027353 12.99614091 19.82212220 -0.00406001 -0.00791152 0.00234157
N 0.27701033 15.81784213 24.22754164 -0.00145828 0.00115057 -0.00442063
N 3.03817123 11.10143756 26.01911398 0.00335856 -0.00364025 0.00298559
N 2.23922677 17.95479865 21.24128495 0.00582899 0.00069210 0.00123488
N 21.93006212 24.68949380 1.44868624 -0.00047600 -0.00465210 0.00074682
N 1.47761377 23.27436437 5.82831878 0.00009063 -0.00100486 0.00013271
N 1.65969203 28.25441888 7.83189520 0.00552938 0.00564312 -0.00184433
N 3.25557038 19.72410011 3.65819664 -0.00002252 0.00228237 -0.00443367
N 1.35341516 22.98289077 1.52838895 -0.01003505 0.00263912 -0.00567147
N 0.15826324 25.23550940 5.83315126 -0.00155978 0.00089799 0.00004896
N 3.48624858 20.50784602 7.78404368 -0.00322613 0.00203805 -0.00062987
N 2.36742206 27.74387882 3.04339800 0.00218927 -0.00449320 -0.00017420
N 0.21075796 24.75080146 10.52128049 0.00372371 0.00056492 -0.00207395
N 1.65558202 23.44637064 15.05797650 0.00055405 -0.00434546 0.00959117
N 2.51295469 28.06862132 17.10843925 0.00412494 0.00621492 -0.00441831
N 3.29155245 19.92809674 12.84981212 -0.00010694 0.00262288 -0.00537116
N 1.50558034 22.88463208 10.62485953 -0.00053893 0.00358181 0.00340442
N 0.56568951 25.50497631 15.22861917 -0.00152677 -0.00231831 0.00124539
N 3.59743812 20.48673774 16.86015307 0.00115172 -0.00130916 -0.00456054
N 2.34082502 27.68888820 12.36334757 0.00294003 0.00239985 -0.00180113
N 0.28555564 24.83119092 19.63760684 0.00751437 0.00547810 0.00961437
N 1.64758581 23.56620271 23.93273307 0.00799670 -0.00707893 0.00090349
N 2.68449020 28.31227416 26.51997480 0.00449155 0.00605456 0.00417324
N 3.61800318 19.69943361 21.68617787 0.00451557 0.00657086 -0.00436434
N 1.53779621 22.95948163 19.89877675 0.00608095 -0.00463905 0.00226419
N 0.36335122 25.46466985 24.51205314 0.00010015 -0.00030264 -0.00023210
N 3.09678529 20.96970249 26.16949215 -0.00705656 -0.00642774 0.00711746
N 2.11061815 27.59131546 21.55000378 -0.00216374 0.00016308 0.00050339
N 4.17902795 5.31506115 1.03247082 0.00388322 0.00253088 0.00017648
N 4.84610280 4.10682317 5.81294725 -0.00458929 -0.00158479 -0.00226918
N 5.56742019 8.74407455 7.87419963 0.00187164 -0.00195886 -0.00205173
N 7.17466188 0.47979121 3.39746383 0.00168625 0.00248311 -0.00264426
N 5.50350508 3.40145849 1.57500135 -0.00041211 0.01119415 -0.00077558
N 3.96450896 6.23201693 6.08602214 0.00124756 -0.00226705 -0.01154969
N 6.72687284 1.42038949 7.47136848 -0.00019811 0.00147645 0.00240247
N 5.92250950 8.14039966 3.05211324 -0.00262363 0.00107263 0.00452482
N 3.91204257 5.55131340 10.26337680 -0.00326682 -0.00051042 -0.00465906
N 5.49020546 4.21818483 14.90519398 -0.00092524 0.00348893 0.00809195
N 5.80946619 8.71352882 17.04947032 -0.00460935 -0.00915628 0.00025460
N 7.18732712 0.62051247 12.34176617 0.00602655 -0.00540904 -0.00385042
N 5.20289264 3.68579708 10.49568607 0.00018448 0.00004286 0.00103370
N 4.40150178 6.19719380 15.12426512 -0.00142419 0.00119967 -0.00334776
N 7.07498939 1.05925152 16.31063736 0.00354218 0.00087218 -0.00389695
N 5.81425782 8.14785711 12.11934883 0.00432721 -0.00117673 -0.00500423
N 3.89938602 5.32493104 19.31619845 0.00031459 -0.00395291 0.00194470
N 5.12506705 4.26497289 23.94034873 0.00001069 0.00022102 -0.00671988
N 5.89777654 9.04080315 26.15400049 -0.00051118 -0.00052938 0.00089574
N 7.25592689 0.73366277 21.69242553 -0.00074812 0.00189808 0.00179375
N 5.28174314 3.39019897 19.60834942 0.00681517 0.00452466 -0.00165055
N 3.72840116 6.12950092 24.36520551 -0.00426372 -0.00197789 0.00069189
N 7.07524397 1.29577218 25.70455146 -0.00270832 0.00074256 0.00219804
N 6.53887985 8.35262068 21.17137450 -0.00068596 -0.00314779 -0.00304703
N 3.59723672 15.03558911 1.15809821 -0.00030829 0.00001947 0.00494109
N 4.76879275 13.40166310 5.64647666 -0.00214064 0.00659152 -0.00059887
N 5.73001820 18.57264573 7.95913873 -0.00233533 0.00087782 0.00235440
N 6.42232421 10.42128221 3.34876559 -0.00257714 0.00400582 0.00227223
N 4.87462960 13.21694616 1.55535193 0.00150043 0.00241824 -0.00270522
N 3.62523268 15.47877618 5.90177048 0.00165656 -0.00045029 0.00485780
N 6.71741145 10.77456249 7.65727560 -0.00175027 -0.00608177 -0.00119962
N 5.65300780 18.12711338 3.06444285 0.00212423 -0.00149312 0.00591773
N 3.95598993 15.24847859 10.37074829 0.00063467 0.00316610 -0.00374640
N 5.63724990 13.58125228 15.06333670 0.00317837 0.00095185 -0.00170300
N 5.92467456 18.44435215 17.11044769 0.00124611 -0.00417491 0.00585446
N 7.32026730 9.93302603 12.35220643 -0.00127047 -0.00090567 -0.00413248
N 5.12019671 13.22303863 10.57642384 -0.00195803 -0.00297447 -0.00377308
N 4.26623534 15.53677097 15.42783971 -0.00067237 -0.01123973 -0.00198866
N 6.92543722 10.76828747 16.53390781 -0.00033174 -0.00627822 -0.00146813
N 6.01595315 17.81998021 12.27265465 0.00061282 0.00479355 -0.00586340
N 4.27957465 15.31946638 19.35825074 -0.00209228 -0.00252600 0.00678241
N 5.51670155 13.92104475 23.88694651 0.00409183 0.00030000 0.00438480
N 5.65905699 18.88290578 26.27150808 -0.00072898 0.00472907 -0.00207461
N 7.28232878 10.44658193 21.71046109 0.00219165 -0.00023165 0.00221153
N 5.31272091 13.24610982 19.38643166 0.00190518 -0.00111386 0.00484551
N 4.07398779 15.70504408 24.08233657 -0.00024984 0.00396389 -0.00235743
N 6.90393839 11.04764288 25.72759757 -0.00455023 0.00180109 0.00005234
N 6.10403228 18.24590365 21.39003098 0.00298369 -0.00557642 0.00146965
N 3.70244754 24.77159673 1.25158089 -0.00392987 0.00037639 -0.00641038
N 5.08413812 23.47212775 5.73028769 0.00018920 -0.00285353 0.00052053
N 5.62799468 28.31218110 7.89321390 -0.00407757 -0.00028814 -0.00391622
N 6.76612298 20.06010936 3.52058210 0.00299180 -0.00058030 -0.00143528
N 5.20232705 23.01917401 1.60617874 -0.00091902 -0.00427183 0.00141924
N 3.81434107 25.47243988 5.97038324 0.00089940 0.00417335 0.00432132
N 7.01610400 20.43681588 7.58443362 0.00522245 -0.00025187 -0.00182781
N 5.71854299 27.54251749 3.00109594 0.00009766 0.00461748 -0.00098320
N 3.86655706 24.96411027 10.38128747 -0.00322625 0.00831597 0.00359888
N 5.53861505 23.11042534 14.97964743 0.00566284 -0.00071728 0.00057835
N 5.56736042 28.32595102 16.83853612 0.00366991 0.01131041 0.00226058
N 7.26699007 19.74277371 12.35460029 -0.00229844 -0.00398761 -0.00069293
N 4.70160417 22.80394569 10.44594476 0.00078714 0.00699227 0.00011132
N 4.37021637 25.04576247 15.28743591 -0.00062539 0.00006180 0.00581768
N 7.18268945 20.32038905 16.77740933 -0.00693465 0.00455726 -0.00118352
N 5.89117817 27.54061962 11.98104030 0.00491542 -0.00119971 0.00142836
N 3.78545502 24.76784691 19.53287007 -0.00632637 0.00099616 0.00597602
N 5.26256079 23.39181221 23.72529385 -0.00597766 -0.00386977 0.00085208
N 6.37492402 28.03131712 25.99823412 0.00256617 -0.00199979 0.00169990
N 6.99986885 20.24636007 21.71309777 -0.00352856 0.00098593 -0.00025017
N 5.16645662 22.94164225 19.67027111 0.00184621 -0.00593780 0.00293404
N 3.93488480 25.28916850 24.17909832 -0.00032009 0.00432610 -0.00904403
N 6.85557621 20.84082377 26.10857048 -0.00068062 -0.00188446 0.00035640
N 6.03603573 27.82732299 20.91143598 -0.00302178 0.00052541 0.00193036
N 7.52084920 5.68105751 0.98616704 -0.00194108 0.00256162 0.00511358
N 8.54502883 4.19796771 5.48535071 -0.00442546 0.00501362 -0.00098472
N 9.28575198 8.95006353 7.69766238 0.00385904 -0.00074927 -0.00298993
N 11.00624080 0.57823574 3.45263131 0.00297811 0.00555183 0.00010863
N 8.56020117 3.60493999 1.18681947 -0.00446216 -0.00177094 -0.00252388
N 7.33657182 6.11368969 5.78481162 0.00268978 0.00649210 -0.00368640
N 10.49954718 1.31259957 7.53517798 -0.00348482 0.00507977 -0.00490935
N 9.69575367 8.30151867 2.76942908 -0.00098617 0.00563385 0.00413621
N 7.66364764 5.17595227 9.92071354 -0.00185267 0.00377965 -0.00355522
N 8.83519852 3.94787187 14.76556809 -0.00232073 0.00072325 -0.00537592
N 9.28517273 8.74908119 17.18939322 0.00028134 -0.00134068 -0.00527670
N 10.73628608 0.35383850 12.15753083 -0.00277094 -0.00029438 0.00764237
N 8.64630695 3.24026586 10.38785361 -0.00125409 0.00318671 -0.00613138
N 7.73368661 5.97551058 14.93096659 0.00579912 0.00899316 0.00266311
N 11.11506810 1.31389540 16.32936053 -0.00578407 0.00071331 -0.00016983
N 9.57649322 8.21253206 12.00249074 -0.00402206 -0.00420764 -0.00542096
N 7.54851262 5.31859462 19.14306067 -0.00130589 -0.00248875 -0.00506345
N 9.15567899 4.38136750 23.81408872 0.00462037 -0.00057445 0.00074347
N 9.48935839 8.79728947 26.09977216 -0.00660322 -0.00607033 -0.00112141
N 11.02435279 0.75720050 21.22834565 0.00085684 0.00248470 -0.00082594
N 8.88882102 3.47674688 19.18900207 0.00202825 -0.00110363 -0.00748564
N 7.69057218 6.12619763 23.97672595 -0.00167864 -0.00363126 -0.00119627
N 10.45738086 1.51818496 25.37519135 -0.00474365 -0.00208231 -0.00509671
N 9.70434804 8.44411483 21.48279721 -0.00280522 -0.00023348 -0.00354418
N 7.44304927 15.17260723 1.18488111 -0.00092724 0.00481734 -0.00625061
N 8.83768896 13.77976408 6.02575565 -0.00283643 -0.00107788 -0.00334653
N 9.50329786 18.30294647 7.55651537 -0.00312629 -0.00215380 0.00143562
N 10.73942263 10.18995683 3.34482648 -0.00189726 -0.00345014 0.00537470
N 8.75289197 13.45713770 1.72806137 0.00444078 -0.00181526 0.00207157
N 7.33928569 15.56867464 6.09832495 -0.00345065 -0.00005940 0.00240301
N 10.72176557 10.73948553 7.44079899 -0.00132418 0.01169484 0.00452780
N 9.34439474 17.69139770 3.71150752 -0.00197206 -0.00279162 0.00043280
N 7.70381476 14.92272668 10.50210775 -0.00099863 -0.00259044 0.00569564
N 8.60050847 13.49417167 14.68094758 0.00106393 -0.00217305 -0.00202416
N 9.51656258 18.66170487 16.95970611 0.00665170 -0.00413500 0.00704838
N 10.80286531 10.10760826 12.59310459 -0.00543631 -0.00300838 0.00053511
N 8.86762017 12.87810412 10.34489020 -0.00122237 -0.00159155 0.00014672
N 7.84088287 15.62011627 14.97042294 -0.00496627 0.00482758 0.00542837
N 10.55402682 10.54264756 16.60540501 0.00148644 -0.00523927 -0.00293305
N 9.51983871 17.97257845 12.17608966 -0.00779964 0.00134505 -0.00246592
N 8.25948760 15.32865366 19.12955767 -0.00469746 -0.00875741 0.00482922
N 9.23932008 13.78746698 23.90908741 0.00288976 0.00416840 0.00030503
N 9.47904681 18.68153871 26.07007553 0.00330989 0.00314661 0.00083591
N 11.10359488 10.23367431 21.53916797 -0.00272180 0.00065627 0.00406330
N 8.96896306 13.23616089 19.64787031 0.00247357 -0.00458033 0.00381527
N 8.12092425 15.76733457 24.41505350 0.00138957 -0.00462927 -0.00444503
N 10.64757663 10.74135070 25.87230480 0.00296921 0.00099872 -0.00224276
N 9.21992612 18.11768709 21.02172981 0.00084612 -0.00637255 0.00672073
N 7.73934680 24.86695480 1.06780485 -0.00341470 0.00389663 0.00409001
N 8.84766302 23.46688561 5.62061669 0.00046546 -0.00145520 -0.00167139
N 9.06198170 28.35533893 7.53370336 -0.00216300 -0.00257376 0.00076858
N 10.83331320 19.52362066 3.20528998 0.00427852 0.00053716 0.00487555
N 8.72542273 22.87655840 1.39822733 -0.00084370 -0.00181750 0.00225477
N 7.60225187 25.31816115 6.07167559 -0.00144372 -0.00454129 0.00286261
N 10.79835070 20.22322406 7.94261645 0.00270053 -0.00201184 0.00139880
N 9.97260912 27.48399594 2.74158537 0.00181093 -0.00192600 0.00315171
N 8.07252661 24.70110286 9.84245425 0.00140168 -0.00003071 -0.00284217
N 9.20955163 23.30325201 14.28848465 -0.00417726 -0.00203577 0.00063290
N 9.85983897 28.23995090 16.84715506 -0.00081466 -0.00043293 -0.00373835
N 10.47403935 19.96285832 12.46844233 -0.00014474 0.00458027 0.00485699
N 8.70094865 22.49585057 10.10800670 0.00587662 0.00063776 0.00002712
N 7.88821514 25.10758945 14.97286437 -0.00265840 -0.00028217 0.00278748
N 10.81090033 20.51808469 16.36184388 0.00429019 0.00083531 -0.00227417
N 9.47099247 27.39618301 11.59387690 -0.00988385 -0.00678931 -0.00118705
N 7.51830794 24.71243273 18.97609661 -0.00031541 -0.00357072 0.00279742
N 8.93972095 23.52981420 23.83622481 -0.00613215 0.00064772 -0.00200955
N 9.60004283 28.40053716 25.78764190 0.00061484 0.00367738 -0.00931223
N 10.63951091 19.97657900 21.48972687 -0.00110083 -0.00304156 -0.00323475
N 8.77535739 22.74797663 19.03628858 0.00014975 0.00051584 -0.00376488
N 7.91474181 25.56852763 24.15614792 0.01073938 0.01353030 -0.00094468
N 10.51166242 20.67477123 25.80609327 0.00124363 -0.00303939 0.00259588
N 9.68180122 27.68430194 21.17434745 0.00112388 -0.00169089 0.00441446
N 11.34654971 5.32031427 1.25776594 0.00221330 -0.00109517 0.00711024
N 12.83840270 4.22300724 5.78520837 -0.00392313 0.00132375 -0.00481421
N 12.92426339 8.86208466 8.01326514 0.00127297 0.00185166 0.00690425
N 14.38912655 0.63895476 3.48309659 -0.00662735 -0.00324874 -0.00396687
N 12.41485087 3.29918688 1.26910310 -0.00289233 -0.00144727 0.00380249
N 10.96473143 5.69606394 5.88849759 0.00668372 0.00160629 0.00091530
N 13.90828147 1.49599159 7.88917225 -0.00061997 -0.00255031 -0.00508681
N 13.48963574 8.31908021 3.20329303 0.00355637 -0.00255424 -0.00591704
N 11.00403889 5.36007817 10.30898820 0.00571190 0.00590369 0.00874199
N 12.87064435 4.12755759 14.85035044 -0.00126765 0.00169050 0.00352372
N 12.90456656 9.02179884 16.73569359 0.00196812 0.00377955 0.01158898
N 14.07478535 0.61277924 12.56580767 0.00687319 0.00360165 0.00073431
N 12.61418826 3.67954726 10.61274350 0.00252997 -0.00106478 0.00137511
N 11.52321938 5.94340705 15.17678905 0.00129669 0.00282349 0.00159815
N 14.47256650 1.10665088 16.59744664 0.00085466 0.00231440 0.00440153
N 13.31077845 8.40578200 12.29891495 -0.00420641 0.00035042 -0.00452808
N 11.71217390 6.01177518 19.35165218 0.00013211 -0.00365070 -0.00055440
N 12.89010140 4.04281179 23.80387136 0.00147194 -0.00732564 0.00349177
N 12.97145210 8.98351364 26.36624519 -0.00240772 -0.00265669 -0.00176192
N 14.03214228 0.78111499 21.74103931 -0.00015283 -0.00802139 -0.00279513
N 12.43991825 3.74978950 19.63416071 0.00053777 0.00106298 -0.00087824
N 11.62191944 5.94355055 24.09355904 -0.00322888 0.00232610 -0.00083081
N 14.53634407 1.09610041 25.83235638 0.00187599 0.00204687 -0.00659247
N 13.38070408 8.52561486 21.19052934 0.00128950 -0.00621421 -0.00236895
N 10.88118520 15.38882006 0.87016675 0.00142495 -0.00041629 -0.00225312
N 13.01496728 13.47546415 5.51682465 0.00320801 0.00705965 0.00109764
N 13.00966170 18.52894765 7.80796759 -0.00099119 0.00088716 0.00266165
N 14.60868076 10.23992768 3.49430611 0.00256962 -0.00553088 0.00115783
N 11.96021364 13.45961418 1.34522573 0.00753952 -0.00381208 -0.00829676
N 11.50175529 15.20584566 6.09547960 0.00021518 -0.00307240 0.00109113
N 14.31657000 10.65344145 7.75102246 -0.00752801 -0.00050281 0.00269793
N 13.29854856 17.81303817 3.23532311 0.00282469 -0.00085312 0.00234052
N 11.12608774 14.74651535 10.22090659 -0.00408099 -0.00117768 -0.00391384
N 12.69135559 13.73022607 14.67875453 -0.01130038 0.00576921 -0.00350870
N 13.41667370 18.58649082 17.22772351 0.00411271 -0.00201651 -0.00064640
N 14.76211202 10.17574389 12.34121735 -0.00503527 0.00616962 -0.00548960
N 12.66279370 13.10036808 10.41360061 0.00103349 0.00000377 0.00859458
N 11.58421832 15.64606367 15.28098429 -0.00161843 -0.00011024 0.00167138
N 14.12461893 11.00766552 16.83494630 0.00165492 0.00077457 0.00351590
N 13.20741455 17.54382051 12.11568360 -0.00236316 -0.00243422 -0.00139569
N 11.88400113 15.00621493 18.85467399 -0.00544704 0.00635792 -0.00216710
N 12.72629401 13.95535414 23.95863073 0.00113445 -0.00611425 -0.00945325
N 12.92025717 18.67064787 26.16355038 -0.00655209 0.00860716 -0.00011810
N 14.67024698 10.31074261 21.64270259 0.00339387 0.00338087 0.00159939
N 12.72505050 12.99312479 19.67405801 0.00356600 0.00286871 -0.00308986
N 11.40347473 15.90909401 23.89807398 0.00214321 -0.00767269 -0.00210038
N 14.10757385 11.01664889 26.06856695 -0.00712730 0.00504091 0.00130943
N 13.40507099 18.13454632 21.33300205 -0.00437330 -0.00755036 0.00068729
N 11.32516733 24.70390111 0.61828609 -0.00134909 -0.00082367 -0.00116183
N 12.19255935 23.09823198 5.39426592 -0.00109441 0.00036661 0.00066564
N 12.87507054 28.38920909 7.91594406 -0.00603620 0.00483118 -0.00096755
N 14.05234834 19.94813039 3.47416244 -0.00069933 -0.00167520 0.00480514
N 12.44670934 22.83225587 1.33984831 0.00015635 0.00199751 -0.00445903
N 11.29254901 25.12944994 5.78784729 0.00073236 0.00462665 0.00130718
N 14.69776726 20.16326033 7.52641954 -0.00895458 -0.00205780 -0.00497521
N 13.43638370 27.55335298 2.84440754 -0.00139983 0.00622108 0.00003065
N 11.35198612 24.30354678 10.07471871 -0.00098125 0.00235285 -0.00096046
N 12.70518894 23.48172447 14.67420272 0.00407646 0.00280081 0.00659177
N 13.12312492 28.30644533 17.51775201 -0.00726529 -0.00355010 0.00244171
N 14.25147809 19.59300920 12.28165008 0.00077441 0.00458852 0.00430521
N 12.60711029 22.34152597 10.24125911 -0.00188129 -0.00319171 0.00172328
N 11.72121521 25.50552721 14.88969113 -0.00553514 -0.00187836 -0.00187219
N 14.57232061 20.42346195 16.67527239 -0.01184381 -0.00258043 -0.00373075
N 13.14769851 27.45375263 11.98920457 0.00321151 0.00594958 0.00267615
N 11.23395929 24.90146737 19.17190776 0.00389035 -0.00275233 0.00719935
N 12.92237627 23.30120015 23.65864259 0.00422611 -0.00313381 -0.00551001
N 13.27412380 28.02610962 26.07790867 0.00546772 0.00622646 -0.00219908
N 13.80391624 20.37916350 21.84187324 0.00155565 -0.00101227 -0.00726429
N 12.28043303 22.85742244 19.43456911 -0.00358766 -0.00120174 0.00208789
N 11.45312542 25.09627941 23.99428973 -0.00047436 -0.00033405 0.00112069
N 14.16687823 20.56533156 25.79924270 -0.00133417 -0.00219943 -0.00608506
N 13.36427281 27.39584864 21.64734076 0.00216228 -0.00117089 -0.00303391
N 15.00511034 5.33316808 1.39946760 -0.00271116 -0.00281290 0.00120917
N 16.42355859 4.34459019 5.94784942 0.00224236 -0.00731226 0.00061473
N 16.73167175 8.97550985 8.25137436 0.00625600 -0.00136281 0.00333032
N 18.17102308 0.69799485 3.88596326 -0.00684292 -0.00372221 0.00601003
N 16.20344147 3.42478046 1.65804082 0.00248577 -0.00727659 -0.00460196
N 15.34153679 6.30765031 6.25457777 0.00461823 -0.00093831 0.00102608
N 17.67316759 1.04028584 7.95146784 0.00150151 -0.00063791 0.00174181
N 17.04447246 8.33949382 3.25773073 -0.00384060 -0.00331624 -0.00706753
N 14.86110456 5.70814281 10.67276637 -0.00303227 0.00469489 0.00172458
N 16.56083093 4.46837063 15.15810610 -0.00325773 0.00419679 -0.00238782
N 17.17097166 8.77400205 17.31163276 -0.00067895 0.00596157 0.00210433
N 17.91733127 0.74905687 12.85864902 0.00765522 0.00235193 -0.00163175
N 15.94761652 3.61232715 10.83654415 0.00014810 -0.00494560 0.00555935
N 14.96831987 6.09424394 15.39321031 0.00776268 -0.00237735 0.00015122
N 18.20133695 1.35243234 17.07990152 -0.01279781 -0.00267811 -0.00223977
N 17.08557852 8.07961145 12.53990003 -0.00374308 -0.00121443 -0.00611419
N 15.18891081 6.03897823 19.58200204 -0.00394779 -0.00271384 0.00700793
N 16.41733503 4.19641698 24.17535154 -0.00187715 0.00199490 -0.00400413
N 16.69127676 9.25953870 26.41089847 -0.00545623 -0.00083097 -0.00215565
N 17.81138183 0.85472000 22.23211981 0.00508996 0.00412414 0.00034911
N 16.12895933 3.93590288 19.92831871 0.00782662 -0.00228342 -0.00181455
N 15.07284775 6.10977602 24.41137740 -0.00360993 0.00192415 0.00084607
N 18.06524413 0.89583344 26.20775117 -0.00384396 -0.00187545 0.00136370
N 17.27873707 8.28977551 21.39396420 -0.00388420 -0.00197424 -0.00403295
N 14.67656571 15.17928000 1.10023373 0.00628464 0.00459051 0.00512511
N 16.52235720 13.80663594 5.65583584 -0.00206092 0.00336900 0.00239439
N 16.95883268 18.31454398 8.28108014 0.00378016 -0.00499872 -0.00201929
N 18.17648781 10.31017560 3.52845049 0.00425610 0.00258441 -0.00456902
N 15.90679695 13.24861058 1.49241760 -0.00145779 -0.00075094 -0.00091370
N 15.23322937 15.63536951 6.10184675 -0.00004825 -0.00179056 -0.01061167
N 18.09863861 10.72625892 7.42046366 0.00532938 0.00250231 -0.00371029
N 16.82426055 18.24042117 3.06325760 -0.00325189 -0.00217629 -0.00270582
N 15.35685185 15.11230029 10.20403842 -0.00562562 -0.00116471 -0.00092610
N 16.34752941 13.71157798 15.03528506 0.00301168 0.00570140 -0.00123803
N 17.01170090 18.77853122 17.13724664 -0.00545520 -0.00263749 0.00218327
N 18.09191957 10.14435984 12.76568286 0.00677933 0.00248047 0.00281621
N 16.63036792 13.14301572 10.53860090 -0.00713657 0.00189672 0.00862999
N 15.02419483 15.54696376 15.30391165 -0.00596260 0.01028891 0.00360469
N 18.08430555 10.94878897 17.09305954 -0.00075597 0.00032207 0.00483419
N 16.93158582 17.76296616 12.30889529 -0.00903069 0.00357131 -0.00278388
N 15.15032972 15.22499488 19.35383553 -0.00169291 -0.00383338 0.00010536
N 16.14287391 13.84299831 23.92596356 -0.00038801 -0.00156069 0.00235380
N 17.15849210 18.62555969 26.43086777 -0.00392833 -0.00533878 -0.00217267
N 17.83612383 10.48425822 21.78029777 -0.00125450 -0.00762384 -0.00090906
N 16.45515348 13.43185965 19.91453484 0.00085395 0.00336274 0.00177076
N 15.27977611 15.85294892 24.50904435 -0.00401714 -0.00504288 -0.00474216
N 18.09734986 11.07869009 25.95892640 -0.00172722 -0.00536574 -0.00353481
N 16.88751968 18.29850640 21.68080993 -0.00028592 -0.00022900 0.00166112
N 15.05556606 24.87961033 0.98251566 0.00021425 0.00501612 0.00072919
N 16.14998151 23.23303827 5.85962078 -0.00844276 -0.00196343 0.00192590
N 16.37843573 28.07396618 8.45783263 0.00353855 0.00241537 0.00422298
N 18.14365640 20.06425197 3.63956733 0.00510814 -0.00697715 -0.00142465
N 15.88644423 22.83980556 1.77917548 0.00100175 -0.00405148 0.00829411
N 14.73745495 25.05465298 6.15073130 0.00582168 -0.00784938 -0.00233301
N 18.24617619 20.28255701 7.67097204 0.00191698 0.00127895 0.00082394
N 16.76084002 27.70817870 3.38761566 0.00202370 -0.00263338 0.00474161
N 15.22014334 24.43846571 10.56680390 -0.00119124 -0.00191209 -0.00229684
N 16.26132461 23.49095229 14.76032632 0.00130303 0.00296826 -0.00066158
N 16.94416889 28.27284019 17.69407431 -0.00463176 -0.00130861 -0.00157669
N 18.03841870 19.69808811 12.89328452 -0.00307900 -0.01004425 0.00244090
N 15.91582326 22.24712069 10.82667450 0.00163465 0.00367808 0.00518598
N 15.26116340 25.47711413 15.27003985 0.00949846 0.00258009 -0.00536829
N 18.04555594 20.76028759 16.84750998 -0.00322698 -0.00089557 -0.00032272
N 16.79334285 27.75896390 12.30501977 -0.00347880 -0.00042577 -0.00310820
N 14.84388238 24.66967608 19.88028412 0.00986371 -0.00212063 0.00294327
N 15.83625951 23.11884885 23.99406257 -0.00339268 0.00310398 0.00202120
N 16.87507919 27.86255520 26.59100420 0.00572557 0.00246392 -0.00304377
N 18.36226235 20.14581591 21.79141112 -0.00274591 -0.00286689 -0.00052441
N 16.08248968 22.79441553 19.79583543 -0.01258663 0.00134630 0.00213312
N 14.88348505 25.22779949 24.52292691 0.00338150 0.00972350 -0.00057069
N 18.05554752 20.70011251 26.00155459 0.00034789 -0.00542757 -0.00628752
N 16.95203173 27.72319779 21.65562164 0.00746027 -0.00045731 0.00803460
N 18.56133423 5.42900122 1.20469037 0.00404414 -0.00327792 0.00463823
N 19.83375096 4.25523659 6.01268498 -0.00486314 -0.00329392 0.00093797
N 20.67019849 8.85995289 7.80901941 0.00284634 0.00504806 -0.00022831
N 21.91171696 0.67978768 3.57343213 0.00350142 -0.00220844 -0.00413534
N 19.83382142 3.42430825 1.61858188 -0.00131013 -0.00029059 0.00100963
N 18.82895021 6.40551251 6.24467873 0.00835382 0.00065383 -0.00402341
N 21.45578418 1.34126997 7.51025113 0.00453198 -0.00280371 -0.00277647
N 20.87222587 8.44351455 3.01698854 -0.00048860 -0.01014523 -0.00440861
N 18.31234858 5.50126674 10.57731397 -0.00206019 0.00100068 -0.00178727
N 20.19739771 4.63475189 15.05844807 -0.00501271 0.00451423 -0.00477113
N 20.75104614 9.03038286 17.39887771 0.01001042 0.00192798 -0.00064519
N 21.84825098 0.73758936 12.81207057 -0.00003652 0.00430775 0.00428227
N 19.55901667 3.58108320 10.61476861 0.00134969 -0.00564438 -0.00353916
N 18.84476544 6.46279289 15.68386439 -0.00555210 0.00055443 0.00180422
N 0.00634971 1.19779940 16.57868321 -0.00148618 -0.00457915 -0.00512228
N 20.73510018 8.59996189 12.40541074 0.00941281 0.00090275 0.00495081
N 18.79369572 5.77929532 19.46628319 0.00396822 0.00116264 -0.00463772
N 19.73206818 3.78288062 23.95454343 -0.00436449 -0.00344721 0.00483930
N 20.13726247 8.82368505 26.42509391 -0.00117110 0.00087721 -0.00009686
N 21.70489218 0.71930583 21.50859779 -0.00292778 0.00053576 0.00312727
N 19.19658641 3.63823680 20.14287995 0.00348037 -0.00428530 -0.00768603
N 18.72090452 5.85880604 24.40116850 -0.00420350 0.00133436 0.00599524
N 21.55295581 1.43469849 26.06813422 0.00460894 -0.00293026 0.00327085
N 20.54124801 8.56582465 21.28461005 -0.00416500 -0.00207272 0.00109755
N 18.57860801 15.23232976 1.21339739 -0.00019185 0.00094825 -0.00506776
N 19.77451399 13.77489133 5.48317508 0.00833010 -0.00027119 0.00285582
N 20.75193587 18.41150822 8.18322602 -0.00239417 0.00674189 -0.00565239
N 21.84140149 10.49526007 3.26767436 -0.00797697 -0.00474774 0.00504560
N 19.35369692 13.06295395 1.49762660 0.00132848 -0.00738038 0.00121135
N 19.14320941 15.93910811 6.10938348 0.00208850 0.00479172 0.00202206
N 21.82133865 10.83808944 7.47043502 0.00176118 0.00212666 -0.00505923
N 20.47101639 18.04794981 3.12457645 -0.00014668 0.00489698 -0.00538419
N 19.24841414 15.35705358 10.02397175 0.00750255 0.00064554 0.00018348
N 20.14555660 13.78042127 14.93717272 -0.00931273 0.00492726 -0.00010555
N 20.69655289 18.48039475 17.37415548 -0.00071656 0.00325731 -0.00155161
N 21.48301695 10.68021409 12.72147139 0.00064913 -0.00014024 0.00029295
N 20.05928501 13.11533162 10.11176910 -0.00494653 -0.00150657 -0.00068436
N 18.97408218 15.67396626 15.25474535 -0.00171255 0.00337727 0.00266580
N 21.88006505 10.91836336 16.78684313 0.00160372 -0.00729430 0.00283528
N 20.53194835 18.13665138 12.37481789 0.00326039 0.00105079 -0.00517021
N 19.20109758 15.20400799 19.47599351 0.00154535 -0.00383930 0.00441788
N 20.17878286 13.73161550 24.20577163 0.00154804 -0.00298616 -0.00049923
N 20.49234462 18.82396726 26.32615463 0.00076991 -0.00423565 0.00173465
N 21.68554426 10.42200580 21.87091179 0.00192208 -0.00452456 0.00278241
N 19.77938263 12.99209757 19.89035843 -0.00126077 0.00285322 0.00603416
N 18.63469800 15.49279335 24.06908902 -0.00350750 0.00261086 0.00013366
N 21.60447823 10.66175381 26.08121813 0.00297049 0.00076625 0.01039512
N 20.60142004 18.24315837 21.19853612 0.00207247 -0.00167076 0.00011441
N 18.34892134 24.34588933 1.31091049 -0.00040815 -0.00290296 0.00187219
N 19.83356525 23.43814828 5.66780050 0.00110261 0.00543264 0.00285004
N 20.30775003 28.30278974 7.90680279 0.00168948 0.00426291 -0.00859844
N 21.87125709 19.86448832 3.42248083 -0.00093843 0.00447561 0.00529237
N 19.77655965 22.52199191 1.29852042 -0.00487924 0.00564329 -0.00357922
N 18.48534280 25.38330336 5.98796507 0.00236422 -0.00038098 -0.00203033