1728
Time=24000.00000000 pbc="T T T" Lattice="22.16136264 0.00000000 0.00000000 0.00000000 28.89271204 0.00000000 0.00000000 0.00000000 27.34138542" energy=-10390.38040805 virial="10.96222555 15.01902542 -2.42295515 15.01902542 8.85515193 -10.48461720 -2.42295515 -10.48461720 -10.56687842" stress="0.00273373 0.00075002 -0.00010716 0.00075002 0.00307555 -0.00050648 -0.00010716 -0.00050648 0.00246260" Properties=species:S:1:pos:R:3:vel:R:3
N 0.24726696 5.24803187 1.32412515 -0.00656245 0.00227051 -0.00113276
N 1.05936800 4.11994073 5.52668635 0.00020005 -0.00093100 -0.00311660
N 2.03322441 9.34635753 7.99524855 0.00331197 -0.00024714 -0.00626110
N 3.68828704 0.71777751 3.44756447 -0.00038788 0.00152058 -0.00019987
N 1.53854442 3.38457927 1.25996760 -0.00249509 0.00151784 -0.00363243
N 0.39884195 6.26536623 5.99446314 0.00503729 -0.00316748 0.00080328
N 3.34647822 1.34478695 7.75033054 -0.00014972 0.00622062 0.00491834
N 2.33364189 8.46682538 3.14862775 -0.00461923 -0.00018914 -0.00967991
N 0.56709162 5.92302206 10.37028389 0.00705380 -0.00336762 -0.00837426
N 1.68040884 4.05515178 14.84219716 -0.00237172 -0.00138067 -0.00121698
N 2.11048840 9.12989955 17.16315472 0.00033454 -0.00409756 0.00141517
N 3.62197956 0.89630702 12.28385574 0.00461166 -0.00531241 0.00480235
N 1.85928342 3.94569295 10.58119788 -0.00152833 -0.00138000 0.00247374
N 0.46889987 6.01356747 15.33180927 0.00556315 -0.00199090 -0.00206924
N 3.59336741 1.12826806 16.74363801 -0.00350485 -0.00144687 -0.00593898
N 2.44857369 8.50212417 12.43128651 -0.00254959 0.00089781 -0.00029361
N 0.56347593 5.73079278 19.26908226 -0.00922521 0.00034771 -0.00098055
N 1.41796972 4.10461618 23.97608042 0.00437398 0.00217436 -0.00320997
N 1.68324432 8.97609090 26.51001111 -0.00056661 -0.00188721 0.00476187
N 3.24314650 0.71393762 21.43105066 -0.00194177 -0.00034914 0.00183035
N 1.44755315 3.59005882 19.61768135 -0.00332305 -0.00803863 -0.00537433
N 0.09549383 6.01417517 24.53508299 -0.00283887 0.00073825 0.00147356
N 3.00379546 1.33068644 25.59852439 0.00143992 -0.00511385 0.00205451
N 2.46301873 8.31211459 21.57021004 0.00010542 0.00357911 0.00676803
N 0.32121069 14.76372211 1.18127107 -0.00207802 -0.00774528 0.00011710
N 1.29678604 13.79507054 6.07527421 0.00010472 0.00029759 -0.00484523
N 2.66172406 18.37442722 8.03506367 0.00895529 -0.00255292 -0.00206327
N 3.40454515 10.44941226 3.72468033 -0.00197170 0.00857944 0.00088381
N 1.89588806 13.23307155 1.94456221 -0.00098979 -0.00087541 -0.00451865
N 0.68537713 16.05929592 6.06485301 0.00517568 0.00107263 0.00068833
N 3.50849543 11.14554343 7.95274108 -0.00051222 -0.00079964 -0.00028818
N 2.29366348 17.84225058 3.07155499 0.00348483 0.00053248 -0.01175966
N 0.03003011 15.52181931 10.26923948 0.00246204 0.00443025 -0.00046769
N 1.75634823 13.63909999 15.04964150 -0.00269705 0.00173743 0.00123677
N 2.39012632 18.47699543 17.20280632 -0.00668361 -0.00050233 -0.00065882
N 3.75011648 10.38078112 12.83574911 -0.00452762 -0.00434670 0.00088815
N 1.61183710 13.87148680 10.82094183 -0.00786064 -0.00272170 -0.00955049
N 0.48679025 15.54194908 15.39613976 0.00660209 0.00220456 -0.00034759
N 3.48052565 11.00183238 16.99715624 0.00004939 -0.00013346 -0.01035553
N 2.14307427 17.84943518 12.31135073 -0.00046058 -0.00047117 0.00638455
N 0.41888739 15.09962630 19.48742769 -0.00088259 0.01202277 0.00498340
N 1.41981668 13.72201779 24.10384349 0.00521133 0.00700784 -0.00256055
N 2.22627194 18.54238470 26.16580872 0.00927291 -0.00571129 -0.00246972
N 3.54867264 10.27533347 22.08196082 -0.00802706 0.00113034 -0.00140251
N 1.46199538 13.03826333 19.77268456 0.00441868 -0.00333016 0.00606267
N 0.09846891 15.72806733 24.16943968 0.00331318 -0.00223269 0.00509731
N 3.20892196 10.77000395 26.23429203 -0.00424252 -0.00023879 0.00004508
N 2.35272640 18.02889617 21.23902161 -0.00082699 -0.00292109 -0.00737937
N 0.15776822 24.68873134 0.84107048 -0.00520827 0.00578942 0.00067124
N 1.64761190 23.32405774 5.72226547 0.00187838 -0.00384063 0.00584195
N 2.33164246 28.08716235 8.05818015 -0.00382518 -0.01007630 -0.00434285
N 3.39913580 19.88495973 3.51279383 0.00556911 -0.00202503 -0.01134659
N 1.69034970 23.03463669 1.41138911 0.00044428 0.00225080 0.00171232
N 0.62963443 25.34318204 5.94850344 0.00070908 -0.00405100 0.00138448
N 3.28052972 20.61810168 7.64588559 0.00240970 -0.00150965 -0.00437953
N 2.26829234 27.83301514 2.94698362 -0.00171701 0.00011698 -0.01039062
N 0.32912346 24.72962017 10.15609935 0.00305024 -0.00401136 0.01294457
N 1.80540617 23.56628793 14.95476353 0.00503394 0.00176976 0.00602818
N 2.11290625 28.27355794 16.91350524 -0.00263391 -0.01008453 0.00263427
N 3.20718178 19.81123396 12.55416833 0.00003658 0.00965057 0.00369492
N 1.31542908 22.75865596 10.54286994 -0.00740908 -0.00115103 -0.00610933
N 0.51018740 25.44480746 14.92188404 -0.00069694 0.00036548 -0.00112550
N 3.68194656 20.34652045 16.92059397 0.00033129 -0.00254017 -0.00722168
N 2.40641399 27.80617488 12.13047442 0.00013159 0.00114695 -0.00988794
N 0.21008656 24.72581251 19.34656733 -0.00317810 -0.00068647 -0.00038598
N 1.28072073 23.38699383 23.70236085 0.00143351 -0.00047267 0.00101921
N 1.91804883 28.24782663 26.00394279 -0.00056999 -0.00034993 0.00088126
N 3.54170100 19.95182555 21.66226029 0.00174158 -0.00479419 0.00752703
N 1.46855243 22.74807950 19.59435081 -0.00074488 0.00245069 0.00415967
N 0.15748267 25.36242770 23.91519344 -0.00222253 -0.00264860 0.00781402
N 3.28034491 20.60186787 25.92777858 0.00070611 0.00260096 -0.00136926
N 2.19051215 27.55736610 21.23696491 0.00094353 -0.00062285 0.00728968
N 4.13517871 5.85712690 0.86516209 -0.00134570 -0.00045898 -0.00207839
N 4.97068181 4.39499648 5.52446295 -0.00429399 -0.00144016 0.01234653
N 5.80745940 9.09752728 8.17905891 0.00833547 0.00008150 -0.00827361
N 7.36935790 0.82931941 3.40403989 0.00592420 0.00220371 -0.00293621
N 5.32183955 3.87614463 1.37012143 0.00646290 -0.00276167 0.00158860
N 4.08973052 6.40317166 5.92437075 -0.00043540 0.00049889 -0.00599672
N 6.95271337 1.32678849 7.60749575 -0.00060134 0.00114858 -0.00408154
N 6.23884165 8.61132617 3.20930285 0.00131766 0.00239927 0.00701565
N 4.27133038 5.72368939 10.19833807 -0.00104724 -0.00233009 -0.00705772
N 5.37032689 4.17427145 14.98062579 -0.00389002 0.00442620 -0.00643930
N 5.88452669 8.95369095 17.05504035 -0.00074515 0.00524153 0.00066919
N 7.41789917 0.98391518 12.23768613 0.00494350 -0.00258290 -0.00161855
N 5.25711170 3.72640360 10.77562516 -0.00158411 -0.00607383 0.00272533
N 4.11794566 6.07002591 15.14038096 -0.00355999 0.00316953 0.00175509
N 7.11903912 1.16819865 16.77451371 0.00208756 -0.00323091 0.00180145
N 6.08721532 8.61324430 12.16458158 0.00161234 -0.00024541 -0.00173229
N 4.05139693 5.25976686 19.58528758 0.00143951 0.00014386 0.00456036
N 5.07435617 4.25537126 23.70723143 -0.00218262 -0.00062550 -0.00364364
N 5.56766726 9.13092366 26.31088907 -0.00161342 0.00040708 -0.00552901
N 7.24218416 0.27564510 21.47590140 -0.00528748 -0.00249519 -0.01006631
N 5.48349794 3.50500912 19.78060921 0.00158321 -0.00234045 -0.00177584
N 3.85898939 5.94613361 24.60536629 0.00242988 -0.00290147 -0.00285703
N 6.61911433 1.52606948 25.94851909 0.00020523 0.00415509 -0.00272904
N 6.05674902 8.11590011 21.26366662 -0.00048334 -0.00155614 -0.00243039
N 3.94486861 14.86970240 1.11866731 -0.00135894 0.00218041 -0.00707442
N 4.95527645 13.48038319 5.22422857 0.00126168 -0.00278244 -0.00217749
N 5.78581343 18.72517129 8.12013162 -0.00235544 -0.00491403 -0.00127368
N 7.32351101 10.61134114 3.59748277 -0.00042918 -0.00101945 -0.00526435
N 5.37613075 13.12199864 1.43249208 0.00435812 0.00268090 -0.00108212
N 4.25396438 15.57479986 5.87772528 -0.00265701 0.00362314 -0.00876786
N 6.96006573 11.04908944 7.64681944 -0.00373289 -0.00097203 -0.00355402
N 5.98455946 18.07094090 3.06446950 -0.00084844 -0.00084478 0.00115267
N 4.11512071 15.25948770 10.51870222 -0.00231438 0.00292157 -0.00220782
N 5.85282954 13.84771771 14.93467184 -0.00253765 0.00007328 0.00087654
N 6.08672515 18.49542422 17.06011928 0.00134166 -0.00000373 -0.00132856
N 7.28335441 10.48415785 12.62499580 -0.00064171 0.00061644 0.00146444
N 5.32722734 13.31254055 10.87761755 -0.00060273 -0.00208891 -0.00662171
N 4.23261816 15.56135222 15.33485881 -0.00476920 -0.00236023 -0.00218312
N 7.06579092 10.77374967 16.70728347 -0.00123671 -0.00250957 -0.00407599
N 5.69369452 18.16101641 12.57378649 -0.00322506 -0.00267530 0.00460057
N 3.85900615 14.85974648 19.50502972 0.00044064 -0.00064594 0.00256046
N 5.11395337 13.81748040 23.75311974 -0.00213355 0.00013316 0.00548281
N 5.83861443 18.81181807 26.29916368 -0.00652069 -0.00407196 -0.00301301
N 7.04276762 10.20677177 21.72629436 -0.00360246 0.00549010 0.00106948
N 5.19438842 13.01366178 19.83119145 -0.00119706 -0.00289344 0.00617381
N 3.93027102 15.80521361 24.00650987 0.00320894 0.00305570 -0.00449637
N 6.93207219 10.94984640 25.83887818 0.00531634 0.00883967 0.00385333
N 5.83267232 18.05858422 21.23736978 -0.00111072 -0.00176573 -0.00095321
N 3.78082402 24.86150374 1.28409448 0.00279612 0.00462559 -0.00445166
N 5.33418425 23.42318345 5.81716110 -0.00109636 0.00053190 -0.00034033
N 5.76210095 28.27710033 7.83436484 -0.00349969 -0.00280719 0.00127569
N 7.28973662 19.84445857 3.34749770 -0.00287998 0.00355877 0.00348463
N 5.19815490 22.96187787 1.51017407 -0.00499589 0.00038252 0.00500501
N 3.98572601 25.27865237 6.15184121 -0.00273736 0.00334975 0.01067567
N 7.09929645 20.61887360 7.77665071 0.00932843 -0.00458280 -0.00183659
N 5.94564002 27.93202831 3.13351062 -0.00335120 0.00120259 0.00076113
N 4.01730143 25.02629666 10.37608912 0.00365411 -0.00310159 0.00419894
N 5.45748303 23.31247399 14.93651122 0.00275464 0.00184881 0.00243545
N 5.97038642 28.07187233 16.88782293 0.00344772 0.00606075 0.00172567
N 7.16984188 20.01885376 12.44920649 0.00746465 -0.00113312 -0.00035369
N 4.99492327 22.91371941 10.30716841 0.00161996 0.00224942 -0.00119076
N 4.19280087 25.26815061 15.25807613 0.00094757 0.00190175 -0.00104043
N 7.26572559 20.48949876 16.68252576 -0.00214244 0.00565970 -0.00404207
N 5.93834216 27.98252744 12.28539705 0.00070025 0.00340053 -0.00005307
N 3.92219454 24.60402691 19.52535576 0.00186452 0.00053196 -0.00283845
N 4.81431396 23.23047829 23.95919184 -0.00063801 -0.00371676 0.00555658
N 5.45469076 28.45900759 25.99139779 -0.00300199 0.00803635 0.00364230
N 7.32775357 19.77944670 21.36111969 0.00430277 0.00036636 -0.00361030
N 5.18555367 22.65150472 19.73395490 0.00200098 0.00991555 -0.00478232
N 3.85356905 25.27444177 24.07944935 -0.00198260 0.00535721 0.00463926
N 6.97920699 20.75553796 25.92750636 -0.00249452 -0.00435817 0.00017173
N 5.77527351 27.35822993 21.14688024 0.00372415 -0.00278428 0.00725708
N 7.54884044 5.62520251 0.95169264 0.00091833 0.00304476 -0.00660512
N 8.97711488 4.39701283 5.68472359 0.00028475 0.00055728 -0.00264817
N 9.13516455 9.13738528 7.87527597 0.00183331 -0.00570677 0.00012752
N 10.75418950 0.35579872 3.26288645 0.00138548 -0.00281249 -0.00314492
N 8.78347804 3.77551803 1.52585841 -0.00042031 -0.00738567 0.00110443
N 7.52139306 6.20358625 6.00724651 0.00121538 -0.00204957 -0.00258020
N 10.52205555 1.37837163 7.73498450 0.00301822 -0.00198663 0.00811840
N 9.55226951 8.27553678 2.87119723 0.00433082 -0.00253304 0.00759497
N 7.96411435 5.98306733 10.13962982 -0.00446707 0.00111549 0.00437214
N 9.04854176 4.01845296 14.80946440 0.00195532 0.00085824 -0.00196254
N 9.75119056 8.88514658 17.05661654 0.00244624 -0.00002932 -0.00243188
N 10.57333029 1.01838869 12.57697887 0.00213812 0.00601644 -0.00160105
N 8.92922866 3.87774060 10.32438197 -0.00207768 -0.00111012 -0.00376809
N 7.73871108 5.97455098 14.82791187 0.00231505 -0.00407470 0.00098214
N 10.75586930 1.16553584 16.83626723 -0.00116572 -0.00000763 -0.01162365
N 9.99648828 8.20164428 12.04120449 -0.00559042 0.00069043 -0.00155520
N 7.73643325 5.23922811 19.11569320 -0.00158400 -0.00146511 0.00291815
N 8.73790901 3.97781280 23.87879334 0.00084295 0.00615097 0.00823856
N 9.32880667 9.09116777 25.96595514 0.00632965 0.00846641 0.00335033
N 10.78015799 0.70385163 21.70152176 0.00047556 0.00295543 0.00253556
N 8.73955962 3.21058697 19.71262482 0.00583889 -0.00099344 -0.00032327
N 7.67262404 6.01012694 24.18663907 0.00225135 -0.00222935 0.00162922
N 10.48075816 1.51421534 25.72499379 0.00584191 0.00054352 -0.00142103
N 9.31897016 8.11591675 21.18222744 -0.00010594 0.00122382 0.00196042
N 7.61836212 15.13632326 1.26479315 -0.00272095 0.00050615 -0.00285405
N 8.94380225 13.59388832 5.83182586 -0.00125542 0.00333945 -0.00479913
N 9.38667102 18.64966040 7.82088766 0.00495261 0.00214907 0.00279506
N 10.97959846 10.08502444 3.06635376 0.00183109 -0.00275582 -0.00483404
N 8.93496705 13.21642673 1.58816607 -0.00187029 -0.00431227 0.00273469
N 7.89170498 15.68762795 5.80806626 0.00759460 -0.00024619 -0.00328871
N 10.67432151 10.72246113 8.02293295 -0.00162956 -0.00554258 -0.00461761
N 9.77564048 18.07881932 3.12804628 -0.00532995 -0.00320609 -0.00591770
N 7.66669931 15.19251284 10.71736590 -0.00625487 0.00364039 0.00166800
N 9.11351560 13.61578976 14.87597300 -0.00253272 0.00106836 0.00171792
N 9.60733876 18.69603819 17.08704006 -0.00048176 -0.00070606 -0.00442609
N 11.02547663 10.27933836 12.40889008 -0.00074767 -0.00349864 0.00643052
N 8.85195127 13.23400100 10.52463867 0.00230902 -0.00147340 -0.00131479
N 8.01478680 15.52359808 15.44868556 -0.00361421 0.00322928 0.00033193
N 10.64494686 10.97085169 16.73498275 0.00050240 -0.00407548 -0.00223705
N 9.54347099 18.32296580 12.22317498 -0.00474622 0.00146162 0.00107169
N 7.48843282 14.96497937 19.51573107 -0.00183585 0.00159243 0.00176683
N 9.11773698 13.89011868 24.20601186 -0.00524122 0.00544496 -0.00297399
N 9.16368962 18.64252936 26.05538388 0.00209370 0.00744107 0.00044461
N 10.86287772 9.81593176 21.39087462 -0.00679709 0.00632631 -0.00261944
N 8.78037110 13.07900039 19.80414655 -0.00194629 0.00060557 -0.00435351
N 7.80353277 15.75315049 24.44738061 0.00106252 0.00778908 -0.00001631
N 10.80978099 10.88673817 25.65045094 0.00150115 -0.00261200 0.00154073
N 9.69665131 18.07874755 21.47785191 -0.00604166 -0.00805525 0.00011724
N 7.38325686 24.90470485 1.04483858 0.00488125 0.00675777 -0.00399554
N 8.79217242 23.38591786 6.01139666 -0.00122743 0.00188042 0.00036793
N 9.38600709 28.32643046 8.09558334 -0.00321877 -0.00367316 -0.00018321
N 10.72550460 20.07106681 3.54146654 -0.00378992 -0.00496095 -0.00165252
N 8.79624794 23.13841100 1.34602359 -0.00047315 0.00658632 -0.00021388
N 7.56599800 25.31703487 6.01859354 -0.00559923 0.00247717 -0.00172606
N 10.39566799 20.65499224 7.54070470 -0.00226896 0.01086330 -0.00145000
N 9.28260016 27.47529560 2.90641127 0.00439283 -0.00173962 -0.00005252
N 8.06579172 24.95403555 10.28792773 -0.00745448 0.00006804 0.00542731
N 8.62854287 23.41650397 14.93802939 -0.00594300 0.00374277 -0.00223785
N 9.52128967 28.14195339 16.93415930 -0.00703767 0.00155015 0.00545800
N 10.57382343 20.26442268 12.84484773 0.00749315 -0.00425886 -0.00527813
N 8.78656571 22.74102849 10.56409419 0.00133869 0.00252048 0.00561496
N 7.75236686 25.52138671 14.95005562 -0.00396455 -0.00198203 0.00081355
N 10.51696020 20.77677234 16.69986964 0.00562309 0.00504594 -0.00436881
N 9.72925131 27.79924622 12.30352129 0.00530576 -0.00130451 -0.00544778
N 7.61747277 24.64142477 19.31336747 -0.00403462 0.00121973 0.00372245
N 8.93691151 23.51469170 23.91311831 -0.00449696 0.00480865 0.00097860
N 9.75115256 28.24779128 26.21257845 0.00313496 0.00024745 -0.00138166
N 11.08247901 19.89347236 21.74219709 -0.00264363 -0.00028719 0.00219686
N 9.04256185 22.80615057 19.47476372 0.00270263 -0.00500547 0.00166268
N 7.53146194 25.42830995 23.98671762 -0.00337811 0.00092359 -0.00307086
N 10.81137437 20.38718037 25.95777828 0.00212139 -0.00171083 0.00521032
N 9.66020322 27.51605730 21.40604221 -0.00309430 -0.00366961 -0.00971004
N 11.52840028 5.75753522 1.04322485 0.00283577 -0.00848822 -0.00131598
N 12.68608616 4.04520493 5.87263735 -0.00173825 0.00798662 -0.00168642
N 12.59633827 8.99388961 8.53249631 -0.00307661 -0.00193211 0.00100448
N 14.43104141 0.82419268 3.31156127 0.00024991 0.00779784 0.00025503
N 12.59938423 3.86400726 1.72223159 -0.00112115 0.00440788 0.00087867
N 11.34856771 5.96244907 6.01313207 0.00049083 0.00553447 0.00189523
N 14.15731715 1.33200172 8.03466675 0.00287338 -0.00155902 -0.00405573
N 13.33650613 8.50000260 3.17866533 -0.01000734 -0.00093362 -0.00212039
N 11.93688083 5.66655460 9.96797086 0.00032902 0.00290614 -0.00249630
N 12.87135782 4.16132168 14.83689276 0.00645126 0.00500372 0.00583450
N 12.87979587 9.03428503 16.97575589 0.00444931 -0.00294167 0.00169748
N 14.67282994 0.80596881 12.31320100 0.00179459 0.00043558 -0.00815524
N 12.73674976 3.56448436 10.43918094 0.00252348 -0.00002705 -0.00443281
N 11.65711237 6.04178245 14.88925072 -0.00241563 -0.00703080 0.00105891
N 14.39208406 1.19280858 16.60223729 0.00583465 -0.00139950 -0.00923767
N 13.65016767 8.47156624 12.42429059 -0.00135506 -0.00602233 0.00286506
N 11.47510151 5.36648351 19.26401543 -0.00607373 -0.00481996 -0.00176428
N 12.85151427 3.93044461 23.93321750 -0.00218725 -0.00411901 -0.00108516
N 12.95179245 9.43060948 26.45625685 0.00143276 -0.00168554 0.00288916
N 14.35507762 0.69291234 21.51910793 -0.00194117 0.00204675 -0.00060454
N 12.34843718 3.26450514 19.60516904 0.00684007 -0.00814671 -0.00611333
N 11.21600656 5.74473311 24.23233277 -0.00340139 -0.00625126 0.00641301
N 14.22723466 1.13191286 25.91865738 0.00276339 -0.00015929 0.01036594
N 13.24070802 8.31290582 21.43883215 0.00388254 0.00130047 0.00513561
N 11.43998438 15.27441149 1.32887153 -0.00094135 0.00064167 0.00159909
N 12.16147836 13.39172865 5.90678330 0.00115794 -0.00667967 -0.00030386
N 13.10290565 18.36669969 8.08530540 -0.00349512 -0.00437220 -0.00029816
N 14.43211187 10.46896379 3.86309509 -0.00524596 -0.00083580 -0.00233227
N 12.55639397 13.24408100 1.56108906 -0.00191506 0.00060400 -0.00043316
N 11.73599285 15.69793938 6.15496455 0.00163667 -0.00128676 -0.00068286
N 14.25487642 10.61842035 7.87276784 0.00133987 -0.00164235 0.00621531
N 13.56137702 17.83044772 3.28502708 -0.00250493 0.00164339 -0.00032472
N 11.38835324 15.14277845 10.52762484 -0.00277153 -0.00027994 -0.00352473
N 12.79904367 13.97255102 14.99291002 -0.00018923 -0.00206964 0.00173683
N 13.34872179 18.78795206 17.19869572 -0.00251303 0.00443672 -0.00739517
N 14.97710647 10.35409847 12.80402073 -0.00414971 0.00221426 -0.00055025
N 12.39516721 13.11633542 10.74242819 0.00043774 0.00267089 0.00097449
N 11.60367541 15.98138291 15.22576508 -0.00211635 0.00634318 0.00341847
N 14.45842654 10.81398814 16.93203546 0.00106284 -0.00033729 0.00584497
N 12.93411369 18.24050369 12.13679874 0.00520979 0.00119064 -0.00024380
N 11.12647942 15.16764563 19.38591687 0.00115953 0.00208218 0.00393507
N 12.71285627 13.65674339 23.97559807 0.00009680 0.00862181 0.00141117
N 13.22084209 18.26809788 26.44383406 0.00205019 -0.00314753 0.00243454
N 14.63030306 10.03166809 22.10157004 -0.00065311 -0.00417284 -0.00169711
N 12.53488095 13.30885814 19.80707862 0.00631176 0.00009696 -0.00023312
N 11.60788877 15.62792731 24.26456587 -0.00134197 0.00007376 -0.00344928
N 14.55175600 11.08824529 26.11171324 -0.00049204 -0.00110331 -0.00358069
N 13.41892179 17.67862146 21.33967213 -0.00099511 0.00111225 0.00327372
N 11.17488361 24.51535916 1.00970246 0.00204665 -0.00070199 0.00105960
N 12.47582355 23.24775330 5.70784704 -0.00209872 0.00052207 0.00122524
N 13.23677150 28.05558997 8.08342670 -0.00485169 -0.00826978 0.00250971
N 14.44330960 19.90197773 3.55174787 0.00852363 0.00033525 0.00358486
N 12.59861762 22.78310858 1.50960673 0.00181318 -0.00190203 0.00195549
N 11.36921438 25.15327252 6.20738680 -0.00323638 0.00338831 0.00831847
N 14.24917178 20.30862589 7.59733006 -0.00387187 -0.00601370 0.00216416
N 13.06111045 27.82288566 3.12092072 -0.00528395 -0.00072070 -0.00847223
N 11.15521960 24.75521184 10.46149399 -0.00040485 0.00165031 -0.00343087
N 12.87854299 23.28178692 14.70972796 0.00192608 -0.00094808 -0.00621083
N 13.52442567 28.04245410 17.06517616 -0.00006284 0.00089039 -0.00901867
N 14.39611187 20.05910821 12.14768423 0.00158449 0.00968050 -0.00947646
N 12.37554006 22.73391843 10.51732504 -0.00324347 -0.00164068 0.00460825
N 11.52411755 25.11295658 15.15020629 -0.00237449 0.00193384 0.00130672
N 14.46091361 20.82483137 17.07044197 0.00414114 0.00550107 0.00132608
N 13.41181706 27.83602307 12.21741764 -0.00054150 0.00358602 -0.00123122
N 11.18548187 24.79503322 19.15370917 0.00512249 0.00533774 -0.00024860
N 12.52859276 23.38293252 23.96272682 -0.00531936 0.00355706 0.00543247
N 12.89970096 28.20035192 26.28474698 -0.00161229 0.00191029 0.00270955
N 14.03471245 19.88097113 21.87694447 0.00302813 -0.00023117 -0.00664667
N 12.52635053 23.00092870 19.81111963 0.00109321 0.00531164 -0.00679270
N 11.31039931 25.31417805 24.21630463 -0.00391919 0.00417945 0.00654486
N 14.37082116 20.17123564 25.77083861 -0.00281204 -0.00094401 -0.00127171
N 13.15105608 27.62862349 21.02724149 0.00343353 0.00064593 0.00506429
N 14.83085363 5.56507645 1.32700866 -0.00115724 -0.00073075 -0.00650379
N 16.41145437 4.00674424 6.02897627 0.01329429 -0.00403741 -0.00868598
N 16.78670568 8.85714928 7.96620575 -0.00424088 0.00056721 -0.00343900
N 18.20085095 0.57901752 3.11654476 -0.00487443 -0.00463242 -0.00627511
N 16.11014946 3.63099432 1.39269358 -0.00220174 -0.00080071 -0.00340564
N 15.04029493 5.87195914 6.27812237 -0.00039943 -0.00133797 0.00380118
N 17.90719081 0.97386647 7.83465169 -0.00004678 -0.00205581 0.00408647
N 16.76569792 8.49670976 3.57894672 0.00038089 0.00044122 -0.00321181
N 15.15858825 5.25040341 10.29491776 -0.00030871 0.00012178 0.01204428
N 16.67696062 4.04002624 14.52127856 -0.00385116 -0.00010718 -0.00076647
N 16.90631813 8.85065140 16.88212776 -0.00999030 -0.00072667 -0.00492617
N 18.11517056 0.75771776 12.35232552 -0.00055722 0.00294470 0.00716620
N 16.79340790 3.79532767 10.82064563 -0.00323198 0.00305427 0.00459884
N 15.44188496 5.84460383 15.33079651 0.00447849 -0.00650467 0.00130071
N 18.54606996 1.19537055 16.32046028 0.00580335 0.00762246 -0.00118095
N 17.36857166 8.19366353 12.18768655 -0.00030949 0.00559918 0.00649684
N 14.92648633 5.36735468 19.42100540 -0.00418927 0.00209277 0.00627685
N 16.15994196 4.07319846 24.07909140 0.00070750 0.00348326 0.00238356
N 16.94675785 8.75839430 26.45285253 0.00365092 -0.00255408 -0.00118522
N 18.05526481 0.66835827 21.38729286 0.00084095 -0.00325107 -0.00226135
N 16.42577848 3.60077568 19.53363904 -0.00071667 0.00340879 -0.00318233
N 14.99476621 6.18045845 24.02992748 0.00578897 0.00007011 0.00100019
N 18.09231663 1.22796895 25.94709546 -0.00095551 0.00301633 -0.00106181
N 16.98595906 8.29906125 21.32463413 -0.00012327 0.00022730 -0.00173259
N 14.85968460 14.90256220 1.36989114 -0.00036039 0.00043678 0.00120946
N 16.59634824 14.06109095 6.13108562 0.00609789 -0.00178146 -0.00334416
N 16.60169303 18.61428269 7.77609282 -0.00274028 -0.00535130 -0.00186263
N 18.36824437 10.21677253 3.46153156 -0.00579631 -0.00138642 0.00574898
N 16.18933748 13.01128648 1.65388347 -0.00487712 -0.00617526 -0.00365531
N 14.97835285 15.69469736 6.13483307 -0.00128764 -0.00424765 0.00186433
N 18.09980341 10.66119350 7.58412045 0.00192979 0.00177177 -0.00197254
N 17.13099225 18.24252999 2.82420168 -0.00161102 0.00432221 -0.00196179
N 14.81620339 15.04076663 10.19799819 -0.00164323 0.00255745 0.00121550
N 16.27439121 13.75532588 14.67773566 -0.00175080 -0.00131831 0.00244854
N 16.70016542 18.61463867 17.16332887 0.00201077 -0.00584254 -0.00063316
N 18.37923607 10.31162204 12.17655154 0.00424312 0.00049215 -0.00482875
N 16.23905226 13.18123582 10.33409809 -0.00525276 -0.00527172 -0.00404010
N 15.15866504 15.82077264 15.04895063 -0.00457481 0.00288736 0.00120762
N 18.18315845 10.76331499 16.77911780 -0.00492415 -0.00440327 0.00181166
N 16.79136633 18.08466427 12.23432538 -0.00172936 -0.00455284 -0.00425279
N 14.70693225 14.96957054 19.27706733 -0.00351514 -0.00075759 -0.00432545
N 16.14361058 13.59931256 24.04980068 -0.00505731 0.00494013 0.00413402
N 16.81577544 18.80865280 26.29997371 0.00034428 0.00350289 0.00987177
N 17.93508030 10.34809219 21.80133984 -0.00095127 -0.00038482 0.00229951
N 16.04494729 13.28477654 20.03662470 -0.00240372 -0.00367507 -0.00039878
N 14.98778908 15.54263051 24.47901952 -0.00005339 0.00096005 -0.00652205
N 18.13419742 10.68166492 25.95078420 -0.00539372 -0.00627916 -0.00050191
N 17.12236079 17.77107945 21.43839298 -0.00075033 -0.00372672 -0.00355100
N 14.94183949 24.63868281 0.89485737 0.00006243 0.00120840 -0.00359727
N 15.69331770 22.95927704 5.42457019 0.00417940 -0.00209068 0.01027638
N 16.52142593 28.07182320 7.87117575 0.00038874 0.00573344 -0.00132729
N 18.62165530 19.81257200 3.40779942 -0.00383101 -0.00147931 0.00085212
N 16.17217012 22.68030990 1.40177867 -0.00092908 -0.00395757 -0.00547929
N 14.99285853 25.13505517 5.82093362 0.00082842 0.00535749 -0.00129156
N 18.12626366 20.40761211 7.57279387 0.00190952 0.00086238 -0.00139396
N 16.67261830 27.67271163 2.98495515 -0.00317251 -0.00164727 0.00001963
N 14.91946989 24.68173572 10.27272153 0.00220393 -0.00117383 0.00272951
N 16.67505432 23.23547819 14.41889045 0.00196050 0.00254109 -0.00083191
N 16.94152072 28.38991342 16.55825608 0.00512160 0.00502856 0.00157128
N 18.33708774 19.87136253 12.67189927 -0.00318338 -0.00436780 0.00072893
N 16.09006099 22.74925898 10.43186180 0.00315154 -0.00393697 -0.00409611
N 15.43641799 25.10086574 15.23183783 0.00167460 -0.00083293 -0.00561600
N 17.97275876 20.48100151 16.55405536 0.00312176 -0.00075005 -0.00273560
N 17.00600133 27.64131282 12.28379032 0.00093933 0.00124773 0.00101476
N 14.91082774 24.71611744 19.45250506 -0.00290469 0.00148130 -0.00150812
N 16.12015836 23.03232792 23.47369127 -0.00306061 0.00084580 -0.00276168
N 17.18263875 28.01347574 25.98360581 -0.00716636 -0.00272356 0.00191029
N 18.29525790 19.79635150 21.55191569 -0.00168640 0.00442827 0.00033972
N 16.12050127 22.67892562 19.57675658 -0.00334544 0.00812547 0.00308134
N 14.91317267 24.98966799 23.79874259 -0.00194198 0.01098520 -0.00208121
N 17.91629620 20.77989389 25.90202718 0.00402576 0.00466406 0.00045307
N 16.93823394 27.55339180 20.80772044 -0.00110759 0.00099437 0.00739489
N 18.49127390 5.47337318 1.26191353 0.00282172 -0.00395053 0.00506597
N 20.42044894 4.22535588 5.58702221 0.00482342 0.00077499 -0.00450795
N 20.51065473 8.73187752 8.09027961 0.00316545 0.00687623 0.00007528
N 21.72360084 0.55487140 3.12906215 0.00104620 -0.00425888 -0.00565529
N 19.92968778 3.50171380 1.39024019 -0.00467442 -0.00476750 -0.00596442
N 18.91447729 5.81584077 6.29099637 -0.00333468 -0.00169543 -0.00267614
N 21.57495254 1.07884347 7.25664149 0.00190988 0.00207348 -0.00133058
N 20.87601447 8.41727134 3.09662914 0.00229020 -0.00064858 -0.00552508
N 18.96118280 5.40776242 9.69807604 0.00028050 -0.00152574 -0.00105257
N 20.43589472 4.15451885 14.67608477 -0.00209588 0.00678465 0.00338557
N 20.71599010 8.75517286 17.01834045 -0.00193422 0.00925561 0.00267353
N 22.11751623 0.77712532 12.46498463 -0.00061083 0.00337103 -0.00137903
N 20.18783246 3.49528301 9.99934417 0.00371033 -0.00280060 0.00280354
N 18.96536358 6.02321062 15.02286623 -0.00078981 0.00029241 0.00034532
N 21.97723713 1.15406449 16.52577918 -0.00148324 -0.00124002 -0.00068648
N 20.92874239 8.61675525 12.24391358 -0.00067834 0.00186686 0.00385923
N 18.98197709 5.74993236 19.26307820 -0.00394348 0.00044171 -0.00099417
N 19.82465139 4.03456665 23.80081480 0.00032357 -0.00529577 -0.00416938
N 20.31858410 8.82731205 26.36017964 0.00380122 0.00099144 0.00488877
N 22.02406861 0.26733353 21.48349932 0.00021157 0.00304800 -0.00084847
N 19.82003790 3.50223029 19.59592217 0.00297647 -0.00695289 -0.00347074
N 18.66498768 6.03941912 24.16990351 -0.00010057 -0.00037715 -0.00200028
N 21.47945662 1.00049132 25.72527462 0.00208599 -0.00076853 0.00309289
N 20.77940291 8.56601174 21.41157437 0.00805393 -0.00056485 -0.00073916
N 18.71707961 14.89348318 1.12883651 0.00180189 0.00194960 -0.00067251
N 20.28119443 13.84287038 5.67211165 0.00361989 -0.00441043 -0.00206735
N 20.67857222 18.67586645 8.16335412 -0.00306397 0.00226110 -0.00410377
N 22.07353399 10.38742341 3.25849499 0.00281820 -0.00085478 -0.00115591
N 20.14889072 13.14758202 1.60059958 -0.00251299 0.00636475 -0.00465345
N 18.80632870 15.67781416 5.86315017 -0.00053950 0.00211597 0.00441288
N 21.60540338 10.78899337 7.49098011 0.00183027 -0.00373338 0.00785099
N 20.86767734 17.79823841 2.84900259 -0.00108879 -0.00158499 -0.00403440
N 18.41448147 15.15151136 10.25906119 -0.00496450 0.00724966 -0.00614839
N 20.00472347 13.98073133 14.77438108 0.01069466 -0.00501945 -0.00370590
N 20.50690697 18.38391804 16.69374975 0.00741022 0.00243111 0.00960806
N 21.86245665 10.74035675 12.41411871 0.00160058 0.00654432 0.00204997
N 19.95081370 13.42698295 10.61242357 -0.00156626 -0.00100379 0.00218530
N 18.51111652 15.76175717 15.29574402 0.00603281 -0.00544435 -0.00266067
N 21.75981262 10.83990969 16.90183598 -0.00749481 -0.00056896 0.00311919
N 20.53162502 17.89080840 12.25306813 0.00371552 -0.00115680 -0.00189836
N 18.53630409 14.96763920 19.37713265 0.00002391 -0.00261188 -0.00587433
N 19.81785220 13.91187712 23.90309041 0.00037208 0.00154742 -0.00365642
N 20.92694215 18.41020042 26.10505790 -0.00252354 -0.00033013 -0.00112034
N 21.76975685 10.58771750 21.72919501 -0.00350889 -0.00492754 0.00132609
N 19.85202834 13.16412302 19.72426046 -0.00008413 0.00150671 0.00181048
N 18.46207496 15.59280610 24.58733507 -0.00226405 0.00118642 0.00107287
N 21.40531124 10.81347958 25.69253415 0.00146739 -0.01133043 -0.00011581
N 20.66564577 17.64974692 21.33845006 -0.00796789 -0.00044387 0.00235782
N 18.67434216 24.70048505 1.37201302 0.00074964 -0.00376357 -0.00687745
N 20.36608882 23.48649818 5.65992699 0.00041106 -0.00377486 0.00298954
N 20.81434986 27.85858832 7.85838894 0.00669936 0.00284215 -0.00485665
N 22.07073478 19.69272397 3.12645807 -0.01014641 -0.00081174 0.00225676
N 19.87775765 22.75928988 1.38964340 -0.00190435 -0.00146804 0.00627911