1728
Time=62000.00000005 pbc="T T T" Lattice="22.10026730 0.00000000 0.00000000 0.00000000 29.14344202 0.00000000 0.00000000 0.00000000 27.13907645" energy=-10389.14124906 virial="6.83184160 19.94975134 -13.62674720 19.94975134 -7.63059439 -20.97810971 -13.62674720 -20.97810971 -4.07326593" stress="0.00280187 0.00121946 -0.00088142 0.00121946 0.00213704 -0.00130652 -0.00088142 -0.00130652 0.00256735" Properties=species:S:1:pos:R:3:vel:R:3
N 0.67519491 5.74098846 1.18073695 0.00129507 0.00381826 0.00089850
N 1.59573377 3.82886785 5.72241860 0.00184019 0.00923387 -0.00218832
N 2.36335565 9.16564792 8.18385856 0.00032466 -0.00091902 -0.00433506
N 3.38641748 0.47184843 3.13795717 0.00911141 -0.00054227 -0.00917029
N 1.54936575 3.59279305 1.44776947 0.00075088 0.00277663 0.00004655
N 0.93308456 6.10424744 6.19639203 0.00368799 0.00672741 -0.00077199
N 3.14771293 1.14656753 7.62761400 0.00151341 -0.00561226 -0.00454079
N 2.36221721 8.86201151 3.30228949 0.00214830 0.00277631 0.00046947
N 0.15084246 5.50813117 10.44044077 -0.00130315 0.00042016 -0.00158371
N 1.90988731 4.29774573 14.99084467 0.00044972 -0.00022450 -0.00097795
N 1.81838168 8.91993377 17.09906628 0.00057498 -0.00301598 0.00191713
N 3.27687021 0.51787335 12.50138564 0.00310348 -0.00280874 -0.00071058
N 1.19075586 3.45255693 10.66437130 -0.00197947 0.00236898 -0.00049751
N 0.17915586 5.82743635 15.34036057 -0.00425149 0.00225183 -0.00095809
N 3.29938497 1.33951268 16.79933664 0.00530361 0.00036807 0.00615309
N 2.02932447 8.27424341 12.24875796 0.00013575 -0.00302172 -0.00397004
N 0.05183164 5.50943232 19.22673035 0.00028536 0.00530598 -0.00436230
N 1.81983497 4.37881248 24.00790759 0.00334477 -0.00274489 0.00162095
N 2.10396396 9.07791492 26.05821283 0.00026295 -0.00053006 0.00291266
N 3.26846413 0.70733356 21.50401971 -0.00525514 -0.00771974 -0.00427193
N 1.24557647 3.63027832 19.88085608 -0.00473227 0.00560831 0.00046999
N 0.36054920 6.08085504 24.18626747 -0.00628834 -0.00324446 -0.00039533
N 3.62181000 1.32387422 25.49562343 -0.00642968 -0.00485093 0.00230276
N 2.04189563 8.34198842 21.05259398 -0.00726830 0.00170612 0.00210504
N 0.53120401 15.29691403 1.09695585 0.00130905 -0.00116600 -0.00114151
N 1.50924820 14.01181825 5.55705258 0.00157855 0.00183126 0.00988496
N 2.11210895 18.78890407 8.16443430 -0.00051653 0.00020990 -0.00782726
N 3.65987481 10.79830414 3.25053726 0.00237540 -0.00038500 -0.00513177
N 1.35224569 13.13144949 1.34989343 -0.00148047 -0.00881897 0.00476627
N 0.58414074 16.15878864 5.92775707 -0.00515107 -0.00062553 -0.00110588
N 3.50757893 11.04539897 7.51736281 -0.00269150 0.00735786 -0.00217320
N 2.37528265 18.21427357 3.19198979 0.00226710 -0.00227484 -0.00351837
N 0.14314840 15.44591719 10.26065435 -0.00583267 0.00271600 -0.00567474
N 1.53330394 13.76370024 14.59774954 0.00514630 0.00684915 0.00473698
N 1.90038660 18.48685920 16.89360741 -0.00511243 0.00008737 -0.00340299
N 2.72662227 10.46892974 12.61232378 0.00500159 0.00614867 -0.00237043
N 1.13478894 13.40175638 10.41319700 -0.00100503 -0.00547877 -0.00102381
N 0.59289320 15.81004465 14.99537738 -0.00416389 0.00006572 -0.00398849
N 3.26325691 10.72328414 16.51331313 0.00368306 0.00038718 -0.00022975
N 2.23446974 18.16325424 12.03396606 0.00109792 -0.00253017 0.00268870
N 0.03119297 15.16218170 19.19510944 -0.00020952 -0.00296130 -0.00491803
N 1.83556109 14.10587386 23.66876408 0.00010492 -0.00154373 -0.00236161
N 2.04889579 18.84686772 26.03304579 0.00794328 0.00492323 -0.00337880
N 3.27298414 10.29258136 21.37508637 0.00047344 -0.00074301 0.00768570
N 1.35037432 13.30342266 19.50392710 -0.00208681 -0.00362842 0.00418835
N 0.46180350 15.96320422 23.83527223 0.00760188 -0.00208147 -0.00702238
N 3.47840588 10.84310804 25.70391561 0.00179046 0.00151104 -0.00158918
N 2.20117956 18.23525096 21.10681072 -0.00002086 0.00514162 -0.00315863
N 0.20549162 25.02153730 1.09961966 -0.00137560 -0.00307955 0.00027049
N 1.56711992 23.36937870 5.81527103 0.00189797 -0.00305601 0.00594207
N 2.13570336 28.22961513 7.74498811 -0.00081014 0.00150783 -0.00327447
N 3.66124373 19.98734794 3.59360987 -0.00566980 -0.00472513 -0.00040077
N 1.66538224 23.16532234 1.36267040 0.00674163 0.00095086 0.00067799
N 0.51058220 25.40427687 5.87814659 -0.00735689 0.00285707 -0.00601647
N 3.37084263 20.65768421 7.73670846 -0.00015158 -0.00365618 0.00167286
N 2.42472922 27.53146331 2.82450242 -0.00089943 -0.00517116 0.00606308
N 0.19539293 24.83593039 10.21127713 0.00400967 -0.00113999 0.00200186
N 1.39656116 23.69346572 14.68165944 -0.00398687 0.00583653 -0.00077797
N 2.19912034 28.47110853 16.90400425 -0.00336368 -0.00158049 0.00731440
N 3.40588095 20.11918945 12.37251590 0.00427911 -0.00172682 0.00218431
N 1.32368165 22.89231231 10.78959582 0.00410207 -0.00160208 -0.00292993
N 0.35453481 25.73039980 15.11250771 0.00165467 0.00794611 -0.00060790
N 3.32271633 20.36186710 16.64532731 -0.00273705 0.00990655 -0.00232921
N 1.88506022 27.84462422 12.15409501 -0.00643457 -0.00192967 -0.00270434
N 0.13143851 24.61428385 19.47043700 -0.00590858 0.00347234 0.00127157
N 1.67174352 23.61568132 23.90001970 0.00090888 -0.00307252 0.00207811
N 2.08537466 28.80342356 25.51656401 0.00133639 -0.00598155 0.00144998
N 3.56104251 20.08450676 21.42808347 0.00106682 -0.00107689 -0.00323595
N 1.70365398 22.96944126 19.53616884 0.00542294 0.00162894 -0.00033680
N 0.41772582 25.61379903 24.05279905 -0.00686436 -0.00574832 0.00367136
N 3.58743532 20.67527599 25.82224540 -0.00264126 0.00369161 0.00126653
N 2.10815135 27.94656611 21.14642265 -0.00232006 0.00614613 -0.00295656
N 4.11497064 5.65688580 0.90201012 0.00474019 -0.00484447 0.01112934
N 5.46653906 3.93111874 5.23131033 0.00122856 0.00353250 0.00049687
N 6.01292515 8.79803426 7.72529319 -0.00507653 0.00099811 0.00635247
N 6.40762099 0.65214021 3.31353568 -0.00295169 0.00149874 -0.00133131
N 4.93612206 3.51864903 1.45020798 0.00812832 0.00198198 -0.00000341
N 4.21593504 5.83220299 5.60831599 0.00118584 -0.00241528 -0.00096414
N 6.88566029 1.35947077 7.30096847 0.00234683 -0.00071640 -0.00099647
N 5.71031303 8.59957318 3.27032329 -0.00295002 0.00325641 -0.00740657
N 3.94305372 5.20694277 9.61412548 0.00167473 -0.00656634 -0.00033035
N 5.35306292 4.21916784 14.54669709 -0.00366055 -0.00213042 0.00132102
N 5.63380821 9.05358573 16.93301112 -0.00161673 -0.00031748 -0.00757895
N 7.21831832 0.47711540 12.23284441 -0.00004632 -0.00242158 0.00416423
N 5.26680137 3.48514882 10.37325846 -0.00081721 0.00234068 0.00175768
N 4.20695048 6.13038674 15.00117079 -0.00438071 0.00517126 -0.00150059
N 6.68661709 1.27944686 16.40768338 0.00113288 -0.00506786 0.00667754
N 5.75059475 8.68204028 12.11379729 0.00741815 0.00102749 -0.00217037
N 3.49888500 5.60144488 18.93907300 -0.00285673 0.00255413 0.00323420
N 5.35394250 4.11062472 23.70678715 -0.00182894 -0.00719808 0.00408135
N 5.69339464 9.01330082 25.93780932 -0.00384353 -0.00028951 -0.00568387
N 6.96229404 0.87424559 21.41890353 -0.00294057 0.00295271 -0.00204191
N 5.08036900 4.00455071 19.68870223 0.00168558 0.00084635 0.00122944
N 4.27729292 6.19297811 24.09122571 -0.00588463 0.00195617 0.00217307
N 7.35416568 0.99088742 25.46909458 -0.00718713 -0.00113168 0.00143092
N 5.59586058 8.42283889 20.97382428 -0.00286955 -0.00262081 -0.00192437
N 3.91120187 14.94168931 1.14403778 -0.00420977 0.00410535 0.00663956
N 5.21566202 13.80948637 5.53208833 0.00155802 0.00135820 -0.00341371
N 5.75504866 18.75712460 7.64623074 0.00103423 -0.00248565 0.00196705
N 6.76794238 10.72968334 3.25027117 0.00979276 0.00110704 -0.00340004
N 5.26222898 13.05175611 1.01587602 -0.00155644 -0.00031495 0.00067345
N 3.96821980 15.60089943 6.08979581 -0.00635729 0.00203809 0.00436395
N 6.69904150 10.93388060 7.09161706 -0.00105544 0.00054464 -0.00122096
N 5.77050195 18.10782931 3.08718804 -0.00110982 -0.00274339 0.00120804
N 3.71598728 15.33804123 10.20291784 0.00077673 0.01104864 0.00193027
N 5.16394991 13.92769744 14.60676556 0.00093263 -0.00113116 0.00014187
N 5.62980395 18.62120574 17.25162888 -0.00135256 0.00413090 0.00540444
N 7.12033514 10.49842216 12.35837812 0.00083273 0.00258957 -0.00833936
N 5.07394958 13.46674592 10.58131247 -0.00453481 0.00203275 0.01257137
N 3.99627556 15.88054051 15.15072546 -0.00162160 -0.00066627 -0.00229354
N 7.01698862 10.87231148 16.47245564 -0.00040089 -0.00016001 -0.00215197
N 5.92879536 18.02334902 12.24098926 -0.00277203 0.00270951 0.00296593
N 3.63331282 15.17781515 19.28028563 0.00087462 -0.00404323 0.00752317
N 5.62468914 14.15344879 23.84789077 0.00071655 0.00236661 0.00206259
N 6.01143078 18.80051925 25.93769132 -0.00861087 -0.00258002 -0.00187424
N 6.71587531 10.36861859 21.50281975 0.00410351 0.00121865 -0.00688989
N 4.95985694 13.27016044 19.59261559 0.00464328 0.00165743 0.00357593
N 4.17018625 15.91973282 24.14533217 0.00341415 -0.00007710 -0.00535757
N 6.85082185 10.94915368 25.37454794 -0.00336181 0.00277932 -0.00435324
N 5.84743176 18.19363153 20.95821064 0.00157853 -0.00520686 -0.00019054
N 4.11321598 24.64502303 0.91053340 0.00339375 0.00302432 0.00570725
N 5.47504417 23.37826376 4.97995687 -0.00491657 -0.00073451 0.00522986
N 5.62527943 28.65800081 7.73446946 0.00837221 0.00193078 -0.00113845
N 7.21826398 19.97999474 3.27829888 0.00322722 0.00384822 -0.00071915
N 5.47905335 22.94669330 1.32995172 -0.00305077 -0.00182737 0.00318897
N 4.44415514 25.27096448 5.86128528 -0.00328445 -0.00168208 0.00317533
N 6.92494242 20.78894816 7.46032062 0.00384590 0.00262630 -0.00260601
N 5.74442652 27.65271349 3.15886313 -0.00262340 -0.00507906 -0.00521597
N 3.60158632 24.75280252 10.03410642 0.00229506 -0.00569610 0.00343255
N 4.98024114 23.52576848 14.69650189 -0.00151118 0.00098663 -0.00550319
N 5.42758219 28.45674727 16.91495279 -0.00336110 0.00119941 -0.00214881
N 7.19771236 19.92297110 12.59032228 0.00107605 -0.00667359 -0.00457808
N 5.10593245 23.02314398 10.34208813 0.00008901 -0.00193467 0.00422511
N 3.75359140 25.40216992 15.15728428 0.00031293 -0.00144693 0.00361647
N 6.60078838 20.67893338 16.74070194 -0.00086063 -0.00069352 0.00011336
N 5.93276730 27.69847889 12.29034734 0.00096645 0.00489013 -0.00096074
N 4.03013629 24.98164421 19.10717391 0.00502690 -0.00011712 0.00183590
N 5.46351985 23.81497256 23.50518871 0.00041543 0.00078366 0.00035314
N 5.86736948 28.39532028 26.09503639 -0.00175427 -0.00477584 0.00672303
N 7.24995741 19.92489695 21.28509619 0.00264235 0.00855712 0.00779636
N 5.06478828 23.00971986 19.54699885 0.00480342 -0.00557172 0.00171807
N 4.04535097 25.58459052 23.86509081 -0.00443223 -0.00037943 -0.00043017
N 7.29892476 20.77724362 25.79557185 -0.00009273 -0.00469343 0.00365043
N 5.80289586 28.00164986 21.29243852 -0.00733365 0.00178088 -0.00555296
N 7.65970351 5.06522486 0.99160528 0.00247627 0.00152381 0.00188213
N 9.22522516 4.07535481 5.40146620 -0.00063458 0.00359596 -0.00072109
N 9.35386683 9.04275003 7.29658585 0.00012625 -0.00740778 0.00048178
N 10.26533175 0.99141937 3.54678189 0.00457407 -0.00198049 0.00311427
N 8.93434026 3.06750498 1.10615730 0.00399498 -0.00279078 0.00147367
N 7.94508660 5.90460670 6.16466125 -0.00396216 0.00529766 0.00039262
N 10.55169541 0.86665622 7.31177012 -0.00367916 0.00318762 -0.00676539
N 9.72033714 8.40577918 3.22034620 0.00509794 -0.00113714 0.00319611
N 7.67030864 5.58198954 9.97519841 -0.00554051 0.00131061 0.01131517
N 8.89462079 4.19462129 14.49408822 -0.00693470 0.00325541 0.00387471
N 9.29930163 9.18782012 16.77305401 0.00314946 -0.00064760 -0.00243119
N 10.53410408 0.64497516 12.64754283 -0.00588074 -0.00481906 -0.00169218
N 8.54460130 3.56926428 10.51950011 0.00397061 -0.00025318 0.00726751
N 7.60836845 5.92542804 15.13989248 0.00095753 0.00412388 -0.00373169
N 10.43965238 1.33195600 16.64413395 0.00054815 -0.00626968 -0.00105700
N 9.62501613 8.24445922 12.12315809 0.00577631 -0.00027272 -0.00528993
N 7.37115485 5.56408365 18.98179597 0.00452381 -0.00390832 -0.00194549
N 9.13928482 4.17212234 23.90190032 0.00435633 -0.00360149 -0.00247523
N 9.48805578 9.04951862 25.87991387 -0.00439587 -0.00499874 -0.00129767
N 10.85391894 0.62815403 21.54044001 0.00208386 -0.00698658 -0.00118673
N 8.42001515 3.61634675 19.55822857 0.00168500 0.00103686 0.00339406
N 8.19324857 6.25674222 24.08295361 -0.00081412 0.00230231 -0.00727273
N 10.82943928 1.19465207 25.90697073 -0.00726162 0.00103889 -0.00069869
N 9.34923732 8.08305628 21.04910255 0.00035732 -0.00159577 -0.00297885
N 7.48711372 15.41023829 0.85446489 -0.00333050 0.00560003 0.00007810
N 9.12923093 14.08308216 5.80590407 -0.00189051 -0.00244182 0.00045247
N 9.64521261 18.62623625 8.12859080 0.00358081 0.00512001 -0.00487020
N 10.70853769 10.43198592 3.26027908 -0.00010576 0.00108027 0.00464855
N 8.87716075 13.56646574 1.06084479 -0.00080250 -0.00348154 -0.00394822
N 7.68928633 15.90139648 5.89222893 0.00374108 0.00200262 0.00092550
N 10.94017629 10.79131642 7.55184682 -0.00268693 -0.00494398 -0.00107846
N 9.58632146 18.33785712 3.30345289 -0.00210312 0.00560187 -0.00119001
N 7.85216120 15.01966448 10.28468542 -0.00105065 0.00249596 0.00435061
N 8.91448787 13.88036451 14.02863669 0.00336041 -0.00108644 -0.00277210
N 9.27536825 18.95390365 17.13335354 -0.00447571 -0.00060111 -0.00081177
N 10.98375817 10.15094506 12.15193502 0.00315676 0.00203942 -0.00205124
N 9.08878236 13.02825408 10.16525647 -0.00008323 -0.00357997 0.00020210
N 7.68625738 15.71172781 14.57119984 0.00166073 0.00104607 -0.00104107
N 10.46622027 11.13427472 16.29614736 -0.00553757 0.00270452 -0.00620540
N 9.93764169 18.50997476 12.51458552 -0.00237135 0.00018919 0.00434716
N 7.48988886 15.00463473 19.24472520 -0.00303366 -0.00635321 -0.00060442
N 8.71459070 13.95647160 23.21826263 -0.00523405 0.00428439 0.00383464
N 9.45621334 18.82106060 26.21429183 0.00176529 0.00293132 0.00059931
N 10.52282203 10.11604532 21.25862811 -0.00132283 -0.00143669 0.00324616
N 8.73034419 13.07738274 19.29166247 0.00349973 0.00172135 -0.00233145
N 8.03448928 15.98395675 24.06597246 -0.00351091 -0.00518126 0.00513964
N 10.19851297 11.21701844 25.49922530 -0.00252717 -0.00104415 -0.00201079
N 9.66448462 18.33829761 21.17989282 -0.00120401 0.00008788 0.00180019
N 7.81214807 24.83300207 1.25844825 -0.00375558 -0.00197894 0.00242810
N 9.00958590 23.78595770 5.89906794 0.00053524 0.00214729 0.00055906
N 9.56957029 28.19292613 8.42546828 -0.00322245 0.00423076 0.00675288
N 10.91606618 20.19502218 3.46113398 0.00002211 -0.00174253 0.00529981
N 9.17805060 22.95121779 1.59729573 0.00313132 -0.00566323 -0.00507667
N 7.47271197 25.52556241 6.05624043 -0.00305421 -0.00238673 0.00460960
N 10.49531821 20.81767147 7.82918075 0.00001091 0.00263532 -0.00099953
N 9.36518491 28.00444123 3.11677232 -0.00074675 -0.00422779 0.00354428
N 7.58781011 24.66580205 10.23464236 -0.00082971 -0.00374203 -0.00527863
N 8.65807363 23.54129145 14.86518479 -0.00011744 -0.00595645 -0.00113858
N 9.15380322 28.60360724 16.84491984 0.00137523 0.00296504 -0.00349338
N 11.21134566 20.40117788 13.03663875 -0.00717154 -0.00502062 0.00117783
N 9.08195770 23.01089587 10.81436495 -0.00140128 0.00247906 -0.00024206
N 7.50790940 25.56647432 15.21245978 -0.00022764 -0.00151007 0.00130264
N 10.60935809 20.84716393 16.89535100 -0.00628913 0.00224443 0.00440759
N 9.67176820 27.59634014 12.18983416 -0.00264163 0.00221465 -0.00080084
N 7.85772368 25.24387651 19.21929195 -0.00183499 0.00443099 -0.00028903
N 9.09028030 23.82197225 23.87007586 -0.00060158 -0.00005924 -0.00092205
N 9.58793208 28.48670206 26.02345314 -0.00554543 -0.00683011 -0.00079953
N 10.77649875 20.22583474 21.74154532 -0.00448953 -0.00469637 0.00100128
N 8.76067331 23.14781123 19.56086787 -0.00526197 0.00239739 -0.00287158
N 7.90324255 25.73096052 24.20423236 -0.00075931 0.01094100 0.00832257
N 10.58544587 20.84414018 25.73128743 -0.00055587 -0.00275896 -0.00564390
N 9.46887740 27.99722615 21.40347441 0.00104454 0.00408417 -0.00024161
N 11.53914395 5.57179817 1.28898495 0.00074572 -0.00144527 0.00680463
N 12.50589449 3.75313259 5.67846142 -0.00251893 0.00002171 0.00140234
N 13.32639756 9.03975485 8.00596574 0.00064620 0.00161228 0.00228623
N 14.28718067 0.61452852 3.18782556 0.00125126 0.00386347 -0.00018902
N 12.56086941 3.49414608 1.30796689 -0.00247348 -0.00175089 -0.00445535
N 11.44592323 5.89949244 5.53170808 -0.00054770 0.00073783 -0.00535490
N 14.37417248 1.14278433 7.40114549 0.00040323 -0.00129446 -0.00474830
N 13.20847414 8.80886999 3.08127208 -0.00071491 -0.00685722 0.00381907
N 11.26862755 5.22556647 10.05248437 0.00085932 -0.00578503 0.00059270
N 12.43174808 4.01011849 14.42658707 0.00076501 0.00319075 0.00295197
N 13.12342269 8.95445343 16.74665493 0.00048944 -0.00620503 0.00214814
N 14.74002795 0.50770351 12.17643151 0.00353313 0.00355619 0.00777271
N 12.33833292 3.23067022 10.16512905 0.00205224 -0.00594687 0.00062099
N 11.11815344 6.02544302 14.88496146 0.00252022 -0.00207972 0.00246707
N 13.82269985 1.32768384 16.64469998 0.00418846 -0.00475892 0.00021237
N 13.52022204 8.50020439 12.00004819 -0.00117931 0.00501845 -0.00200511
N 11.17442018 5.22304641 19.18680572 0.00422890 0.00214637 -0.00326030
N 12.34089554 4.31110790 23.46546258 0.00528477 0.00249645 -0.00674825
N 13.22105022 8.98111568 25.92300117 0.01009581 0.00056258 -0.00055238
N 14.48960562 0.44678259 21.36179587 0.00494622 0.00606831 -0.00202420
N 12.46896933 3.37416316 19.35153550 -0.00253637 -0.00223580 0.00088529
N 11.52657697 6.47003985 23.95990954 -0.00158537 0.00212305 0.00182132
N 14.02221397 1.37025864 25.27707751 -0.00242398 -0.00337172 -0.00150239
N 13.14880072 8.75464119 21.15287503 0.00341450 0.00611902 -0.00337204
N 11.28737911 15.27794714 1.30622771 0.00029896 -0.00206703 -0.00111806
N 12.67917081 13.98117691 5.49173979 -0.00382917 0.00155422 -0.00091930
N 13.01175770 18.72263793 8.29443616 0.00822242 -0.00054984 -0.01121432
N 14.38257135 10.73107419 3.40795584 0.00288017 0.00729528 0.00517749
N 12.58787621 13.39504801 1.61279459 -0.00227578 -0.00334923 -0.00094405
N 11.39155724 15.81104009 6.41050067 -0.00039912 -0.00565505 -0.00034941
N 14.55154554 10.98233614 7.69994506 -0.00028949 0.00230477 0.00590036
N 13.58026087 18.12272395 3.20058272 -0.00587098 -0.00223781 0.00774094
N 11.49390182 15.64811650 10.06496120 -0.00207516 0.00066010 0.00409783
N 12.76597005 13.82014823 14.70997525 0.00768287 0.00341533 0.00352936
N 13.22522272 18.66226291 17.06154367 -0.00168013 -0.00657818 -0.00091725
N 14.71608963 10.46789570 12.33998488 0.00578648 0.00379960 -0.00337231
N 12.71214450 13.60096562 10.34490327 -0.00261707 -0.00306914 -0.00009299
N 11.42553687 15.68773218 15.14334441 -0.00200263 -0.00072082 0.00588394
N 14.32442483 10.88473296 16.53220563 0.00063851 0.00537431 0.00095669
N 13.56881283 18.43571440 12.31510263 0.00626422 -0.00401093 -0.00018402
N 11.02333169 15.19430756 19.29836762 -0.00145511 -0.00613019 0.00831362
N 12.43407944 14.18364153 23.80159881 0.00321428 0.00864531 -0.00197598
N 13.26005596 18.78297566 26.16290551 0.00212696 0.00284138 -0.00915532
N 14.46149743 10.65930602 21.43196066 -0.00515872 -0.00745762 -0.00334831
N 12.46488403 13.40368762 19.76743449 0.00147723 -0.00533913 0.00091142
N 11.16466471 16.02323729 24.31255527 -0.00552468 0.00128856 -0.00697307
N 14.07226619 11.08974864 25.55129803 -0.00202969 -0.00506438 -0.00359342
N 13.08833205 17.97744877 21.20398310 -0.00253145 0.00367305 -0.00704467
N 11.27376035 25.09315997 1.31417638 0.00366731 0.00599714 0.00018973
N 12.49589284 23.54423713 5.96427205 -0.00546353 -0.00279900 0.00184902
N 12.89361015 28.48190816 7.79322819 -0.00245113 0.00093159 -0.00078785
N 14.41130866 20.32236498 3.39237623 -0.00362321 -0.00673522 -0.00331423
N 12.69786949 23.20829950 1.59032960 0.00781046 -0.00160658 0.01277081
N 11.55703431 25.55329144 6.08337494 -0.00171340 -0.00000752 0.00393925
N 14.12564359 20.64565350 7.88846250 0.00145635 -0.00254465 -0.00907825
N 12.93900701 27.82891708 3.08826496 0.00541261 -0.00509909 -0.00135869
N 11.50705568 24.92882376 10.25104779 -0.00594145 0.00113494 -0.00193746
N 12.88684004 23.54403254 14.96264009 -0.00620020 -0.00311562 -0.00360073
N 12.70173362 28.45622827 16.84958970 -0.00148423 0.00793975 0.00316482
N 14.89827441 20.30617564 12.73917676 -0.00373393 0.00317898 -0.00438980
N 12.80350444 23.05193183 10.65164006 0.00155113 0.00500460 -0.00222693
N 11.22162488 25.18874372 14.96734820 0.00482350 0.00252246 -0.00141934
N 14.25321166 20.62096605 16.73010072 -0.00438639 -0.00342366 -0.00090075
N 13.42455046 27.77487041 12.12125833 0.00419090 0.00665165 0.00326389
N 11.02162116 24.82364753 19.52066639 -0.00667613 0.00197073 0.00442019
N 12.61195616 23.68932881 23.62462749 -0.00453922 -0.00031537 -0.00014936
N 13.41350504 28.40896473 25.87395752 0.00487524 0.00338586 0.00606036
N 14.48728416 19.81994152 21.57985701 0.00516341 0.00565322 0.00905853
N 12.39275768 23.10930671 19.51149920 -0.00011100 -0.00111852 -0.00715537
N 11.48393726 25.60640757 24.17883919 0.00457129 -0.00219453 -0.00524443
N 14.32929884 20.74644679 25.65440401 -0.00228832 0.00221985 0.00198720
N 13.38622711 27.57342480 21.09146751 -0.00364726 -0.00366031 0.00659371
N 15.43937301 5.59532106 1.03719090 -0.00396126 0.00069362 -0.00180241
N 16.35044718 4.36393681 5.60881738 0.00315881 -0.00022787 0.00253983
N 17.09270808 9.04241794 8.08259088 -0.00379818 0.00194008 -0.00390924
N 18.45095050 0.89741199 3.30660574 -0.00559470 -0.00012308 0.00624573
N 16.42888294 3.49731334 1.48523644 0.00468275 -0.00123116 0.01058769
N 15.18766795 6.27088438 6.22728273 0.00117589 -0.00490560 0.00220203
N 17.87346855 1.28717411 7.49089673 -0.00081575 0.00086835 -0.00030565
N 16.96559367 8.59244568 3.49655857 0.00295946 0.00017238 -0.00086890
N 15.12386932 5.79977328 10.28002556 -0.00158997 -0.00865040 -0.00217841
N 16.26364726 4.22420396 14.80512224 0.00081408 -0.00065983 -0.00311317
N 16.56582086 8.75171465 17.31606400 -0.00746351 0.00053470 -0.00093589
N 18.07309720 0.87035970 12.20527766 -0.00000291 -0.00125073 -0.00134353
N 16.17462630 3.77708016 10.53423298 0.00333552 -0.00268312 -0.00164438
N 14.94441717 6.02399237 15.03720838 -0.00086375 0.00896202 -0.00258774
N 18.23216989 1.31811787 16.35561904 -0.00596091 0.00075942 -0.00292809
N 17.15949873 8.51040324 12.15373665 -0.00051459 0.00118854 -0.00380312
N 14.91990308 5.44271845 19.44381110 0.00405676 -0.00197406 0.00019596
N 16.14835262 4.15808089 23.83779241 0.00163785 0.00001190 0.00189127
N 16.86109470 9.04444242 26.14678387 -0.01097503 0.00736914 -0.00020604
N 18.08036128 0.49989046 21.27209297 -0.00269707 -0.00214886 -0.00371039
N 16.01307225 3.51237229 19.58347739 -0.00180401 -0.00010619 -0.00458012
N 14.98434606 6.16233326 24.13318609 -0.00158098 0.00252729 -0.00128171
N 18.10464454 1.44980660 25.57649674 0.00328540 0.00330307 0.00488412
N 16.76203017 8.30203807 21.44587752 0.00048371 0.00082628 -0.00407149
N 15.05363107 15.56516274 0.86189700 -0.00388833 -0.00065879 -0.00357901
N 16.52772240 14.18623772 5.62222759 -0.00224635 -0.00039472 -0.00660462
N 16.67835414 18.87303422 7.98040287 0.00274670 -0.00040177 0.00124916
N 17.99847516 10.67472107 3.40509621 -0.00167385 0.00102414 0.00306101
N 16.27150072 13.64392444 1.45928104 0.00667740 0.00707595 -0.00459206
N 15.18894454 16.04658017 5.97734327 -0.00302858 0.00325939 -0.00097014
N 18.20607535 11.08169673 8.08432643 0.00067910 -0.00451179 0.00299765
N 17.13757505 18.34002605 3.45022375 0.00024267 0.00658764 0.00044014
N 15.02623774 15.59572214 10.19024156 -0.00387006 -0.00089883 -0.00234342
N 16.31489110 13.87879825 14.56987789 -0.00100753 0.00047517 0.00461815
N 16.68728594 18.56494917 17.05279503 -0.00610131 0.00373641 0.00199946
N 18.43035546 10.52669234 12.45965526 -0.00377674 0.00523826 0.00425402
N 16.39540148 13.66908527 10.35627217 -0.00490845 -0.00736152 0.00097285
N 15.07099694 15.66968789 15.24797860 0.00307631 0.00131680 -0.00507198
N 17.70933973 10.66841360 16.68462891 -0.00350056 0.00161974 -0.00150177
N 17.14640318 18.02358047 12.13459880 0.00401187 0.00828258 -0.00066544
N 14.85202876 15.13926643 19.18493316 -0.00751081 -0.00603795 0.00124469
N 16.11978105 13.98503254 23.74622798 -0.00136071 0.00021738 -0.00495933
N 16.83251757 18.98741609 26.42070267 -0.00065867 -0.00385860 0.00202856
N 17.74922399 10.36029731 21.46272122 0.00216279 -0.00476601 -0.01213167
N 16.28633923 13.29337414 19.31618414 0.00103123 -0.00482255 -0.00239304
N 15.09726155 16.01861533 24.08930096 0.00098523 0.00189185 0.00494221
N 18.10787492 10.94498566 25.47010461 0.00099032 -0.00745939 0.00096197
N 16.83266745 18.24038673 21.28607991 0.00518729 -0.00045547 -0.00276169
N 14.98802002 25.03410886 1.19793820 -0.00601329 -0.00167512 -0.00153234
N 16.16563989 23.47144814 5.65922919 0.00050875 0.00285503 0.00657446
N 16.92011056 28.35786939 7.97405663 -0.00402716 -0.00230754 0.00304978
N 18.43280216 20.32075882 3.70828371 -0.00384298 0.00157951 0.00121881
N 16.35426106 23.09200700 1.37547525 0.00423100 -0.00287399 -0.00429520
N 15.05357908 25.42686727 6.18358415 0.00733546 0.00308406 -0.00090731
N 17.88734166 20.66451533 7.53141093 0.00371406 -0.00622925 -0.00060773
N 17.18767538 28.18037546 3.00291743 0.00037882 0.00134965 0.00741072
N 15.09407682 24.96846883 10.19280503 -0.00104388 -0.00123380 0.00215625
N 16.42130202 23.65425198 14.55174105 0.00189372 0.00147377 0.00162452
N 16.84120284 28.60791678 16.75138861 -0.00204968 0.00205284 -0.00186087
N 18.45151228 19.89798909 12.34993976 0.00226781 -0.00109636 -0.00571973
N 16.35286344 22.95893098 10.51077880 -0.00388825 0.00416902 0.00135510
N 15.21529319 25.42666981 15.23355880 0.00416911 -0.00127250 0.00405346
N 18.00777169 20.29455970 16.48870343 -0.00015094 0.00390006 -0.00226451
N 17.07112538 27.96737666 12.04412736 -0.00339346 0.00944631 -0.00023226
N 15.02888146 24.96189290 19.37027009 0.00563429 -0.00194182 0.00066953
N 16.24427740 23.41713925 23.94002746 0.00402241 0.00405625 -0.00560335
N 16.72183039 28.72795868 25.89732296 0.00236094 -0.00337100 -0.01175913
N 18.22554651 19.99888501 21.90567890 0.00047564 -0.00187002 -0.00197559
N 16.26366335 23.00797157 19.67774301 -0.00064115 0.00427127 -0.00715578
N 15.08612900 25.40952648 24.08230776 -0.00162615 0.00362113 -0.00165288
N 18.11023877 20.82715136 25.86530223 -0.00210877 0.00677164 -0.00309783
N 16.88511991 27.75641026 20.85569829 0.00313288 -0.00032683 -0.00495850
N 18.74303059 5.90847331 0.92370138 0.00527446 -0.00132815 0.01091674
N 19.90715878 3.97864753 5.38648235 -0.00424086 -0.00295551 -0.00348075
N 21.01742655 8.97445846 8.06084234 0.00273259 -0.00228092 -0.00027322
N 0.01462577 0.55233927 3.57376743 0.00514961 -0.00033963 -0.00437780
N 19.82078526 3.84805554 1.40428199 -0.00086343 -0.00167757 0.00190755
N 18.94402940 6.01574958 5.92172065 0.00569842 0.00520940 -0.00045192
N 21.60592244 1.02201502 7.43472881 0.00273883 0.00093289 -0.00161453
N 20.65618890 8.37842541 3.13921356 -0.00461585 0.00218047 -0.00080757
N 18.71250427 5.40998496 10.00633005 -0.00290827 0.00540905 -0.00201082
N 19.89842136 4.23129793 14.80880898 0.00087981 0.00285415 0.00086023
N 20.38294944 8.76881144 17.10361415 0.00051215 0.00633506 0.00340975
N 21.87691294 0.61472408 12.57954007 0.00055611 0.00476106 -0.00282974
N 19.91783795 3.47548266 10.27926773 -0.00142049 0.00695773 -0.00090407
N 18.75798833 6.22118499 14.81966223 0.00159905 -0.00538107 0.00271776
N 21.54839749 1.26686749 16.76810959 -0.00352825 -0.01032925 0.00484307
N 20.69139868 8.51804962 12.39708326 -0.00109609 0.00115462 -0.00029941
N 18.49494162 5.41595092 19.15421975 0.00242375 0.00544135 0.00110080
N 20.00065706 4.25335146 23.40037384 0.00151803 0.00181206 -0.00724211
N 20.62211584 9.04699677 25.98808059 -0.00108727 -0.01128093 -0.00241226
N 21.69147855 0.30993065 21.24973521 -0.00386008 -0.00158949 -0.00344532
N 19.76230812 3.61093664 19.76432175 0.00866595 -0.00319388 -0.00183206
N 18.89962260 6.13597119 24.19641406 -0.00252711 -0.00431919 -0.00785318
N 21.76846288 1.43511022 25.65778070 0.00375031 -0.00331542 -0.00567487
N 20.36574316 8.44085036 21.31996865 -0.00084256 0.00341692 -0.00129929
N 18.55183481 15.32166243 1.12775029 0.00157928 -0.00410605 0.00283757
N 20.36459981 13.98475448 5.96447943 0.00070648 0.00248881 0.00566547
N 20.29977430 18.82511399 8.31842276 -0.00482432 0.00400068 -0.00379651
N 21.75026927 10.41819164 3.40742062 -0.00397333 0.00334529 0.00065692
N 19.95433411 13.47350422 1.33358622 -0.00127885 0.00346113 -0.00395241
N 19.00038445 15.92575879 5.93100780 -0.00032387 0.00330119 0.00449570
N 0.03863586 11.03474671 7.77305971 0.00206634 0.00834356 -0.00197002
N 20.64996142 18.29805319 3.10809253 0.00030254 0.00602041 -0.00122313
N 18.68075333 15.43337335 10.04847407 0.00040815 -0.00763082 -0.00181158
N 19.92311156 13.64886064 14.76547312 -0.00188081 0.00343060 0.00000778
N 20.37633408 18.65699462 17.00525708 0.00433610 0.00008059 0.00196404
N 21.48302391 10.67331480 12.68514344 -0.00483575 -0.00139706 0.00063066
N 19.81516591 13.60068806 10.88811070 -0.00376980 0.00261848 0.00349487
N 18.63093896 15.62084736 15.02020622 -0.00323110 -0.00140990 0.00071754
N 21.64660099 10.66872578 16.49011288 0.00166312 0.00221474 0.00432438
N 20.70633456 18.18510323 12.27616782 0.00511021 0.01232502 0.00163428
N 18.42318529 15.39072818 19.10668196 -0.00361600 0.00242445 0.00426451
N 20.12047241 14.11318432 23.81626823 0.00054090 0.00294541 -0.00058890
N 20.73219061 18.71138235 25.93632540 0.00189264 0.00498247 0.00001412
N 21.62490737 10.35247878 21.09124473 -0.00149830 -0.00325980 -0.00085875
N 19.72684555 13.43696160 19.65478650 -0.00060296 0.00261305 0.00397353
N 18.60449651 15.76961214 24.09403608 0.00590545 -0.00618829 0.00536028
N 21.72685483 11.07775861 25.46809594 -0.00259401 0.00193156 0.00700520
N 20.32164819 18.11409544 20.78678182 0.00052611 -0.00885757 -0.00622030
N 18.77347104 25.14044503 1.44535170 0.00307133 0.00061562 0.00770457
N 20.01739657 23.60407764 5.78132279 0.00691742 -0.00102023 0.00057428
N 20.74408321 28.16363449 8.12515267 -0.00002038 -0.01039574 0.01206812
N 21.80642305 20.30179590 3.35357997 -0.00248662 0.00271705 -0.00013228
N 20.20308070 23.21600940 1.60197644 0.00407933 0.00519064 0.00248983
N 19.23006771 25.71521522 6.02589872 -0.00475707 0.00403853 -0.00344550