1728
Time=92000.00000002 pbc="T T T" Lattice="22.14959841 0.00000000 0.00000000 0.00000000 28.79625267 0.00000000 0.00000000 0.00000000 27.36153408" energy=-10390.00231087 virial="18.62842958 -4.17474351 4.13709601 -4.17474351 12.82516251 15.55450683 4.13709601 15.55450683 32.14507775" stress="0.00350109 -0.00022881 0.00022048 -0.00022881 0.00340048 0.00088520 0.00022048 0.00088520 0.00450661" Properties=species:S:1:pos:R:3:vel:R:3
N 0.59780809 5.65823873 1.13959026 0.00152818 0.00119893 0.00939236
N 1.55973020 4.21924618 5.82819598 0.00261378 -0.00443140 -0.00260790
N 2.41656632 9.03995276 8.22942334 -0.00438756 -0.00344925 0.00130600
N 3.21223047 0.64626189 3.31265536 -0.00127758 0.00089891 0.00012173
N 1.35145881 3.55925002 1.50917031 0.00307603 -0.00336808 -0.00148910
N 0.44685332 6.18106860 6.05978093 0.00458164 -0.00233013 -0.00346972
N 3.41522265 1.07383784 7.52739272 -0.00104851 -0.00061437 -0.00796379
N 2.17421126 8.45372248 3.14724738 0.00178635 -0.00019440 0.00739346
N 0.12527702 5.57890064 10.27408166 0.00086915 -0.00449165 -0.00514570
N 1.96907689 4.20215005 15.01268563 -0.00559214 -0.00318477 0.00574869
N 2.22810426 8.98446386 17.37601726 0.00120027 -0.00689837 0.00147169
N 3.87373439 0.43877668 12.35606223 0.00951084 0.00823318 -0.00168887
N 1.40517505 3.73021003 10.53042626 0.00534518 0.00011314 -0.00187757
N 0.47735822 5.92514085 15.26105259 -0.00357216 0.00127787 0.00914968
N 3.45670555 1.13850136 16.93778488 0.00009278 -0.00717829 -0.00174615
N 1.81261896 8.27828172 12.61947814 0.00071158 0.00072299 -0.00733889
N 0.30848030 5.71360889 19.38825283 -0.00091011 -0.00186609 0.00691762
N 1.18823411 3.98800999 23.91107508 0.00177658 0.00436598 0.00175039
N 2.05328098 8.88239633 26.25803670 0.00751008 -0.00090169 0.00122488
N 3.61882879 0.96029480 21.61742113 -0.00160904 0.00749868 0.00026131
N 1.16595096 3.64997108 19.74719061 -0.00464479 0.00462584 -0.00453950
N 0.30316088 6.09910187 24.26403924 0.00537272 0.00550871 -0.00207552
N 3.22177663 1.44514939 25.79238792 0.00667639 -0.00023823 0.00268368
N 2.41255904 8.11137119 21.48956493 -0.00482193 -0.00364555 0.00789669
N 0.18672009 15.18258328 1.17248628 -0.00268672 0.00047150 -0.00267738
N 1.68857691 13.54090670 5.48455110 -0.00018206 0.00325354 -0.00023613
N 2.26054653 18.24125765 7.74629097 0.00109403 0.00255630 -0.00153342
N 3.55041738 10.36114297 3.26247841 -0.00121541 0.00321737 0.00989389
N 1.44051284 13.30606349 1.57519072 0.00806582 -0.00264395 -0.00597560
N 0.43072093 15.49669113 6.06856966 0.01325628 -0.00316608 0.00347359
N 3.57782150 10.89742890 7.39952136 0.00377319 0.00033856 -0.00197469
N 2.32460397 17.97711391 2.84167458 -0.00126688 0.00169315 0.00095683
N 0.23952113 14.90692503 10.18238875 0.00461163 -0.01025047 -0.00195643
N 1.77488934 14.02311589 15.07857184 0.00240860 0.00899010 -0.00331127
N 2.04204226 18.51859821 16.90587290 -0.00442470 0.00188718 -0.00422692
N 3.22690603 10.07165709 12.81876701 -0.00626403 -0.00333278 -0.00230983
N 1.16612715 12.88285714 10.71453825 0.00683918 -0.01091925 -0.00441887
N 0.35976489 15.74707048 15.06596135 -0.00470375 -0.00325914 -0.00244857
N 3.16704304 11.09811366 16.92766134 -0.00314123 0.00062986 -0.00041263
N 2.29420118 17.91772018 12.24292182 0.00839941 -0.00156311 0.00347023
N 0.41194620 15.44460025 19.62514892 -0.00293653 0.00560434 0.00196175
N 1.42004879 13.45027281 24.09970751 0.00014154 -0.00133966 -0.00023645
N 1.77036206 18.41324608 26.32778338 0.00125919 -0.00380781 0.00181998
N 3.42135707 10.24746731 21.75842897 0.00459929 0.00097411 -0.00048306
N 1.52557394 13.43370288 19.67054772 0.00057346 0.00044312 -0.00730310
N 0.45168875 15.48734661 24.60477801 0.00420363 0.00300821 0.00356857
N 3.15245195 10.87419468 25.91262691 -0.00022902 0.00246058 0.00311683
N 2.20814187 18.22674530 21.50166849 -0.00282983 -0.00037025 -0.00154292
N 22.05299392 24.80690273 1.10207912 -0.00525914 -0.00186087 -0.00142284
N 1.39013963 23.14194117 5.67807945 0.00544140 -0.00558617 0.00425829
N 2.07638123 28.09489305 8.30933437 0.00317908 0.00139502 -0.00168181
N 3.48731781 19.90636007 3.30964744 0.00301468 0.00543425 -0.00080539
N 1.15153801 22.92494123 1.75111023 -0.00177278 -0.00215804 0.00296884
N 0.36878915 25.13691601 6.35153537 0.00605965 0.00087055 0.00199048
N 3.10367132 20.40437129 7.56587191 0.00180023 0.00146940 0.00297034
N 1.76710780 27.58243760 3.06741689 0.00338149 0.00194387 -0.00210656
N 0.64173321 24.45941584 10.21632598 0.00221149 0.00558466 0.00415108
N 2.05999825 23.36294415 14.77491226 0.00270711 0.00249050 0.00170395
N 1.99242490 28.16042585 17.10677623 -0.00277523 0.00064411 0.00245508
N 3.47889371 19.93540297 12.26648130 0.00250001 -0.00210682 -0.00875964
N 1.81622759 22.44727732 10.45156706 0.00416108 -0.00091099 -0.00192798
N 0.85825645 25.33647124 15.18371094 -0.00667155 -0.00714162 0.00418239
N 3.40249531 20.39052043 16.64349310 0.00432403 0.00390086 0.00188677
N 2.42181587 27.47464825 12.56705088 0.00614395 0.00881770 -0.00194063
N 0.59555355 24.45318198 19.47835757 0.00300918 -0.00193308 -0.00120266
N 1.29546641 23.39971077 24.16168276 -0.00119011 0.00403122 0.00983383
N 1.94862689 28.30564884 25.93901751 0.00352370 -0.00154533 -0.00032773
N 3.55707190 20.05774912 21.62187782 0.00135637 -0.00641731 -0.00491925
N 1.50811437 22.33570516 19.75417401 0.00030486 -0.00362907 0.00521810
N 0.04671400 25.25539971 24.51729921 0.00090958 0.00965788 -0.00011635
N 3.05212487 20.42923549 26.12840568 -0.00056143 0.00065107 -0.00267606
N 2.34799142 27.93351697 20.92432364 -0.00240702 0.00618037 0.00193279
N 4.00767325 5.25034904 1.20291856 -0.00291474 0.00050708 0.00079659
N 5.22554192 4.22229942 5.60617437 0.00319694 -0.00471649 -0.00298169
N 5.85541855 8.89998422 7.86578930 0.00257764 0.00407757 0.00285552
N 6.97122595 0.42264626 3.75605543 -0.00880355 0.00432396 0.00875189
N 5.15984423 3.34683131 1.51882731 -0.00399995 -0.00428818 0.00392978
N 4.01342132 6.08054339 6.04262879 0.00372695 0.00450906 0.00594142
N 6.39273595 1.38309246 7.54878042 -0.00103679 -0.00143695 0.00897331
N 5.93108063 8.43044737 2.84877621 0.00566660 -0.00443134 -0.00028221
N 3.83175405 5.69678639 10.31228461 -0.00353461 -0.00205640 0.00113963
N 5.49202145 4.38586641 14.73947638 -0.00269310 -0.00058577 0.00258936
N 5.56361341 8.91697162 17.03127418 0.00833534 0.00386585 0.00250779
N 7.08890753 0.98953103 12.88846223 0.00040159 -0.00425367 0.00051203
N 4.86923348 3.65891927 10.48520467 0.00046294 -0.00027699 0.00474463
N 4.16436137 6.16943895 15.29708232 -0.00313205 0.00171382 -0.00530850
N 7.30680554 1.25310777 16.87504196 -0.00075398 -0.00272433 -0.00222777
N 6.02384661 8.33896029 12.20124692 -0.00282639 0.00030733 0.00053634
N 3.65758070 5.44966787 19.21959627 -0.00552957 -0.00412616 -0.00609232
N 5.54976305 4.17521809 23.81214880 0.00802312 -0.00448172 -0.00321432
N 5.95410851 8.70070575 26.10260288 -0.00194719 0.00314174 0.00667788
N 7.08305148 0.70958641 21.50358298 -0.00412440 0.00436700 0.00133574
N 5.41289250 3.96199345 19.55166741 -0.00922424 0.00247654 0.00234975
N 3.97595899 5.90989536 24.27834171 -0.00000458 0.00572762 0.00314354
N 7.10590890 1.18634286 25.68584303 -0.00456441 0.00048405 -0.00270864
N 6.04446468 8.33378798 21.36100144 0.00180093 -0.00410325 0.00162398
N 3.95956638 14.89927222 0.90608839 -0.00522602 -0.00451352 -0.00342835
N 5.04098227 13.36836923 5.34644160 0.00270013 0.00492835 0.00252492
N 6.00409571 18.40480166 8.06483680 -0.00324522 -0.00474023 0.00019159
N 7.38151081 10.21655513 3.51236997 0.00986615 0.00398533 -0.00768725
N 5.27637443 13.04621750 1.53986694 0.00501654 0.00730986 0.00179815
N 3.93829154 15.25718422 5.92887014 -0.00015634 -0.00171169 0.00405656
N 7.22753031 10.75571255 7.38476105 -0.00197714 -0.00266269 0.00406884
N 5.84996712 17.74468987 3.04163996 -0.00081106 -0.00151597 -0.00207179
N 4.39956689 15.56636643 9.92509957 -0.00144001 -0.00093802 0.00302402
N 5.55817524 13.87809696 14.80254094 0.00034973 -0.00079887 0.00320815
N 5.94589519 18.47901172 17.12516923 0.00011909 -0.00339049 -0.00499919
N 7.05909699 10.41743004 12.32758836 0.00426632 0.00673696 0.00048312
N 4.91416052 13.41668017 10.49626570 -0.00824012 0.00046609 -0.00130740
N 4.21233505 15.72714243 15.02997079 0.00023479 -0.00444241 -0.00201059
N 6.93604382 10.76798218 16.59762912 -0.00422935 -0.00041652 -0.00083954
N 5.88194842 18.02726745 12.53366821 -0.00291481 -0.00020490 0.00693563
N 4.23635014 15.32438450 19.48563513 -0.00897090 -0.00032968 0.00157762
N 5.28440083 13.50389732 23.73097678 0.00271880 -0.00113620 0.00269359
N 5.53994406 18.52550481 26.31412011 0.00114167 0.00372280 -0.00241130
N 7.12590265 10.37463616 21.74706997 0.00248977 -0.00218228 -0.00190673
N 5.27620834 13.29153501 19.76397145 -0.00142682 0.00295857 -0.00485136
N 4.09276188 15.44237903 24.20989619 0.00035977 0.00385736 -0.00053930
N 6.73113662 10.83326929 25.77610028 -0.00366111 -0.00122002 0.00373965
N 6.07300721 18.12066147 21.50954564 0.00342745 0.00351677 0.00475932
N 3.59747788 24.67487265 1.22994046 -0.00720281 -0.00081147 -0.00253718
N 5.15030965 23.29116482 6.06082945 -0.00404902 -0.00098829 0.00203814
N 5.61899543 28.06211330 8.10547545 0.00629525 0.00206118 0.00269548
N 7.04856350 19.68794084 3.40879836 0.00937721 0.00259267 -0.00088461
N 4.92922223 22.87356445 1.63549731 0.00637567 -0.00008317 0.00331200
N 3.81081789 25.16401476 6.01283307 0.00216693 -0.00097410 0.00225051
N 7.13899012 20.49334614 7.63684666 -0.00141278 -0.00453175 0.00061464
N 5.60715802 27.52385216 2.90716063 0.00197479 0.00756233 0.00203735
N 4.23611076 24.68065792 10.82151647 0.00140543 0.00728791 -0.00084229
N 5.82118417 23.28289047 15.05250827 -0.00064379 -0.00456074 -0.00199127
N 5.76867019 28.34512572 16.92413873 -0.00167318 0.00348373 0.00025668
N 7.26645657 19.91848459 12.58415358 0.00092117 -0.00239564 -0.00400598
N 5.28265517 22.63733821 10.72875547 0.00013691 0.00405954 0.00431825
N 4.46404730 25.13009338 15.31460111 -0.00049603 0.00011576 -0.00420308
N 7.09376887 20.50423981 17.00196642 0.00466787 0.00091905 0.00408822
N 6.30457062 27.70410266 12.21285961 0.00395497 -0.00152457 0.00418877
N 4.04036135 24.82670538 19.45467534 0.00496756 -0.00214293 -0.00259083
N 5.25856799 23.69974829 24.05894721 -0.00780470 -0.00625013 -0.00629599
N 5.80422687 28.11939370 26.05006827 -0.00503756 0.00061785 0.00045352
N 7.17608172 20.06996250 21.93566526 -0.00538619 -0.00078009 0.00035035
N 5.17219078 22.87204297 19.82062642 0.00154078 0.00269351 -0.00584123
N 3.63533566 25.30002827 24.49647434 -0.00286615 -0.00018402 0.00686156
N 6.85324558 20.40643422 25.84694308 0.00335837 -0.00677281 -0.00596919
N 5.87200871 27.57037306 21.21671757 -0.00693094 0.00670792 0.01287371
N 7.60311441 5.61539603 1.09547794 -0.00346202 0.00308604 0.00044588
N 9.05352798 4.28578201 6.16311082 -0.00465943 -0.00576949 0.00179847
N 9.52413519 8.72848514 7.73747544 0.00164327 -0.00015767 0.00304815
N 10.40672849 0.70646559 3.32105672 0.00263326 0.00087221 -0.00101696
N 8.79887987 3.64899039 1.31876418 0.00445377 -0.00059482 -0.00247020
N 7.73705074 6.07172345 5.81859956 -0.00023302 -0.00325367 0.00372199
N 10.42656622 1.35215862 7.46840483 -0.00448413 -0.00652179 0.00010164
N 9.72735191 8.26965993 3.00915908 -0.00360878 -0.00421194 -0.00255958
N 8.04480992 5.70806902 10.09598972 -0.00224081 -0.00394494 -0.00128816
N 9.06839394 4.24501874 14.67058530 -0.00216442 -0.00219357 -0.00364645
N 9.38490213 9.04358684 17.01207879 -0.00815169 -0.00097245 0.00207642
N 10.91122611 0.87712332 12.62861165 0.00292939 0.00318683 -0.00513436
N 8.48103814 3.58613136 10.66169437 -0.00126956 -0.00605067 0.00323794
N 7.73387794 6.09824975 14.88310877 -0.00328190 0.00338429 -0.00710916
N 10.97202897 1.18498298 16.67657717 0.00148558 -0.00441002 -0.00641607
N 9.61097007 8.70994208 12.01607817 -0.00247526 0.00080991 0.00631285
N 7.98996756 5.53907124 19.17812024 -0.00201830 -0.00696424 -0.00424073
N 9.10175077 3.98638428 23.75186614 0.00207109 0.00359985 0.00031681
N 9.30561542 8.62679202 26.45399863 0.00027357 -0.00223830 0.00745822
N 11.12001806 0.80422514 21.54826266 -0.00337598 -0.00200423 0.00604437
N 9.19831178 3.68298687 19.72743403 0.00586820 0.00185714 -0.00291834
N 7.90045977 5.85725560 24.30196546 -0.00388956 0.00713195 0.00238226
N 10.77937880 1.30943161 25.91993124 -0.00302628 -0.00425998 -0.00339785
N 9.89746578 8.48150084 21.20405776 -0.00060526 0.00541382 0.00409409
N 7.61800615 15.07138846 0.94669045 0.00408506 -0.00118212 -0.00304989
N 9.10012379 13.66744228 5.56764028 0.00132213 0.00743935 -0.00534335
N 9.40536027 18.40426785 7.89272737 0.00128744 0.00238948 0.00741099
N 10.65878269 10.34191384 3.39704251 -0.00511399 -0.00326916 0.00113166
N 8.72223759 13.14757549 1.55858265 0.00334136 0.00575823 -0.00315106
N 7.78276957 15.54049957 5.67513347 -0.00304350 -0.00124594 0.00035138
N 10.80633701 10.61885554 7.37429237 -0.00499248 0.00006849 -0.00082524
N 9.48525909 18.03775465 2.98266901 0.00169526 -0.00609185 -0.00032951
N 7.58612608 14.83825882 10.17037919 -0.00532718 -0.00025091 0.00029593
N 8.88287727 13.66358509 14.57574944 -0.00368734 0.01285863 -0.00232946
N 9.55374996 18.43792411 17.09831273 -0.00180683 -0.00333683 -0.00674246
N 11.05913011 10.44000942 12.72330966 0.00131182 -0.00186200 0.00317520
N 8.87617762 12.88508830 9.92785256 0.00735872 -0.00468700 0.00791382
N 7.84755883 15.60586803 15.21501014 -0.00527793 0.00830394 -0.00065394
N 10.45941944 11.04179238 16.87106768 -0.00012012 0.00569599 -0.00166685
N 9.69636996 17.95868908 12.43031024 -0.00265791 0.00511386 -0.00299519
N 7.54113042 15.29942437 19.45291374 -0.00057920 -0.00352475 -0.00129075
N 9.18446487 13.76282127 23.70765447 -0.00012549 -0.00343243 0.00111446
N 9.30720176 18.40522647 26.29236144 0.00150139 -0.00028809 -0.00451304
N 10.70727094 10.51775987 21.78725727 -0.00430842 0.00238149 -0.00169568
N 8.98301625 13.44938573 19.93834788 0.00242021 -0.00296136 0.00296612
N 8.19636849 15.74117495 24.24544949 0.00338316 -0.00227481 -0.00016076
N 9.75524119 10.76019396 25.92659098 -0.00486571 -0.00110311 -0.00451614
N 9.45199711 18.09708661 21.17971162 0.00313634 0.00214072 -0.00065605
N 7.38657932 24.62933006 1.26965139 -0.00246994 0.00715882 0.00515199
N 9.16537328 23.39622273 6.13322765 0.00174504 -0.00825015 0.00829121
N 9.49927277 28.15659214 8.08174030 0.00312687 0.00168184 -0.00059809
N 10.56505977 19.97614799 3.11458113 -0.00080785 -0.00408057 -0.00300655
N 8.64410494 22.80066331 1.45464854 -0.00317490 -0.00096908 -0.00169658
N 7.61561966 25.16566489 6.23366882 0.00086077 -0.00042619 -0.00077765
N 10.67336590 20.36036839 7.55072576 -0.00032767 -0.00366511 -0.00279491
N 9.48424022 27.47922597 3.10776320 0.00630847 -0.00296630 0.00606812
N 8.02745061 24.66530189 10.73400781 0.00809450 0.00093693 0.00229745
N 9.22056910 23.16450450 14.82522675 -0.00057295 -0.00132069 -0.00179913
N 9.93795641 27.99540277 17.20256185 0.00411125 -0.00065734 -0.00050132
N 11.26192643 19.70825850 12.30050768 0.00594249 -0.00607654 -0.00021906
N 9.05118469 22.61726340 10.68413289 -0.00535277 -0.00513494 -0.00144295
N 8.07040465 25.16137447 15.06017114 0.00136878 0.00204243 -0.00035163
N 10.63050208 20.39978368 16.94351718 -0.00226867 -0.00471896 -0.00480877
N 9.91755404 27.69635445 11.84728288 0.00895366 -0.00263678 0.00367046
N 7.84264122 24.94035695 19.40858745 0.00339220 -0.00613520 -0.00326204
N 8.84691047 23.22742690 23.98553613 -0.00169915 -0.00733991 0.00402059
N 9.55628858 28.09354750 26.19713545 -0.00070230 0.00175493 0.00169385
N 10.27478668 20.15796496 21.70744604 0.00387919 0.00759483 0.00061837
N 9.16849496 23.05579904 19.84213729 0.00364182 0.00247132 0.00524459
N 7.61139653 25.19682617 24.20966874 -0.00229520 0.00353783 -0.00346445
N 10.51765693 20.35411039 25.78964273 0.00207667 0.00348183 -0.00223736
N 9.72571033 27.78666899 21.43832113 0.00972528 0.00306622 -0.00310985
N 10.94837771 5.46339975 1.22305648 -0.00106740 -0.00247202 -0.00575517
N 12.67981632 4.04833850 5.64192834 0.00145093 -0.00023287 -0.00145209
N 13.08719251 8.59293674 8.02159734 -0.00170512 -0.00268992 0.00905764
N 14.07654289 0.89807872 3.76931770 0.00207693 0.00476921 -0.00023735
N 12.24927969 3.60500690 1.48758715 0.00350826 -0.00182852 -0.00788404
N 11.47384200 5.98442036 5.81896693 0.00796057 -0.00469132 -0.00445698
N 14.00238509 1.15287523 7.78600391 -0.00279063 0.00266773 -0.00047405
N 13.00363788 8.44751497 3.06855320 -0.00319926 -0.00174031 0.00053706
N 11.19909997 5.30485974 10.14630147 -0.00363528 0.00683570 -0.00459523
N 12.89679228 4.15432066 14.64583337 -0.00246499 0.00435680 -0.00570070
N 13.45682287 8.73776110 17.07466070 0.00501127 -0.00017664 0.00705459
N 14.68607983 0.50663870 12.51881790 0.00406351 0.00000245 -0.00087544
N 12.54161519 3.53065269 10.56330131 0.00058952 0.00219352 0.00370475
N 11.53497669 6.08202952 15.08081841 -0.00700655 0.00135450 -0.00322705
N 14.56331501 1.32603306 16.64068786 0.00240728 -0.01141568 0.00060516
N 12.97468085 8.42998172 12.16381547 0.00272799 0.00319625 0.00622818
N 11.33934107 5.71648896 18.99287018 -0.00049012 -0.00598115 -0.00010216
N 12.64921475 3.80564735 23.77156448 -0.00457463 0.00149467 -0.00183519
N 12.98115352 8.89140433 26.04405117 -0.00101714 0.00147537 0.00192262
N 14.79190301 0.46093301 21.71490267 0.00236310 0.00700273 -0.00098502
N 12.39300283 3.69088064 19.56511485 0.00685484 -0.00266810 0.00128796
N 11.43447623 5.73764101 23.99664522 -0.00039340 -0.01026937 0.00061240
N 14.51883678 1.31421680 26.08638987 0.00042364 -0.00205577 -0.00212911
N 13.18798407 8.30439837 21.21673779 -0.00136825 0.00309010 -0.00588344
N 11.16788679 14.82012435 1.08157747 0.00046883 -0.00177692 -0.00285301
N 12.59269960 13.77512150 5.39490484 -0.00363880 0.00183511 -0.00450279
N 13.30731459 18.32135156 7.70743029 -0.00687583 0.00207239 0.00097394
N 14.48365732 10.13953711 3.54369887 0.00141179 -0.00102900 0.00169641
N 12.44952105 12.90732759 1.39052148 0.00451010 0.00603000 -0.00054602
N 11.40855219 15.72551504 5.75815505 0.00642132 -0.00256481 -0.00430177
N 14.23932989 10.51708543 7.79552443 0.00615282 0.00215829 0.00001089
N 13.18258157 18.07184104 3.10497014 -0.00283553 -0.00443954 0.00214745
N 11.22647829 15.22009760 10.28537575 0.00061338 -0.00594760 0.00772939
N 12.72379542 13.70185840 14.69218120 -0.00429083 0.00262139 -0.00412969
N 13.29565329 18.60305772 16.98122765 0.00562170 0.00096205 -0.00306536
N 14.47550937 10.19975537 12.19985799 -0.00262734 -0.00562271 0.00166047
N 12.26029035 13.11356339 10.16466910 -0.00138992 -0.00415987 0.00033291
N 11.50582636 15.54625440 15.51106395 -0.00582419 0.00593189 -0.00266034
N 14.61172930 10.74091497 16.72009561 -0.00053800 0.00653525 -0.00537125
N 13.62493886 17.96098737 11.84802476 -0.00218297 0.00453044 -0.00396453
N 11.52781856 15.17029318 19.53315454 -0.00163973 0.00004255 0.00630908
N 12.76392217 13.78296294 23.88623180 -0.00282704 0.00504383 0.00036802
N 13.26506973 18.83603969 26.12235179 0.00032505 -0.00194500 0.00475742
N 14.48918817 10.16194147 21.73258488 -0.00306331 0.00304668 0.00314618
N 12.57744760 13.16989095 19.86081936 -0.00373517 0.00311168 0.00500770
N 11.54339079 15.73028684 24.42378970 0.00308790 -0.00306784 0.00027234
N 13.94209459 10.96915744 25.67779084 -0.00484149 0.00138590 0.00129451
N 13.41098893 18.16926849 21.34588176 -0.00285359 -0.00168082 -0.00109614
N 10.99094632 25.01630032 1.12935889 0.00852003 -0.00209890 -0.00666255
N 12.35853526 23.10694208 5.62492543 0.00048673 0.00437169 0.00064475
N 12.74308577 28.03465097 8.17670820 0.00067946 0.00351827 -0.00041501
N 14.45617302 19.97643690 3.47085348 0.00073965 -0.00149577 0.00698167
N 11.92655567 23.01030576 1.70349009 -0.00114003 0.00140411 -0.00190628
N 11.47066142 25.09489664 6.23502212 -0.00101699 0.00182944 -0.00652036
N 14.32423325 20.39381258 7.62147312 -0.00033882 -0.00155172 0.00247655
N 12.97728542 27.65824821 3.40493702 -0.00533201 0.00106681 -0.00517244
N 11.27384709 24.54026320 10.34625661 -0.00067597 0.00633732 -0.00128669
N 12.84245601 23.24597618 15.11292559 0.00058031 0.00228306 -0.00418735
N 13.56936226 28.08906115 17.08722584 0.00092953 0.00021898 -0.00212531
N 14.60972649 19.88088315 12.51504879 -0.00023348 -0.00807120 -0.00244519
N 12.67604491 22.79496654 10.70321384 -0.00203414 -0.00540037 0.00463308
N 11.77044762 25.25899429 15.40513223 0.00108133 0.00210385 -0.00016657
N 14.47733432 20.62844388 16.88956716 -0.00871277 0.00243806 0.00312956
N 13.50576873 27.34185291 12.03998781 0.00059200 -0.00107267 0.00314810
N 11.50040090 24.79310798 19.64019985 0.00600621 0.00383429 -0.00061367
N 12.67731121 23.12673259 24.21273916 0.00034470 0.01210821 0.00332702
N 13.01683493 28.28996098 26.27804748 0.00656101 0.00159572 0.00155022
N 14.72225948 19.98022010 21.75577862 -0.01263294 -0.00204000 -0.00056419
N 12.40774611 22.65845730 19.89819476 0.00018879 -0.00215436 0.00900045
N 11.65534066 25.21653920 24.30540653 -0.00615211 -0.00595556 0.00492655
N 14.45096722 20.75968512 26.53625440 0.00767596 -0.00771666 0.00660100
N 13.82966648 27.23068210 21.26811568 0.00186857 0.00478938 0.00198130
N 15.03213152 5.55079129 1.33949481 0.00869198 -0.00459051 0.00250663
N 16.38905470 4.21160305 5.86298886 0.00182597 0.00160254 0.00650376
N 16.80620126 9.18456728 7.96786136 0.00254868 0.00529999 0.00018425
N 18.17829244 0.79335993 3.53632431 0.00221684 0.00150344 0.00290608
N 16.19391603 3.48356099 1.60755749 -0.00517202 0.00424876 0.00358041
N 15.24163419 6.29595415 6.11076100 0.00326421 0.00230884 0.00401193
N 17.91689000 1.17400352 7.40708661 0.00433168 -0.00432665 -0.00402042
N 17.30888085 8.26208977 3.29805679 0.00523890 0.00303202 -0.00860158
N 15.08653731 5.58859664 10.33067191 -0.00307148 -0.00601142 -0.01199717
N 16.17845607 4.24695015 14.99263873 0.01006324 -0.00371297 -0.00410899
N 16.89830580 8.82749455 17.29321165 -0.00287318 0.00303463 0.00317340
N 18.48179749 0.74806891 12.29796223 -0.00230420 0.00393169 -0.00831613
N 16.03490804 3.45258561 10.51707114 0.00014300 0.00186954 -0.00394594
N 15.07535104 6.28452251 15.04101121 0.00019838 0.00749063 -0.00203654
N 18.21527561 1.36929581 16.74283796 -0.00292080 -0.00368141 -0.00083565
N 17.01140988 8.65005051 12.30510783 0.00285666 -0.00194916 -0.00197197
N 15.06504970 5.49991175 19.43765002 -0.00015027 0.00602202 -0.00571286
N 16.25199625 4.25720048 24.07239161 -0.00125177 -0.00163175 -0.00108064
N 16.70977758 8.56414304 26.11384487 0.00564746 -0.00444509 -0.00223632
N 18.09059407 0.76093344 21.33852790 -0.00156698 0.00635771 0.00032151
N 16.32056989 3.65416682 19.81993013 0.00196425 -0.00360308 0.00004374
N 14.82529325 6.12302800 24.38152528 0.00020145 -0.00144962 0.01039615
N 18.04484317 1.48934507 26.06525820 -0.00231873 0.00247214 -0.00741430
N 16.88493747 8.37903158 21.40513433 -0.00493284 -0.00326236 -0.00186942
N 14.82249899 14.85249618 1.18335078 -0.00230391 -0.00633273 -0.00336074
N 16.12169075 13.60200584 5.58799779 0.00556802 0.00057112 -0.00130942
N 17.01003847 18.28475020 8.04195720 -0.00351806 0.00205705 -0.00062664
N 18.53298326 10.21569011 3.50384891 -0.00011591 -0.00202074 0.00538692
N 16.22737020 13.02537710 1.64543145 0.00253828 0.00789642 0.00051223
N 14.98280189 15.60145450 5.93569954 -0.00106012 -0.00378596 0.00217299
N 18.30368954 10.90312324 7.69263092 -0.00277990 -0.00954476 -0.00007759
N 16.85553726 17.91256426 2.81521006 -0.00159462 -0.00256133 -0.00585001
N 14.94354913 14.83280566 10.19494110 -0.00687731 0.00565652 -0.00156452
N 16.48805902 13.72983805 14.61763917 -0.00001915 0.00271387 -0.00879939
N 16.80136669 18.40915233 17.06502447 -0.01018501 0.00049070 0.00016941
N 18.37992586 10.45156783 12.79828517 -0.00698704 -0.00524899 0.00179865
N 16.11099998 12.82559389 10.34020513 -0.00295810 0.00197405 0.00021069
N 15.27114480 15.66021667 14.86857079 -0.00166929 0.00123396 0.00512204
N 18.17912557 10.82018540 17.14601999 0.00350813 0.00031768 0.00308511
N 16.98545427 18.03998565 12.07669282 0.00260815 -0.00256004 0.00149889
N 15.00365089 14.94284806 19.46111061 -0.00089016 0.00198274 0.00188603
N 16.08776266 13.56412906 24.18480984 -0.00021671 0.01108381 -0.00066606
N 17.44754580 18.47382957 26.20259312 0.00012771 0.00300898 0.00062717
N 18.23742679 10.24069115 21.77086486 0.00279461 0.00399367 -0.00471299
N 16.34182458 12.95630444 19.61877504 -0.00313351 -0.00519933 0.00077240
N 15.07097142 15.68856903 24.21857344 0.00419090 0.00323841 0.00496963
N 17.93360724 10.47641189 26.23641565 -0.00307576 0.00435744 0.00923224
N 17.17113880 17.88521542 21.18013191 -0.00319831 -0.00051456 0.00709208
N 14.84485131 24.93135002 1.07142251 0.00914035 0.00051490 -0.00674152
N 16.40196206 23.37620586 5.99299932 0.00190385 -0.00022609 -0.00313325
N 16.52947690 28.20119396 7.86135846 -0.00760886 0.00114631 0.00576946
N 18.34837962 19.73925202 3.30917164 -0.00244910 0.00406927 -0.00478337
N 16.04666747 23.08546275 1.60357829 -0.00137900 -0.00175833 0.00098987
N 14.94092428 25.15972608 6.09179297 -0.00357531 -0.00128822 0.00005280
N 17.97297320 20.36227992 7.51956549 0.00230863 0.00407122 -0.00336815
N 16.73987042 27.90609282 2.91791220 0.00022903 0.00420131 -0.00232521
N 15.29190487 24.77649200 9.80255593 -0.00416202 0.00683178 0.00383084
N 17.02073399 23.45285814 14.69219423 -0.00002462 0.00756709 -0.00906342
N 16.87699863 28.20935951 16.80854655 0.00186442 -0.00674980 0.00405460
N 18.29262941 19.83620952 12.38776757 0.00452903 0.00541420 0.00042962
N 16.37967808 22.79307723 10.33426988 0.00006915 -0.00322061 0.00201772
N 15.32408828 25.00907870 14.94688708 0.00186939 0.00408939 -0.00524957
N 17.82711853 20.47349488 16.50211011 0.00055223 -0.00049191 0.00519196
N 17.32289580 27.53434356 12.03992740 -0.00028462 -0.00347208 0.00295203
N 15.33311789 24.42873364 18.92043467 0.00085669 -0.00095237 0.00165640
N 16.13155803 23.34830044 23.77876300 -0.00436890 -0.00165495 -0.00333264
N 16.86057088 28.26910896 26.14705003 -0.00163772 0.00495134 -0.00395333
N 18.44674763 19.69803979 21.76812356 0.00143806 -0.00649798 0.00363489
N 16.46123520 22.51474781 19.56921339 -0.00265838 0.00165110 -0.00185120
N 14.97558994 25.29404499 24.20790513 0.00274170 0.00725944 0.00409267
N 18.08429159 20.76720014 26.20171804 0.00252441 -0.00456961 -0.00028439
N 17.42692650 27.40215227 21.12668372 -0.00465725 0.00483932 -0.00254377
N 18.51268579 5.33483255 1.60687404 0.00541511 0.00738082 0.00077053
N 20.04341662 4.19377239 6.08947027 0.00168302 -0.00433831 0.00881403
N 20.65951942 9.11437691 7.93704492 -0.00862511 0.00327442 -0.00593114
N 21.81138086 0.74478459 3.44051042 -0.00184395 -0.00060058 0.00277793
N 19.65169954 3.35767938 1.70598011 -0.00528177 -0.00151455 0.00133816
N 18.70763477 6.11673237 6.25248086 -0.00531118 0.00272144 0.00196311
N 21.96596643 1.33896216 7.62988727 -0.00349343 -0.00771615 0.00497990
N 20.87463451 8.30120430 3.00951968 -0.00135962 0.00635031 0.00138299
N 18.55142549 5.35911390 10.32853305 0.00070157 -0.00608366 0.00359215
N 20.27423490 3.85032250 14.85237687 -0.00344148 0.00102187 0.00432169
N 20.22889304 8.91482756 16.81082470 0.00590313 0.00015837 -0.00434376
N 21.90980717 0.68580550 12.50341624 0.00075576 0.00650471 0.00635729
N 19.93919960 3.61902914 10.83108772 0.00937196 0.00196465 0.00413031
N 18.97948324 5.71699549 15.11873849 -0.00650386 -0.00524955 0.00192992
N 21.78627342 1.47521978 16.54347872 0.00039186 0.00345376 -0.00477455
N 20.73184993 8.30860023 11.98605018 0.00114048 0.00027864 0.00352981
N 18.76990938 5.75267581 19.31312249 -0.00272993 0.00607570 -0.00054371
N 19.79276327 4.15594710 24.21112739 -0.00204715 0.00007159 -0.00102044
N 20.53751260 8.58933821 26.21601114 0.00241067 0.00787561 -0.00554320
N 21.89210112 0.47265258 21.52677853 -0.00499636 0.00112613 0.00432519
N 19.70327590 3.72338842 19.54921379 -0.00184870 0.00620511 -0.00813604
N 18.70617762 6.16654427 24.44050242 -0.00440737 0.00448535 -0.00382731
N 21.74442857 1.22606899 25.72171654 0.00111223 -0.00699595 -0.00144263
N 20.59148391 8.17685198 21.20656895 0.00304448 0.00200752 0.00288192
N 18.66769011 14.94341788 1.19209853 -0.00314738 -0.00094539 0.00181943
N 20.13941828 13.85265962 5.70106337 -0.00734473 -0.00378391 -0.00550415
N 20.59670649 18.45393943 7.89740255 0.00422428 0.00773766 -0.00302490
N 0.04281846 10.20873631 3.28478939 0.00252503 0.00468689 0.00081735
N 19.98395853 13.00980339 1.48896707 0.00451198 0.00397116 -0.00054433
N 18.63351449 15.60983471 5.97360525 -0.00238619 -0.00242743 -0.00190478
N 0.06393999 10.75636682 7.35383882 -0.00259453 -0.01020437 -0.00434941
N 20.32945880 17.72008058 3.15328253 -0.00065024 -0.00218800 0.00627624
N 18.65848232 15.21051293 10.15992844 -0.00295055 -0.00397187 -0.00448293
N 20.36801885 13.77473649 14.83680502 -0.00734152 -0.00095996 0.00165615
N 20.70488563 18.23360136 17.09677654 -0.00391947 -0.00271493 -0.00058274
N 21.85165970 10.26104752 12.40720604 0.00265302 0.00221485 0.00147265
N 19.67087471 13.17604607 10.63527561 0.00559178 0.00353107 0.00515318
N 18.93540054 15.55163457 15.18050841 0.00249406 -0.00158101 0.00694874
N 21.85715199 10.72061204 16.93419433 0.00693628 0.00733000 -0.00349970
N 20.47819259 17.61881374 12.28010997 0.00213848 0.00522122 0.00300083
N 18.81824569 15.08274308 19.84733534 0.00186280 0.00127544 0.00691759
N 20.07445009 13.53998555 24.10309197 -0.00138513 0.00051989 -0.00143396
N 20.66643225 18.56702679 26.34004142 -0.00117416 -0.00039402 0.00206736
N 21.70727979 10.16475334 21.45275462 0.00666114 -0.00089618 0.00371469
N 20.05684953 13.15458906 19.61275159 0.00630526 0.00290267 -0.00146704
N 18.87369093 15.54331401 23.95262530 0.00230417 0.00068383 -0.00114957
N 21.66625330 10.57368161 25.99330634 0.00727106 0.00536764 0.00367997
N 20.81005921 17.90875580 21.67433717 -0.00404218 -0.00921996 0.00146391
N 18.48086540 24.68100677 1.35590882 0.00289205 -0.00244235 0.00142492
N 19.93812009 23.48606448 5.96945463 -0.00048452 0.00187492 0.00009762
N 20.47107263 28.47113790 7.83475309 0.00330114 0.00256715 -0.00129919
N 21.77004352 19.52684433 3.29401748 0.00236402 0.00607518 -0.00627775
N 19.83099000 22.83871665 1.66032562 0.00246491 -0.00058071 -0.00393218
N 18.90956475 25.51370984 6.13067904 -0.00178389 -0.00030035 -0.00677785