1728
Time=8000.00000000 pbc="T T T" Lattice="22.10497990 0.00000000 0.00000000 0.00000000 28.72596287 0.00000000 0.00000000 0.00000000 27.33408333" energy=-10391.76136106 virial="24.83111702 -2.41503163 5.39149734 -2.41503163 11.35202517 -12.54614274 5.39149734 -12.54614274 38.68273939" stress="0.00343625 -0.00021774 0.00027090 -0.00021774 0.00315348 -0.00070490 0.00027090 -0.00070490 0.00546887" Properties=species:S:1:pos:R:3:vel:R:3
N 0.34617254 5.27201429 1.09826266 -0.00071328 -0.00007949 -0.00117187
N 1.38426133 3.87103256 5.41503490 -0.00545504 -0.00544727 -0.00169142
N 1.98439329 8.90265827 7.72017412 0.00714069 0.00363948 -0.00279195
N 3.59306025 0.72101371 3.36123240 -0.00483194 -0.00300499 -0.00297799
N 1.67497100 3.45344469 1.21298405 0.00106352 -0.00135659 0.00418609
N 0.48319531 6.02445592 5.82407320 0.00352557 0.00267202 -0.00274176
N 3.30268412 1.20055480 7.46595362 0.00095694 -0.00147754 0.00079420
N 2.27079326 8.39441784 2.93195018 -0.00079042 -0.00367401 0.00077264
N 0.30971992 5.70592697 10.31146461 0.00192025 0.00427193 0.00499051
N 1.62348574 3.99537627 14.79445350 0.00320928 0.00289729 -0.00379607
N 1.95005605 8.86876985 17.02012617 -0.00296480 0.00301484 -0.00149756
N 3.45312477 0.83155599 12.21104970 0.00151530 0.00314521 -0.00017258
N 1.38989378 3.66424819 10.62094211 -0.00364363 0.00515231 -0.00060438
N 0.29777953 5.83715164 14.87864594 -0.00501969 -0.00123229 -0.00277937
N 3.21534567 1.24653305 16.71874488 -0.00008388 -0.00361590 0.00630403
N 2.10585509 8.21402839 11.90984157 -0.00269963 0.00186340 0.00233652
N 22.09673669 5.48836812 19.12133328 -0.00392679 -0.00470077 0.00267406
N 1.77258430 4.05915790 23.66803087 -0.00313147 0.01018791 0.00337647
N 1.99322623 9.03612772 26.01083363 -0.00326558 -0.00526920 -0.00660468
N 3.00225754 1.03932358 21.63907211 0.00122791 0.00485629 -0.00809269
N 1.12884870 3.63869370 19.73918505 0.00212472 -0.00346075 -0.00542464
N 0.37084885 5.91777940 24.05907414 -0.00133754 -0.00135178 -0.00448161
N 3.42051912 1.14946377 25.74558093 -0.00078809 0.00495043 -0.00044675
N 2.11022126 8.49145290 21.24493644 0.00008197 -0.00508578 0.00481961
N 0.51818453 15.30194367 1.16297107 -0.00209967 -0.00065501 0.00388283
N 1.68927416 13.74226188 5.70350111 -0.00125861 0.00083438 -0.00143716
N 1.94689796 18.27402689 7.67588449 0.00023203 -0.00188219 0.00360314
N 3.35569440 10.39250655 2.94120046 0.00540432 0.00257746 -0.00929552
N 1.56394537 13.29974821 1.46582917 -0.00112739 0.00862045 -0.00170810
N 0.32638049 15.49834607 6.14051847 0.00688536 -0.00188428 0.00336765
N 3.24951391 10.75014853 7.44898710 -0.00462430 -0.00045832 -0.00462279
N 2.29572502 18.18811407 3.17530406 0.00106210 0.00389781 -0.00416982
N 22.05577625 14.99254292 10.26212688 0.00323383 -0.00253916 0.00180370
N 1.52538618 13.62119609 14.79925243 -0.00446257 0.00419939 0.00098798
N 1.86409767 18.65652839 16.88631517 -0.00068364 -0.00057596 0.00591357
N 3.53059981 10.05966253 12.41627472 -0.00103966 0.00308595 0.00419062
N 1.33942300 13.14715287 10.47064859 0.00488638 -0.00334681 -0.00794348
N 0.32366545 15.51863086 15.39496000 -0.00912385 -0.00248098 0.00251844
N 3.24321775 10.70776420 16.73777404 -0.00778376 -0.00073722 0.00014515
N 2.07383407 17.74348169 12.17502747 -0.00017670 -0.00226782 0.00840073
N 0.34073475 15.06167492 19.45392164 0.00146525 -0.00056318 -0.00494874
N 1.57767526 14.06206646 24.03909659 -0.00021305 -0.00209565 0.00035196
N 2.24914021 18.48247642 26.20430198 0.00780290 -0.00153611 0.00513111
N 3.66718878 10.24105550 21.40945889 0.00346151 -0.00455738 -0.00398729
N 1.38165265 13.02811713 19.77453544 0.00221644 -0.00414743 -0.00886157
N 0.20669938 15.90540973 24.11381443 -0.00042012 0.00097055 -0.00021751
N 3.39986563 10.81633353 26.05793107 -0.00189856 -0.00258470 -0.00154312
N 2.59021239 17.74317518 21.53503465 -0.00566092 -0.00096260 -0.00464015
N 0.33888578 24.64381246 1.20543481 0.00409166 0.00062343 -0.00876966
N 1.61476095 23.17798511 5.73851752 0.00207023 -0.00477920 -0.00302152
N 2.06634992 28.07697835 7.79693116 0.00410684 -0.00585714 -0.01051904
N 3.77798898 19.95530855 3.16452069 0.00068194 -0.00394772 0.00005718
N 1.67263335 22.83007711 1.35968019 0.00221842 0.00257294 0.00625401
N 0.50954929 25.16484730 6.20096170 -0.00043794 -0.00554130 0.00329912
N 3.23738949 20.20063275 7.63045487 -0.00122198 -0.00223110 0.00184153
N 2.36400007 27.46072911 3.19912755 0.00661742 0.00448060 -0.00400107
N 0.09990871 24.49134125 10.30441035 0.00734852 0.00148025 -0.00724129
N 1.55262937 23.31723217 14.70755662 -0.00797635 -0.00082460 -0.00573415
N 1.94335942 28.14080155 16.85790418 -0.00033059 -0.00096699 -0.00862759
N 3.26769675 19.73154681 12.17146552 -0.00299131 0.00415773 0.00047646
N 1.38061589 22.59079580 10.62728678 -0.00622685 0.00237296 -0.00134084
N 0.25510540 25.20629141 14.83238743 0.00501723 0.00025675 -0.00036528
N 3.34117145 20.44895949 16.56122481 0.00058931 0.00254475 0.00020506
N 2.34011017 27.47292502 11.99630253 -0.00433334 -0.00443430 0.00001857
N 0.12781010 24.59148029 19.44636885 0.00305608 -0.00145036 -0.00158624
N 1.88887789 23.24810835 23.84301924 -0.00307577 0.00419332 0.00621409
N 1.87573456 28.22780175 26.07131145 -0.00045005 0.00052829 0.00471571
N 3.49298590 19.83245027 21.49172881 -0.00762839 -0.00106884 -0.00061472
N 1.55330217 22.82724228 19.48536902 0.00312693 0.00601136 0.00000231
N 0.43111003 25.11460794 24.17980718 0.00535894 -0.00540952 -0.00604175
N 3.52485121 20.40175768 25.77251604 0.00014810 -0.00211402 -0.00210712
N 2.21559937 27.57195095 21.26445555 -0.00109480 0.00080562 0.00047329
N 4.33764428 5.77032833 1.15394506 -0.00457509 0.00123549 -0.00728297
N 5.48845969 4.34173743 5.86605025 -0.00405649 0.00347959 0.00179479
N 5.74058208 8.69703618 8.12559730 0.00535772 0.00221277 -0.00069882
N 7.28462404 0.74985042 3.31107280 -0.00256202 0.00174479 0.00022541
N 5.39555310 3.70290749 1.51567699 0.00098330 0.00247584 0.00413045
N 4.22664409 6.23443941 6.07054634 -0.00759760 0.00531897 0.00220802
N 6.90974381 1.24427581 7.74727739 0.00039772 -0.00564818 -0.00049475
N 6.13961753 8.57467573 3.18972056 0.00183807 0.00282575 -0.00161748
N 3.84526238 5.61425134 9.99478065 0.00275816 -0.00409842 0.00524854
N 5.40649882 4.25653094 15.03052916 -0.00016692 0.00158888 0.00108009
N 5.73183871 9.04937267 17.15232018 -0.00035203 -0.00366961 -0.00331338
N 6.87708916 0.68024341 12.67605318 -0.00093308 -0.00390860 0.00455088
N 5.09481675 3.96493082 11.01030763 -0.00164532 -0.00033058 0.00179117
N 3.87845185 5.94051251 15.34503169 0.00210417 -0.00162171 -0.00402837
N 6.86653181 1.17949121 16.95775778 -0.00057266 0.00644973 -0.00033837
N 5.95932595 8.39745443 12.48255260 0.00263735 0.00244140 -0.00131908
N 3.78677668 5.39130754 19.50705253 0.00262593 0.00408300 0.00230544
N 5.32444327 4.18271722 24.08245605 -0.00088419 -0.00028310 0.00524791
N 6.34881043 8.91850237 26.22132633 0.00309565 -0.00066797 0.00006033
N 7.36457772 0.60663980 21.65681001 0.00169352 -0.00279131 0.00060919
N 5.25887871 3.64326340 19.75193287 -0.00091527 -0.00087548 -0.00019663
N 4.01489641 6.06470417 24.28084213 0.00106703 0.00638168 0.00185163
N 7.27005039 1.30704652 26.14232591 0.00054550 0.00014952 0.00172344
N 5.77425946 8.39067592 21.25055868 -0.00028502 -0.00438474 0.00663230
N 3.94499792 14.78625117 0.79261920 -0.00473195 0.00313259 0.00205857
N 5.13518826 13.15960154 5.52448901 -0.00340156 0.00154975 -0.00608343
N 5.61240877 18.54346099 8.11936503 -0.00382734 0.00220507 0.00184943
N 7.41567237 10.46578655 3.46336702 -0.00129777 -0.00042942 0.00283000
N 5.45980705 13.16260547 1.44510516 0.00484168 -0.00675746 0.00158352
N 4.02423518 15.21008152 5.70796424 0.00278905 -0.00583292 0.00258790
N 6.93013933 10.62673953 7.95029617 0.00072123 -0.00419227 0.00232111
N 5.95168475 18.00182685 3.17609278 0.00185897 -0.00718386 -0.00154791
N 3.69147379 14.85165606 10.09193108 -0.00119414 0.00136174 0.00086946
N 5.03417271 13.45844593 14.64306291 0.00156871 0.00275581 0.00012893
N 5.62333732 18.34305170 17.03984475 0.00013340 0.00498774 0.00224954
N 7.02384767 10.44064227 12.67350032 0.00282981 -0.00163730 0.00960955
N 5.10620976 13.10012596 10.68621502 0.00100492 -0.00107307 -0.00711111
N 3.78877850 15.37220111 15.07467395 -0.00208214 0.00467076 0.00091831
N 7.07438033 10.86483278 16.53366873 0.00309828 0.00109684 -0.00262967
N 5.91198069 17.87418587 12.36753079 -0.00287067 -0.00221487 0.00119547
N 4.12014397 15.52585877 18.89289747 -0.00043353 -0.00125781 -0.00577393
N 5.17629316 13.79946238 23.77046086 0.00676076 -0.00293893 0.00674703
N 5.87878918 18.59913307 26.05694458 -0.00178830 0.00004037 -0.00608071
N 6.89244007 10.43198031 21.70443355 0.00587234 -0.00191688 0.00267257
N 4.86930996 13.35076238 19.37670488 -0.00134739 -0.00173181 -0.00114251
N 4.04921004 15.68344235 24.25589723 -0.00011848 0.00424153 -0.00337810
N 7.25712941 11.05422276 25.90131917 0.00302733 -0.00325064 0.00365490
N 5.98016268 17.85911617 21.31582241 0.00090810 0.00078113 -0.00131953
N 4.33516157 24.89458783 1.10927514 -0.00175673 -0.00404316 0.00674957
N 4.88361600 23.10157459 5.57097431 0.00158757 -0.00577435 0.00421897
N 5.48120177 28.12249274 7.94466066 0.00334738 -0.00022250 -0.00355474
N 7.34637603 19.82156945 3.42889252 0.00024495 0.00659346 0.00301684
N 5.11730932 22.72230890 1.32853691 -0.00110366 0.00202459 0.01113775
N 4.12015587 25.25936269 5.90847344 0.00115299 0.00607907 -0.00383826
N 6.75097278 20.51261256 7.82260240 0.00870725 -0.00063485 0.00140685
N 6.00101491 27.62485666 3.21816445 0.00657228 0.00503184 0.00687390
N 3.88577817 24.50244361 9.85342665 -0.00056142 0.00112775 -0.00643553
N 5.20618028 23.43185208 14.62012714 -0.00105878 0.00391057 0.00072174
N 5.76089120 27.93577149 17.34695136 -0.00209139 0.00170770 0.00471584
N 7.03771517 19.87162038 12.49127073 -0.00015649 -0.00008312 -0.00080994
N 4.84009106 22.71292574 10.79184888 0.00059063 0.00186260 0.01159287
N 3.99358260 25.32799566 14.91795748 0.00898087 -0.00220698 0.00007705
N 6.94418996 20.21307479 16.58457071 -0.00188593 0.00181803 -0.00235758
N 6.02300258 27.39058105 12.29943453 -0.00074409 0.00364533 -0.00231168
N 3.89581688 24.87117939 19.04376427 -0.00198681 0.00172677 0.00095817
N 5.29071659 23.41005869 23.90208846 0.00346365 -0.00581352 -0.00476741
N 5.93853408 28.12691545 26.25130339 -0.00377283 0.00026714 0.00165281
N 6.85350838 19.93108045 21.66911007 0.00231648 -0.00241663 0.00123247
N 5.04229157 22.86672212 19.55792178 -0.00553171 -0.00054574 0.00881131
N 4.03661480 25.38059495 23.95347611 -0.00350238 -0.00258783 -0.00245117
N 7.31956455 20.42051369 25.81555016 -0.00333803 0.00068081 0.00185263
N 6.18039297 27.35664066 21.55126972 0.00600065 0.00246670 0.00457922
N 7.71990007 5.51266586 1.09530955 0.00127181 -0.00217203 0.00337001
N 8.62643212 3.95909816 5.70585356 0.00750289 -0.00337022 0.00391321
N 9.38019034 8.99530919 8.06647536 0.00052875 -0.00031818 0.00315861
N 11.02477008 0.89019782 3.54880710 0.01098068 0.00799949 -0.00598504
N 9.09957858 3.66087254 1.54881172 0.00394731 0.00261543 -0.01120068
N 7.96073542 6.13141275 6.06821372 0.00069177 0.00109823 -0.00194273
N 10.35068472 1.07283960 7.66586960 0.00055383 0.00381088 0.00027752
N 10.02928114 8.18149329 3.14962748 0.00488693 0.00190418 0.00191357
N 7.60033444 5.54940948 10.41357957 0.00033528 -0.00222876 0.00922163
N 8.87267185 3.98710920 15.05391206 0.00056902 -0.00287367 -0.00153893
N 9.54688454 8.97582797 16.90963922 -0.00315264 -0.00307005 0.00006318
N 10.74048441 0.51168013 12.57197054 -0.00611683 -0.00391076 0.00232732
N 8.61145739 3.49610365 10.67687713 0.00161841 0.00247417 0.00018273
N 7.63093372 5.99425163 15.11705524 -0.00214706 0.00749446 0.00023184
N 10.68727150 1.30709732 16.74147777 -0.00338388 -0.00218503 -0.00721519
N 9.47816221 8.36166229 12.04427943 0.00366823 -0.00376528 0.00578070
N 7.63480392 5.43610717 19.43088475 0.00115563 -0.00332995 -0.00167411
N 8.88818068 3.95464060 23.96108391 -0.00187944 -0.00075365 0.00031508
N 9.53489408 8.91773227 26.11556791 0.00373688 -0.00265820 0.00736786
N 10.70567861 0.72490195 21.62284488 0.00251860 -0.00190840 0.00158258
N 8.85198055 3.51784049 19.58218933 -0.00072917 0.00275666 -0.00013090
N 7.74619172 5.96811552 24.11486683 -0.00070557 0.00443417 0.00338596
N 10.70912280 1.30167924 25.63604030 0.00156632 -0.00350912 0.00083101
N 9.65964880 8.30895496 21.33588748 0.00308451 0.00343559 0.00364158
N 7.98687090 14.97370298 1.30233389 0.00159953 0.00383116 0.00728665
N 9.12334170 13.65868955 5.75465093 -0.00578196 -0.00272196 0.00423456
N 9.20266565 18.54316526 7.97914618 -0.00333712 -0.00219823 0.00128102
N 11.17543204 10.20012184 3.55933136 0.00247783 -0.00558671 -0.00359818
N 9.30903986 12.96991405 1.50827161 0.00028997 0.00302470 0.00167353
N 7.88156579 15.60171018 6.02041067 0.00544110 -0.00293165 0.00163271
N 10.82692107 10.87022095 7.96221563 0.00306259 0.00117470 0.00272431
N 9.60276286 17.93278500 3.10156748 0.00139343 -0.00277872 -0.00059563
N 7.45231650 15.08165588 10.16166721 0.00736249 -0.00393434 -0.00295994
N 8.87923437 13.66911665 14.81177066 0.00233202 -0.00562425 -0.01246511
N 9.23433393 18.47266717 17.23823743 -0.00414291 0.00503529 0.00241980
N 10.67746406 10.24669822 12.71981980 0.00206942 -0.00048175 0.00675833
N 8.51931999 13.12739537 10.38078147 -0.00056918 0.00089631 -0.00666872
N 7.49241718 15.46173106 15.08982191 0.00487609 -0.00406187 0.00065512
N 10.65252447 11.02004355 16.78334126 -0.00478619 -0.00411615 -0.00417652
N 9.51318099 17.86065477 12.34449160 0.00018614 -0.00544046 -0.00234175
N 7.51942656 14.97420276 19.63013516 -0.00729481 0.00013842 -0.00073072
N 9.05418621 13.72009664 24.06602427 0.00016137 -0.00263299 0.00201942
N 9.55500226 18.42411548 26.10583051 -0.00093905 0.00319480 0.00154843
N 10.87719253 10.30286020 21.62281439 0.00005397 -0.00015266 0.00016658
N 8.67316215 12.97004113 19.69037389 -0.00006592 -0.00441238 -0.00235434
N 7.69422813 15.54789743 24.31507819 -0.00076875 0.00757730 0.00029354
N 10.80455430 10.84828409 26.00706661 0.00008622 -0.00162447 -0.00587201
N 9.42954561 18.34859011 21.70065282 -0.00208260 0.00049675 0.00507282
N 7.50189254 24.58520681 1.35611331 -0.00229083 -0.00050638 -0.00735413
N 8.85614223 23.27030763 5.59856257 -0.00355176 0.00067806 -0.00730014
N 9.05679955 27.94524968 8.45084964 0.00333236 -0.00136293 0.00717431
N 10.89763481 19.86695028 3.40612698 0.00627206 -0.00040884 -0.00015747
N 8.86047739 22.68960519 1.58931802 0.00178815 0.00232959 0.00545384
N 7.73548238 25.22596380 5.83181469 0.00354480 -0.00479209 -0.00284965
N 10.54274945 20.36445933 7.78266558 0.00725758 0.00189234 -0.00390146
N 9.65622787 27.77319838 2.99666181 -0.00435639 -0.00811605 0.00140652
N 7.14629116 24.51609015 10.09939460 -0.00242443 0.00147009 -0.00432262
N 8.86988702 23.28506553 14.62069103 -0.00311252 0.00294844 -0.00121908
N 9.30014881 28.23883101 17.05400247 -0.00073661 -0.00226083 -0.00054842
N 10.84800558 19.67606132 12.50752712 -0.00218477 0.00408692 0.00233457
N 8.75531299 22.84435535 10.30722937 -0.00835654 -0.00199782 0.00096931
N 7.93078861 25.24814716 15.20043821 -0.00359701 0.00153736 0.00201840
N 10.60071965 20.28876638 16.94226059 -0.00136530 -0.00653236 -0.00247327
N 9.34971416 27.46867667 12.09470198 0.00109963 -0.00531867 -0.00350141
N 7.69878914 24.41230795 19.59219978 0.00149697 0.00353239 0.00680280
N 9.15010403 23.19129647 24.15684958 -0.00328045 0.00001801 0.00152037
N 9.37036837 28.11240154 26.07166582 0.00043038 -0.00023498 0.00323259
N 11.01562425 19.97325687 21.80188764 -0.00009210 -0.00560943 0.00525700
N 8.68031442 22.34552548 19.74865129 0.01114970 -0.00006600 0.00133904
N 7.62865750 24.96442239 24.45581253 0.00007187 -0.00533032 -0.00206755
N 10.87282450 20.25491691 25.78117659 0.00650741 0.00328601 -0.00302668
N 9.77742700 27.37854724 21.37764511 0.00168622 0.00335557 0.00214778
N 11.43434454 5.33482947 1.18681063 -0.00486564 -0.00300744 -0.01125531
N 12.97852690 4.03838482 5.68578008 0.00479518 -0.00527257 0.00398575
N 13.29073800 8.90799452 7.82930174 0.00304441 -0.00222825 0.00054431
N 14.63084731 0.68116468 3.41705918 0.00203895 -0.00046905 -0.00583725
N 12.65230381 3.42341512 1.37023188 0.00378809 -0.00293568 0.00656071
N 11.65934736 5.92880374 5.97550388 -0.00496351 -0.00330878 0.00344641
N 14.26830881 1.45758704 7.89404210 0.00007869 0.00546430 0.00288119
N 13.66791978 8.16157412 3.06165047 -0.00100052 0.00016389 -0.00244692
N 11.16910632 5.16420672 10.20203905 -0.00116194 -0.00212279 0.00216399
N 12.49659681 4.01076215 14.80057315 -0.00378884 0.00136868 -0.00422632
N 13.01622149 8.82311229 17.25706803 0.00194072 -0.00164306 0.00393957
N 14.22271960 0.79943814 12.79367946 -0.00964281 -0.00367904 -0.00157638
N 12.43821122 3.28817108 10.65789598 0.00415810 -0.00016208 0.00068446
N 11.26345969 5.95119739 15.10629483 0.00393729 -0.00384556 -0.00426041
N 14.46605818 1.18522876 16.67977203 0.00476862 -0.00211052 -0.00067392
N 13.15845646 8.18953656 11.98047999 -0.00017272 0.00099905 0.00399259
N 11.65763676 5.67319640 19.39729396 -0.00351663 0.00156606 0.00379311
N 12.78708585 4.25792090 24.11114093 0.00246322 0.00400267 0.00070269
N 13.10749845 8.95010627 26.39854466 -0.00503645 0.00095743 -0.00693403
N 14.18721653 0.69546805 21.70112326 0.00107990 0.00237137 0.00485462
N 12.63232216 3.54655665 19.69251335 -0.00205357 0.00154383 0.00100084
N 11.43305715 6.05287755 24.24901464 -0.00190715 0.00217672 -0.00203696
N 14.55533488 1.14005557 25.77654615 0.00019263 0.00238080 0.00174121
N 13.28625518 8.50685898 21.26881858 -0.00069184 -0.00376739 0.00322704
N 11.41289666 15.02481444 1.39495519 -0.00000955 -0.00427472 -0.00384054
N 12.61870721 13.56032207 5.85981440 -0.00311986 0.00083188 -0.00269720
N 13.37184797 18.11227989 7.75718579 -0.00060907 -0.00163590 -0.00138054
N 14.71392850 10.17108104 3.42079478 -0.00207121 -0.00072755 0.00527406
N 12.69496719 13.21251072 1.52712634 0.00171695 0.00303681 0.00028702
N 11.43835819 15.49879723 6.38200031 0.00127372 -0.00006343 0.00422581
N 14.64928614 10.81156077 7.59008468 0.00059930 0.00550122 -0.00092111
N 13.29342098 17.99911578 3.35076178 0.00074883 -0.00588956 -0.00017910
N 11.33494083 14.99632369 10.57818076 -0.00215071 0.00068942 0.00058010
N 12.78297518 13.75351452 15.06737859 -0.00082897 -0.00249957 0.00578279
N 12.97508823 18.56496235 17.31825717 -0.00154516 0.00338149 -0.00047762
N 14.55210687 10.03060575 12.29083401 0.00602839 -0.00338429 0.00387599
N 12.38640651 12.89686794 10.72691064 0.00001206 -0.00409844 0.00316016
N 11.26662320 15.52178048 15.27688320 0.00548221 -0.00678752 0.00288289
N 14.10761808 10.86262709 16.85105843 0.00069810 -0.00365262 -0.00152774
N 13.25658779 17.62689030 12.04180901 0.00417205 -0.00262911 -0.00044844
N 11.11110751 15.02343668 19.54601420 0.00085129 -0.00273124 -0.00252927
N 12.64168836 13.43407853 23.93557544 0.00270497 -0.00068728 -0.00758211
N 13.40740785 18.48048800 26.25945164 -0.00449236 0.00534265 0.00004462
N 14.20556677 10.53263191 21.78735765 -0.00235100 -0.00061996 0.00038662
N 12.60585464 13.29801377 19.76056876 -0.00266535 0.00273999 0.00180434
N 11.64988780 15.40845000 24.42899227 0.00267690 0.00096667 -0.00072793
N 14.38762985 10.86244050 26.00544291 -0.00062005 -0.00604631 -0.00463646
N 13.29738208 17.74625361 21.52569563 -0.00431811 -0.00456652 0.00140033
N 11.10254773 24.75223040 1.31918037 -0.00049280 0.00422112 0.00148503
N 12.66973917 23.33584492 5.90442818 0.00024880 0.00164944 -0.00350065
N 13.13992523 28.18925097 8.01171592 0.00571139 0.00706546 0.00356756
N 14.29286911 20.14845534 3.67244232 -0.00338247 0.00224785 0.00150116
N 12.54749780 22.97584762 1.29570149 -0.00358144 0.00095563 0.00038122
N 11.36938582 25.29227513 5.91207310 -0.00185158 -0.00091391 0.00212136
N 14.40207083 20.06603902 7.66039075 0.00457812 0.00206966 0.00061942
N 13.37186829 27.55994573 3.12411796 -0.00494556 0.00283108 -0.00409782
N 11.23642207 24.36726610 10.57449945 0.00455022 0.00149696 -0.00063038
N 12.68854309 23.26762117 14.91476631 0.00038385 0.00103598 0.00680731
N 13.16400328 28.02743534 17.09287444 0.00027823 -0.00125630 0.00219592
N 14.46514349 19.53071866 12.58964239 0.00174256 0.00268502 0.00076329
N 12.65435474 22.51226149 10.79238253 -0.00088458 -0.00291764 -0.00691508
N 11.49991016 25.19720747 15.10427113 -0.00153610 0.00215195 0.00363014
N 14.48059780 20.27711086 16.91444124 -0.00467618 -0.00176426 -0.00242787
N 13.33368644 27.50354934 12.24064099 -0.00215373 0.00603697 0.00378339
N 10.99756651 24.36618063 19.36927112 0.00510999 -0.00517787 -0.00013559
N 12.58691459 23.16526094 23.89118581 -0.00730091 0.00377990 -0.00459482
N 13.19278260 27.98071475 26.25285752 -0.00397862 -0.00327033 0.00164729
N 14.29446877 19.76661378 22.07129460 0.00142138 0.00318693 0.00122092
N 12.44373497 22.67920112 19.36684361 0.00122563 -0.00225844 0.00572075
N 11.47124861 25.20212366 24.17273964 0.00050953 0.00016371 0.00137204
N 14.47256521 20.55778992 25.89930808 -0.00348825 -0.00061820 0.00136497
N 13.40500657 27.19990423 21.52432450 -0.00040010 0.00081616 0.00128475
N 15.27740435 5.43099075 1.20200877 0.00508126 -0.00195621 -0.00320180
N 15.99400122 3.96997220 5.79543364 -0.00059362 0.00106131 -0.00248174
N 17.02680357 8.88907843 7.96663339 0.00404042 -0.00440131 -0.00155757
N 18.30178333 0.85915925 3.47084418 -0.00266171 0.00387282 0.00330624
N 16.40330248 3.33114075 1.39209929 -0.00088973 0.00457656 0.00552309
N 15.60852832 6.17508413 6.06204409 0.00057464 0.00256738 -0.00375237
N 18.12106035 1.27653596 7.89787023 0.00255267 0.00546333 0.00480799
N 17.01152246 8.26985527 2.89439241 -0.00513013 -0.00454360 -0.00240950
N 14.80642087 5.13476810 10.31193841 -0.00736759 -0.00347854 -0.00337656
N 16.23808547 4.11953754 14.81021694 -0.00224566 -0.00416285 0.00407938
N 16.56273613 8.99673433 17.40510031 -0.00296994 0.00494582 0.00600592
N 18.28806813 0.52313445 12.40671257 -0.00368799 0.00019898 -0.00756877
N 16.28457453 3.38190162 10.77828322 -0.00596233 0.00211188 -0.00702381
N 14.96441624 6.05615254 15.16465599 -0.00921922 -0.00268761 0.00277453
N 17.98488961 1.23685414 16.60294922 -0.00074429 0.00127076 0.00522290
N 16.79800271 8.27146426 12.37592627 -0.00035611 0.00016350 0.00089751
N 14.97529020 5.57176546 19.41340469 0.00303585 -0.00248762 0.00074414
N 16.53241456 4.44616361 24.12502591 -0.00290581 -0.00175748 0.00040513
N 17.62308501 8.68778056 26.50993462 -0.00415265 -0.00401818 -0.00336911
N 18.07087132 0.71558913 21.51829910 0.00224696 0.00407881 0.00190392
N 16.13267604 3.59307782 19.65878790 -0.00223901 -0.00036061 -0.00156600
N 15.01396028 6.17093067 24.30417888 0.00946788 0.00269540 -0.00391756
N 18.10740752 1.24811195 25.86921624 0.00568887 0.00647316 0.00097432
N 17.01172600 8.59372605 21.62208450 0.00623121 0.00494565 0.00250575
N 15.12800478 15.21571847 1.14508425 0.00144625 0.00086940 0.00135323
N 16.50721376 13.87014582 5.72137746 -0.00385417 0.00068397 -0.00077676
N 16.67817180 18.50689404 7.85888072 0.00517555 0.00087127 0.00173922
N 18.39721596 10.17767575 3.12926095 -0.00384570 0.00142605 -0.00447403
N 16.43070459 13.35075572 1.61287648 -0.00215817 -0.00134384 0.00439858
N 14.88233708 15.45496255 6.20940552 -0.00080327 -0.00015976 0.00838308
N 17.97133093 10.90366764 7.71861432 -0.00010589 0.00032868 0.00465034
N 17.00402156 18.05519886 2.87748717 -0.00549661 -0.00658006 -0.00033664
N 14.72105953 14.78527739 10.22042195 -0.00027348 0.00775579 0.00061940
N 16.38646238 13.79035997 14.60913120 -0.00559465 0.00603612 0.00055537
N 16.90818866 18.45336155 16.99812853 0.00106172 -0.00326086 -0.00841998
N 18.19345776 10.10121609 12.73081257 -0.00927838 0.00043683 -0.00055266
N 16.27992374 13.08688107 10.41567748 0.00452195 0.00396497 -0.00067802
N 15.10760904 15.73977145 15.00238338 -0.00573885 0.01158642 -0.00117651
N 17.82066685 10.95717850 16.84972905 -0.00340476 0.00454004 0.00073738
N 16.84852908 17.75282102 12.08336679 -0.00216600 0.00656409 0.00378315
N 14.76323702 15.15382127 19.29733831 -0.00577722 0.00121547 -0.00018306
N 16.45929816 13.62964070 23.84553521 0.00175270 -0.00331093 -0.00191508
N 16.75565102 18.60413614 25.87258662 -0.00287549 0.00218793 -0.00024173
N 18.36019508 10.42687218 21.72126805 -0.00054054 0.00508970 -0.00085012
N 16.12668575 13.30570090 19.73266015 -0.00200904 0.00137228 0.00019300
N 15.01737968 15.37013523 24.32796823 0.00841388 -0.00740493 -0.00381104
N 18.13492655 10.93814785 26.19593999 0.00457507 -0.00418662 0.00183107
N 16.81309106 18.03785337 21.37316634 0.00541237 -0.00256494 -0.00036187
N 15.21959874 24.63925229 1.49899386 -0.00192589 0.00168109 0.00225627
N 15.86513327 23.19678330 5.95819711 -0.00443139 -0.00068287 0.00044166
N 17.01590231 27.95574275 8.00210773 -0.00388810 0.00306184 0.00462105
N 18.17632022 19.95173878 3.41014162 -0.00224643 0.00215073 -0.00461097
N 16.17574149 22.60634678 1.53896534 -0.00296041 -0.00168108 -0.00088390
N 15.14830806 25.32475449 6.07190361 -0.00365861 -0.00098465 -0.00118884
N 18.19795469 20.31927372 7.72211034 0.00024278 0.00319463 0.00463841
N 17.05675911 27.67362308 3.23260887 0.00141679 0.00339352 0.00527602
N 14.81634234 24.46836878 10.23101041 -0.00336812 0.00257144 -0.00207228
N 16.12030611 23.16754790 14.63321060 -0.00127298 -0.00105545 -0.00478844
N 16.76485249 27.94546782 16.89711453 -0.01026469 0.00313867 0.00019092
N 18.19020916 19.59997786 12.47222246 -0.00030507 -0.00269567 -0.00122842
N 16.27232666 22.71920276 10.52085687 -0.00072318 -0.00794738 -0.00337887
N 15.11960307 25.15121711 15.07979311 -0.00560937 0.00423811 -0.00077433
N 18.11537429 20.32152469 16.55280163 0.00206746 0.00181599 -0.00099378
N 16.93294284 27.37544862 12.28559812 -0.00200140 0.00531967 0.00156430
N 15.09788402 24.71938696 19.46075676 0.00269353 -0.00736601 0.00507854
N 16.34109005 23.21241293 24.06737492 0.00058160 0.00482344 -0.00502851
N 16.99811342 28.00563955 26.13883810 0.00001111 0.00457510 0.00101914
N 18.13962873 19.87764835 21.49343802 -0.00071456 0.00409957 0.00064245
N 15.96305408 22.58027462 19.72734090 0.00416090 0.00114673 -0.01014909
N 14.86864679 24.93182801 24.53526846 -0.00164221 0.00232361 -0.00065751
N 18.13426677 20.44538775 25.76494059 0.00164753 0.00067869 0.00543903
N 17.06690525 27.33235768 21.35429090 0.00190265 -0.00614643 0.00502017
N 18.50668872 5.31738223 0.83404960 -0.00049952 -0.00708156 -0.00341582
N 20.03132594 4.18652466 5.43789362 0.00125983 0.00289699 -0.00288717
N 20.42773687 8.81844293 7.79293758 -0.00080273 0.00112534 -0.00182393
N 0.11090944 0.76541565 3.48094774 0.00026067 -0.00317065 -0.00435405
N 19.92716314 3.51857385 1.42056290 0.00181936 0.00420608 -0.00196943
N 18.97508519 6.18681324 5.80979972 0.00258406 -0.00117126 0.00309142
N 21.47315891 1.16621356 7.59474183 0.00400246 0.00386847 0.00010711
N 20.89035486 8.46259583 2.83720345 -0.00279968 0.00169534 0.00050801
N 18.42537158 5.52758941 10.33482665 0.00304308 -0.00045890 0.00059012
N 20.05545572 4.18744202 14.80605680 -0.00419024 0.00852910 -0.00565252
N 20.19212870 9.03577643 16.61837277 0.00325901 -0.00419634 -0.00341421
N 21.76424088 0.72446206 12.65117789 -0.00358240 0.00072483 0.00558511
N 19.92763732 3.67594273 10.70949793 -0.00046650 -0.00069945 -0.00237825
N 18.56494463 5.91746342 15.17382723 0.00374488 -0.00015510 -0.00424065
N 21.64953010 1.37384299 16.90961109 -0.00005772 -0.00743575 0.00354457
N 20.40278912 8.49696064 12.12871551 0.00320406 -0.00023578 0.00145621
N 18.38409845 5.40388848 19.34140008 0.00281373 -0.00082511 0.00097171
N 20.11139430 4.06236606 23.61341135 -0.00224746 -0.00220403 -0.00177007
N 21.18128046 8.89566108 26.08263222 -0.00719681 -0.00439589 -0.00240766
N 21.65268176 0.64758210 21.63956798 -0.00685076 -0.00177360 0.00438802
N 19.76370868 3.45422056 19.44077674 0.00148703 -0.00620771 -0.00023486
N 19.06281787 6.04880271 24.01929093 0.00494336 0.00561813 0.00336525
N 21.61120182 1.33242778 25.80150555 0.00436634 -0.00376075 0.00431638
N 20.48132952 8.36886734 21.18851814 -0.00014676 0.00350322 -0.00180934
N 18.63204055 15.13976848 1.01163200 0.00164599 -0.00463429 0.00555706
N 20.04397934 13.70660986 5.56833597 -0.00273417 0.00591115 0.00457228
N 20.47770066 18.31971646 7.89219939 0.00396950 -0.00064144 -0.00310076
N 0.03132854 10.34377564 3.22050162 -0.00572382 0.00267096 -0.00446898
N 20.02837492 13.32932381 1.45150979 0.00469574 0.00640385 -0.00441782
N 18.78545419 15.61764356 5.98036407 0.00046660 0.00112656 -0.00229575
N 21.71291983 10.76202205 7.55317533 0.00269300 -0.00501487 0.00343862
N 20.58916491 17.99518369 3.00085907 0.00378211 -0.00126772 0.00202009
N 18.64476564 14.79454902 10.21167125 0.00582131 -0.00092080 0.00201559
N 19.92558024 13.55457011 14.89043924 -0.00099995 -0.00030407 -0.00062842
N 20.40278065 18.54072626 17.04176298 -0.00439167 0.00099206 -0.00525545
N 21.86280103 10.25600887 12.59364139 -0.00436744 -0.00205020 -0.00001997
N 19.87640439 12.89991516 10.66273269 -0.00283756 -0.00007795 -0.00018320
N 18.69033567 15.62621177 15.13343001 0.00183347 0.00336076 -0.00053774
N 21.54566193 10.83260894 16.88920042 -0.00195843 -0.00258799 -0.00011722
N 20.46336050 17.76381229 12.25483394 -0.00109845 -0.00565281 0.00148542
N 18.54645806 15.16358267 19.40110517 0.00274577 -0.00350859 0.00103775
N 20.22240471 13.88943288 23.65573809 0.00242701 0.00079743 -0.00353957
N 20.68813544 18.50213467 26.25527692 -0.00031122 0.00011608 0.00197896
N 21.78220780 10.24929935 21.74528905 -0.00089524 0.00292942 0.01189059
N 19.76223294 13.13982969 19.59486783 0.00169674 0.00295459 -0.00147398
N 18.78348726 15.55418440 24.39400083 0.00498497 0.00095895 0.00750382
N 21.83204962 11.14718967 25.68598121 -0.00167952 0.00392000 -0.00173539
N 20.61868950 17.75444076 21.43900072 -0.00058824 -0.00230868 -0.00163292
N 18.81301915 24.63357047 1.30893305 -0.00152342 0.00517143 -0.00626255
N 20.20165985 23.18497858 5.74856505 0.00888008 -0.00857830 0.00470695
N 20.38536050 27.84137343 7.85745086 0.00140289 -0.00046462 -0.00622890
N 21.88983500 19.87724796 3.06706879 -0.00182577 0.00018664 0.00821398
N 19.87871283 22.62274990 1.54926004 0.00181381 0.00168081 -0.00372876
N 18.73681279 25.01230451 5.87248688 -0.00151922 0.00071976 0.00376640