1728
Time=76000.00000007 pbc="T T T" Lattice="22.19173787 0.00000000 0.00000000 0.00000000 28.71457487 0.00000000 0.00000000 0.00000000 27.32282190" energy=-10385.70576787 virial="-4.35307679 -11.81306472 -11.79675765 -11.81306472 -30.51242465 8.45087398 -11.79675765 8.45087398 3.94487448" stress="0.00215143 -0.00068293 -0.00062534 -0.00068293 0.00092282 0.00051169 -0.00062534 0.00051169 0.00296530" Properties=species:S:1:pos:R:3:vel:R:3
N 0.17583951 5.45598450 1.19182718 0.00319176 -0.00170013 0.00377097
N 1.43394159 3.96740755 5.36672435 -0.00129761 0.00174667 -0.00079995
N 2.10687293 9.06871457 8.17990816 -0.00298349 -0.00969033 0.00478861
N 3.73236930 0.72426639 3.75472328 0.00029903 0.00407917 0.00255267
N 1.45122139 3.60981809 1.50852658 -0.00143020 -0.00885385 -0.00079428
N 0.27905367 5.89571756 5.90912403 -0.00743416 -0.00474601 0.00710058
N 2.82767044 0.96818310 7.59162245 0.00368736 -0.00263721 -0.00108979
N 1.86694456 8.32291118 2.95343775 0.00598824 -0.00022777 0.00030615
N 0.42879503 5.38110867 10.26855007 -0.00281173 0.00345834 -0.00254998
N 1.41618296 4.06025144 14.84484574 -0.00111148 0.00169190 0.00161520
N 1.97341357 8.44355864 16.99477314 -0.00090739 -0.00300403 -0.00820897
N 3.65881870 0.52984861 12.30833098 -0.00141099 0.00713200 0.00844816
N 1.48331522 3.40752363 10.69049203 -0.00026522 -0.00418266 0.00614363
N 0.35643832 6.11713562 15.16103553 -0.00291219 -0.00265948 0.01096858
N 3.42082277 1.31839933 16.57069264 -0.00118542 -0.00377367 -0.00593078
N 2.24780603 8.37280372 12.07936140 0.00330696 -0.00180540 -0.00351997
N 0.17894381 5.23027282 19.40674274 0.00019590 -0.00356366 0.00404303
N 1.36509750 3.92071015 23.94486305 0.00336267 0.00195237 0.00119549
N 2.40535374 8.62210429 26.35246411 -0.00314239 0.00298383 0.00014202
N 3.56041735 0.71813717 21.79105554 0.00609602 0.00484887 -0.00559592
N 1.35584108 3.29974411 19.74540682 -0.00203224 0.00224974 0.00522333
N 0.14194336 5.84393258 24.09776523 0.00282547 0.00176719 -0.01104728
N 3.32071445 1.54780008 26.01692522 -0.00480799 -0.00333344 -0.00491651
N 2.09308068 7.99584237 21.28312257 0.00367655 -0.00722038 -0.00262918
N 0.32310330 15.02489555 1.50360689 0.00435282 -0.00190528 -0.00132046
N 1.29868404 13.49237954 5.72970307 -0.00223015 -0.00905271 -0.00184018
N 2.03850979 18.50233721 7.98536204 0.00918132 -0.00641054 -0.00022982
N 3.22324876 10.12825576 3.41732057 -0.00169135 0.00320674 -0.00396643
N 1.45545789 13.10044213 1.77585145 0.00363432 0.00576160 -0.00630841
N 0.22498637 15.50483715 6.09579738 0.00343316 0.00470891 -0.00110151
N 3.40589721 10.80363308 7.46267536 0.00252238 -0.00001892 -0.00275160
N 1.97895190 17.93659918 3.11679382 -0.00801685 0.00792653 0.00309600
N 0.12085613 15.23719145 10.36191153 -0.00445621 0.00292423 0.00879035
N 1.52991040 13.51365686 14.83544317 0.00176527 -0.00352780 0.00026300
N 1.98141542 18.50958278 16.91927852 0.00360456 0.00317147 0.00397405
N 3.43255629 10.29816905 12.57899651 -0.00192157 -0.00182660 0.00628652
N 1.44724171 13.45652749 10.50554074 -0.00043374 -0.00570675 0.00254175
N 0.40343595 15.43463753 15.19885855 -0.00124172 0.00565573 -0.00311083
N 2.85018986 10.36986954 16.41549726 0.00318703 -0.00465388 -0.00434060
N 1.77218501 17.98057424 11.94860916 -0.00092675 -0.00089309 0.00554034
N 0.28384357 14.90095474 19.37253837 -0.00381298 -0.00078552 0.00025113
N 1.58859630 14.11614799 24.14358264 -0.00239860 0.00029400 -0.00323187
N 2.09529736 18.81281140 26.03587715 -0.00573269 0.00197494 -0.00081877
N 3.15735308 10.03827066 21.46001966 0.00461063 -0.00050149 -0.00457979
N 1.57556084 13.00764020 19.43904766 0.00303124 0.00099194 0.00280099
N 0.28044074 15.92317730 24.58067720 0.00538071 0.00179378 -0.00135134
N 3.22444264 10.70102996 25.57507404 0.00240496 0.00122880 0.00016479
N 2.19563633 18.33104409 21.37735602 -0.00228807 0.00425112 -0.00399624
N 0.00090130 24.77838570 1.51259708 -0.00868785 -0.00220317 -0.00378491
N 1.67120138 22.98977062 5.53988319 -0.00409478 0.00211972 -0.00047890
N 1.71808753 27.74646494 8.16699420 -0.01109707 -0.00547773 -0.00212262
N 3.28396452 19.85806351 3.50702689 -0.00069493 -0.00083081 -0.00507972
N 1.33119111 22.81545263 1.67848587 -0.00170117 -0.00752180 -0.00088934
N 0.40662739 24.91106977 6.19001525 -0.00312030 0.00831084 0.00408189
N 3.56677531 20.17791140 7.60107182 -0.00883046 0.00427594 0.00554768
N 2.33107542 27.55808464 3.40119911 -0.00169226 -0.00020215 -0.00293150
N 22.13475811 24.46848451 10.02925297 -0.00037512 -0.00420825 0.00429049
N 1.47403137 22.85610427 14.65498413 -0.00384498 -0.00495414 -0.00231668
N 2.19960750 28.10852485 17.06687002 -0.00324936 -0.00173263 0.00208113
N 3.54858454 19.51985806 12.17050109 -0.00553351 -0.00722781 -0.00481548
N 1.05628128 22.55131048 10.83718727 -0.00504351 0.00394500 -0.00272101
N 0.43644594 24.89022167 14.94697109 -0.00118931 0.00079776 -0.00722195
N 3.13302453 20.44351025 16.54422758 0.00043700 -0.00358394 0.00135911
N 2.31924585 27.23422316 12.14202018 0.00017049 -0.00292195 0.01024168
N 0.27778915 24.70459181 18.92441138 0.00072907 -0.00783177 -0.00144306
N 1.55507427 23.51901059 24.07383760 0.00100626 -0.00024125 -0.00091284
N 1.99885589 28.45114028 26.36133741 -0.00254171 0.00654552 0.00353722
N 3.65145546 20.24322738 21.60540489 0.00177613 -0.00289130 -0.00091564
N 1.48372074 22.81479867 19.51445776 -0.00172624 0.00353662 0.00107695
N 0.35422544 25.38704964 24.59476234 0.00076911 -0.00084081 -0.00098784
N 3.39998598 20.66330199 26.02208860 -0.00363295 0.00027542 0.00151239
N 2.06021115 27.64288913 21.38804986 -0.00001290 0.00335515 0.00038529
N 4.23338094 5.43052510 0.93576062 -0.00667767 0.00329247 -0.00306988
N 5.40524673 4.35745805 5.62125600 -0.00427565 -0.00683014 0.00615225
N 5.79096450 9.03738782 7.90818328 0.00689139 0.00918048 0.00818458
N 7.47134248 0.54279616 3.39863015 -0.00160013 -0.00198559 0.00526482
N 5.23607003 3.40349291 1.32670233 0.00160283 0.00637749 0.00247455
N 3.93318579 6.03130041 6.00201128 0.00551144 -0.00090498 0.00905427
N 6.67904556 1.61834741 7.54401847 -0.00271451 -0.00172687 0.00527166
N 5.63477258 8.29016263 3.14270447 0.00194249 -0.00208048 0.00164177
N 3.85970688 5.83832256 10.10040510 -0.00025283 0.00658412 -0.00257464
N 5.54848862 3.96220936 14.53681450 0.00029685 0.00267843 0.00109286
N 5.58989688 8.83991804 16.89922056 -0.00259962 0.00223539 -0.00153787
N 6.87312561 0.72485959 12.43660556 -0.00320964 0.00848673 -0.00490026
N 4.99822976 3.83668350 10.44734655 0.00023332 -0.00559767 0.00455065
N 4.28253694 5.81479203 15.00757021 0.00464354 0.00681272 0.00090372
N 6.54909778 1.35476861 16.67389145 0.00334931 0.00921594 -0.00025115
N 5.83608233 8.67520380 11.99527548 0.00499966 -0.00106178 0.00456072
N 3.96536730 5.26380912 19.01869573 0.00459671 0.00061066 0.00654392
N 5.32484355 3.77041028 23.59303615 0.00465368 -0.00236147 0.00679084
N 5.85941282 8.63353046 26.32692279 -0.00030797 -0.00016460 -0.00404188
N 7.63081607 0.74312349 21.75712112 0.00714643 0.00502122 0.00140564
N 5.19740861 3.42584853 19.53526166 0.00044735 -0.00303948 -0.00571901
N 4.03312587 5.69036569 23.77416737 0.00430205 0.00645846 -0.00441257
N 6.82901727 0.95714820 25.78433720 0.00249990 -0.00399771 -0.00567343
N 5.65109327 8.35796389 21.08197325 0.00551028 -0.00310452 0.00369654
N 3.87948213 15.01375467 1.09273323 -0.00348242 -0.00306044 -0.00133592
N 5.16588046 13.57144609 5.79545497 -0.00471733 -0.01028965 0.00256095
N 5.86140380 18.45178460 8.02819928 -0.00037736 -0.00602291 -0.00320542
N 6.74434958 10.41776072 3.39756628 0.00320118 0.00180987 0.00285410
N 4.90826178 12.96219757 1.42049446 0.00160285 0.00369387 0.00623097
N 4.18832689 15.53615076 6.33280307 -0.00674009 0.00305060 -0.00183196
N 7.15088017 10.92410137 7.51870549 0.00240750 -0.00639063 -0.00319259
N 5.64201483 17.77812256 3.08119316 -0.00373081 0.00294930 -0.00304242
N 4.04992457 15.14326428 10.62293577 -0.00435834 0.00613126 -0.00332468
N 5.48781713 13.42518606 15.14443992 -0.00456862 0.00086384 -0.00245846
N 5.32429753 18.48469440 16.87845208 -0.00347984 0.00713449 -0.00201623
N 7.51035344 10.21293932 12.26241923 0.00380686 0.00374746 0.00354148
N 5.27028686 13.26542375 10.94009741 0.00040123 0.00100680 0.00211398
N 3.87208129 15.12419758 15.17473064 0.00217423 -0.00463242 0.00446601
N 6.92421749 10.74053487 17.11923675 -0.00064147 -0.00040269 -0.00072410
N 5.98401770 17.95763796 12.27339433 0.00013999 -0.00918519 -0.00397954
N 3.65988112 15.10008924 19.72180636 -0.00288808 -0.00111252 0.00221911
N 5.44119622 13.63857812 23.92137726 0.00247720 0.00264762 -0.00037357
N 5.78526201 18.54431724 25.99232863 -0.00180097 -0.00159446 -0.00961432
N 6.73020898 10.34319762 21.56977880 -0.00294164 0.00092290 0.00271798
N 5.22014831 13.37264656 19.56155687 -0.00469372 -0.00126462 -0.00263625
N 4.19879522 15.48048438 24.13657902 0.00104875 -0.00083476 -0.00331483
N 6.88397763 10.60260341 25.55732033 -0.00228873 -0.00527324 0.00587292
N 5.75771893 18.14954706 21.16604757 -0.00108711 0.01037714 0.00562519
N 3.61139411 24.55248472 1.31778972 0.00129503 -0.00063901 -0.00252466
N 5.64161983 23.23218116 5.66451723 0.00294163 -0.00898948 -0.00060627
N 5.65014626 28.33326141 7.71535696 0.00157388 -0.00314866 -0.00061684
N 6.64795337 19.90585259 3.21784530 0.00704102 -0.00639044 0.00370149
N 5.03426046 22.83481918 1.81752519 0.00967801 -0.00186866 -0.00194588
N 4.19556321 25.13648706 6.21361370 -0.00879052 0.00224230 0.00056510
N 7.40659674 20.11067882 7.60626761 -0.00274641 -0.00229188 -0.00044263
N 5.86633719 27.61473464 2.94605504 -0.00190251 0.00348081 0.00113188
N 4.17321169 24.77505320 10.02032282 0.00015013 -0.00382728 0.00325043
N 5.40430006 23.10091425 14.72511628 -0.00316252 -0.00190094 0.00915843
N 5.78373330 27.85148636 16.93807569 0.00228985 0.00095904 -0.00306032
N 7.17088288 19.88224882 12.55299465 0.00079993 -0.00271309 0.00029249
N 5.13950904 22.73448842 10.61525414 0.00741711 -0.00115634 0.00098525
N 4.08256631 24.84258313 15.17917384 -0.00313286 -0.00099588 -0.00612959
N 6.68798531 20.41896891 16.64451362 0.00323627 0.00882798 -0.00651426
N 6.02357443 27.31974168 12.04447846 -0.00505451 -0.00012226 -0.00352950
N 4.20647954 25.08496948 19.20514654 -0.01044699 0.00049529 -0.00180035
N 5.37895990 23.38039267 23.94672896 -0.01054463 0.00404652 0.00441349
N 5.70201080 27.73041436 26.36674500 -0.00203256 -0.00470231 0.00044367
N 7.20884403 19.92476431 21.58746257 0.00040727 0.00158515 -0.00533473
N 5.35260174 23.09854370 19.50411703 -0.00562801 0.00449164 0.00000459
N 3.99875725 25.22090292 24.07727076 -0.00009481 0.00639473 -0.00282792
N 7.17000288 20.38142455 25.98837140 -0.00330081 -0.00176691 -0.00032548
N 6.21109627 27.71217827 21.25477146 0.00472960 -0.00165973 -0.00173328
N 7.52351771 5.36076398 1.21034052 -0.00029113 -0.00116938 -0.00176617
N 9.02518446 4.06230136 5.49283493 0.00069151 -0.00381069 0.00963921
N 9.37655981 8.80794532 7.69058583 -0.00779629 0.00006498 0.00887913
N 11.19097032 0.68803760 3.01627341 0.00159665 -0.00458361 -0.00517520
N 8.98960411 3.64722065 1.26727883 0.00653887 0.00034804 0.00363675
N 7.73776061 6.01291088 5.95029035 -0.00768487 0.00524463 0.00200990
N 10.46750997 1.23618235 7.59233592 -0.00368832 0.00409711 0.00994710
N 9.45988840 8.32522082 3.04468283 0.00368710 0.00624674 -0.00096277
N 7.52057472 5.39313768 10.21303305 0.00310995 0.00281571 -0.00427759
N 8.83016786 3.71303187 14.35669768 -0.00259840 -0.00089379 0.00341378
N 9.65505397 8.77217301 16.61953698 0.00095793 -0.00041686 -0.00008476
N 10.91321984 0.55025901 12.80923405 -0.00083457 0.00072385 0.00384221
N 8.53204799 3.36818913 10.79032141 -0.00455357 0.00105463 0.00173443
N 8.05981082 5.93566536 14.92040015 -0.00769712 -0.00116660 0.00135390
N 11.03874485 1.21269380 16.74121871 -0.00291039 -0.00164948 -0.00012198
N 9.81716640 8.30513602 11.87530343 0.00256678 0.00229708 0.00174196
N 7.35775346 5.32308937 19.17414083 -0.00278938 0.00074439 -0.00332250
N 9.21326235 4.17759014 23.97719132 -0.00896279 0.00066697 0.00140231
N 9.74374221 9.32754267 25.71016527 -0.00838442 -0.00130872 -0.00421585
N 11.16934430 0.62220798 21.80136863 -0.00277384 -0.00409523 0.00361992
N 8.85585549 3.47188606 19.48440429 -0.00088051 0.00139621 0.01168163
N 8.00889728 6.12721044 24.00143978 0.00198212 0.00246495 -0.00135255
N 10.88920694 1.28063802 25.78921625 0.00369930 -0.00068271 -0.00754133
N 9.47199967 8.16011885 21.21469889 0.00422290 0.00957988 0.00229746
N 7.60877316 14.92922989 0.94861168 -0.00436655 -0.00061659 0.00763399
N 8.84808275 14.03413852 6.03838434 -0.00032600 -0.00197093 0.00501951
N 9.86525878 18.06492038 7.95906914 -0.00369532 -0.00208060 -0.00237489
N 10.54683455 10.33088926 3.36123302 0.00456519 0.00069899 -0.00198967
N 8.79832791 13.05261527 1.11951505 -0.00445323 0.00400052 0.00180663
N 7.36588028 15.84267146 5.97317441 0.00272768 0.00077520 -0.00115532
N 10.83508609 10.49475328 7.46877611 0.00017629 0.00862306 0.00267017
N 9.97042777 17.76144676 3.25817297 -0.00504891 -0.00629796 0.00575178
N 7.80319193 15.16957634 10.42484273 -0.00565968 -0.00348547 -0.00380268
N 8.77338371 13.86685676 14.54947138 0.00509822 0.00040063 -0.00874744
N 9.59694411 18.36197857 17.55237547 -0.01196188 -0.00426850 0.00008277
N 10.99182866 10.24993966 12.20836669 0.00023549 0.00200013 0.00008383
N 8.82450538 13.06058001 10.26936687 -0.00020878 0.01332569 0.00361112
N 7.55363793 15.60340423 15.30695346 0.00881857 -0.00115637 0.00290221
N 10.65567349 11.01159551 16.55250879 -0.00389157 0.00475880 0.00577783
N 9.69040707 18.09385591 12.37963580 0.00320166 -0.00265031 -0.00086416
N 7.50520028 15.06356214 19.16520878 0.00533571 -0.00189138 0.00632373
N 9.16091346 13.88327021 23.83214387 0.00110200 0.00462747 -0.00271803
N 9.62594589 18.46285181 26.58831129 -0.00153727 0.00225927 0.00242156
N 10.54540479 10.18411762 21.22985839 0.00019094 -0.00059019 -0.00294665
N 8.45002509 12.96438651 19.56159050 0.00753463 -0.00308750 0.00205164
N 7.94877490 15.72926172 24.32706804 -0.00152746 0.00016542 -0.00074972
N 11.00044233 11.32316124 25.71927929 0.00154334 -0.00364035 -0.00086467
N 9.57001663 17.81205562 21.42190464 -0.00157862 0.00323154 -0.00081183
N 7.26817345 24.42228656 1.20318076 -0.00429257 -0.00071682 -0.00575111
N 9.01470683 22.91665413 5.25893279 -0.00475325 -0.00420802 -0.00360676
N 9.46394626 27.97363143 8.01905116 0.00451115 -0.00124310 0.00892608
N 10.40437076 19.95020233 3.70477509 0.00462319 0.00686325 -0.00573970
N 8.87600461 22.68008283 1.24606567 0.00404759 -0.00548751 0.00145831
N 7.79246738 24.85479072 5.59973913 -0.00772678 -0.00559269 0.00298670
N 10.61212406 20.14684858 7.40319559 0.00038252 -0.00517796 0.00307060
N 9.69574267 27.58042084 3.01036778 -0.00722401 0.00033975 0.00227254
N 7.83110822 24.45997962 10.06455654 -0.00561929 0.00141888 0.00119638
N 9.02334624 23.30142175 14.86014833 0.00111501 -0.00511276 0.00470737
N 9.29597826 28.55126572 17.50018467 -0.00198552 0.00316473 0.00854629
N 11.01629757 19.88091216 12.45711733 0.00010389 0.00041598 0.00012612
N 9.15701552 22.49310956 10.26706273 -0.00047676 0.00775205 -0.00201114
N 7.95701904 25.36566769 15.01404532 -0.00132731 -0.00656746 -0.00020069
N 10.74156477 20.20350905 16.78630321 0.00658360 -0.00055179 0.00235629
N 9.72192359 27.38656372 12.08190054 -0.00142693 0.00307630 0.00152774
N 7.64124385 24.72582291 19.41514630 0.00120928 0.00051923 0.00109176
N 9.24220162 23.48966891 24.59620526 -0.00122754 0.00432132 -0.00173043
N 9.49496938 28.17282756 26.03780627 -0.00115065 -0.00447488 -0.00391485
N 10.43315036 19.94460128 21.82152075 -0.00097533 -0.00354457 0.00616775
N 8.79263181 22.85067858 19.76553731 -0.00198625 -0.00031897 0.00250894
N 7.92045775 25.37163625 24.46068965 0.00524740 0.00365409 0.00074502
N 10.83324526 20.50109007 26.31684107 -0.00101512 0.00112408 0.00166351
N 10.04124792 27.36689141 21.51770640 0.00264657 0.00408233 -0.00279055
N 11.32391894 5.70835599 1.09527629 -0.00425091 0.00223695 -0.00509701
N 12.73922053 3.91607262 5.89703170 0.00065220 -0.00207824 -0.00413703
N 13.29478421 8.69977599 8.17524999 -0.00393606 0.00230133 -0.00038966
N 14.95408295 0.69428243 3.38107168 0.00567966 -0.00882733 0.00474378
N 12.69349793 3.84220582 1.35516637 -0.00431523 -0.00414768 -0.00209192
N 11.55814998 5.94912491 6.10321774 -0.00220872 -0.00101961 0.00280945
N 14.56524637 1.17337982 7.81023139 -0.00426401 -0.00510143 0.00023609
N 13.25099346 8.55109037 2.84366261 -0.00123338 -0.00123946 -0.00576501
N 11.18961775 5.02887853 10.05253342 -0.00333722 -0.00164259 -0.00164627
N 12.88182940 4.12526624 14.96073055 -0.00111470 -0.00331245 -0.01087956
N 12.97591560 9.25031060 16.81534441 0.00514915 0.00220640 -0.00042257
N 14.73714743 0.68054994 12.51859034 0.00253489 -0.00401336 -0.00639711
N 12.69577444 3.59332950 10.91569174 0.00953011 -0.00003569 0.00720628
N 11.63433333 5.96878045 14.83511785 0.00276949 0.00115572 0.00570042
N 14.57823636 1.16147492 16.91710784 0.00417642 0.00245934 0.00082057
N 13.47806490 8.36267323 12.20591494 0.00208977 0.00323716 0.00096823
N 11.54034592 5.62403317 19.09058133 0.00556083 0.00218647 0.00348492
N 12.66204515 4.28740080 23.72003606 -0.00065786 -0.00599031 -0.00569401
N 13.42814044 8.87207044 26.04231410 -0.00003973 -0.00112886 -0.00051597
N 14.85941457 0.39388030 21.90244432 -0.00878757 0.00089464 -0.00114207
N 12.65152816 3.66452735 19.47557989 -0.00412108 0.00281525 -0.00489452
N 11.76327581 6.36368820 24.03213738 0.00150275 0.00204186 0.00140042
N 14.46076006 1.53122795 25.83387300 0.00104389 -0.00006776 -0.00205317
N 13.05863541 8.31180476 21.08426831 0.00479830 0.00243055 0.00003447
N 11.30264003 14.90509157 1.26288792 0.00330484 -0.00128507 -0.00390826
N 12.49556550 13.47283754 5.60497308 -0.00314776 0.00012494 0.00237302
N 13.10510336 18.18341002 7.82182372 0.00548152 0.00017639 -0.00435636
N 14.64983168 10.08333311 3.82304487 0.00482900 0.00740427 -0.00159285
N 12.47932054 12.94826168 1.56493712 -0.00735961 -0.00097432 0.00471030
N 11.38575202 15.46950844 6.06687493 0.00050388 0.00100568 0.00275547
N 14.50002383 10.60125018 7.70573461 -0.00881865 0.00153670 0.00374122
N 13.58177860 18.02407589 3.33002574 0.00379200 -0.00002473 -0.00247433
N 11.33899806 15.24776706 10.09228684 -0.00250863 -0.00454457 0.00168103
N 12.57969180 13.96775285 14.69458149 -0.00292398 -0.00035802 -0.00085495
N 13.05853852 18.64385466 17.14138164 -0.00142297 0.00246171 0.00209222
N 14.94273672 10.04391782 12.64442542 -0.00155437 0.00378089 -0.00412464
N 12.57442425 13.31642424 10.23941307 0.00133139 0.00477831 -0.00368792
N 11.23125244 15.75571958 15.39803986 -0.00059652 0.00208915 -0.00301900
N 14.04009835 11.40215366 16.86863652 -0.00043589 -0.00402517 0.00134012
N 13.28367929 17.93311315 12.20314512 0.00656733 0.00367352 -0.00113963
N 11.13862156 15.17497311 19.03945373 0.00073888 -0.00413788 0.00138357
N 12.89806796 14.09267185 23.80017301 -0.00920206 -0.00221427 0.00106122
N 13.25363147 18.46262739 26.25666704 0.01100199 -0.00369222 0.00189163
N 14.30203500 10.21898499 21.49306686 -0.00406357 0.00101204 -0.00433662
N 12.55373700 13.40495079 19.64402214 -0.00427768 -0.00245390 0.00064543
N 11.39911168 15.72684440 24.14020620 -0.00100100 0.01011043 -0.00010414
N 14.77203744 10.72472203 25.43760165 -0.00074789 0.00310874 0.00361065
N 13.03225918 17.88824788 21.64167084 -0.00327498 -0.00654310 0.00377966
N 11.54579480 24.62567917 1.28582008 0.00175969 0.00064106 0.00391746
N 12.78868902 23.12652670 5.72990302 0.00606442 -0.00262340 0.00164217
N 13.04686188 28.17900247 8.22730721 -0.00198085 -0.00348012 0.00372397
N 14.66417928 20.08333417 3.40405920 -0.00053501 0.00254036 0.00624180
N 12.31820541 22.52690911 1.83584292 0.00322452 0.00167462 -0.00268780
N 11.43005498 25.01059147 6.26969475 -0.00308767 0.00290873 -0.00028276
N 14.26883869 20.28520426 7.54910853 -0.00065716 -0.00214976 0.00138250
N 13.57256609 27.65968822 3.21969571 0.00818769 -0.00205327 -0.00117135
N 11.42767887 24.52475650 10.31584386 -0.00498410 -0.00022920 0.00455518
N 12.53835491 23.15432800 14.54104854 0.00579451 0.00093126 -0.00394323
N 13.23361858 27.99985093 17.19246337 0.00175835 -0.00029169 0.00457035
N 14.33738235 19.92991279 12.39681928 0.00100275 -0.00006751 -0.00026304
N 12.70170304 22.68464965 10.66259620 0.00050469 -0.00370438 0.00747953
N 11.47114762 25.23161226 15.04059762 -0.00562549 0.00083652 -0.00972761
N 14.01557105 20.65670803 16.73625566 0.00404604 -0.00095271 -0.00993878
N 13.44019851 27.45540452 12.37597843 -0.00645099 0.00206671 -0.00778817
N 11.42690984 24.53069442 19.40835641 -0.00173735 -0.00250162 0.00063058
N 12.72855828 23.12303342 23.84466830 -0.00757595 -0.00728292 -0.00524938
N 13.10143027 28.28492246 26.18971907 0.00114592 -0.00167076 -0.00575120
N 14.40346001 19.72642147 21.52509607 -0.00106690 0.00564624 0.00106537
N 12.73578661 22.61466163 19.47356015 0.00388240 -0.00071035 0.00102303
N 11.86714533 25.31120498 24.24182945 -0.00449163 0.00443153 -0.00047950
N 14.48897777 20.29678268 25.80696508 -0.00032093 -0.00509599 -0.00130493
N 13.48550303 27.27439208 21.41019468 0.00091617 -0.00297091 0.00296221
N 15.02072402 5.53044800 1.08543339 -0.00629165 0.00089393 0.00229514
N 16.52696457 4.47506716 5.65626453 -0.00305546 0.00196233 -0.01019772
N 16.95898412 8.51162703 7.73519638 0.00708621 -0.00543282 0.00122701
N 18.19955213 0.78449954 3.28816332 0.00003658 0.00145682 0.00386178
N 16.10969942 3.51040228 1.33886036 -0.00072392 -0.00778491 0.00157546
N 15.04429900 6.29945596 5.71501978 -0.00175227 0.00296801 -0.00224330
N 17.90362008 1.39100859 7.59916473 0.00505201 0.00299018 -0.00467942
N 17.05802513 8.47056606 3.20059873 -0.00587504 -0.00441617 0.00174060
N 14.96361434 5.37867026 10.31794261 0.00170411 -0.00632933 -0.00629160
N 16.62994146 4.04421366 14.85488286 0.00140464 0.00456891 -0.00364060
N 16.99605753 8.61257792 16.92555058 -0.00518800 -0.00894309 0.00317085
N 18.19976754 0.62143378 12.42289431 0.00640086 -0.00607731 0.00557229
N 16.28273782 3.60714631 10.78561352 -0.00105766 -0.00120903 -0.00077799
N 15.28560461 5.95876641 15.18321375 0.00228041 0.00329242 -0.00148777
N 18.03297528 1.05222334 16.52939145 -0.00505499 0.00323373 0.00275234
N 17.24891409 8.10441637 12.00394434 -0.00013793 -0.00229463 0.00140580
N 15.14871182 5.48982388 19.45188738 -0.00071827 -0.00013260 -0.00496598
N 16.37960667 4.55782468 23.97298363 0.00011518 -0.00604770 0.00242527
N 17.39883667 9.15242552 25.97513486 0.01209180 0.00122354 -0.01148876
N 18.51695505 0.56799770 21.14003762 0.00395211 0.00198024 0.00847982
N 16.33644354 3.51637625 19.71024242 0.00179130 -0.00245993 -0.00199824
N 14.94257620 6.31272413 24.31954815 -0.00182000 0.00128818 0.00730600
N 17.78849462 1.26286318 25.60691461 0.00351080 0.00049891 -0.00233564
N 16.87167085 8.63182053 20.90943460 0.00106234 -0.00938776 -0.00631936
N 15.10940722 15.26323941 1.12130577 -0.00800115 -0.00720859 -0.00214373
N 16.44105698 13.55303164 5.82486515 -0.00020962 0.00346896 -0.00165075
N 16.71851380 18.22306822 8.43785547 0.00136251 -0.00261299 -0.00858733
N 17.92313066 10.62181366 3.49525876 -0.00162394 -0.00384594 0.00254465
N 16.45464164 13.47421473 1.63524898 0.00075379 -0.00460246 -0.00639748
N 14.96268498 15.32359930 6.23878732 0.00120736 -0.00068284 -0.00438122
N 18.17417458 10.46573214 7.43280401 0.00678037 -0.00043910 -0.00263524
N 17.14633384 17.48539235 3.51954831 -0.00499204 -0.00147772 -0.00293820
N 15.36020923 15.08438682 10.27740467 -0.00292202 0.00278563 0.00591550
N 16.24315404 13.94374220 15.03300959 -0.00014444 0.00150403 0.00050565
N 16.81760973 18.45394931 17.54836460 0.00514847 -0.00461168 0.00765025
N 18.46581631 10.02929059 12.46647110 -0.00682464 0.00297501 0.00451087
N 16.56615437 13.08680754 10.37300114 0.00299806 0.00054052 0.00289952
N 14.91812621 15.89846994 15.38887027 -0.00075081 0.01221348 0.00126582
N 18.01820153 10.69938925 16.61059220 0.00309495 0.00566823 0.00408447
N 17.13866657 17.53639608 12.43785102 0.00068251 -0.00069268 -0.00074501
N 14.82598043 15.04809973 19.67579530 -0.00030754 0.00275737 -0.00200081
N 16.84394832 13.99147159 24.02036086 -0.00796356 -0.00676036 0.00011138
N 16.73983472 18.51329295 26.50754833 -0.00157807 0.00523424 -0.00156922
N 18.08764117 10.61950470 21.40368409 0.00953097 0.00350001 -0.00274586
N 16.19977858 13.11994876 19.85604086 0.00200709 0.00111631 0.00065430
N 15.20437770 15.53677096 24.68595071 0.00133852 -0.00385436 0.00134995
N 18.66275645 10.95555571 25.64997961 0.00005326 -0.00407989 0.00357698
N 16.81174772 17.97450814 21.59078825 -0.00330061 0.00623936 0.00291979
N 14.82989583 24.32558802 1.30834352 -0.00612752 0.00067082 0.00448286
N 16.65643120 23.27236320 5.69446751 0.00272137 0.00358590 0.00270445
N 16.93677567 28.01136889 7.89664180 0.00229857 0.00172256 -0.00097094
N 18.31668387 19.54395233 3.75841013 -0.00466944 0.00737275 -0.00061677
N 16.14124366 22.46142815 1.49811142 0.00082270 0.00293086 -0.00011894
N 15.36352884 25.16209053 6.01112617 0.00206783 0.00252627 -0.00049645
N 17.70732599 20.15013230 7.68840538 -0.00250747 0.00000783 0.00320574
N 17.27835219 27.32705657 3.07602367 0.00121730 0.00120241 0.00365306
N 15.29354360 24.80434381 10.18722594 0.00023881 0.00022738 0.00658096
N 16.36041298 23.47628537 14.67195586 0.00401342 -0.00175146 0.00095024
N 16.86172630 27.82698113 16.89638701 -0.00286189 -0.00169400 0.00409954
N 17.90743799 19.75906551 12.76320475 -0.00255373 0.00167551 0.00615823
N 16.16893014 22.67462989 10.62529151 0.00889862 -0.00510721 -0.00226894
N 14.86839282 25.10312349 15.22386986 -0.00264789 0.00462443 -0.00797130
N 18.18222019 20.24246528 16.83268725 -0.00682981 -0.00072534 -0.00198507
N 17.06631116 27.32997105 12.26616630 0.00090899 -0.00353563 0.00078674
N 15.15053460 24.40865259 19.57807580 -0.00157427 0.00256545 -0.00374520
N 16.40254028 23.16742636 24.15583204 -0.00214649 -0.00293773 0.00160429
N 16.64231928 28.04353323 26.05307710 -0.00045783 0.00301129 0.00181226
N 18.37534171 19.71192893 21.78599527 0.00627114 -0.00105021 0.00564078
N 16.47605736 22.47620640 19.87719503 -0.00157865 0.00268770 0.00038405
N 15.13502064 25.14749714 24.34768231 -0.00043260 -0.00610294 0.00435894
N 17.97696508 20.44487693 26.09859457 0.00413106 0.00140846 0.00848416
N 17.15683363 27.40616332 21.16060573 -0.00231021 0.00270221 0.00015313
N 18.74719312 5.28845869 0.84915773 -0.00091783 0.00182564 0.00084528
N 19.72949925 3.79904375 5.58940001 0.00541799 -0.00133381 0.00569241
N 20.85994399 8.78325257 7.93558381 -0.00616744 -0.01173611 0.00153149
N 22.11105086 0.61945900 3.68854680 -0.00078586 -0.00312785 -0.00165949
N 20.15029320 3.62578256 1.69980616 -0.00202098 0.00245257 -0.00069609
N 19.11234059 5.92709430 6.16606258 0.00617862 0.00261211 0.00456920
N 21.64942458 1.16052037 7.69993500 -0.00401594 0.00982474 -0.00049068
N 20.58390439 8.33504649 3.04637808 -0.00428850 -0.00106135 0.00159808
N 18.82042384 5.36825306 10.16158679 0.00373895 0.00224258 0.00342955
N 20.14663894 4.27958852 14.51723402 0.00252366 -0.00664347 0.00166800
N 20.42833898 8.63915949 16.68579343 0.00115639 0.00132216 0.00022037
N 21.90022877 0.50766391 12.57551902 0.00112666 -0.00411679 0.00249837
N 19.86884863 3.38449790 10.76717500 0.00169668 0.00099077 -0.00482134
N 18.94510084 6.17982816 14.92856453 0.00002793 -0.00011318 -0.00267835
N 21.81695689 1.16329792 16.61500935 -0.00268309 0.00058313 0.00074218
N 21.21193245 8.30601058 11.66954927 -0.00001600 0.00166039 -0.00682722
N 18.65971973 5.64488953 18.88203948 -0.00013315 -0.00035644 0.00262221
N 19.87585268 4.16128444 23.74923042 -0.00206643 0.00036585 0.00226456
N 20.89246061 8.87470705 26.02316379 0.00370733 0.00049967 0.00072114
N 21.88356559 0.59862918 21.97632577 0.00702095 0.00047432 0.00122651
N 19.72900501 3.50659402 19.30692924 -0.00191959 0.00701841 0.00195462
N 18.99388426 6.31273689 23.81133889 0.00006191 0.00822895 -0.00152074
N 21.81726820 1.22719277 26.07661501 -0.00842108 -0.00261092 0.00881411
N 20.62062357 8.13435386 21.12259190 -0.00104090 -0.00255908 -0.00235140
N 18.80244855 15.13834339 0.72251009 0.00112097 -0.00361810 0.00117840
N 20.13632216 13.59846055 5.81290570 -0.00013152 0.00059519 0.00295462
N 20.27925500 18.51183826 7.95469522 -0.00079185 -0.00493709 0.00094867
N 21.64728111 10.38846497 3.30452508 -0.00712477 0.00074974 -0.00230625
N 19.97805981 13.23227393 1.35202883 0.00040928 -0.00457677 0.00070034
N 18.89191817 15.49970607 6.16056800 0.00061284 0.00476022 -0.00216394
N 21.75574062 10.88107927 7.73115805 0.00675336 -0.00590812 0.00056020
N 20.68072796 18.08390117 2.91207841 -0.00062741 0.00750058 -0.00381410
N 19.00125139 15.06731594 10.46076475 -0.00206647 -0.00565761 0.00280876
N 20.07482186 13.56919621 14.79295402 0.00483782 0.00491723 -0.00338827
N 20.30336239 18.36793751 17.18080485 0.00974199 0.00404703 -0.00572639
N 22.08698446 10.31187227 12.29880010 0.00015568 -0.00063693 0.00325104
N 20.08160061 13.12589376 10.84316248 0.00224970 0.00227969 -0.00462962
N 18.96848177 15.43916888 15.35369812 0.00170663 -0.00130549 0.00347995
N 21.76700522 10.54494907 16.34167546 -0.00034054 0.00388959 0.00367509
N 20.47084522 17.75156385 12.46434655 -0.00800932 0.00313579 0.00661681
N 18.59302394 15.02334575 19.46358634 -0.00149394 0.00468613 0.00107008
N 20.30960643 13.78410171 23.77796882 -0.00179587 -0.00482136 0.00256419
N 20.46911229 18.77302386 26.28261411 0.00098172 0.00211733 -0.00378567
N 21.83601239 10.05846382 21.51605076 -0.00063017 -0.00023234 -0.00099174
N 19.91244049 13.08496691 19.44847195 0.00623885 0.00075374 0.00490553
N 19.21839693 15.70236868 24.20641616 0.00139468 -0.00726095 0.00107263
N 22.15405203 10.81347899 25.67225498 0.00576866 0.00287460 -0.00409636
N 20.80610755 18.08449849 21.29789382 0.00104663 0.00141743 0.00607740
N 19.10370591 24.66045651 1.30206189 0.00262627 0.00164402 -0.00644629
N 20.19772666 23.32849085 5.76903405 -0.00136787 -0.00348676 -0.00417425
N 20.48913497 27.85302058 8.20105839 0.00130358 -0.00325248 0.00090126
N 21.95870447 19.74554390 3.70572017 0.00262687 0.00612215 0.00173774
N 19.92573226 22.55148912 1.64762860 0.00598034 0.00286023 0.00547905
N 18.89002467 25.16160519 6.23224480 -0.00015356 0.00527336 -0.00060029