1728
Time=49000.00000003 pbc="T T T" Lattice="22.10243898 0.00000000 0.00000000 0.00000000 28.76020703 0.00000000 0.00000000 0.00000000 27.46032849" energy=-10387.51597381 virial="36.50126376 -0.38420611 24.13945975 -0.38420611 16.83353048 -11.30730980 24.13945975 -11.30730980 -12.90925427" stress="0.00440836 -0.00002042 0.00134709 -0.00002042 0.00335785 -0.00059792 0.00134709 -0.00059792 0.00191113" Properties=species:S:1:pos:R:3:vel:R:3
N 0.29137900 5.20102373 1.29994321 0.00263546 0.00266641 -0.00264022
N 1.68505214 3.92361075 5.75267137 -0.00761870 0.00943551 0.00689895
N 1.91827842 9.05458013 8.21879590 0.00383959 -0.00287450 -0.00032568
N 3.53111809 0.66003361 3.62206147 -0.00087366 0.00737344 0.00477017
N 1.62691673 3.29802947 1.63983222 -0.00194932 -0.00292795 0.00958746
N 0.36399736 5.69616096 6.19577316 0.00498321 -0.00229537 -0.00188422
N 3.46118519 1.22725734 7.86525030 0.00065395 -0.00651198 -0.00267555
N 2.02020274 8.39134630 3.03310176 0.00366224 0.00375523 -0.00354596
N 0.20150302 5.71612162 10.41341093 -0.00259266 0.00134794 0.00167305
N 1.64439304 4.14632232 15.00127544 -0.00271173 0.00438681 -0.00153400
N 2.28313453 8.69641996 17.61348434 0.00507798 0.00072034 -0.00281072
N 3.70207212 0.85477224 13.07746444 -0.00076103 0.00811847 0.00189129
N 1.35134330 3.84016395 10.61744897 -0.00165544 0.00216943 -0.00356573
N 0.30354899 5.85490281 15.51705662 0.00039053 -0.00080637 0.00074959
N 3.51316586 1.10410099 16.83765343 -0.00272828 -0.00072069 -0.00009171
N 2.32392642 8.12477918 12.42874923 -0.00548235 0.00495925 0.00300104
N 0.08086874 5.32243130 19.51225098 0.00004005 0.00387024 -0.00367179
N 1.30978319 4.17483958 23.97702902 -0.00533989 -0.00238226 -0.00229778
N 1.76613096 8.71659234 26.31147086 0.00162656 0.00248575 -0.00125890
N 3.60637617 0.73961166 21.53323278 0.00330799 -0.00683813 -0.00450673
N 1.44783986 3.46768527 19.81785599 -0.00307990 0.00281129 0.00247372
N 0.18291588 6.19783503 24.06863950 -0.00061531 -0.00086161 0.00164464
N 3.14934079 1.53903024 25.76670104 0.00524129 -0.00319484 0.00254575
N 2.18682643 8.50667698 21.27265695 0.00189044 0.00296134 -0.00451487
N 0.13476987 15.01307167 0.98206272 0.00307459 0.00385296 0.00250910
N 1.56084008 13.94730146 5.51640511 -0.00005006 0.00388671 0.00254698
N 1.92083123 19.03898253 7.80345606 -0.00110542 0.00705976 0.00041678
N 3.35247116 10.30566851 3.43604750 -0.00489618 -0.00368481 0.00348803
N 1.32469096 13.06852539 1.69006240 -0.00085376 -0.00522595 -0.00274788
N 0.19217228 15.75775964 6.06689887 -0.00180429 0.00424034 0.00160964
N 3.22704039 10.90552785 7.74594860 -0.00199698 0.00813505 -0.00795004
N 2.22665256 17.87786801 3.08003086 -0.00424756 -0.00568914 0.00819436
N 0.42833096 14.93154298 10.15399696 0.00345356 -0.00258230 -0.00384282
N 1.73199468 13.55234211 14.44756900 0.01092830 -0.00435157 -0.00542378
N 2.04982811 18.14475019 17.17528325 -0.00356009 0.00245397 -0.00462022
N 3.80132709 9.91052204 12.76314716 -0.00251642 -0.00017558 0.00483022
N 1.71216346 13.00660960 10.43976796 -0.00243279 -0.00022898 0.00038799
N 0.53798547 15.43434775 14.97419156 0.00135348 0.00414574 -0.00556457
N 3.10653682 10.72305087 16.99180460 0.00637449 -0.00727006 0.00193717
N 2.16731930 17.85820221 12.43215257 0.00348382 -0.00077421 0.00283992
N 0.31410263 14.97410076 19.27890805 0.00090288 -0.00389463 0.00041599
N 1.67609994 13.67269849 23.88533889 -0.00229535 -0.00281599 0.00741571
N 2.06312878 18.45355072 26.28337336 0.00167640 0.00528408 -0.00404958
N 3.04602805 10.64405182 22.02916450 -0.00163987 -0.00221774 -0.00468888
N 1.55429216 13.06457433 19.80099595 0.00146337 0.00348165 -0.00085487
N 0.41909579 15.56180689 24.08824928 -0.00767403 0.00516627 0.00197196
N 3.12321420 10.45315105 25.73261635 0.00070180 0.00205618 -0.00240443
N 2.34121292 17.71994824 21.20826239 -0.00057219 0.00255737 -0.00053534
N 0.07518645 24.65352823 1.39140871 0.00442729 0.00837860 -0.00034078
N 1.74396059 23.39299655 5.97543960 0.00514071 0.00308660 0.00086978
N 1.96754072 28.30731530 8.07809950 -0.00145476 0.00538255 0.00363474
N 3.61728545 19.70087002 3.31883321 0.00242229 -0.00160368 0.00239980
N 1.22541324 22.68995272 1.58972932 0.00221825 -0.00157996 0.00350929
N 0.46410993 25.35159224 6.08131087 0.00184353 -0.00173927 -0.00269372
N 3.58655840 20.66379491 7.76708110 -0.00235779 0.00148904 0.00034219
N 2.18610417 27.49215644 3.22715425 0.00384356 -0.00087050 -0.00204329
N 0.28245011 24.93953000 10.73407699 -0.00001270 0.00317361 -0.00057458
N 1.90524193 23.21923331 15.38068137 0.00127930 0.00024596 -0.00157774
N 2.36119117 27.86211163 17.35470143 -0.00045234 -0.00465762 0.00615536
N 3.17218419 19.89178786 12.50074342 -0.00411272 -0.00034606 -0.00548645
N 1.23324286 22.75613160 10.83837207 0.00154228 -0.00529546 -0.00783780
N 0.37634792 24.99817632 15.45003837 0.00333494 0.00098556 0.00518297
N 3.50358166 19.97048525 17.17066279 -0.00501745 0.00279776 0.00532015
N 2.51347218 27.70226511 12.57775929 0.00644012 -0.00340980 -0.00054450
N 0.75389652 24.64010555 19.40400971 0.00037564 -0.00078642 -0.00213399
N 1.83052929 23.50499790 24.10931551 0.00876997 0.00214169 0.00558969
N 2.10433294 28.27443057 26.12583878 -0.00588362 0.00089496 0.00237237
N 3.69706237 19.50902719 21.92776865 0.00549948 -0.00668002 -0.00195275
N 1.68129430 22.61619197 19.80451493 0.01154613 0.00502869 -0.00122710
N 0.56022575 25.46980979 24.26062651 -0.00133590 0.00189470 0.00559159
N 3.43070063 20.27004658 25.73766285 -0.00145464 0.00499048 0.00331202
N 2.15024319 27.72170871 21.42709602 -0.00741029 -0.00506034 0.00335681
N 3.92762360 5.67117400 1.07832931 -0.00016161 0.00080862 -0.00139431
N 5.52896650 4.10354899 5.71784557 0.00288264 -0.00160697 -0.00085296
N 5.41421981 8.79480335 8.00840094 -0.00091415 -0.00875977 -0.00061458
N 6.98305623 0.95110315 3.55156712 -0.00514589 -0.01058754 -0.00161047
N 5.16140025 3.68232059 1.31590807 -0.00310385 0.00135145 0.00345099
N 3.94579978 5.80065144 6.01181390 0.00975296 -0.00595833 -0.00710366
N 7.09361137 1.05597323 7.60142875 -0.00255374 0.00056635 -0.00258071
N 5.79706135 8.25365997 3.04012309 -0.00239134 -0.00097811 -0.00142784
N 3.97474082 5.49725789 10.21439118 -0.00294170 0.00226247 -0.00173690
N 5.34828443 3.72955829 14.73041608 -0.00652774 -0.00598553 0.00035026
N 5.87411042 8.61782022 17.16470926 0.00216982 -0.00110707 0.00087480
N 6.80691220 0.71508287 12.61069814 -0.00006341 -0.00694663 -0.00527710
N 5.32229550 3.67814662 10.70112153 -0.00401040 0.00141888 -0.00685078
N 4.08236647 5.71018138 14.94019260 -0.00154614 0.00246846 0.00615315
N 7.10413339 1.18493349 16.85643990 0.00189676 0.00504567 0.00358409
N 6.11696891 8.17445640 12.16028323 -0.00537080 -0.00201351 0.00264171
N 4.23469203 5.56730208 19.43716326 -0.00069480 0.00223208 0.00274650
N 5.15696379 4.30699369 24.14970858 0.00543308 0.00411000 -0.01234789
N 6.10537587 8.62573402 26.33916016 0.00159574 -0.00366840 -0.00315124
N 7.37010933 0.56827204 21.69223353 -0.00610458 0.00049976 -0.00067592
N 5.48077994 3.67066368 19.88822527 0.00190815 -0.00636425 0.00030321
N 3.77982324 6.16431103 24.22747072 0.00117109 -0.00198728 -0.00244788
N 6.86912327 1.54546181 26.18478962 -0.00269354 -0.00035908 0.01472056
N 5.76920313 8.42038945 21.36361963 -0.00141840 0.00323716 0.00665019
N 3.83935035 15.32571041 1.00577387 0.00298855 0.00170905 0.00784246
N 5.21961337 13.64525081 5.36269884 0.00088005 -0.00640698 0.00167667
N 5.84795503 18.41325638 8.04921445 0.00721653 0.00321641 0.00017140
N 6.73542142 10.34789628 3.22947509 0.00414983 -0.00049628 0.00657679
N 4.94280843 13.24598830 0.97849626 0.00128232 0.00546237 -0.00284786
N 4.12697068 15.44546745 6.19268214 -0.00232177 -0.00123179 0.00171758
N 6.68654206 10.82058569 7.56638291 -0.00020510 -0.00351041 0.00900556
N 5.83827518 17.81698969 3.20007533 0.00168294 0.00129284 0.00428442
N 4.02776561 14.99479720 10.43436323 0.00284767 0.00153291 0.00445538
N 5.28628272 13.56796760 15.33918108 0.00048475 0.00232953 -0.00271122
N 6.12805307 18.46866942 17.22776904 0.00509952 -0.00879076 -0.00073800
N 7.31324212 10.12118067 12.42806759 0.00267922 -0.00924316 -0.00094019
N 5.12127355 13.08393945 10.98080284 -0.00331838 -0.00269936 -0.00718408
N 4.26035774 15.71835548 15.43327250 0.00016587 -0.00042223 -0.00458170
N 7.00654521 10.62204013 16.55469852 -0.00159915 -0.00101635 0.00064441
N 6.02880832 18.08369415 12.73657522 -0.00538919 -0.00115924 0.00052793
N 4.38782362 15.13140290 19.45941308 -0.00197157 -0.00091314 0.00397751
N 4.85211702 13.78998274 23.98036236 0.00627306 0.00743389 -0.00158438
N 5.85624711 18.44244709 26.45836868 -0.00132552 0.00011186 0.00471996
N 6.99109432 10.34651366 21.61151465 0.00522267 -0.00166292 0.00092144
N 5.33706867 13.02495581 19.63690264 -0.00218916 -0.00478541 0.00307857
N 3.75602306 15.76153652 24.29667805 0.00076104 0.00550328 -0.00065988
N 6.82900299 10.68837053 25.60667947 -0.00572775 0.00142091 0.00697183
N 6.34223665 17.81626592 21.84846307 -0.00114150 0.00313941 0.00414468
N 3.59142159 24.67776340 1.00847908 0.00112322 0.00569945 0.00211254
N 5.16980443 23.50270011 5.67558642 0.00288777 -0.00446192 0.00739550
N 5.73268071 28.01047065 7.85721230 -0.00335388 0.00334759 0.00561833
N 6.68730229 19.96212685 3.54900593 -0.00647971 0.00047977 -0.00430701
N 4.98605148 22.96387665 1.33666538 -0.00346659 0.00079952 -0.00119833
N 3.83984378 25.28301717 6.15785814 0.00493675 0.00128936 0.00136252
N 6.72593322 20.50489415 7.69548486 -0.00251743 -0.00216413 -0.00411732
N 5.81353281 27.80313511 3.02190414 0.00543123 0.00469029 0.00066807
N 3.86824931 24.63294311 10.38376049 0.00099081 -0.00048796 0.00139026
N 5.16687845 22.68520399 15.12064294 0.00876184 -0.00723695 -0.00112320
N 5.76784600 28.03742725 17.17015380 0.00455547 0.00174761 0.00368135
N 7.04701860 20.18293030 12.57691493 -0.00119139 -0.00033948 -0.00963820
N 5.09603049 22.73518491 10.66564997 -0.00214859 -0.00228773 -0.00629165
N 4.28592421 24.82213845 15.29211916 0.00180843 0.00372116 -0.00231374
N 7.30119007 20.45728952 16.80748121 0.00549373 -0.00151997 -0.00380824
N 5.86569454 27.40402255 12.33367246 -0.00617362 0.00005480 0.00515886
N 3.99240012 24.53442645 19.77346749 0.00332238 0.00251845 -0.00496191
N 5.24867631 23.73215486 24.41955379 0.00107035 0.00478289 0.00003600
N 5.50145124 28.45617140 26.24510346 -0.00340389 0.00591952 -0.00189806
N 7.16959113 20.00214867 21.96237904 -0.00678794 -0.00219536 -0.00112909
N 5.30460558 22.63611283 19.81228696 0.00183543 0.00069188 -0.00128772
N 3.91029138 25.61869049 24.43526408 -0.00827352 0.00514929 0.00753300
N 6.90255849 20.43840397 26.16162775 -0.00109024 -0.00058292 0.00627410
N 5.92275328 27.48593875 21.35708557 -0.00385566 0.00561489 -0.00058705
N 7.71219942 5.35628176 1.34087978 -0.00159988 0.00524271 0.00486940
N 8.86131893 4.14287808 5.74045833 -0.00408365 -0.00082564 -0.00116409
N 9.33720314 8.85949852 7.87495451 -0.00103392 -0.00252657 -0.00696188
N 10.93007349 0.74405753 3.34971059 0.00284230 -0.00169870 0.00014748
N 9.08707116 3.54107577 1.40549480 0.00342576 -0.00229334 -0.00141935
N 7.62953037 6.18297321 5.87697127 -0.00314404 0.00622986 -0.00073535
N 10.60688210 1.09600121 7.63994744 0.00273426 -0.00500315 -0.00380456
N 9.63289462 8.65770939 3.24853976 0.00216938 -0.00038975 0.00148914
N 7.53832308 5.29632368 10.34972278 -0.00245597 -0.00070984 0.00150478
N 8.92539563 4.00422830 15.11181419 0.00108024 0.00029330 0.00352600
N 9.16592598 8.79923684 17.06235524 0.00493850 -0.00082821 -0.00181909
N 10.71008269 0.72479358 12.39556039 -0.00239818 0.00219786 -0.00097212
N 8.99126913 3.38553168 10.47628820 0.00929565 -0.00373344 -0.00732121
N 7.90242392 6.07981979 15.12833788 -0.00343015 -0.00320820 -0.00284158
N 10.72992297 1.67300775 16.99255721 0.00205084 -0.00392420 -0.00189824
N 9.72469374 7.99644165 12.19086349 -0.00000981 -0.00131111 0.00334138
N 7.69266390 5.52571028 19.56941764 -0.00152245 -0.00007173 0.00108678
N 9.03636022 4.35426206 24.08226668 -0.00294383 -0.00349002 0.00495116
N 9.15684369 8.84467282 26.26794214 -0.00259070 0.00154495 0.00640318
N 10.40689522 0.65013205 22.00547055 0.00105982 0.00206409 -0.00383154
N 8.95342364 3.69858994 20.02577549 -0.00514556 -0.00633878 0.00313260
N 7.59528729 6.05201693 24.50038530 -0.00533686 -0.00350685 0.01169562
N 10.61611654 1.35663782 26.19204134 -0.00546818 -0.00236642 0.00263263
N 9.83719893 8.36845230 21.39847611 -0.00036083 0.00001886 0.00647541
N 7.57141873 15.22126438 1.15426413 -0.00100376 0.00243126 -0.00402840
N 8.80628719 13.66035511 5.89980961 -0.00095065 0.00846004 0.00328405
N 9.30098576 18.55106037 7.97978129 -0.00617956 -0.00383226 -0.00417748
N 10.94782998 10.46447662 3.55446573 -0.00952820 0.00890883 0.00135275
N 8.64208329 13.34048415 1.76416481 0.00852664 -0.00242575 -0.00170798
N 7.55411427 15.57544011 6.17102991 0.00123166 0.00539253 0.00311452
N 10.35513722 10.85631931 7.42844714 -0.00234001 -0.00000691 -0.00229525
N 9.57224351 17.54933285 3.44962184 0.00105707 0.00194811 -0.00252496
N 7.72894235 15.27239018 10.60484744 -0.00555516 0.00120004 -0.00017816
N 8.86953083 13.54214544 14.97303291 0.01146655 0.00478903 -0.00104257
N 9.53683967 18.55719887 17.10324489 -0.00387667 0.00376752 0.00324013
N 10.93851215 9.96794420 12.26378988 0.00561289 -0.00459522 0.00462749
N 8.95807170 13.31999657 10.54470561 0.00145148 0.00426856 0.00252992
N 7.73760738 15.55349112 15.21465171 0.00073610 0.00029505 0.00897590
N 10.82549937 10.52794764 16.97756621 -0.00545010 0.00133661 -0.00080543
N 9.52649043 18.26042185 12.20973073 0.00067098 -0.00156888 0.00495020
N 7.69668502 15.00789948 19.60668378 0.00465357 -0.00001067 -0.00028484
N 8.98265477 13.81406106 24.08629978 -0.00362747 0.00324265 -0.00203164
N 9.41503343 18.68158126 26.65117910 -0.00432235 -0.00158803 0.00519645
N 10.94986519 10.29627507 21.58640057 -0.00555618 -0.00140313 0.00159774
N 9.17466606 13.16850027 20.05770425 -0.00168788 -0.00199671 -0.00030904
N 7.47583219 15.59539703 24.28453563 0.00195840 -0.00745028 0.00065121
N 10.45900558 10.77276879 26.15257390 0.00555831 0.00784037 -0.00456255
N 9.88835376 18.13731282 21.55206466 0.00468654 -0.00433750 0.00030308
N 7.30093497 24.94677666 1.26168560 0.00425475 0.00399841 0.00137588
N 8.61516039 23.20979660 5.64245731 0.00235831 -0.00379744 0.00045390
N 9.37396147 27.87441215 7.71933965 0.00562833 -0.00211181 0.00094434
N 10.59169280 19.55369705 3.68414217 0.00359375 0.00140942 0.00652257
N 8.23664964 22.96921991 1.64355959 0.00056224 0.00462411 -0.00227041
N 7.39815510 25.18355465 5.89549544 -0.00059097 -0.00567892 -0.00071999
N 10.26540880 20.56980663 7.62946898 -0.00285869 -0.00616032 -0.00372791
N 9.61145718 27.65974053 3.08913057 0.00362155 -0.01212192 0.00138651
N 7.34610526 24.85285680 10.38555090 0.00028517 0.00022850 0.00349430
N 9.12205159 23.36513902 15.09121018 -0.00393741 0.00068250 -0.00539680
N 9.90518882 28.28546605 17.27289508 0.00583550 -0.00146335 0.00538992
N 10.57211354 20.16080443 12.99870985 0.00578650 0.00755850 0.00269273
N 8.61784799 22.87824428 10.32876788 0.00145545 0.00110293 0.00040946
N 8.24160002 25.51253397 15.43944542 0.00275726 -0.00787977 -0.00057570
N 10.94001729 20.49581917 17.01896112 0.00113506 0.00169059 0.00378602
N 9.63553051 27.49275717 12.35341125 -0.00618812 -0.00333892 -0.00165123
N 7.80260708 24.87080373 19.40862244 0.00588915 0.00288912 0.00876565
N 8.85663408 23.28723781 24.28998707 0.00179277 0.00201973 -0.00456774
N 9.14265066 28.35245599 26.37409083 0.00665699 -0.00199204 0.00463406
N 10.80825260 20.16742713 21.94090641 -0.00695706 -0.00481276 -0.00027884
N 9.18236169 23.01157989 19.65158533 -0.00426076 -0.00221532 -0.00181586
N 7.67636800 25.27885047 24.19730213 0.00028139 -0.00584368 -0.00385554
N 10.74786128 20.39324369 25.90780303 0.00554400 0.00677665 -0.00090937
N 9.33433397 27.31947045 21.93434665 0.00138874 0.00694346 0.00319730
N 11.18686771 5.69225608 1.36106281 0.00096075 -0.00091261 -0.00445776
N 12.22911237 3.89296366 5.86378608 0.00100265 -0.00192050 -0.00099791
N 12.97036206 8.76092339 8.00999208 0.00708960 0.00068936 0.00252328
N 14.56796687 0.63824204 3.25627221 -0.00482561 0.00492882 -0.00369913
N 12.61280176 3.92341326 1.75206594 -0.00592982 -0.00478413 0.00179681
N 11.34583031 6.00032605 6.20839144 0.00208197 -0.00698988 -0.00048428
N 13.84742836 1.35544330 7.71178242 -0.00054973 -0.00445911 0.00247584
N 13.19710634 8.52379313 3.23063664 0.00075613 -0.00421248 -0.00492192
N 11.28423503 5.14414384 10.30599741 0.00169665 -0.00271517 0.00446342
N 13.06337486 4.24726338 14.95336583 -0.00104736 -0.00420499 -0.00147589
N 13.20202060 8.71349491 16.93502211 -0.00236257 0.00272800 -0.00251159
N 14.64713016 0.06662665 12.48926362 -0.00140682 0.00026717 -0.00227138
N 12.58657140 3.28309977 10.78226445 -0.00529976 -0.00522757 0.00020950
N 11.58725448 5.99068854 15.20669901 0.00022504 -0.00025919 -0.00336356
N 14.33535465 1.10334354 16.83767324 -0.00863584 0.00132677 -0.00429866
N 13.42381742 8.42969237 11.97725223 0.00331222 -0.00031926 0.00410209
N 11.45646252 5.67956395 19.55623400 0.00223985 0.00518035 -0.00191620
N 12.59648120 4.00764314 24.20831937 0.00472761 0.00203054 0.00834410
N 12.96310588 9.00326659 26.06534406 0.00085066 -0.00820325 0.00001114
N 14.35548557 0.62549673 21.55811888 0.00516306 -0.00190878 0.00592066
N 12.30887084 3.67022775 19.91021079 -0.00338157 -0.00331310 0.00130666
N 11.41193471 5.95697025 24.40298853 0.00316946 0.00149301 0.00142972
N 14.61146495 0.90828856 26.12640786 0.00441416 -0.00552051 0.00337412
N 13.33245256 7.93016033 21.58325050 -0.00618869 -0.00239374 0.00415913
N 11.15269867 15.16652929 1.04412307 0.00075237 0.00179416 -0.00447695
N 12.62069953 13.53006697 5.79079575 -0.00227676 0.00601041 -0.00146501
N 12.82726680 18.27428925 7.98008551 -0.00474466 0.00486362 -0.00161294
N 14.45880496 10.43937750 3.53576699 -0.00257105 0.00183134 -0.00127214
N 12.09862074 13.12988854 1.35492493 0.00363175 0.00060527 -0.00121652
N 11.31736665 15.40600901 6.27886373 -0.00328214 0.00082495 0.00109574
N 14.12992807 10.66180424 7.48938122 -0.00476223 0.00187249 -0.00471405
N 13.31583154 17.60608882 3.17479659 0.00601494 0.00395577 -0.00844337
N 11.39848149 14.85433356 10.51471906 0.00026428 0.00166226 -0.00083055
N 12.78212539 13.64642223 14.98817360 0.00216977 0.00198353 -0.00105296
N 13.07098093 18.65679571 17.20825200 -0.00129068 0.00106822 0.00000761
N 14.77196669 10.21275820 12.38418669 0.00224045 0.00070462 -0.00591414
N 12.83332787 12.97216457 10.65265237 0.01115436 0.00254305 -0.00101870
N 11.44811580 15.54185909 15.38881003 0.00098524 0.00095069 -0.00720458
N 14.51530934 10.64789125 16.68152162 -0.00514222 0.00175805 -0.00078195
N 13.16659156 17.94676521 12.30559183 0.00160248 -0.00048247 -0.00629717
N 11.39983234 15.33092287 19.64571588 -0.00437976 -0.00214873 0.00016909
N 12.73151304 13.94400074 24.08630436 -0.00039785 -0.00028028 -0.00087772
N 12.91935732 18.67992658 26.48177189 0.00571444 -0.00362862 0.01095614
N 14.24659825 9.96679675 21.64312838 -0.00979748 -0.00055110 0.00104685
N 12.36600158 13.16218755 19.71317413 -0.00325177 -0.00142055 -0.00266629
N 11.35387391 15.77901033 24.50908824 0.00207216 0.00276407 0.00517660
N 14.22165686 10.92227604 25.84755910 0.00222788 0.00194998 0.00200123
N 13.53272231 17.97568769 21.58151637 -0.00020451 0.00264841 -0.00393811
N 11.12069581 24.74806566 1.12748425 0.00101730 0.00536627 0.00324430
N 12.42538789 23.22118710 5.40801616 0.00329905 -0.00563533 -0.00449952
N 13.00222358 28.05760280 8.02959714 -0.00001538 0.00190421 0.00066847
N 14.35124542 19.70622583 3.08694752 -0.00106451 0.00530803 -0.00255585
N 12.05799928 22.76236691 1.53157842 -0.00228886 0.00416316 -0.00054498
N 11.71633711 25.28376121 5.91785339 -0.00187872 0.00271774 0.00312663
N 13.95418769 20.19277766 7.49839753 -0.00012126 0.00265476 -0.00449380
N 13.29110321 27.45783107 3.20714264 -0.00406010 -0.00429830 -0.00286333
N 11.17548080 24.45732404 10.22315359 0.00147831 -0.00250237 -0.00049284
N 12.59220841 23.23413114 14.81941946 0.00427292 0.00663958 0.00493310
N 13.02248942 27.97855472 17.33275225 0.00021690 0.00429850 0.00631641
N 14.44174613 19.81563194 12.54787683 0.00226372 0.00125039 -0.00486413
N 12.14468313 22.34673371 10.55621509 -0.00378644 0.00332377 -0.00109805
N 11.61721029 25.29955032 15.26647730 -0.00074423 -0.00001186 -0.00765086
N 14.42445107 20.55845104 16.98307107 -0.00428311 -0.00078010 -0.00031794
N 12.87989387 27.40027301 12.08709315 -0.00093823 -0.00410469 -0.00054138
N 11.29375748 24.93915697 18.88777714 0.00299063 0.00405875 -0.00313569
N 12.93451565 23.28627547 23.74108104 0.00932190 -0.00182718 -0.00003274
N 13.17845080 27.90827207 26.27781348 0.00202559 -0.00174604 0.00012607
N 14.62914097 20.02570816 21.76697822 0.00520700 0.00138718 0.00167096
N 12.37159928 23.18298609 19.82533546 0.00646539 -0.00342874 0.00186276
N 11.42310075 24.89380253 24.42234947 -0.00009471 0.00339505 0.00012343
N 14.52233470 20.35456964 25.93161510 -0.00450001 -0.00188503 0.00362928
N 13.04662868 27.50057396 21.44030057 0.00043628 -0.00291729 0.00431678
N 15.16738758 5.68181905 1.26600008 -0.00125631 -0.00127924 0.00106017
N 16.17080705 3.98138423 5.73256762 -0.00327196 -0.00152117 -0.00265756
N 16.76447317 8.83911139 7.80234150 -0.00273822 0.00638042 0.00546141
N 18.03237104 0.87612478 3.24014408 -0.00306485 0.00054542 -0.00410312
N 16.42932423 3.70524295 1.03459284 0.00357338 -0.00355298 0.00106541
N 14.87340314 5.91149366 5.98695949 0.00748687 0.00039213 -0.00286374
N 17.89967788 0.96132933 7.51940346 -0.00314103 0.00131331 0.00299370
N 16.97861186 8.44618272 2.85333415 0.00502317 0.00282178 0.00265224
N 15.26064149 5.33230542 10.55430703 0.00414190 -0.00028957 0.00072630
N 16.38098506 3.96654640 15.06136510 0.00494684 -0.00989060 0.00412373
N 16.86468250 8.93152536 17.15890061 0.00257295 0.00145383 -0.00360645
N 18.06393166 0.37473699 12.70952308 -0.00720011 0.00311356 0.00197758
N 16.41317878 3.36491129 10.54626941 0.00488100 0.00331907 0.00141318
N 15.60137111 6.16544086 15.06468608 0.00732518 0.00697389 0.00057085
N 18.14883007 0.90193983 16.93125258 0.00027356 0.00135908 -0.00174188
N 17.23975054 8.44504850 12.31544114 0.00173671 -0.00427580 -0.00048584
N 14.84088310 5.51873243 19.55767038 -0.00135692 0.00195119 -0.00320194
N 16.12697227 3.86202063 23.86866934 -0.00633169 -0.00867474 0.00137711
N 16.62450734 8.95820136 26.26852554 -0.00678961 -0.00684496 0.00338880
N 18.10003622 0.65100286 21.79070997 -0.00096090 -0.00034411 -0.00195662
N 16.25620913 3.72163853 20.03533731 0.00369161 0.00461231 0.00062760
N 15.15650279 5.87642686 24.52478888 -0.00259951 0.00044865 -0.00034494
N 18.11154175 1.42339431 25.80132549 0.00166983 -0.00135989 -0.00090230
N 17.03330718 8.46197482 21.49925285 0.00438232 -0.00065138 0.00005268
N 14.87832573 15.25083859 0.93427137 -0.00484217 0.00415467 -0.00265536
N 16.32397986 14.01211062 5.28768190 0.00842400 0.00315737 -0.00403328
N 16.79500463 18.42524549 7.88138734 -0.00223187 -0.00027668 0.00139457
N 18.18044560 10.46776649 3.19779457 -0.00058202 -0.00627864 0.00035934
N 16.15463945 13.33543676 1.52121608 0.00125868 -0.01056024 0.00466409
N 14.76763926 15.73716115 5.84969196 -0.00241702 -0.00127455 0.00223227
N 18.07246458 10.89018197 7.36499705 0.00676447 0.00123104 -0.00260984
N 17.01105096 18.57293550 2.86603017 -0.00204927 0.00085233 0.00221802
N 15.06546918 15.18383402 10.11308903 -0.00049595 -0.00434314 -0.00130207
N 16.30957382 13.63890996 14.86769971 0.00437771 -0.00041045 -0.00607845
N 16.70926697 18.56939260 16.89479364 0.00074519 -0.00658194 0.00404390
N 18.26713265 10.40482387 12.21827664 -0.00438565 0.00074827 0.00101492
N 16.29847292 13.28236414 10.44883743 -0.00270678 0.00182921 0.00361760
N 15.14736823 15.65320457 14.92645958 0.00061644 0.00097427 -0.00188306
N 17.93287507 10.97258246 17.07826823 -0.00605531 -0.00480324 -0.00193066
N 17.30086442 17.83766207 11.82562026 -0.00187822 -0.00308479 -0.00071016
N 14.91881478 14.95409382 19.49418214 -0.00343753 0.00182608 0.00489693
N 16.37866658 13.84426698 23.99281917 -0.00022426 0.00077649 0.00441988
N 16.65086492 18.62418349 26.36017681 -0.00214806 0.00551086 0.00389466
N 18.04034832 10.45153633 21.92573227 0.00154019 0.00902045 0.00056388
N 16.26393669 13.04183333 19.80441194 -0.00229487 -0.00395889 -0.00233792
N 15.07518721 15.65527608 24.38959510 -0.00229754 -0.00309187 0.00591970
N 18.31166170 10.63040249 26.02961965 -0.00164765 -0.00125308 -0.00225905
N 16.99648222 17.87445240 21.39173225 0.00475110 0.00257530 0.00230782
N 14.80135399 24.60566254 1.19238619 -0.00001015 0.00432192 -0.00224498
N 16.41519492 23.39067471 5.80982725 -0.00105210 0.00034714 0.00173536
N 16.76805749 27.77952026 8.01594255 -0.00172989 -0.00146950 0.00260117
N 18.46536304 19.84718558 4.16995101 -0.00171276 -0.00424690 0.00007528
N 15.79588899 22.53482796 1.59381809 -0.00549197 0.00016079 -0.00599275
N 15.07889669 25.20106073 6.13626933 0.00177817 0.00097205 0.00005585
N 17.74775982 20.52840924 7.89182861 0.00029204 -0.00400623 -0.00469350
N 16.88872580 27.64163921 2.90716576 0.00055597 -0.00204311 -0.00441544
N 14.76430494 24.56832951 10.13524661 -0.00429066 0.00124887 -0.00270288
N 16.36238566 23.38312743 14.96402000 -0.00438349 -0.00633092 -0.00215079
N 16.77620638 27.72778500 17.27792473 -0.00142751 0.00697768 -0.00751133
N 18.05147169 19.91156777 12.47265914 -0.00304381 -0.00293447 -0.00236179
N 16.10037832 22.72479516 10.37324226 0.00125633 0.00252510 0.00738388
N 15.09365679 25.27835105 15.31207165 -0.00492145 -0.00046683 -0.00543672
N 17.97864803 20.47011877 16.81503572 -0.00353303 0.00277383 -0.00585903
N 16.94984846 27.13535287 12.59496972 -0.00565564 -0.00083531 -0.00333022
N 15.38939119 24.79132915 19.58844432 -0.00035354 -0.00345968 0.00891631
N 16.53574761 23.20967133 24.03536847 0.00441243 0.00388729 -0.00141217
N 17.12339047 28.08111102 26.18233472 -0.00117166 0.00377714 0.00331233
N 18.20813541 19.80635514 21.43760473 -0.00054802 -0.00101066 -0.00003895
N 16.44136598 22.73430777 19.84219723 -0.00136148 0.00426951 0.00561722
N 15.58866654 25.28299793 24.58842934 0.00036492 -0.00021782 -0.00815475
N 18.25502336 20.15178339 25.80561273 -0.00287410 0.00058577 0.00261134
N 16.72168020 27.62548820 21.35927224 0.00365921 -0.00032710 0.00355425
N 18.82108275 5.26652833 1.17219789 0.00410793 -0.00259883 0.00598101
N 19.87748734 3.88765191 5.55831648 0.00193479 -0.00633822 0.00087770
N 20.37157803 9.00796315 7.85075141 0.01049720 0.00322582 -0.00484195
N 21.85406889 0.59520755 3.56540918 0.00117622 -0.00126578 -0.00403184
N 19.88872497 3.29341627 1.34103939 0.00117877 -0.00806179 0.00409596
N 19.00006500 5.98190701 5.95563196 -0.00374023 0.00154568 0.00378983
N 21.43053669 1.36407254 7.51713692 -0.00234039 -0.00148618 0.00500135
N 20.48925281 8.29497278 2.98858271 -0.00160557 -0.00471034 -0.00212466
N 18.64744298 5.41443259 10.33426791 -0.00811756 0.00302788 -0.00567768
N 19.98049678 3.99125755 15.06912541 -0.00262511 -0.00305580 -0.00203618
N 20.75640059 8.82402511 17.28079978 -0.00152020 0.00043869 -0.00437263
N 0.06756276 0.56348680 13.08736641 0.00206165 -0.00007315 -0.00380742
N 19.88870830 3.45983678 10.33952368 0.00529684 0.00055270 -0.00300691
N 18.72532704 5.92931193 15.37065345 0.00353108 0.00565325 -0.00270241
N 21.64289679 1.26480562 17.09859972 -0.00901619 0.00186768 0.00870385
N 20.53965742 8.50780137 12.10580743 0.00679892 0.00117428 -0.00174023
N 18.60622034 5.53392448 19.39147649 0.00522351 -0.00831686 0.00088006
N 19.96067502 4.20135167 23.63425175 0.00441869 -0.00191963 -0.00125405
N 20.74231210 8.51519852 26.45002368 -0.00794162 -0.00188058 -0.00080910
N 22.00710114 0.97607489 22.18399414 -0.00169383 -0.00339282 -0.00060643
N 19.43942608 3.38257804 19.88869843 -0.00005525 0.00103389 0.00036020
N 18.52221995 5.80661415 24.54824523 0.00038610 -0.00028524 -0.00139433
N 21.65590617 1.50643157 26.03715948 0.00193399 -0.00482621 -0.00905661
N 20.39737359 8.35251178 21.33010035 0.00064125 -0.00174706 -0.00113863
N 18.79417776 15.14593041 1.03184268 0.00333333 0.00613064 0.00324852
N 19.93973637 13.86170153 5.68268961 -0.00397402 0.00028531 0.00347977
N 20.29178683 18.79730422 7.94762531 0.00366314 0.00268475 0.00221925
N 21.70429437 10.18305795 3.39785367 -0.00455388 -0.00260302 0.00010222
N 19.96667188 13.17838332 1.43421053 0.00392435 -0.00478011 0.00385528
N 18.77785871 15.72321568 5.99809652 0.00288178 -0.00805813 0.00083080
N 21.21999329 11.13493966 7.39150666 -0.00748347 -0.00401042 -0.00146273
N 20.61330169 18.01484775 3.11812054 -0.00003790 0.00156314 -0.00447782
N 18.75055182 14.99669056 10.14707601 -0.00077025 -0.00140276 -0.00033017
N 20.15050701 13.36159235 14.78648113 0.00192795 0.00423197 0.00598838
N 20.19138064 18.45609375 16.83400987 0.00277753 -0.00453557 0.00293761
N 0.10450429 10.08957920 12.70931847 -0.00289348 0.00078654 0.00130745
N 20.18272103 13.10592545 10.31543099 0.00058886 0.00044836 -0.00098165
N 18.97083512 15.33083846 14.82650388 0.00570495 0.00111471 0.00063873
N 22.08589185 10.69840578 16.82633987 0.00598120 0.00731931 -0.00095841
N 20.56693057 17.97339296 12.22181543 -0.00376276 0.00268555 -0.00744211
N 18.78829890 14.84093454 19.28762941 0.00163020 -0.00223956 -0.00161389
N 20.01973462 13.85431684 23.97740512 0.00199455 -0.00186101 -0.01017938
N 20.65181315 18.65518693 26.18065554 0.00011191 -0.00080229 -0.00374160
N 21.78722134 10.08036503 21.79001667 -0.00078088 -0.00279068 -0.00238567
N 19.90594897 12.91797891 19.87894218 0.00012002 -0.00317788 -0.00346285
N 18.69466646 15.69935355 24.22618705 -0.00127136 0.00063120 -0.00040510
N 21.50889985 10.63376529 25.90636932 0.00098410 0.00092901 -0.00570935
N 20.84827472 17.93970366 21.34859947 -0.00041689 0.00153193 -0.00913831
N 18.88002537 24.58936988 0.49016428 -0.00526972 0.00199114 -0.00668087
N 20.31854583 23.34468806 5.09671686 -0.00239868 -0.00201289 -0.00761836
N 20.48608949 28.04901017 7.99493093 -0.00067785 0.00409476 0.00666722
N 22.06776148 19.77616158 3.48143444 0.00330938 -0.00513539 0.00033115
N 19.71814179 22.61400644 1.05883432 -0.00202141 0.00710205 -0.00102235
N 18.79221953 24.96107447 5.67432834 -0.00252168 0.00243625 -0.00156084