1728
Time=31000.00000001 pbc="T T T" Lattice="22.24004420 0.00000000 0.00000000 0.00000000 28.59397910 0.00000000 0.00000000 0.00000000 27.20488341" energy=-10388.76568651 virial="29.95582887 -36.84382586 0.09088077 -36.84382586 42.77597423 3.30789870 0.09088077 3.30789870 32.83160360" stress="0.00407124 -0.00209523 -0.00003578 -0.00209523 0.00501325 0.00010583 -0.00003578 0.00010583 0.00485489" Properties=species:S:1:pos:R:3:vel:R:3
N 0.72133096 5.48918570 1.05785518 0.00589745 0.00235356 0.00187844
N 1.95986012 4.25565936 5.75672110 -0.00153819 -0.00469212 0.00339129
N 2.07124879 9.45676416 8.43932583 0.00161988 0.00770947 0.00204783
N 3.50929305 0.41996612 3.15188940 -0.00628859 -0.00100256 -0.00073114
N 1.67396118 3.40564042 1.20845746 0.00613661 -0.00216481 -0.00285856
N 0.70477697 6.14889315 5.82808054 -0.00320880 0.00182857 0.01085315
N 3.24585025 1.48340703 7.62119864 0.00641675 -0.00437418 0.00138102
N 2.43108532 8.33669994 3.31548719 0.00768456 0.00371592 0.00252572
N 0.22636772 5.66157209 10.28328508 -0.00306017 0.00105793 -0.00545861
N 1.78991356 4.15873141 14.91129788 0.00144974 -0.00580778 0.01111408
N 2.09157308 9.03720026 17.00043963 0.01301137 0.00112991 0.00170792
N 3.42378916 0.82128805 12.56386256 0.00403958 -0.00323189 0.00413807
N 1.19023273 3.47682884 10.55323784 -0.00389197 0.00208535 -0.00186184
N 0.30129082 5.92998708 15.23352495 -0.00094823 0.00299466 0.00073197
N 3.42596247 0.98927104 16.96172397 0.00272511 0.00046382 0.00698045
N 2.22509327 8.62560232 12.14164826 -0.00082073 -0.00498165 0.00119770
N 22.02859018 5.39310560 19.23712936 -0.00681609 0.00314102 0.00541392
N 1.67868842 3.95755978 23.80370819 -0.00380807 0.00176127 0.00179801
N 1.92882186 8.89874609 26.04627584 -0.00463436 -0.00443388 -0.00057731
N 3.67089953 0.56897598 21.47175377 0.00119608 -0.00350395 0.00212569
N 1.20041446 3.57581959 19.72318829 0.00278063 -0.00277362 0.00120520
N 0.58973175 5.91287125 24.18641387 0.00053213 0.00016650 0.00349011
N 3.59947457 1.17134389 25.60474399 -0.00480518 0.00088633 0.00097738
N 2.41597406 8.30656252 21.06787284 -0.00037842 -0.00250145 0.00176684
N 0.31856257 15.02722954 0.92737120 -0.00051562 -0.00373379 -0.00126324
N 1.85566881 13.79882195 5.56542701 0.00051782 -0.00114164 -0.00170089
N 1.96611308 18.23911060 7.86936473 0.00438087 0.00055503 -0.00186574
N 3.45683641 10.32330013 3.70124263 0.00097841 0.00302932 -0.00677370
N 1.47965717 13.08454836 1.16489619 -0.00480688 -0.00246113 -0.00337653
N 0.34780199 15.52965718 5.44758214 0.00302476 0.00161752 -0.00552497
N 3.27191162 11.37235912 7.91214686 -0.00051609 -0.00680040 -0.00748057
N 2.22691494 17.82409071 2.96997564 0.00274972 -0.00367309 0.00111633
N 22.13435117 15.76147616 9.48126403 -0.00616192 -0.00559065 0.00682357
N 1.76781318 13.15525325 14.20583407 -0.00236008 0.00311830 -0.00239796
N 1.60975653 18.21956552 17.43898443 0.00501059 -0.00195517 0.00224613
N 3.43929007 10.55138659 12.72729598 -0.00101222 0.00345390 -0.00040812
N 0.72837110 13.77278379 10.54459164 -0.00416025 0.00692762 0.00349314
N 0.47643849 14.88602943 15.01672618 -0.00063323 -0.00019723 -0.00512355
N 3.50710942 10.87084297 16.85227052 0.00365014 0.00268721 0.00435196
N 2.13409695 17.82035521 12.48690999 -0.00390575 0.00493565 0.00685772
N 0.17953143 14.66732837 19.08188462 0.00494944 0.00280949 0.00092067
N 1.71848481 13.52756589 23.39270233 0.00401503 0.00179270 -0.00366683
N 2.00502163 18.30193870 25.99682186 -0.00153040 0.00059629 -0.00172622
N 3.81376434 10.21727273 21.44883979 0.00080420 -0.00107344 -0.00563310
N 1.61597949 13.02870463 19.58452140 0.00022725 0.00278798 -0.00544585
N 0.81954073 15.59369621 23.75237849 -0.00620246 -0.00231315 0.00260199
N 3.27987362 10.72916443 25.81573006 -0.00427796 0.00397621 -0.00188727
N 2.39078354 17.87241945 21.05930702 0.00449803 -0.00264302 -0.00819923
N 0.21702530 24.54229333 1.18357470 0.00155186 0.00007758 0.00595625
N 1.72920384 23.16901145 5.70094694 -0.00006001 0.00303614 -0.00006892
N 2.09963203 28.04907304 7.75139011 -0.00291978 0.00259973 -0.00125918
N 3.42446344 19.76634500 3.27960312 -0.00193637 -0.00455673 0.00047111
N 1.35491623 22.61245450 1.50896713 -0.00358861 0.00543813 0.00699798
N 0.68827383 25.16976838 5.99999770 0.00073386 -0.00116063 -0.00216430
N 3.06719749 20.25277895 7.56960910 0.00415964 0.00044821 -0.00278999
N 2.16188110 27.12718449 2.93334069 0.00215305 0.00212503 -0.00375638
N 0.23930069 24.46199769 10.38740018 -0.00644327 -0.00114393 -0.00182117
N 1.14652697 23.22745127 15.09314056 0.00078273 -0.00047280 0.00027529
N 2.03508308 27.86687996 17.39918990 0.00131383 -0.00200950 0.00089615
N 3.25676846 19.85710135 12.85066081 0.00297801 0.00402402 0.00022740
N 1.52769261 22.61740882 10.69651180 -0.00378019 -0.00024387 -0.00733345
N 0.12174498 25.26213323 15.26844020 0.00427995 -0.00415795 -0.00282010
N 3.01907350 20.00747562 16.77302017 0.00223392 0.00088259 0.00009582
N 2.11983273 27.60831482 12.29609704 0.00100919 0.00143619 0.00257745
N 0.38002764 24.64265912 19.60013094 0.00480826 -0.00070737 0.00048351
N 1.63914698 23.45896021 24.12966545 -0.00576299 0.00216745 0.00125738
N 2.04744792 28.14496752 26.02729426 -0.00224802 -0.00205500 0.00039742
N 3.86929036 19.67905177 21.57852120 -0.00120317 -0.00019051 -0.00089157
N 1.56800589 22.66331710 19.74753106 0.00056386 -0.00126290 -0.00206881
N 0.21217195 25.26692404 24.24810330 0.00366685 -0.00221783 -0.00118463
N 3.22035071 20.19196208 25.59486907 0.00496634 0.00042726 -0.00761025
N 2.28631443 27.29231537 21.32704919 0.00483854 0.00175081 -0.00344258
N 4.14556143 5.65199207 1.25140330 -0.00040483 0.00353616 -0.00001129
N 5.19633722 4.17713095 5.68038464 -0.00751774 -0.00716913 -0.00115807
N 5.71346197 8.87069324 7.80452081 0.00264044 0.00736359 0.00396519
N 7.27792779 0.88389859 3.47310774 -0.00467133 0.00095437 0.00351972
N 5.50301858 3.82545041 1.55347234 -0.00561385 -0.00878025 -0.00761297
N 4.14106279 6.21818159 6.01288401 -0.00549625 0.00045196 0.00221075
N 7.04326764 1.46432280 7.45409393 0.00278822 0.00552709 -0.00430103
N 5.86204191 8.24507900 2.83980718 -0.00045202 0.00070866 -0.00149473
N 3.88131575 5.62280104 10.33948457 0.00035251 0.00041829 -0.00440883
N 4.98705071 4.00585623 14.66199813 0.00085959 -0.00129761 -0.00207650
N 6.36417347 8.83321861 16.84592749 0.00641385 0.00051280 0.00825834
N 7.11963946 1.07833663 12.43040666 -0.00675525 -0.00008522 0.00491029
N 5.03068467 3.70572784 10.70573681 0.00639071 -0.00191133 0.00698539
N 4.13865515 6.13120822 15.00669349 -0.00052240 0.00791942 -0.00014808
N 7.18426277 0.98606672 16.66864845 -0.00052274 -0.00608056 -0.00246536
N 5.81682098 8.58313646 12.13913242 -0.00122307 -0.00112555 0.00135946
N 3.72267134 5.30011422 19.11226075 0.00118102 0.00022631 -0.00082981
N 5.30900291 4.08968501 23.53528872 -0.00135458 -0.00475096 0.00345708
N 5.79150633 8.65993416 25.80626009 0.00548504 0.00733000 -0.00519677
N 7.62351765 0.69356810 21.55317666 -0.00240303 0.00121382 0.00157289
N 5.07986811 3.49649609 19.60900422 -0.00139635 0.00163868 0.00063194
N 3.98873907 5.91714968 24.04321077 0.00156895 0.00511120 0.00814848
N 7.31288540 1.43522373 25.66123953 0.00659552 -0.00007432 -0.00349324
N 6.16455591 8.22187081 21.17079403 -0.00117486 -0.00090245 0.00095630
N 3.99328244 15.07134275 1.06855350 0.00004178 -0.00184352 0.00531083
N 5.30830564 13.65181599 5.68574344 -0.00645049 -0.00119532 0.00764777
N 5.54169701 18.37352501 7.95641490 -0.00051066 0.00179795 -0.00365638
N 6.95158524 10.16552225 3.26561067 0.00173314 0.00280788 -0.00305230
N 5.07373567 13.09448413 1.54494765 -0.00858749 -0.00100981 -0.00659012
N 4.22211287 15.63668918 6.18831738 -0.00200785 -0.00017405 0.00196098
N 6.80791637 10.88536669 7.36036375 -0.00846634 0.00430044 0.00412679
N 5.96074699 17.91083663 3.22884550 0.00461587 0.00551054 0.00273994
N 4.12371211 15.03743556 10.35516223 -0.00451185 -0.00468649 -0.00287377
N 5.49122195 13.72560049 14.83551696 -0.00427527 0.00382964 0.00587977
N 5.41184896 18.45866145 17.30433852 0.00238148 -0.00270331 -0.00079767
N 7.38058177 10.35145815 12.27310777 -0.00116997 -0.00758244 -0.00055921
N 5.07847578 12.97896475 10.68846056 0.00104817 0.00288831 0.00378233
N 4.15067038 15.48448475 15.22491514 -0.00611963 -0.00794088 -0.00008193
N 6.96437407 10.98621745 16.41089594 0.00215949 -0.00061981 -0.00102936
N 5.78588107 17.85548868 12.71607496 0.00148182 -0.00551020 -0.00475316
N 4.24031838 15.10186615 19.55207165 -0.00415284 0.00808868 0.00264478
N 5.27593266 13.26569806 23.65478819 0.00479210 0.00008648 0.00091794
N 6.05117606 18.18691335 26.03108425 -0.00021819 0.00003714 -0.01055955
N 7.31292194 10.19633777 21.20303753 0.00536384 -0.00151254 -0.00562766
N 5.14478526 12.93768516 19.89641353 0.00226264 0.00215768 -0.00141547
N 4.18479641 15.31589497 23.88226506 0.00401528 -0.00541158 0.00264765
N 6.90726333 10.78565475 25.65900510 0.00256283 0.00150949 0.00438263
N 6.17678154 17.94301511 21.19322149 -0.00110487 -0.00491195 -0.00701451
N 4.09987213 24.59695302 0.99670847 -0.00003667 -0.00445091 0.00162432
N 5.54426423 23.24342922 5.85805492 -0.00154241 -0.00202565 -0.00040699
N 5.83146502 28.01413202 7.92217271 0.00183913 0.00620043 0.00109752
N 7.67665516 19.49766859 3.49102426 0.00261906 -0.00055016 -0.00394455
N 5.12474616 22.65917696 1.40551874 0.00185448 -0.00290686 -0.00233055
N 3.99640316 25.02173025 6.01783544 0.00071526 -0.00258759 -0.00033312
N 6.70596937 20.40378406 7.94365735 0.00765849 0.00260169 -0.00285416
N 6.12459936 27.48849055 3.07638321 -0.00433683 0.00095808 0.00117001
N 4.15773685 24.69076681 10.03226008 0.00309981 -0.00498195 0.00079641
N 4.90190787 23.10325356 14.67288376 0.00687389 0.00085882 -0.00298625
N 6.02489688 27.52527982 16.94017593 0.00160727 -0.00014435 -0.00146348
N 7.12667156 19.69636035 12.49558352 -0.00670153 -0.00175458 -0.00495288
N 4.70744255 22.50155314 10.70119172 0.00454226 0.00048745 -0.00008874
N 3.83352859 25.06913140 15.07367691 0.00216736 0.00630310 -0.00114174
N 6.47750792 20.33527330 16.38775616 -0.00636346 0.00732669 0.00412946
N 6.03497051 27.67268455 12.09104240 -0.00441855 0.00140456 0.00080516
N 3.88711167 24.45663464 19.40586559 -0.00158140 -0.00445172 0.00124785
N 5.43027396 23.27107835 23.80825144 0.00521003 0.00774905 -0.00911031
N 5.86528700 28.19460884 25.96507250 0.00175521 -0.00634371 -0.00356626
N 7.35564438 19.86633270 21.62724850 -0.00528417 -0.00338308 -0.00148849
N 4.97380680 22.39973145 19.43190496 -0.00086999 -0.00640944 -0.00309489
N 3.98323886 25.02091298 24.38306435 0.00323011 0.00468285 -0.00078002
N 7.05476208 20.26586543 25.95058922 -0.00117118 0.00198738 0.00215352
N 6.13072144 27.51814937 21.21721499 0.00659247 -0.00237553 -0.00605447
N 7.79705559 5.59124209 1.15258103 -0.00634392 0.00204030 0.00396303
N 9.20392341 4.05563180 5.73406517 -0.00776739 0.00034292 0.00661603
N 9.39774673 8.87151143 7.82196654 0.00698389 -0.00051685 -0.00077768
N 10.76208388 0.55726217 3.69274801 -0.00368831 -0.00244913 0.00234709
N 9.10316657 3.87322928 1.51007905 -0.00520219 0.00205796 0.00685651
N 7.89624850 5.80470474 5.98415459 -0.00526305 0.00114326 -0.00615466
N 10.79129586 1.20526186 7.94966103 0.00252697 0.00252216 -0.00587885
N 9.70198196 7.99245367 3.18153509 0.00063762 0.00356277 0.00513807
N 7.85732808 5.73193900 10.30952906 0.00115293 0.00433756 -0.00065370
N 9.05871059 4.06208687 14.72177740 0.00186607 0.00370498 0.00600707
N 9.42317389 8.94080843 16.70274296 0.00104429 -0.00103073 -0.00193917
N 10.58516292 0.84018410 12.31690410 0.00676952 -0.00528890 0.00510864
N 9.21302466 3.98901254 10.63613557 0.00237838 0.00627883 0.00458747
N 8.11817608 6.08641073 14.85440842 0.00424828 -0.00259979 0.00445831
N 10.61832293 1.26342701 16.70602106 0.00192914 0.00037508 -0.00073548
N 9.57860268 8.05213238 11.85352616 -0.00165382 0.00175924 -0.00167124
N 7.17128831 5.52349261 19.13499781 -0.00304805 0.00808773 -0.00184470
N 9.10031934 4.31164165 23.84815710 -0.00105084 0.00226668 0.00141356
N 9.23078456 8.72445052 26.04363419 -0.00212018 -0.00310222 0.00257766
N 10.75823506 0.69037762 21.64186297 0.00236801 -0.00709140 0.00164912
N 8.87665593 4.05209801 19.64840146 0.00362514 -0.00730070 0.00474331
N 7.55407623 6.03253990 24.19094502 -0.00618022 0.00123245 0.00734826
N 10.88261487 1.22172242 25.87792898 -0.00189776 -0.00341197 -0.00351152
N 9.74824038 8.12810633 21.22815530 0.00220542 0.01058357 0.00036114
N 7.61596125 14.98366217 1.38379199 0.00039687 0.00164064 0.00356925
N 8.97549600 13.54288112 5.91325167 -0.00344398 0.00142459 -0.00631715
N 9.28525238 18.20516040 8.16660160 0.00128915 0.00853488 -0.00507149
N 10.84747786 9.91708585 3.19002202 0.00647585 -0.00113655 -0.00010070
N 8.84195703 13.01874529 1.62164703 0.00176303 -0.00218362 -0.00396603
N 8.12496643 15.61359788 6.31323869 0.00116160 0.00087861 -0.00426591
N 10.61856997 10.77626597 7.43199605 -0.00022309 0.00445126 0.00279232
N 10.19129778 17.59991553 3.23514559 0.00045453 -0.01397220 -0.00055140
N 7.42838840 15.27120573 10.32307019 -0.00296837 0.00098542 0.01072441
N 9.02219535 13.67305960 14.32520295 0.00236286 -0.00521312 -0.00166542
N 9.40799136 18.01824749 17.62108481 0.00176218 0.00639580 -0.00119022
N 10.44839145 10.19394968 12.18204474 0.00190008 -0.00603211 0.00036947
N 8.61745482 13.35647065 10.31016585 0.00287468 0.00339781 -0.00466301
N 7.83857955 15.37381883 15.27868709 0.00967715 0.00034871 0.00236958
N 10.84648162 10.78753646 16.53551047 0.00197868 0.00001350 0.00725122
N 9.66422729 17.88055685 12.24627264 -0.00102597 -0.00852953 0.00063362
N 7.69824824 14.64922114 18.96953649 -0.00286511 0.00615898 0.00329956
N 9.09804453 13.35585806 23.93572352 0.00257258 0.00117408 -0.01061910
N 9.31730959 18.48362617 26.11785754 0.00141817 0.00128888 -0.00150647
N 11.07450822 9.96393361 21.59174252 0.00310475 0.00212371 0.00323949
N 9.04254831 12.90730928 19.53418290 -0.00178737 0.00392632 -0.00255158
N 8.23610249 15.47433424 24.24812794 -0.00038165 -0.00101173 0.00299175
N 10.71676363 10.50816795 25.77209742 0.00220888 0.00440582 0.00192028
N 10.02572126 17.97554478 21.13250796 0.00057701 -0.00211970 0.00187564
N 7.57508103 24.37102222 1.09469162 -0.00303263 0.00437590 -0.00436038
N 8.82264575 23.01796601 5.86014540 -0.00064643 0.00088617 0.00596792
N 9.48524549 27.88697329 8.40648100 -0.00273162 -0.00582851 0.00495277
N 10.85208888 19.82316475 3.53286793 -0.00243782 0.00077058 0.00008011
N 8.75416398 22.38768426 1.28792874 -0.00426852 0.00388911 0.00192115
N 7.84153650 25.12854294 5.96168031 -0.00608780 -0.00425606 -0.00016776
N 10.66465012 20.12636726 7.74532685 -0.00504066 0.00331547 0.00449656
N 9.51498884 27.32072237 3.10661565 0.00123206 -0.00475248 -0.00082424
N 7.63031395 24.32325979 10.39161370 0.00873525 -0.00021084 0.00341144
N 9.28738020 23.29943005 15.14553369 0.00281673 -0.00170538 0.00138289
N 9.73326838 27.65836674 16.89809407 0.00068858 -0.00293331 -0.00066198
N 10.86830903 19.84931211 12.42579254 -0.00762096 -0.00560671 0.00052099
N 9.00868533 22.52659137 10.75782519 0.00685449 0.00203934 0.00046432
N 7.48815049 24.82465028 14.84656219 0.00179960 -0.00443342 -0.00305077
N 10.56447438 19.87570783 16.85313993 0.00227841 0.00104939 -0.00195188
N 9.43172774 27.40517064 12.25437759 0.00130018 0.00525782 -0.00440490
N 7.81263993 24.58941090 19.40173447 0.00136784 0.00543891 0.00336531
N 9.05223902 23.15071446 23.71741942 0.00444438 0.00338272 -0.00268722
N 9.36301863 28.09556604 25.98840379 -0.00071890 0.00261125 -0.00156322
N 10.76351745 20.06635477 21.89902252 0.00008211 -0.00221056 0.00156838
N 8.65852919 22.53188110 19.56524884 0.00505032 0.00344586 0.00144143
N 7.77998113 25.04223115 24.07983140 -0.00267230 0.00556869 -0.00336507
N 10.93994927 20.19579469 25.78714048 -0.00171069 0.00270633 0.00063094
N 9.75116691 27.24917610 21.39447836 0.00423974 0.00002859 0.00114192
N 11.66595646 5.48185099 1.25890558 -0.00209894 0.00179681 0.00191543
N 12.70741326 3.76801718 5.65812099 0.00188297 -0.00009476 0.00084929
N 13.22656066 8.80831420 8.15827903 -0.00442048 0.00362027 0.00100343
N 14.46672758 0.66985517 3.39142606 0.00154766 -0.00606747 0.00051790
N 12.87712168 3.58230062 1.59054629 0.00171034 -0.00155366 -0.00053106
N 11.54518736 5.74636320 6.17624086 0.00087631 -0.00715911 0.00240621
N 14.39649264 1.40506704 7.34307012 0.00352171 -0.00207541 0.00144873
N 13.45875686 8.38342658 3.29172828 -0.00196029 0.00270819 0.00383406
N 11.73437655 5.73547648 10.23281178 0.00147362 0.00701063 -0.00508598
N 12.95932675 4.18062715 14.80547315 -0.00341424 -0.00054052 0.00280875
N 13.10814984 8.73182566 17.09718142 0.00322813 -0.00249109 -0.00307563
N 14.33211005 0.75036171 12.49456505 0.00341214 0.00104181 0.00187321
N 12.68525452 3.67373851 10.50896973 -0.00173227 0.00395622 0.00056630
N 11.66106537 6.11179801 14.83379916 -0.00342497 -0.00686683 0.00322569
N 14.37625274 1.07376072 16.63287855 -0.00104549 0.00302656 0.00474194
N 13.48910724 8.39092352 12.21999136 0.00708220 -0.00397199 0.00395197
N 11.45013450 5.47660769 19.25149345 0.00698560 -0.00471958 -0.00575938
N 12.68894810 4.10964019 23.93454964 -0.00227076 0.00428076 -0.00582685
N 13.55682372 8.59496961 26.18683422 -0.00631788 0.00469812 0.00526769
N 14.77293325 0.81905859 21.55297985 0.00742078 -0.00523854 0.00390832
N 12.41932838 3.42500911 19.65010388 0.00197106 0.00145826 -0.00148443
N 11.57637276 6.07745851 24.19851896 0.00242032 0.00085516 -0.00576016
N 14.28525514 1.12824421 25.58866396 0.00335820 0.00060887 0.00350900
N 13.45390792 8.19653367 21.24136644 0.00302196 -0.00184884 0.00592886
N 11.25739198 14.59558723 1.28524535 -0.00834039 -0.00778164 0.00540568
N 12.99517724 13.25795807 5.71910735 0.00179116 -0.00361047 0.00975214
N 13.26859780 18.54912373 7.84122651 0.00251067 0.00487214 0.00138425
N 14.58721359 10.40960039 3.48509034 -0.00283421 0.00420517 -0.00038194
N 12.66765879 12.74314831 1.47427446 -0.00129473 -0.00994465 0.00098436
N 11.87506893 15.27521395 6.03520688 -0.00195451 -0.00122664 -0.00161009
N 14.43385052 10.71213631 7.78265009 0.00029472 -0.00525691 -0.00047665
N 13.44828448 17.81882653 2.89271966 -0.00347792 0.00423015 0.00377636
N 11.06813718 15.03167495 10.04943999 -0.00190583 0.00462188 0.00051672
N 12.89307141 13.73562081 14.69428380 -0.00225916 -0.00342986 -0.00403187
N 13.13045388 18.65592356 17.17369387 -0.00101077 0.00019518 0.00540718
N 15.00257326 10.02412359 12.64105440 -0.00178771 0.00092993 0.00533113
N 12.02593037 12.97847505 10.52155857 -0.00835059 -0.00128847 -0.00644922
N 11.57350150 15.56656156 15.15536895 -0.00193448 0.00105100 0.00312351
N 14.35894917 10.66746100 16.79856055 0.00181717 0.00143375 0.00167120
N 13.20852016 17.77560639 11.99555429 -0.00063033 0.00397349 0.00845839
N 11.24560366 14.80527712 19.37274569 -0.00203730 0.00309748 -0.00362480
N 12.84935605 13.60060610 23.94893382 0.00207010 -0.00254734 0.00062915
N 13.46204811 18.36375642 25.97458704 -0.00117223 -0.00130566 -0.00073200
N 14.66495138 10.11137155 21.73229995 0.00018958 -0.00175438 -0.00062753
N 12.72702372 13.04601294 19.67902485 0.00411566 0.00527480 -0.00743614
N 11.41426925 15.40804914 24.30361198 -0.00229478 -0.00176216 -0.00031479
N 14.31604293 10.76216952 25.98994900 -0.00306167 0.00396499 -0.00468749
N 13.20740090 17.77755979 21.01847452 0.00207618 0.00192321 0.00048595
N 11.37043644 24.26968710 0.94679157 -0.00180275 0.00211932 -0.00130479
N 12.51807197 22.98362225 5.74289586 0.00208825 -0.00336048 0.00401426
N 13.47989753 27.90046804 7.83230017 -0.00101134 -0.00219156 0.00154074
N 14.64394753 19.86044128 3.27430354 -0.00044326 -0.00377105 -0.00166247
N 12.39047242 22.19584573 1.19739624 -0.00058866 0.00137875 -0.00226652
N 11.49034697 24.86518882 6.28789184 -0.00123364 -0.00817933 0.00087905
N 14.36166838 20.54274745 7.59299101 0.00322067 0.00471826 -0.00767129
N 13.86249208 27.08261818 2.86264586 -0.00103660 -0.00397512 -0.00087147
N 11.34525576 24.70251417 10.32771749 -0.00355250 0.00178866 -0.00163880
N 12.18864843 22.84861530 14.68089559 0.00065668 -0.00209468 0.00264769
N 13.02806189 27.86708390 16.86771826 0.00249647 0.00381250 -0.00203017
N 14.34550605 19.69398216 12.39249796 0.00386260 0.00254841 -0.00193995
N 12.78468491 22.81099551 10.62005828 -0.00354703 0.00031484 -0.00432905
N 11.56095793 24.93276341 15.24947958 -0.00062236 0.00381945 -0.00374476
N 14.70801646 20.34379035 16.47692465 -0.00462063 0.00282858 0.00327852
N 13.35384534 27.28239909 12.03016108 -0.00263289 -0.00294538 0.00550956
N 11.22267639 24.21509363 19.27061136 -0.00466908 0.00172579 0.00090959
N 12.66162285 23.34264071 23.27332757 0.00030186 0.00457005 0.00044154
N 13.09833970 27.85263463 26.03387397 0.00560722 -0.00343855 0.00112048
N 14.41761096 19.72793374 21.39678831 -0.00252032 0.00092571 -0.00217560
N 12.64501578 22.41209588 19.47435690 -0.00397951 0.00234008 -0.00052984
N 11.37305928 25.01157170 24.17360193 0.00379251 -0.00664367 0.00404807
N 14.33034120 20.46014800 25.44060944 -0.00174852 0.00358349 0.00091566
N 13.47745137 27.45213944 21.39208422 -0.00126189 -0.00109964 0.00175042
N 15.02453612 5.18363163 1.45481363 -0.00116240 0.00658052 -0.00595313
N 16.99431772 4.03612809 5.64908351 -0.00295005 -0.00341099 -0.00600275
N 17.25437608 8.85322124 7.90296481 0.00416349 -0.00159779 -0.00022651
N 18.72808152 0.39325065 3.38213850 -0.00067558 0.00681875 -0.00225297
N 16.51041603 3.39767002 1.54355442 -0.00388034 0.00158676 0.00765189
N 15.64935189 5.95427585 5.73573607 -0.00134935 -0.00049586 0.00536069
N 18.05291390 1.17240929 7.83659230 0.00896107 -0.00249431 -0.00465262
N 17.52958657 8.42047802 2.74934322 0.00559454 0.00123395 0.01003361
N 15.00729745 5.39420259 10.29480485 0.00065268 -0.00481728 -0.00630012
N 16.43837009 3.73303821 14.55451982 0.00326512 -0.00119697 -0.00487393
N 16.71693201 8.94284913 16.74782867 -0.00297215 0.00288460 0.00017016
N 18.42051664 0.39895088 11.69188743 0.00196293 0.00444196 0.00460029
N 16.50651360 3.68701372 10.49122029 0.00082277 0.00048486 0.00055306
N 15.42700698 5.66801044 15.11558048 0.00101605 0.00061296 0.00348747
N 17.90939516 0.91135073 16.40020416 -0.00122872 -0.00041734 0.00897089
N 17.06328935 8.05490053 12.16151586 0.00186840 0.00055512 -0.00769696
N 14.71203560 5.64349833 19.08971461 0.00875241 0.00062024 -0.00332226
N 16.64671158 4.17754870 23.89150852 0.00008380 0.00479092 -0.00204180
N 16.63713667 8.80644147 25.98489729 -0.00329277 -0.00215505 0.00499229
N 18.33433686 0.41846434 21.29208291 0.00057210 -0.00140830 -0.00252274
N 16.17173360 3.84824883 19.27029034 0.00386792 -0.00114856 0.00419289
N 15.26133037 6.02423496 23.85372429 0.00363187 0.00078757 -0.00577819
N 18.48099457 1.01392416 25.83306326 -0.00283680 -0.00370521 0.00707491
N 17.19886849 8.12639722 20.95220229 0.00266019 -0.01073315 -0.00436038
N 15.06842759 14.79200233 1.10521191 -0.00484701 0.00484045 0.00186682
N 16.44741366 13.54440407 5.19359728 -0.00305045 -0.00316469 0.00482075
N 16.72560183 18.59722653 7.87351652 0.00489153 0.00446230 0.00086937
N 18.80656491 10.25506788 3.28671179 0.00140289 -0.00224988 0.00196617
N 16.18241233 12.87414531 1.66951472 -0.00583044 -0.00458606 0.00224241
N 15.22579412 15.44632605 5.71426902 -0.00601424 0.00403222 -0.00490800
N 18.25169281 10.97457372 7.43254609 -0.00056643 -0.00252670 0.00491600
N 16.83177279 18.02029282 2.85756965 -0.00591185 -0.00111793 0.00221077
N 14.93930793 14.86456315 10.01629401 -0.00521950 -0.00446434 -0.00631476
N 16.21059502 13.67163839 14.61510139 0.00195005 0.00114814 -0.00339761
N 16.89756804 18.56592927 17.24527497 0.00215094 0.00378451 -0.00476383
N 18.07539079 10.16696184 12.46086194 -0.00571827 0.00413141 0.00351004
N 16.26609962 13.02617742 10.41766084 -0.00572490 -0.00308013 -0.00158426
N 15.23202292 15.70898340 15.10213632 0.00526758 -0.00304022 0.00351696
N 18.05936603 10.85317900 16.67540459 -0.00137622 0.00686456 -0.00065443
N 16.74658606 17.96051830 12.08620562 -0.00588519 -0.00338729 0.00039521
N 14.85734143 15.09008547 19.40311972 -0.00005680 0.00024383 0.00180161
N 16.24047278 13.54747357 23.89629662 0.00614453 0.00523557 0.00447881
N 16.74320503 18.14592805 26.37630199 0.00297078 0.00058480 0.00055423
N 18.44162082 10.03561670 21.30827473 -0.00617099 -0.00079286 -0.00615000
N 16.22800385 13.24106664 19.69468925 -0.00052997 0.00874099 -0.00595096
N 15.03259547 15.48838774 24.09521184 -0.00488289 0.00321135 -0.00437899
N 18.16343018 10.44832938 25.61376260 0.00453403 0.00208141 -0.00122186
N 17.04878326 18.00847594 21.30827221 -0.00000667 0.00155138 -0.00051127
N 14.56054769 24.18626620 1.09948029 -0.00171963 0.00171499 -0.00219514
N 16.07140775 23.01479499 5.49339217 -0.00827477 0.00378566 0.00014084
N 16.98131573 27.76317504 7.90097252 0.00428652 -0.00074932 -0.00200757
N 18.34087927 19.74747356 3.32524297 -0.00029154 -0.00019999 -0.00074434
N 16.35097129 22.48419354 1.07617254 0.00377564 -0.00399448 -0.00846098
N 14.88152837 24.83845504 6.17575259 0.00182091 -0.00256506 0.00146801
N 18.02381451 20.44050255 7.58641626 -0.00373979 0.00103089 -0.00474558
N 17.01336227 27.28891318 3.33128437 0.00566735 0.00593731 -0.00409118
N 15.02463766 24.32424735 10.05060011 0.00250911 0.00277070 -0.00346197
N 16.36681663 23.05312666 14.63889840 -0.00087824 0.00218496 -0.00067640
N 16.73905747 27.68015061 16.99744044 -0.00501055 -0.00048627 -0.00151982
N 17.95284322 19.87763091 12.56322503 -0.00565882 -0.00433795 0.00055072
N 16.51063678 22.49634584 10.26869769 -0.00321418 -0.00078380 -0.00525042
N 15.15264806 24.89714975 14.94451528 -0.00283901 -0.00542462 -0.00053195
N 17.92540880 20.49570630 16.64383916 -0.00056662 -0.00302490 -0.00039684
N 16.84219745 27.33364521 11.97432221 -0.00292883 0.00193587 0.00474488
N 15.04044575 24.43930052 19.00583420 -0.00394543 0.00450589 -0.00413014
N 16.28675285 23.01973084 23.64855300 -0.00066831 -0.00057733 0.00141498
N 16.93841286 27.87542266 26.15160373 0.00550765 0.00403759 -0.00388354
N 18.60117954 19.65162992 21.89705280 -0.00372000 0.00198592 -0.00926223
N 16.50908450 22.86403678 19.55513451 0.00593417 -0.00233056 -0.00349689
N 15.27943720 25.06144623 24.00808766 -0.00199550 -0.00393773 0.01090123
N 18.03846877 19.89604781 25.88012493 -0.00345223 0.00408660 0.00330185
N 16.81786503 27.22692004 21.32637010 0.00176757 -0.00109621 -0.00823635
N 19.05740465 5.58632980 1.15289700 -0.00457929 0.00258476 0.00135500
N 20.36169377 4.19066946 5.63149270 -0.00034599 -0.00186623 0.00028467
N 20.68705510 9.07259839 7.96063079 0.01005617 -0.00200931 -0.00765230
N 21.93321671 1.02602697 3.29041561 0.00102661 0.00586356 -0.00675016
N 20.24259643 3.65536014 1.23927691 0.00301707 0.00078713 0.00682872
N 19.24316615 6.21502635 5.89607005 0.00102109 0.00362613 -0.00502915
N 22.03480164 1.35046874 7.48873434 0.00406416 -0.00794956 -0.00273952
N 21.16124411 8.42098761 2.93072674 -0.00040478 -0.00095837 0.00565945
N 18.71060219 5.75215772 9.85632105 0.00670204 -0.00222739 0.00742352
N 20.11129823 3.98125217 14.45955515 0.00583342 0.00252616 0.00247820
N 20.48330287 8.91551943 16.81433845 -0.00482298 -0.00855604 -0.00118643
N 22.02942613 0.66555941 12.60840549 0.00736143 0.00100417 0.00299303
N 20.04647336 3.87424395 10.36927783 0.00491887 -0.00608092 -0.00852612
N 18.78291904 5.76555015 14.92570461 0.00166167 -0.00345891 0.00203875
N 21.76407494 0.77399602 16.69322998 -0.00019605 0.00531114 -0.00026430
N 20.65546491 8.40997872 12.42956188 0.00429233 -0.00234756 0.00839514
N 18.70001191 5.44152723 18.79167388 -0.00019078 -0.00092641 0.00555943
N 19.47322866 4.11688025 23.68057468 0.00007298 -0.00295116 0.00007349
N 20.67176627 9.10912748 26.03065806 -0.00677917 -0.00185656 -0.00050781
N 21.61828724 0.78292339 21.69841136 -0.00110281 0.00401466 0.00133087
N 19.79220512 3.55794543 19.34614169 0.00406061 -0.00197232 0.00474588
N 19.14805429 6.32281363 23.85033002 -0.00429001 0.00260549 0.00010249
N 21.78659198 1.10130936 25.54775445 0.00270087 0.00201942 -0.00529584
N 20.78353757 8.13567989 21.13026937 0.00100834 -0.00405142 -0.00290521
N 18.54180630 14.77987831 1.44416412 0.00240734 0.00302616 -0.00220526
N 20.30500627 13.85240988 5.88136550 0.00746638 -0.00302616 -0.00380464
N 20.30825399 18.86171333 8.07249095 0.00360326 -0.00058558 -0.00072551
N 0.16576977 10.32616182 3.40619385 0.00165546 -0.00221826 0.00032958
N 20.11819459 13.15842511 1.60139445 0.00182467 -0.00193254 0.00120327
N 19.02248811 15.62919708 6.41195601 0.00144206 0.00010392 -0.00224801
N 21.94086726 11.02363217 7.89900294 -0.00169234 -0.00091791 0.00172192
N 20.65369974 17.42024127 3.04138013 0.00216341 -0.00218427 -0.00077951
N 18.81000689 15.10412160 10.25501245 0.00081355 0.00121458 0.00135796
N 20.11401724 13.65083156 15.01700169 0.00234751 0.00161026 -0.00150989
N 20.25313705 18.42252693 17.10154424 -0.00541544 -0.00365630 -0.00272739
N 22.05142803 10.28424379 12.33948668 -0.00112007 -0.00016874 0.00161038
N 19.82507966 13.29636161 11.01516939 0.00084637 0.00858443 0.00096500
N 18.75097006 15.49473207 15.32078360 0.00343865 0.01062291 0.00026973
N 21.82969097 10.72001237 16.67781402 0.00029737 -0.00171479 0.00777599
N 20.70509764 17.57616023 12.81880921 -0.00214190 0.00291839 -0.00013602
N 18.78889587 15.09654781 19.40638738 0.00279382 -0.00322680 0.00303018
N 20.04546205 13.67214013 24.03299383 -0.00332507 -0.00322173 0.00534950
N 20.78585963 18.14717112 25.67114420 0.00087400 -0.00067547 -0.00169210
N 22.17804823 9.94107959 21.39221695 0.00084195 0.00155898 -0.00107456
N 19.96193977 13.10533959 19.72311916 -0.00029185 0.00016687 -0.00607084
N 18.66644225 15.51136708 24.26394115 0.00473976 -0.00008559 -0.00334547
N 21.96298658 10.95870691 25.73689168 0.00502993 0.00144627 0.00657165
N 20.87521986 17.75859211 20.98267906 0.00243242 0.00057089 -0.00274612
N 18.99739200 24.42224826 1.00303175 -0.00038257 -0.00335395 0.00234812
N 20.21072566 22.75750084 5.52700890 0.00053417 0.00690058 0.00444146
N 20.86340379 27.93865890 7.89110621 -0.00009476 -0.00076152 -0.00264107
N 22.02096365 19.37366283 3.05309402 -0.00388255 0.00063525 -0.00576207
N 19.99142451 22.37094348 1.29347590 -0.00021733 0.00226179 -0.00149500
N 19.74839508 24.97881127 6.28048887 -0.00581997 -0.00281624 -0.00183677