1728
Time=38000.00000002 pbc="T T T" Lattice="21.99773464 0.00000000 0.00000000 0.00000000 28.80467961 0.00000000 0.00000000 0.00000000 27.52148826" energy=-10389.11564207 virial="8.92498455 1.76449224 20.04053440 1.76449224 -0.86865865 11.64941735 20.04053440 11.64941735 -5.16665615" stress="0.00282883 0.00010274 0.00113822 0.00010274 0.00227349 0.00081308 0.00113822 0.00081308 0.00250720" Properties=species:S:1:pos:R:3:vel:R:3
N 0.61020557 5.78990383 1.15713437 0.00099490 0.00157638 0.00265500
N 1.52572658 4.26853295 5.62969643 0.00662684 0.00443374 -0.00561634
N 3.03108992 8.83703214 7.72357047 -0.00041976 0.00008162 0.00490286
N 3.58660098 0.44943705 3.08462175 0.00124807 0.00339995 0.00129695
N 0.96857022 3.54358530 1.46605076 -0.00631422 0.00208091 -0.00364545
N 0.56289725 6.33685039 5.97227815 0.00443929 -0.00532735 0.00393572
N 3.41223858 1.29320285 7.73954828 0.00213683 -0.00284400 -0.00331691
N 2.05661783 8.46080578 3.02889357 0.00612807 -0.00034831 0.00693130
N 21.98227344 5.44424639 10.38947209 0.00338029 -0.00015852 0.00443769
N 1.77257488 4.04576127 14.86515730 0.00192780 -0.00604436 -0.01193999
N 1.63751714 9.04193139 16.62538003 0.00190645 -0.00733795 -0.00672927
N 3.19071596 0.67564047 12.40603801 -0.00538008 -0.00088788 -0.00248517
N 1.55877488 3.67771919 10.45415046 -0.00701789 -0.00293347 0.00607168
N 0.14549950 5.68645316 15.10813516 0.00070066 0.00106965 -0.00633797
N 3.41061538 1.22301123 17.08792001 0.00240669 -0.00540940 -0.00082753
N 1.78238884 8.26173982 11.95634069 -0.00555237 0.00151611 -0.00259354
N 21.93879332 5.41191234 19.80497195 0.00129628 0.00394584 -0.00283812
N 1.58773547 4.29041625 24.29281677 -0.00155623 0.00711897 0.00469872
N 2.06033978 9.01769286 26.06490071 0.00018294 0.00092360 -0.00032250
N 2.75594216 0.70923432 22.06870341 -0.00471301 -0.00280103 -0.00010916
N 1.22596390 3.47900274 19.63295710 0.00332433 0.00771220 -0.00359368
N 0.08184002 5.99140016 24.55218201 -0.00281620 0.00011044 -0.00169731
N 3.49667415 1.45632229 25.99919498 -0.00282636 0.00076974 -0.00316941
N 2.17128593 8.37239876 21.44766345 0.00605745 -0.00055877 -0.00173091
N 0.29705701 15.05080102 1.25022031 0.00176378 -0.00080970 0.00139209
N 1.79803934 13.91532458 5.85138976 0.00182143 -0.00264154 0.00442443
N 2.21066939 18.31011511 8.07584243 0.00444601 -0.00172614 -0.00136237
N 3.28235100 10.33000985 3.63505663 -0.00584010 0.00091285 0.00398283
N 1.79954361 13.26248112 1.57625969 0.00414304 -0.00000265 0.00671038
N 0.40672766 15.75899214 5.89894520 0.00204345 0.00400319 0.00289352
N 3.35226355 11.13298612 7.86949717 0.00929505 0.00493952 0.00139921
N 1.95130702 18.02750315 3.11075962 -0.00396125 0.00169911 -0.00409878
N 0.39837050 14.89375446 10.59236013 0.00287229 -0.00454044 -0.00917158
N 1.35984328 13.71370859 14.85015313 -0.00127200 -0.00151067 0.00038875
N 2.40305317 18.61624499 17.14396674 0.00315485 -0.00532716 0.00253691
N 3.15647715 10.25583992 12.32239205 0.00143594 0.00177090 0.00480607
N 1.21297710 12.79014846 10.98603677 -0.00185114 0.00511422 0.00464180
N 0.20484313 15.70173870 15.11461815 -0.00174170 -0.00313206 -0.00197665
N 3.27345754 10.77804798 16.69025297 -0.00184801 -0.00224754 0.00176485
N 2.02646790 18.22763178 12.27303843 -0.00018252 0.00473184 0.00476654
N 0.08892264 15.10279275 19.38201738 0.00152570 0.00063039 -0.00140579
N 1.47680922 13.83343617 23.94705410 0.00078507 0.00601358 -0.00945417
N 2.04844348 18.84708725 26.41722351 0.00158695 0.00170384 0.00672377
N 3.43349671 10.33891092 21.46586960 -0.00046216 -0.00517223 0.00267754
N 1.28287049 13.22131745 19.74350618 -0.00028377 -0.00211860 0.00020877
N 0.39436745 15.83045186 24.26212687 0.00083324 0.00025716 0.00665603
N 3.36024650 10.90978722 26.06754007 0.00222317 0.00077138 0.00706233
N 1.98982922 17.62981771 21.48815874 0.00606707 -0.00056259 0.00355395
N 0.36381041 24.76694101 1.14343163 -0.00193730 0.00035299 0.00407859
N 1.29109153 23.05168039 5.49893773 -0.00566470 0.00110978 -0.00129950
N 2.33564238 28.00257383 8.08200821 0.00122640 0.00468553 -0.00148999
N 3.44474463 19.78972875 3.51382546 0.00082502 -0.00354717 -0.00438248
N 1.66614399 22.96177552 1.53723461 -0.00319385 0.00189897 -0.00178201
N 0.12404401 25.03773944 5.99770523 -0.00148169 -0.00440601 -0.00503607
N 3.41846472 20.26227501 7.53791958 -0.00257614 0.00935294 0.00196936
N 2.06955373 27.44140399 3.24012503 0.00252064 0.00035055 0.00674570
N 0.23154028 24.66539184 10.12432568 0.00125125 0.00511397 -0.00003881
N 2.00789681 23.79565658 14.91992563 -0.00003524 0.00546020 0.00154775
N 2.31050747 28.12748988 17.25188971 -0.00635291 -0.00044599 0.00745382
N 3.55635090 20.01648881 12.60049419 0.00246773 0.00618913 0.00095116
N 1.53988778 22.79670675 10.58148115 0.00009297 0.00338121 -0.00281237
N 0.52816428 25.65162252 14.98083386 -0.00643338 -0.00297204 0.00000684
N 3.25641868 20.74039704 16.92170164 -0.00343101 -0.00553794 0.00906846
N 2.08661299 27.39103778 12.21900647 0.00674879 0.00766086 0.00020389
N 0.35204912 24.67796578 19.18618181 -0.00296503 0.00407474 0.00324782
N 1.71269198 23.36062059 23.95150789 -0.00124665 -0.00137837 -0.00071415
N 2.44512879 28.29219059 26.28911862 0.00373735 0.00352275 0.00124569
N 3.40306029 19.40052750 21.67856031 -0.00082129 -0.00043099 0.00162366
N 1.24089792 22.66199221 19.60747203 0.00353744 -0.00432815 -0.00385172
N 0.75051679 25.39780247 24.32554418 0.00043080 -0.00195127 -0.00145960
N 3.32692314 20.79510914 26.45601374 -0.00113739 -0.00410923 0.00449035
N 1.73075381 27.43301283 21.51080733 -0.00672325 0.00089327 0.00102012
N 3.91801704 5.25884228 0.92507184 -0.00259199 -0.00467196 -0.00500818
N 5.57294630 4.02746980 5.45677955 0.00176184 -0.00256510 -0.00038154
N 5.90727088 8.86179757 8.03396875 -0.00843140 -0.00211332 -0.00449038
N 7.20339213 0.81510301 3.89628666 -0.00260113 0.00043281 0.00331518
N 5.26744742 3.49270994 1.51233798 -0.00344030 0.00409950 -0.00277753
N 4.56068393 6.09779491 6.01822631 -0.00289802 -0.00360270 -0.00415334
N 6.68654124 0.80090320 7.58543088 -0.00446048 -0.00118172 -0.00186195
N 6.30286016 8.06774306 3.06161152 0.00238805 0.00220142 0.00294619
N 3.88008242 5.41907983 10.32732792 -0.00110686 -0.00508417 0.00088895
N 5.15003218 4.25854501 14.98887866 0.00375714 0.00298794 0.00027311
N 5.67085668 9.00753299 17.47632926 0.00014489 -0.00263817 0.00401071
N 6.84211506 0.60929147 13.11209187 -0.00002476 -0.00465962 0.00041504
N 4.85488022 3.43708510 10.61394168 0.00107198 -0.00400274 0.00101138
N 3.94247168 6.20652355 15.27144752 0.00392589 0.00166678 -0.00138841
N 6.73114384 1.28702988 17.01957124 0.00514145 -0.00432860 0.00543873
N 5.89714025 8.33495488 12.46576901 -0.00072941 0.00547383 -0.00155436
N 3.74381258 5.48373562 19.47821705 -0.00146002 0.00057822 0.00745870
N 5.32733698 4.15392715 24.00022620 0.00121439 -0.00252356 0.00124541
N 5.64704940 9.11728524 26.41517461 -0.00529728 -0.01033492 -0.00540868
N 6.77834777 0.68046216 21.98804364 -0.00502086 0.00253592 0.00257519
N 4.84613878 3.51876556 19.73656915 -0.00529452 -0.00249061 0.00503666
N 4.06176301 6.06293094 24.42628111 0.00266378 -0.00134375 0.00368869
N 7.06459498 1.33138083 26.21601596 0.00331066 0.00087131 0.00267609
N 5.81281998 8.41646007 21.36515457 0.00183662 0.00074109 -0.00102725
N 3.96622135 15.30546363 0.94388480 0.00411265 0.00000009 0.00033006
N 5.43276442 13.92195268 5.50275065 0.00266417 -0.00574320 0.00066987
N 5.99263150 18.60557486 8.07114610 0.01163760 -0.00122267 0.00180474
N 6.88254821 10.27290749 3.58732211 0.00119681 -0.00034193 0.00530101
N 4.94087933 13.22163175 1.27296527 0.00502579 0.00186695 -0.00736084
N 4.09507033 15.68453313 6.03309116 -0.00973111 -0.00063958 0.00696329
N 7.01788205 10.84979942 7.90203972 -0.00139366 -0.00167091 -0.00482485
N 5.95405551 18.21555797 2.93280085 -0.00417269 -0.00048768 0.00791144
N 3.72158824 14.89983080 10.15097981 0.00094630 0.00318723 0.00069239
N 5.30845191 13.65027113 15.01451409 -0.00079079 -0.00904302 -0.00222874
N 5.51671420 18.55901760 16.98517123 -0.00346980 0.00043520 0.00211453
N 6.83209686 10.38891926 12.82907449 -0.00065174 -0.00073532 0.01000178
N 5.24742118 13.24384237 10.64563436 0.00207373 -0.00092827 0.00160300
N 4.20583235 15.71422037 14.94223827 -0.00178003 -0.00624132 -0.00126512
N 7.15465544 10.60517312 16.76870968 -0.00152841 0.00691981 -0.00485794
N 6.05702825 17.71078582 12.19674789 -0.00720017 0.00062881 0.00157646
N 3.82519215 14.97535392 19.43401915 -0.00551071 -0.00221917 0.00367397
N 5.44651759 14.01486447 24.03505457 0.00017479 -0.00275808 -0.00428335
N 6.19646848 18.37846492 26.49901003 0.00277375 -0.00194122 -0.00336524
N 6.97965350 10.44154294 21.46213179 -0.00182064 0.00072661 0.00546757
N 5.20208040 13.08901469 19.36045993 -0.00344411 0.00122302 -0.00542398
N 3.82098198 15.73972483 24.21713057 0.00170102 0.00474780 -0.00107814
N 6.98077395 10.86506737 25.81239991 -0.00680214 0.00282811 0.00074194
N 6.23822396 17.71787253 21.43237830 0.00385918 0.00033947 -0.00090286
N 4.31543000 24.88549704 1.27999586 -0.00388598 -0.00209158 0.00639509
N 5.46418460 23.31940687 5.77977217 0.00291147 -0.00518214 -0.00357977
N 5.61629929 27.96926154 8.75035625 -0.00523579 0.00053010 -0.00355112
N 7.10468618 20.19866096 3.29261725 -0.00170408 -0.00637880 0.00239928
N 5.33785050 22.87040183 1.77076300 -0.00449307 0.00102378 0.00123940
N 4.61127362 25.51864658 6.02372811 -0.00270547 -0.00183910 -0.00582366
N 7.50841742 20.22873665 7.58975770 0.00215745 0.00464931 -0.00057776
N 6.08648210 27.70326794 3.04796835 -0.00312537 -0.00460758 0.00274517
N 3.82128626 24.34341212 10.57087381 0.00359799 -0.00089498 -0.00038894
N 5.43513748 23.42949842 14.74683982 -0.00483281 -0.00110094 0.00682230
N 5.69364471 28.16748064 17.61607290 0.00131172 0.00343681 -0.00151885
N 7.16543523 19.67816205 12.67914220 0.00435702 0.00485880 -0.00039557
N 5.19938819 22.53202822 10.69206056 0.00460262 0.00515302 0.00429086
N 4.33589769 25.45589351 15.19165553 -0.00220026 -0.00314807 0.00192820
N 7.14395725 20.21331971 16.85644318 0.00461983 -0.00353435 -0.00078355
N 5.54681807 27.65826586 12.24824584 -0.00332265 -0.00429227 -0.00904069
N 3.77830111 24.26660879 19.79508677 -0.00472836 -0.00717255 -0.00084839
N 5.40707477 23.34875755 24.29579738 -0.00354623 -0.00658309 0.00761355
N 5.78576294 28.31070131 26.70654839 -0.00151556 0.00063114 -0.00749062
N 7.14887457 19.85011254 21.69234578 0.00282492 -0.00171833 -0.00163999
N 5.09747564 22.44392222 20.23068609 -0.00420268 0.00434714 0.00068360
N 4.28313941 25.34377930 24.81145432 -0.00169964 -0.00249862 -0.00470988
N 7.02848044 20.54697833 26.16708365 -0.00119897 0.00529061 0.00351227
N 5.91793719 27.31243863 21.80528741 -0.00142745 -0.00037566 -0.00252304
N 7.65672357 5.44632277 0.62090514 -0.00310654 0.00461356 -0.00654178
N 8.90524206 3.94372397 5.38574284 0.00339642 -0.00239541 -0.01050303
N 9.43439782 9.06982690 8.05846145 -0.00323840 -0.00055911 -0.00252047
N 10.89392905 0.67141065 3.45253345 0.00460289 0.00124234 -0.00120540
N 8.96237815 3.65369848 1.47345311 0.00049798 -0.00172347 0.00216885
N 8.19067449 6.09612854 5.83017352 0.00355315 -0.00140024 -0.00368597
N 10.92013269 1.51497677 7.68844516 -0.00196063 0.00525983 -0.00317989
N 9.89221470 8.67498649 2.96642619 -0.00629251 0.00370633 -0.00244547
N 7.33754760 5.51027676 10.43958445 0.00058443 -0.00519764 -0.00118131
N 8.90216170 3.99287914 14.91953895 -0.00528668 -0.00047095 -0.00043160
N 9.81459975 8.61789915 17.30605738 0.00234955 0.00036371 0.00077674
N 10.44156127 0.71155932 12.61177347 -0.00013031 0.00199942 0.00351689
N 8.48846500 3.52901664 10.43245205 0.00147431 -0.00231725 0.00073831
N 7.60053576 5.83272369 15.31362293 0.00195038 -0.00260524 -0.00103237
N 10.69827484 1.19085953 16.81470458 -0.00636568 -0.00222867 -0.00135424
N 9.12371306 8.37856332 12.24001887 -0.00038215 -0.00200165 0.00239502
N 7.09794532 5.47292625 19.41400210 -0.00346544 0.00421851 -0.00335654
N 8.86091792 4.43353976 23.91913657 -0.01190184 -0.00411881 -0.00002744
N 9.32181744 9.18004734 26.55643032 0.00090326 -0.00309818 0.00604425
N 10.67871909 0.66142260 21.68210038 0.00215780 0.00035480 0.00387966
N 8.11776693 3.38083014 19.73244156 0.00246654 0.00033508 -0.00238118
N 8.02759761 6.57092748 24.62099747 0.00064539 0.00293930 0.00336718
N 10.68496054 1.29277753 25.86568909 -0.00176670 -0.00379478 0.00419483
N 9.24361862 8.22957047 21.48269029 0.00166734 -0.00082786 -0.00050196
N 7.43170395 14.94406604 0.96023484 0.00294822 0.00070878 0.00404105
N 9.30060991 14.15347439 5.54515636 0.00362693 0.00190638 0.01002442
N 9.84229927 18.32946883 7.66940348 0.00428162 0.00392413 0.00104111
N 10.89495137 10.48872922 3.91761763 0.00136168 0.00666338 0.00446919
N 8.70665008 13.02511378 1.40940871 0.00936860 -0.00384188 0.00147895
N 7.61630115 15.73855115 5.75127289 -0.00097763 -0.00385735 -0.00353331
N 10.82242099 10.88603159 7.83457323 0.00609306 0.00084153 0.00313228
N 9.96563239 18.13004024 2.47136446 0.00268089 -0.00094973 0.00262495
N 7.79920577 14.99884229 10.29220262 -0.00036552 0.00172262 0.00240049
N 8.80248264 13.54860399 14.77589164 0.00124662 0.00109308 0.00014450
N 9.59920673 18.16075200 17.15500468 0.00391424 0.00430566 0.00924149
N 10.41208043 10.28471350 12.67914109 0.00395293 -0.00298319 0.00200399
N 8.70290170 12.91305190 10.08992379 0.00615211 -0.00312294 -0.00107640
N 7.92161370 15.69412004 15.11463274 0.00777837 -0.00225770 -0.00003273
N 10.49649489 10.61861909 16.38046367 0.00640008 -0.00194635 0.00545558
N 9.59143599 18.01284685 12.09043932 0.00480294 0.00025822 0.00395636
N 7.62063441 15.01169712 19.38340500 0.00041241 -0.00253444 0.00170577
N 8.69295359 13.81315727 24.25431261 0.00206643 -0.00438648 -0.00277008
N 9.27989055 18.67242601 26.38519665 0.00516309 0.00315193 -0.00126647
N 10.52883644 10.05954520 21.68310999 -0.00237529 -0.00159136 0.00101253
N 8.64815084 13.04290385 19.75371727 -0.00161886 0.00096376 -0.00414100
N 7.81432110 15.93804583 24.22997475 -0.00532588 -0.00465206 -0.00599143
N 10.96898348 10.80527911 26.11141071 -0.00081642 0.00532696 -0.00401536
N 9.57316157 18.14126959 21.37126004 -0.00066404 0.00273750 0.00071765
N 7.60068067 24.67682078 1.22688896 0.00032393 -0.00308785 0.00018827
N 9.12862666 23.25023064 5.75480341 -0.00501959 -0.00846755 0.00320477
N 9.63206599 28.38698059 8.01641345 0.00226566 0.00043007 -0.00279153
N 10.96114596 20.06211870 3.33984514 -0.00570991 -0.00497928 -0.00571068
N 8.83723625 22.69077639 1.50191760 0.00417446 -0.00200125 -0.00050662
N 7.93869430 25.21020144 5.93153849 -0.00024224 0.00110254 -0.00476943
N 10.75142680 20.45103860 7.56076058 0.00479197 0.00424356 -0.00372776
N 9.67767154 27.49039659 3.15039236 0.00113101 -0.00131310 0.00006293
N 7.57120889 24.63448315 10.26957004 -0.00896329 0.00246757 -0.00488217
N 8.60746812 23.29351555 14.93897828 -0.00134977 -0.00540925 0.00800000
N 9.39116649 28.09533688 17.07486063 0.00042305 0.00014642 0.00316672
N 10.99447237 19.78893542 12.24664006 0.00093969 -0.00461793 -0.00176910
N 8.95916284 22.68081196 10.57671778 -0.00330206 -0.00113730 -0.00483447
N 7.64571654 25.31816303 15.09705541 0.00394412 -0.00097548 0.00005244
N 10.43124294 20.38429088 16.98324734 0.00420539 0.00439149 0.00462822
N 9.71136570 27.32157265 12.23576620 0.00150292 -0.00496810 0.00273354
N 7.47296898 24.75797659 19.44518545 0.00063954 0.00299728 0.00020713
N 8.82301304 23.38752042 24.22329901 -0.00274026 0.00077147 0.00401470
N 9.45843645 28.10899917 26.20056809 0.00052466 0.00079334 0.00559629
N 10.77791370 19.93145603 22.21815947 -0.00388384 0.00192039 0.00374853
N 8.76659377 22.87569999 19.93134869 -0.00288861 0.00018819 0.00350876
N 7.67923377 25.30167590 24.50021899 0.00193023 0.00455581 0.00431350
N 10.68127782 20.49695549 26.15160676 0.00414509 -0.00658872 0.00362204
N 9.07492243 27.71157119 21.48819282 -0.00772764 -0.00067606 0.00007332
N 11.30104168 5.48655776 1.18641400 -0.00314865 0.00327576 0.00419319
N 12.63677762 4.70645160 5.85482977 0.00024471 -0.00550027 -0.00347163
N 13.04607405 8.93256792 8.42760875 -0.00354395 0.00319469 0.00149039
N 14.52018989 0.70288950 2.99321317 -0.00077727 0.00292480 -0.00302923
N 12.48967531 3.49913383 1.54659923 -0.00500189 -0.00139349 0.00999886
N 11.17695213 6.55812364 5.97344486 -0.00126448 -0.00767244 -0.01325510
N 14.43013680 1.44667769 7.78253770 -0.00271923 -0.00041004 0.00271375
N 13.27667313 8.36765868 3.21260466 -0.00146561 -0.00198539 0.00296888
N 11.19475969 5.59979575 10.23132203 -0.00125964 0.00188687 -0.00150156
N 12.15053597 3.96453984 14.88211720 0.00231895 0.00288962 0.00487635
N 13.36702755 8.62266216 17.81615974 0.00327658 -0.00146916 0.00140680
N 14.49348653 0.75524658 12.73724692 -0.00395929 0.00269415 0.00067276
N 12.56220186 3.71220406 10.62644780 0.00320479 -0.00280113 0.00324077
N 11.32674413 6.03130718 15.11380537 -0.00289648 -0.00168439 0.00503434
N 14.12442214 1.19232777 16.92922881 -0.00342010 -0.00411353 0.00687923
N 12.97043251 8.27171190 12.38792450 -0.00085935 -0.00217442 -0.00138290
N 11.18023917 5.12440548 19.09145713 -0.00063696 0.00036111 -0.00253941
N 12.52545590 4.22366536 24.07322336 0.00612591 0.00025963 -0.00294731
N 13.37915066 8.73690176 26.57254948 0.00349697 0.00170928 0.00592927
N 14.16927231 0.41356906 21.78844700 -0.00144494 -0.00093982 0.00029270
N 12.45760160 3.28785062 19.79797558 0.00112337 0.00338005 0.00253149
N 11.39155225 6.26475065 24.44519825 -0.00075403 -0.00239115 0.00330797
N 14.46756705 0.94811922 25.73250903 -0.00177441 0.00081772 -0.00233529
N 12.76551682 8.35970986 21.69723180 -0.00188180 0.00057559 -0.00883320
N 11.07690148 15.37548907 0.66299781 -0.00744465 0.00154052 0.00311885
N 12.88523833 13.72654241 5.56757924 0.00104080 -0.00124750 0.00477751
N 13.24737324 18.38570609 8.02033583 0.00175550 0.00022521 -0.00208606
N 14.65943011 10.13581289 3.85218428 -0.00223013 -0.00160556 -0.00461689
N 12.18563134 13.46241203 1.56279819 0.00332886 -0.00146833 0.00970550
N 11.59292271 15.66543093 5.92753696 -0.00096331 -0.00510697 -0.00105591
N 14.45099956 10.68170876 7.81612302 -0.00193428 0.00457173 -0.00188743
N 13.08226176 18.28239565 3.32818960 -0.00057645 0.00007981 0.00058979
N 11.20937087 14.75237793 10.49641763 -0.00900532 0.00201816 -0.00555214
N 12.66135947 13.65911826 15.16360234 -0.00277235 0.00557936 -0.00345480
N 12.87896924 18.56500703 17.05618642 0.00226505 -0.00425679 -0.00460396
N 14.23880781 10.00586662 13.10713281 -0.01014239 0.00450276 -0.00097707
N 12.65174400 12.92693666 10.76464579 -0.00230472 0.00250202 -0.00171308
N 11.30032758 15.54605492 15.48756469 0.00047866 0.00120268 -0.00914078
N 14.36689447 10.66558179 17.42357595 -0.00814741 -0.00177216 0.00245704
N 13.37604999 17.68635771 12.37913373 0.00534952 -0.00198170 0.00573749
N 11.33171483 15.07453684 19.37862955 0.00183423 -0.00123484 0.00126821
N 12.76389295 13.92640595 24.24723560 -0.00061844 0.00026504 -0.00395850
N 13.20386218 18.64127389 26.43915426 -0.00437869 -0.00303321 0.00435693
N 14.24479569 10.07754988 22.17277748 -0.00456925 0.00403054 -0.00366985
N 12.40206186 13.07863310 19.94774667 -0.00046658 0.00105186 -0.00483187
N 11.47344038 15.81750055 24.26740099 0.00210060 0.00226393 0.00236299
N 14.19229321 10.86109342 26.18164141 -0.00191001 0.00608682 -0.00482607
N 13.31561408 17.96141876 21.42533471 0.00202306 0.00113545 -0.00662073
N 11.03533459 24.69063951 1.15287805 -0.00403944 -0.00187598 -0.00195572
N 12.49609491 23.43340921 5.71248986 0.00030607 -0.00035688 0.00355781
N 13.42289387 28.21985232 7.80290794 -0.00377226 0.00130937 -0.00734426
N 14.23220406 20.24595637 3.45092167 0.00516601 0.00310989 0.00801870
N 12.72481110 23.23245049 1.46452176 0.00226226 -0.00318641 -0.00220634
N 11.31329025 25.46085734 5.88395647 0.00277224 -0.00240584 -0.00071423
N 14.36625752 20.43403416 7.55560663 -0.00202630 -0.00258637 -0.00202508
N 13.22964967 27.52872008 2.91385743 0.00501508 -0.00029823 -0.00114463
N 11.36371664 24.67878619 10.20899063 -0.00501298 0.00097726 -0.00048590
N 12.32184388 23.38312339 14.69218756 0.00970313 -0.00650973 -0.00288250
N 13.32631934 27.89997657 16.98300030 -0.00210445 0.00242098 -0.01350830
N 14.13698554 19.80654300 12.63666792 0.00183744 -0.00049980 0.00143006
N 12.49192979 22.67358392 10.50958238 0.00743418 0.00130485 0.00207778
N 11.22375631 25.39641420 14.78284813 0.00171860 0.00532104 -0.00089492
N 14.10987124 20.55756909 16.63206877 0.00846273 -0.00454887 0.00259242
N 13.18478126 27.78237991 11.99704526 0.00363762 -0.00376184 -0.00537947
N 11.36033268 24.50788248 19.20403215 -0.00427133 0.00001708 0.00212779
N 12.78110937 23.52918269 24.00822524 -0.00471074 0.00184519 0.00571570
N 12.96666391 28.11114658 26.40246528 0.00339005 -0.00324413 0.00574041
N 14.64003712 19.81617546 21.97834352 -0.01071491 -0.00404375 -0.00421616
N 12.08615096 22.43773815 19.73470359 0.00380543 -0.00656130 0.00025782
N 11.39990681 25.38598877 24.26750152 0.00305420 -0.00588944 -0.00463350
N 14.51627538 20.50730203 25.98908641 0.00500270 0.00246993 0.00221240
N 12.94097000 27.32650864 21.31442147 -0.00475849 -0.00122552 -0.00309287
N 15.07737408 5.73306151 1.44682715 0.00151993 0.00488509 0.00716421
N 16.22653704 4.17914188 5.89156569 -0.00166125 -0.00502799 0.00338929
N 16.85656080 8.91513696 8.06374331 -0.00810071 0.00410886 -0.00213994
N 17.93965322 0.84059958 3.51706031 0.00418670 -0.00222544 -0.00594733
N 16.18432064 3.65042393 1.42017378 -0.00297614 0.00280403 0.00415196
N 15.15676983 6.19472766 6.20343368 0.00516470 0.00638042 -0.00000011
N 18.01164820 1.17541227 8.03620594 0.00279664 -0.00854980 -0.00014526
N 17.06032938 8.52815078 3.37148507 0.00122837 0.00357377 0.00704966
N 15.16108072 5.58101383 10.38922726 -0.01038825 0.00168837 -0.00000252
N 16.26750556 3.93895166 15.32435470 -0.00149394 0.00082096 0.00089982
N 16.74282798 8.85502981 17.11951841 0.00106782 -0.00344425 -0.00365631
N 18.13052315 0.70082464 12.71652849 -0.00834801 0.00714291 -0.00148808
N 16.20359712 3.61501443 10.91934828 0.00409996 0.00292918 0.00105442
N 14.92473469 5.78132711 15.43754462 -0.00108911 0.00030860 -0.00068786
N 18.19510524 1.03595969 17.15331400 -0.00344362 0.00210363 -0.00727356
N 16.57181136 8.49733356 12.39921841 -0.00661778 0.00614495 -0.00335567
N 14.66720249 5.58546053 19.66870980 -0.00451535 0.00315544 -0.00208789
N 16.04749991 4.10998893 24.43742709 0.00245012 0.00361077 -0.00112478
N 16.69431330 9.17942021 26.34097794 0.00413461 -0.00007250 -0.00545299
N 17.59931618 0.60868318 21.79710809 -0.00573968 0.00110708 -0.00377481
N 15.79685245 3.65555146 20.34415409 -0.00556957 0.00234635 -0.00748026
N 14.85571512 6.10971854 24.63107352 0.00514280 -0.00019226 -0.00206403
N 18.06838638 1.25379224 26.03783170 0.00039566 0.00042341 0.00346193
N 16.84680734 8.30116662 21.63758045 -0.00361534 0.00818960 -0.00009660
N 14.88343502 15.23719643 1.28507060 -0.00680019 -0.00329327 -0.00089998
N 16.53944685 13.75589780 5.81940463 0.00075824 0.00513674 0.00114148
N 16.81112878 18.47100203 7.94661824 -0.00386722 0.00167948 0.00194782
N 18.11480627 10.54078889 3.55318628 0.00086793 0.00124161 0.00320866
N 15.83716699 13.24381557 1.75929464 -0.00412003 0.00137711 -0.00240908
N 15.25254230 15.73357947 5.85630076 -0.00499003 -0.00474066 0.00667354
N 18.09415535 10.87202570 7.72528131 0.00607438 0.00209710 0.00083688
N 16.86612005 17.96738971 2.88924690 0.00315095 -0.00486039 -0.00558892
N 14.96371639 14.67631057 10.37927279 -0.00088972 0.00065771 -0.00110671
N 16.13810217 13.72093028 15.18486108 -0.00090027 0.00783499 -0.00129798
N 16.54453595 18.31405572 17.10649224 0.00581752 -0.00459559 0.00100826
N 18.23886834 10.12266590 12.70227882 0.00676176 -0.00109504 0.00258048
N 16.02339002 12.61564040 10.75190655 -0.00313273 -0.00438520 -0.00463266
N 15.00476136 15.70153790 15.24801621 -0.00236187 -0.00228935 -0.00480827
N 17.99819170 10.82882892 16.93175123 0.00641482 0.00368037 -0.00142505
N 16.94130465 17.83702009 11.97302593 0.00148803 0.00663365 -0.00429942
N 14.97483416 15.13561651 19.51764789 0.00407560 -0.00430296 -0.00005780
N 16.08845741 13.68441230 24.23916603 0.00027065 0.00139951 -0.00420713
N 16.92691983 18.63943752 26.13067305 0.00126603 -0.00034512 -0.00440939
N 17.97524183 10.30199347 21.67557946 -0.00250490 0.00062520 0.00162102
N 16.05656182 13.17430920 20.01780373 -0.00564126 0.00053562 -0.00186571
N 15.13133479 15.73637329 24.31142383 0.00025730 0.00700761 -0.00276385
N 18.00230661 11.11662756 26.32230934 0.00024988 -0.00116609 0.00051166
N 17.32714676 18.22714439 21.17342602 -0.00404017 0.00271249 -0.00195023
N 15.17399018 24.54437341 1.12588404 0.00154723 -0.00818435 0.00548810
N 16.33787779 23.45372285 5.40215231 -0.00424437 -0.00066978 -0.01329871
N 16.72318651 28.14354254 8.18071479 -0.00164435 -0.00012584 -0.00271809
N 18.03510685 19.94065376 3.25527560 0.01037522 -0.00651517 -0.00020076
N 16.33803137 22.59399165 1.52217232 0.00197375 -0.01102474 -0.00580106
N 14.91268181 25.13682967 6.20395026 -0.00869965 -0.00079773 0.00202327
N 18.19226903 20.30218964 7.63939073 -0.00469446 -0.00670614 -0.00314929
N 17.06670722 27.50649032 3.18747426 0.00237948 -0.00072095 -0.00106874
N 15.18019664 24.64505059 10.16314396 -0.00532021 0.00569468 0.00672499
N 15.73506801 23.22559973 14.75102039 0.00519322 -0.00278911 -0.00645736
N 16.83056352 28.04999592 17.47316877 0.00493042 0.00916348 0.00325686
N 18.31689188 19.70575785 12.33055308 0.00147915 -0.00184436 -0.00283755
N 16.15949205 22.57778919 10.42741035 0.00709626 0.00433668 0.00134648
N 14.95327967 25.36486664 15.21994212 -0.00183770 0.00239756 0.00361224
N 17.56792551 20.31179347 16.54486005 -0.00209398 0.00267795 -0.00116005
N 16.80885692 27.64654031 12.33924776 0.00340548 0.00102623 -0.00055564
N 14.73000921 24.55171549 19.57838413 -0.00224590 0.00545245 0.00243759
N 16.42325444 23.27767222 24.17440153 -0.00088098 0.00545521 -0.00148656
N 16.73693284 28.20662306 26.41085101 -0.00200153 -0.00682220 -0.00419547
N 18.38046690 20.24708404 21.47846450 -0.00515159 -0.00040024 -0.00029407
N 15.82213905 22.52628659 19.76522963 -0.00469410 -0.00339340 0.00050724
N 15.50601313 25.32546918 24.47432291 0.00454485 0.00277527 -0.00032305
N 17.91527477 20.68776643 26.13974303 0.00019229 -0.00430047 0.00376816
N 16.53929517 27.22637180 21.68188542 -0.00061937 0.00066520 0.00080444
N 18.68812229 5.49415708 1.32826648 0.00248558 -0.00187808 -0.00400121
N 19.91453503 4.24549184 6.07475213 -0.00065355 -0.00380578 0.00304011
N 20.42808030 9.07487558 8.48430874 -0.00540691 -0.00378094 0.00035864
N 21.82558577 0.63258353 3.47375904 -0.00330870 -0.00529912 0.00013695
N 19.61242882 3.47801119 1.66546374 -0.00194154 -0.00320327 -0.00628235
N 19.07338695 6.32744053 6.53597920 0.00281374 0.00264209 -0.00127394
N 21.68869440 1.46370472 7.84466442 0.00232261 -0.00023639 -0.00426641
N 20.73312864 8.74406092 3.17259929 0.00185814 0.00368965 -0.00456269
N 18.50599160 5.55192492 10.32198515 0.00534260 0.00537012 -0.00287895
N 19.86569302 3.95726296 14.96261565 -0.00512712 0.00283063 0.00284861
N 20.55912056 8.95099993 17.13559957 -0.00078113 0.00390118 0.00414187
N 21.67158656 0.88662048 12.90680687 0.00164165 -0.00026625 0.00872310
N 19.83929779 3.56548090 10.67130441 0.00216121 -0.00160865 0.00316315
N 18.65876448 5.78412389 15.39963086 -0.00222281 0.00085968 0.00853013
N 21.74718271 1.12368159 16.73566709 -0.00761306 -0.01041234 -0.00914730
N 20.21169208 7.93251062 12.46188327 0.00371370 -0.00178386 0.00065203
N 18.35815270 5.23965321 19.83716678 0.00373999 -0.00220457 -0.00024470
N 20.01478991 4.09057189 24.12327287 -0.00290735 -0.00135541 -0.00279181
N 20.36816978 9.44402702 26.28543623 -0.00239164 -0.00134159 0.01005640
N 21.35219835 0.29819767 21.78507331 0.00340639 0.00132712 0.00538324
N 19.63333397 3.32086869 20.03518453 0.00072906 0.00686792 -0.00527964
N 18.68497552 5.91194046 24.62419711 0.00483186 0.00121731 -0.00504815
N 21.75487084 1.11427781 26.19304179 0.00524858 0.00132434 -0.00190311
N 20.51524325 8.20516297 21.66101057 0.00391112 -0.00210099 -0.00026445
N 18.37758583 14.80019296 1.33244862 0.00399391 -0.00605419 -0.00209451
N 19.71773211 13.26882576 5.80474868 -0.00005679 -0.00101813 0.00926680
N 20.37401746 18.60877120 7.95785886 -0.00197867 -0.00237276 0.00250723
N 21.74847368 10.76692241 3.56290447 0.00247247 -0.00047312 0.01193164
N 20.06832366 13.22532836 1.59303860 -0.00345487 0.00244418 0.00578165
N 18.94418715 15.39243397 6.15408777 0.00260964 -0.00111003 0.00061847
N 21.75115413 10.81153959 7.80154989 -0.00056866 0.00031386 0.00943161
N 20.55215598 17.80794715 3.07340322 -0.00182555 0.00258482 0.00130116
N 18.61548878 14.90162893 10.17963932 0.00571368 0.00648318 0.00303792
N 19.70984700 13.79452447 14.97971241 0.00422906 -0.00335465 -0.00253151
N 20.42220935 18.74894028 17.10225585 0.00464328 0.00413278 -0.00278039
N 21.54002996 9.81491281 12.44528821 0.00238786 0.00939163 -0.00111228
N 19.78891512 13.09009724 10.87984596 0.00840301 -0.00167497 0.00525341
N 18.44392231 15.71614750 15.44433342 -0.00153275 0.00743342 -0.00747800
N 21.43758897 11.05078204 17.13762263 -0.00000827 0.00164768 -0.00231061
N 20.86626747 17.57576967 12.10669325 -0.00033921 -0.00043744 0.00489390
N 18.54766589 15.04135086 19.54015579 0.00229310 0.00201423 -0.00589882
N 19.68210800 13.65872152 24.15634454 -0.00643170 -0.00014542 0.00108437
N 20.54343853 18.40808879 26.60734311 -0.00245555 -0.00408149 -0.00274341
N 21.63529267 10.12727760 21.75779774 -0.00538286 -0.00022372 -0.00524877
N 19.94498765 13.23346428 19.98036069 0.00316323 0.00288908 0.00105289
N 18.61676660 15.69979263 24.32439625 0.00412467 0.00153200 -0.00132534
N 21.83353711 11.12652426 25.90848284 0.00493308 0.00554607 0.00282273
N 20.55489859 18.07227939 21.24677624 -0.00382630 -0.00045068 0.00307047
N 18.82089728 24.79216717 1.28063774 -0.00297779 -0.00241327 0.00509044
N 19.91067376 23.42414459 5.87405524 0.00298162 0.00261429 -0.00141551
N 20.62367998 28.20426265 8.24867601 -0.00246508 0.00120781 -0.00289963
N 21.57412345 19.73634971 3.45910228 0.00566375 -0.00110056 -0.00268200
N 20.05751594 22.86392110 1.63845554 -0.00133029 0.00179105 -0.00211917
N 18.76573793 25.45665386 6.36817983 0.00586887 0.00357592 -0.00556344