1728
Time=9000.00000000 pbc="T T T" Lattice="21.94914781 0.00000000 0.00000000 0.00000000 28.86963690 0.00000000 0.00000000 0.00000000 27.41378038" energy=-10391.51872230 virial="1.03766837 3.82535451 4.18863914 3.82535451 5.23694021 -6.31680285 4.18863914 -6.31680285 -23.20395210" stress="0.00216540 0.00012918 0.00019114 0.00012918 0.00291345 -0.00036730 0.00019114 -0.00036730 0.00173705" Properties=species:S:1:pos:R:3:vel:R:3
N 0.26596564 5.28717673 1.25551929 -0.00711656 0.00146884 0.00618290
N 1.76689430 4.37091040 5.97602732 -0.00089530 -0.00299345 0.00716313
N 2.48674130 8.75894636 7.92609072 -0.00063939 0.00289456 -0.00326712
N 2.97788039 0.51459928 3.47072214 -0.00283778 0.00442124 -0.00265978
N 1.68451568 3.49659556 1.66940966 0.00061519 0.00320043 0.00253453
N 0.21877131 5.96394095 6.22356612 -0.00414948 0.00016527 -0.00435386
N 3.23563635 1.19854199 7.55018955 -0.00775459 -0.00904596 -0.00681559
N 2.31931114 8.26781818 3.04242238 0.00175728 -0.00145469 -0.00848955
N 0.64497265 5.58578427 10.28449436 -0.00352115 0.00265147 -0.00591963
N 1.59442650 4.12398327 14.86651418 -0.00609785 -0.00461552 0.00122178
N 1.93075920 8.88472177 17.19410236 -0.00925226 0.00001447 -0.00134966
N 3.70855994 0.72195285 12.90610800 0.00002137 -0.00154386 -0.00114950
N 1.74364199 3.49158880 10.48542785 0.00575148 0.00068695 -0.00356991
N 0.53141181 6.14374289 15.00983066 -0.00265474 -0.00441821 -0.00014784
N 3.23915560 1.25195413 16.91976536 0.00573515 0.00681938 -0.00138973
N 2.38189506 8.42127978 12.04136742 0.00065198 -0.00196839 0.00172489
N 0.37136038 5.22258913 19.55238886 0.00025745 0.00231888 0.00486450
N 1.80515634 4.17166364 24.09759047 -0.00206419 -0.00636300 0.00411098
N 2.09636071 9.05866919 26.19643756 -0.00233950 0.00472218 0.00299496
N 3.41058295 0.57694960 21.76713479 -0.00643197 -0.00214587 -0.00243790
N 1.71433924 3.30284029 19.61373887 0.00079407 -0.00075426 0.00616229
N 0.64438879 6.16753750 24.33668341 0.00115600 0.00051094 -0.00750583
N 3.38668433 1.14752531 25.85135294 -0.00005666 0.00232788 0.00796407
N 2.14911609 8.17974708 21.53416409 0.00414517 0.00160012 0.00140578
N 0.09050897 15.25888231 1.12695029 -0.00433827 -0.00388487 -0.00613827
N 1.37088342 13.47206050 5.70923213 -0.00463580 0.00462494 -0.00189840
N 2.22014473 18.36830265 8.30809248 -0.00326678 0.00300737 0.00305016
N 3.39968771 10.20058119 3.34750997 -0.00227964 -0.00157325 -0.00209229
N 1.24166152 13.32332170 1.43026749 0.00010640 -0.00093022 -0.00459338
N 0.43703068 15.57790322 6.10103461 0.00053611 -0.00522781 0.00285126
N 3.33977956 10.93355958 7.54797622 0.00214875 0.00753294 -0.00615212
N 2.15227165 17.88346726 3.42064075 -0.00613584 -0.00128626 -0.00135788
N 0.37907413 15.08158658 10.05220922 -0.00025009 -0.00407177 0.00660380
N 1.57174826 14.05183489 14.89078092 0.00501288 -0.00490233 0.00071187
N 2.14974546 18.65201313 17.47957951 -0.00200659 0.00714011 -0.00162597
N 3.48334101 10.32772711 12.61517379 -0.00138676 -0.00154077 0.00389769
N 1.76200473 13.15981476 10.38532300 0.00188719 -0.00710755 -0.00791936
N 0.24423626 15.90017116 14.92451151 -0.00229636 0.00269381 -0.00172357
N 2.85483467 10.99651808 16.83735278 -0.00117282 0.00196728 -0.00047465
N 2.32690229 18.33409842 12.34224191 0.00098537 -0.00170628 0.00083463
N 0.76916020 15.32626387 19.50021966 0.00044159 -0.00651616 -0.00674964
N 1.69805563 13.92121595 23.96258565 0.00384926 -0.00046427 0.00329305
N 1.96574654 18.71157779 26.22260366 -0.00137851 -0.00244439 0.00297649
N 3.18961216 10.15460641 21.66267461 0.00431208 -0.00176338 -0.00579180
N 1.73432934 13.21146750 19.83575308 -0.00280623 -0.00497690 -0.00323346
N 0.33472614 15.67993432 24.63311370 -0.00247854 -0.00129616 0.00509531
N 3.40501690 10.96098405 25.98949548 0.00543956 0.00029311 0.00044064
N 2.23290648 18.01336040 21.50901871 0.00016548 -0.00087608 -0.00848068
N 21.91372111 24.55928610 0.99236803 -0.00378468 0.00296052 -0.00527253
N 1.36225777 23.22389290 5.79731540 0.00155346 -0.00274368 -0.00224765
N 2.00839199 28.22525623 8.12497821 -0.00314072 0.00487220 -0.00001588
N 3.31594889 19.91116414 3.72811562 0.00233728 -0.00252764 -0.00044337
N 1.24843436 22.66061636 1.40579044 0.00234592 -0.00166180 -0.00103162
N 0.07935320 25.13304169 6.05056277 0.00399899 -0.00631258 0.00048268
N 3.13257376 20.48287087 7.74093769 0.00375028 -0.00389052 0.00276634
N 1.85029396 27.38874605 3.34919160 0.00290865 -0.00064940 -0.00416406
N 0.50820572 24.86591416 10.46968663 0.00827229 0.00041080 -0.00110764
N 1.71825181 23.29761142 15.02542170 0.00000812 -0.00394376 0.00149353
N 1.98067474 28.20163078 17.25541741 -0.00244767 -0.00239857 0.00237979
N 3.68164564 20.08269462 12.79855100 0.00175333 -0.00049399 -0.00193205
N 1.60366898 22.85441173 10.83404890 -0.00543400 0.00094437 0.00254433
N 0.67278695 25.37262822 15.37995448 0.00663781 -0.00624036 -0.00177253
N 3.38821306 20.61557856 17.13059869 -0.00265153 -0.00615817 0.00173668
N 2.46198420 27.79842757 12.38760014 -0.00724077 -0.00432997 0.00150414
N 0.24826978 24.72728272 19.57983699 0.00530543 0.00167199 -0.00039310
N 1.49598720 23.52935343 23.96216856 -0.00136989 0.00280488 0.00385967
N 1.98128938 28.28965878 26.29655763 0.00214292 0.00118638 0.00139790
N 3.58100598 19.89145577 21.95106382 0.00158997 -0.00172543 -0.00304313
N 1.36024424 22.74285547 20.00749781 0.00311282 0.00082470 -0.00268889
N 0.31458050 25.54646226 24.20501858 -0.00094958 0.00574304 0.00517410
N 3.27929039 20.58917941 25.97946274 0.00252563 0.00199728 -0.00109609
N 2.11026145 27.62824991 21.44790406 -0.00475023 0.00227829 0.00232831
N 4.12538280 5.67284154 1.15418974 -0.00138810 -0.00417655 0.00371971
N 5.25666474 3.92648687 5.74553805 0.00626908 0.00462335 -0.00617689
N 5.69699775 8.93823110 7.67130715 0.00015240 -0.00244931 0.00242387
N 6.81725417 0.54394428 3.41037977 -0.00134112 0.00556902 0.00380124
N 5.13060246 3.61873145 1.41673259 0.00557139 -0.00134199 -0.00023906
N 3.98680341 5.83672542 6.02160384 -0.00247965 -0.00078484 0.00000292
N 6.82663819 1.26351472 7.99344116 -0.00389582 0.00117188 0.00412567
N 5.97943874 8.31903971 3.45334383 0.00090867 0.00702796 -0.00254054
N 4.54124254 5.57198970 10.09390278 -0.00078818 -0.00141722 0.00056744
N 5.44423779 4.18839207 14.84203061 0.00610374 -0.00142959 0.00077560
N 5.41818006 9.14257654 16.96725301 0.00233821 0.00007830 -0.00455573
N 7.27299289 0.74317985 12.61353396 0.00221120 -0.00172027 -0.00177384
N 5.53022454 3.46789361 10.54272672 0.00205129 -0.00550748 -0.00273202
N 4.05962134 6.02972888 15.05030347 0.00128341 -0.00168923 0.00150561
N 7.01269745 1.39941463 16.86586095 -0.00881416 -0.00136694 -0.00071117
N 5.83027184 8.48917831 12.05533650 0.00155683 0.00735888 0.00585732
N 3.85254289 5.59157218 19.46055205 0.00273022 -0.00639968 0.00156401
N 4.96549088 3.96487588 23.84801633 0.00133351 -0.00046451 0.00032136
N 5.52901405 9.06130960 26.36671507 0.00152044 -0.00341260 -0.00032811
N 7.31065241 0.61429433 21.79106860 0.00325965 0.00384291 -0.00125764
N 5.10109274 3.67996100 19.93687356 0.00366333 -0.00231098 -0.00554449
N 4.02286512 6.06230750 24.46166902 0.00664720 -0.00491862 -0.00205997
N 6.82615113 1.43753576 25.83184371 0.00172421 0.00300275 -0.00222152
N 5.71142892 8.37379160 21.78193544 0.00394614 -0.00015421 0.00067919
N 3.62395547 15.13299714 1.24060719 -0.00329433 -0.00781905 -0.00251845
N 4.97801473 13.52870857 5.67096080 0.00941271 0.00143081 0.00160259
N 5.65953830 18.89696270 7.86374265 0.00022091 -0.00491148 -0.00165503
N 6.98969042 10.33848974 3.56732166 0.00409195 -0.00114440 -0.00032203
N 5.05031635 13.23871545 1.25313321 -0.00447163 0.00046061 0.00658955
N 3.92723124 15.47136525 5.93327621 0.00257701 -0.00497501 -0.00310830
N 7.14207720 10.74265045 7.52944793 0.00563133 0.00211375 -0.00077772
N 6.00064848 17.81266612 3.07373454 0.00079492 0.00109696 -0.00188475
N 3.85780424 14.97605356 10.11892987 0.00341687 -0.00018664 0.00508792
N 5.11443533 13.95568257 14.78755402 -0.00529713 0.00677682 0.00076336
N 5.98693073 18.36867230 17.23658787 0.00100980 -0.00309430 0.00021786
N 7.09250584 10.34260169 12.32924228 -0.00095132 -0.00171751 0.00352829
N 5.13313577 13.11035005 10.43662304 0.00580160 0.00405669 0.00245382
N 3.95288590 15.83428040 15.23538599 0.00369851 0.00166657 0.00698517
N 7.03389200 10.81109144 16.86274398 -0.00628095 -0.00085585 -0.00130541
N 5.90927063 17.93662790 12.08442772 -0.00381931 0.00476973 0.00278922
N 4.06926735 15.07336669 19.59339661 -0.00515648 -0.00340085 -0.00642105
N 5.03083165 13.56621158 23.94789335 0.00046849 0.00293347 -0.00200654
N 5.78205835 18.61647244 26.19290785 0.00174087 -0.00005128 -0.00588046
N 6.91711285 10.35261504 22.11841652 -0.00225041 -0.00519323 0.00293394
N 5.39422973 13.15550010 19.90394351 0.00423312 -0.00074415 -0.00238519
N 3.99808366 15.60766631 24.43100797 0.00168372 -0.00785576 0.00030887
N 6.98847027 10.88992286 26.10118335 -0.00223739 0.00049026 0.00329524
N 5.83013833 17.93952265 21.40850333 -0.00150440 -0.00889004 -0.00125915
N 3.76580836 24.56781071 1.21595505 -0.00290000 -0.00374484 0.00016594
N 4.86618258 23.13943259 5.68832396 -0.00487633 -0.00813020 0.00089516
N 5.60209358 28.13015656 8.09928973 -0.00428466 -0.00587089 0.00113463
N 7.33735890 19.70277831 3.32803578 0.00094489 0.00378634 0.00654548
N 5.09324226 22.75134900 1.62134110 -0.00220618 -0.00316255 0.00262757
N 3.71252135 25.11450874 6.19653446 -0.00003829 -0.00193309 -0.00880386
N 7.03430481 20.66187840 7.47268137 0.00353440 -0.00713249 -0.00704832
N 5.48708044 27.50107762 3.08746335 -0.00352656 -0.00069579 0.00542409
N 3.96338291 24.81767109 10.63243667 0.00169385 0.00308421 -0.00241176
N 5.27596344 23.55170863 15.09455120 0.00340306 -0.00232354 0.00439612
N 5.77530108 28.38300543 17.16308924 0.00540544 0.00056140 -0.00102932
N 7.12572641 19.89687874 12.29181877 -0.00101732 0.00167620 -0.00323017
N 4.96247820 22.79755566 10.61286903 -0.00725182 0.00230254 0.00067250
N 3.88990082 25.33214644 15.35894302 0.00509156 -0.00267749 -0.00167996
N 7.03407309 20.40270176 16.72757471 -0.00202076 -0.00078657 0.00015820
N 6.11399084 27.61524513 12.61009468 -0.00719644 -0.00086907 -0.00148016
N 3.64228918 24.73815640 19.45243476 -0.00627716 0.00536365 0.00164893
N 5.41668184 23.63474348 24.16668668 -0.00486789 -0.00141515 -0.00272800
N 5.69929593 28.37783717 26.26050890 -0.00179102 -0.00340532 -0.00032525
N 7.15301455 19.81544925 21.59645401 0.00035024 0.00124987 -0.00252085
N 4.89683532 22.91810612 20.07505109 -0.00508167 0.00042868 -0.00134320
N 4.20841470 25.57456951 24.16114946 -0.00434274 0.00090372 0.00533134
N 7.06901254 20.46461976 25.92313400 -0.00093159 -0.00396858 -0.00637796
N 5.76170567 27.77673039 21.30923678 0.00774777 -0.00533293 0.00225344
N 7.44420074 5.51099511 1.03076292 0.00598945 -0.00330972 0.00305848
N 8.86919751 4.10951203 5.77582980 -0.00020321 0.00879749 0.00370909
N 9.39183159 8.90333504 7.96790387 0.00011506 0.00319995 0.00294653
N 10.71675976 0.77487589 3.25585247 -0.00480979 -0.00151961 0.00844179
N 8.48631703 3.48584936 1.45268422 0.00064259 0.00431278 0.00182196
N 7.46687908 5.95704454 6.18289582 -0.00006613 -0.00270502 -0.00446419
N 10.41096168 1.20904162 7.64134557 0.00684972 0.00364864 -0.00139449
N 9.64669250 8.31062881 3.08024480 -0.00458504 -0.00053603 0.00849761
N 7.83393683 5.76897407 10.23940573 -0.00187870 -0.00383373 0.00276400
N 8.95530283 4.18151689 14.82938055 -0.00085586 0.00330236 -0.00155517
N 9.36974398 9.09834598 16.90242909 0.00982217 -0.00091063 -0.00536075
N 11.06315340 0.67893071 12.34935312 0.00910995 0.00815419 0.00166518
N 8.72409178 3.69108752 10.50296278 0.00631587 0.00481650 0.00123552
N 7.74221743 6.18968598 14.94188034 0.00373802 -0.00483749 -0.00067109
N 10.45143099 1.35568693 16.57280991 -0.00255734 -0.00003140 -0.00222221
N 9.60609425 8.51195856 12.19540926 -0.00351410 0.00018301 0.00502236
N 7.32728338 5.47231260 19.52558417 0.00015203 0.00007391 0.00265310
N 8.74100016 4.20161362 23.93340541 0.00318133 -0.00074149 -0.00427394
N 9.51667666 8.93910677 26.27642288 0.00009625 0.00061265 -0.00275915
N 10.65419077 0.66823123 21.43181254 0.00204966 0.00337023 0.00286193
N 8.84506105 3.67936211 19.52637075 0.00341916 -0.00698971 0.00404606
N 7.52304006 6.05637770 24.48989545 -0.00384456 -0.00011502 -0.00333664
N 10.73946107 1.18409821 25.58167516 -0.00105227 0.00112836 0.00176639
N 9.46222509 8.49594708 21.18558976 0.00334609 0.00207838 0.00084042
N 7.96532138 15.11674440 1.14374656 0.00532887 -0.00004033 0.00288980
N 8.97393040 13.76062428 5.67403504 -0.00594683 0.00128056 -0.00328358
N 9.41242613 18.68327950 7.87668353 -0.00128003 -0.00194622 -0.00024570
N 10.62260399 10.36114101 3.31662307 0.00064984 0.00431721 -0.00397721
N 8.67098624 12.94377344 1.43643266 -0.00791534 0.00283944 -0.00139843
N 7.53957511 15.55305426 5.94445238 0.00431583 -0.00665963 -0.00213063
N 10.59091690 10.94823609 7.73103543 0.00418299 -0.00104990 0.00033358
N 9.67118435 17.93971483 3.22406997 -0.00344911 0.00283679 -0.00639295
N 7.58160722 14.93191723 10.45061501 -0.00210664 -0.00325111 0.00522930
N 8.74274025 13.74184677 14.79048745 0.00361543 -0.00567335 -0.00181095
N 9.31278908 18.53695924 17.25857685 -0.00251619 0.00293788 -0.00486947
N 10.78415844 10.52943357 12.34470271 -0.00063246 0.00116573 -0.00312371
N 8.79422477 12.93152974 10.51612606 -0.00506429 -0.00600658 0.00227244
N 7.36757585 15.64199899 14.95353099 -0.00052818 0.00089480 0.00032644
N 10.77102396 11.00317361 17.03084162 0.00026712 0.00069676 0.00470673
N 9.44722999 17.96486076 12.34501134 -0.00683777 0.00849483 -0.00873524
N 7.57300356 14.95240360 19.19427685 -0.00245206 0.00503825 -0.00060314
N 8.67936183 13.56055709 24.00475097 -0.00237541 0.00073165 -0.00484027
N 9.40390870 18.56692155 26.60495970 -0.00241390 0.00272804 -0.00460829
N 10.69731541 10.31802960 21.62217018 0.00045621 -0.00385925 0.00416211
N 9.01294981 13.20532951 19.72370139 0.00296803 -0.00229027 -0.00370752
N 7.54672030 15.58691491 24.26326911 0.00333703 -0.00122891 -0.00171278
N 10.80663774 10.82301057 25.85731653 -0.00352550 -0.00496344 0.00267701
N 9.44989246 17.87998330 21.36354020 0.00509647 0.00436766 0.00311769
N 7.49242703 24.92800806 1.09423657 0.00649045 0.00378422 -0.00123176
N 8.68217946 23.25567968 5.57373343 0.00425962 -0.00008561 0.00690466
N 9.09616239 28.17510487 7.80958899 0.00561275 -0.00114647 -0.00614311
N 10.36601114 20.13032853 3.61879383 -0.00028486 -0.00619623 0.00344363
N 8.38210186 22.79616879 1.42394619 -0.00412815 0.00434159 -0.00501321
N 7.32450092 25.14910920 5.88411603 -0.00580585 -0.00378358 0.00879681
N 10.73232106 20.53489288 7.84190319 -0.00011051 -0.00450019 -0.00361981
N 9.37575013 27.78092999 2.99301668 0.00202048 -0.00414456 0.00037675
N 7.99760412 25.10186184 10.33415646 0.00709283 0.00085885 0.01501071
N 8.89310799 23.35132547 14.96066677 -0.00481320 0.00022215 -0.00327811
N 9.28268689 28.20252026 17.01206994 0.00215593 -0.00042658 -0.00123360
N 10.89266112 19.83644366 12.57149392 -0.00019284 0.00522797 -0.00737632
N 9.02668025 22.98838219 10.71440588 -0.00077858 0.00520262 -0.00021074
N 7.68750475 25.27691133 15.42321489 -0.00099172 -0.00095224 -0.00377341
N 10.47161051 20.49593409 16.93076885 0.00469559 0.00323445 0.00283436
N 9.53532400 27.81292625 12.37380415 0.00166485 0.00009212 -0.00253968
N 7.35877948 24.62601889 19.75718725 0.00374649 -0.00623646 -0.00432391
N 8.94878217 23.37122668 24.14088038 0.00354216 0.00004563 -0.01292236
N 9.21892817 28.42574276 26.02578715 -0.00318882 0.00605376 0.00247913
N 10.47017494 19.81260188 21.84075672 -0.00480047 -0.00216099 0.00302386
N 8.87319947 22.84240650 19.92780985 0.00397693 -0.00204847 -0.00694028
N 7.81265805 25.38464857 24.18613542 -0.00079723 0.00196129 -0.00433083
N 10.51073021 20.48022269 26.13403456 0.00717215 0.00499775 -0.00103785
N 9.52679494 27.52741538 21.31711866 0.00340302 0.00224483 -0.00001302
N 11.06539224 5.33551353 0.97908152 -0.00322858 0.00410642 0.00189621
N 12.49602224 3.95953071 5.49880607 -0.00030341 -0.00025083 0.00116396
N 13.06310468 9.03784037 7.91005900 0.00461540 -0.00570033 0.00029816
N 14.28293491 0.70749089 3.28014009 -0.00140125 0.00006305 -0.00233011
N 12.11189928 3.24808793 1.07233186 0.00685614 0.00292259 0.00039810
N 11.35053009 5.99070896 5.84197908 -0.00167606 0.00218037 0.00433356
N 14.29896671 1.28197111 7.71075588 -0.00091957 0.00723976 0.00358710
N 12.66687960 8.27523866 2.78573672 0.00384226 -0.01006775 0.00310132
N 11.16483670 5.47657947 10.02796265 -0.00005573 0.00370064 0.00377899
N 12.77151463 4.24685195 14.76069171 0.00060559 -0.00293147 0.00316144
N 13.11590738 9.19418682 16.91726536 0.00488502 -0.00216054 0.00050035
N 14.29469831 0.68648063 12.81827943 -0.00584554 0.00292316 0.00053578
N 12.52165091 3.59103646 10.53914031 -0.00273398 -0.00302579 0.00255817
N 11.65382685 6.23386603 14.94063587 -0.00320888 0.00282524 -0.00204204
N 14.49721540 1.35930719 16.89233204 0.00250575 -0.00458599 -0.00109092
N 13.22778657 8.40357367 12.17250260 -0.00311217 0.00556197 -0.00468485
N 11.12034336 5.66212015 19.09042099 0.00147046 -0.00308029 -0.00222776
N 12.50968471 4.25791156 23.73301480 -0.00542217 0.00233576 0.00527971
N 13.22226227 8.85632814 25.92762379 0.00644503 -0.00120147 -0.00420286
N 14.36800919 0.53446678 21.55173905 0.00375162 -0.00049720 0.00128096
N 12.41934197 3.79585638 19.49939545 0.00704677 -0.00258080 0.00332884
N 11.17114711 6.03653007 23.95792999 0.00005832 -0.00324176 0.00240003
N 14.04993655 1.24634480 25.82581760 -0.00588254 0.00138596 0.00583651
N 13.03379601 8.34354167 21.15964747 -0.00276470 0.00070333 -0.00048262
N 11.24591819 14.98784602 1.25278229 -0.00085856 -0.00169897 -0.00109936
N 12.34449481 13.79997511 5.19040630 0.00227279 -0.00305238 -0.00653647
N 13.04739960 18.58520375 8.02933182 0.00348933 0.00582962 -0.00184149
N 14.11544039 10.04216312 3.22985796 0.00435890 0.00067159 0.00166876
N 12.61445209 13.17712983 1.47545719 0.00164200 -0.00648981 -0.00914840
N 11.23610994 15.59244224 6.13976982 -0.00076376 0.00177995 -0.00062525
N 14.03822764 11.07030408 7.52831479 0.00280014 -0.00273424 -0.00310990
N 13.18190590 18.17286324 2.93189038 -0.00049080 -0.01047483 0.00445237
N 11.19098661 14.86285062 10.22089111 0.00275063 -0.00709172 -0.00229221
N 12.33146996 13.79360462 14.75562100 0.00010344 0.00339297 -0.00342686
N 13.09203847 18.76066981 17.10115003 0.00345949 0.00428938 -0.00736512
N 14.34528593 10.40836922 12.54338210 0.00015395 -0.00146478 -0.00190794
N 12.59857064 13.10698630 10.42264014 0.00315472 -0.00060074 -0.00285655
N 11.51657268 15.82526694 15.39953898 -0.00571678 0.00074787 0.00083981
N 14.43183525 11.11045545 16.76653453 -0.00098319 -0.00893314 -0.00793420
N 13.21866708 17.99201164 12.37899770 -0.00051932 -0.00219550 0.00468461
N 11.48009387 14.95874437 19.35352713 -0.00379819 0.00206559 0.00357719
N 12.63787674 13.44852542 24.02243212 0.00226018 0.00519992 -0.00001985
N 12.84591836 18.60300987 26.32068968 -0.00176599 -0.00349427 0.00296688
N 14.42770391 10.12379515 21.47220077 -0.00489702 -0.00370479 0.00366418
N 12.56363490 13.06274090 19.92135279 -0.00148676 0.00150610 -0.00544374
N 11.48431637 15.57608708 24.28465346 -0.00277839 0.01041685 0.00181221
N 14.44297877 10.72968331 25.74826752 0.00477926 -0.00694535 -0.00521170
N 13.05040351 18.00728670 21.32291194 -0.00009941 -0.00719621 0.00145004
N 10.85281233 24.35421773 1.17253254 -0.00398178 0.00375005 -0.00046417
N 12.55767814 23.46505485 5.62066191 0.00300610 -0.00028624 0.00374721
N 13.16445598 28.16062726 7.86320215 0.00646935 -0.00306927 -0.00185909
N 14.13763382 20.19067298 3.49596758 -0.00214102 -0.00300169 -0.00295843
N 12.57645833 22.83486356 1.57536249 -0.00408122 -0.00369465 0.00244745
N 11.06363062 25.17773670 5.82006501 0.00204518 -0.00445865 -0.00296423
N 14.35781139 20.50618311 7.77544594 0.00038712 -0.00358985 -0.00200282
N 12.99579369 27.66654055 3.10737473 -0.00656428 0.01312707 -0.00049937
N 11.29514908 24.94922014 10.13361061 -0.00094472 -0.00570532 -0.00807604
N 12.78500320 23.51024695 14.89831185 -0.00321047 0.00161738 0.00515149
N 13.22984311 28.38565292 17.43041622 -0.00125388 -0.00233566 0.00595650
N 14.68764849 19.75269952 12.59634638 -0.00170087 0.00155794 0.00341649
N 12.28130351 23.02086551 10.85515199 -0.00950812 0.00116718 0.00459646
N 11.41224338 25.38648894 15.11784744 -0.00370287 0.00224439 -0.00009151
N 14.30487360 20.71420129 17.07295234 -0.00428692 0.00401846 -0.00056239
N 13.15713047 27.63954813 12.32072054 -0.00158619 0.00320357 0.00154349
N 11.29006065 24.75084426 19.32132044 -0.00422409 0.00364944 -0.00304619
N 12.72711566 23.42400718 24.05816886 0.00206910 -0.01035697 0.00368073
N 13.03940191 28.15507522 26.20543142 -0.00344277 0.00196496 -0.00317343
N 14.43978455 19.81975183 21.98191117 -0.00204539 -0.00421387 0.00105690
N 12.32697202 22.78411423 19.76442047 0.00095813 -0.00146517 0.00507618
N 11.41501057 25.27038623 24.22485765 0.00861582 -0.00474169 -0.00802456
N 14.22000897 20.43374016 26.24291970 -0.00545519 0.00427663 0.00155818
N 13.06691362 27.48895135 21.29427649 0.00216904 -0.00174664 0.00362808
N 15.10337882 5.60348577 0.61967273 0.00696485 0.00450467 0.00213546
N 16.37764474 3.99659231 5.77112386 -0.00280628 -0.00096658 -0.00703948
N 16.36012372 9.14508930 7.96816013 -0.00417590 0.00136586 0.00239354
N 17.66787952 0.83530933 3.47189129 0.00087584 -0.00070742 0.00511679
N 15.98637508 3.69221834 1.57565236 -0.00535776 0.00143852 0.00157670
N 14.93731043 5.76379131 6.15362262 0.00202518 0.00167957 0.00007931
N 17.91281898 1.18171833 7.80876130 -0.00309354 0.01180410 0.00340799
N 16.65885632 8.09118438 3.04027138 0.00090845 0.00226417 0.00526149
N 14.69173214 5.42840072 10.24841562 0.00338097 0.00227073 0.01102176
N 16.32386435 4.22611115 14.66959852 -0.00083008 -0.00223797 0.00817200
N 16.65612164 9.18399797 17.17619595 -0.00176990 0.00126714 -0.00351687
N 18.33530412 0.73452450 12.62255242 0.00037406 0.00360352 -0.00164684
N 15.97878750 3.44892031 10.65343028 0.00125048 -0.00044169 0.00692419
N 15.00214791 6.11616077 15.14351545 0.01035812 -0.00425722 0.00398913
N 18.04441533 1.23719938 16.70892886 -0.00071900 -0.00339320 0.00307202
N 17.02354246 8.38156847 12.34301187 0.00152768 -0.00014002 0.00303703
N 14.97015606 5.35982645 19.51384462 -0.00136181 0.00080009 0.00810405
N 15.91943199 3.75295911 23.84132769 -0.00039172 0.00705564 0.00505858
N 16.98093831 8.70971499 26.09272275 -0.00315409 -0.00648537 -0.00461275
N 18.05106506 0.75772892 21.73163508 -0.00057134 0.00309102 0.00240134
N 15.94475167 3.31530208 19.64813073 0.00145062 0.00316909 -0.00235891
N 14.88140633 5.77596137 24.11318491 -0.00240499 0.00122235 -0.00742161
N 17.80155856 1.25010413 26.13437583 0.00404351 0.00613004 -0.00214777
N 16.83444196 8.30333720 21.16219232 -0.00014101 0.00195774 0.00752056
N 15.10927114 14.93013111 1.25485720 -0.00125454 -0.00495549 -0.00257640
N 16.23378891 13.96025925 5.71024942 -0.00105810 0.00812673 0.00147408
N 16.99116193 18.56354043 8.10170706 -0.00090694 0.00303514 0.00636045
N 18.02169998 9.91658496 3.31709391 -0.00622390 -0.00031316 -0.00039802
N 16.16449598 12.94248208 1.43534312 0.00313355 -0.00676943 -0.00571211
N 15.13866459 15.95103795 6.14597575 0.00168114 0.00478765 0.00580962
N 17.83232518 10.83018902 7.60906935 -0.00263646 -0.00047644 -0.00198321
N 16.45017975 17.94002348 3.19847417 -0.00507005 -0.00165498 -0.00102055
N 14.77306139 15.10477014 10.45186260 -0.00541316 0.00645061 0.00158228
N 16.19684589 13.85612577 14.78428423 0.00304615 0.00194385 0.00225496
N 16.54799156 18.62089271 16.87159123 0.00055609 -0.00002632 -0.00027028
N 18.25810177 10.33464054 12.37225687 0.00411916 0.00309395 -0.00367516
N 16.13846152 13.26510786 10.64156563 -0.00274722 -0.00387355 0.00055209
N 14.65356648 15.40033122 15.44850525 -0.00005462 -0.00679380 0.00205033
N 18.06800185 10.97643681 16.78021587 -0.00118967 0.00111867 0.00040570
N 16.88519265 17.87530431 12.37953002 -0.00421607 0.00199535 -0.00137850
N 14.88726569 15.13876537 19.34292513 0.00198946 0.00187151 -0.00246028
N 16.16066391 13.54550368 23.94771852 0.00370364 -0.00129907 0.00281550
N 16.42889220 18.68819498 26.23248790 -0.00759203 0.00260512 0.00252749
N 18.24105123 10.10774099 21.52114783 0.00965718 0.00593940 0.00022779
N 16.27838488 13.30916783 19.67912489 -0.00030925 0.00672725 0.00082757
N 15.05291043 15.59256160 24.29137829 -0.00547324 0.00184181 -0.00630633
N 17.91324071 10.80238042 26.10599748 -0.00036955 0.00363895 -0.00130830
N 16.80904596 18.06567893 21.44578951 0.00350648 -0.00347344 0.00137926
N 14.84024094 24.77877631 1.13800929 0.00348837 0.00123431 0.00287438
N 16.16397911 23.35230820 5.70601690 0.00282606 -0.00080157 -0.00058976
N 16.57587355 28.22023841 8.01178069 -0.00690524 0.00116335 0.00267730
N 17.94350377 19.70605795 3.32181731 0.00211959 -0.00261748 -0.00079648
N 16.09082809 22.86378841 1.56246438 -0.00364981 -0.00209685 0.00192075
N 14.91501030 25.21320736 6.05105399 0.00145775 -0.00172169 -0.00344275
N 17.75036284 20.68658319 7.79490885 -0.00147257 0.00001404 -0.00096701
N 16.56674301 27.69168217 3.15974753 0.00098484 -0.00108828 0.00264050
N 14.74233091 24.62771777 10.34141373 0.00261168 -0.00337699 0.00009874
N 16.41415779 23.41807121 14.71688174 -0.01048821 0.00196836 -0.00168522
N 16.56800312 28.35978821 17.28346186 0.00190214 0.00001849 0.00109668
N 18.16406492 19.80966630 12.55001128 -0.00206691 0.00052332 -0.00530776
N 16.18620869 22.75782069 10.73683896 0.00168370 0.00876956 0.00200232
N 15.24327849 25.37934821 15.04571790 -0.00162809 -0.00015048 -0.00522886
N 17.90038677 20.56440808 16.74288294 0.00171876 -0.00711683 -0.00410578
N 16.92473131 27.76541535 12.34406977 0.00628944 -0.00166962 0.00027491
N 14.77585237 24.49985830 18.99771099 -0.00414692 0.00369137 -0.00111691
N 16.20981185 23.29964737 23.85769231 0.00482256 0.00561018 -0.01069179
N 16.54727381 28.22644055 26.27606947 -0.00119406 -0.00398662 -0.00241819
N 17.96831044 19.99228074 21.71130046 -0.00266361 -0.00137494 -0.00595412
N 16.23313990 22.77055621 19.73477428 0.00519781 0.00084327 -0.00065873
N 15.03609690 25.24451706 24.34438529 -0.00428054 0.00703595 0.00287995
N 18.01045662 20.43856940 26.03325378 -0.00253987 -0.00333792 0.00236691
N 16.83494814 27.65361573 21.62532606 0.00223526 0.00162424 -0.00215905
N 18.79945172 5.77313618 1.20035231 0.00187236 0.00081902 0.00196195
N 19.62784522 4.18585536 6.09406417 0.00004757 0.00586898 -0.00693591
N 20.28844675 9.23698928 7.91823966 -0.00835010 0.00135898 0.00541525
N 21.45410058 0.51751423 3.44970397 -0.00394359 -0.00092586 -0.00268142
N 19.56118453 3.62047810 1.65775979 0.00184270 0.00030445 -0.00781262
N 18.78472188 6.29025786 6.08404634 -0.00092469 -0.00134108 -0.00822758
N 21.42724344 1.38903355 7.80222218 0.00064759 0.00147610 -0.00223958
N 20.66252830 8.43376267 3.05832864 -0.00467812 0.00014077 0.00333620
N 18.50586134 5.22464731 10.29956083 0.00188751 -0.00100880 0.00059777
N 20.02956449 4.16899596 14.84755469 0.00808348 0.00352650 -0.00034422
N 20.54305655 8.86336632 17.15499930 -0.00284208 -0.00389304 0.00230292
N 0.06134292 0.64716328 12.32273864 -0.00077726 -0.00398984 -0.00229499
N 19.75281976 3.32539083 10.31474827 -0.00417472 0.00149182 0.00297692
N 18.70379961 6.05967382 15.00977820 -0.00337497 0.00225704 -0.00373538
N 21.78496515 1.34210084 16.68709161 0.00142214 -0.00448936 -0.00249606
N 20.57057869 8.36582773 12.31765293 0.00249512 -0.00172887 0.00001480
N 18.44865582 5.18076394 19.50084474 0.00303592 -0.00668387 0.00111933
N 20.03879318 3.91074114 24.10114321 -0.00143872 -0.00150354 0.00421810
N 20.36881099 9.17080339 26.16057257 -0.00350385 -0.00505491 -0.00535615
N 21.62307649 0.71638102 21.50680151 0.00181882 -0.00617471 -0.00578506
N 19.86640100 3.37099609 19.73789406 -0.00264524 -0.00252841 -0.00015447
N 18.91291738 5.86771328 24.18327574 -0.00203743 0.00023301 0.00401471
N 21.53073237 1.44930463 25.89605405 0.00151230 -0.00233001 0.00343371
N 20.58187435 8.20141395 21.31717536 0.00090798 -0.00897394 0.00208701
N 18.34296394 14.94421615 1.36226734 -0.00565664 0.00612085 0.00159394
N 19.86818905 13.56437979 5.78001860 0.00345449 0.00306783 0.00624126
N 20.25222930 18.66312494 8.08338425 0.00062905 -0.00656673 -0.00613118
N 0.08435251 10.29470744 3.33062040 0.00148200 0.00149770 -0.00162151
N 19.64236787 13.11207834 1.53505156 -0.00084330 -0.00365168 -0.00283241
N 18.69994237 15.54487857 6.05757097 0.00377832 0.00352951 -0.01034198
N 21.90509398 10.90433889 7.89907855 -0.00545915 0.00481137 0.00095161
N 20.32293764 17.93381693 3.18575227 -0.00275554 -0.00364259 -0.00271304
N 18.68704047 15.17408806 10.30355397 -0.00215924 -0.00128114 0.00091187
N 19.99886742 13.86353707 14.86668561 -0.00634274 -0.00140380 -0.00003796
N 20.39871248 18.73455855 17.02011464 0.00488423 -0.00448038 -0.00005900
N 0.08818267 10.20016690 12.45520881 0.00263893 0.00354972 -0.00097763
N 19.72391206 13.15233550 10.23348286 0.00153349 0.00286073 -0.00159831
N 18.36845828 15.63627030 15.06205861 -0.00598190 -0.00053280 -0.00387344
N 21.47457602 10.96674922 16.84728796 -0.00166678 -0.00272987 0.00778670
N 20.40485958 18.04930633 11.97380800 -0.00022977 -0.00695450 0.00061074
N 18.61696053 15.25056639 19.35994030 0.00112679 -0.00023395 -0.00242411
N 19.65064764 13.70807006 24.00907635 -0.00366318 -0.00146712 -0.00020507
N 20.45404498 18.39964670 26.20355797 0.00094765 0.00213033 -0.00694184
N 21.56742964 10.26515287 21.70547341 0.00270032 0.00859254 0.00008576
N 19.78556306 13.29540251 19.79881519 0.00310003 -0.00150987 0.00596273
N 18.43201838 15.62086381 24.14445585 0.00147197 -0.00268936 0.00117437
N 21.74511747 11.00788528 25.96463205 0.00984620 0.00483246 -0.00977417
N 20.44980074 17.97984039 21.28433256 0.01114189 -0.00003850 0.00600653
N 18.30073929 24.72775269 1.18212119 0.00271010 -0.00264206 -0.00544899
N 19.60452685 23.24838104 5.51402025 0.00686470 0.00373635 -0.00592534
N 20.66021188 28.11018174 8.15638548 0.00000551 0.00058957 -0.00442338
N 21.34883073 20.05529217 3.44521433 -0.00229205 0.00040772 0.00941098
N 19.51024596 22.75602470 1.27855563 -0.00424515 -0.00598407 -0.00264058
N 18.60691268 25.30234128 6.21037202 -0.00269076 -0.00030468 -0.00255807