1728
Time=52000.00000004 pbc="T T T" Lattice="21.85616882 0.00000000 0.00000000 0.00000000 29.13959270 0.00000000 0.00000000 0.00000000 27.15132428" energy=-10386.09111726 virial="20.11360958 18.12179836 23.56063177 18.12179836 18.49228690 -10.04724090 23.56063177 -10.04724090 -1.05945049" stress="0.00361157 0.00104729 0.00131668 0.00104729 0.00371230 -0.00046827 0.00131668 -0.00046827 0.00284890" Properties=species:S:1:pos:R:3:vel:R:3
N 21.80310861 5.31803617 1.24884574 0.00229783 -0.00452916 -0.00337069
N 1.82972094 4.24539668 5.78796512 -0.00728839 -0.00334636 0.00176357
N 1.76879506 9.28919166 7.64098660 0.00815765 0.00069914 0.00083050
N 3.09738802 0.75171146 3.49866499 -0.00518137 0.00148519 0.00484326
N 1.15026835 3.35680623 1.48306260 0.00359415 0.00667758 0.00790195
N 0.46732957 6.10389529 6.06663719 -0.00797166 -0.00491422 -0.00945271
N 3.10348576 1.29386358 7.56941113 0.00231317 0.00326795 -0.00160353
N 2.12799505 8.17369331 3.18125974 -0.00107430 0.00163280 0.00660805
N 0.24015600 5.22518258 10.26034779 -0.01094018 0.00515190 0.00313099
N 1.65376879 4.08406227 14.33373383 0.00279670 0.00048429 0.00256460
N 2.09508531 9.02864702 17.11845248 -0.00125541 -0.00198511 0.00445057
N 3.17984299 0.92371199 12.63178501 0.00101888 -0.00161782 -0.00572044
N 1.66441972 3.47445861 10.74286172 -0.00040953 0.00461109 -0.00258398
N 1.27956345 6.33661633 14.87416214 0.00195359 0.00067041 0.00297246
N 3.27858578 1.48986476 16.74870943 0.00406976 0.00089551 0.00508160
N 2.22459690 8.25673839 12.20864646 0.00317641 0.00662506 0.00278229
N 0.31192029 5.33128811 18.94556287 0.00008853 0.00003169 -0.00671997
N 1.50690003 4.36645517 23.75798165 0.00121460 -0.00172990 -0.00273874
N 1.91495150 8.99392010 26.07219675 0.00253851 0.00575244 -0.00317797
N 3.38826342 0.49003994 21.46557535 0.00411095 0.00047363 0.00055236
N 1.52022104 3.44958613 19.56833625 -0.00264091 -0.00133767 -0.00037270
N 0.12597034 6.13913779 23.96169753 -0.00124998 0.00116290 0.00124406
N 2.97426074 1.50764128 25.60468441 -0.00326038 0.00237148 0.00475583
N 2.32198281 8.81835614 20.81376939 -0.00136965 -0.00448870 0.00649562
N 0.40900220 15.32819917 1.21378889 -0.00561822 0.00115170 0.00793320
N 1.91152175 13.60401208 5.74090562 -0.00088515 0.00293805 0.01011587
N 2.31145821 18.77151350 7.90528362 0.00664219 0.00147336 0.00381697
N 3.34749065 10.09741530 3.09728525 0.00770337 -0.00026665 0.00490139
N 1.13505426 13.03589150 1.43885358 -0.00512307 -0.00347574 -0.00249281
N 0.99051806 15.72911298 6.06927836 0.00390003 -0.00133381 0.00027715
N 3.56476732 10.64857374 7.41484917 0.00207510 -0.00477461 -0.00289009
N 2.19230547 18.27295976 3.00060032 -0.00163765 0.00066672 -0.00443558
N 0.45228822 15.31472736 10.33686310 -0.01022415 -0.00711371 0.00091262
N 1.80681871 13.84532869 14.77317236 0.00096170 -0.00183831 -0.00263265
N 2.76003996 18.66239846 17.28543249 -0.00139563 -0.01103014 -0.00470147
N 3.30042429 10.32733626 12.35601619 0.00347890 0.00012798 0.00296288
N 1.63882121 13.36533407 10.03813680 0.00142839 -0.00104995 -0.00008189
N 0.75213644 15.94399457 14.88806453 0.00739797 -0.00068021 0.00101827
N 3.54850867 10.72109182 16.50306516 -0.00144283 -0.00069104 -0.00193611
N 2.31205088 18.31982081 12.27100224 -0.00158834 0.00131272 0.00371551
N 21.80362041 15.15587240 18.96449166 0.00516747 -0.00521486 -0.00317319
N 1.22764219 14.00390934 23.91771324 -0.00181063 0.00284955 -0.00140602
N 1.88921675 18.62768691 26.25171121 0.00366877 -0.00070000 -0.00452877
N 3.75444054 10.56508113 21.43786089 -0.00466473 -0.00157003 -0.00074344
N 1.23649025 13.33371470 19.56931127 0.00274416 0.00260107 -0.00407624
N 0.34682825 15.98412341 24.17969310 0.00411470 -0.00214154 0.01011835
N 3.19503995 10.74177115 25.53916452 0.00076401 0.00859421 -0.00619611
N 2.06399417 18.12583682 21.24403536 -0.00520565 -0.00134197 -0.00133880
N 0.03699555 25.31789436 0.77541276 -0.00249369 -0.00447100 0.00048303
N 0.93660572 23.48263217 5.61487604 0.00238630 -0.00488201 -0.00559927
N 1.95977393 28.43660405 8.10782129 -0.00364409 0.00359877 0.00093054
N 2.90625158 20.24331914 3.99786945 -0.00062460 -0.00683816 -0.00452323
N 0.73307693 23.42687606 1.74367269 0.00602850 -0.00266574 -0.00329890
N 0.40230693 25.66409797 6.14343830 0.00541770 0.00616183 -0.00623542
N 3.06943401 20.87918720 7.78968398 0.00444798 0.00170772 0.00284975
N 2.16972953 27.83523489 3.08508971 0.00206703 0.00858773 0.00262232
N 0.46490620 24.94047748 10.25335279 -0.00210217 0.00099428 0.00527023
N 1.90353097 23.47574527 14.72403304 0.00261622 0.00688905 0.00650337
N 2.07862322 28.73770806 16.84760993 -0.00358283 0.00456312 -0.00176347
N 3.77656399 19.97363728 12.86090526 0.00226020 -0.00480711 -0.00059997
N 1.31273121 22.84734991 10.67004299 -0.00003214 -0.00045371 0.00234580
N 0.59393326 25.33598668 15.52315699 -0.00287773 0.00279636 -0.00350127
N 3.36159709 20.79686807 16.81211796 -0.00078141 -0.00312772 -0.00097603
N 2.33662451 27.96767146 11.98730862 -0.00332147 -0.00310221 -0.00041367
N 0.40927039 24.97617969 19.00692499 0.00267753 0.00442668 0.00175610
N 1.56096555 23.77350762 23.52388979 0.00083597 0.00235244 0.00305366
N 2.02809936 28.53913013 26.04653072 -0.00312110 -0.00564177 0.00366752
N 3.17543074 20.14258686 21.82750751 0.00147888 0.00170739 0.00385022
N 1.58318096 23.13251224 19.87045833 0.00442739 0.00883213 0.00291679
N 0.12211364 25.40011655 24.23427146 -0.00806320 -0.00325444 0.00201863
N 2.99275706 20.67588290 26.20113973 -0.00194465 0.00065674 -0.00095178
N 1.76607728 27.98238972 21.22938054 0.00136046 0.00194649 0.00235569
N 3.59346028 5.09326882 1.12078397 0.00455859 0.00136515 -0.00279164
N 4.77570316 4.53415229 5.56817117 -0.00523844 -0.00683402 -0.00274015
N 5.86509945 8.78158826 8.40554564 0.00008856 0.00277460 0.00547100
N 7.19837333 0.47474194 3.22255497 0.00245105 -0.00143445 0.00043979
N 4.99271581 3.40290974 1.71681692 -0.00467699 -0.00290526 -0.00139503
N 3.83317576 6.53787796 5.91677572 0.00015561 -0.00094078 0.00214024
N 6.41440381 1.75826717 7.76967859 0.00546049 -0.00478226 0.00363876
N 5.82806511 8.53667244 2.85097799 0.00297416 -0.00152444 -0.00383262
N 4.05785098 5.33248702 10.47963366 -0.00246030 -0.00261445 -0.00441459
N 5.47668021 4.14728313 14.70147563 0.00204410 -0.00316221 -0.00023245
N 5.57848267 8.73985799 17.61427685 0.00580908 -0.00431514 -0.00883464
N 7.52899408 0.68539343 12.60853472 -0.00334691 -0.00274467 -0.00350197
N 5.41935309 3.65805292 11.18374732 0.00196792 -0.00329966 -0.00095545
N 4.15053971 5.91671928 15.30730534 0.00294878 -0.00055939 0.00225591
N 7.17240429 1.33586725 16.42984993 -0.00211482 -0.00054741 -0.00263522
N 5.59844833 8.53165686 12.50419458 0.00295161 -0.00652656 0.00519809
N 3.82834437 5.57462881 19.10442666 -0.00069122 -0.00386348 -0.00481771
N 5.06609014 4.32766232 23.77987228 0.00069494 -0.00115417 0.00118004
N 5.71579275 9.09366648 26.13589170 -0.00241569 0.00394959 -0.00228833
N 6.41222224 0.87752054 21.80401608 -0.00051030 0.00213093 -0.00181398
N 5.24651046 3.80818806 19.60450254 -0.00031617 -0.00863330 0.00143881
N 3.86495046 6.30550103 24.12568177 -0.00292715 -0.00202512 0.00402448
N 6.66644107 1.37841457 25.83167310 0.00137014 -0.00308937 0.00770986
N 6.24426184 8.53430940 21.21737055 0.00233323 -0.00311413 -0.00652326
N 3.85898367 15.29721432 0.93942538 0.00134255 -0.00250718 -0.00435761
N 5.74396514 13.77667481 5.50879189 0.00365572 -0.00355048 -0.00831631
N 5.38804471 18.96565281 7.76240722 0.00189388 0.00253034 -0.00032561
N 7.32416881 10.28787133 3.27789853 -0.00119068 0.00252981 0.00015361
N 4.88023957 13.22101498 1.29611927 0.00719610 0.00435129 -0.00528429
N 4.19269346 15.46569742 5.83740517 0.00223491 -0.00165527 -0.00686486
N 6.84425647 10.78567003 7.65308596 -0.00014982 0.00355002 -0.00196393
N 5.74750015 18.05817241 3.08060853 -0.00910554 0.00654323 0.00038861
N 4.13410209 15.39038922 10.02960101 0.00118351 0.00388582 -0.00645664
N 5.31460971 13.99341309 14.75075397 0.00311601 -0.00200666 -0.00344218
N 5.84069199 19.10385948 16.87457413 -0.00504926 0.00283159 0.00502539
N 6.57272212 10.70959552 12.72132496 -0.00238327 0.00673971 -0.00391321
N 5.19029666 13.31322801 10.46005936 0.00511127 0.00854587 0.00490085
N 4.27319450 16.02481632 15.12362524 0.00411399 0.00443392 -0.00660505
N 6.81711252 10.63223248 16.95806054 0.00032958 -0.00112964 0.00002614
N 5.99928691 18.22971677 12.18162814 -0.00551967 0.00340467 0.00278212
N 3.79100116 15.28126115 19.10147017 -0.00224664 0.00023602 0.00621331
N 5.31458543 13.93454438 23.95094780 -0.00295614 0.00218472 0.00879871
N 5.63021287 18.49783415 25.96550883 -0.00199550 0.00383964 -0.00050669
N 7.32801542 10.51179186 21.43472072 0.00140193 -0.00404458 0.00142729
N 5.25418063 13.58695914 19.79307096 0.00436742 0.00305118 -0.00330474
N 3.86323487 15.63668366 24.27407576 0.00221290 -0.00136095 0.00625452
N 6.73480277 11.10543998 25.63897280 -0.00426551 0.00042146 -0.00396596
N 5.83691498 18.07884405 21.11016269 0.00240362 -0.00179844 0.00136814
N 3.59977825 24.86196208 1.42071582 -0.00415404 0.00386612 -0.00347976
N 4.66570056 23.57169625 5.91166771 -0.00185452 -0.00018524 -0.00486287
N 5.61004529 28.77328274 7.89142420 -0.00360380 -0.00502801 0.00134399
N 7.07273155 19.85569055 3.30402658 -0.00171190 0.00260994 0.00257189
N 4.46435797 22.79864495 1.80521550 0.00121538 -0.00073251 0.00026579
N 3.69279245 25.62458140 6.35494340 0.00012756 0.00642758 0.00202461
N 6.92265989 20.71828008 7.64128409 -0.00179893 0.00007150 0.00142537
N 5.73547312 27.86328446 3.21699883 -0.00132958 -0.00030336 0.00591163
N 3.72587556 24.76538156 10.50756619 0.00095002 -0.00051855 0.00085403
N 5.41951466 23.98067582 15.04512127 0.00305773 0.00048473 -0.00109413
N 6.01272186 28.52660938 17.02886294 0.00118205 -0.00289162 -0.00543839
N 7.50725822 20.04020940 12.41297998 0.00157586 -0.00493291 -0.00300895
N 5.44644989 23.12635616 10.71767186 0.00072468 -0.00327420 -0.00185298
N 3.94120352 25.77472695 15.27444880 -0.00405688 -0.00049228 -0.00687754
N 6.90067816 21.10789546 16.63591080 0.00366749 0.00716213 -0.00808493
N 6.22293093 27.93444581 12.48882211 0.00190413 0.00366902 -0.00407833
N 3.89317052 24.91703174 19.52724631 0.00538475 0.00479116 -0.00371763
N 4.82053643 23.63903196 23.99317194 0.00201398 -0.00674037 0.00651591
N 5.45497041 28.60165891 26.12221487 -0.00013132 0.00464751 -0.00364220
N 7.02185015 19.99748263 21.49815634 -0.00095417 0.00143777 0.00000569
N 5.37716079 23.13287042 19.64825493 -0.00409302 0.00254464 0.00035169
N 3.99165092 25.70400210 24.36468241 -0.00802926 -0.00363565 0.00131360
N 6.39490332 20.63177255 25.62606770 -0.00296604 -0.00233772 0.00217236
N 5.95846712 27.82234750 21.29235980 -0.00084980 0.00517104 -0.00059058
N 7.23651123 5.49138605 0.85134590 -0.00467755 -0.00149770 -0.00179861
N 8.77770305 4.07914705 5.41197436 0.00418293 -0.00129548 -0.00080738
N 9.52096991 9.15565948 7.92087367 -0.00688667 -0.00027309 0.00375902
N 10.37421990 0.72666006 3.54083845 0.00411118 0.00381244 -0.00161734
N 8.54846153 3.61429180 1.28923739 -0.00409328 -0.00248762 -0.00167010
N 7.95725473 6.13839794 5.80384583 0.00320515 0.00384397 0.00267981
N 10.42228682 1.04693234 7.51115255 -0.00037425 -0.00521486 -0.00019679
N 9.66046482 8.50308876 3.01365194 0.00163395 0.00077933 0.00128466
N 7.71309824 5.31124673 10.13273399 0.00141867 -0.00148996 -0.00331462
N 9.22875302 4.48441030 14.56886435 0.00028639 0.00206814 -0.00280647
N 9.52480526 9.04965948 16.77374245 0.00174376 0.00109974 -0.00172620
N 11.17332708 0.60013609 12.65581917 -0.00020816 -0.00090613 -0.00233916
N 8.99444564 3.41923965 10.73446870 0.00030852 0.00159562 0.00068025
N 7.81735993 6.22285437 15.06994011 0.00275293 0.00228432 0.00277887
N 10.70876537 1.30134362 16.81229711 -0.00009635 -0.00511910 0.00067763
N 9.12899384 8.50999282 12.17927381 0.00359019 -0.00440801 -0.01082185
N 7.49985699 5.87140122 18.80112908 0.00278191 0.00034010 -0.00474394
N 8.59087170 4.14812848 23.36291352 -0.00368226 0.00031658 0.00523225
N 9.15612641 9.19342751 25.68636235 -0.00331002 0.00613108 0.00316856
N 10.68122900 0.81508479 21.51962630 -0.00257782 0.00140310 -0.00017027
N 8.68535925 4.07361305 19.60494889 -0.00312903 0.00208196 -0.00447272
N 7.52513674 6.17631935 23.87889507 0.00216970 0.00547382 -0.00360826
N 10.25708387 1.21274000 25.51962211 -0.00172576 0.00396123 -0.00233296
N 9.65602337 8.25831133 20.78082447 0.00388374 -0.00506821 -0.00261888
N 7.28124636 15.07579085 1.10908093 0.00241677 -0.00171299 0.00212024
N 8.80164608 13.77655476 5.60750175 0.00549982 -0.00079706 -0.00149281
N 9.24199847 18.74275482 7.90754459 0.00229895 0.00387783 0.00211968
N 10.89479022 10.39683277 3.49285404 -0.00523421 -0.00698317 0.00258688
N 8.35207190 13.09418960 1.63499071 0.00137456 0.00214418 -0.00004485
N 7.96929616 15.89004310 5.86127593 -0.00715464 0.00037900 0.01012088
N 10.64980811 10.98751361 7.43113046 0.00297995 -0.00575356 -0.00334961
N 9.55405718 17.92680767 2.99129430 -0.00180734 0.00025496 0.00340061
N 7.74026766 15.38405328 10.28586205 -0.00585846 0.00205467 0.00114738
N 9.14737217 13.75697846 14.24258603 0.00408404 -0.00134979 -0.00524036
N 9.22053547 18.90464319 17.03994702 0.00300306 -0.00260170 0.00168462
N 10.60152920 10.25119560 12.19617236 -0.00469852 -0.00600146 -0.00660112
N 8.85252549 13.43538264 10.53808337 0.00097310 0.00368164 -0.00061281
N 7.89536476 15.62518065 14.83679734 -0.00214242 0.00607948 0.00132136
N 10.50837761 11.10328090 16.54478514 0.00081434 -0.00141973 0.00164322
N 9.95805794 18.28531251 11.81769159 0.01023572 0.00007619 -0.00192891
N 7.55270981 15.32948660 19.24691725 -0.00192939 -0.00536968 -0.00245063
N 8.43287527 13.76925597 23.78674208 -0.00189506 -0.00032360 0.00038275
N 9.07577490 18.50038411 26.06299990 -0.00035064 0.00353699 0.00168229
N 10.76218365 10.20945091 21.23307171 0.00235326 -0.00280145 -0.00239266
N 8.91077700 13.43303600 19.58335352 -0.00389271 0.00937748 0.00171823
N 7.59368460 15.88106035 24.04763928 0.00078061 0.00330397 -0.00300360
N 10.63248428 11.08521721 25.75143699 0.00315173 0.00334480 0.00066176
N 9.59258332 18.31729630 20.97857204 -0.00142368 -0.00237974 0.00214398
N 7.27055562 25.06168112 0.75038317 0.00479547 0.00047253 -0.00529200
N 8.73896141 23.66744581 5.31238005 0.00436241 0.00022061 0.00439174
N 9.33180203 28.30004897 8.40976514 0.00011235 -0.00485173 -0.00062126
N 10.13630902 20.13142323 3.26010318 -0.00686761 -0.00334177 -0.00022924
N 8.34179234 23.11352051 1.35621035 0.01186109 0.00012822 -0.00188326
N 7.41200972 25.48172181 5.96345522 0.00530627 0.00038536 -0.00249385
N 10.48576587 20.71560484 7.73329308 0.00012277 -0.00019181 0.00209059
N 9.69777442 27.59101960 3.15659737 -0.00871471 0.00041332 0.00278614
N 7.57696406 25.28317019 10.13874800 -0.00284825 -0.00797532 0.00290709
N 9.13839308 23.64570829 14.78170427 -0.00008693 -0.00758221 0.00835938
N 9.93109024 28.33826960 17.25100124 0.00606218 -0.00482406 -0.00373078
N 10.98246849 20.24080914 12.49643013 -0.00189549 0.00061989 0.00668732
N 8.54688261 23.24133815 10.61706595 -0.00137617 -0.00910756 0.00076321
N 7.98846411 25.55366582 15.31278518 -0.00355556 0.00165439 0.00435112
N 10.56209294 20.79838137 16.61779820 -0.00477038 -0.00791261 -0.00132257
N 9.88407942 27.83429154 12.32722944 0.00720677 0.01006759 -0.00613198
N 7.50939777 25.06203895 19.31952273 0.00007689 -0.00292719 -0.00390990
N 8.70873437 23.63636304 23.74906643 -0.00069591 -0.00028762 -0.00199497
N 9.19276979 28.42266703 26.19736228 0.00291909 0.00408802 0.00208049
N 10.67730720 20.34276223 21.53112574 -0.00249216 -0.00186016 -0.00339252
N 9.03016088 23.10790977 19.53004434 -0.00307264 0.00206876 0.00120945
N 7.57669344 25.62374801 24.13295654 0.00433850 -0.00713372 0.00371558
N 10.07926324 20.53023409 25.77810881 -0.00124421 0.00280093 0.00112673
N 9.35926822 28.05223535 21.45858049 0.00011581 0.00156989 -0.00241590
N 10.77952966 5.59276247 1.00321094 -0.00429006 -0.00414352 0.00097259
N 12.61760449 4.13452152 5.62085061 0.00040219 0.00274024 0.00495966
N 12.74017663 9.00346058 7.84083352 -0.00783934 -0.00136186 0.00637346
N 13.79404416 0.88292354 3.56819375 -0.00285825 -0.00085084 -0.00482866
N 12.10675145 3.66557352 1.17171255 -0.00362994 -0.00220174 0.00353083
N 11.30191180 6.02621202 5.93030609 -0.00133023 0.00515296 0.00234200
N 14.05229137 1.12299943 7.82849629 0.00324290 0.00284933 -0.00367976
N 13.13495464 7.93681428 2.70266275 -0.00424493 -0.00028627 0.00278401
N 11.42963294 5.78529448 10.07904532 0.00666871 -0.00258600 0.00541688
N 12.37278968 3.98995222 14.44398481 -0.00663433 -0.00057423 -0.00117986
N 13.07563677 8.97286006 17.09271994 0.00139149 0.00045735 0.00685307
N 14.59336388 0.67711081 12.72947669 0.00736283 0.00291466 0.00050113
N 12.01896002 3.59388307 10.45379776 0.01515458 -0.00270875 -0.00197003
N 11.76280562 6.20982702 14.90049091 -0.00218324 0.00185236 -0.00595011
N 14.26604303 1.09323682 16.95172574 -0.00211290 0.00286206 0.00423331
N 13.16584599 8.59752046 12.08950439 0.00360712 -0.00065612 -0.00117969
N 11.23347362 5.40620513 18.94784469 0.00479435 -0.00181478 0.00103294
N 12.42290464 4.22791554 23.71355862 -0.00311060 0.00100630 0.01157431
N 13.22060214 8.60355399 25.90290793 0.00238680 0.00035521 0.00003705
N 14.41724603 0.73920256 21.25755788 0.00020628 0.00799003 0.00169515
N 12.84349729 3.67809911 19.37495275 -0.00183366 -0.00139977 -0.00281882
N 11.06722428 6.16227416 23.85589556 0.00163887 -0.00294948 -0.00326477
N 14.00106479 1.50302136 25.89692198 0.00676683 0.00200110 0.00396556
N 13.21793540 8.61586676 21.04024250 0.00052586 0.00643430 -0.00123317
N 10.71848137 15.05216855 0.83242075 0.00374379 0.00215099 0.00109440
N 12.61956049 13.87877100 5.66570499 -0.00473240 0.00018884 0.00196052
N 13.05283094 19.08957671 7.81104683 -0.00171506 -0.00327787 0.00293558
N 13.83878128 9.96208518 3.39247063 0.00517021 -0.00214440 -0.00259145
N 12.16912788 13.26365907 1.30585837 -0.00178554 -0.00409059 -0.00809811
N 11.53125932 15.89020870 5.90714893 -0.00473747 0.00509883 0.00312970
N 14.11761554 10.89855560 7.49649565 -0.00059908 -0.00895222 0.00520062
N 12.89578196 17.94441854 2.88898128 0.00112484 -0.00032315 0.00469202
N 11.31688179 15.33793487 10.12730431 -0.00256876 -0.00299579 0.00346865
N 12.62861143 13.65561861 14.70645979 -0.00338574 -0.00016871 -0.00433939
N 12.97567334 18.64690180 17.52889964 -0.00168243 0.00174502 0.00358489
N 14.36318936 10.47076868 12.52433974 0.00282269 0.00115268 -0.00464735
N 12.26503768 13.20197978 10.49526551 -0.00072307 0.00346071 -0.00272625
N 11.63657093 15.77939437 14.89739377 -0.00391996 0.00035145 -0.00455192
N 14.30741194 10.82712984 16.73326901 0.00281160 -0.00659979 -0.00428038
N 13.19139156 17.99913630 12.19477260 0.00340487 -0.00121860 0.00096125
N 11.45175772 15.68531287 18.93035673 -0.00224086 0.00099256 0.00360879
N 12.95877133 13.58348020 23.18225560 0.00214017 0.00481118 0.00233009
N 13.17324003 18.56190188 25.63367854 -0.01044210 0.00271644 -0.00308099
N 14.40719369 10.59180194 21.38681539 0.00143774 -0.00126064 -0.00635928
N 11.95005348 13.36679719 19.35433252 0.00142847 -0.00271408 0.00651368
N 11.24863901 15.19031186 23.74411546 0.00291772 -0.00190908 -0.00187853
N 14.16921969 10.61309845 25.59958131 0.00558864 0.00013404 0.00104566
N 13.34850379 18.32471800 21.41076047 0.00215136 -0.00682643 -0.00007028
N 11.24352751 24.93339929 1.25213499 0.00219979 -0.00006499 -0.00089079
N 12.43818733 23.78724541 6.03249402 -0.00008743 -0.00151715 -0.00320671
N 13.10255841 28.24450757 8.38837977 0.00899418 0.00814245 0.00266387
N 13.99916843 19.96554646 2.99432466 -0.00014002 0.00573900 0.00276093
N 12.17162908 22.86900945 1.44584661 0.00353034 0.00111581 0.00275160
N 10.86324827 25.57937075 6.01590388 0.00266127 0.00175823 -0.00157129
N 14.48171559 20.87984778 7.42504143 -0.00733429 0.00371271 0.00164211
N 12.95273914 27.94896737 3.18848012 0.00839226 -0.00224705 -0.00274652
N 11.34560984 25.10805080 10.56299640 -0.00315525 -0.00367056 0.00402156
N 12.92659107 23.78697168 15.08356593 0.00718725 0.00667916 -0.00635792
N 12.99722944 28.32014462 16.88837368 0.00441784 0.00094023 0.00311635
N 14.22044756 19.97690195 12.63263640 -0.00177431 0.00161104 0.00479592
N 12.48304287 23.06810853 10.19146271 -0.00563938 0.00131894 -0.00137412
N 11.37489729 25.58293375 15.06254796 0.00562900 -0.00547786 0.00297990
N 14.07164684 20.56467452 16.81166631 -0.00667979 -0.00228945 -0.00026561
N 13.27241620 27.88428277 12.21697245 -0.00293563 -0.00459577 0.00006991
N 11.31307584 25.08037465 19.15562674 0.00250379 -0.00884887 0.00022088
N 12.53072820 23.83837819 23.91752457 0.00254154 -0.00431354 0.00410047
N 13.17008041 28.51190552 25.96804182 -0.00208499 -0.00043721 -0.00008574
N 14.31155563 20.41967347 21.72264578 -0.00601608 -0.00356609 -0.00570462
N 12.29382906 23.08164869 19.64557083 0.00429645 0.00538231 0.00260541
N 11.10113491 25.78284491 24.03986891 -0.00121085 -0.00174553 0.01225847
N 13.81093083 20.73765646 25.70921064 0.00218815 0.00314306 0.00563481
N 13.10625580 28.05328952 21.20011996 -0.00361322 0.00140909 -0.00287350
N 15.32177933 5.77726008 1.07479157 -0.00073029 -0.00318501 0.00228477
N 16.31189492 4.17940224 5.37130342 -0.00539604 0.00585555 0.00112687
N 16.36165443 8.95506638 8.12187866 -0.00697782 -0.00036627 -0.00552226
N 17.67640320 0.69711577 3.38088278 -0.00176373 -0.00545054 0.00421257
N 16.08446201 3.56989659 1.63720804 0.00799832 0.00204030 0.00217008
N 14.97760980 5.82107351 6.08202462 -0.00845217 -0.00468685 0.00034695
N 17.62018757 1.45544151 7.51134109 0.00237150 0.00218756 0.00465051
N 16.82236593 8.59984558 3.16635564 -0.00387104 0.00334286 -0.00079956
N 14.62171141 5.62369935 9.41519089 -0.00131983 -0.00062647 0.00842759
N 16.19982989 4.04882952 13.99201356 -0.00500659 0.00334169 0.00267837
N 16.83511741 8.94582338 16.64178052 -0.00598046 -0.00319583 -0.00539078
N 18.32053002 0.51421999 12.48507989 0.00301338 -0.00328751 -0.01026551
N 15.65999740 3.79425570 10.22966469 -0.00309455 -0.00134523 0.00042955
N 15.03169397 5.92936335 14.62209226 0.00075382 -0.00420281 0.00351001
N 18.06193120 0.67447505 16.23600846 0.00127996 -0.00223369 0.00104027
N 16.93780806 8.58960147 11.84857454 -0.00415295 -0.00593098 -0.00086035
N 15.11611060 5.77287671 19.07858270 0.00131212 -0.00493594 -0.00180281
N 15.81512041 4.24189400 23.84115732 -0.00116870 -0.00281922 0.00177525
N 16.65655484 9.11757116 26.00317712 0.00423691 0.00323832 0.00509680
N 18.00295990 0.40584845 21.39600665 0.00258470 0.00375403 0.00175935
N 16.05470625 3.62941937 19.43509767 0.00022098 0.00360191 0.00052065
N 14.71292077 6.28751048 24.01012048 -0.00022438 0.00514876 -0.00785245
N 17.70934991 1.27316011 25.62290361 -0.00177744 0.00390941 0.00823421
N 16.89872314 8.31255143 21.00332566 -0.00214789 0.00118263 0.00612504
N 14.99754747 15.33123735 0.80394810 0.00014812 0.00389405 -0.00196456
N 16.36891110 13.67226916 5.48590954 -0.00395509 0.00312247 0.00119481
N 16.53747362 18.64325313 7.75560686 -0.00605475 -0.00770177 0.00355400
N 17.97321119 10.58519893 3.51239008 0.00579549 0.00446584 0.00008480
N 16.12458795 13.45534674 1.42583650 0.00427019 -0.00115993 0.00460890
N 15.02020616 15.61493627 5.68595459 0.00404320 0.00274468 0.00806525
N 17.63528044 10.85912293 7.50211895 -0.00106235 0.00699018 0.00257152
N 16.54726809 18.05303173 2.77037551 0.00231402 -0.00396843 0.00305722
N 15.00016380 15.17380861 9.99847964 0.00513680 -0.00002075 0.00009891
N 16.54740929 13.91735864 14.63523521 -0.00122223 -0.00341545 0.00687879
N 17.14140513 18.51308212 17.19480311 0.00055063 0.00336128 -0.00056763
N 18.17546680 10.50670422 12.27692537 -0.00047455 0.00000975 -0.00664021
N 16.18252392 13.16295509 10.41689179 -0.00063773 -0.00227999 0.00184836
N 15.24499996 15.71498808 15.11506165 -0.00075373 -0.00627942 0.00044408
N 17.69967383 11.05229981 16.89951476 0.00062394 -0.00227577 -0.00088991
N 16.97810894 18.19352425 12.04843806 0.00218846 0.00933689 0.00347578
N 14.73350590 15.42297068 19.25937486 0.00199409 -0.00134280 -0.00310533
N 16.35370764 13.69972930 23.46549540 0.00251645 0.00599785 -0.00245270
N 16.14473081 18.76559932 26.03746797 0.00322314 -0.00326660 -0.00382210
N 18.02125768 10.27107400 21.47332379 0.00378188 0.00374371 0.00538074
N 15.77642899 13.39206042 19.51893622 -0.00521466 0.00203961 -0.00046889
N 15.01667411 15.56360009 24.01256986 -0.00391961 0.00058946 0.00259598
N 17.64639867 11.08070017 25.78855195 0.00290930 -0.00537986 0.00088185
N 17.15683307 18.21714756 21.30194300 -0.00391351 -0.00499727 0.00649366
N 14.33058692 24.93555497 0.99363082 0.00514678 0.00639930 -0.00453603
N 15.96591830 23.69490744 5.41870099 0.00163253 0.00361927 -0.00467516
N 16.87436125 28.51776654 7.77455193 0.00348923 0.01074297 -0.00117629
N 17.56633924 20.02694623 3.42703205 0.00236990 -0.00032304 0.00017534
N 15.68223451 23.11260198 1.17604263 -0.00197976 0.00024645 0.00210184
N 14.72273524 25.62884986 5.73708047 -0.00191175 -0.00215374 -0.00359440
N 17.93870433 20.53518859 7.38424279 -0.00364954 0.00297007 0.00443486
N 16.58409648 27.91549211 2.99136313 0.00566357 -0.00908918 0.00258694
N 15.01654210 24.61041415 10.25194170 -0.00286089 -0.00351184 0.00241726
N 16.60519295 23.35932153 14.46179535 0.00383390 -0.00034746 -0.00065488
N 16.54444344 28.35359774 17.42119152 -0.00294416 -0.00469463 0.00103429
N 18.10858558 19.93209104 12.93744643 -0.00338179 0.00085285 0.00486249
N 16.06611440 22.51636667 10.43312306 0.00063183 -0.00196893 -0.00175531
N 15.44813169 25.37818270 14.85636026 -0.00272733 -0.00220482 -0.00272974
N 18.02275600 20.62252716 16.74855907 -0.00479726 0.00395019 -0.00179790
N 17.19017003 27.74292724 12.01598331 -0.00642478 -0.00923939 -0.00346249
N 14.91785000 24.94433215 19.02477184 -0.00071512 0.00095810 -0.00082267
N 15.85875803 23.72714072 23.80398798 0.00278428 -0.00381986 -0.00571488
N 16.22697829 28.59631730 25.74581871 0.00566103 -0.00202300 -0.00521707
N 18.28792053 20.08331072 21.75546275 -0.00155081 0.01015807 -0.00100678
N 16.17411173 23.06307522 19.41294356 0.00487716 -0.00036521 0.00519860
N 14.87120379 25.71180212 24.16912214 0.00593589 -0.00610186 0.00116866
N 17.53703902 20.67781265 25.98656460 0.00268071 0.00391696 0.00896216
N 16.56554544 27.82506059 20.89714036 0.00043731 -0.00276115 0.00047193
N 18.48746531 5.64658272 1.31185048 0.00811962 0.00034416 -0.00235043
N 19.94424518 4.21734666 5.88200097 0.00593324 -0.00776685 0.00151016
N 20.32415457 9.22270077 7.67148527 -0.00294659 -0.00963001 0.00433325
N 21.42177639 0.73788239 3.68130157 0.00060338 -0.00039066 0.00586189
N 19.47854857 3.56311487 1.65437918 0.00735444 0.00405073 -0.00078129
N 18.39648129 6.10793991 6.19640922 -0.00603831 0.00357792 0.00320659
N 21.60797660 1.36829560 7.70536890 -0.00083201 -0.00425781 -0.00274677
N 20.21637927 8.20277508 3.20001550 0.00006895 0.00336129 0.00041558
N 18.53283963 5.62266648 10.27953800 0.00159895 0.00038424 0.00023733
N 20.11429490 4.11865757 14.69934156 0.00501455 0.00435801 0.00478645
N 20.55441948 8.97872241 16.82370328 0.00185256 0.00450217 0.00691792
N 21.48513776 0.89596228 12.55451492 0.00179821 0.00041722 0.00069688
N 19.69664978 3.62583804 10.64637392 0.00452845 0.00791170 -0.00573399
N 18.75315039 5.90577037 15.08419683 -0.00226011 -0.00407275 -0.00048976
N 21.56326912 1.08716522 16.74563604 0.00570205 0.00076690 0.00230691
N 20.40746717 8.42611474 11.98206052 0.00145517 -0.00329153 -0.00012783
N 18.74289648 5.36178628 19.32380579 0.00345104 -0.00149580 -0.00204161
N 19.61542742 4.38740734 23.79960253 -0.00014410 -0.00555886 0.00076830
N 19.89557202 9.09058765 25.72645328 0.00003688 0.00098516 -0.00013003
N 21.41456864 0.84022212 21.69041286 -0.00129635 0.00286558 -0.00773091
N 20.05128126 3.41572750 19.42204358 0.00216769 -0.00987398 0.00129247
N 18.33590714 6.35071937 24.01118487 0.01025767 -0.00133544 0.00230475
N 21.40129194 1.57296251 25.66814502 0.00116400 -0.00167661 0.00573289
N 20.46255125 8.33693269 20.96406216 0.00188722 -0.00155556 0.00061996
N 18.47157288 15.56571540 0.83305844 0.00458044 -0.00238308 -0.00106423
N 19.47936708 13.87261177 5.79584807 0.00044591 0.00280113 -0.00262801
N 20.49728115 18.63835827 7.78028905 -0.00308083 -0.00029610 -0.00005834
N 21.41724812 10.23351640 3.56497879 -0.00443747 -0.00449387 0.00255953
N 19.74681142 13.65646109 1.25955835 0.00415776 -0.00478932 -0.00150123
N 18.48379987 15.98030268 5.74577985 0.00123745 -0.00741176 -0.00914858
N 21.46454827 11.22010666 7.63549661 -0.00559153 -0.00007903 -0.00397301
N 20.23708247 18.13281391 3.41863766 -0.00027713 0.00834249 0.00461851
N 18.57094401 15.47507300 10.29593734 -0.00384648 0.00204915 -0.00146075
N 20.22773721 14.13368498 14.81731238 -0.00799466 -0.00086548 0.00001388
N 20.59465815 18.42372169 17.17499914 0.00129727 -0.00276168 -0.00070565
N 21.54916072 10.45428414 12.12827937 -0.00256324 -0.00530458 0.00019969
N 19.79960430 13.51769147 10.54575256 0.00078220 -0.00205399 0.00236872
N 18.66053202 15.85886711 14.97747529 0.00453711 0.00336673 0.00137410
N 21.57811732 10.98962943 16.31006166 0.00187183 0.00088758 -0.00345977
N 20.49721387 18.01568261 12.21581837 -0.00145113 -0.00159007 0.00543836
N 18.44801447 15.41649640 19.09856341 0.00263256 -0.00820711 -0.00060653
N 19.91449923 13.86656968 23.94875852 0.00043875 -0.00465566 0.00127561
N 20.23344440 18.87281729 26.88918004 -0.00195519 0.00178254 0.00068118
N 21.56565670 10.32284271 21.46597097 -0.00900671 0.00135416 0.00787868
N 19.33251410 13.33844557 19.64590204 -0.00262903 -0.00281584 0.01081242
N 18.65852884 15.84882869 24.09169098 0.00796074 0.00059903 -0.00476396
N 21.36155760 10.82523996 25.73967747 0.00125444 -0.01091969 0.00015354
N 20.70550595 18.24565242 21.24020207 0.00500439 -0.00095111 0.00079025
N 17.84699949 25.10264115 0.93515658 0.01096192 -0.00223292 -0.00684231
N 19.58753702 23.38724353 5.38472772 -0.00113381 -0.00621087 0.00649657
N 20.20372912 28.65359245 7.84492400 0.00146456 0.00305292 -0.00241391
N 21.67333894 19.93344977 3.41691281 -0.00412085 0.00762358 -0.00179755
N 19.31722751 23.34236472 1.50768479 -0.00280168 -0.00568238 -0.00289094
N 18.50226918 25.43648784 5.92745910 0.00278446 0.00104798 0.00169197