1728
Time=87000.00000006 pbc="T T T" Lattice="22.05715390 0.00000000 0.00000000 0.00000000 28.94504570 0.00000000 0.00000000 0.00000000 27.45430710" energy=-10388.36836231 virial="-0.83500359 -6.31200579 -9.10258631 -6.31200579 -41.74914683 0.82468537 -9.10258631 0.82468537 -80.70439942" stress="0.00224975 -0.00041880 -0.00044769 -0.00041880 0.00005895 0.00009453 -0.00044769 0.00009453 -0.00199765" Properties=species:S:1:pos:R:3:vel:R:3
N 0.39093181 5.59984137 1.08105818 0.00115769 0.00051743 0.00231775
N 1.65041472 4.21443184 5.51366723 0.00025702 0.00086879 0.00496729
N 2.06703886 8.65878964 8.41474516 0.00455033 0.00121320 0.00583115
N 3.54776920 0.54073906 3.33384137 -0.00356273 -0.00368996 0.00484012
N 1.75228574 3.65700905 1.45829108 0.00065820 0.01021754 0.00340205
N 0.39578123 6.09069231 6.04699279 -0.00432072 -0.00623870 -0.00101452
N 3.44398339 0.83810452 7.59681449 0.00368513 -0.00659584 0.00697212
N 1.94886076 8.75175055 3.31598000 -0.00166297 0.00164685 0.00199889
N 0.45714257 5.44366656 10.04512642 -0.00238462 0.00182430 -0.00510658
N 1.45383605 4.12386155 14.95192716 0.00449037 0.00260167 -0.00042932
N 2.16558159 8.80686295 16.91195771 -0.00289957 0.00330536 0.00128870
N 3.63158490 0.59372154 12.35227492 -0.00498383 -0.00388636 -0.00167583
N 1.61824278 3.55604738 10.52689811 -0.00196337 0.00082538 -0.00519900
N 0.30879419 6.13802201 15.07093852 -0.00172187 -0.00075647 0.00294372
N 3.26845163 1.14375308 16.74501148 0.00411679 0.00107226 -0.00244785
N 2.18965494 8.26917720 12.75093950 -0.00356138 0.00669216 0.00226186
N 0.20883038 5.52542118 19.41836091 -0.00237075 -0.00381874 0.00374995
N 1.33159409 3.93236541 23.97567537 -0.00528336 -0.00198213 -0.00353635
N 2.05964423 8.75217149 26.13388821 0.00041486 -0.00238280 -0.00753888
N 3.44835939 0.59675814 21.75673110 -0.00043321 0.00447287 -0.00162746
N 1.15590817 3.39802524 19.84280800 -0.00009287 -0.00044647 -0.00119815
N 0.40129833 6.05452546 24.38272818 0.00483256 0.00134225 -0.00349117
N 3.14954896 1.48007119 25.91902893 -0.00065485 -0.00056905 0.00491425
N 2.07653328 8.25143278 21.26018343 -0.00031419 0.00087942 0.00858447
N 0.16254829 14.99807110 1.73377401 0.00431189 -0.00004358 0.00546899
N 1.62104690 13.84439299 5.93125635 -0.00352737 0.00235332 -0.00062295
N 2.12822295 18.29543489 8.33711798 0.00080959 -0.00004085 0.00673257
N 3.23764834 10.48867829 3.66636442 -0.00318898 -0.00166230 0.00041127
N 1.66922802 13.32314574 1.92466001 -0.00242435 0.01003290 0.00303728
N 0.27469637 15.69704732 6.25698916 0.00191801 0.00283729 0.00751703
N 3.15699633 10.63353956 7.95411001 -0.00565728 0.00396817 0.00239625
N 2.33302231 17.94264297 3.17257550 0.00201169 0.00006060 0.00503925
N 0.21713749 15.07793087 10.26144664 -0.00076167 -0.00070583 -0.00030505
N 1.70450805 13.99465481 14.83335004 0.00211612 -0.00596171 -0.00242036
N 2.21166542 18.32284963 17.26542824 0.00441951 -0.00259858 0.00062908
N 3.00900237 10.43618449 12.76759252 -0.00678912 -0.00059207 0.00142780
N 1.56291877 13.38270943 10.90817464 -0.00304917 0.00311293 -0.00269661
N 0.45784800 15.90802875 15.27882565 0.00243483 -0.00317364 -0.00385104
N 3.02821976 10.93017806 16.52958441 0.00250040 -0.00358012 -0.00709531
N 2.30257532 17.89862786 12.43439702 0.00632105 0.00869428 -0.00471817
N 21.92776899 15.18916548 19.40661077 -0.00645587 -0.00588006 -0.00033452
N 1.56223275 14.35790732 24.19125521 -0.00498224 -0.00046551 0.00092424
N 2.00918344 18.64777846 26.12184290 -0.00202115 0.00648671 -0.00468284
N 2.89749982 10.34300607 21.53903747 0.00953923 0.00215462 -0.00663007
N 1.31264259 13.31230157 19.69472912 0.00228785 0.00050195 0.00061576
N 0.41785688 16.36249409 24.47143055 -0.00007808 -0.00007309 -0.00288518
N 3.12223837 10.83261227 26.30283224 -0.00385903 0.00297409 -0.00308133
N 2.09777032 18.01248127 21.74417089 0.00340367 0.00071867 -0.00044493
N 0.55015102 24.85189860 0.90516357 -0.00240182 0.00502400 -0.00239310
N 1.45905151 23.48153037 5.41726391 0.00288002 0.00749455 0.00447986
N 2.07453194 27.97716358 7.79717288 0.00436686 0.00295294 -0.00321752
N 3.42095246 20.06762145 3.55319262 0.00189823 0.00058000 -0.00239831
N 1.77287840 22.86997474 1.32404278 -0.00429678 0.00181175 0.00136046
N 0.14712484 25.44112273 5.73792920 0.00680476 -0.00545529 0.00323239
N 3.15019158 20.31108247 7.83613937 -0.00231146 0.00095175 -0.00647246
N 2.37182721 27.65669984 3.01746833 0.00036114 0.00274156 -0.00110447
N 0.31179066 24.57906680 9.96682853 -0.00048634 0.00147739 -0.00476127
N 1.70669329 23.40355013 14.52585308 -0.00177958 -0.00351572 -0.00793540
N 1.70279002 28.36811695 16.74954286 -0.00077490 -0.00333005 0.00365118
N 3.66082696 19.77215368 12.51785462 -0.00655133 -0.00124353 -0.00712637
N 1.68854754 22.78244793 10.24484704 0.00366642 0.00323733 0.00689346
N 0.48128131 25.26645384 14.91939390 0.00407388 0.00555969 0.00260384
N 3.12078896 20.38249141 16.69671996 -0.00216213 -0.00573391 0.00040700
N 2.16487939 27.79633330 12.24642782 -0.00348952 -0.00553710 0.00007792
N 0.51398328 24.69483481 19.44407336 0.00233456 -0.00092093 0.00295656
N 1.91212613 23.50125138 24.10742092 -0.00383528 -0.00207008 0.00202279
N 1.83682711 28.59554583 26.19146279 -0.00206574 -0.00216743 -0.00636630
N 3.34249137 20.00651019 21.63926804 0.00095934 -0.00271920 0.00139792
N 1.37956042 22.55006402 19.71649182 0.00204244 -0.00008118 -0.00215068
N 0.27752594 25.12459079 24.45070273 -0.00252514 0.00216569 -0.00281074
N 3.16669026 20.65083752 25.95068300 -0.00369458 0.00465945 0.00168998
N 2.15364315 27.69418962 21.30439035 -0.00295654 0.00443780 -0.00328909
N 4.25202378 5.58501568 0.93442319 0.00061561 -0.00335044 -0.00632203
N 5.57246923 4.13669715 5.76299736 -0.00129185 0.00325796 0.00334380
N 5.56952121 8.65635166 8.21884934 0.00047985 0.00112610 -0.00117404
N 7.07622958 0.67942716 3.41803450 0.00698787 0.00692000 0.00593487
N 4.86193478 3.40920870 1.29742961 0.00125504 -0.00361506 -0.00298845
N 4.06189814 5.89555849 6.04571698 -0.00017824 -0.00281605 -0.00330405
N 7.06981881 1.06622794 7.68971057 0.00028995 -0.00593700 0.00083308
N 5.75594848 8.51911437 3.14589624 -0.00287182 -0.00514044 0.00210144
N 3.89516888 5.28422287 10.24663503 -0.00128465 -0.00394868 0.00048733
N 5.26288088 3.98511492 14.87223258 0.00112734 0.00357253 -0.00341816
N 5.69686496 8.98174917 17.33831096 0.00053333 -0.00069186 0.00877811
N 7.40953147 0.61546841 12.61436496 -0.00431363 -0.00129869 0.00568290
N 5.27374581 3.51694649 10.46918979 -0.00390693 -0.00525041 0.00249149
N 3.98526342 5.81644409 15.41643645 -0.00036335 -0.00280393 -0.00430231
N 6.88651491 1.27653281 16.81716560 -0.00041785 0.00524053 0.00377964
N 5.89590156 8.21962060 12.30025917 -0.00596324 0.00004680 -0.00187636
N 3.82990512 5.52813022 19.20475460 -0.00231158 0.00029676 -0.01102700
N 5.49651692 4.23530115 23.64897038 -0.00456216 0.00260947 -0.00528768
N 5.61440231 9.27245862 26.26957593 0.00284809 -0.00210765 0.00517950
N 6.84487372 0.81219423 21.86837443 -0.00050133 0.00051507 -0.00037519
N 4.83331831 3.53129119 19.48861519 0.00189789 -0.00282012 0.00322814
N 4.38011074 6.17557647 24.19735488 0.00344159 -0.00136696 -0.00253184
N 7.17000852 1.10025925 25.96425501 0.00026851 0.00362268 0.00611627
N 5.94251583 8.53344889 21.43871396 -0.00161736 0.00383017 -0.00214991
N 3.84811724 15.15531343 1.06235844 0.00293929 0.00215700 -0.00152433
N 5.35722459 13.79805883 5.70990119 -0.00333515 -0.00056184 0.00191516
N 5.99624445 18.50420093 8.31704399 0.00570683 -0.00688560 -0.00038125
N 7.03511334 10.42548799 3.45603323 -0.00658661 -0.00146100 -0.00578112
N 5.01029063 13.32731697 1.34657122 0.00518644 0.00688067 0.00504294
N 4.01738643 15.50232293 6.13133835 0.00000209 -0.00287499 -0.00310024
N 6.50102235 10.66568310 7.91607154 0.00136499 -0.00136597 -0.00938263
N 5.80976632 18.17147213 3.12380420 -0.00235822 0.00318174 0.00255155
N 3.83560853 15.17658540 10.59306077 0.00387276 0.00142012 -0.00370441
N 5.60077655 13.92378767 15.02282653 -0.00007285 0.00282032 0.00105481
N 5.87695712 18.72297623 17.08391587 0.00176265 -0.00294628 -0.00284581
N 7.10111635 10.18303690 12.60105298 0.00165288 0.00242414 -0.00000424
N 5.08774721 13.21083964 11.11352092 0.00101684 -0.00228360 0.00108843
N 4.39515614 15.86119523 15.40667636 0.00048810 0.00288151 0.00486701
N 6.96268168 10.84257328 17.06427155 -0.00493074 0.00099841 0.00129805
N 6.09317627 17.90641520 12.27329738 0.00096801 -0.00233466 0.00031868
N 3.63772661 15.12162296 19.87887169 -0.00422398 0.00130616 0.00284428
N 5.05179773 13.84820970 24.22962515 -0.00570554 0.00079069 -0.00444715
N 5.67346306 18.77693434 26.23429622 0.00539304 -0.00423731 0.00116539
N 6.83403407 10.56622704 21.91343160 -0.00596392 -0.00234896 -0.00047044
N 5.07821248 13.30978521 19.81885267 -0.00388581 -0.00408465 -0.00397188
N 4.16624359 15.89872642 24.56738941 -0.00018303 -0.00023823 0.00077049
N 6.84782200 11.20263731 26.07130502 0.00086634 0.00258109 0.00184751
N 5.99799160 18.16184884 21.99155490 -0.00307025 0.00095610 0.00250328
N 3.94945574 24.78589723 1.18825969 -0.00266245 0.01530645 -0.00254375
N 5.18727677 23.51255681 5.59374720 -0.00243675 0.00385509 0.00080948
N 5.81480741 28.10585917 7.98221225 -0.00014368 -0.00281135 -0.00035643
N 6.43924447 20.44762746 3.71267311 -0.00316792 -0.00153425 -0.00293477
N 5.23364660 22.79710615 1.75497632 -0.00022427 -0.00418724 -0.00046594
N 4.03273218 25.47482329 5.92122485 0.00157822 -0.00205813 -0.00020249
N 6.89889712 20.57050465 7.85392469 -0.00022274 -0.00524453 0.00733700
N 6.15194975 27.60567529 2.92163338 -0.00043127 0.00117551 0.00117756
N 4.20166729 24.57601721 10.22566324 -0.00219447 0.00725937 0.00257570
N 5.31667388 23.44350818 14.95034940 -0.00490148 0.00169446 -0.00549871
N 5.69776373 28.27033541 17.36001599 -0.00497554 -0.00395641 -0.00225084
N 7.33498705 19.94218516 12.63813228 -0.00970740 0.00353520 0.00380325
N 5.37959292 22.62004535 10.70552352 -0.00383277 0.00809537 -0.00057370
N 4.10860521 25.40460654 15.16204397 -0.00073009 0.00284692 0.00672570
N 6.90817221 20.76612590 16.79779544 0.00032862 0.00306838 0.00001418
N 6.02571567 27.63489253 12.40354096 -0.00414699 0.00043168 -0.00054622
N 3.91564442 24.69110212 19.60727228 -0.00058004 -0.00268595 0.00215100
N 5.38210353 23.40334206 24.19798910 -0.00738082 0.00428624 -0.00318825
N 5.76324833 28.18339747 26.40823286 -0.00275989 -0.00887033 -0.00339400
N 7.48495929 19.95807120 21.80492187 0.00013049 0.00356387 -0.00659638
N 5.30843287 22.82540217 19.64169284 -0.00059418 0.00909965 0.00292707
N 4.11217262 25.37980555 24.36719363 -0.00665648 0.00406437 0.00564805
N 6.97753670 20.63661481 26.48440331 0.00432398 -0.00253319 0.00971119
N 5.90378294 27.63327093 21.50628955 -0.00258723 -0.00778313 0.00779064
N 7.25019283 5.92802333 1.36979565 -0.00123557 -0.00084933 -0.00544892
N 8.98147259 4.26138052 6.04623214 -0.00432316 0.00068353 0.00565696
N 9.09737601 8.99922960 8.28670055 0.01079075 -0.00343859 -0.00225718
N 10.92355871 0.56099896 3.49384615 -0.00691204 0.00015659 -0.00588674
N 8.14190486 3.84770289 1.83600903 0.00083206 -0.00569106 0.00169525
N 7.76900608 6.20970886 6.23406569 -0.01217802 0.00811127 0.00241443
N 10.19438224 1.39532825 7.76860012 0.00169308 0.00015538 -0.00328138
N 9.48305664 8.33609752 3.38958417 0.00662859 0.00539376 0.00238453
N 7.63725619 5.43589338 10.41459729 0.00098305 -0.00102636 -0.00144814
N 8.86618359 4.12018027 15.20088950 -0.00281868 0.00064250 0.00307027
N 9.73039415 8.74324018 17.00927545 -0.00183539 0.00309349 0.00151488
N 11.08029323 0.38047142 12.64806249 -0.00284202 0.00155163 0.00453619
N 8.84811372 3.53841333 10.85231791 0.00352757 0.00277220 0.00384479
N 7.49725567 5.92294509 15.36829665 0.00441168 0.00020372 -0.00182479
N 10.47989801 0.82526617 17.01295694 0.00058929 0.00082622 -0.00236056
N 9.62033986 8.33097903 12.44358389 -0.00221894 -0.00252087 -0.00392162
N 7.12134285 5.62929608 19.82942866 0.00304156 -0.00359519 0.00174776
N 8.82747423 4.18106798 24.41810521 -0.00143326 -0.00032585 0.00179287
N 9.33075621 9.19377215 26.31989081 -0.00134860 -0.00226265 -0.00377325
N 10.33343654 1.20776841 22.45255777 -0.00108499 -0.00046388 -0.00371599
N 8.09541118 3.54414630 19.91849573 0.00628991 0.00077841 -0.00364679
N 7.53749604 6.09934858 24.69433335 -0.00413317 -0.00406010 -0.00331101
N 10.46325563 1.01634290 26.31194265 -0.00438050 0.00290403 -0.01224020
N 9.45958878 8.32680738 21.55193677 0.00393328 0.00038206 0.00370159
N 7.53631999 15.32070210 1.53113898 -0.00099654 0.00175034 0.00316378
N 8.83687319 13.74272693 6.16262328 -0.00175933 -0.00173801 0.00076734
N 9.39765186 18.46567754 8.23356766 0.00188277 0.00112655 -0.00208561
N 10.64667850 10.17621115 3.61518553 -0.00405747 -0.00360824 0.00451220
N 8.71640564 13.45408044 1.71914994 0.00000863 -0.00101453 -0.00075275
N 7.64182432 15.66559036 6.25079361 0.00447097 0.00216581 -0.00205104
N 10.63676940 10.76582481 7.90811145 0.00106851 0.00477433 0.00027159
N 9.65812733 18.07159529 3.47609593 -0.00005152 0.00124748 -0.00446867
N 7.49227908 15.06357162 10.42603093 -0.01176609 0.00108594 -0.00057282
N 8.92118954 13.92403659 14.98915138 -0.00215391 -0.00483257 0.00050236
N 9.51528995 18.56615180 17.38585177 0.00579402 -0.00447084 -0.00095057
N 10.72637770 10.30241974 12.48396353 -0.00481562 -0.00047973 -0.00175684
N 8.99280985 13.33104769 10.35483277 -0.00331468 0.00011796 0.00914645
N 7.95086620 15.80220658 15.47412747 -0.00155961 0.00224361 0.00658787
N 10.55854219 10.84761621 16.90547744 0.00384631 -0.00236139 0.00332223
N 9.58479651 18.14837997 12.47460218 0.00448852 0.00036385 -0.00119258
N 7.36959898 15.14772162 19.68462587 -0.00071856 -0.00022716 -0.00103352
N 8.95643769 13.99116857 24.33302468 -0.00321138 -0.00264399 0.00687939
N 9.69045720 18.69997072 26.49049758 -0.00421478 -0.00119239 -0.00023543
N 10.75324679 10.23775130 21.90151791 0.00115407 0.00778363 -0.00183884
N 8.74161093 13.26234157 19.90546707 0.00605979 -0.00025434 0.00053916
N 7.67519842 15.87525617 24.78551562 -0.00384871 0.00317849 0.00212480
N 10.50522966 11.11961630 26.23859011 0.00390947 0.00038253 -0.00183026
N 9.82428063 18.05123644 21.82061638 0.00318157 0.00002644 0.00310918
N 7.64999919 24.73711426 1.15916019 0.00194430 0.00396822 0.00114520
N 9.34486610 23.10997486 5.95443648 0.00408915 -0.00209112 -0.00420747
N 9.45811627 28.22001610 8.33326187 -0.00443116 -0.00113706 0.00092808
N 10.98493852 20.01060026 3.78829356 0.00214729 0.00438589 0.00307408
N 8.87281864 22.85933813 1.67327648 0.00145693 0.00139130 0.00276792
N 8.36582271 25.20708879 6.24996579 -0.00039058 -0.00535465 -0.00103299
N 10.73611171 20.32164065 7.91992585 0.00429450 0.00860302 -0.00000680
N 9.70839581 27.50392646 3.40130955 -0.00531640 0.00099348 -0.00547000
N 7.94752651 24.72571152 10.41053142 -0.00328033 0.00149547 0.00145361
N 9.13677189 23.43936254 15.18808814 -0.00400372 -0.00390247 -0.00263825
N 9.08239757 28.24257448 17.95793036 -0.00418332 0.00860744 0.00355109
N 10.94562674 20.10202564 12.66043953 -0.00044185 0.00316003 0.00070215
N 9.31041850 22.86964788 10.88391117 -0.00192568 -0.00775549 -0.00209858
N 7.63445816 25.13522099 15.49768596 0.00102973 -0.00607038 0.00598096
N 10.52799182 20.52008031 16.89058891 0.00513538 0.00276896 0.00032720
N 9.49581200 27.68177398 12.29787996 0.00119563 0.00231396 -0.00117181
N 7.63030451 24.92885939 19.49663135 0.00192820 -0.00546254 0.00000882
N 8.95730269 23.37119608 24.12491168 0.00273718 -0.00046295 -0.00340244
N 9.44013076 28.09429129 27.26970242 -0.00034750 -0.00054289 0.00479845
N 10.68386641 20.13361697 22.22417624 -0.00418072 0.00096483 0.00056630
N 8.87522098 23.11416660 20.04630903 -0.00188657 -0.00841978 0.00226846
N 8.08184398 25.45692887 24.55197623 -0.00038915 0.00135084 -0.00155333
N 10.79450407 20.68191495 26.19048573 0.00099102 -0.00008379 0.00633678
N 9.45121528 27.99221531 22.01256528 0.00430758 -0.00119070 -0.00379155
N 10.88192199 5.57443011 0.96180386 -0.00704328 -0.00006466 -0.00201580
N 12.59302882 4.19962695 5.44174282 -0.00239450 -0.00163709 -0.00428738
N 13.12396454 8.90075134 7.61190745 0.00041225 -0.00314095 -0.00046697
N 14.09651183 0.84312972 3.71869823 0.00889935 0.00847218 -0.00011156
N 11.97388885 3.56755156 1.40629465 0.00321144 0.00156706 0.00388110
N 11.18016533 6.05433620 5.77456231 0.00032094 -0.00251252 0.00439477
N 14.11876782 1.40000425 7.79828274 -0.00539688 -0.00272468 -0.00116606
N 13.14635842 8.38927988 2.91942217 0.00270741 -0.00708604 0.00205395
N 10.95064419 5.34095443 10.09933291 0.00370083 0.00067256 0.00050682
N 12.14677094 3.95963547 14.72888137 0.00033403 -0.00122527 0.00322425
N 13.07272012 9.16810005 16.76575423 -0.00026137 -0.00666832 -0.00561598
N 14.39241703 0.49340558 12.56760592 -0.00476006 0.00269747 -0.00176758
N 12.54519821 3.79213741 10.47870287 0.00160459 -0.00005234 -0.00367418
N 11.35406034 6.13322208 14.93965323 0.00162449 -0.00122815 -0.00323762
N 14.49336342 1.76426744 16.55128274 0.00171309 -0.00001754 0.00260506
N 13.25185463 8.39893652 11.94204108 0.00728890 0.00051977 -0.00233921
N 10.67393622 5.28728575 19.32968697 0.00277479 -0.00162167 -0.00448030
N 12.52913671 4.07874107 24.15002537 -0.00173423 0.00029880 -0.00583757
N 12.97353267 8.75481977 26.18872907 0.00005120 -0.00056888 0.00098925
N 14.18640912 0.55228244 21.58247261 -0.00670716 -0.00000067 -0.00497942
N 11.91978956 3.45701046 19.69887855 -0.00333638 -0.00410526 -0.00272424
N 11.18405372 5.91112252 24.33834823 0.00000037 -0.00481604 0.00061541
N 14.32291721 1.35623823 25.85739802 -0.00044536 0.00179461 0.00077446
N 12.95545530 8.42814799 21.24182515 0.00153830 -0.00315120 -0.00194059
N 11.36729054 15.50859181 1.29514020 0.00814948 -0.00679561 -0.00540532
N 12.81246959 13.88748322 5.80444099 -0.00014851 0.00055601 -0.01036144
N 13.21117376 18.74125159 7.69638524 0.00225333 0.00206714 -0.00037528
N 14.41617793 10.33029988 2.98737241 0.00265810 0.00401289 0.00193671
N 12.06046526 13.26026108 1.61730845 0.00161524 0.00172309 -0.00538906
N 11.33451429 15.65799946 6.19095065 0.00962233 -0.00125505 0.00728120
N 14.24759581 10.89381620 7.34074841 0.00653214 0.00081137 -0.00039552
N 13.45452300 17.90314086 3.01955812 -0.00559238 0.00313225 -0.00352650
N 11.47956036 15.40117919 10.29619995 -0.00369366 -0.00300388 -0.00022299
N 12.28895451 13.52367976 14.96551948 0.00549499 0.00089260 -0.00186159
N 13.18239439 18.52942254 17.22559269 0.00211712 -0.00324710 0.00054623
N 14.29068113 10.45153468 12.04303866 -0.00071891 0.00563045 -0.00352162
N 12.84033319 13.53565731 10.64463077 -0.00260092 -0.00097877 -0.00576713
N 11.50003831 15.68852501 15.33661034 -0.00183422 -0.00405360 0.00016060
N 14.31323501 11.04177499 16.61320519 -0.00035569 0.00175141 0.00286140
N 13.55899143 18.14164380 12.06823802 0.00544831 0.00185439 0.00066590
N 11.58691864 15.18219852 19.28134115 0.00533125 0.00909711 -0.00206543
N 12.65921449 13.51775660 24.02267783 0.00505459 0.00611179 0.00150761
N 13.16923463 18.46615853 26.38638798 -0.00154189 0.00161463 0.00404425
N 14.12014570 10.36235079 21.53706815 -0.00032945 0.00478277 -0.00033235
N 12.22336841 13.14600447 19.92020985 -0.00068764 0.00289141 0.00323916
N 11.56405068 15.52750076 24.31300683 0.00001435 0.00307733 -0.00819624
N 13.94036220 10.84880431 25.92460983 0.00111303 0.00427670 -0.00221878
N 13.52241469 18.10362598 21.35161440 -0.00533255 0.00437055 -0.00234987
N 11.45433209 24.62556667 1.11938781 -0.00531045 -0.00094309 0.00247533
N 12.92522466 23.64533126 5.88259850 -0.00052677 -0.00787399 -0.00652775
N 13.09787552 28.34394760 8.46693044 0.00230804 -0.00419927 -0.00290062
N 14.58614182 19.99637764 3.31105888 -0.00344524 -0.00047268 0.00166332
N 12.84134841 22.77068445 1.37799885 -0.00334827 -0.00337570 0.00141705
N 11.54626200 25.41691327 6.25022256 0.00085632 0.00152016 0.00500810
N 14.43044290 20.60543303 7.46935919 -0.00221555 0.00686171 0.00221337
N 13.29598030 27.66737951 3.26613493 -0.00085122 -0.00109348 -0.00165013
N 11.47937176 24.75896090 10.51933921 0.00143597 -0.00278101 0.00208946
N 12.83750664 23.55760720 15.00128026 0.00606594 0.00325567 0.00438738
N 13.05494411 28.84606758 16.93031502 0.00474664 0.00777472 0.00228219
N 14.68457742 20.09382474 12.69070892 -0.00393076 0.00318271 -0.00051399
N 12.79058646 22.88667256 10.43331341 -0.00226176 0.00181563 0.00561447
N 11.60624466 25.52795067 15.38918411 0.00312099 0.00305209 -0.00019085
N 14.28358149 20.56202130 16.92398837 0.00439945 0.00582613 0.00056024
N 13.49736268 27.40619071 11.97648676 0.00209282 0.00251384 -0.00714329
N 11.04100075 24.93100015 19.53031726 -0.00761791 -0.00481122 0.00099077
N 12.74697995 23.60347683 24.12525255 -0.00295134 -0.00309369 0.00277656
N 13.01150574 28.37736720 26.09560684 0.00093233 -0.00237034 -0.00281598
N 14.63503401 20.00424580 21.71762605 -0.00429990 -0.00641337 0.00040901
N 12.31757953 22.97480540 19.89995256 -0.00366118 0.00219817 -0.00016291
N 11.19168492 25.25766780 24.55022461 -0.00384151 -0.01026096 0.00141728
N 14.18777831 20.49570155 25.89934379 -0.00317565 0.00204131 0.00606565
N 12.76490896 27.71570269 21.47941359 0.00188941 0.00717399 0.00324240
N 15.54763842 5.31221231 0.90235598 0.00091145 -0.00364103 0.00145829
N 16.47577900 4.28664825 5.62771455 -0.00067424 0.01535155 0.00884602
N 16.83937214 9.07410787 7.64944737 -0.00506924 -0.00568487 -0.00191409
N 17.93846837 0.71169253 3.35417985 -0.00473299 0.00394767 0.00237707
N 16.13904717 3.14275825 1.23627707 -0.00429124 0.00319354 -0.00370648
N 14.82155240 5.92306883 5.96184994 0.00183618 -0.00426594 0.00063255
N 18.11390113 0.90826504 7.30375204 0.00586416 0.00071452 0.00048154
N 17.04717254 8.49374453 2.88307276 -0.00285225 -0.00447258 -0.00607131
N 15.04102571 5.30302673 10.13119390 0.00061645 0.00044542 -0.00236437
N 16.56621659 4.54148940 14.76249671 -0.00854847 -0.00065770 -0.00683732
N 16.98658347 8.94427179 16.79331816 -0.00785076 -0.00447309 0.00128158
N 18.16970264 0.43681746 12.78763360 0.00383285 0.00104263 0.00843402
N 16.30760519 3.47363834 10.39654797 0.00086540 0.01037467 0.00271778
N 15.01510737 6.17252833 14.67734568 -0.00726778 0.00004425 -0.00081078
N 17.96888805 1.49443277 16.77198981 -0.00291801 -0.00383838 -0.00026385
N 16.68157399 8.53188684 11.63643502 0.00480867 0.00174942 0.00049765
N 15.36005344 5.67192331 19.29426167 0.00088791 -0.00537878 0.00250337
N 16.06022943 4.11205681 23.74574305 -0.00062738 -0.00071709 -0.00347645
N 16.77227950 9.09175937 26.59395369 0.00231458 0.00295365 -0.00440994
N 17.73751742 0.90667221 21.85881962 -0.00328094 -0.00588190 0.00305334
N 16.05763080 3.49611068 19.70572781 -0.00108043 -0.00023909 0.00431061
N 15.02895612 6.03499742 24.42776659 0.00073430 0.00077653 0.00224848
N 18.12698514 1.31667384 25.71234800 -0.00942677 -0.00000168 0.00513176
N 16.79156953 8.41195810 21.37434678 -0.00793587 -0.00736809 -0.00290796
N 14.70984985 15.11776989 0.94175809 0.00712216 0.00235913 0.00750281
N 16.27165797 13.66424055 5.39583734 0.00739598 0.00028640 0.00531031
N 17.20265888 18.69301627 8.00902926 0.00222053 0.00338592 -0.00699514
N 17.98966890 10.60717910 3.30197127 -0.00042048 0.00392386 -0.00103811
N 16.21324163 13.40056304 1.08043458 0.00025440 0.00223354 -0.00355932
N 15.24370849 15.66105508 5.92771930 -0.00216293 -0.00037916 0.00836595
N 18.16488352 10.96300100 7.54533681 0.00289371 -0.00136568 0.00232707
N 17.10661495 18.10133240 3.19967696 0.00000191 0.00415705 0.00157232
N 14.92806985 15.52083508 10.01928374 0.00404561 -0.00073706 -0.00297889
N 16.34705679 13.62878242 14.44243416 -0.00348850 -0.00180557 0.00615990
N 16.54821386 18.87471814 16.94386386 0.00584282 0.00513428 0.00035123
N 18.06600132 10.31596308 12.24361226 0.00487986 0.00542590 0.00343970
N 16.05076461 13.50199647 10.36232787 -0.00772987 0.00710674 -0.01174293
N 15.13537795 15.58661596 14.84693071 0.00077259 0.00198535 -0.00020115
N 18.17414083 10.90136863 16.48510764 -0.00084965 -0.00051505 -0.00058936
N 16.74176342 17.96991440 12.16350613 0.00376855 -0.00205236 -0.00349675
N 14.94351343 14.95296991 19.40698677 -0.00650382 -0.00298087 -0.00188607
N 16.26544980 13.62450773 23.76634910 0.00036119 0.00154469 -0.00879942
N 16.77173742 18.65131794 26.51827959 -0.00306680 0.00172626 -0.00432794
N 18.08936861 10.26559492 21.73399269 -0.00078106 -0.00050473 0.00356639
N 16.04504016 12.95532698 19.27398063 -0.00024823 -0.00819160 -0.00185634
N 15.01868097 15.53910188 24.13069808 0.00133968 0.00108414 -0.00133105
N 17.87338600 11.04331944 25.91090733 0.00121468 0.00494537 -0.00086489
N 16.90265949 17.74676764 21.31808246 0.00698946 -0.00972683 -0.00174744
N 15.30573022 24.77934596 1.16535012 0.00370873 -0.00445363 0.00018431
N 15.93990551 23.41791148 5.63879402 -0.00046947 -0.00040952 0.00364364
N 16.79927875 28.19548120 8.24666309 -0.00071094 -0.00297899 0.00705403
N 17.95573724 20.20237330 3.48761976 -0.00098892 -0.00622806 -0.00188493
N 16.44346902 22.74508623 1.20346449 -0.00385194 -0.00149842 0.00003343
N 15.09335030 25.63428982 5.88767744 0.00081447 -0.00531470 -0.00298731
N 18.01458264 20.80346487 7.88643663 -0.00106421 0.00239567 0.00469820
N 16.80202671 27.80490207 2.86496054 -0.00242403 -0.00071375 0.00066887
N 14.89631284 24.66784861 9.98438069 -0.00396777 -0.00644684 0.00277753
N 16.26639653 23.28038487 14.93110357 -0.00685706 0.00108422 0.00088585
N 16.83916449 28.59254484 17.18037699 0.00314891 -0.00100638 -0.00265825
N 18.28565901 19.69383412 12.28678634 -0.00532801 0.00117374 0.00203077
N 16.29176264 23.01682558 10.78885694 -0.00187988 -0.00272016 0.00009776
N 15.16906865 25.17792481 15.27886588 -0.00041392 -0.00122512 0.00325575
N 18.18631603 20.56448742 16.62187738 -0.00379879 -0.00510824 0.00291462
N 16.94394020 27.76247425 11.83557301 -0.00101370 -0.00178329 -0.00028731
N 14.60998376 24.73278098 19.51252990 0.00356704 0.00039017 0.00241231
N 16.41100421 23.49450296 24.06896311 0.00138150 0.00387055 -0.00449551
N 16.76209339 28.52295488 26.21946018 -0.00282639 0.00192990 -0.00009110
N 18.03018834 19.80092687 21.63607845 0.00011168 -0.00195052 0.00202642
N 16.32262640 23.11530680 19.65552006 -0.00402818 -0.00378570 0.00218916
N 15.27142644 25.41829663 24.35315877 -0.00045753 0.00397511 -0.00220113
N 17.93908320 20.48301281 25.86585755 0.00338117 -0.00169538 -0.00862858
N 16.71390199 27.71197868 21.35137433 0.00666601 0.00289076 -0.00264047
N 18.96582736 5.85611236 1.14296993 -0.00201124 -0.00115274 0.00054159
N 20.12534595 4.35215632 5.69315441 -0.00527068 0.00130053 -0.00577927
N 20.46409465 9.10322738 8.20065321 0.00179174 0.00425806 0.00245027
N 21.92094342 0.40094008 3.00819120 -0.00098661 0.00651050 -0.00715893
N 19.94698158 3.72935661 1.43477058 -0.00035928 0.00666799 0.00959004
N 18.79139173 6.17354110 6.05940795 -0.00398264 0.00313770 -0.00114564
N 21.80962790 1.21407996 7.48726282 0.00482364 -0.00279210 -0.00112085
N 20.54951577 8.42075562 3.03059476 -0.00582786 -0.00263519 0.00053244
N 19.18471256 5.65416936 9.96378758 0.00314248 -0.00339620 0.00152573
N 19.95799922 4.37289661 14.58014911 0.00377258 0.00682796 0.00127317
N 20.70151502 8.81497538 17.12047105 -0.00277887 0.00148296 -0.00417472
N 21.89463817 0.60237646 12.35178583 -0.00160479 0.00831343 0.00056645
N 19.91048593 3.48881779 10.46952824 -0.00076810 -0.00361298 -0.00241962
N 18.84225166 6.46411506 14.82480275 0.00922843 -0.00052123 0.00354376
N 21.67705921 1.35694411 16.69430382 0.00016719 -0.00434895 -0.00021570
N 20.68420275 8.46376300 12.19514045 0.00043377 0.00025901 -0.00529422
N 18.70275939 5.45723149 19.52576976 0.00236393 -0.00586339 -0.00129258
N 19.77886500 4.31385045 23.93698396 -0.00122476 0.00805697 0.00381906
N 20.41711199 9.42011610 25.84474431 0.00793103 0.00846543 -0.00047138
N 21.59709323 0.42951675 21.61771634 0.00123362 -0.00669932 0.00182115
N 19.87242112 3.42909699 19.70924865 0.00413699 -0.00321592 -0.00278830
N 18.76533792 6.40240539 24.25619975 -0.00328673 -0.00251805 -0.00519716
N 21.64640275 1.55231434 25.83944544 0.00072336 -0.00109948 -0.00437099
N 20.83304498 8.20349786 21.00762692 0.00025255 -0.00212301 0.00248033
N 18.85073251 15.24027962 0.93496511 -0.00106686 0.00385269 -0.00644238
N 20.20415941 13.84637028 5.43859602 0.00138669 0.00321951 0.00101835
N 20.31920316 18.58622067 7.72843290 -0.00106817 0.00251892 0.00520987
N 21.65694313 10.37941235 3.69649780 -0.00053952 0.00068087 0.00555736
N 19.53164945 13.08859284 1.54841456 -0.00564862 0.00122333 -0.00078685
N 18.82141768 15.61941732 6.09797213 0.00786404 0.00445716 -0.00003171
N 21.79710533 10.90742711 7.58944199 -0.00093778 0.00528008 -0.00630730
N 20.70906208 18.23069195 3.23933270 -0.00393345 0.00163585 -0.00469212
N 18.50237080 15.16971519 10.08556180 0.00540987 0.00435910 0.00283081
N 19.92259171 14.05588856 15.00056480 0.00838159 -0.00108616 0.00031476
N 20.46468816 18.82550577 17.08534712 -0.00101511 -0.00118269 -0.00049471
N 21.80883854 10.42050891 12.68567577 -0.00064249 0.00841845 0.00105104
N 19.96505556 13.37667211 10.55495272 0.00279349 -0.00035259 -0.00041323
N 18.66297117 15.96029472 15.18007784 0.00175498 -0.00974630 -0.00500165
N 21.91907319 10.74721658 16.64376435 -0.00073430 -0.00501593 -0.00950798
N 20.76518147 17.91720662 12.09782429 0.00545691 -0.00070909 -0.00094564
N 18.76780672 15.23092081 19.22980944 0.00705823 -0.00505746 0.00127942
N 19.82248671 13.56873859 23.64518409 0.00219184 0.00114384 0.00103962
N 20.22158226 18.52690646 26.46448948 -0.00024223 -0.00117749 -0.00294546
N 21.66444638 10.25419820 21.35658945 -0.00482853 0.00853494 -0.00408539
N 19.60005723 13.10429926 19.53477536 0.00017539 -0.00064544 0.00186361
N 18.64888955 15.64765392 24.09867988 -0.00502846 -0.00278640 -0.00081952
N 21.67354231 11.27962007 26.09510553 0.00026001 0.00556049 -0.00143407
N 20.28275639 18.11252657 21.49954585 0.00249749 0.00085802 -0.00314303
N 18.78445349 24.61189904 1.15256577 0.00910236 -0.00295005 0.00238307
N 19.79468441 23.69225892 5.60599218 0.00402576 -0.00085147 0.00089807
N 20.68854694 28.22860675 7.76190047 0.00542623 -0.00363833 0.00065328
N 0.08187624 20.07909018 3.21308166 0.00671746 -0.00246145 -0.00361145
N 20.03352340 22.70144211 1.47902156 -0.00666953 -0.00006180 -0.00444523
N 18.68080774 25.74507780 5.96600281 -0.00526480 -0.00071120 -0.00159693