1728
Time=27000.00000000 pbc="T T T" Lattice="22.21103535 0.00000000 0.00000000 0.00000000 28.66597911 0.00000000 0.00000000 0.00000000 27.41804155" energy=-10389.12569559 virial="14.25678496 11.77735291 -24.22449293 11.77735291 -6.09161084 14.41321637 -24.22449293 14.41321637 -13.98588665" stress="0.00298996 0.00055451 -0.00127375 0.00055451 0.00218192 0.00081989 -0.00127375 0.00081989 0.00211970" Properties=species:S:1:pos:R:3:vel:R:3
N 0.30107163 5.71581170 1.23012089 -0.00029630 0.00376335 -0.00299179
N 1.13961702 4.42533680 5.82393682 -0.00392644 0.00030485 -0.00067782
N 1.87081733 9.19022185 8.44757935 -0.00043376 -0.00604107 -0.00257491
N 3.67650043 0.87652044 3.41226705 0.00046012 -0.00765112 -0.00337485
N 1.40268052 3.69567833 1.59962711 0.00227323 -0.00324678 0.00036009
N 0.02333367 6.43047667 6.15651627 -0.00233868 -0.00429087 -0.00573652
N 2.73989977 1.63474656 7.42179112 0.00154768 0.00392333 -0.00277294
N 2.02625272 8.48689883 3.31084292 0.00224560 0.00533762 -0.00487060
N 0.16685963 5.82207791 10.42567155 -0.00457161 0.00159150 0.00936911
N 1.72399711 3.80944492 14.62243102 -0.00612465 0.00345907 -0.00547734
N 1.99001940 8.86139807 16.97366782 -0.00085346 0.00325999 0.00434828
N 3.49609329 0.41362947 12.39939874 -0.00287999 0.00261109 -0.00000295
N 1.43695734 3.91970977 10.84265504 -0.00109308 -0.00314702 -0.00160712
N 0.38929845 5.63410133 14.97397614 0.00172827 0.00116834 0.00061078
N 3.58404113 1.02864150 16.77965430 -0.00391066 0.00062266 -0.00009968
N 2.41383253 8.53516044 12.47011828 -0.00051180 0.00600458 0.00408223
N 0.07277069 4.96660144 19.59535193 -0.00136938 0.00048794 0.00117883
N 1.57971911 4.11174982 23.80972238 0.00150844 0.00081227 -0.00378564
N 2.04030613 8.71819799 26.32851072 -0.00483339 0.00352588 0.00398810
N 3.61053023 0.99851867 22.16968083 0.00301562 0.00950738 0.00232516
N 1.48939112 3.14778946 19.45021649 -0.00072112 -0.00070758 -0.00235273
N 0.15867944 5.80495231 24.57620035 0.00557522 -0.00642724 -0.00371565
N 3.17863050 1.42727827 25.96667503 0.00073205 -0.00361850 0.00338003
N 2.24514049 8.05202711 21.22507587 0.00257774 0.00117066 -0.00271530
N 21.99873614 14.80397268 0.76086005 0.00520489 0.00073650 0.00668185
N 1.71238847 13.74032432 5.71560412 0.00296910 -0.00177274 -0.00126987
N 2.03031659 18.53994726 7.80801778 0.00230886 -0.00241078 -0.00191705
N 3.33783786 10.39477422 3.34333335 0.00295047 -0.00609079 0.00192431
N 1.35958136 13.32573765 1.42734689 0.00038041 -0.00689896 -0.00000410
N 0.56400806 15.72134232 6.16942352 -0.00254391 0.00502882 -0.00423970
N 3.33887246 10.96928103 8.07660351 0.00034203 -0.00466448 -0.00369649
N 2.13265107 17.46203768 3.12238977 0.00157554 0.00111026 -0.00160701
N 0.39421577 15.20307887 10.31710820 -0.00627143 -0.00248145 0.00627184
N 1.55532279 13.31970485 14.96827462 0.00092081 0.00114066 0.00416414
N 2.40959497 18.30245953 17.01739220 -0.00523863 0.00068150 -0.00365683
N 3.82357218 10.37114121 12.87389670 0.00539410 -0.00145166 0.00247880
N 1.43173674 13.15463214 10.87474554 0.00370193 -0.00209316 0.00724117
N 0.43859527 15.39892544 15.01699870 -0.00074214 0.00780018 0.00479968
N 3.24051080 10.81164432 17.04456888 0.00239349 -0.00567904 -0.00144857
N 2.51116331 18.02599034 12.02096872 -0.00078028 0.00283238 -0.00167061
N 0.18308335 15.16000440 19.36444631 0.00033399 -0.00512010 0.00650426
N 1.66760275 14.10294594 23.72974326 0.00746033 -0.00932791 0.00048634
N 1.80706444 18.19617859 26.22282082 0.00405512 0.00120676 0.00739124
N 3.55649494 9.94031109 21.30357176 -0.00013925 0.00779902 0.00165748
N 1.32966322 13.24615104 19.78400051 -0.00664432 -0.00658890 -0.00748235
N 0.01338144 15.59443010 24.14622071 0.00686161 0.00307624 0.00640185
N 3.53410223 10.59100351 26.07656163 0.00131193 0.00370193 0.00253760
N 2.09088268 17.68581426 21.46289422 -0.00210431 0.00058489 -0.00694829
N 0.06321641 24.61924693 0.70119976 0.00093052 -0.00221419 0.00146139
N 1.70083679 23.30149728 5.67634695 0.00239198 0.00213450 0.00358486
N 2.25372064 27.98324879 7.72237767 -0.00759079 -0.00694664 0.00520301
N 3.39345852 19.38764042 3.61628616 0.00520674 -0.00153403 -0.00225933
N 1.13200121 22.57988810 0.82479320 -0.00108944 0.00566594 -0.00706668
N 0.53142528 25.28373040 5.75015949 -0.00171816 -0.00613117 -0.00358586
N 3.29347296 20.52080079 7.79346445 -0.00300739 -0.00188457 -0.00815219
N 2.19344372 27.79900890 2.61182975 0.00406618 0.00103035 -0.00128914
N 0.34437899 24.86594728 10.08273497 -0.01261589 0.00168713 -0.00038252
N 1.54401157 23.35003008 14.89085698 0.00758922 0.00157230 0.00126442
N 2.75451219 27.74536229 17.43649081 -0.00452285 0.00011357 0.00106678
N 3.61527403 20.03030287 12.37822249 0.00712025 0.00236697 0.00126835
N 1.49947569 22.95751034 10.58040320 -0.00012969 0.01138462 0.00497488
N 0.22043571 25.15637168 15.30964069 -0.00128108 -0.00053471 -0.00244648
N 3.35576731 20.29554556 16.78430859 0.00001178 0.00264095 -0.00676956
N 2.18135817 27.16345538 12.37087034 0.00358814 -0.00686640 0.00786699
N 22.18339138 24.42435849 19.64317134 -0.00260531 0.00200281 0.00309230
N 1.82206804 23.20026073 24.09143209 0.00369661 0.00350992 -0.00094617
N 1.99449431 28.16382432 26.31105990 0.00324200 -0.00662335 -0.00168406
N 3.06410318 19.72872866 21.70999709 0.00199909 0.00214590 -0.00303269
N 1.75185274 22.80989364 19.55305910 0.00009092 -0.00333221 -0.00125039
N 0.65275707 25.19659678 23.97855200 -0.00869750 0.00326915 -0.00198662
N 2.99520949 20.12749222 25.80487570 0.00284431 0.00303911 0.00266778
N 2.18318848 27.92897885 21.36916825 0.00787657 0.00775724 0.00594753
N 3.65403283 5.59611626 1.29546697 -0.00614888 0.00463408 -0.00153979
N 4.86093362 4.47205211 5.89074125 -0.00096533 -0.00422029 -0.00529664
N 5.78242702 8.31507779 8.00488394 0.00069955 -0.00238313 0.00396998
N 7.24662302 0.78084383 3.49855338 0.00043264 -0.00834870 0.00132640
N 4.89105816 3.61792857 1.66164504 0.00392069 0.00285472 -0.00376216
N 3.72819117 6.35282627 6.35068365 0.00142937 0.00011749 0.00019346
N 7.07177144 1.23493649 7.39618277 -0.00019921 -0.00710408 -0.00372063
N 5.99113323 8.32250744 3.25450034 0.00021142 -0.00358585 0.00506447
N 4.03517700 5.51627103 10.34253743 -0.00207573 -0.00378594 0.00002813
N 5.23013224 4.10824701 14.93521804 -0.00452864 0.00520399 -0.00101356
N 5.70974347 9.30463875 17.25836917 0.00264512 0.00243072 -0.00558381
N 6.99316476 0.70792202 12.48591125 -0.00621632 -0.00246999 0.00639224
N 4.98384634 3.40429658 10.34788499 0.00155730 -0.00348061 0.00236730
N 3.93814964 6.04972083 15.13159055 0.00418489 0.00484215 0.00289343
N 7.30887539 1.18159400 16.84341880 -0.00943847 -0.00067505 -0.00089114
N 5.93667050 8.44896783 12.31138660 -0.00556610 -0.00366370 0.00777006
N 3.82121908 5.66676193 19.52088263 0.00092393 0.00364991 -0.00302553
N 5.19157848 4.62431796 24.15197958 0.00141700 -0.00197194 -0.00075436
N 6.24027177 8.98079400 26.36734615 0.01207682 -0.00357755 -0.00321169
N 7.28442401 0.60410377 21.97448898 -0.00136861 0.00592163 0.00235470
N 5.05726808 3.74676659 19.85397286 0.00595870 -0.00687472 -0.00072080
N 4.07210624 6.61679631 24.50512174 0.00265892 -0.00257779 -0.00167912
N 6.84050670 1.62871507 26.05785998 -0.00012435 0.00528542 0.00395627
N 6.19833681 8.47493427 21.32827199 -0.00012706 -0.00230175 -0.00159876
N 3.80783907 15.01515616 1.03107385 -0.00148238 0.00362890 0.00935071
N 5.28626335 13.42780870 5.61376379 0.00107890 0.01054682 0.00688151
N 5.89165668 18.83573755 7.90143195 -0.00057446 -0.00074547 -0.00614383
N 7.26817932 10.31647296 3.48806224 0.00341180 -0.00160248 0.00039142
N 5.18750548 13.14809826 1.23928034 -0.00153134 -0.00447843 0.00252990
N 4.13837865 15.32092753 6.15128656 0.00370329 0.00050164 -0.00226588
N 6.49811649 10.53719210 7.67076774 0.00047774 0.00113534 0.00046660
N 5.63980930 17.73080853 3.26874072 0.00141931 0.00140107 -0.00011725
N 4.04978108 14.94035259 10.39752959 0.00479222 -0.00082632 -0.00215530
N 5.83687608 13.85760610 14.69510812 0.00131767 0.00159449 0.00250425
N 6.09531889 18.40371222 16.86525254 0.00310454 0.00379389 -0.00385702
N 7.33603535 10.25160249 12.77840412 -0.00046006 0.00077373 0.00002788
N 5.42422630 13.14626291 10.68600358 -0.00936492 0.00232726 0.00488541
N 4.51734986 15.70038993 15.03824643 -0.00047824 -0.00536275 0.00514418
N 7.07629235 11.11732254 16.72630112 -0.00596084 -0.00011347 -0.00451310
N 6.31950576 18.37916097 12.36079836 -0.00409615 -0.01221190 -0.00340219
N 3.93705126 14.96898185 19.59088921 0.00017905 -0.00588734 0.00615899
N 5.15540812 13.60087701 24.15691636 -0.00363808 0.00163557 -0.00570223
N 5.93407095 18.08644001 26.55127870 0.00565777 0.00638780 -0.00089410
N 7.34300558 10.41797742 21.74645266 -0.00244507 0.00328405 0.00458751
N 5.37972827 13.07183938 19.47843608 0.00204077 0.00311291 -0.00380514
N 4.09499439 15.62887090 24.22018196 -0.00833976 -0.00058297 0.00081745
N 7.18802323 10.91853667 25.90264875 0.00151623 0.00408584 -0.00953270
N 6.06551577 17.73452058 21.47814999 -0.00232830 0.00070402 -0.00055017
N 4.15176147 24.56638936 1.09034751 -0.00013148 -0.00330172 -0.00433427
N 5.37589390 23.37313804 5.80025761 -0.00355037 -0.00110231 0.00234675
N 5.70863460 28.19140145 7.94477186 -0.00233855 -0.00459535 0.00122740
N 7.01586875 19.65632780 3.23242251 -0.00049526 -0.00807938 0.00284456
N 5.06246250 22.54349680 1.63280382 0.00730786 -0.00550106 -0.00312534
N 4.18702488 25.34657189 5.70475430 -0.00246583 0.00328898 -0.00248420
N 7.24615071 20.71436854 7.89383439 0.00518595 0.00312873 -0.00644685
N 5.93757870 27.53538841 3.10038138 0.00334479 0.00003068 -0.00194905
N 3.77373244 24.78170612 10.13534090 -0.00332015 0.00446638 -0.00001440
N 5.29285294 23.13076763 14.74803529 -0.00201887 0.00238886 -0.00117147
N 6.28662354 27.83869874 17.40936959 0.00111960 0.00160657 -0.00017984
N 7.74040194 20.16545695 12.75144069 0.00196633 0.00213390 0.00081557
N 5.40944604 23.06746607 10.61983810 0.00042673 -0.00828903 0.00033536
N 4.04123248 25.05066434 15.23272523 -0.00278284 0.00344419 -0.00377696
N 6.98085493 20.58761079 16.72619860 -0.00679974 0.00879520 -0.00133093
N 6.07553641 27.23436588 12.39335966 -0.00071061 0.00598456 0.00388215
N 4.21367801 24.72511950 19.65048290 -0.00130123 0.00348651 0.00014712
N 5.22369540 23.08136404 24.11617052 -0.00128239 0.00093856 0.00156256
N 5.57493423 28.34428531 26.40894593 -0.00424752 -0.00248658 0.00050119
N 7.01025884 19.84303748 21.75485404 -0.00273087 -0.00323210 0.00092895
N 5.48979017 22.77702026 19.87530257 -0.00583061 0.00120836 -0.00360019
N 4.31788054 25.12841865 24.41742798 0.00350587 0.00620229 -0.00407330
N 7.05226062 20.06421624 26.24150404 -0.00294693 -0.00228242 0.00095947
N 5.98675762 27.40677279 21.38849959 0.00128055 0.00141314 0.00151595
N 7.48908367 5.44887733 0.85668578 0.00135513 -0.00776015 0.00404429
N 8.81848669 3.89151412 5.40802541 0.00116932 0.00354470 0.00642364
N 9.17839890 8.88319860 7.88334314 0.00335269 -0.00302972 0.00480133
N 10.89720772 0.61262838 3.11314015 -0.00692819 -0.00052257 0.00566363
N 8.75035701 3.75305149 1.47679786 -0.00039332 0.00325886 0.00818263
N 7.67412734 5.79010246 6.08185904 -0.00132625 -0.00336423 0.00154509
N 10.76919648 1.47566785 7.37395050 -0.00274859 0.00063717 -0.00515021
N 9.58712120 8.11964377 3.03221240 -0.00527796 0.00451798 0.00013065
N 7.39088531 5.23221714 10.47294933 -0.00116347 0.00006816 0.00742157
N 8.98972150 4.05116613 14.55265527 0.00331849 -0.00086234 0.00229494
N 9.64898345 8.69028282 17.16752548 -0.00135877 -0.00291103 -0.00303892
N 10.98033797 0.44890418 12.38829695 0.00233574 0.00380155 0.00085637
N 8.54757946 3.22078913 10.33131368 0.00277252 -0.00499655 0.00050483
N 7.57393563 5.90276321 14.71228740 -0.00490098 0.00016978 -0.00250732
N 10.89582742 1.04643860 17.05664207 -0.00249145 0.00500220 -0.00418934
N 9.80021467 8.29096027 12.11080703 0.00089326 -0.00118445 -0.00607693
N 7.44331420 5.16318128 19.40125732 -0.00197040 0.00284881 0.00624167
N 8.70000495 3.95162578 24.07744191 0.00268241 0.00172790 0.00466324
N 9.32140141 8.97090207 25.97878618 -0.00230774 -0.00551010 0.00091564
N 10.74700474 0.70167523 21.89948476 -0.00062539 -0.00133120 0.00105957
N 8.72803780 3.28709350 19.63931964 0.00521427 0.00724586 0.00480330
N 7.66438471 5.98846939 24.17883189 -0.00612535 -0.00442640 0.00327122
N 10.70606464 1.41827882 26.13213929 0.00193749 0.00062013 -0.00347789
N 9.42074757 8.37882695 20.94816418 -0.00124141 -0.00188763 -0.00015470
N 7.61889932 14.74925845 1.21233359 0.00175062 -0.00524645 0.00354572
N 8.58376588 13.75963910 5.70703300 -0.00361912 -0.00488392 -0.00796390
N 9.47224418 18.80653037 8.05110229 -0.00230091 -0.00317954 0.00392029
N 10.74753129 10.13076395 3.36783834 0.00180575 -0.00457382 0.00578528
N 9.02433601 12.88767047 1.27364287 0.00060989 -0.00421975 0.00263373
N 7.76978560 15.87964629 5.98283479 -0.00153421 -0.00186567 -0.00249814
N 10.47532461 10.77386413 7.63533109 -0.00284431 -0.00471588 -0.00173608
N 9.41818736 18.00040236 3.12280073 0.00405852 -0.01054566 -0.00399001
N 7.79710960 14.94745239 10.21495445 -0.00174482 0.00115851 0.00301196
N 9.13373653 13.49710954 14.53884853 -0.00256399 0.00090088 -0.00420953
N 9.75690024 18.27062981 17.11509435 -0.00248352 0.00400431 0.00189468
N 10.70373488 10.37194086 12.66831701 -0.00544943 -0.00080508 -0.00141062
N 8.98267281 13.04717742 10.28028249 0.00302620 0.00143662 0.00040944
N 8.15834567 15.56416965 15.08067220 -0.00461012 0.00160761 -0.00790068
N 10.67537185 10.68425060 16.74330933 0.00911319 0.00032578 -0.00332531
N 9.96625767 17.89309054 12.01814337 -0.00144690 0.00012381 -0.00037496
N 7.75840599 15.02441293 19.38920621 -0.00058581 -0.00499190 -0.00182005
N 8.98393402 13.65043865 23.86348609 0.00359745 -0.00695256 0.00341298
N 9.73380339 18.47845984 26.08922605 0.00401478 -0.00389582 0.00387535
N 10.87244669 10.05804670 21.71902623 -0.00471631 -0.00055762 0.00215943
N 9.09108966 13.09042752 19.80847777 0.00059896 0.00036337 -0.00504061
N 7.62633274 15.52243492 24.20636631 0.00171632 -0.00663251 0.00185284
N 10.65503116 10.84960287 25.90441495 -0.00448981 0.00361308 -0.00171882
N 9.72993673 17.86731428 21.52879694 0.00155242 0.00549444 0.00448048
N 7.41816010 24.36005817 1.22484052 -0.00711647 -0.00472898 0.00300665
N 9.21810931 23.43057451 5.62596323 0.00329925 0.00254968 0.00271770
N 9.49918032 28.32626648 7.88240941 -0.00433811 0.00128011 0.00218265
N 10.92113453 19.75597135 3.28536455 -0.00270491 -0.00170252 0.00311567
N 8.88284423 22.54513348 1.49569105 0.00470825 0.00249922 -0.00109852
N 7.84102658 25.18604724 5.96237992 -0.00271353 0.00258702 -0.00468413
N 10.97879633 20.44163400 7.41810010 0.00256211 0.00086987 -0.00838249
N 9.51425868 27.47843808 3.21666589 -0.00065299 -0.00266724 -0.00025920
N 7.82516112 24.65906211 10.27678533 -0.00339492 -0.00657191 -0.00352901
N 9.10293714 23.18879834 14.79822683 -0.00640183 0.00034754 -0.00843139
N 9.74541604 27.77585134 17.43555288 -0.00481868 0.00150622 -0.00249747
N 10.71179988 19.93496542 12.43649004 0.00207134 0.00371371 0.00815141
N 8.82333148 22.62043089 10.59878885 -0.00118491 0.00404485 -0.00611564
N 7.65057806 24.98706638 15.13455219 -0.00499509 -0.00343801 0.00358456
N 10.69351190 20.24548817 16.47728495 -0.00161805 0.00309886 0.00151313
N 9.56027597 27.32452792 12.28941128 -0.00118902 -0.00133451 -0.00154100
N 7.47075637 24.70726953 19.45264493 0.00323589 -0.00199415 0.00012767
N 8.83936786 23.30763627 23.85559467 -0.00541917 -0.00054711 -0.00212133
N 9.57234991 28.06009536 26.27339401 -0.00175710 -0.00350280 -0.00922604
N 11.07108042 19.77988854 21.45262015 -0.00131693 -0.00570406 -0.00337509
N 8.86757672 22.79188277 19.55563324 0.00248163 -0.00216182 -0.00295815
N 7.98134962 25.40401540 24.28439307 -0.00524979 0.00219931 0.00746865
N 10.84586625 20.47565777 25.91136121 -0.00022498 -0.00091068 -0.00388540
N 9.61463054 27.43637994 21.45604261 -0.00333082 -0.00126829 0.00086130
N 11.28611499 5.17794288 1.11144784 0.00060529 0.00298652 0.00089509
N 12.81426602 4.26456023 5.64602279 0.00061578 -0.00254721 0.00178824
N 13.31218533 8.58725746 8.53509379 -0.00124738 0.00734860 0.00115036
N 14.81894934 0.47356542 2.97800595 -0.00064159 0.00515131 -0.00218363
N 12.83988133 3.44487854 1.44766335 -0.00401364 0.00196078 0.00492093
N 11.25134438 5.89451212 6.08082116 -0.00300993 0.00181709 0.00439313
N 14.54611773 1.32129852 7.84005164 0.00873608 -0.00038954 0.00524471
N 13.22689501 8.33473397 3.07276241 0.00288693 -0.00507894 -0.00448335
N 11.31421379 5.46482077 10.04807574 -0.00108539 -0.00391784 -0.01072469
N 12.54173945 3.91133847 14.31733772 -0.00265756 0.00594352 -0.00131273
N 13.16566856 8.89796133 17.12121757 -0.00301011 0.00289888 -0.00022858
N 14.55915827 0.63655999 12.26618976 0.00637767 -0.00280040 0.00436159
N 12.62748038 3.59204356 10.59222681 -0.00099014 -0.00038319 -0.00393482
N 11.43964545 5.77367801 15.11502559 -0.00081957 0.00130825 -0.00017419
N 14.49592717 1.00029478 16.54923315 -0.00032476 0.00433405 -0.00518984
N 13.34397714 8.27829990 12.14440797 -0.00266971 0.00231347 -0.00614918
N 11.51949347 5.62166195 19.09796665 -0.00405168 0.00354710 0.00043199
N 12.57462045 3.96461069 23.93536032 -0.00236084 -0.00734808 -0.00179895
N 13.17035218 8.66426777 26.56720070 0.00182936 0.00026637 0.00068806
N 14.53423231 0.53140923 21.35985262 -0.00032165 0.00154821 -0.00720052
N 12.59923406 3.57552899 19.41301873 0.01209587 -0.00024627 -0.00358402
N 11.27412127 5.74740976 24.20414796 -0.00232558 0.00108144 -0.00416951
N 14.44548376 1.26910891 25.79637044 -0.00620174 0.00197056 -0.00393453
N 13.34639571 8.26474745 21.48858287 0.00330965 0.01378615 -0.00263454
N 11.22743818 15.09935663 1.41402077 -0.00514983 0.00022826 0.00637241
N 12.64271937 13.90620435 6.01460998 0.00708199 0.00199026 0.00648621
N 13.19306870 18.66867535 8.00293882 0.00372509 0.00030203 -0.00297883
N 14.61770864 10.06649346 3.36090348 0.00527117 -0.00455741 0.00032438
N 12.61312196 13.30875546 1.84605255 0.00215369 -0.00554861 0.00133280
N 11.73211689 15.97434718 6.13972504 -0.00804488 0.00192979 0.00335546
N 14.16995915 10.75774084 7.92000017 -0.00096541 -0.01117011 -0.00081409
N 13.36298662 17.98784136 3.31251447 0.00064191 -0.00634776 0.00017555
N 11.47013508 14.98794248 10.57338433 0.00244096 -0.00016817 0.00831635
N 13.02628977 13.35061432 15.05193215 0.00086092 -0.00185101 0.00358659
N 13.19054791 18.59725725 16.98247815 0.00395700 -0.00065099 -0.00176437
N 14.50009806 10.12531239 12.68980964 0.00377973 -0.00024858 0.00266620
N 12.73363127 13.13711536 10.92463987 0.00017861 -0.00027060 0.00429423
N 11.77773155 15.24450597 15.37940942 0.00722768 0.00355876 0.00098047
N 14.61394463 10.73786965 17.19890965 0.00094887 -0.00513533 -0.00473123
N 13.58430428 17.80773858 12.31886297 0.00260733 0.00515061 0.00024625
N 11.23259494 15.05974687 19.15599477 -0.00290171 0.00766299 0.00468059
N 12.26984185 13.49060046 24.22278690 -0.00330191 0.00353870 -0.00207435
N 13.15858073 18.56197135 26.38050927 0.00148454 -0.00265558 0.00099768
N 14.69385748 10.16070034 22.00717983 0.00223153 -0.00404326 0.00170911
N 12.45100219 13.43354841 20.18196135 -0.00059121 0.00404803 0.00217820
N 11.19987021 15.45506983 24.39690709 0.00119228 0.00610213 0.00127582
N 14.32363341 10.70224425 26.29846957 0.00328692 0.00282743 0.00103344
N 13.44676867 17.55658599 21.29737365 0.00411251 -0.00219653 -0.00403816
N 11.05661262 24.40464571 1.23118270 -0.00008464 0.00415045 0.00460154
N 12.86780895 23.28458078 5.42726175 0.00234677 -0.00611936 0.00071304
N 13.39269286 28.01250921 7.55428780 -0.00366415 -0.00049438 -0.00220766
N 14.21536391 20.20429979 3.39867371 -0.00120308 -0.00262223 -0.00058563
N 12.39484615 22.52381822 1.30953059 -0.00107732 0.00352491 -0.00190881
N 11.56358992 25.08832044 6.09714956 -0.00582649 -0.00519394 -0.00025535
N 14.31108050 20.65872940 7.65191221 -0.00522570 0.00378687 0.00892208
N 13.24617076 27.51192624 2.72106823 0.00620749 -0.00324412 0.00126610
N 11.44507489 24.67750772 10.45626591 0.00368683 0.00600192 0.00591531
N 12.84679839 23.26879572 14.57812522 0.00544429 0.00335184 -0.00191700
N 13.17672941 27.72299422 16.83343859 -0.00141672 -0.00547564 0.00282120
N 14.93956855 19.68003602 12.37096475 0.00277345 0.00258200 0.00141213
N 13.03203314 22.99453571 10.68490848 0.00147396 0.00365776 0.00386674
N 11.46082405 25.04937675 15.17725739 -0.00334186 0.00042889 0.00053391
N 14.44544848 20.41790709 16.69343599 -0.00620579 0.00299720 -0.00252447
N 13.40253037 27.34083490 12.07605485 0.00020405 0.00763324 0.00894307
N 11.39465556 24.63290220 19.34717438 0.00196172 0.00363375 0.00390478
N 12.71211878 23.12567675 23.90717254 0.00682692 0.00354596 0.00723639
N 13.38537697 27.83868432 25.95806794 0.00713777 -0.00712882 0.00393125
N 14.31962141 19.63188305 21.57148346 -0.00446910 0.00197130 0.00494771
N 12.71856960 22.80813571 19.73502219 0.00342931 -0.00161486 0.00148110
N 11.63230164 25.15172251 24.49722389 -0.00418271 -0.00255270 -0.00340882
N 14.74588956 20.08791087 25.61518612 -0.00334845 0.00247177 -0.00572672
N 13.56799346 27.11793700 21.26834552 -0.00272879 0.00136084 -0.00439512
N 15.10307246 5.74907366 0.98187920 0.00439261 0.00192188 0.00128981
N 16.18398810 4.26818742 5.69000634 0.00597213 -0.00515368 0.00130593
N 16.79613335 8.84004930 8.11798696 0.00475528 0.00627030 -0.00197058
N 17.81589922 0.69901591 3.28669757 0.00256295 -0.00305148 -0.00386831
N 16.30553035 3.72203731 1.21471213 0.00548064 -0.00451606 -0.00470009
N 14.88834143 6.15694557 5.99780494 -0.00587983 0.00323748 0.00263789
N 18.08740115 1.52495979 7.76291205 -0.00492483 0.00193249 0.00122750
N 17.02098143 8.45725650 3.17029925 0.00291613 -0.00784448 -0.00501116
N 15.07306144 5.14732597 10.49435218 0.00411211 -0.00555689 -0.00325955
N 16.46065774 3.96525274 14.97781242 0.00037793 -0.01212849 -0.00725815
N 16.78530855 8.61594094 17.09497682 -0.00489015 -0.00110074 0.00223474
N 18.36359234 0.36953057 12.48532597 -0.00062858 -0.00201109 0.00581320
N 16.47931977 3.34500197 10.44780030 0.00410514 -0.00385563 0.00474079
N 15.22869147 5.80745245 15.03691084 0.00204970 -0.00519030 -0.00593557
N 17.85977795 1.03581868 17.14052703 -0.00086072 0.00292214 0.00448243
N 16.95369393 8.67642879 12.30157454 0.00293466 -0.00107559 0.00723465
N 15.20682138 5.30254425 19.38441968 0.00159622 -0.00348672 0.00212337
N 16.28433263 4.14608610 23.76048901 -0.01154231 -0.00388657 -0.00516361
N 16.76479168 9.07732347 26.16771093 -0.00249565 0.00001669 0.00303937
N 18.22627376 0.59080064 21.96569580 0.00237069 0.00249354 -0.00222457
N 16.28621945 3.25620326 19.97717147 0.01164011 -0.00147894 -0.00243214
N 14.98377232 5.85492041 24.39448011 0.00085438 -0.00191064 -0.00632597
N 18.09690117 1.03484381 26.05170024 0.00157938 -0.00225398 0.00117731
N 16.86429509 8.19044567 21.40917272 -0.00029355 0.00605501 -0.00125378
N 14.91563352 15.36648205 1.01840546 -0.00994440 0.00578047 -0.00172468
N 16.04517400 13.49934322 5.63135611 0.00018117 -0.00707309 0.00095059
N 16.71180303 18.74194340 7.90637286 -0.00109917 -0.00066045 0.00000411
N 18.34050705 10.38026898 3.54832390 -0.00313832 0.00519370 0.00234400
N 16.27187343 13.45010372 1.45165589 0.00130609 0.00238222 -0.00095589
N 15.26588375 15.60733563 5.96245995 0.00663459 0.00175900 0.00210638
N 17.65261685 10.87831886 7.71203570 -0.00208874 0.00514254 0.00386610
N 16.98569835 17.76472287 3.22562926 0.00309404 -0.01110678 -0.00045694
N 14.94409856 14.90781356 10.22950072 -0.00066850 -0.00603094 -0.00285146
N 16.00050816 13.49771072 14.90378985 -0.00085233 0.00271023 -0.00180143
N 17.27130252 18.25768331 17.05859523 -0.00475647 -0.00187262 0.00063694
N 18.55821527 10.32905537 12.63244090 0.00003387 0.00416348 0.00789091
N 16.29292295 13.12239817 10.85105246 -0.00580353 0.00405583 0.00204440
N 15.33801984 15.68327859 15.16584582 -0.00058710 -0.00100626 -0.00164471
N 18.08161564 10.56820195 16.90324189 0.00021975 -0.00328086 -0.00374126
N 17.53204441 17.74457403 12.12071059 -0.00202364 0.00391304 -0.00239234
N 14.85798101 14.67702565 19.43778518 -0.00062353 -0.00422100 -0.00564854
N 16.25694204 13.85200742 24.01280937 0.01001381 -0.00942979 0.00439247
N 16.85778328 18.13180962 26.27497934 -0.00579168 -0.00226117 -0.00314084
N 18.53665274 9.77634450 21.55456541 -0.00723744 0.00092769 0.00079361
N 16.22886275 13.10970353 20.28209164 -0.00208196 0.00142094 0.00312207
N 15.09325781 15.80475392 24.28664672 0.00851797 0.00042186 0.00947834
N 18.17646527 10.87002319 25.86284564 0.00747377 -0.00057524 0.00445778
N 16.83159462 17.98186997 21.42368413 -0.00643825 0.00369698 -0.00359140
N 15.06871952 24.57597083 0.47594845 0.00254869 -0.00284627 -0.00545912
N 16.68617593 23.27515743 5.47639486 0.00349144 -0.00032362 0.00601653
N 16.57936377 28.38161950 7.53330549 0.00251300 0.00421093 -0.00192179
N 18.24374167 19.72082985 3.26577771 0.00272433 0.00311753 -0.00518140
N 16.19588846 22.71162173 1.15474281 0.00192193 0.00981719 -0.00536443
N 15.23824817 24.91625566 5.87264505 -0.00356786 0.00061962 0.00842135
N 18.29202827 20.38405643 7.61318143 0.00208046 -0.00112907 0.00080107
N 17.18908518 27.17339056 3.14510700 -0.00430295 -0.00269184 0.00575414
N 15.22258700 24.67919551 9.73263207 -0.00830202 0.00144720 -0.00001711
N 16.29637138 22.93832157 14.67966461 -0.00564878 0.00226245 0.00092071
N 16.90268499 27.61372364 17.59394336 0.00188136 -0.00084474 -0.00302351
N 18.31356894 19.91868956 12.46769535 0.00015606 0.00068115 0.00210704
N 16.38080523 22.77160656 10.51420171 0.00231892 -0.00153563 -0.00509081
N 15.31037433 24.91467352 15.17658413 -0.00163410 -0.00603790 0.00235074
N 18.04233802 20.44530381 16.88685468 0.00305372 0.00243117 0.00686794
N 16.97043658 27.27508353 12.47546176 -0.00572281 -0.00094626 -0.00773724
N 15.24897512 24.43501129 19.09980542 -0.00122149 0.00071235 -0.00165898
N 16.45680850 23.01223314 23.79393930 0.00375701 -0.00708993 -0.00355391
N 17.03522536 27.59381233 26.45654114 -0.00006507 0.00026975 0.00147837
N 18.21461557 19.83325777 21.68037923 0.00241484 0.00435969 -0.00013249
N 16.06148595 22.40840211 19.76093931 0.00357455 0.00336479 0.00390572
N 15.04196224 24.97007236 24.10673039 0.00395029 0.00328696 -0.00893426
N 17.90296871 20.13811013 25.75883022 0.00407736 -0.00591880 -0.00154148
N 17.20869873 27.13201260 21.79375104 0.00039861 -0.00431516 -0.00463456
N 18.77844118 5.58488654 1.42671571 0.00100339 -0.00118648 -0.00361795
N 19.99602720 4.60441176 6.17644111 -0.00092271 0.00007454 -0.00035799
N 20.27882765 9.25540176 8.07625523 -0.00292364 -0.00189514 -0.00044493
N 21.96757767 0.89336963 3.80038404 -0.00651534 0.00375658 0.00031622
N 20.16241730 3.64844735 1.68283870 0.00243109 0.00419044 -0.00866801
N 18.42398257 6.41484032 6.20330581 -0.00311721 0.00504655 -0.00294789
N 21.64636325 1.26587933 7.89783015 -0.00280111 -0.00186044 -0.00330724
N 20.68718104 8.39610857 3.32253557 0.00354516 0.00204682 0.00532189
N 18.84747136 5.74926585 10.46192954 0.00908413 -0.00428752 0.00099706
N 19.83169424 3.80154016 14.85613564 -0.00055759 -0.00296467 0.00366377
N 20.62156618 8.59831499 17.14882283 0.00357976 -0.00742451 -0.00415455
N 21.81242918 0.47989949 12.53965192 -0.00226474 -0.00381462 0.00407611
N 20.17020804 3.75923129 10.81351525 0.00400727 -0.00236030 -0.00071335
N 18.76483022 5.78084324 15.01269150 0.00624287 -0.00741701 0.00779918
N 21.40571394 1.02885548 16.89655785 -0.00420018 0.00354158 -0.00328446
N 20.97605778 8.50243990 12.32069999 -0.00680189 -0.00070006 -0.00405512
N 18.50875920 5.14398677 19.44405508 0.00209458 0.00645806 -0.01290070
N 20.17333055 3.93373286 24.17229875 0.00194312 -0.00093095 0.00091122
N 20.50943604 8.92330650 26.20252551 -0.00170842 -0.00088026 -0.00984738
N 22.15711391 0.90418753 21.89764459 0.00277666 -0.00241318 -0.00761892
N 19.81804631 3.15086836 19.71732785 0.00462020 -0.00322288 0.00105535
N 18.91408287 5.93255556 24.25415815 -0.00235374 -0.00030128 0.00069131
N 21.71462453 1.27097312 26.12005043 -0.00180786 -0.00496493 0.00229971
N 20.89844764 8.03770857 21.31770019 0.00286989 0.00111608 -0.00006445
N 18.80313884 14.82310231 1.59987858 0.00317250 0.00540261 0.00482050
N 20.19502491 13.73077344 5.83675847 0.00020236 0.00241072 0.00460882
N 20.73370176 18.46068507 7.94313248 0.00330479 -0.00095374 0.00809185
N 21.88843680 10.36501691 3.51104781 0.00119694 0.00261003 -0.00363118
N 19.94333354 12.82525459 1.38720490 -0.00022675 0.00059685 -0.00437402
N 18.88233779 15.54966814 6.23739475 -0.00431225 0.00397229 -0.00910140
N 21.75885795 11.04962656 7.71343265 -0.00011148 -0.00272683 0.00262508
N 20.63789057 17.92666236 3.10467649 -0.00017721 -0.00194893 0.00309477
N 18.68636007 14.71633293 10.61232898 0.00145068 0.00150106 0.00251931
N 20.18360493 13.51372301 14.87257433 -0.00113894 -0.00448354 0.00291477
N 20.37144762 18.24681730 16.94771618 -0.00862005 -0.00124704 -0.00612679
N 21.89569462 10.52948612 12.83945079 0.00173062 -0.00430304 0.00024445
N 20.36367416 13.06556842 10.88892510 0.00100646 -0.00617265 -0.00269312
N 18.86937757 15.40419439 14.87937376 0.00796945 -0.00661959 0.00039589
N 21.54141762 10.70666606 16.85708057 -0.00148919 0.00200279 0.00373939
N 21.21131931 17.99943684 12.09246164 0.00310150 -0.00251374 -0.00042664
N 18.91577309 15.03944388 19.43761773 0.00238505 0.00321864 0.00243642
N 19.89750622 13.47958075 23.82395997 0.00106382 0.00042958 -0.00508288
N 20.52490195 18.10686771 26.60591650 0.00156291 -0.00123112 -0.00371796
N 22.01829731 10.02860656 21.61243410 0.00737019 -0.00079581 0.00052610
N 19.90423358 13.03819430 19.62243883 -0.00222976 0.00048281 0.00223853
N 19.00985989 15.53587616 24.36728007 0.00325229 -0.00227055 0.00101423
N 21.38953522 11.02600473 26.03163321 -0.00840785 -0.00167706 -0.00571202
N 20.49445818 17.94631474 21.05899209 0.00055092 -0.00162736 0.00055590
N 19.38067904 24.78060780 1.09194398 0.00090634 0.00114748 -0.00042659
N 20.27585897 23.37786008 5.78930838 0.00069195 -0.00049355 0.00061004
N 20.55860843 27.88367630 8.20382504 -0.00372833 0.00348949 -0.00510759
N 21.80303005 19.87156464 3.18683409 0.00121041 -0.00280088 -0.00149545
N 19.78976055 22.56874371 1.58298137 -0.00661020 0.00352304 0.00250041
N 19.01926857 25.20404191 5.96091836 -0.00573809 0.00495943 -0.00362583