1728
Time=17000.00000000 pbc="T T T" Lattice="22.13273142 0.00000000 0.00000000 0.00000000 28.86665438 0.00000000 0.00000000 0.00000000 27.25396582" energy=-10388.69772947 virial="4.27710909 -7.37626882 2.98230655 -7.37626882 -8.45592462 6.73118181 2.98230655 6.73118181 18.32540511" stress="0.00245157 -0.00053073 0.00024041 -0.00053073 0.00213319 0.00034134 0.00024041 0.00034134 0.00398878" Properties=species:S:1:pos:R:3:vel:R:3
N 0.28754517 5.48466986 0.82437979 0.00125774 0.00209945 0.00271404
N 1.83081494 3.95456322 5.53483972 -0.00657404 0.00795094 -0.00037911
N 1.81372270 8.91451336 7.90993165 -0.00084731 0.00565664 -0.00017364
N 3.26506500 0.53532674 2.99526196 -0.00104789 -0.00001274 0.00375600
N 1.42850745 3.56337944 1.26781563 0.00380398 -0.00483807 0.00320557
N 0.42183718 5.73819702 5.93301266 0.00444157 -0.01062785 0.00283824
N 3.36362737 1.00924141 7.46292655 -0.00527578 0.00703177 0.00405009
N 1.93043628 8.04094526 3.12361840 -0.00051705 -0.00313950 -0.00317146
N 0.00062229 5.57351885 10.09347374 0.00812460 -0.00303720 -0.00476211
N 1.72928122 4.25857416 14.78353190 0.00060330 -0.00224795 0.00056588
N 1.92854128 8.89592038 17.21599701 0.00284780 -0.00248099 0.00090234
N 3.26304266 0.87434069 12.42159487 -0.00571434 0.00487073 -0.00450183
N 1.18254132 3.69113605 10.33359922 0.00599606 0.00264764 0.00104375
N 0.44528519 6.10529483 15.00757350 0.00151671 0.00125394 0.00960008
N 3.16188926 1.29066891 16.80692569 0.00114233 -0.00723021 0.00030613
N 2.06772211 8.43364592 12.19775589 0.00280413 0.00392166 0.00624596
N 0.05354867 5.27205295 19.32451309 -0.00712961 0.00549396 0.00185051
N 1.53973686 4.09494796 23.78382401 0.00093761 -0.00442042 0.00050584
N 1.55214618 9.40040232 25.67621267 -0.00167750 -0.00003913 0.00990887
N 3.68961607 0.46439987 21.35202982 0.00592806 0.00169016 0.00702517
N 1.04419623 3.25291489 19.88452389 0.00060982 -0.00714418 0.00078975
N 0.46329248 6.12515544 24.01007359 0.00089104 -0.00199103 0.00490564
N 3.41578691 1.44246028 26.07813179 -0.00285733 -0.00185575 0.00540239
N 2.21143591 8.21645556 21.56953383 0.00325711 -0.00016489 -0.00242545
N 22.12094686 14.70502839 1.32152329 -0.00418975 0.00416522 0.00094813
N 1.30044899 13.75091831 5.62315945 0.00824387 0.00151189 -0.00292901
N 1.98337520 18.74256067 7.81058615 0.00138021 -0.00532432 -0.00029161
N 3.26826715 9.87391420 3.19703678 0.00129963 0.00507940 -0.00202360
N 1.61894542 13.03099108 1.64569678 0.00394005 -0.00306304 -0.00660230
N 0.27003275 15.66816281 6.15428019 0.00466053 -0.00225644 -0.00263670
N 3.37635371 10.64297134 7.67757843 -0.00427975 0.00372893 -0.00365742
N 2.17649243 17.89083885 2.78405100 0.00000338 -0.00491284 -0.00013269
N 0.51454461 15.59102291 9.81105261 -0.00128449 0.00016868 0.00006077
N 1.81172321 13.71929961 14.64732091 -0.00900960 0.00707002 -0.00102214
N 2.21110056 18.73865797 17.21972420 -0.00525592 0.00004921 -0.00256064
N 3.48628023 10.25480759 12.44518787 0.00069344 0.00033739 0.00244608
N 1.36850090 13.39907927 10.16689821 -0.00927522 -0.00289895 -0.00299196
N 0.86282543 15.78548006 15.06003685 -0.00327621 -0.00631173 0.00159188
N 3.44941441 10.64809381 16.89575237 0.00220214 -0.00371190 0.00106054
N 2.42243236 17.97450141 12.22539164 0.00541237 -0.00554201 -0.00219199
N 0.19125144 15.10491430 19.12405998 -0.00081804 -0.00782245 0.00102510
N 1.82085752 13.99190836 24.21081627 0.00242696 -0.00369448 -0.00508327
N 1.92647988 18.56526778 26.06877104 -0.00014277 -0.00440461 0.00058009
N 3.30628211 10.26730126 21.77069712 0.00828921 0.00619873 0.00093432
N 1.39759330 13.08866355 19.40755467 -0.00205407 0.00269219 0.00178716
N 0.63148016 16.00646780 23.97329244 -0.00596948 -0.00143188 -0.00076779
N 3.48240834 10.84049367 25.87353792 0.00553805 0.00066171 0.00129766
N 2.86475514 17.79773316 21.06225548 0.00261324 0.00350682 -0.00507046
N 0.58451127 24.82710894 1.13726703 0.00701304 -0.00744643 -0.00493599
N 1.41534227 23.69164283 5.76444975 -0.00270186 0.00564878 -0.00403399
N 2.02828277 28.04556759 7.95116970 -0.00102879 -0.00584697 -0.00739227
N 2.94297109 19.94290887 3.49362194 -0.00024900 -0.00263525 0.00656267
N 1.54149231 22.71878679 1.21218854 -0.00429386 0.00273939 -0.00656435
N 0.17259150 25.58473019 5.90526579 0.00950953 -0.00166047 0.00425142
N 3.31414978 20.57942445 7.74480499 0.00457944 -0.00411224 -0.00548552
N 2.22017642 27.30986448 3.15611859 -0.00182463 0.00547620 -0.00257835
N 0.24825243 24.80551035 10.32835291 0.00828072 -0.00495516 -0.00593762
N 1.76637993 23.41627384 14.76444167 -0.00006985 0.00170649 0.00347679
N 2.04657844 28.16716925 16.74300694 -0.00582917 0.00112098 0.00261441
N 3.38640196 20.02269030 12.39870365 -0.00271013 -0.00089875 0.00167950
N 1.66528382 23.06304593 10.59970161 -0.00174743 0.00925697 -0.00897653
N 0.51748221 25.35588029 14.96301918 -0.00025014 -0.00094503 -0.00968771
N 3.37816249 20.64200783 16.68500710 -0.00564502 -0.00977466 0.00731486
N 2.79585161 27.51530394 11.84179892 -0.00218019 0.00302290 0.00327029
N 0.31798722 24.97976575 19.23341441 0.00651123 -0.00601598 -0.00110505
N 1.42944528 23.25255271 23.67504473 -0.00643390 -0.00079931 0.00487126
N 2.16155846 28.39675579 25.81181312 -0.00058990 0.00027283 -0.00475220
N 3.53103154 19.88198889 21.36175075 0.00379761 -0.00557924 -0.00160750
N 1.32740060 22.82676125 19.76908669 -0.00535748 0.00290057 0.00507239
N 0.23381490 25.11798142 24.19342605 0.00034818 0.00218118 0.00860820
N 3.13064222 20.59772426 25.64347098 -0.00169699 0.00469991 -0.00169131
N 2.37323246 27.42371346 21.28883184 -0.00345143 0.00347166 -0.00259677
N 3.99720970 5.40157063 1.42506391 -0.00283224 0.00122909 0.00154565
N 5.22756441 3.87404577 6.02953300 -0.00078563 0.00045621 0.00246872
N 5.42306314 8.76649167 8.25927606 -0.00165011 -0.00215946 0.00264575
N 6.86016550 0.59727178 3.24236585 0.00086999 0.00109390 -0.00163731
N 5.28003508 3.46716623 1.78681365 -0.00309996 -0.01085340 0.01125532
N 4.19616966 5.89706221 6.15110255 0.00494232 0.00129947 0.00327611
N 7.15791147 0.92433900 7.83586088 0.00360641 0.00517946 0.00491118
N 5.66638653 8.41301698 2.94263316 0.00212925 0.00938276 -0.00309837
N 3.74481566 5.60945376 10.14418694 -0.00163029 -0.00401032 -0.00707541
N 5.30046515 4.29229904 14.82210092 -0.00570528 -0.00241165 0.00319252
N 5.84669748 8.64390343 17.07931546 -0.00429496 -0.00662473 -0.00234212
N 7.20483011 0.68345563 12.18032173 -0.00009766 0.00542150 0.00075689
N 4.94846551 3.67682267 10.40144522 0.00045183 0.00704721 0.00961189
N 4.13399356 6.22612006 15.11678725 -0.00174554 0.00171024 -0.00123792
N 6.74822532 1.24595683 16.75321312 -0.00430888 0.00997580 0.00170259
N 6.21655603 8.31363763 12.22899331 0.00611921 -0.00138733 -0.00651582
N 3.59475830 5.53400604 19.32181834 -0.00095912 -0.00237389 -0.00117049
N 5.23211637 4.14753551 24.01299888 0.00402584 0.00703190 -0.00748962
N 5.91896344 8.93909772 26.12150925 0.00221691 0.00260531 -0.00032285
N 6.97723319 1.29769785 21.78097733 -0.00271142 -0.00547027 0.00650626
N 5.07843576 3.78857827 19.50405845 -0.00388050 0.00116056 -0.00051727
N 3.85439570 6.05724193 24.41154971 -0.00041366 -0.00080172 0.00240734
N 7.12031117 1.19864058 25.78601862 -0.00593912 -0.00174591 0.00330398
N 5.89273965 8.50434887 21.27682609 0.00366629 0.00001159 -0.00259460
N 3.88771870 14.75161070 1.07329913 0.00059250 0.00113287 0.00410814
N 4.86595043 13.36842003 5.65625084 -0.00656300 0.00466410 -0.00167417
N 5.76390152 18.43100895 7.94881779 0.00150104 0.00353883 0.00688014
N 7.04804034 10.21903849 3.36029515 -0.00571196 -0.00476715 0.00244285
N 5.16298148 12.78384431 1.52250616 0.00221151 -0.00398225 -0.00427772
N 4.11588835 15.46671069 6.10879593 0.00068694 -0.00455110 0.00018093
N 6.87090533 10.65315599 7.60605417 -0.00049046 0.00013299 -0.00018675
N 5.56590818 17.89574554 3.21545956 -0.00020628 -0.00198728 0.00220945
N 3.96767921 15.28706406 10.56059533 -0.00135651 -0.00214409 -0.00063221
N 5.33997121 13.48916567 14.57871010 -0.00449011 0.00473473 -0.00037744
N 5.73142984 18.48194678 16.92611065 -0.00391907 0.00335826 -0.00052269
N 7.36341065 10.21268956 12.45918302 -0.00442087 0.00333495 0.00532508
N 4.99292607 13.21565209 10.68037767 -0.00100051 0.00263571 -0.00534359
N 4.30291142 15.53352769 15.00902469 -0.00430392 -0.00431524 -0.00370803
N 6.92463343 10.77236847 16.65694988 0.00249661 -0.00308611 0.00044157
N 5.83579821 18.11286458 12.09686700 0.00367873 0.00196894 0.00235402
N 4.06051809 14.93933150 19.29785234 0.00128822 0.00412593 0.00393261
N 4.93159374 13.74057280 23.74542440 0.00351280 -0.00085518 -0.00275505
N 5.59970174 18.49109328 26.10787229 0.00000643 0.00095994 0.00086698
N 7.23872767 10.31925792 21.89542758 0.00544832 -0.00029727 -0.00028019
N 4.78103838 12.77313363 19.79597636 0.00630144 0.00101026 0.00008592
N 4.12718713 15.89719732 24.00887909 -0.00358986 -0.00660038 -0.00121380
N 6.79632183 11.05032831 25.80006674 -0.00183195 0.00279739 -0.00270930
N 5.98898413 18.18332957 21.26276717 0.00052279 -0.00281893 0.00193475
N 4.10005143 24.83511299 1.00129026 -0.00153590 0.00692929 -0.00178876
N 5.26712497 23.39900977 5.46228124 -0.00173960 0.00244951 0.00165864
N 5.72272344 27.99744731 8.19443376 -0.00158786 0.00219661 0.00543321
N 6.74836129 20.00707388 3.36655681 0.00488624 -0.00001330 0.00091216
N 5.01148492 22.70268500 1.26566608 -0.00209918 0.00432465 0.00017449
N 4.04815462 25.22065094 6.16904922 -0.01089744 0.00202904 -0.00581794
N 6.79232520 20.41639444 7.34646911 0.00612227 0.00758232 0.00404601
N 5.87649144 27.47267157 3.08700396 -0.00505323 -0.00047083 0.00141774
N 4.24328022 24.71302335 10.28271735 0.00108135 -0.00094887 0.00244289
N 5.50299440 23.77948631 14.86784661 -0.00078601 -0.01169322 -0.00026386
N 5.62850517 28.15170985 16.83406940 0.00009853 -0.00461399 -0.00954789
N 7.17550079 19.92358141 12.36315594 -0.00113234 -0.00556971 -0.00444949
N 5.21641088 22.60385024 10.33027344 -0.00555512 0.00351006 0.00240218
N 3.83557487 25.26533742 15.05075950 -0.00547517 -0.00368428 0.00544217
N 6.88265860 20.36690348 16.40671884 0.00417609 -0.00110213 -0.00222459
N 5.94273699 27.62320261 12.24614082 -0.00167401 0.00134222 -0.00058566
N 4.31321487 24.97830567 19.24922553 -0.00081723 -0.00430608 0.00182284
N 5.42928832 23.33084204 23.76795082 -0.00334581 0.00383409 0.00240939
N 5.79936961 28.09994921 25.88567502 -0.00287223 -0.00358766 0.00426067
N 7.00546528 20.09487163 21.64026353 -0.00044261 0.00337065 0.00138872
N 5.23535750 22.79435987 19.42902840 -0.00198407 0.00364264 -0.00017348
N 4.05763697 25.16644325 23.96484916 -0.00141300 -0.00298858 0.00381397
N 6.80064981 20.43954421 25.78183703 -0.00094808 -0.00126982 -0.01205957
N 6.36445625 27.94216938 21.29643735 0.00253812 0.00149885 -0.00019581
N 7.72995112 5.32142230 1.03206241 -0.00369912 -0.00005236 -0.00272321
N 8.77431374 3.85801854 6.01381469 0.00046584 -0.00730309 0.00207537
N 9.17562560 9.03829461 8.08020520 -0.00467514 0.00786624 -0.00318531
N 10.96089964 0.59986055 3.63160889 -0.00125434 -0.00023279 0.00131020
N 8.80920201 3.38684659 1.49743348 -0.00110603 0.00263075 0.00444181
N 8.08898244 6.01391938 6.33835970 0.00070814 -0.00310410 -0.00438580
N 10.64926232 0.88218125 7.80938111 0.00098219 0.00435259 -0.00041994
N 9.24088466 8.26916311 3.26971497 0.00078739 -0.00658005 -0.00577441
N 7.97847793 5.45374937 10.24356642 -0.00434353 -0.00552880 -0.00491243
N 8.78865177 3.97096089 14.48405231 -0.00046628 -0.00249442 0.00782566
N 9.38296570 8.90241542 16.79516994 0.00172792 0.00145406 0.00827489
N 10.88117230 0.81273907 13.13650365 0.00906559 -0.00789168 0.00282327
N 8.87308741 3.40923009 10.56898414 0.00018454 -0.00147821 0.00496097
N 7.84619300 6.01828537 15.08964939 0.00578299 -0.00008337 -0.00314074
N 10.61269260 1.34645259 17.06772746 0.00245921 -0.00030261 -0.00277150
N 9.68675416 8.39374316 12.20373777 0.00516877 -0.00111096 -0.00152847
N 7.70805008 5.75454560 19.20478258 -0.00060510 -0.00257412 -0.01421936
N 9.16371142 4.05902489 23.80162143 0.00937832 -0.00264070 -0.00203191
N 9.11602584 9.27015050 25.66606596 0.00137216 0.00279109 0.00745271
N 10.10217629 0.65121564 22.02061403 -0.00145947 0.00169445 -0.00004710
N 9.12803310 3.97830512 19.62560154 -0.00413642 -0.00157291 0.00073854
N 7.70677177 5.89968771 23.88935137 0.00162424 0.00652060 -0.00610396
N 10.96220249 1.09901399 25.69914032 0.00478920 -0.00675472 -0.00268179
N 10.01655676 8.30746921 21.04173036 0.00166804 0.00983673 0.00027554
N 7.50800173 15.27918177 0.87049374 0.00721582 0.00062290 0.00426038
N 9.02219957 13.65299644 5.51594291 -0.00137861 -0.00217401 -0.00034299
N 9.20102076 18.81240782 8.05459919 0.00905706 0.00318569 0.00156841
N 10.32159140 10.26900026 3.28823384 -0.00022587 0.00188674 -0.00269891
N 8.75974378 13.32483374 1.35749093 0.00109163 0.00041082 -0.00052435
N 7.73372916 15.61291294 5.63731409 0.00272329 0.00113761 -0.00428119
N 10.49393545 11.02598133 7.80824534 0.00161402 -0.00113179 -0.00165530
N 9.43758499 18.16398293 3.05969354 -0.00142089 -0.00061366 0.00144346
N 7.58231181 15.18595737 10.16558675 0.00173392 -0.00649266 -0.00011409
N 9.30666204 13.73159953 14.70077316 -0.00360055 -0.00224124 0.00131907
N 9.48968910 18.31864913 17.11546129 0.00253045 -0.00464582 -0.00158235
N 10.78156908 10.39736976 12.66344280 -0.00537410 0.00221144 -0.00283744
N 8.47863494 13.08088133 10.24594008 -0.00631401 0.00383298 0.00055631
N 8.05395872 15.72173539 14.98363717 -0.00169150 -0.00447711 -0.00147453
N 10.64168544 10.81218549 16.91229346 0.00513286 -0.00584762 0.00069325
N 9.82914226 18.29023770 12.61708160 -0.00289071 -0.01101994 -0.00365355
N 7.53789083 15.00343146 19.24740606 -0.00177645 0.00214616 -0.00222145
N 8.96400410 13.76065842 23.46767610 0.00183799 -0.00920136 -0.00429610
N 9.26698900 18.84660231 25.98218485 0.00545845 -0.00862191 0.00211689
N 11.22917652 10.34193511 21.37044048 0.00244969 -0.00273306 0.00055350
N 8.96308328 13.07595779 19.41953800 -0.00328655 0.00176460 -0.00047121
N 7.86465570 15.60940068 24.24108142 -0.00353202 0.00306258 0.00330370
N 10.72091091 10.98963195 25.43722221 0.00192872 0.00205363 0.00143484
N 9.74355222 17.89870557 21.07276869 0.00293632 0.00371062 0.00295681
N 7.37174454 24.54554859 1.38033601 -0.00468181 -0.00120637 0.00197684
N 8.61099408 23.19252028 5.40148368 0.00050483 0.00631660 0.00522966
N 9.91108297 27.65159034 8.22311422 0.00022501 -0.00204560 -0.00150355
N 10.76704859 20.00505520 3.25627594 -0.00324499 -0.00518128 0.00181101
N 8.75676015 22.68079271 1.52253553 0.00133428 0.00363635 0.00045245
N 7.97875046 25.29333577 6.12393792 0.00053747 0.00605471 0.00088303
N 10.51824884 20.71808212 7.57535043 -0.00269570 0.00081553 -0.00258460
N 9.45663943 27.71619996 3.04771811 -0.00432143 -0.00665832 0.00255918
N 7.76115401 24.62802010 10.51607972 0.00050219 0.00257055 0.00089485
N 9.09530617 23.18996881 14.77198482 -0.00264671 0.01056679 0.00070838
N 9.26471879 28.37162252 17.34428564 0.00643816 0.00645748 0.00063006
N 11.14414889 20.06744938 12.66037059 0.00173171 0.00260224 -0.00643824
N 9.11921034 22.77727210 10.56923178 0.00186996 0.00523400 -0.00328280
N 8.33212570 25.34278626 15.29060225 -0.00333267 0.00378154 0.00102911
N 10.65138922 20.23693309 17.04884666 0.00374943 0.00400123 0.00182917
N 9.92050810 27.84015683 12.31700589 -0.00011623 0.00868847 -0.00498792
N 7.46693891 24.77085313 19.40212752 -0.00073638 -0.00777116 0.00108856
N 8.76636494 23.32676608 23.70617289 -0.00244056 0.00695201 0.00481463
N 9.62149298 28.17260666 25.97847003 -0.00214687 0.00195906 -0.00260249
N 10.67201149 20.01944059 21.46908477 -0.00019170 0.00184398 0.01277308
N 8.70203531 22.86493140 19.72994988 -0.00263850 0.00672767 0.00325529
N 7.85067965 25.40328846 24.25756255 -0.00709684 0.00187618 -0.00043701
N 10.59908330 20.68101945 25.75522449 -0.00163622 -0.00204040 0.00181179
N 9.82843721 27.34590748 21.36306177 0.00136643 0.00296585 0.00475324
N 11.30146259 5.47373500 1.10500081 -0.00089342 -0.00012780 0.00512358
N 12.52743567 4.18693219 5.65007593 -0.00343875 -0.00221197 -0.00252049
N 13.35320798 9.03831224 8.00508084 -0.00399184 0.00019563 0.00343757
N 14.37481927 0.67891055 3.32038824 0.00066179 -0.00451198 -0.00185267
N 12.33222896 3.42303359 1.36954235 -0.00203333 -0.00182974 0.00234242
N 11.46035918 6.16912240 6.15598210 -0.00133548 0.00205432 -0.00209910
N 14.24855680 0.97823718 7.45617398 -0.00114435 -0.00310457 -0.00625605
N 13.19443681 8.47013582 3.44483953 -0.00054400 0.00209522 0.00139756
N 11.26972241 5.22621159 10.11330928 -0.00548507 -0.00001224 0.00442068
N 12.71881995 3.95762315 14.75727261 0.00773534 0.00809047 0.00120938
N 13.10757038 9.09421934 17.17995313 0.00172688 -0.00064369 -0.00351526
N 14.53419507 0.89207831 12.25833788 -0.00037902 -0.00412245 -0.00168950
N 12.55418469 3.34989170 10.56971336 0.00148005 0.00310803 0.00519845
N 11.61534183 5.97037747 15.10897104 0.00025246 -0.00318654 -0.00710333
N 14.40106699 0.96653005 16.62248522 -0.00237577 0.00490869 0.00206702
N 13.37816520 8.34350807 12.28556687 0.00144739 0.00130944 -0.00282664
N 11.39937358 5.52727506 19.40788856 -0.00124581 0.00272827 0.00369676
N 12.87988969 4.33362512 23.89233706 -0.00270973 -0.00118960 0.00260755
N 13.03311063 9.18833107 26.07628861 0.00103479 -0.00916301 0.00176359
N 14.42105469 0.76268577 21.48873017 -0.00460760 -0.00191399 -0.00130033
N 12.38607007 3.48447586 19.61277185 0.00275293 0.00103385 0.00042975
N 11.40952933 6.11854882 24.22903157 -0.00363831 -0.00326070 -0.00593042
N 14.67509689 1.26321046 25.57779889 0.00281799 0.00299641 -0.00087312
N 13.53425855 8.58175879 21.24642539 -0.00285847 -0.00308821 0.00149892
N 11.23348707 15.09180459 1.23399321 -0.00497122 0.00002294 -0.00800097
N 12.80564795 13.89687859 5.85422825 -0.00239066 -0.00187647 0.00409752
N 12.79626336 18.67401227 8.08400322 0.00078089 0.00176652 -0.00282386
N 14.58671546 10.39760562 3.54340834 0.00226918 0.00077684 0.00078126
N 12.36497045 13.10899685 1.36708520 0.00326838 -0.00012124 -0.00296397
N 11.27406096 15.64521166 6.15204681 -0.00061331 -0.00602133 -0.00612837
N 14.48566070 10.95675742 7.75287619 0.00288261 -0.00096414 -0.00981012
N 13.25715024 17.92423770 3.24721121 0.00918987 0.00573370 -0.00023910
N 10.94397604 14.88272768 10.51026883 -0.00146789 -0.00129127 -0.00322688
N 12.98289612 13.61534592 14.50613022 0.00359857 -0.00166570 0.00331211
N 13.16149470 18.78079050 17.13268089 -0.00410528 -0.00076638 -0.00006394
N 14.54072318 10.30777222 12.30937608 0.00232865 -0.00115050 -0.00324077
N 12.26831569 13.04239788 10.36839686 0.00092136 -0.00186270 0.00368041
N 11.94366971 15.55477922 15.31480861 0.00271817 -0.00636996 0.00289134
N 14.40812534 10.95713233 16.76237185 -0.00517370 0.00628917 0.00018166
N 13.31569867 18.17477432 12.44910861 0.00044062 -0.00524836 0.00285682
N 11.46176114 15.03589245 19.19423149 -0.00350032 0.00158649 -0.00268782
N 12.48908634 14.07480226 23.65266788 -0.00066121 -0.00311966 -0.00021399
N 12.98254143 18.42403167 26.18131290 -0.00128080 -0.00855054 -0.00000233
N 14.53933605 10.52767153 21.73667350 -0.00806396 -0.00061278 0.00079539
N 12.87386342 13.31566302 19.51058131 0.00029739 -0.00257083 -0.00003092
N 11.30790285 16.04832931 24.11439775 0.00214757 -0.00269032 0.00147028
N 14.12137202 11.14189941 25.68893581 -0.00409573 -0.01094143 0.00607911
N 13.35707728 17.82295732 21.11315351 0.00412972 -0.00006997 -0.00505473
N 11.31228265 24.59365484 1.37364724 0.00057888 0.00256883 0.00111622
N 12.68692366 23.04284550 5.57856617 -0.00675189 -0.01005393 -0.00358140
N 13.15882699 27.87152269 7.70293116 -0.00021217 -0.00503244 0.00004309
N 14.29361058 19.88470608 3.50438192 0.00073483 -0.00016543 0.00476330
N 12.64527501 22.73812995 1.58930635 0.00410016 0.00037421 -0.00397470
N 11.57544605 25.00697244 5.92540910 -0.00009310 -0.00629384 0.00140826
N 14.32082155 20.50930764 7.97658592 -0.00540256 0.00264778 0.00351340
N 13.36867159 27.47444392 2.99706631 -0.00182258 -0.00395408 0.00060494
N 11.58409524 24.69859409 10.56115781 0.00044557 -0.00100812 0.00044687
N 13.33366874 23.05411087 14.70329782 0.01236218 -0.00388691 0.00079475
N 13.23814968 27.82738880 17.04190260 -0.00162776 0.00158042 0.00093538
N 14.49672953 20.08310164 12.66954813 -0.00128808 0.00001343 -0.00434409
N 12.93557836 22.84532657 10.73422699 -0.00029088 -0.00155042 -0.00386367
N 11.89282657 24.83305157 15.05159192 -0.00127543 0.00044554 0.00029082
N 14.76429821 20.54936385 16.95034443 0.00211874 0.00304266 0.00232516
N 13.27542050 27.78233553 12.07180088 -0.00339288 -0.00420320 -0.00121582
N 11.17383725 25.09192520 18.83804029 0.00144247 -0.00701615 -0.00248182
N 12.92183042 23.30989071 23.83116798 -0.00183677 0.00214873 0.00431360
N 13.37704233 28.20491864 26.04542549 -0.00258328 -0.00290662 0.00194752
N 14.54717916 19.83178942 21.52769503 -0.00413709 0.00333148 0.00559952
N 12.23945805 23.11856899 19.58927072 0.00026206 0.00460047 0.00213315
N 11.56193165 25.06901391 24.30183013 -0.00561458 -0.00650062 0.00486443
N 14.29054007 20.10579131 25.54437592 0.00715769 0.00426692 -0.00368080
N 13.31527552 27.69173380 21.16642767 -0.00064820 -0.00031692 0.00585482
N 14.90365890 5.66348571 1.02892759 0.00307700 0.00259497 0.00233145
N 16.36715255 3.84783387 5.52149311 -0.00052939 -0.00253871 0.00207801
N 16.82533173 8.86373324 7.99889003 -0.00358717 0.00442272 -0.00046185
N 18.23957411 0.66139336 3.31489137 -0.00675909 0.00348361 0.00246134
N 16.29043997 3.89441995 1.20808041 -0.00311356 0.00255368 0.00153836
N 15.15062985 5.84078960 5.94984268 0.00224652 0.00164276 -0.00232131
N 18.23479803 1.48129520 7.84590880 -0.00882311 0.00207996 -0.00324428
N 16.83723504 8.44151416 3.03893807 -0.00154447 0.00606249 -0.01087287
N 14.90044649 5.34401269 10.32705730 -0.00155709 0.00628679 -0.00134355
N 16.53542032 4.13669200 14.77848962 -0.00014716 -0.00148995 0.00530853
N 16.55733734 9.07105614 17.20172255 0.00443530 -0.00519140 0.00936319
N 18.50322095 0.52807928 12.25145619 -0.00013603 -0.00165198 0.00390551
N 16.38073634 3.63421385 10.61040411 0.00440969 0.00409122 -0.00716530
N 15.23070739 6.06473652 15.21512457 0.00116008 -0.00109121 0.00684594
N 18.14928832 1.17144500 16.54830823 0.00247900 0.00496155 -0.00238612
N 16.93197779 8.31183172 12.47609277 -0.00326909 0.00039314 0.00345314
N 15.24929783 5.44262776 19.32766917 -0.00562413 0.00583002 -0.00126638
N 16.57065967 4.20696403 23.86990545 0.00600850 0.00099720 0.00208084
N 16.52998354 9.25413000 25.85903031 0.00216173 0.00493425 -0.00573086
N 18.20597042 0.66954373 21.54595945 -0.00294999 0.00675634 -0.00105205
N 16.26838366 3.37811152 19.47083309 0.00104242 0.00889334 -0.00300070
N 15.22076929 6.10771759 24.05810220 -0.00125556 -0.00558707 0.00134088
N 18.10116220 1.51018263 25.90069752 -0.00098023 0.00277368 -0.00219124
N 17.28741404 8.33479202 21.64287472 0.00148986 0.00144697 -0.00863593
N 14.63097127 14.95650073 1.48752734 0.00098782 -0.00000968 0.00162511
N 16.33362999 13.99921424 5.91262370 0.00427217 -0.00404714 0.00441094
N 16.99836522 18.34211539 8.11523107 -0.00095708 -0.00524772 -0.00311003
N 18.18182703 10.42306698 3.28452371 0.00495108 0.00233906 -0.00847859
N 16.35665530 13.28118213 1.51458285 0.00136318 0.00801886 0.00138456
N 15.03256883 15.88047339 6.14970724 0.00571396 0.00241506 -0.00372907
N 18.16178352 10.70531031 7.67860895 -0.00254109 0.00633456 0.00421558
N 16.82869904 18.23253260 3.06884525 -0.00119854 0.00375979 -0.00290336
N 14.95180098 15.22311520 10.29592439 0.00322010 -0.00248153 -0.00292208
N 16.64666390 13.50945229 14.16475494 0.00072256 -0.00135591 -0.00382674
N 16.96640652 18.62136907 17.10321999 -0.00512735 0.00278344 0.00582194
N 18.22074170 10.26075461 12.72586281 -0.00076032 0.00142587 0.00227080
N 16.05766413 13.15943835 10.51325998 0.00483710 0.00453535 0.00100788
N 15.57006039 15.11063708 15.35264670 0.00115015 -0.00098243 -0.00009116
N 17.92366607 10.96204849 16.97703773 -0.00409143 0.00226795 -0.00470032
N 16.88199115 18.10913353 12.35792931 0.00075920 -0.00176768 0.00325087
N 15.17919314 15.19207350 19.12311263 -0.00098005 -0.00452941 -0.00468969
N 16.53650792 13.94258809 23.69673599 0.00065249 -0.00417848 -0.00109880
N 16.72601564 18.18606423 26.02352911 0.00633618 -0.00129191 0.00636220
N 18.48361523 10.34188609 21.92064592 0.00048999 -0.00264980 0.00209006
N 16.42843437 13.22703488 19.87737782 -0.00014059 -0.00112485 -0.00110418
N 14.91352175 15.46026152 24.28146927 -0.00708654 0.00265031 -0.00015579
N 17.94329281 11.07486699 25.72154283 -0.00236402 0.00342184 -0.00416740
N 16.95768694 17.91273846 21.68430862 0.00392677 -0.00589567 0.00214838
N 15.04943681 24.63251526 1.06342009 -0.00256617 -0.00373119 -0.00392176
N 16.50848891 23.32526310 5.58415828 0.00084820 -0.00293887 0.00088770
N 17.04445900 28.38847644 7.71180075 -0.00268207 0.00643809 0.00057812
N 18.51584986 19.89624719 3.31195309 0.00436315 -0.00495620 -0.00080564
N 16.27412707 22.63788590 1.12327838 0.00955434 0.00045260 -0.00060201
N 15.33629886 25.22240055 5.86008453 -0.00491584 -0.00119055 0.00429266
N 17.97079601 20.37447205 7.63466489 -0.00533145 -0.00819458 -0.00191555
N 16.91119682 27.70376746 3.05944022 0.00383463 0.00057901 0.00312548
N 14.98870334 24.66456576 10.06005655 -0.00162422 -0.00098694 -0.00026969
N 16.64776525 23.14957386 14.32858184 -0.00044544 -0.00422672 0.00122865
N 17.12425692 28.07515293 16.90346563 -0.00056158 0.00122260 -0.00254581
N 18.30817384 19.84359106 12.43389871 -0.00027306 -0.00375265 -0.00110953
N 16.21734103 22.81956115 10.43347694 0.00193347 -0.00051780 -0.00056447
N 15.61463690 25.05757954 15.11672942 0.00288180 0.00223625 -0.00104843
N 18.35503781 20.35373967 16.68906282 -0.00400322 -0.00626459 -0.00363043
N 16.95551007 27.65406873 12.23703743 -0.00835641 -0.00455222 -0.00253512
N 15.21590843 24.78251786 19.15369398 0.00133091 0.00028627 -0.00911276
N 16.16024800 23.35002013 23.74815809 -0.00298329 -0.00050251 -0.00474261
N 17.23512023 28.22882203 26.33367733 0.00204169 0.00226965 -0.00466252
N 18.53429983 19.64719249 21.52386392 -0.00534182 0.00180211 -0.00082203
N 16.15671416 22.78595003 19.64105617 0.00678883 0.00204572 -0.00467680
N 15.21827256 25.39622986 24.06185013 0.00136184 0.00113562 -0.00106516
N 17.72895846 20.28897664 25.56026255 -0.00019246 -0.00560024 0.00025063
N 16.84419749 27.78926206 21.14702954 0.00181298 0.00078724 0.00200487
N 18.54101455 5.58791003 1.12426229 -0.00353481 -0.00034791 -0.00411965
N 19.94315920 4.16884185 5.75143568 0.00143632 -0.00226581 0.00651166
N 20.71241498 8.85394985 7.89057010 0.00350182 -0.00067939 0.00318520
N 21.29976657 1.11372347 3.45424910 -0.00092322 -0.00699505 -0.00636411
N 19.94095616 3.79704395 1.45173439 -0.00350496 0.00285475 0.00077727
N 18.84198388 6.14622047 6.27855234 0.00128071 -0.00289281 -0.00419407
N 21.91639862 1.23801644 7.50449371 0.00358814 0.00208687 -0.00654223
N 20.45567472 8.32258308 3.08075769 0.00469785 -0.00109927 -0.00261412
N 18.62194527 5.63784516 10.38070671 -0.00036655 0.00069958 0.00358301
N 20.17143092 4.29390486 15.02992200 0.00057487 0.00421266 0.00258251
N 20.38904529 9.03626208 16.94093763 0.00255120 -0.00314903 -0.00541471
N 22.09284030 0.63390853 12.63074608 0.00244548 -0.00613330 0.00449562
N 19.80300253 3.69873246 10.66914902 -0.00025990 0.00393428 -0.00105199
N 18.78385489 6.03493235 15.44052021 -0.00461637 0.00196622 0.00107687
N 21.62184001 1.43541201 16.94895794 -0.00351852 -0.00753768 -0.00042000
N 20.48778761 8.25586144 12.21529676 -0.00184944 -0.00063653 0.00029629
N 18.54401157 5.69014548 19.24647454 -0.00317310 0.00785341 0.00146001
N 20.12191711 4.24297647 23.95567084 0.00112858 0.00477849 0.00008205
N 20.64858946 8.91995042 26.24535384 -0.00194762 0.00152010 0.00275768
N 21.80548843 0.55944954 21.75146276 -0.00274533 0.00124702 -0.00787988
N 19.69685964 3.70704300 19.62721946 0.00023781 -0.00266964 0.00066528
N 18.84840586 6.15929034 24.28999909 -0.00399660 0.00022955 -0.00317482
N 21.77784192 1.15317420 25.55985915 -0.00139005 -0.00034043 -0.00359496
N 20.55516706 8.25526717 21.07317091 -0.00092185 -0.00449468 0.00192915
N 18.47485438 15.27643785 1.18871124 -0.00484965 -0.00022878 -0.00573831
N 20.07501368 13.82914538 5.73079683 0.00027740 -0.00361115 -0.00624924
N 20.47831445 18.54989021 7.60953020 -0.00277615 -0.00009464 0.00352183
N 21.50702581 10.31012182 3.40875520 0.00342218 -0.00365310 0.00531142
N 19.80309747 13.30053309 1.57493616 0.00411918 0.00319229 -0.00136319
N 18.82087975 15.68389121 6.30185012 0.00377679 -0.00021497 -0.00087646
N 21.84557051 10.84143631 7.33806520 -0.00326899 -0.00306451 -0.00307768
N 20.77392339 17.77538935 2.89238933 0.00328609 0.00158142 -0.00549029
N 18.54650688 15.18205104 10.36403325 -0.00082462 0.00048170 0.00434179
N 20.25459831 13.66378700 14.99794029 0.00170002 0.00301027 0.00545178
N 20.65810769 18.61837238 16.79025701 -0.00150737 0.00095512 -0.00385852
N 21.86146420 10.25277418 12.29685571 0.00233886 0.00124924 -0.00215084
N 19.63722979 13.08964411 10.57424120 0.00270904 -0.00444912 0.00291789
N 19.11617218 15.65456067 15.25033648 0.00329842 -0.00492333 0.00146612
N 21.76744555 10.85438388 16.54841401 0.00483499 0.00470237 -0.00149407
N 20.69186975 17.99719402 12.14467119 -0.00169360 -0.00273425 0.00945494
N 18.71344089 15.16537528 19.40792940 0.00125001 -0.00788940 -0.00416486
N 20.03054333 13.81541652 23.69603109 -0.00169808 0.00507223 0.00043947
N 20.15015328 18.51498621 26.20989814 0.00514538 -0.00038265 -0.00580888
N 21.82773322 10.14474283 21.53445277 -0.00075680 -0.00728638 0.00032203
N 19.74129721 13.05481135 19.64398596 0.00031059 -0.00283771 0.00253036
N 18.97006488 15.80329630 23.86247481 -0.00003433 0.00121290 -0.00082893
N 21.39682391 11.11533308 25.83808182 -0.00306112 -0.00622346 0.00195553
N 20.95733562 18.07855410 21.13070032 -0.00133210 0.00080202 0.00087253
N 18.53676862 24.58456908 1.43522180 -0.00010267 0.00061291 0.00000768
N 20.06910763 23.39729015 5.72595938 0.00376425 -0.00051785 -0.00703531
N 20.36622675 28.37095583 8.06217460 -0.00593422 -0.00039375 -0.00123193
N 21.94688445 19.74673478 3.18475703 -0.00227586 -0.00183694 0.00214279
N 19.70700694 22.59121973 1.52792984 0.00328505 0.00005393 -0.00082266
N 18.68283065 25.21595040 6.18312380 0.00216607 0.00084913 -0.00436647