1728
Time=34000.00000001 pbc="T T T" Lattice="22.22710063 0.00000000 0.00000000 0.00000000 28.75212663 0.00000000 0.00000000 0.00000000 27.32829986" energy=-10392.02118993 virial="12.00706737 3.83176597 -1.36380474 3.83176597 -20.33804431 -2.31507965 -1.36380474 -2.31507965 15.52711694" stress="0.00302986 0.00022323 -0.00017242 0.00022323 0.00143271 -0.00024702 -0.00017242 -0.00024702 0.00383003" Properties=species:S:1:pos:R:3:vel:R:3
N 0.17085991 5.68339715 0.71750095 -0.00176392 -0.00211173 -0.00697313
N 1.30038525 4.40581636 5.60862653 0.00462893 -0.00769636 -0.00285742
N 1.77980385 9.41839886 7.88836157 -0.00356438 -0.00040319 0.00155200
N 3.35169120 0.87499278 3.20578620 0.00336338 -0.00448415 0.00209197
N 1.28521860 3.73288430 1.36900303 0.00573960 -0.00641467 -0.00177198
N 0.08360369 6.22752892 5.96723021 -0.00056837 -0.00151687 0.00227877
N 3.60584043 1.35821899 7.28823067 -0.00152993 0.00530294 0.00022763
N 2.21938187 8.64394979 3.08331689 0.00356893 0.01415366 0.00063677
N 0.21775047 5.56011115 10.07244176 0.00557407 0.00198551 0.00211952
N 1.80117004 4.23465525 14.91878382 0.00080336 -0.00445927 0.00251898
N 2.19462760 9.02732669 16.88438628 0.00188408 -0.00838867 -0.00302364
N 3.93424632 0.70895981 11.98447694 0.00080462 -0.00466093 0.00024461
N 1.58866179 3.76233418 10.56097668 -0.00029003 -0.00183207 0.00378747
N 0.41189099 6.10315658 14.95556673 0.00170959 -0.00443462 0.00524069
N 3.35739635 1.18862263 16.43397548 -0.00201014 -0.00273225 0.00564405
N 2.16782593 8.45644735 12.20091981 0.00094808 -0.00211244 0.00255317
N 0.25156672 5.29149044 19.31136066 -0.00067056 0.00297213 -0.00619931
N 1.70199483 3.71113128 23.37411335 -0.00764181 0.00073971 -0.00357192
N 2.17215840 8.60215904 25.88809159 -0.00482058 0.00401846 -0.00444112
N 3.52659777 0.60198898 21.72815213 0.00316610 0.00106889 -0.00064916
N 1.40793256 3.30203415 19.43201151 -0.00131451 -0.00426053 0.00271025
N 0.75725928 5.68806005 23.92146332 0.00925544 -0.00257749 -0.00119078
N 3.56237633 1.02404625 25.73677710 -0.00655278 0.00234048 -0.00254291
N 2.40341370 8.63392277 20.84594680 0.00630593 -0.00049997 -0.00165295
N 0.21944306 14.90857778 1.08988022 0.00784680 -0.00426714 -0.00028263
N 1.49694233 14.09542685 5.79356229 -0.00026467 -0.00071991 -0.00223449
N 2.16111828 18.53283607 7.79654501 -0.00275865 -0.00066747 0.00007352
N 3.53475705 10.51476935 3.26693712 0.00540188 -0.00549372 -0.00535146
N 1.56807373 12.97503210 0.92974219 -0.00262685 0.00781592 0.00328109
N 0.18136143 16.04212979 5.97945924 0.00012881 -0.00044395 -0.00314390
N 3.10806218 11.34632441 7.56664183 0.00640403 -0.00332507 0.00726545
N 2.37240049 17.84729927 3.07869145 -0.00518397 0.00124111 0.00202231
N 0.04690696 15.15122092 10.37343652 -0.00026395 -0.00065876 0.00078581
N 1.54072879 13.90315025 14.95751188 -0.00758734 -0.01006798 0.00062664
N 1.64061252 18.51215311 17.19227440 -0.00049355 -0.00176525 0.00378331
N 3.57102927 10.31847127 12.36420604 -0.00242058 -0.00513875 -0.00311349
N 1.46549230 13.27434557 10.62845187 -0.00526510 -0.00434607 -0.00580400
N 0.04563125 15.58066790 14.83985794 0.00809968 0.00883122 0.00056347
N 3.45043299 10.99882230 16.70433072 0.00350563 -0.00313776 -0.00079706
N 2.26231843 18.27810037 12.37579266 0.00106966 0.00845642 -0.00687401
N 0.04431254 15.05100719 19.31154289 0.00040996 -0.00292586 0.00525925
N 1.61600837 13.49045898 23.75907841 -0.00221007 0.00116910 -0.00106129
N 1.76844765 18.50032698 26.03555779 -0.00206725 -0.00694849 0.00084886
N 3.58529375 10.37871457 21.63564963 0.00232494 -0.00052592 -0.00808206
N 1.36214463 13.16690433 19.67451861 -0.00059075 -0.00491999 -0.00122278
N 0.60288957 15.51898302 23.87708125 -0.00561723 -0.00226781 0.00440798
N 3.59332551 10.51124048 25.92111598 -0.00058778 0.00327207 0.00649223
N 2.31083255 17.80401328 21.14857947 -0.00551524 -0.00371376 0.00986630
N 0.24084923 24.45256968 1.04402820 -0.00329798 0.00871010 0.00503267
N 1.57659689 23.42277391 5.64167597 0.00491283 -0.00063502 -0.00322128
N 2.26012251 28.25553592 7.75993832 0.00101463 0.00179825 0.00125857
N 3.60889203 19.84671386 3.32628431 -0.00055610 -0.00632380 -0.00274696
N 1.63431371 22.73011020 1.33517048 0.00082830 -0.00277625 0.00057792
N 0.26035007 25.30800042 6.17871914 -0.00267771 -0.00080764 0.00219976
N 3.17458321 20.51501420 8.00392775 -0.00189654 -0.00921400 -0.00404806
N 2.51860011 27.40031573 2.96894612 -0.00085444 -0.00182136 -0.00153125
N 0.37212362 24.58492979 10.31238097 -0.00082246 0.00876564 0.00154022
N 1.79457232 23.48342438 14.89413882 -0.00251645 0.00101926 0.00665086
N 2.03046055 28.14209030 16.86716178 -0.00244098 0.00208846 0.00327668
N 3.29069271 20.14777313 13.22150471 -0.00442696 0.00256810 0.01006326
N 1.45699926 22.57814904 10.74886904 0.00431416 -0.00094403 -0.00198577
N 0.54251605 25.45487562 14.92113871 0.00135032 0.00162026 -0.00290447
N 3.05463484 20.22573149 16.54569458 -0.00001131 0.00361227 0.00202775
N 2.35339654 27.72092925 12.08333385 0.00556618 0.00650135 0.00152198
N 0.06346327 24.62622373 19.15594453 0.00253380 -0.00612479 0.00520965
N 1.64635000 23.30621050 23.84117070 0.00868609 -0.00522229 0.00178496
N 2.17409193 28.00923784 26.11062424 0.00377708 -0.00507002 0.00115671
N 3.55071770 19.68593847 21.62083901 -0.00090463 0.00169987 0.00210673
N 0.87913137 22.47177853 19.64426772 -0.01052401 0.00032094 0.00479016
N 0.43160102 25.14554900 24.20548607 -0.00460822 -0.00890858 0.00452947
N 3.23606870 20.29805345 25.87007093 -0.00704593 0.00177959 -0.00307211
N 2.20105570 27.56833010 21.16914103 -0.00011303 -0.00400972 0.00018522
N 3.92116484 5.74726334 1.09101902 0.00115436 -0.00136342 -0.00380903
N 5.19946189 4.35119863 5.50309441 -0.00503039 0.00119697 0.01206974
N 5.41228745 9.09255671 7.62457437 0.00368230 -0.00236549 -0.00243002
N 7.08450025 0.60379515 3.70065175 -0.00021393 0.00166549 0.00354648
N 5.05463024 3.78813639 1.35028825 0.00007798 -0.00032386 0.00049519
N 3.81644958 6.12143939 6.00843217 0.00337680 0.00053440 0.00312392
N 7.20267569 1.17455818 7.17933652 0.00349102 0.00361295 0.00275891
N 5.55155125 8.44951270 2.95573321 0.00361512 -0.00026507 0.00028979
N 3.85164935 5.62659064 10.20304336 0.00179771 0.00146116 0.00018512
N 4.84241698 3.83371333 14.59375553 0.00012487 -0.00328836 -0.00275202
N 5.68818824 9.02384385 16.81098359 -0.00309060 0.00543329 -0.00468293
N 7.65835133 0.66987701 12.31746785 0.00232534 -0.00060511 0.00916871
N 5.01908829 3.56618833 10.35583237 -0.00144751 0.00368634 0.00017233
N 4.14885527 6.05690555 14.85169758 -0.00568422 0.00103719 0.00122824
N 7.14964761 1.37946254 16.60814728 0.00617277 0.00493439 -0.00033647
N 5.92324952 8.55225671 12.01631514 -0.00085455 -0.00014922 0.00008462
N 4.02429674 5.39148808 19.26489470 -0.00332886 -0.00391242 -0.00185517
N 5.54665979 4.16984093 23.88791341 -0.00627494 -0.00617420 -0.00944411
N 5.83280473 8.90782304 26.06545700 -0.00173366 0.00067990 -0.00530201
N 6.92341055 0.48090827 21.52540815 0.00519037 -0.00309831 -0.00083630
N 5.13599252 3.42996371 19.56041084 -0.00161696 -0.00128443 0.00371755
N 4.12455901 6.07073567 24.20833108 0.00375796 0.00358341 -0.00392121
N 7.08538752 0.96240031 25.93087032 0.00146603 0.00099302 -0.00017894
N 5.77909667 8.57362150 21.42082541 -0.00563107 0.00198327 -0.00231310
N 3.97955703 15.02283446 0.82525289 -0.00151659 -0.00256972 -0.00106970
N 5.21793216 13.64917922 5.35691264 0.00424218 0.01260600 0.00591579
N 5.58291559 18.74123991 8.15424603 -0.00825879 -0.00709874 0.00414407
N 7.19774621 10.16631179 3.03668424 -0.00392477 -0.00051935 0.00037606
N 5.17849464 13.12319724 1.16312388 0.00477907 -0.00014046 -0.00652029
N 4.15316572 15.55825582 5.92929155 -0.00503501 0.00025912 0.00021934
N 6.89193542 10.88110277 7.48362482 0.00057294 0.00373724 0.00105164
N 6.01640883 17.85885407 3.05606193 0.00306253 0.00318476 -0.00121049
N 3.57801791 15.27634065 10.29165578 -0.00242820 -0.00348879 0.00006909
N 5.31710154 13.75238957 14.72964049 0.00386948 0.00353155 0.00359341
N 5.63496926 18.31156053 17.28752151 -0.00087295 -0.00497554 -0.00078520
N 7.02307197 10.54933458 12.46985958 -0.00257528 -0.00048676 0.00114723
N 4.95027260 13.50465360 10.63242765 -0.00245273 -0.00091984 -0.00518968
N 3.99169877 15.49580889 15.35478632 0.00247408 0.00183587 -0.00556170
N 7.35469450 10.71578086 16.81947062 0.00436970 0.00056518 0.00362494
N 5.79118714 18.08364230 12.55468897 0.00149018 0.00115638 -0.00081977
N 3.84806486 14.83132369 19.23707028 0.00200052 0.00609999 -0.00269160
N 5.56530952 13.71953653 23.64602504 -0.00765506 0.00203105 0.00434744
N 5.76561228 18.37933447 25.99812902 0.00004459 -0.00160304 -0.00496298
N 7.37117126 10.27147580 21.38239034 -0.00189298 0.00535679 -0.00347854
N 5.08705111 12.85905855 19.47651621 -0.00283218 -0.00371913 0.00752602
N 4.14467498 15.52108254 24.04354261 -0.00021819 -0.00417100 -0.00083826
N 7.12448596 10.81080368 25.60676790 -0.00149817 0.01242508 0.00340535
N 5.97374947 17.59928698 21.47524327 0.00525302 -0.00077360 0.00179560
N 3.85324908 24.56859048 1.37160330 -0.00075219 -0.00562910 -0.00090960
N 5.13015856 23.30613916 5.93897701 -0.00074351 -0.00314005 0.00113336
N 5.81595461 28.19772071 8.04211202 0.00525615 -0.00302266 -0.00389763
N 7.21944932 19.88210391 3.28247487 -0.00169134 -0.00235884 -0.00161645
N 5.29758013 22.67789733 1.59241295 0.00148824 0.00275505 -0.00054282
N 3.96112907 25.30662128 6.20106270 -0.00652540 0.00856886 -0.00008210
N 6.95722424 20.54681292 8.24334250 0.00591129 0.00129999 0.00270918
N 6.19043720 27.28920516 3.13849805 -0.00182329 -0.00436908 -0.00264939
N 4.00829417 24.81510360 10.53694444 -0.00160037 0.00283734 -0.00430378
N 5.57234945 23.53089594 14.76917521 -0.01407491 -0.00205496 -0.00095934
N 5.80488795 28.26306414 16.81681768 -0.00394475 -0.00343810 -0.00097788
N 7.20848888 19.86205091 12.72278600 0.00163449 0.00230405 0.00004506
N 5.30374937 22.89542177 10.74179651 -0.00130689 0.00165183 -0.00330567
N 4.16719183 25.32476017 14.76568788 -0.00793914 0.00024989 0.00254217
N 6.78942523 20.09849032 16.53260608 0.00334162 -0.00288203 0.00329616
N 6.28149287 27.62078245 11.98774153 0.00664938 0.00128907 0.00270171
N 3.61786450 24.27386876 19.42275182 -0.00257298 -0.00143711 -0.00310763
N 5.55186575 22.94705115 23.86448704 0.00456524 0.00064914 -0.00118737
N 5.94555466 27.66253600 26.11225795 0.00813934 -0.00490665 -0.00797515
N 7.31247376 19.39382287 21.57821179 0.00443445 0.00158595 -0.00290838
N 4.97555085 22.46549673 19.65079868 0.00134303 -0.00146787 -0.00011126
N 4.07333647 24.79127140 24.13148272 -0.00244320 -0.00673043 -0.00278934
N 7.10930272 20.17716562 25.92326062 -0.00037528 0.00875208 0.00496122
N 5.87249005 27.20921451 21.30109241 -0.00422359 0.00118755 0.01129896
N 7.80882679 5.47714630 1.02095820 0.00033241 -0.01100435 0.00526900
N 9.04162815 4.10209651 5.36236620 0.00488899 -0.00144218 0.00107633
N 9.35647611 9.19420481 7.88763497 -0.00570796 -0.00018742 -0.00448743
N 10.62539041 0.71333101 3.41210538 -0.00383236 -0.00253999 -0.00009756
N 8.93955151 3.38806408 1.21028915 -0.00258493 -0.00223289 0.00456119
N 8.19327408 6.23164984 5.94260389 0.00507226 -0.00361574 -0.00610357
N 10.68074439 1.07967982 7.78362799 -0.00365414 0.00671635 -0.00774778
N 9.42084308 8.48212305 2.99174567 -0.00366633 -0.00289263 -0.00461438
N 8.02350398 5.61275913 10.06799653 0.00366668 0.00220793 -0.00414642
N 9.08186805 4.41255700 14.77329618 0.00072742 -0.00166264 -0.00139372
N 9.64110901 8.86663838 17.11822750 -0.00563712 0.00125944 -0.00172609
N 10.91055822 0.76799614 12.23268518 0.00085980 -0.00127130 -0.00385130
N 9.07612480 3.49852481 10.09066906 0.00079097 0.00733872 0.00587329
N 7.80723824 6.40375969 15.12735467 -0.00295279 -0.00338038 -0.00187861
N 10.55708610 1.17471238 16.81989497 -0.00004635 0.00148354 -0.00495911
N 9.66899498 8.43526968 12.37756626 -0.00375882 -0.00247010 -0.00801445
N 7.64943013 5.58938192 19.48599449 -0.00255268 0.00558388 0.00560479
N 8.88964169 4.04365637 24.03745172 -0.00094186 -0.00140714 -0.00292547
N 9.58053055 8.55416117 26.12579309 0.00281547 -0.00174204 0.01000409
N 10.91744412 0.75826431 21.62936226 -0.00214222 0.00376597 -0.00134413
N 8.85837831 3.68098956 19.70264554 0.00256723 -0.00632544 0.00165104
N 7.62450635 5.96022147 24.35242237 0.00278027 -0.00364616 0.00048865
N 10.86658929 1.00639222 25.68922233 -0.00592729 0.00125603 -0.00247085
N 9.67094514 8.30127580 21.09206848 -0.00003106 0.00006488 -0.00275050
N 7.89397347 14.67338852 1.41693061 0.00155494 -0.00179350 -0.00355314
N 9.11737116 13.71471492 6.04193601 -0.00928748 -0.00306924 0.00763372
N 9.95387609 18.23921590 8.31680683 0.00761292 -0.00220169 -0.00038288
N 10.98467004 10.16830194 3.75282219 0.00388891 0.00165607 -0.00275433
N 9.02013420 12.73129862 1.34375737 -0.00212423 0.00264244 0.00281479
N 7.69958601 15.51950065 6.21020060 0.00041072 -0.00313002 0.00529770
N 10.66792790 11.11094288 7.78171037 -0.00144722 0.00859145 0.00072656
N 9.76290802 17.79149530 3.43783012 -0.00318479 -0.00424368 0.00394285
N 7.37839918 15.50452723 10.39034826 0.00839524 0.00109906 0.00247385
N 8.91108817 13.74462539 14.67042026 0.00439827 -0.00333530 0.00061107
N 9.40364394 18.45820410 17.40401523 0.00302337 0.00269589 0.00229736
N 10.72278797 10.47919313 12.48462042 0.00136395 -0.00401948 -0.00553663
N 8.37619191 13.40366470 10.59789584 0.00108605 -0.00259596 -0.00170752
N 7.83025715 15.57755764 15.27386805 0.00430447 -0.00232784 0.00158123
N 10.71985553 10.76887459 16.65679246 0.00216687 0.00460620 -0.00536342
N 9.74692784 17.99108987 12.35529890 0.00158496 -0.00149483 0.00444892
N 7.62850358 14.82968583 19.49449001 -0.00247558 -0.00235984 -0.00031789
N 9.44297047 13.48123864 23.78059675 0.00224219 -0.00432604 -0.00140049
N 9.55048672 18.28427501 26.30591356 -0.00037097 0.00230567 -0.00148433
N 10.48499296 10.38364578 21.60768724 0.00269426 -0.00252744 0.00181953
N 9.11731850 13.04606558 19.46768260 -0.00321554 -0.00409315 0.00260726
N 8.12191766 15.22507400 24.38646967 -0.00771877 -0.00163180 0.00311926
N 10.82255436 10.49156814 25.70138051 0.00764665 0.00539023 -0.00396978
N 9.94574167 17.74864870 21.69475682 0.00206716 -0.00206078 0.00159237
N 7.49299476 24.38146359 1.36647745 0.00430773 0.00501557 -0.00023050
N 8.83533646 23.18831152 5.65994056 0.00232315 -0.00125321 -0.00208483
N 9.20129490 28.04024795 7.80075839 0.00164039 0.00220527 0.00041327
N 10.99629442 19.77890651 3.41846444 0.00379982 -0.00334389 0.00370592
N 8.86277172 22.45353619 1.60380661 0.00215837 0.00233670 0.00791561
N 7.76781445 25.24638963 6.04059864 0.00358193 -0.00000496 0.00000627
N 10.87730101 20.26185091 7.88605461 -0.00500439 0.00213180 0.00411877
N 9.39641539 27.51326404 3.09364904 0.00627472 0.00025449 -0.00407814
N 7.75077040 24.87920209 10.21520175 -0.00390850 0.00009493 -0.00025207
N 9.06720282 23.40933120 14.85606269 -0.00012398 -0.00258143 -0.00436708
N 9.54632544 27.87221582 17.27833408 -0.00061224 -0.00200115 -0.00059101
N 11.07818004 19.82305177 12.88624551 -0.00395079 -0.00466383 -0.00141943
N 8.90946763 22.93410653 10.65640719 -0.00211196 -0.00715728 0.00207295
N 7.98034176 25.52275729 14.95952314 0.00062358 0.00817326 0.00038664
N 10.44431205 20.45109119 16.98413523 -0.00485572 0.00199571 -0.00111737
N 9.89679501 27.59181228 11.91472623 0.00114848 -0.00203422 -0.00003351
N 7.50401422 24.59771967 19.39595524 0.00814663 -0.00481644 -0.00419377
N 9.40763666 23.24104234 24.16933762 0.00486163 0.00056445 0.00255710
N 9.69266111 27.90075227 26.00577304 0.00148136 0.00025113 0.00301998
N 11.03832310 19.72903091 21.96749579 0.00233082 -0.00217976 -0.00115341
N 8.82179681 22.75533130 19.82137020 0.00704523 -0.00271556 -0.00436326
N 7.81038685 24.88701564 24.51828259 0.00162904 0.00182615 0.00511257
N 10.87193452 20.14026444 26.05951615 -0.00557883 -0.00264905 -0.00044055
N 9.51174969 27.63718186 21.66231522 0.00913114 -0.00483839 0.00764013
N 11.23436876 5.52481707 0.88989374 0.00098182 0.00521249 0.00123842
N 12.85685122 3.87340415 5.24571313 -0.00653619 0.00315812 -0.00222623
N 13.59139982 8.63263763 8.06103439 0.00134728 0.00653015 -0.00332252
N 14.61053454 0.58833541 3.41197489 -0.00558047 -0.00183319 0.00075711
N 12.47091048 3.59189754 1.53627865 -0.00394168 -0.00641836 -0.00315144
N 11.82354459 5.85122166 5.82947140 0.00069819 -0.00096809 0.00537816
N 14.29531815 1.19269410 7.52021365 -0.00696845 0.00751470 -0.00173055
N 13.04203678 8.15342065 2.91754521 -0.00351959 0.00481939 0.00239178
N 11.38033650 5.73714484 10.18259284 -0.00166181 -0.00022755 -0.00690353
N 12.75942993 4.19116818 14.64455047 -0.00205239 0.00116266 -0.00168600
N 13.38086257 8.84310085 17.12494399 0.00290603 -0.00310060 0.00108488
N 14.10634468 0.98079898 12.58293250 0.00301895 0.00300189 0.00534030
N 12.30349775 3.69097225 10.42860567 -0.00247309 0.00139165 0.00233733
N 11.41954772 5.97702364 15.23349134 -0.00471958 -0.00145519 0.00448203
N 14.45283726 1.27836304 16.78193223 -0.00200290 -0.00424435 -0.00292936
N 13.27142092 8.33922033 12.35481674 0.00099876 0.00178824 0.00369077
N 11.35749386 5.38923787 19.37037505 -0.00623484 0.00678285 0.00487309
N 12.72502899 4.08862434 24.03201442 -0.00187202 -0.00344970 -0.00126576
N 13.49241832 8.77394238 26.09635969 -0.00277850 -0.00553167 -0.00092904
N 14.44542733 0.76465806 21.93059399 0.00201190 -0.00157508 0.00570753
N 12.29290321 3.34182401 19.82630791 0.00035442 0.00247168 -0.00000941
N 11.31420809 5.98392694 24.06875923 -0.00232547 -0.00580044 0.00217514
N 14.49129513 1.20954091 26.30823916 -0.00023513 -0.00029768 -0.00248418
N 13.19434253 8.32462086 21.64057668 -0.00193940 0.00006227 0.00518144
N 11.33454744 14.74110682 1.28155672 -0.00794318 -0.00358995 0.00088324
N 13.04173017 13.63014939 5.90064045 0.00479252 0.00102661 -0.00491930
N 13.09560210 18.40690782 7.73899424 -0.00125964 -0.00160898 -0.00023696
N 14.22774470 10.09712758 3.45819139 -0.00022868 -0.00029080 0.00286482
N 12.64565903 12.78290345 1.43257905 0.00164915 -0.00744193 0.00057944
N 11.58605792 15.28164505 6.03171763 -0.00321367 -0.00140519 0.00383094
N 14.13344508 10.84221817 7.71881354 0.00170349 0.00096771 -0.01115412
N 13.55103418 17.97904123 2.89601693 -0.00311380 0.00404305 -0.00051899
N 11.35118103 14.85588943 10.45807816 -0.00111728 -0.00634812 0.00119079
N 12.89425776 13.64057592 14.87590364 0.00560761 -0.00799066 -0.00159766
N 13.00186498 18.63708419 17.14437631 -0.00003900 0.00268814 0.00056704
N 14.56590034 10.17886748 12.72869407 -0.00270615 0.00455343 -0.00003743
N 12.53994931 12.93394852 10.69341407 0.00356163 -0.00294787 -0.00052527
N 11.49883214 15.48916499 15.22544279 0.00062158 0.00766894 0.00685415
N 14.56361293 10.78942221 16.86804310 0.00181192 0.00257448 -0.00180293
N 13.48701328 17.99204287 12.27248534 -0.00349997 -0.00282777 -0.00065471
N 11.45305735 14.90928052 19.44807650 0.00810866 -0.00564010 0.00381594
N 12.68772532 13.69735201 23.97029295 -0.00048360 0.00362691 -0.00616182
N 13.65762365 18.27985657 26.24274348 0.00517532 -0.00722420 0.00299665
N 14.63640072 10.14684955 21.53989301 0.00202113 0.00492688 0.00356973
N 12.61800399 13.01376387 19.84796804 0.00060042 -0.00044873 -0.00063720
N 11.57328029 15.69888193 24.49972040 -0.00106426 -0.00250040 0.00292688
N 14.73210577 10.72151655 25.70024428 -0.00263189 -0.00006972 -0.00164722
N 13.35206458 18.21842928 21.40748943 -0.00336755 0.00132459 -0.00195609
N 11.32869118 24.80105431 1.06121136 -0.00101985 0.00239715 -0.00682937
N 12.85166774 23.07815868 5.77481423 0.00218431 -0.00420413 0.00990326
N 12.83640180 28.05364170 8.06922833 0.00061738 -0.00194304 0.00310855
N 14.25246889 20.22407094 3.29228315 -0.00810283 0.00215259 0.00227818
N 12.80306575 23.00305485 1.37246914 0.00084834 0.00204793 0.00437020
N 11.35363235 24.89554630 6.02443219 0.00173864 -0.00097966 0.00531355
N 14.48527108 20.18436483 7.49762211 0.00092965 0.00129077 0.00045054
N 13.42301660 27.40338982 3.16152174 -0.00000173 -0.00289700 -0.00155499
N 11.30666458 24.35725448 10.14188979 0.00151148 0.00774480 -0.00252345
N 13.21410063 23.28562450 14.66023049 -0.00096974 0.00176679 -0.00601180
N 13.02101875 28.25666139 16.94379418 0.00693335 -0.00939072 -0.00277919
N 14.77547378 19.89667989 12.19831532 -0.00086664 0.00310461 0.00061514
N 12.66556115 22.57460115 10.50238748 -0.00329315 -0.00408821 -0.00029067
N 11.83093386 24.99677239 15.29606476 -0.00253194 -0.00361663 0.00063918
N 14.46582130 20.29443703 16.34385989 0.00618381 0.00911945 0.00160561
N 13.44237227 27.55524712 12.15611356 0.00323292 0.00566483 -0.00291364
N 11.02118585 24.46027477 19.58112561 -0.00156277 0.00361764 -0.00464009
N 12.44939274 22.97356406 23.94395137 0.00364020 0.00016574 0.00795059
N 13.40796062 27.86995396 26.44670853 0.00357078 -0.00469670 -0.00526017
N 14.66984021 20.05401963 21.59453203 -0.00272257 -0.00113706 0.00423346
N 12.54998207 22.79271238 19.83329812 -0.00204747 -0.00015932 0.00465025
N 11.65722676 24.99341053 24.28127343 0.00481798 0.00584498 -0.00449295
N 14.36772029 20.42335618 25.67521995 0.00460095 0.00309775 -0.00148511
N 13.28046306 27.62002537 21.16119246 0.00598870 0.00807749 -0.00608328
N 15.05087886 5.19280994 0.93122244 -0.00044754 -0.00373816 0.00150989
N 16.48302967 3.93522125 5.86504536 -0.00235979 -0.00442688 -0.00164998
N 16.72458702 8.83401232 7.96353311 0.00457767 -0.00286285 0.00173183
N 18.40008903 0.42665837 3.55756279 0.00010994 -0.00106504 -0.00013743
N 16.25539281 3.30817125 1.37348865 -0.00007912 0.00521395 0.00728171
N 14.91954701 5.69329919 5.89718781 -0.00454686 -0.00452488 -0.00084741
N 18.07187893 1.13288031 7.93607022 0.00086426 0.00539309 0.00198345
N 16.86146237 8.46514309 2.96947222 0.00436282 0.00231786 -0.00345673
N 15.00372086 5.42441987 10.42688204 -0.01103104 0.00198040 0.00182595
N 16.80585590 4.06109366 15.03682671 0.00914412 -0.00287863 0.00240553
N 17.06673177 9.02051732 17.45947797 0.00057035 -0.00009724 0.00041653
N 18.47403491 0.93970352 12.70757834 0.00444265 0.00174749 0.00048896
N 16.49312051 3.72838271 10.68986163 -0.00262578 -0.00005350 -0.00783402
N 15.31252874 5.75532186 15.33329404 -0.00486023 0.00170422 -0.00140572
N 18.20714518 1.23101025 16.83183457 0.00141053 0.00255704 -0.00244803
N 17.25857095 8.37327405 12.42647568 -0.00666861 -0.00216204 0.00409825
N 14.95081971 5.29946097 19.46640019 0.00505397 0.00590235 0.00404885
N 16.53971453 4.10159699 23.88399668 -0.00143862 -0.00207145 -0.00270154
N 17.08303857 8.45840317 26.64336167 -0.00121605 0.00072490 -0.00023431
N 18.50083664 0.42228944 21.58506955 -0.00348831 -0.00206711 -0.00018480
N 16.35736063 3.48961767 19.63754673 -0.00446316 -0.00307436 -0.00022637
N 15.11743365 5.89873576 24.34445297 -0.00709904 0.00127064 -0.00319015
N 18.34756510 1.32043705 25.99679816 -0.00386449 -0.00102335 0.00030987
N 17.12718073 8.21830996 21.59163323 -0.00419984 0.00645924 0.00164348
N 14.84233034 15.11196981 1.35960143 -0.00091610 -0.00245609 -0.00625141
N 16.22208184 13.86844182 5.78841077 -0.00294765 0.00243530 -0.00199810
N 16.97617071 18.61234633 7.92374071 -0.00566146 -0.00203818 -0.00211680
N 18.00155898 10.40469281 3.52503080 0.00336782 0.00394420 0.00016844
N 16.19889277 13.23111155 1.44569825 -0.00785690 0.00577112 -0.00142406
N 15.20328157 15.91570663 6.08687693 0.00364296 0.00272295 -0.00323061
N 18.06186322 10.69953356 7.88849930 -0.00544085 0.00573873 0.00503320
N 17.19525422 18.02857915 3.25537856 0.00147363 -0.00195083 0.00017856
N 15.41121898 15.15189370 10.39893685 0.00402817 -0.00222187 -0.00408002
N 16.25423527 13.65124010 15.10685463 -0.00167404 -0.00548576 -0.00061735
N 16.73884074 18.49083214 17.29267237 -0.00348506 -0.00020993 0.00284344
N 18.44270015 10.33391870 12.64449380 0.00001253 -0.00074023 0.00057404
N 16.17159892 12.94059434 10.61554887 0.00260714 0.00029271 0.00145360
N 15.06961243 15.61278220 15.41165989 0.00122067 0.00816098 0.00306530
N 18.33884909 10.91267047 17.01014228 -0.00534649 -0.00408588 -0.00463830
N 17.24156539 17.98474025 12.41997288 0.00868841 -0.00244012 0.00558884
N 14.76804429 15.13879320 19.62460065 0.00395635 -0.00079960 0.00480923
N 16.14177273 13.72726424 24.09508302 -0.00347302 0.00264679 -0.00180435
N 16.87946657 18.39915850 26.37763126 0.00086731 -0.00009885 -0.00008631
N 18.38670868 10.13932496 21.95543286 -0.00179928 -0.00286106 0.00401572
N 15.78292904 13.05599235 20.00244367 -0.00540504 -0.00109556 -0.00135930
N 15.12674551 15.74985850 24.35417450 0.00141499 0.00129974 0.00384653
N 17.93566614 10.57866040 26.17361911 -0.00280767 -0.00069414 0.00972360
N 17.19310854 17.87747335 21.26976775 0.00139317 -0.00514973 0.00382832
N 15.11908545 24.76319804 1.15780100 -0.00176655 -0.00324967 0.00406997
N 16.32944863 23.29469649 5.82700598 -0.00341239 0.01061162 -0.00454312
N 16.54872586 28.13844966 8.32153064 0.00553637 -0.00031343 0.00102980
N 18.34957962 19.96643835 3.49913695 -0.00065648 0.00194386 -0.00110458
N 16.15728856 22.84081122 1.62615235 0.00196052 0.00667554 0.00182083
N 14.94052142 25.07930750 6.15210943 0.00523781 -0.00302077 0.00094591
N 18.13426728 20.60008023 7.83329008 -0.00118178 0.00409932 -0.00554871
N 17.17208157 27.33594752 3.06420795 -0.00804546 -0.00107679 -0.00208050
N 14.92966709 24.64585246 10.47965727 0.00057817 0.00142778 0.00509020
N 16.46227777 23.33357999 14.91025274 -0.00050009 0.00373708 -0.00318068
N 16.77092961 28.18959591 16.95007335 -0.00405020 -0.00365221 0.00662100
N 18.30647461 19.93299022 12.65446317 -0.00792378 -0.00122375 0.00069429
N 16.65994486 23.04090345 10.86577195 0.00104525 -0.00160915 0.00519693
N 15.60877736 25.38515310 15.44311178 0.00404743 -0.00494699 -0.00324562
N 18.06257305 20.30342553 16.88106396 0.00125655 -0.00503086 -0.00730975
N 17.40130418 27.68704293 12.26650366 -0.00331107 -0.00259930 -0.00428571
N 14.75492037 24.69123644 19.32660645 0.00097146 -0.00031394 0.00505730
N 16.19475542 23.45264262 24.03516323 -0.00001566 -0.00048197 -0.00146886
N 17.30208404 28.04628546 26.15271061 -0.00554721 0.00612722 0.00090786
N 18.16047553 19.97912882 21.69411021 -0.00580965 0.00801076 -0.00350904
N 16.26416165 22.87426062 19.66864670 -0.00209846 -0.00795379 0.00240793
N 15.04584082 25.38678430 24.31209654 0.00021321 -0.00189731 -0.00156538
N 17.82621612 20.46260494 25.76915096 0.00280733 0.00690578 0.00188982
N 16.84628670 27.66712113 21.65135136 -0.00002143 -0.00353913 -0.00646461
N 18.83371607 5.32247585 1.32882643 0.00147759 0.00549131 0.00827190
N 20.11245316 4.07631742 5.92331884 -0.00329451 -0.00961227 0.00284332
N 20.70550923 8.99093862 7.67033121 0.00738703 0.00297899 0.00650390
N 0.08392438 0.60688034 3.15865758 0.00086253 -0.00779621 0.00010105
N 20.01877351 3.40622602 1.73861535 -0.00027214 -0.00074485 0.00210991
N 18.82797000 6.11313616 6.09582285 -0.00714164 -0.00346229 0.00423365
N 21.95301243 1.52691024 7.55544836 -0.00964312 0.00382114 0.00359359
N 20.67795770 8.15258106 3.59609275 -0.00016557 -0.00144642 0.00418558
N 18.74477352 5.46432971 10.38186964 -0.00832257 0.00335544 0.00231707
N 20.21799473 3.88715577 14.95142276 0.00262618 -0.00244143 0.00286100
N 20.72315803 9.00994731 16.85471130 -0.00131023 -0.00077318 0.00600671
N 22.09644521 0.70173466 12.20357202 0.00335604 0.00080732 0.00213301
N 20.18378537 3.82655851 10.87808416 -0.00009579 0.00099418 0.00497477
N 19.12103138 5.87095628 15.47607457 0.00190415 0.00490184 0.00467313
N 21.89654780 1.29747730 16.59644708 0.00136534 0.00057853 0.00241435
N 20.81087700 8.44058608 12.19197314 -0.00372287 0.00228104 0.00304696
N 18.77010564 5.23754541 19.59179582 0.00720531 0.00424939 -0.00452523
N 20.42191967 4.17921350 24.04700668 0.00053369 -0.00037536 -0.00381994
N 21.15885472 8.82967727 26.11583697 0.00058019 0.00152267 -0.00781182
N 21.93922254 0.42595484 21.55301866 0.00263192 -0.00149842 0.00609734
N 19.95074686 3.29529938 19.91153419 -0.00878808 0.00305202 0.00355974
N 18.94012275 5.92353680 24.33063915 0.00363939 -0.00258895 -0.00738719
N 21.99486394 1.08444485 25.77017993 -0.00139368 0.00360867 0.00106369
N 20.69096242 8.22625316 21.41220143 0.00192551 -0.00119054 0.00665132
N 18.62847650 15.03533491 1.31597785 0.00081676 0.00823917 0.00339704
N 19.73563035 13.58206588 5.51217777 -0.00189946 -0.00353583 0.00465458
N 20.35396211 18.59104668 8.07749093 0.00276567 0.00477375 0.00512513
N 21.77764182 10.14457884 3.07148189 -0.00131564 0.00450919 -0.00121319
N 19.75594830 13.05144337 1.25547286 -0.00500745 0.00322638 -0.00402276
N 18.72138264 15.64375184 6.00358805 -0.00093529 0.00376705 -0.00080233
N 21.70188272 11.06343037 7.42405293 -0.00292258 0.00421356 0.00152410
N 21.03779690 17.87700680 2.85950694 0.00211740 -0.00571171 0.00267566
N 18.59059180 15.00848831 10.34635432 -0.00588427 0.00141974 -0.00179700
N 20.06204600 13.61783002 14.91207933 -0.00053757 -0.00235417 0.00048033
N 20.73361463 18.30625524 17.10917559 -0.00688678 0.00337645 -0.00084505
N 21.85676189 10.47255605 12.44177596 -0.00084721 0.00060475 0.00815689
N 20.06887794 13.27527743 10.49357053 0.00406349 0.00119491 -0.00477796
N 18.64533526 15.35211556 15.48469230 -0.00139616 -0.00325332 0.00049398
N 22.01704428 10.88302699 16.60168449 0.00010995 -0.00088687 0.00628020
N 20.70162704 18.17751233 12.17710509 0.00570022 0.00119951 -0.00629999
N 18.58747793 14.99177641 19.60579873 0.00443764 -0.00233169 -0.00452043
N 19.55300004 13.61904806 24.19151654 0.00246468 -0.00283861 0.00015585
N 20.69348142 18.26097564 26.19738415 0.00713381 -0.00955981 -0.00239424
N 22.11364282 10.14752505 21.39499594 0.00064141 0.00559237 0.00083519
N 19.87200332 13.10051696 19.77686741 -0.00337537 0.00337607 0.00639900
N 18.67580842 15.69717004 24.25779235 0.00768858 0.00331205 0.00172912
N 21.86141182 11.01415877 25.57848763 0.00481826 0.00252284 -0.00844138
N 20.89217450 18.32989296 21.13445283 -0.00057083 -0.00439446 -0.00080270
N 18.89449522 24.71489304 1.27165410 -0.00190092 -0.00203873 0.00075661
N 20.00694409 23.42211266 5.65836201 -0.00729366 -0.00329471 0.00623596
N 20.74908666 28.36061576 7.56075319 0.00549361 -0.00348111 -0.00406804
N 0.00151105 19.85160996 3.15182689 -0.00174718 -0.00512445 0.00338946
N 20.07756613 22.75126555 1.48832539 -0.00276142 0.00683839 -0.00679955
N 18.77737675 25.28668099 6.11538706 0.00252193 -0.00101944 0.00431124