1728
Time=30000.00000001 pbc="T T T" Lattice="22.00779511 0.00000000 0.00000000 0.00000000 28.83947620 0.00000000 0.00000000 0.00000000 27.45793131" energy=-10386.15321708 virial="8.78102332 -5.99507473 7.66891653 -5.99507473 -24.74351061 14.12416295 7.66891653 14.12416295 -0.64149656" stress="0.00269216 -0.00037203 0.00050082 -0.00037203 0.00108740 0.00077666 0.00050082 0.00077666 0.00277503" Properties=species:S:1:pos:R:3:vel:R:3
N 0.18661708 5.57987868 0.95847266 0.00016243 -0.00129179 -0.00218351
N 1.64250835 4.44892152 5.64646210 0.00385937 0.00152347 -0.00406923
N 1.98214187 9.22189201 8.13947345 -0.00320665 -0.00334499 -0.00121113
N 3.45594518 1.00590760 3.25696242 0.00350403 0.00100078 0.00125528
N 1.47387518 3.59055514 1.32853694 0.00174792 0.00178508 0.00157585
N 0.27661002 6.21380448 6.22524745 0.00618418 0.00351386 0.00237104
N 3.07378427 1.09508984 7.38346514 -0.00165725 -0.01047657 -0.00006226
N 2.92536076 8.33299940 2.86122287 0.00207232 0.00057462 0.00468213
N 0.30934201 5.19310992 10.77207087 0.00109697 -0.00206540 -0.00031248
N 1.43753145 3.90599884 14.46911687 -0.00603518 0.00019066 -0.00181019
N 2.20268236 8.45752587 17.80179653 0.00029971 -0.00679322 -0.00351585
N 3.45664597 0.43826886 12.07272656 0.00144624 -0.00146350 -0.00579164
N 1.90090203 3.47656720 10.62299953 -0.00566293 -0.00102770 -0.00355674
N 0.37617874 5.84323122 14.99778659 -0.00084666 0.00033079 0.00046021
N 3.63982721 1.43407828 16.76441287 0.00599244 0.00883392 0.00174672
N 2.30730739 8.31503288 12.14587917 -0.00467164 0.00365955 0.00514643
N 0.42259228 5.36743814 19.59137199 -0.00103413 -0.00297731 -0.00469253
N 1.70370931 4.30128037 24.33519287 -0.00461869 -0.00247838 0.00739288
N 2.24168271 9.03936363 26.35376971 -0.00274143 -0.00261592 -0.00303747
N 3.36167874 0.64923392 21.60813008 0.00201457 0.00449270 0.00506462
N 1.66309500 3.40026759 19.75828106 0.00002566 0.00022463 -0.00501939
N 0.48074154 6.29608511 24.68665237 -0.00189557 -0.00558445 0.00178107
N 3.06169798 1.39296022 25.79564042 0.00450227 -0.00242246 0.00216538
N 2.11489912 8.26176597 21.25563422 -0.00375692 -0.00266604 -0.00234224
N 0.16148574 15.00053339 1.20083084 0.00733412 0.00187136 -0.00441608
N 1.70865150 13.87756658 5.87258746 -0.00091921 -0.00461332 -0.00214772
N 2.08063603 18.24903090 7.93275995 -0.00030770 -0.00005691 0.01080654
N 3.50587360 10.51583591 3.27979280 -0.00277056 0.00382898 0.00317237
N 1.47045800 13.28699389 1.83843735 0.00796903 0.00292365 0.00348530
N 0.18863785 15.57194688 6.27710385 -0.00387488 0.00132747 0.00531729
N 3.32191645 10.97350745 7.62949544 0.00267281 -0.00360630 0.00728960
N 1.75078116 18.13249937 3.12850982 -0.00055222 0.00334276 -0.00025181
N 0.15711035 14.88066266 10.39205120 -0.00528041 0.00265202 0.00065499
N 1.57535352 13.48482352 14.97316900 -0.00002922 -0.00197077 0.00668080
N 1.88034959 18.61142746 17.03122406 -0.00958594 -0.00314544 -0.00241210
N 3.47982346 10.14373703 12.70079598 -0.00654685 0.00111533 -0.00400103
N 1.55989171 13.00947287 10.57227215 -0.00192643 0.00002472 -0.00691023
N 0.27865615 15.38692381 15.19966862 -0.00458931 0.00563625 0.00637752
N 3.26476149 10.37292656 16.93316336 0.00036405 0.00659833 -0.00134407
N 2.05145110 17.97321542 12.16663855 -0.00555001 -0.00251287 0.00211033
N 0.42059219 15.16202012 19.50654068 0.00222567 0.00172738 0.00347396
N 1.58310042 13.67154696 23.95731186 -0.00756752 0.00033633 -0.00164107
N 1.82111545 18.71213584 25.97582630 -0.00345265 -0.00181399 0.00261913
N 3.28363192 10.04389999 22.19450974 -0.00254675 -0.00325215 0.00200739
N 1.23276730 13.00775444 19.91487736 -0.00245414 -0.00657314 -0.00457947
N 0.16639945 15.35025774 24.52326010 -0.00142435 0.00085729 -0.00363104
N 3.30868403 11.02890789 26.03701747 -0.00251537 -0.00910177 0.00149479
N 2.06635413 18.23789316 21.10760782 0.00288076 -0.00001232 -0.00303269
N 0.30763586 24.82416653 0.95018498 0.00497142 -0.00556211 0.00144433
N 1.41794046 23.08243822 5.24317332 0.00617010 0.00420174 0.00458123
N 1.85961026 27.99082490 7.81166676 0.00275318 -0.00098409 -0.00289204
N 3.30053209 19.87176138 3.09966211 0.00570032 -0.00737312 -0.00717156
N 1.58780759 22.88888750 1.20396692 0.00344913 0.00790506 -0.00423874
N 0.54285596 25.09674624 5.82352717 -0.00302689 0.00576641 -0.00364384
N 2.81192417 20.32997102 7.35616628 0.00506956 0.00360463 -0.00294624
N 2.50273730 27.75749806 2.78257480 0.00378393 -0.00063647 -0.00380671
N 0.16102394 24.66219364 9.95733248 0.00602142 0.00125007 -0.00159306
N 1.42809689 23.44353645 14.92631068 0.00150587 -0.00487560 -0.00362449
N 2.11345211 28.48316445 16.74551991 -0.00404550 0.00953419 0.00778253
N 3.39540064 19.81738764 12.65824619 0.00511556 -0.00034457 -0.00353765
N 1.06827403 22.53122033 10.32722092 0.00564629 -0.00200125 -0.00241743
N 0.22251612 25.33759712 14.68259373 0.00056372 0.00315183 0.00601354
N 3.33067753 20.36020392 16.56374124 -0.00144379 0.00188895 0.00393724
N 2.34195404 27.29650362 11.90007601 -0.00152563 -0.00669479 0.00267738
N 0.43182086 24.65599477 19.54130842 -0.00094492 0.00194839 -0.00159877
N 1.64685564 23.47979007 23.98991492 -0.00330403 0.01559109 0.00383332
N 2.20905997 28.05326025 26.14499192 -0.00465557 -0.00799938 -0.00130814
N 3.37010378 20.17691296 21.41411618 -0.00290127 -0.00114445 -0.00937252
N 1.84772677 22.84666730 19.73312079 0.00603009 0.00032565 0.00055635
N 0.27168042 25.34808612 24.44242673 0.00071507 0.00269726 -0.00803626
N 3.26617464 20.53129922 25.62848836 0.00245242 0.00173835 0.00084130
N 2.14131880 27.62880233 21.56021617 -0.00298602 0.00025780 -0.00791431
N 3.70860083 5.33452392 1.31805554 -0.00616703 0.00098636 -0.01210433
N 4.89431645 3.96724091 5.84952796 -0.00089948 0.00265624 0.00162584
N 5.84342406 8.98209105 8.25473677 -0.00018338 -0.00548391 0.00406906
N 7.28296705 0.83669780 3.77681309 0.00064177 0.00502786 0.00448414
N 5.10497887 3.51259562 1.41907917 0.00757139 0.00182332 0.00113600
N 4.15141941 6.20742003 6.18418871 -0.00205887 0.00164498 0.00562676
N 6.62326969 1.44699810 7.45739068 0.00331319 0.00730168 -0.00282048
N 5.88136212 8.51721411 3.14919998 -0.00641314 -0.00038375 0.00028920
N 4.06191041 5.30634789 10.34678824 -0.00017130 -0.00204814 -0.00127910
N 5.22170345 4.50387142 15.06141928 0.00197783 0.00509551 0.00401501
N 6.10145864 9.19696958 17.06697535 -0.00225176 -0.00468992 -0.00166505
N 7.05592120 0.60418363 12.52650464 -0.00209284 0.00710637 -0.00290961
N 5.46025435 3.53392074 10.79082554 0.00759574 0.00553897 0.00372361
N 3.94270823 6.41678642 15.21213216 -0.00022990 -0.00006127 0.00428108
N 7.06457147 1.22951566 16.81471947 -0.00003562 0.00260873 0.00245583
N 6.07759403 8.34242202 12.16508163 0.00469708 0.00334948 0.00636482
N 4.11272025 5.41347114 19.80159253 0.00266339 0.00063665 -0.00216158
N 5.06917182 4.18018517 24.09381882 -0.00664111 0.00765656 0.00353265
N 5.87011248 8.87231290 26.52831319 0.00060625 0.00825283 0.00845092
N 7.21334428 0.66732742 21.79650750 -0.00047032 0.00356648 -0.00926572
N 5.25476196 3.42152447 19.95683104 -0.00147569 0.00114249 0.00404663
N 4.07205639 6.22819896 24.42068568 0.00096515 0.00435398 -0.00840815
N 6.93923538 1.23124417 26.06112375 0.00450863 -0.00156826 -0.00200835
N 5.70411150 8.40654676 21.56620581 0.00730145 -0.00109689 0.00095697
N 3.92796665 15.30686996 1.10096745 -0.00194421 0.00009636 0.00019014
N 4.91577423 13.48510550 5.45456976 0.00494625 0.00136900 0.00425194
N 5.90655208 18.49499589 7.88438496 0.00283478 -0.00242693 -0.00416269
N 7.21183562 10.47126652 3.49681013 0.00338731 0.00315645 -0.00291937
N 4.82453705 13.21509354 1.23270849 -0.00627374 0.00155847 -0.00413424
N 4.38753375 15.62015871 5.78714155 0.00024266 -0.00046147 -0.00380190
N 6.95162048 10.72428274 7.38680263 0.00110743 -0.00112615 0.00512854
N 5.44435645 17.84934469 3.01912835 -0.00044470 0.00008882 -0.00748952
N 3.96946104 15.16931867 10.41298651 0.00004809 -0.00332369 0.00792465
N 4.73308096 13.28952082 15.04285265 -0.00499477 0.00005533 0.00041887
N 5.64995294 18.39372436 16.77785384 -0.00177867 -0.00965021 0.00219120
N 7.34709269 10.33718138 12.46299778 0.00515542 0.00399633 -0.00168088
N 5.08961624 13.27633779 10.72886795 -0.00310575 -0.00550238 0.00249012
N 3.97396735 15.39184490 15.30296562 0.00596544 0.00011997 0.00780955
N 7.27293161 11.22194347 16.79532028 0.00394854 0.00676005 -0.00566834
N 5.92293734 17.81222810 12.11859561 -0.00113310 0.00789780 0.00011360
N 4.03762977 14.69048157 19.61686229 -0.00440516 -0.00005579 0.00175706
N 5.62751373 14.08486467 23.87644115 -0.00273230 -0.00024858 0.00366121
N 5.59341563 18.93214795 25.99712405 0.00042291 0.00185218 0.00183506
N 7.05524374 10.25734102 21.83938540 -0.00291484 0.00203259 0.00106674
N 5.36343583 12.82089144 19.81659281 0.00095870 0.00120641 -0.00267937
N 4.17002949 15.85332225 24.22827833 -0.00215604 -0.00051513 0.00347349
N 7.22325244 10.72181877 26.15203564 0.00190976 0.00233862 -0.00188028
N 5.76189832 18.22492523 21.30635503 -0.00348144 0.00004926 0.00212166
N 4.15719757 24.74253974 0.84439541 0.00602454 0.00271038 0.00211105
N 5.03960322 23.27951279 5.38669520 -0.00074445 0.00201141 0.00367340
N 5.70008844 28.20196665 7.89078929 0.00122334 -0.01121951 -0.00250505
N 6.76029111 19.84022031 3.23229066 0.00359186 0.00157600 0.00392724
N 5.30445736 22.76106598 1.51467640 0.00891513 -0.00059465 -0.00134231
N 3.78120277 25.30332698 5.80430185 -0.00037127 0.00066058 0.00173693
N 6.71552825 20.62865445 7.46396297 0.00139858 0.00453889 0.00249621
N 6.39564960 27.66637443 3.01307156 0.00665724 0.00112327 0.00731406
N 3.84353862 24.49108451 10.06712126 0.00322721 -0.00398586 0.00135083
N 4.92748995 23.11880194 14.65288516 -0.00408596 0.00539062 0.00233109
N 5.96165438 28.06372340 17.21849137 0.00101668 0.00545911 0.00492754
N 7.26861682 19.64759538 12.39469936 0.00442012 0.00364792 -0.00109694
N 5.10930362 22.68356574 10.60436227 -0.00880944 -0.00051180 0.00237033
N 3.83669850 25.08538890 14.94630067 0.00137518 -0.00548590 0.00368039
N 6.81627080 20.44882385 16.55897834 0.00225733 -0.00424901 0.00134116
N 6.08623238 27.40816580 12.38811461 -0.00632577 -0.00148676 0.00381710
N 4.03996351 25.02135347 19.25758802 0.00157039 -0.00178488 -0.00266646
N 5.27129877 23.40371831 23.67003924 -0.00519090 0.00266311 0.00290024
N 5.56506836 28.19802705 26.22188462 0.00297497 -0.00133135 0.00142531
N 7.11182733 20.12427714 21.50313304 -0.00394937 0.00556829 0.00534145
N 5.08701479 23.06233387 19.56432004 -0.00209113 -0.00371228 -0.00433030
N 4.02996231 25.34415194 24.09303985 -0.00227860 0.00255492 0.00005590
N 7.15435397 20.56732582 25.68021714 -0.00477106 0.00990091 0.00461529
N 5.75025323 27.71506642 21.37724399 -0.00377615 0.00247844 0.00073899
N 7.29253259 5.63168069 0.95372904 0.00026942 -0.00408357 -0.00877103
N 9.13419063 4.00942424 5.48157814 0.00082836 -0.00641449 0.00242931
N 9.40891025 9.04161908 7.83850766 0.00128458 0.00134423 0.00617338
N 10.73600088 0.78212607 3.49562669 -0.00054825 0.00254548 -0.00146544
N 8.63276717 3.90128692 1.57369362 -0.00259628 -0.00036410 0.00105641
N 7.75629889 5.85512647 5.78930284 -0.00020790 0.00280659 -0.00152985
N 10.83246487 1.45261597 7.72297767 -0.00056722 -0.00652948 0.00007199
N 9.54771745 8.34166561 2.79136496 0.00348036 -0.00556244 -0.00452086
N 7.67746258 5.84900916 10.19539053 -0.00000740 -0.00433840 -0.00383281
N 9.10638531 4.32986441 14.93916924 -0.00322220 -0.00709678 0.00004080
N 9.46833206 9.04108829 16.98068428 0.00547835 -0.00135761 0.00249154
N 10.90882843 0.85471212 12.68553100 0.00451301 0.00201637 -0.00251691
N 8.56192416 3.73752938 10.44917757 -0.00246639 -0.00175003 -0.00127974
N 7.64709292 6.16886897 15.11821676 -0.00183966 -0.00510003 -0.00331317
N 10.69081801 1.24436479 16.73646919 0.00063522 -0.00196527 0.00081949
N 9.62286140 8.51818374 12.30738759 -0.00107167 -0.00283786 0.00041899
N 7.57332298 5.34389284 19.39888737 0.00448827 0.00594243 0.00264839
N 8.72119705 4.00567383 23.85306967 0.00149147 0.00305027 0.00403038
N 9.79805840 8.65442136 26.42123953 0.00271508 -0.00192693 -0.00731574
N 10.87352631 0.57377046 21.97938899 0.00095253 0.00003784 0.00000797
N 8.88531849 3.41026211 19.78379670 0.00013971 -0.00299931 -0.00766659
N 7.99284355 6.14394408 24.27620912 0.00117056 -0.00169642 -0.00236208
N 10.46834533 1.30347461 25.98911768 -0.00161658 0.00637370 0.00073363
N 9.40087046 8.28612963 21.47423236 -0.00516748 0.00045836 -0.00127074
N 7.60489587 14.86832552 1.08158058 -0.00173535 0.00193252 0.00125486
N 9.02480056 13.81740861 5.72241623 0.00088040 0.00800633 -0.00661612
N 9.24949673 18.40006659 7.72911806 0.00284606 -0.00472580 0.00045031
N 10.71130653 10.23448578 3.23618935 -0.00139041 0.00635638 -0.00430605
N 8.99427128 13.13044726 1.58246073 -0.00136491 0.00429867 0.00572409
N 7.68093761 15.58502379 6.11565140 0.00431051 0.00002617 0.00278551
N 10.81985346 10.91446717 7.77351847 -0.00017804 -0.00266882 -0.00076603
N 9.33864223 17.82025282 3.30994835 0.00152702 -0.00658572 0.00122720
N 7.68675714 15.04874264 10.24854436 -0.00102347 0.00309074 0.00275367
N 8.75070819 13.85850860 14.12667688 -0.00349123 -0.00214853 -0.00026485
N 9.30088612 18.15301262 17.01897045 -0.00244799 -0.00030357 0.00036859
N 10.67706896 10.62117183 12.55413063 0.00048736 0.01082476 0.00264825
N 8.66582322 12.97032670 10.30878407 0.00136613 -0.00210875 -0.00357835
N 7.16340343 15.07482360 15.20694813 0.00491149 0.00099479 0.00429131
N 10.63977333 11.12103640 16.79317224 0.00186305 0.00772868 -0.00504636
N 9.68497802 17.89164405 12.11995071 -0.00382832 -0.00535753 0.00211662
N 7.70663781 15.18537683 19.64522928 -0.00020051 0.00086951 -0.00493628
N 9.28872885 13.90713289 24.28420618 -0.00641517 0.00708622 -0.00127944
N 9.25493996 18.40162038 26.66799641 0.01099579 -0.00348150 -0.00038651
N 10.53515213 10.37247562 21.54583523 -0.00041483 -0.00058206 0.00743992
N 8.78537768 13.21470396 19.92209500 0.00041185 0.00143883 -0.00472958
N 8.02145240 15.98245241 24.30366665 -0.00803249 0.00857129 -0.00261658
N 10.80836147 10.70981588 26.20015238 -0.00301960 -0.00342025 0.00068203
N 9.52678470 18.19852699 21.17278566 0.00353149 -0.00074275 0.00023640
N 7.65445939 24.77862523 1.33312536 -0.00313249 0.00329278 0.00859382
N 9.04070891 23.52874593 5.77957443 0.00466097 -0.00441442 -0.00372289
N 9.30983692 28.48261396 7.85219273 0.00044411 -0.00312640 -0.00514678
N 10.40605470 19.89773900 3.35459062 -0.00366719 0.00075174 -0.00085966
N 8.68652782 22.70513922 1.45262349 -0.00031203 0.00320916 -0.00604712
N 7.41279696 25.21745973 6.12780091 0.00147819 -0.00128308 -0.00013540
N 10.40082671 20.32941240 7.33539898 -0.00137297 0.00337954 -0.00563471
N 9.45221547 27.77487164 3.36199837 -0.00008528 -0.00412008 -0.00520918
N 7.81073650 24.59982634 10.36245102 0.00011967 -0.00026610 0.00076533
N 8.65376893 23.26528743 14.94895493 0.00016166 0.00414025 0.00207265
N 9.59165848 28.15114381 17.14803722 0.00589201 -0.00256021 -0.00404868
N 10.72078398 19.88496808 12.52113040 0.00052201 0.00796300 0.00246317
N 8.77954588 22.53299259 10.50500287 0.00037741 0.00377607 -0.00455347
N 7.63723463 25.25790364 14.97042025 0.00326141 0.01144803 0.00390960
N 10.46909239 20.14780076 16.53839338 0.00715631 0.00187188 -0.00495915
N 9.75216085 27.76678778 12.20304474 0.00118086 -0.00185137 0.00392480
N 7.77271875 24.89146601 19.31898006 0.00246804 0.00365996 0.00000096
N 9.05948497 23.23522212 24.03541854 -0.00081449 -0.00098186 -0.00178552
N 9.19170962 28.17602416 26.30828395 -0.00579561 -0.00722653 0.00161696
N 10.90126952 20.04526396 21.23551275 0.00200231 -0.00021308 -0.00154528
N 8.91004033 22.91513785 19.31736922 -0.00118027 -0.00084421 -0.00334615
N 7.73543164 25.08689145 24.02589820 -0.00710779 0.00121130 0.00278402
N 10.44265813 20.34364289 26.16705599 -0.00333447 -0.00401756 0.00193787
N 9.72195220 27.56878304 21.33049565 -0.00162617 0.00299356 -0.00208734
N 11.27149763 5.38236455 1.16078251 0.00092026 0.00033510 -0.00179148
N 13.01234782 4.12688494 6.05741209 0.00795597 0.00477667 0.00477899
N 13.49749285 8.68709165 7.89523929 0.00157368 0.00447978 -0.00546282
N 14.40041157 0.68439939 3.71994665 -0.00350814 -0.00448590 0.00375132
N 12.54327484 3.48376057 1.47222041 -0.00386085 0.00136228 -0.00180136
N 11.49947573 6.00214405 6.11006159 0.00022092 0.00145860 -0.00595125
N 14.49981597 1.19331017 8.23821961 -0.00148009 0.00039373 -0.00321839
N 13.19242572 8.50833236 3.18325200 -0.00028837 -0.00097911 0.00121198
N 11.22215296 5.62678202 10.61589462 -0.00309688 -0.00611956 -0.00210721
N 12.37860026 4.02905902 14.95095892 0.00783742 -0.00470203 0.00295655
N 12.90288681 8.91891040 17.31338250 0.00795557 -0.00205181 -0.00134331
N 14.56430003 0.74386137 12.74834405 0.00114085 -0.00072498 -0.00188108
N 12.57918414 3.74337225 10.38091736 0.00248408 0.00299518 -0.00128368
N 11.28093684 6.08440987 15.38656242 -0.00511357 -0.00308554 0.00237419
N 14.15575100 1.31581637 17.14000624 0.00155520 -0.00019166 -0.00446564
N 13.31364934 8.35192579 12.39318044 -0.00028585 0.00031678 0.00044062
N 11.22207282 5.40643994 19.55077279 0.00180020 0.00249883 0.00378872
N 12.61020122 4.06312290 24.31212480 -0.00088722 0.00065354 0.00361814
N 13.24400124 9.05292728 26.30160952 -0.00055049 0.00469528 -0.00761605
N 14.35834311 0.79080181 21.77194150 0.00283828 -0.00373136 0.00261458
N 12.45945655 3.36818300 19.95970588 -0.00156337 -0.00146171 -0.00229700
N 11.25144432 5.96248813 24.35276697 -0.00177157 -0.00090733 0.00357252
N 14.14761006 1.28428766 26.22263337 0.00213778 -0.00145073 -0.00149324
N 13.01135347 8.30871087 21.75365103 -0.00363155 -0.00547362 0.00563506
N 11.45371533 14.98468853 1.32663440 0.00418017 -0.00472914 0.00097161
N 12.53722803 13.80028138 5.81903828 0.00357778 -0.00103886 -0.00138827
N 12.68067158 18.71095257 7.67765869 -0.00532288 0.00379411 0.00597933
N 14.62110055 10.37657228 3.39028383 -0.00021851 0.01001789 0.00594133
N 12.70027266 13.10075544 1.91596440 -0.00871978 -0.00138977 0.00102581
N 11.59840342 15.91342093 6.23878223 0.00218320 -0.00225576 -0.00258164
N 14.36798073 10.82645510 7.79331471 -0.00429366 -0.00454957 -0.00010496
N 13.27871892 18.21729367 3.36470097 -0.00028659 -0.00746318 -0.00258393
N 11.20524241 14.93766079 10.37618260 -0.00353142 -0.00063853 -0.00020228
N 12.76359891 13.83284944 15.05988420 -0.00238139 -0.00511478 -0.00002209
N 12.63305895 18.53012358 17.15536237 0.00172762 -0.00081559 -0.00274392
N 14.60906060 10.25017978 12.56546786 0.00152630 -0.00192378 -0.00267063
N 12.53567652 13.04767588 10.70464731 0.00316884 -0.00839657 0.00191774
N 11.16771568 15.57839810 14.99849724 0.00075520 -0.00132988 0.00236366
N 14.19732740 10.85751937 17.18121166 -0.00040555 -0.00138670 0.00323183
N 13.02178589 17.61662529 12.29373817 -0.00126476 -0.00107148 -0.00499809
N 11.05924414 15.14371301 19.41057936 -0.00151086 0.00117791 -0.00276702
N 12.28004508 13.86403873 24.21364847 0.00108663 -0.00021404 0.00042245
N 12.97212465 18.35763710 26.33513579 -0.00534621 0.00045831 0.00201001
N 14.29550689 10.26106377 21.71092994 -0.00058710 0.00373956 -0.00372249
N 12.38104321 13.34160025 19.82446792 0.00782423 0.00326318 0.00179127
N 11.43583250 15.89590073 24.52477915 0.00216774 0.00239706 -0.00101844
N 14.37460544 11.11085792 26.22123797 -0.00758964 -0.00210789 -0.00589364
N 12.98238290 18.02656350 21.43985037 0.00072345 -0.00540374 -0.00020086
N 10.97143178 24.83879632 1.24015439 0.00343574 0.00342920 0.00645831
N 12.62667837 23.44010112 5.88920053 -0.00295386 0.00728967 -0.00172298
N 13.10481113 28.22399045 8.38131357 0.00238859 -0.00498079 0.00038865
N 14.15268276 20.28579950 4.02423108 0.00356774 0.00351546 -0.00615062
N 12.17625860 22.84727767 1.64523844 0.00157654 0.00270214 0.00333220
N 11.28717973 25.32950187 6.33451609 -0.00768794 0.00507068 0.00123446
N 14.04693845 20.69077661 7.83388767 -0.00294005 -0.00131345 -0.00176281
N 13.20618742 27.48674336 3.43249737 0.00402648 -0.00519892 -0.00074367
N 11.20032882 24.70925160 10.52541591 0.00225650 0.00133238 -0.00254418
N 12.33791051 23.26006891 14.84912551 0.00209868 0.00165383 0.00214459
N 13.14387399 28.04192813 17.36950814 0.00004548 0.00177785 -0.00282287
N 14.41658972 19.56006848 12.51207920 0.00628214 -0.00725374 0.00501409
N 12.45534194 22.72170127 10.77636048 -0.00068027 0.00394393 0.00081297
N 11.47791986 25.28016048 15.27448136 -0.00002030 0.00136924 0.00382446
N 14.11226806 20.22727488 16.59300224 0.00455425 -0.00423454 0.00284495
N 13.31422220 27.61607095 12.42580549 0.00625144 0.00022148 0.00598713
N 11.23974146 24.53387215 19.41443916 0.00054476 -0.00442832 -0.00398432
N 12.32652792 23.35929283 24.16957376 0.00003353 0.00330583 -0.00229219
N 12.77039087 28.30112611 26.46912277 0.00381252 0.00308734 -0.00043289
N 14.57394376 19.82527158 21.65541380 -0.00178634 0.00343438 0.00232908
N 12.68913565 22.70006494 19.63956653 -0.00212630 -0.00519821 0.00124113
N 11.12645287 25.38449535 24.22869060 0.00617829 0.00153175 -0.00342163
N 13.86518808 20.50427617 26.25195359 0.00424586 -0.00322712 0.00668787
N 13.38441860 27.55906333 21.45684698 -0.00193193 -0.00238319 -0.00359300
N 15.16400893 5.70282581 1.17463823 -0.00200618 -0.00031188 -0.00277219
N 16.69387339 4.07154701 6.00157933 0.00863206 -0.00385843 0.00211907
N 16.94102776 8.93066773 8.13953281 0.00424296 -0.00075767 -0.00024373
N 18.17281548 0.56904438 3.40021700 -0.00117590 -0.00247291 0.01210543
N 16.29788171 3.75992458 1.67860918 0.00558981 -0.00600597 -0.00450455
N 15.31651762 6.04242979 5.83734489 0.00054860 -0.00148211 0.00494565
N 18.07437007 1.17678871 8.20832566 -0.00538032 0.00100832 0.00088109
N 17.14482169 8.70826883 3.26145265 0.00160854 0.00451878 -0.00395404
N 15.11896109 5.47465536 9.94871965 -0.00006837 -0.00200619 -0.00052304
N 16.31542650 4.17898058 15.11031564 -0.00021055 -0.00170633 0.00600665
N 17.30938114 8.96250174 17.04921570 0.00158121 0.00089725 0.00143314
N 18.14039099 0.43232651 12.64916516 -0.00384957 0.00040274 -0.01090127
N 15.86505103 3.64697007 11.30017063 0.00100623 -0.00009373 -0.00818629
N 14.95888620 6.12094576 15.17638780 0.00013268 -0.00212150 -0.00252927
N 18.13739527 1.20856150 16.95706825 0.00256993 0.00053609 0.00020057
N 17.32866335 8.20082537 11.89912100 -0.00197557 0.00518080 -0.00339333
N 14.69902497 5.45590871 19.61550947 0.00244576 0.00149108 0.00505166
N 16.34806163 4.24671608 24.28127619 0.00368046 -0.00685350 -0.00106053
N 16.58231819 9.09164353 26.45471997 -0.00031561 0.00301844 -0.00618951
N 17.89627859 0.67203426 21.77710226 -0.00380560 0.00200942 0.00084816
N 16.15518368 3.69657772 19.86180980 0.00487573 -0.00157874 0.00110120
N 15.09597267 6.13437242 24.63425727 0.00335089 0.00853508 0.00513524
N 17.56857072 1.30156004 26.14278463 -0.00165359 -0.00500737 -0.00210147
N 16.72904548 8.26693851 21.64563375 0.00272948 0.00119799 0.00335928
N 15.01616488 15.11752554 1.10894921 0.00232625 0.00712653 -0.00387200
N 16.15845358 13.64308897 5.67327099 0.00272455 0.00175466 0.00605109
N 16.67689844 18.40646529 7.90143466 0.00579878 0.00674698 0.00203127
N 18.17974151 10.62086496 3.87116835 0.00286406 0.00709306 -0.00435539
N 16.38726926 13.35578067 1.57758625 0.00138870 0.00060329 -0.00110102
N 15.00697103 15.60190459 5.90230104 0.00363700 0.00411690 0.00070501
N 17.82139067 11.01105523 7.82284962 0.00038734 0.00291558 0.00404812
N 16.69332946 17.75377314 3.23692510 0.00306515 -0.00240858 -0.00457698
N 14.85401653 15.41189822 10.05996158 0.00113755 0.00653660 -0.00078171
N 16.02351603 13.94969386 14.70388948 -0.00191159 -0.00774577 -0.00087040
N 16.55176110 18.73156402 17.17327884 -0.00261665 0.00174933 0.00040056
N 17.97356110 10.40561586 12.49960039 -0.00261187 0.00439948 -0.00315765
N 16.36636747 13.62701290 10.52799817 -0.00343496 -0.00106921 -0.00779628
N 14.84785661 15.87102251 15.25035322 -0.00027899 0.00415098 -0.00118135
N 17.82730455 11.12658145 16.70154273 -0.00094616 -0.00024085 0.00090139
N 17.05049778 17.78901265 12.18394495 0.00041385 -0.00615194 -0.00491870
N 14.79372149 14.93810668 19.49075948 0.00462035 0.00406302 -0.00522746
N 16.00461838 13.63204160 24.03740586 0.00360590 -0.00066133 -0.00081724
N 16.49865908 18.74375022 25.97641206 -0.00608674 -0.00430518 0.00104061
N 17.74835240 10.34287689 21.81180304 0.00218788 0.00386838 -0.00268113
N 16.48953424 13.26772955 19.87965782 0.00787795 0.00079328 -0.00402747
N 15.00871788 15.69797991 24.41578557 0.00033704 0.00066411 -0.00321064
N 18.07307972 10.74202477 26.01369042 0.00706111 0.00526992 -0.00265163
N 16.75274630 18.23010688 21.54465917 -0.00451051 0.00018248 0.00517717
N 14.47862011 24.66015223 1.54323051 -0.00236699 -0.00410987 -0.00165410
N 16.46506890 23.28825810 6.13959338 -0.00474836 0.00625188 0.00583780
N 17.32463765 27.80610095 7.99748360 0.00200728 0.00233971 -0.00494799
N 17.87590728 19.74175143 3.19021016 0.00340072 -0.00475363 0.00061183
N 15.61290764 22.60923447 1.68238346 0.00407923 0.00298708 -0.00229630
N 15.34938380 25.28214690 6.33521299 -0.00123538 0.00701578 -0.00354340
N 17.72948630 20.53238621 7.80062494 -0.00547850 0.00441830 -0.00297523
N 16.60459751 27.54747721 3.40599017 -0.00196057 0.00235052 0.00160563
N 14.94842108 24.65044060 10.50194125 -0.00114145 0.00023484 -0.00383440
N 16.08244815 23.12284954 14.87238245 -0.01187341 -0.00111795 0.00063846
N 16.88377428 28.11046171 17.13257229 0.00354338 0.00010538 -0.00009816
N 18.26370158 19.70299073 12.45181950 -0.00275097 0.00103320 0.00236236
N 16.09616230 22.67680976 10.71330833 -0.00199383 -0.00373698 0.00444840
N 15.14603680 25.10732253 15.45019262 0.00342537 0.00381208 -0.00235644
N 18.09480868 20.41878081 16.99214154 -0.00114717 -0.00398750 -0.01756118
N 17.05549629 27.28560960 12.26407430 0.00515726 -0.00468388 -0.00200774
N 15.02577014 24.45664492 19.43641582 -0.00399422 -0.00284510 -0.00898779
N 15.96072054 23.45993001 24.14855814 0.00758441 -0.00591839 -0.00112146
N 16.67239876 28.00917687 26.34820513 0.00803048 0.00368913 0.00220023
N 18.27526014 19.98448026 21.68491472 -0.00312025 0.00780269 -0.00235800
N 16.70900364 23.10827507 19.91604245 0.00065542 0.00477734 -0.00203184
N 14.69989366 25.31344566 24.33249586 0.00406097 -0.00225136 0.00332765
N 17.77614302 20.71413320 25.94798736 -0.01270610 0.00434644 -0.00327223
N 16.63158037 27.56771266 21.55294760 0.00108347 0.00436229 -0.00324193
N 18.50758518 5.67201593 1.15191072 -0.00113185 0.00398793 -0.00395482
N 20.08345188 4.16342769 5.47918591 0.00468949 -0.00322575 -0.00434305
N 20.31355044 8.92834738 8.31924531 -0.00146016 0.00082035 -0.00133593
N 21.95529998 0.86051366 3.86333806 0.00079170 0.00533637 0.00076566
N 19.64134391 3.72994410 1.56013358 0.00207403 -0.00425819 0.00217109
N 18.91405367 6.07381270 5.88588655 -0.00135534 0.00500564 0.00682159
N 21.29690881 0.98005123 7.36290264 -0.00323343 0.00081441 0.00398565
N 20.52180414 8.62889822 3.32628283 -0.00005446 -0.00516064 0.00704263
N 18.63521755 5.02955675 10.19698353 0.00335254 -0.00278007 -0.00388802
N 19.92528082 4.16420406 14.88345129 0.00075920 -0.00194325 0.00451235
N 20.34259438 8.93695768 17.05075694 -0.00074939 0.00442339 0.00051858
N 0.02664661 0.41714199 12.31638850 0.00095367 -0.00375212 0.00291169
N 20.03906456 3.28604232 10.59177621 -0.00735082 -0.00602674 0.00113754
N 18.67064032 6.08057014 15.09820642 -0.00095944 -0.00151345 0.00174628
N 21.59787297 1.57066807 16.82559564 -0.00021443 -0.00255798 -0.00199892
N 20.70435205 8.21013827 12.36350888 -0.00001615 -0.00179232 -0.00120489
N 18.84449291 5.59981380 19.51997672 -0.00467854 -0.00210539 -0.00466640
N 20.01810489 4.12799291 24.11800029 0.00342450 0.00354377 -0.00732374
N 20.50541473 9.16353711 26.63241262 -0.00607680 -0.00552885 0.00930994
N 21.97399376 0.69827272 21.77520747 0.00162537 -0.00416878 -0.00341103
N 19.71341332 3.56189497 19.89735161 -0.00481441 -0.00113085 -0.00246810
N 18.88292861 6.17890425 24.33941107 -0.00020412 -0.00351677 0.00119375
N 21.58681724 1.06073996 26.29061050 0.00260057 0.00201203 0.00694392
N 20.27908327 8.40022125 21.42024653 -0.00166819 0.00163674 -0.00316282
N 18.58371760 15.31613034 1.09448898 -0.00004491 0.00237972 -0.00783630
N 19.73338330 13.82763514 5.66696301 0.00114254 -0.00043428 -0.00025734
N 20.27047198 18.24560527 7.95351860 0.00496026 0.00216887 0.00239966
N 21.89394183 10.41360596 3.93704863 -0.00049002 0.00309340 0.00263946
N 19.75725981 13.31565321 1.24013781 0.00220389 -0.00171052 -0.01002665
N 18.42345462 15.61670404 6.13002578 0.00139644 0.00131133 -0.00282531
N 21.28588396 10.88411173 7.74376613 -0.00098224 0.00035457 0.00094077
N 20.24523641 18.05918176 2.99557305 0.00263092 -0.00414756 0.00185941
N 18.97119817 15.07147695 10.06985270 0.00812662 -0.00016923 -0.00159713
N 19.40410624 13.56500509 14.96927598 0.00796970 0.00170030 -0.00236646
N 20.45658797 18.67723338 17.08419420 -0.00042049 0.00183626 0.00001129
N 21.85094230 10.16277352 12.53174126 -0.00111088 0.00416945 -0.00028707
N 19.90890387 13.02968267 10.67433939 0.00055588 0.00216181 -0.00160446
N 18.71471992 15.64158356 15.28874622 -0.00031204 0.00325926 -0.00060621
N 21.65127593 10.85242578 16.86915344 0.00498218 0.00224373 0.00610000
N 20.80924575 17.86695370 12.19938770 0.00316205 0.00162312 0.00140008
N 18.76919067 15.30920282 19.67128750 0.00055411 0.00208807 0.00486783
N 19.85056538 13.47149601 23.95599027 0.00182449 0.00698439 0.00302250
N 20.15094922 18.56057364 26.24079540 -0.00665683 0.00268767 0.00304406
N 21.63658115 10.12788438 22.13086024 -0.00387160 -0.00253440 -0.00083331
N 19.63078024 13.09941915 20.02231797 0.00214929 -0.00490427 -0.00433010
N 18.65219250 15.45740369 24.25352890 -0.00037009 0.00204072 -0.00516437
N 21.60345832 11.21261834 26.24383536 0.00479979 -0.00359087 0.00548071
N 20.51209521 17.89262918 21.39490357 0.00330387 -0.00161798 -0.00045062
N 18.95843452 24.85042088 1.06920793 -0.00188684 0.00441792 0.00023577
N 19.80118421 23.19696786 5.49442976 0.00615256 -0.00215277 -0.00145857
N 20.35269618 27.81539287 7.72691586 0.00529843 -0.00465243 -0.00191926
N 21.41018263 19.98349349 3.35291516 0.00224320 0.00067417 0.00741115
N 19.90562768 22.75071220 1.43383221 -0.00311294 -0.00505665 -0.00103745
N 18.72102382 25.27710084 5.68848577 -0.00460325 -0.00013735 0.00397499