1728
Time=86000.00000007 pbc="T T T" Lattice="22.03171454 0.00000000 0.00000000 0.00000000 28.96050838 0.00000000 0.00000000 0.00000000 27.39442208" energy=-10388.70101047 virial="11.82764624 -2.96748547 1.63497208 -2.96748547 5.18895947 -12.09003153 1.63497208 -12.09003153 56.54091080" stress="0.00292370 -0.00012850 0.00007319 -0.00012850 0.00270834 -0.00064109 0.00007319 -0.00064109 0.00596538" Properties=species:S:1:pos:R:3:vel:R:3
N 0.26677513 5.37506058 1.43356299 -0.00390650 -0.00202318 -0.00563504
N 1.53394597 4.01793797 5.72658755 0.01076433 -0.00258649 -0.00041571
N 2.62238989 8.61888037 7.81112559 -0.00243276 0.00076208 0.00406457
N 3.44974629 0.76974244 3.90387985 0.00484342 -0.00251142 0.00043699
N 1.60593474 3.55578815 1.92533161 0.00403947 0.00246737 0.00226072
N 0.29617115 6.02987333 5.96766718 -0.00278973 -0.00094693 0.00131876
N 3.10107911 0.98186019 7.47267583 -0.00322080 0.00124616 -0.00034740
N 2.49851624 8.38658595 2.84862020 0.00953057 0.00199620 -0.01306703
N 0.19288758 5.24352188 10.51945914 -0.00512667 0.00415554 -0.00358272
N 1.66366456 3.95032932 14.89118006 0.00162286 -0.01019179 -0.00452203
N 2.40972871 8.82966514 17.37909177 0.00263031 -0.00135140 0.00634249
N 3.63719178 0.54736799 12.60056923 -0.00116642 -0.00142377 -0.00990547
N 1.51492040 3.31597767 10.60007281 -0.00056205 -0.00285518 -0.00363358
N 0.43880845 5.84134476 15.48345470 -0.00325885 -0.00389046 -0.00249898
N 3.27733049 1.08975582 17.15415901 -0.00348721 0.00641462 -0.00031206
N 2.24576874 8.26857105 12.42877514 -0.00075120 -0.00237326 0.00087610
N 0.45546916 5.37716175 19.72786504 -0.00230829 0.00472962 0.00761692
N 1.59781207 3.99296474 24.23235993 -0.00327845 0.00167374 0.00906530
N 2.21474488 9.09649653 26.28188989 0.00546033 0.00202395 0.00014296
N 3.29171212 0.57858471 22.10524513 0.00045312 0.00053934 -0.00811292
N 1.72858678 3.36018636 19.89980026 0.00104883 -0.00481085 0.00267312
N 0.37295477 6.01939593 24.46465682 0.00332766 0.00911782 0.00257819
N 3.10769753 1.19859543 26.24803945 -0.00099457 0.00105088 0.00015202
N 2.31727338 8.35010811 21.09296231 -0.00644988 -0.00180680 0.00380509
N 0.23159566 15.45005865 1.08317913 -0.00229457 0.00000161 -0.00226994
N 1.67188838 13.74503504 5.96515284 0.00280289 0.00533841 0.00178788
N 1.90760650 18.65113756 8.40477848 0.00679000 0.00084477 0.00351933
N 2.93373297 10.56435723 3.36990051 -0.00185960 -0.00643212 0.00113653
N 1.53288511 13.60714064 1.55910996 0.00196765 0.00564901 0.00262449
N 0.35177673 15.64165644 6.01386096 -0.00716734 -0.00139277 0.00672601
N 3.29216950 10.77320742 7.63813746 -0.00542884 0.00362838 0.00326622
N 2.29504821 17.92379945 3.72347176 0.00517239 0.00078560 -0.00097087
N 0.17630004 15.05493220 10.41417860 -0.00125486 0.00172618 -0.00178206
N 1.70024555 13.99911128 14.95553212 -0.00243877 -0.01299910 -0.00339160
N 2.38656293 18.29670736 17.10574691 -0.01043101 -0.00127760 0.00489342
N 3.50834904 10.08342283 12.78680094 0.00084772 0.00443290 0.00422540
N 1.37404151 13.04160971 10.75039486 -0.00300019 0.00572946 -0.00298300
N 0.71143259 16.07606291 15.16358192 0.00370158 -0.00226756 0.00537183
N 2.98821744 11.04553865 16.68131809 0.00151812 -0.00104724 0.00680409
N 2.23041237 18.01499528 12.20838081 0.00014709 -0.00084007 0.00266155
N 0.14400743 15.33319309 19.54954340 -0.00149996 0.00330412 0.00022438
N 1.63611269 13.85213951 23.97588826 -0.00094183 0.00167206 0.00408713
N 2.35510651 18.28497047 26.52949630 -0.00264981 -0.00158254 -0.00788704
N 3.53975635 10.37214858 21.39590576 0.00452563 0.00009116 0.00252607
N 1.57382072 13.56585597 19.87709293 0.00162718 0.00676519 0.00230292
N 0.26334577 15.66689123 24.38397816 0.00135384 0.00009391 -0.00335160
N 3.15914029 11.12574163 25.67654543 -0.00985635 0.00172749 -0.00085224
N 2.19808374 17.95031405 21.36695964 -0.00489549 -0.00066313 -0.00433944
N 0.00401013 24.60941595 1.49127190 -0.00311896 0.00668280 -0.00043438
N 1.95368368 23.72268261 5.83960654 0.00548970 -0.00134894 0.00537717
N 1.72026624 28.32455616 8.35730834 -0.00376807 0.00234122 0.00110058
N 3.45525780 19.98471430 3.48493549 -0.00061779 0.00396128 0.00088609
N 1.31846431 22.70750570 1.51392887 -0.00595972 -0.00223724 0.00343912
N 0.41881798 25.51361888 5.81691221 -0.00291922 -0.00103539 0.00203820
N 3.06076138 20.66395739 7.86853972 0.00127250 0.00579685 -0.00771842
N 2.30793567 27.83246610 3.05342671 0.00308741 0.00674971 0.00057380
N 0.20718125 25.04358758 10.03437378 0.00416783 0.00073769 -0.00288285
N 1.57509021 23.61649719 14.91731819 0.00222921 -0.00084892 -0.00463778
N 2.03639967 28.12817543 16.91658762 -0.00044291 0.00123479 -0.00128121
N 3.39514684 19.88842946 12.69653059 0.00052339 -0.00236758 -0.00593802
N 1.34821672 22.95022977 10.53941252 0.00135150 -0.00194575 0.00172608
N 0.42525210 25.47145254 14.96821004 0.00220586 -0.00335402 -0.00141051
N 3.17847441 20.37026365 16.61110342 0.00245771 0.00011502 -0.00411908
N 2.24868389 27.62382134 12.31054352 -0.00134043 -0.00575830 -0.00012693
N 0.53327578 24.80894332 19.44027074 -0.00238216 -0.00140757 0.00048524
N 1.19262847 23.22242804 24.12707861 -0.00055965 -0.00242648 -0.00280419
N 1.65165248 28.40489970 26.59182276 -0.00105152 0.00040246 0.00173281
N 3.36711742 19.88472656 21.53775159 0.00118092 0.00043280 0.00887285
N 1.26133320 22.61046016 19.78983243 0.00133477 -0.00451049 -0.00583140
N 0.22282406 25.25247137 24.64805217 -0.00349841 -0.00100642 -0.00127293
N 3.26056442 20.21353690 25.76396421 -0.00669162 0.00009655 0.00332705
N 2.24930750 27.62082326 21.51062730 0.00032732 -0.00337999 0.00733195
N 3.81020923 5.49902857 0.96764224 0.00044214 0.00953727 0.00189410
N 5.10749419 4.16931792 5.26338644 0.00026611 0.00353224 -0.00150931
N 5.71483016 8.56144497 7.65255446 0.00053949 -0.00558522 0.00406518
N 6.94001438 0.47655468 3.13451304 -0.00494040 0.00017110 -0.00248050
N 5.02736079 3.47585897 1.23663424 0.00759793 -0.00034345 -0.00244969
N 4.18043615 6.17360700 5.92991733 0.00647591 -0.00196495 -0.00022864
N 6.79001516 1.51864244 7.62520458 -0.00016329 0.00332043 -0.00076395
N 5.93135649 8.43514742 2.52959879 0.00522009 -0.00148160 0.00242834
N 3.87171498 5.47321436 10.02627534 -0.00605293 -0.00382167 -0.00082507
N 5.20847515 4.19462715 14.25035764 -0.00220894 0.00184385 -0.00632026
N 5.59429849 8.79533042 16.92565279 -0.00061689 0.00339135 0.00738896
N 7.47735390 0.91075025 12.56346992 -0.00272553 0.00267098 0.01051171
N 4.84040443 3.40860472 10.48559333 0.00966158 0.00212985 0.00766198
N 4.15488193 6.08557049 15.03399128 0.00256485 0.00427601 0.00389482
N 7.03067577 1.14827422 16.69842422 0.00216280 -0.00109012 0.00566461
N 5.77766677 8.46019761 11.87437935 -0.00457543 -0.00521995 0.00132273
N 3.88357649 5.64784696 19.11010445 0.00425617 -0.00098600 0.00500424
N 4.92218279 3.79151968 23.55677939 -0.00363019 0.00387634 -0.00125048
N 5.38629066 8.92543505 25.62263641 -0.00588916 0.00504090 -0.00182532
N 7.27437327 0.87899314 21.55991506 -0.00655479 0.00481893 -0.00369170
N 5.11547550 3.71785737 19.67094032 0.00022638 -0.00492892 0.00486728
N 4.08991290 5.89007607 24.08302953 -0.00889592 0.00204717 0.00011412
N 6.74406653 0.94057971 25.34225056 -0.00316296 0.00467477 -0.00203602
N 5.82869161 8.56591424 21.37616949 -0.00066532 0.00437887 0.00572747
N 4.14588060 15.02311217 0.81989689 0.00292781 -0.00023619 0.00105609
N 5.06776023 13.49647641 6.09356567 0.00238259 -0.00207937 0.00512176
N 5.77946615 18.57714991 8.22444167 -0.00332254 -0.00416335 0.00538686
N 7.09045885 10.30379558 3.31183801 0.00651160 -0.00216172 -0.00358823
N 5.49593841 13.24098114 1.42534457 -0.00350779 0.00161373 0.00593204
N 3.98472831 15.49313471 6.38462775 0.00358039 -0.00799983 -0.00110298
N 7.13212605 10.44596553 7.49923456 0.00440063 0.00221311 0.00355568
N 6.12231866 17.69885312 3.28479577 -0.00202880 -0.00297287 -0.00502094
N 3.82895425 15.10919773 10.49885065 0.00433063 0.00853949 -0.00087342
N 5.57403431 13.66433724 14.98437553 0.00435802 0.00556867 0.00443380
N 5.94759926 18.55911159 16.84722388 0.00078112 -0.00209427 -0.00430651
N 7.40924371 10.14634821 12.00298691 -0.00150169 0.00386483 -0.00437458
N 5.00881249 13.08014663 10.82024167 -0.00274614 0.00313008 -0.00994806
N 4.27257860 15.56037836 15.51798753 -0.00006018 0.00444814 0.00018384
N 6.97346128 10.61383964 16.67583841 -0.00428476 -0.00690759 0.00519012
N 5.85123899 18.40730636 11.97872883 0.00194397 0.00208292 -0.00207683
N 4.04004472 15.41535326 19.12341056 -0.00028897 -0.00502514 0.00307844
N 5.21446677 13.82516995 23.72392319 -0.00622464 -0.00051182 -0.00377751
N 5.81857047 18.43276438 26.50512838 0.00670513 -0.00322427 0.00961562
N 6.98078985 10.59552743 21.48430329 -0.00280581 0.00320284 0.00463326
N 4.93460612 13.30776084 19.37690178 0.00060995 0.00424127 0.00147057
N 3.97454919 15.78934016 24.14511381 0.00248873 -0.00041764 -0.00338481
N 6.81606352 10.79293473 25.72674617 0.00205635 0.00237363 -0.00044911
N 5.90052921 18.25026305 21.15125223 -0.00116308 0.00648134 -0.00142046
N 3.37743506 24.93336878 0.76763147 0.00701193 0.00618920 0.00683266
N 5.22379169 23.42485908 5.75836108 0.00199100 0.00267089 0.00607491
N 5.67432606 28.51257470 7.80435799 -0.00147004 -0.00072339 -0.00119691
N 6.89815399 19.84651630 3.70513153 0.00213230 -0.00226582 -0.00085405
N 4.66532526 23.11431110 1.35927170 -0.00162905 -0.00650649 0.00110913
N 4.41390902 25.54868009 6.13676891 0.00174731 -0.00118475 -0.00327743
N 6.62702311 20.70644424 7.77388047 -0.00120191 -0.00062155 -0.00227294
N 5.84816330 27.48271608 3.01116969 -0.00086631 -0.00353814 0.00291383
N 3.88647318 24.83701427 10.33241161 -0.00629717 -0.00454283 0.00330033
N 5.15614605 23.52250486 14.90801223 0.00538411 0.00006316 0.00126858
N 5.56233658 28.25071141 17.14546932 0.00194165 0.00887379 -0.00452248
N 7.13592246 20.27577579 12.61623565 -0.00754587 -0.00291670 0.00279417
N 5.19308920 23.03145272 10.62870958 0.00100704 0.00077408 0.00450857
N 4.07512589 25.55873240 15.21577282 -0.00385132 0.00640159 -0.00053609
N 7.09890086 20.56841051 16.80214040 0.00332412 -0.00393024 0.00499375
N 6.56789791 27.81895093 12.03308630 -0.00423036 -0.00003187 0.00158253
N 3.78352179 24.75396176 19.43446922 0.00004584 -0.00352456 0.00456268
N 5.16301891 23.20220516 24.03599640 0.00042628 0.00110040 -0.00337548
N 5.56646732 28.05370011 26.08932697 0.00029052 0.00408149 -0.00457861
N 7.15835264 20.03192141 21.86522019 -0.00514706 -0.00495220 0.00054218
N 4.69686076 22.66977536 19.66223332 0.00437298 0.00127407 -0.00134353
N 3.91722433 25.07640080 23.58575027 -0.00271955 -0.00120406 0.00607231
N 6.90844622 20.47091917 26.06949203 0.00095252 0.00491123 -0.00633915
N 5.77044654 28.09220961 21.07479839 -0.00672811 -0.00693211 0.00606072
N 8.00597633 5.77420672 0.79906846 -0.00047045 0.00039642 0.00381860
N 8.79606174 3.62283764 5.33916982 0.00122490 0.00488818 -0.00049759
N 9.39813640 9.01012538 8.31277006 0.00053982 -0.00024639 -0.00658860
N 10.30418223 0.82776087 3.57269129 0.00342040 -0.00695060 0.00064622
N 8.79199071 3.68118980 1.23842042 0.00214065 0.00128165 0.00072018
N 7.82971764 5.70556818 5.59796443 0.00413176 0.00282467 -0.00493631
N 10.64035949 1.29646075 8.07893036 -0.00225772 -0.00112626 0.00127710
N 9.82384663 8.98364664 2.91822718 -0.00031411 -0.00670610 -0.00023912
N 7.64171004 5.62520956 9.69756827 0.00161882 0.00558743 0.00541912
N 8.85615449 4.07273037 14.81696253 0.00232744 -0.00114279 0.00398483
N 9.61524130 8.82865835 17.38212060 -0.00239360 0.00182574 -0.00116827
N 10.92261748 0.56298705 12.37218397 0.00479831 0.00561312 -0.00139083
N 8.76425397 3.88521347 10.49602783 -0.00213975 -0.00007780 -0.00011107
N 7.79073237 6.06744536 15.12282438 -0.00216056 -0.00213500 -0.00145783
N 10.86810920 1.26145086 16.76312894 -0.00243658 0.00074981 0.00020338
N 9.65283925 8.23804085 12.32341712 -0.00771519 -0.00582509 -0.00103843
N 8.00212748 5.90122718 19.29568513 0.00325743 0.00012538 0.00687675
N 9.09358402 4.13262568 23.82087869 0.00620603 0.00057906 -0.00393592
N 9.15861574 8.96263483 26.13507247 0.00159395 0.00378270 0.00321594
N 10.82784359 0.81688298 21.52027212 -0.00306995 0.00522837 -0.00351777
N 8.96386712 3.81581493 19.42512337 0.00140294 0.00167141 0.00544288
N 7.90344532 6.07872673 23.98618793 -0.00044222 -0.00312217 0.00172106
N 10.79318424 1.46407077 25.72118118 -0.00171332 -0.00070450 -0.00256106
N 9.71273709 8.47863317 21.17737719 -0.00383659 0.00856927 0.01018228
N 7.85608131 15.08908245 1.14604560 0.00400604 0.00346697 -0.00780503
N 8.55550854 13.47167958 5.82478903 -0.00173157 0.00683381 -0.00338456
N 9.54005196 18.52271854 7.55262631 0.00020556 -0.00415886 -0.00649326
N 11.18290537 10.72573027 3.61289519 -0.00058091 -0.00003743 0.00327975
N 9.04728437 13.14953063 1.43103646 -0.00278531 -0.00487988 0.00074065
N 7.35197909 15.47885491 6.25039312 -0.00008042 -0.00546160 0.00207677
N 10.84934183 10.54988471 7.51932531 0.00490700 -0.00902459 -0.00396876
N 9.74114108 18.26702686 2.75747954 -0.00124272 -0.00145150 -0.00239912
N 7.45817945 15.09914187 10.43868521 0.00691059 -0.00162129 -0.00098684
N 9.25808177 13.89474017 14.93352469 -0.00222002 0.00871196 0.00234246
N 9.55323950 18.83592133 16.96097369 0.00724269 -0.00256635 -0.00177836
N 10.87212225 10.16372122 12.91999193 -0.00246713 -0.00205910 0.00301092
N 8.85864477 13.27040753 10.49126315 -0.00215126 0.00054474 0.00056222
N 7.82722971 15.73084186 15.11584515 0.00070125 -0.00806653 0.00251274
N 10.67895607 10.76604230 16.94783119 -0.00007394 -0.00174512 0.00609336
N 9.58527541 18.18082520 12.16073498 0.00332877 -0.00057223 0.00131961
N 7.60944542 15.07640907 19.12426302 0.00619284 -0.00154365 -0.00315848
N 8.83822607 13.72372875 23.84436073 0.00457197 -0.00079165 0.00807750
N 9.21114301 18.78337780 25.84945291 0.00030864 -0.00047839 -0.00236797
N 10.72285868 10.53814191 21.58577943 0.00225130 -0.00497535 0.00184805
N 8.95163517 13.23925042 19.52415284 0.00050891 0.00049525 -0.00461173
N 7.41163852 15.59186866 24.12602865 -0.00080677 -0.00108960 0.00075864
N 10.67863620 10.75127591 25.57581646 0.00027013 0.00197918 -0.00141378
N 9.46515963 18.56189676 21.10093752 0.00602651 -0.00471990 0.00236088
N 7.05674120 24.69860542 1.10475086 0.00011988 -0.00129555 -0.00176265
N 8.66238928 23.40150476 5.68343161 0.00640499 0.00042156 0.00111409
N 9.34153523 28.37032636 8.33635655 0.00161710 0.00702406 0.00730631
N 10.69709825 20.36124026 3.24134587 -0.00364957 -0.01108927 -0.00433772
N 8.16278609 22.72499281 1.68415099 0.00457676 -0.00028295 -0.00049337
N 7.67700699 25.32230212 6.32291893 -0.00209892 0.00153457 -0.00150241
N 10.61517976 20.52678887 7.39957246 0.00221565 0.00044665 0.00165616
N 9.42889955 27.68389794 3.06975304 -0.00147004 0.00205527 0.00073179
N 7.83462589 24.95917778 10.16577443 0.00056219 0.01287491 -0.00610081
N 9.04709397 23.45702309 14.81850300 -0.00914835 0.00218950 -0.00145170
N 9.39554355 28.34204031 17.09274110 -0.00594790 -0.00035417 -0.00097842
N 10.82495804 20.13003301 12.47552586 0.00064090 0.00411145 0.00181911
N 9.00555492 23.00092603 10.46497306 -0.00225309 -0.00735244 -0.00105444
N 7.58788862 25.19422476 15.10065587 0.00355740 -0.00204507 -0.00335666
N 10.78648332 20.77839399 16.75221968 0.00506017 -0.00294126 -0.00317118
N 9.60243385 27.55504479 12.35166150 0.00335365 -0.00354051 0.00092535
N 7.73500788 24.86582944 19.22334790 -0.00892566 -0.00418235 -0.00954548
N 8.92574876 23.66471881 24.19541093 0.00379492 0.00254295 0.00056740
N 9.30112525 28.60897356 26.17924698 -0.00104894 -0.00193350 -0.00391295
N 10.83725882 20.32663685 21.60125842 0.00536178 0.00735012 0.00305743
N 8.98162785 22.98989160 19.62281554 0.00166929 -0.00389176 0.00284327
N 7.53014776 25.43599042 24.26531698 0.00707225 -0.00431344 -0.00469222
N 10.50625697 20.68438976 25.81424058 0.00352310 0.00007974 0.00070671
N 9.73504258 27.75407607 21.43337616 0.00036815 0.00397646 0.00618019
N 11.10907353 5.73237852 1.29458288 -0.00257322 -0.00260573 -0.00187670
N 12.66298138 4.28183581 5.96118404 -0.00384723 0.00679899 -0.00535312
N 13.20420589 8.64796279 7.87778114 -0.00107700 0.00259138 0.00806286
N 14.16206489 0.73040060 3.52555071 0.00926585 -0.00386849 -0.00568368
N 12.30622618 3.74387833 1.48992208 -0.00178910 0.00106095 0.00042300
N 11.40579921 6.23338692 5.71587585 0.00538719 0.00214318 0.01131331
N 14.28902010 0.90037130 7.37047543 -0.00264750 0.00109675 -0.00093339
N 13.38527396 8.41443966 2.93450110 -0.00074919 0.00593996 -0.00052947
N 11.09403909 5.56483426 10.40685844 -0.00662793 0.00554052 0.00067778
N 12.63351399 4.10786269 14.94129855 0.00505734 -0.01011241 -0.00546543
N 13.56587554 9.33105985 16.94011239 -0.00074763 0.00617743 -0.00100761
N 14.24714659 0.78304669 12.28345528 -0.00094965 -0.00246074 -0.00158429
N 12.43456405 3.66258116 10.58352854 -0.00303482 -0.00744123 -0.00162869
N 11.52939891 6.23348153 15.47820194 0.00262364 -0.00034959 0.00511027
N 14.62909595 1.32018698 16.41985288 -0.00419783 0.00387986 -0.00366879
N 12.90215033 8.32153196 12.11498595 -0.00479176 -0.00432960 -0.00211761
N 11.54035650 5.41934293 19.48052251 0.00578752 -0.00040691 -0.00072780
N 12.81724466 4.37062781 24.02038237 0.00416142 -0.00211010 0.01033139
N 12.96287273 9.13720194 26.34066076 -0.00000697 0.00504169 -0.00639573
N 14.42849023 0.92785531 21.50132016 -0.00140542 0.00120743 0.00880667
N 12.65529791 3.42524749 19.73226165 0.00222567 0.00118242 -0.00107662
N 11.59227671 6.18291702 24.51951581 -0.00318813 -0.00623695 0.00085760
N 14.30503373 1.43471232 25.94776665 -0.00486193 -0.00191980 -0.00192178
N 13.32432676 8.40704769 21.17430361 0.00199040 0.00361584 0.00442223
N 11.07605384 15.18097990 1.39276583 -0.00334002 0.00565907 0.00181213
N 12.86906760 13.75362849 5.53287980 0.00522676 0.00518594 0.00247685
N 12.95353230 18.53988730 7.76225267 -0.00150673 0.00457375 -0.00361728
N 14.64964199 10.30777963 3.07952777 0.00339402 0.00111666 -0.00722736
N 12.57135613 13.38579684 1.48169078 0.00331711 0.00043687 0.01167879
N 11.50885852 15.50848794 5.64137657 0.00466798 -0.00187330 0.00351160
N 14.50265140 10.65393019 7.63064427 -0.00339043 -0.00165860 -0.00468649
N 13.57265431 18.04881359 2.88288206 -0.00549210 0.00288827 -0.00759989
N 11.21761530 14.85365743 9.89586356 -0.00098317 0.00292098 0.00420411
N 12.47409805 13.78830017 14.69310428 -0.00097513 0.00239404 0.00352126
N 13.36381231 18.59603226 17.04572605 0.00248232 0.00205550 -0.00615243
N 14.31609392 10.16565224 12.52468491 0.00137997 0.00388244 -0.00163550
N 11.98743569 12.68500997 10.32781216 0.00198307 0.00033650 0.00207618
N 11.67252841 15.89995638 15.07063205 -0.00146784 0.00342911 -0.00345984
N 14.70330947 11.33018777 16.82773863 0.00345238 -0.00025232 -0.00229701
N 13.06793061 18.21954708 12.04298364 0.00292111 0.00060781 0.00504912
N 11.17106246 15.11293489 19.31941296 -0.00180474 0.00403599 -0.00016245
N 12.54802587 13.88375239 24.09783059 0.00327983 0.00529303 0.00195936
N 12.63994172 18.84050747 26.14687821 -0.00779772 -0.00083127 0.00206578
N 14.31576907 10.47497627 21.75105846 0.00201841 0.00205083 -0.00548100
N 12.63318680 13.43187730 19.50550644 -0.00529741 -0.00643491 -0.00292658
N 11.28443053 15.81545151 24.31563138 -0.00004224 -0.00344295 -0.00299611
N 14.21974130 11.08203155 26.34119155 -0.00353940 -0.00139831 -0.00492774
N 13.40468547 17.76808447 21.41298080 0.00054440 0.00285094 -0.00111282
N 10.77246828 25.07638380 0.55621484 0.00265183 -0.00129538 0.00987065
N 12.07624382 23.48529148 5.60002267 0.00148280 0.00033368 0.00561752
N 12.89879867 28.15973999 8.01416321 0.00088337 -0.00060812 0.00506935
N 14.21192000 20.24863164 3.35360187 -0.00217721 0.00343523 0.00506685
N 12.14066843 23.35295189 1.12035185 -0.00017391 0.00144311 -0.00276197
N 11.06332598 25.51828646 6.22354822 -0.00110454 0.00068875 -0.00031772
N 14.03451985 20.52142572 7.42155595 -0.00001307 -0.00446175 0.00326832
N 13.22220730 27.62636390 3.30227384 -0.00289813 0.00183863 0.00186401
N 11.29960357 24.69718429 10.39593715 0.00454364 -0.00440007 -0.00266213
N 12.49337536 23.60552420 14.88412806 0.00077451 0.00066473 -0.00319794
N 13.26942684 28.47224949 16.93516383 0.00741450 -0.00239137 0.00450526
N 14.46312704 20.09732530 12.47572341 0.00446851 0.00055405 0.00046366
N 12.50537968 22.66038994 10.70079521 0.00229292 0.00027225 0.00039122
N 11.60541949 25.68451577 15.43406213 0.00583082 0.00207487 0.00065450
N 14.58609149 20.64818764 16.90782508 0.00254955 -0.00312474 0.00200122
N 13.27120162 27.68353694 12.03855102 -0.00250032 0.00060326 0.01106423
N 11.19648597 24.67915340 19.42782100 -0.00126176 -0.00210295 0.00306911
N 12.86469183 23.69622549 23.63403276 -0.00371860 -0.00154805 0.00065447
N 13.17691538 28.44068944 26.17470872 0.00130364 0.00261940 -0.00282937
N 14.63510383 19.72563786 21.59990727 0.00379513 -0.00219115 0.00231724
N 12.56878194 22.73841126 19.65328295 -0.00264437 0.00350003 -0.00361017
N 11.42515630 25.36376960 24.26431873 -0.00312067 0.00274853 -0.00588171
N 14.00581853 20.66895748 25.67852954 0.00072366 -0.00410589 0.01104696
N 13.44116445 27.91529463 20.94479278 0.00286254 -0.00791785 -0.00681219
N 14.94898476 5.68146523 1.10845272 0.00085701 0.00656422 0.00570350
N 16.44794678 4.05073859 5.76689924 -0.00923842 -0.00379382 0.00419697
N 16.83432872 8.63737772 7.80464896 -0.00157948 0.00236420 -0.00531298
N 18.25302797 0.81045107 3.78417943 -0.00927006 0.00161002 -0.00038489
N 16.14078335 3.75766589 1.71793180 -0.00055323 -0.00219795 -0.00753741
N 15.12722344 5.93330657 5.95205739 0.00095316 -0.00315581 0.00234520
N 17.73315869 1.20196915 7.99467971 -0.00278747 0.00130505 -0.00457372
N 17.00960723 8.44654018 2.99421455 -0.00483696 0.00708820 0.00333162
N 15.13788838 5.70935800 9.96074386 0.00289871 0.00221014 -0.00209296
N 16.17571163 4.20096842 14.64161300 -0.00363406 0.00532615 -0.00235984
N 16.69000919 8.98739100 17.00633010 0.00632989 0.00241220 -0.00469508
N 18.27687921 0.44701574 12.14514512 0.00017872 0.00074996 0.00294867
N 16.04355187 3.66633635 10.29909347 -0.00635974 -0.00217128 0.00685780
N 14.94085995 6.06103742 15.10931641 0.00682493 0.00028257 -0.00525986
N 17.73249933 1.21182004 16.75312772 0.00663035 0.00372696 0.00064886
N 16.96707113 8.14585062 12.37041438 0.00183560 0.00506740 -0.00460756
N 15.07937055 5.09886032 19.50228790 -0.00159602 -0.00040674 0.00536773
N 16.47848902 4.37221750 24.25719926 0.00343506 -0.00845539 0.00233557
N 16.99690747 8.95055072 25.95440114 -0.00332779 0.00033801 -0.00128502
N 18.16777265 0.49042267 22.39162676 0.00228673 0.00330066 -0.00302093
N 16.54720476 3.33122038 19.24966910 0.00397710 -0.00369947 0.00092681
N 14.98705004 6.21829837 24.30769474 0.00336093 0.00417950 0.00037331
N 17.84593718 1.11276609 26.24730966 0.00246967 0.00609098 0.00645133
N 17.15910406 8.47708897 21.32765999 0.00238270 -0.00426587 -0.00036027
N 15.10247885 15.25713122 1.43442628 0.00055895 0.00035461 -0.00183896
N 16.45291471 13.80137396 6.21725022 -0.00183369 0.00287688 -0.00169089
N 16.74069760 18.72304851 8.08473680 0.00601036 -0.00077026 -0.00025002
N 17.90761655 10.56505049 3.20045337 0.00379164 0.00033704 -0.00354411
N 16.37089704 13.33563366 1.67971858 0.00029156 -0.00277873 0.00300903
N 15.22067084 15.74312273 6.39489902 0.00592897 -0.00213581 0.01113613
N 17.59299607 10.75222692 7.51779011 0.00219763 0.00808245 0.00422000
N 17.12436336 18.16950753 3.32215438 -0.00028515 -0.00475593 -0.00585650
N 14.77139095 15.06089398 10.42251132 0.00304881 0.00192313 0.00198852
N 16.76090616 13.78498658 14.77050845 -0.00140678 0.00202097 0.00113223
N 16.83928381 18.43301114 17.07318677 -0.00718149 0.00514068 0.00569735
N 18.16918460 10.19440556 12.37863407 0.00061941 -0.00084143 -0.00459860
N 15.87934800 12.99793145 10.65547227 0.00311744 -0.00835814 -0.00045925
N 15.20230199 15.57189093 15.06827976 0.00103154 0.00341341 0.00026551
N 18.24503218 10.70743255 16.70931577 -0.00459188 -0.01070477 0.00064129
N 16.97637433 18.28646627 12.36319529 0.00370383 0.00938286 0.00319781
N 15.08071931 15.32972133 19.23325461 -0.00195132 0.00507596 0.00125433
N 16.40094330 13.70676212 23.86682858 -0.00054507 0.00274195 -0.00032658
N 16.49167126 18.57105821 26.45273467 -0.00442774 -0.00474906 -0.00518351
N 18.34200850 10.39759202 21.72681048 0.00265175 0.00144480 0.00267789
N 16.28843297 13.53071185 19.85957359 0.00388817 0.00032139 -0.00788466
N 14.95266687 15.43346617 24.33562348 0.00550410 0.00024372 0.00383862
N 17.91663028 11.13380960 25.90898810 0.00231420 0.00191334 0.00352923
N 16.75977005 17.83160020 21.53344119 -0.00314839 -0.00415555 0.00362782
N 14.59831321 24.82333883 1.54196475 0.00052174 -0.00100718 0.00162534
N 16.35389044 23.53650973 6.14920179 -0.00350834 -0.00139918 0.00226224
N 16.76586775 28.14900401 8.41725041 0.00007258 -0.00126326 -0.00696878
N 18.32980430 20.13025335 3.71563251 0.00561744 -0.00210398 0.00138589
N 15.90707966 22.98658980 1.21397841 0.00323645 0.00354747 0.00070623
N 15.14732396 25.51746122 6.30678616 0.00212003 -0.00377765 -0.00221992
N 17.91046915 20.74874086 7.92468733 0.00645546 -0.00416271 -0.00064390
N 17.04561387 27.85897518 3.39390600 -0.00029517 0.00739692 0.00296804
N 14.78918071 24.62552422 10.35500124 0.00264672 0.00447668 -0.00274179
N 16.56238229 23.70667409 14.86642589 0.00385821 -0.00042208 0.00008477
N 17.11859841 27.93783823 17.16036870 0.00826399 0.00095248 -0.00071837
N 18.19314486 20.15424490 12.60353367 -0.00458610 0.01020786 -0.00037050
N 16.17426044 22.79092982 10.99343263 0.00069127 0.00167242 -0.00061816
N 15.03521910 25.44961105 15.36390959 -0.00360262 0.00105802 0.00795994
N 17.98297186 20.55121539 16.83811344 -0.00408414 -0.00312877 0.00022747
N 16.66350161 27.76323154 12.57359310 0.00196414 -0.00136538 -0.00140890
N 14.67191792 24.84332343 19.38052840 0.00148321 0.00505462 -0.00191743
N 16.10081467 23.62258784 24.10918686 -0.00286018 0.00067309 0.00374181
N 16.71318675 28.06217229 26.67137428 -0.00546281 -0.00046037 -0.00405472
N 18.09290072 19.59512821 22.14584572 -0.00228242 -0.00097725 0.00293171
N 15.94203299 22.95716283 19.79071959 0.00521135 0.00131328 -0.00173785
N 15.05313203 25.59992097 24.27962972 -0.00403442 0.00298430 0.00085960
N 17.60222938 20.52905333 26.23045954 -0.00015491 -0.00626611 0.00119143
N 16.69557406 27.85702166 21.38531930 0.00336869 0.00299258 0.00035722
N 18.53394556 5.75434459 1.07903230 -0.00049349 0.00427858 0.00330935
N 20.10033177 4.14785386 5.66613490 0.00252067 -0.00570835 -0.01180338
N 20.46728558 8.85821464 8.00738519 -0.00027181 -0.00508128 0.00118871
N 0.02703950 0.56573421 3.58527101 -0.00033968 -0.00137394 0.00097588
N 19.30158878 3.62875186 1.60363051 0.00624809 0.00310747 0.00052673
N 18.59668512 5.99938965 6.13307555 0.00304793 -0.00414823 0.00411503
N 21.48571338 0.99820710 7.50900906 0.00079142 0.00156437 -0.00381116
N 20.75559901 8.38213372 3.11059452 -0.00176264 -0.00422816 -0.00037774
N 18.82651557 5.32625527 10.45244293 0.00419224 0.00035105 -0.00641995
N 19.98914509 4.13403634 14.92799117 -0.00380907 -0.00550008 -0.00070024
N 20.44011799 8.79609683 17.59819223 -0.00130352 -0.00166243 0.00388241
N 21.86457524 0.42224979 12.46953817 -0.00400835 0.00234515 0.00568878
N 19.84141316 3.32778177 10.74358534 -0.00375472 0.00357204 -0.00386909
N 18.59786474 5.96104111 15.28869309 -0.00265743 0.00273267 0.00380493
N 21.70128195 1.08604322 16.96281649 0.00037862 0.00167597 -0.00158076
N 20.69948938 8.53789938 12.64687567 0.00435164 0.00181514 0.00109227
N 19.42017990 5.62441203 19.34082466 0.00027845 -0.00161858 0.00013689
N 19.98069742 4.03161166 23.78427535 0.00010876 -0.00104576 -0.00123894
N 20.38355258 9.07863202 26.02336068 -0.01095184 -0.00263227 0.00352702
N 21.83895294 0.70932307 22.02552223 -0.00080505 0.00048191 0.00094902
N 19.98933377 3.50557024 19.94662022 -0.00231026 -0.00295169 0.00120506
N 18.77637290 5.97795496 24.19543255 -0.00734274 -0.00399266 -0.00196601
N 21.45079074 1.33744261 26.30400090 0.00424987 0.00073495 -0.00248720
N 20.77963833 8.61539608 21.46685442 0.00154013 0.00351709 0.00110288
N 18.63077408 15.01189640 1.51930646 0.00100471 0.00135036 -0.00073381
N 19.46574509 13.62680696 5.78180754 0.00294371 -0.00731681 0.00168107
N 20.18153489 18.40098101 7.98419488 -0.00046633 -0.00085104 -0.00125692
N 21.84423653 10.29317133 3.18928973 -0.00108838 -0.00303656 0.00126924
N 19.96364815 13.12867915 1.54271239 0.00137074 0.00213748 0.00259770
N 18.68894849 15.83970517 6.02860260 0.00152197 0.00558217 -0.00550310
N 21.45196628 10.96084254 7.85786429 0.00255435 -0.00122499 0.00511392
N 20.49620444 17.93822341 3.35418623 0.00355293 0.00226605 -0.00183486
N 18.42292251 15.16946882 10.31326652 0.00418998 -0.00258533 0.00235713
N 20.11582188 13.72219791 14.61470954 0.00019755 -0.00345859 -0.00116915
N 20.57904823 18.69272105 16.95040037 0.00207854 -0.00075440 -0.00215663
N 0.12987946 10.37006680 12.87226882 -0.00038245 0.00139609 0.00377192
N 19.68842011 13.30997809 10.55307343 -0.00449608 0.00163422 0.00478574
N 19.01851002 15.74177394 14.83328445 0.00127041 0.00244303 0.00241289
N 21.66475334 10.67829622 17.02872228 0.00290642 -0.00637990 -0.00246228
N 20.61818503 18.27686387 12.06017590 -0.00293892 0.00463054 -0.00535416
N 18.83136431 15.43851181 18.89054684 -0.00077004 -0.00616075 0.00779907
N 19.96601935 13.93420605 24.04691918 -0.00845122 0.00312608 -0.00233718
N 20.53547574 18.45210363 26.61521640 -0.00085949 -0.00086698 0.00277900
N 22.00372408 10.45530089 21.93608210 -0.00411549 -0.00312760 0.00378934
N 19.71229185 13.57068760 19.85290138 -0.00104787 -0.00458322 -0.00001453
N 18.59111434 15.76070782 24.32869476 0.00417006 -0.00142580 0.00107303
N 21.83602992 10.80965971 25.73546571 -0.00510282 0.00251150 -0.00283630
N 20.80891083 18.06749948 21.28754354 0.00616964 0.00275338 0.00049061
N 18.20190255 24.86352272 1.42293308 0.00036325 0.00064880 -0.00337128
N 19.91015508 23.38969801 5.87422092 -0.00210668 0.00165599 -0.00235074
N 19.99865728 28.30886289 8.10633934 -0.00214963 0.00293819 0.00429243
N 21.74168783 19.89305419 3.60235378 -0.00062029 0.00476563 -0.00201751
N 19.54717749 22.87546452 1.40506651 -0.00148199 -0.00209543 0.00311058
N 18.66139840 25.27903794 6.17762073 0.00656188 -0.00041325 -0.00119692