1728
Time=32000.00000001 pbc="T T T" Lattice="22.08840660 0.00000000 0.00000000 0.00000000 28.84681791 0.00000000 0.00000000 0.00000000 27.45295029" energy=-10389.48860836 virial="-2.71660308 -3.30391521 -22.21181236 -3.30391521 44.97095044 0.43894717 -22.21181236 0.43894717 33.27560691" stress="0.00217443 -0.00009689 -0.00119000 -0.00009689 0.00523579 0.00002019 -0.00119000 0.00002019 0.00493654" Properties=species:S:1:pos:R:3:vel:R:3
N 0.15217560 5.23165940 1.22322880 -0.00561542 -0.00150809 0.00105360
N 1.51972092 4.23884974 5.85211957 0.00118204 -0.00559001 -0.00439556
N 2.55246041 9.34467155 7.95461501 -0.00294773 0.00770709 0.00267943
N 3.20150400 0.61290770 3.40374876 -0.00739509 0.00093273 0.00305334
N 1.51856193 3.29559053 1.35803601 -0.00546912 0.01274121 -0.00266213
N 0.47069382 6.24567053 6.02548728 -0.00182789 -0.00673304 0.00480455
N 3.07631775 1.22283737 7.41794874 0.00112874 -0.00109491 0.00202269
N 2.11719502 8.48137667 2.84167940 0.00345052 0.01062142 0.00070986
N 0.27316650 5.45335007 10.53651878 0.00130068 -0.00516597 -0.00537226
N 1.60590213 4.47084364 15.13526942 0.00138140 -0.00172070 0.00317695
N 2.17017977 8.80719655 17.36408408 0.00028392 0.00322917 -0.00861851
N 3.43109318 0.62893368 12.43737472 0.00614727 0.00648423 0.00332029
N 1.79047087 3.69099764 10.64710844 0.00111967 -0.00546163 0.00376218
N 0.43884860 6.39833025 15.25798710 0.00167961 -0.00664253 -0.00598125
N 3.50641673 1.25039238 16.68855916 0.00561632 0.00246175 0.00385570
N 2.63298656 8.36576674 12.30270789 0.00843295 -0.00682148 -0.00223776
N 0.24476072 5.72286367 19.45035862 -0.00241289 0.00080605 -0.00237357
N 1.25134500 3.96818056 23.98213912 0.00928888 0.00551029 -0.00128932
N 1.87234657 9.04636004 26.03643849 0.00085665 0.00139866 0.00252519
N 3.21984701 0.79356968 21.46180130 -0.00076717 -0.00668555 0.00387129
N 1.47043157 3.70546298 19.66521500 0.00701515 0.00267606 -0.00361453
N 0.34997524 6.11960962 24.09295378 -0.00014862 -0.00245067 0.00631149
N 3.23902158 1.50048114 25.84043506 -0.00738347 -0.00024037 -0.00090335
N 2.14994490 8.30655490 21.29620799 -0.00012195 0.00288277 0.00281678
N 0.41796110 15.26630720 0.65533848 -0.00160414 0.00216625 -0.00260581
N 1.68981063 14.06055697 5.21046620 -0.00599571 0.00400770 0.00629953
N 1.75638064 18.66301828 7.87491160 0.00182136 0.00031555 0.00106122
N 2.75455441 10.43018770 3.78665774 -0.00105609 0.00636912 0.00001549
N 1.23248942 13.05814244 1.02438278 0.00421813 -0.00317343 0.00033731
N 0.08594920 15.45505392 6.06097874 0.00713742 -0.00362648 -0.00148709
N 3.68104420 11.28385172 8.01598199 -0.00187890 0.00409747 0.00146502
N 1.91285657 18.01620690 3.07882196 -0.00067450 0.00039905 -0.00042948
N 0.29267097 15.31219633 10.06563072 0.00225791 0.00410350 0.00318040
N 1.99476257 13.93820431 14.75759374 -0.00259502 0.00059766 0.00805118
N 2.21528139 18.79955511 16.78707554 -0.00346880 -0.00106082 0.00062720
N 3.82240607 10.32909128 12.52374294 0.00208283 -0.00143248 0.00497510
N 1.65367914 13.33318322 10.29975214 -0.00336556 0.00887578 -0.00989272
N 0.46698480 15.53153812 15.45866612 0.00266438 0.00656187 0.00420139
N 3.38199556 10.71119273 16.85236977 0.00362534 0.00505096 0.00655730
N 2.29552821 18.03231956 12.62358654 0.00179376 0.00438839 0.00530515
N 0.08474555 15.39205676 19.26498191 0.00588784 0.00504518 -0.00085146
N 1.91634983 13.90670498 23.91768166 -0.00506932 0.00034341 0.00115208
N 1.89712130 18.62759390 26.04711232 0.00021795 -0.00037293 -0.00185799
N 3.18643837 10.31566464 21.74329962 0.00071952 0.00286241 0.00590945
N 1.33502092 13.45073063 19.69136693 -0.00516642 0.00059594 -0.00442299
N 0.34691332 15.64170059 23.73381025 -0.00098014 -0.00232685 -0.00515576
N 3.26915008 10.95717259 25.84223784 0.00210811 0.00070397 0.00069519
N 2.26371137 18.15153078 21.05020066 -0.00392116 -0.00215945 0.00729846
N 22.05804391 24.56119514 1.60319061 -0.00071180 -0.00654272 0.00042728
N 1.96201472 23.51019238 5.80838526 0.01380233 -0.00216907 -0.00314091
N 1.96056959 28.08419143 8.16920912 0.00007597 -0.00281882 -0.00516011
N 3.26612435 19.87973423 3.35256867 0.00474774 -0.00133783 -0.00032582
N 1.33018071 22.78611828 1.99548744 -0.00291814 0.00568503 -0.00406778
N 0.94791758 25.58510424 6.20097006 0.00733434 -0.00391588 0.00718960
N 3.17943793 20.45433561 7.69128130 -0.00367492 -0.00442299 0.00654020
N 2.05073476 27.45233047 3.31317312 -0.00700836 -0.00403606 -0.00450295
N 0.26567804 24.66610025 10.29690653 0.00084656 -0.00077174 -0.00438844
N 1.73179267 23.39415308 15.24361709 0.00808271 -0.00581703 0.00065495
N 2.35265393 28.18382637 17.21580915 0.00234391 -0.00065553 -0.00434819
N 3.63380716 19.82101785 12.79423363 0.00206876 0.00403614 -0.00691329
N 1.26898090 22.54549495 10.63719524 -0.00134530 -0.00287056 -0.00402045
N 0.47076281 25.28609934 15.40312935 -0.00073582 -0.00664162 0.00058298
N 3.68723418 20.53014518 16.88029898 0.00423459 -0.00237643 0.00269897
N 2.59940185 27.33013386 12.21577892 -0.00544040 -0.00334366 0.00153421
N 0.20862352 24.67808853 19.72479897 -0.00315656 -0.00215849 0.00189717
N 1.67813471 23.20542965 24.39798438 0.00205692 -0.00221042 0.00112949
N 2.31542015 28.18941248 26.36034945 -0.00317225 0.00598842 -0.00730189
N 3.65141053 19.92655526 21.51155679 0.00085752 -0.00458636 -0.00088352
N 1.62093145 22.84923920 19.88415802 0.00064514 0.00006315 -0.00402680
N 0.67653892 25.35236155 24.68805402 -0.00056806 -0.00125081 -0.00351783
N 3.47792616 20.28583743 25.91722041 -0.00825956 0.00190855 0.00334466
N 2.38543269 27.38806403 21.27920784 0.00028457 0.00021797 0.00918022
N 3.91333108 5.59673415 1.03796925 -0.00205781 0.00370292 0.00659629
N 4.97176515 3.87242996 5.72630654 -0.00060432 -0.00155252 -0.00242487
N 5.65948607 8.92375794 7.53479926 0.00254563 0.00046300 0.00239371
N 7.13058385 0.74114835 3.64787152 0.00353905 0.00072964 -0.00057378
N 5.28390730 3.74801273 1.09902653 0.00079329 0.00415697 0.00478833
N 3.99554292 5.90162075 6.04747837 0.00183307 -0.00514984 -0.00550790
N 6.88907878 1.35286763 7.99116452 0.00712028 0.00337538 -0.00345879
N 5.94580420 8.20609168 3.12001839 -0.00188507 -0.00105784 -0.00127207
N 4.02584924 5.68546019 10.18173623 0.00223668 0.00299162 -0.00093649
N 5.30832930 3.99097381 14.63267049 0.00092220 0.00375863 -0.00128735
N 5.86347680 9.27184390 17.01274012 -0.00054026 0.00147131 -0.00082166
N 6.44337729 0.54972152 12.53238546 0.00135513 0.00221288 -0.00033860
N 5.16218966 3.68067719 10.43594164 0.00064801 0.00514204 -0.00048727
N 4.38566105 6.06151012 15.07969203 -0.00096825 0.00240259 0.00207654
N 7.04396284 1.63561316 16.91581813 0.00415544 0.00307783 -0.00106862
N 6.14058933 8.36715843 12.23425164 -0.00429247 -0.00016083 0.00231496
N 3.67645872 5.48084922 19.05462678 -0.00007486 -0.00482734 0.00654001
N 5.39743653 4.25620546 23.95356487 -0.00407620 0.00542869 -0.00485779
N 5.73138905 8.89285713 26.10009480 0.00306281 -0.00620791 0.00783251
N 6.92021551 0.59605149 21.52533101 0.00789363 -0.00012786 0.00894450
N 5.09115581 3.71934013 19.67094249 0.00035273 -0.00909494 -0.00216875
N 4.13415208 6.05429779 24.33413187 -0.00021897 0.00190837 0.00001692
N 6.96863329 1.48734271 25.97397305 -0.00719336 -0.00707379 -0.00974661
N 6.10821866 8.30604397 21.13971195 0.00012191 -0.00290030 -0.00973591
N 3.48257093 14.99588431 1.14760757 -0.00018211 -0.00079464 0.00243850
N 5.41430555 13.66451066 5.73026718 0.00052871 0.00218035 -0.00365732
N 5.86345263 18.29583623 8.01158727 0.00003466 0.00512553 -0.00870327
N 6.52212012 10.39951794 3.34091026 0.00001146 -0.00110516 -0.00058987
N 4.62071720 13.05246129 1.66387065 -0.00562534 -0.00223904 0.00085701
N 4.47141594 15.72592188 6.12493517 0.00500108 -0.00039815 -0.01198037
N 7.19343346 10.61833284 7.25323853 0.00095716 0.00101838 0.00018950
N 5.62829891 18.03099778 3.13095030 0.00004907 0.00256657 -0.00281003
N 4.02288362 15.16931275 10.34226712 0.00367795 -0.00632675 0.00345603
N 5.34336313 13.67000022 14.65073638 -0.00726975 0.00256272 -0.00176446
N 5.85060054 18.57913280 17.25982778 0.00220485 -0.00572989 0.00241541
N 7.15204232 10.45596584 12.64928280 0.00290469 -0.00052377 0.00592485
N 5.04141783 13.20144146 10.79797957 0.00065162 -0.00427974 -0.00470866
N 4.16731516 15.60215328 15.31164866 -0.00003629 -0.00557371 0.00099754
N 7.04523141 11.20962972 16.87026518 -0.00285823 0.00383654 0.00445581
N 5.95443390 18.07806686 12.16680488 -0.00174591 0.00523310 0.00024955
N 4.60266325 15.36568690 19.15763523 0.00052198 0.00109012 0.00611246
N 5.21278165 13.76327311 23.86144652 0.00058714 -0.00156313 0.00065709
N 5.88958445 18.52460291 26.16372197 0.00590521 -0.00508664 -0.00732472
N 7.02691558 10.43026791 21.64866931 -0.00273019 -0.00277627 -0.00080136
N 5.11255038 13.13774259 19.33039609 0.00443072 0.01378329 -0.00466817
N 4.13780116 15.87278879 24.24435450 0.00278006 -0.00305439 -0.00763767
N 6.91998560 10.86279745 26.02374688 0.00163090 -0.00246291 -0.00609762
N 5.96097565 17.94487084 21.51816627 0.00527185 -0.00279598 0.00359652
N 3.76244151 24.87629415 1.10320747 -0.00051039 0.00012398 -0.00231830
N 5.08275934 23.18619135 5.23529885 0.00451461 0.00050240 0.00430162
N 5.63762475 28.24363256 7.98269049 -0.00151450 0.00446251 0.00711034
N 6.89264811 19.90926891 3.45766713 0.00343343 0.00331747 -0.00139178
N 4.98559452 22.92891950 1.02010918 0.00356109 -0.00434406 -0.00406748
N 4.58000099 25.31626910 6.00751239 -0.00390612 0.00140359 -0.00173096
N 7.23863161 20.21453750 7.91659909 -0.00397966 0.00061246 0.00279356
N 5.96973727 27.65125755 3.12389066 0.00388278 0.00731207 -0.00470565
N 3.94967964 24.62475008 9.81706209 0.00099882 -0.00261540 -0.00058988
N 5.23879118 23.58873711 14.73770836 0.00428421 -0.00289252 -0.00523912
N 6.03397187 28.42099435 17.08888762 -0.00507725 -0.00231903 0.00038646
N 7.38732522 19.86535408 12.47675039 0.00560520 -0.00405798 0.00885948
N 5.04223678 22.74145088 10.55998878 0.00236729 0.00204290 -0.00075645
N 4.02107440 25.52487002 15.11812428 -0.00105555 0.00532327 0.00013117
N 7.28079405 20.36503113 16.84053960 -0.00129890 -0.00465709 0.00201187
N 5.75157284 27.18051629 12.19281578 0.00307480 -0.00811268 0.00191751
N 4.13486785 24.54969957 19.41245430 0.00169562 0.00066571 -0.00762598
N 5.16941431 23.44662156 23.94732799 -0.00166516 -0.00025264 0.00384144
N 5.75746209 28.42544050 26.38283535 0.00507541 0.00434676 -0.00216919
N 7.29179610 19.81436861 21.76453804 0.00907960 -0.00251129 0.00909041
N 5.19232286 22.59394580 19.78097606 0.00005791 -0.00171136 0.00096154
N 3.94557923 25.42591033 24.23620857 -0.00108768 0.00060470 -0.00470575
N 6.80175793 20.63309594 25.93757824 -0.00809668 0.00218492 0.00678448
N 5.63047416 27.62216530 21.43675019 -0.00406733 0.00017599 0.00740151
N 7.71214657 5.48608971 0.96514690 -0.00578241 -0.00114708 -0.00184292
N 8.78001757 4.22089756 5.63789135 -0.00020578 -0.00379653 -0.00634722
N 9.51371387 8.73166132 8.11852955 0.00057722 -0.00076364 0.00266180
N 10.85266268 0.63537671 3.63285213 0.00199659 0.00063808 -0.00214567
N 8.67980881 3.43699696 1.36318075 -0.00111377 0.00374894 0.00176862
N 7.42133795 6.00922124 6.10965800 0.00386931 -0.00044039 0.00111907
N 10.49916399 1.43934313 7.82223571 -0.00116856 -0.00370967 0.00727731
N 9.64113836 7.80613503 3.37719069 -0.00113263 -0.00150752 -0.00097662
N 7.73094103 5.67022768 10.07934521 0.00221610 -0.00335060 0.00008536
N 9.07333143 4.13726390 14.61981704 -0.00312181 0.00170269 -0.00142734
N 9.47076636 9.04746262 16.88790450 0.00568036 -0.00546791 -0.00269640
N 10.51409608 0.74729923 12.81487029 0.00350505 0.00245572 0.00190169
N 8.27368340 3.46524819 10.54566722 -0.00100085 -0.00217694 0.00022798
N 7.63817969 5.94989180 15.03486638 0.00225535 -0.00700946 -0.00446402
N 10.74882772 1.25645784 16.66056286 0.00240416 -0.00195696 -0.00225982
N 9.67263770 8.31545181 12.04285511 0.00096111 0.00049954 -0.00277508
N 7.72796241 5.68587517 19.06447307 0.00072697 0.00194557 0.00699399
N 9.01249784 4.02147708 23.74446951 -0.00092952 0.00174000 0.00121606
N 9.65774788 8.71811319 26.36066912 0.00699834 0.00489768 -0.00348303
N 10.66210395 0.68667541 21.80018826 0.00007670 0.00454272 -0.00167282
N 8.86534287 3.68157646 19.67097772 -0.00443809 -0.00164914 0.00738380
N 7.83604764 5.96317467 24.08056314 0.00323366 0.00025165 -0.00250359
N 10.30201230 1.48808455 25.96988883 -0.00361473 0.00083048 -0.00168535
N 9.61537391 8.22718410 21.54005784 -0.00746627 -0.00471073 -0.00190229
N 7.32467964 14.98279857 1.42979071 -0.00544381 -0.00461590 -0.00113080
N 9.10830499 13.91005807 5.79493653 0.00022798 -0.00608396 0.00166533
N 9.55986404 18.41500325 7.92822069 -0.00449770 0.00405670 -0.00169940
N 10.48172148 9.96247304 3.28518195 0.00732452 0.00358871 0.00565771
N 8.55853584 13.01730375 1.64738379 0.00425214 0.00067549 -0.00100907
N 7.67051547 15.63056445 6.03929028 0.00051036 0.00344746 -0.00269612
N 10.72047914 10.67113497 7.71565358 -0.00194057 -0.00419559 -0.00280142
N 9.41294186 17.86324198 3.10735470 -0.00030807 0.00380139 -0.00135465
N 7.93987626 15.26941997 10.17993824 0.00286366 -0.00451892 0.00527278
N 8.89549642 13.75426094 14.88399025 -0.00020632 -0.00796946 -0.00764585
N 9.90917718 18.31884648 17.20806061 -0.00416641 0.00225296 -0.00595184
N 10.92611130 10.13135418 12.55669648 0.00673468 -0.00250200 0.00264627
N 8.86530527 13.26634456 10.71491414 -0.00288242 0.00544784 -0.00201846
N 8.01879012 15.94269646 15.24280861 -0.00369293 -0.00201972 -0.00206048
N 10.78450178 11.04199481 16.78587816 -0.00650725 0.00727114 0.00041990
N 9.58523592 18.14017916 12.04671943 -0.00151069 -0.00038692 0.00387195
N 7.56686473 14.96870888 19.59419268 0.00165776 0.00407186 0.00086320
N 8.62589406 13.79717355 24.04302034 -0.00029549 -0.00020075 -0.00597668
N 9.20424040 18.64184942 26.48605914 0.00086252 -0.00432498 0.00280781
N 10.61981502 10.24796489 21.66264805 0.00124793 -0.00232178 0.00135346
N 9.15200588 13.27926907 19.67164872 0.00194148 -0.00521136 -0.00493945
N 7.58611017 15.93664207 24.20590295 -0.00129243 -0.00345074 -0.00465400
N 10.30676840 10.93203777 26.26859717 0.00276690 -0.00422278 0.00079956
N 9.71650608 18.02536227 21.31847575 0.00020983 0.00147228 -0.00503563
N 7.45248865 24.71176419 0.97060332 -0.00046892 0.00162864 0.00111103
N 8.89763924 23.51067519 5.56997684 0.00639181 -0.00306425 -0.00271531
N 9.57317775 28.24230528 8.10770360 0.00390988 0.00831404 0.00179109
N 10.74631943 19.82488153 3.51588805 0.00228279 -0.00322805 0.00144103
N 8.66800707 22.86359851 1.72166949 0.00069325 -0.00260255 -0.00183402
N 7.64415456 25.33666758 6.11863404 -0.00487772 -0.00828648 -0.00092936
N 10.86963935 20.34456268 7.56463550 0.00224256 0.00368678 0.00563515
N 9.56396164 27.52344570 3.32234111 0.00169538 -0.00296661 -0.00111014
N 7.41912344 24.38953237 10.50533017 -0.00076590 -0.00201843 -0.00123863
N 8.66949055 23.01784773 14.79572171 -0.00075942 0.00156724 -0.00407640
N 9.76302484 28.13781941 17.29796568 0.00189955 0.00371958 0.00329447
N 11.03535970 19.84586681 12.45787784 0.00629574 -0.00291946 0.00289945
N 8.77914118 22.51923486 10.48186191 0.00142279 -0.00052631 -0.00116500
N 7.87881261 25.17227637 15.12526957 -0.00356332 -0.00386862 0.00600824
N 10.88734567 20.38322230 16.62357748 -0.00049488 0.00258188 0.00093001
N 9.31726656 27.76222966 12.17731761 -0.00163306 -0.00046585 0.00241405
N 8.10400615 24.97544311 19.29866086 -0.00234411 0.00477871 -0.00117953
N 8.78838535 23.67710196 24.09390367 0.00475834 -0.00037014 -0.00538311
N 9.61176563 28.24610993 26.34808607 -0.00693681 0.00643467 -0.00324855
N 10.97141190 19.88290649 21.80088051 0.00939964 -0.00242458 0.00039392
N 8.93636682 22.86044900 19.88755368 0.00105876 -0.00251499 0.00583855
N 7.46634134 25.48244490 24.29215575 -0.00199232 0.00053432 0.00213551
N 10.52320976 20.54747720 25.97424734 -0.00434122 0.00170044 -0.00185622
N 9.40371543 27.62384625 21.17767100 -0.00428652 -0.00166845 0.00332155
N 11.25292455 5.41781135 1.01397527 -0.00055029 0.00492507 -0.00467621
N 12.58478415 4.17016761 5.55122786 0.00642055 -0.00021292 0.00380339
N 13.47770119 8.38994387 7.92303439 0.00373442 0.00530460 0.00178118
N 14.48827356 0.62338640 3.24812544 0.00036814 0.00255308 0.00223791
N 12.41837315 3.41804935 1.41697865 -0.00153801 -0.00062792 -0.00693745
N 11.03431460 5.83975603 6.11352542 0.00869161 -0.00814879 0.00582301
N 14.35972663 1.22195541 7.53894636 -0.00275831 -0.00155148 -0.00410617
N 13.42638869 8.13675607 3.14484952 0.00009514 -0.00507688 0.00462169
N 10.98382266 5.15478745 10.34337457 -0.00251619 -0.00231753 -0.00356212
N 12.56403958 4.22264410 14.80190687 -0.00020104 0.00523079 -0.00522779
N 12.95207911 8.93583687 17.06328925 0.00172139 0.00019628 -0.00043881
N 14.40851047 0.52086628 12.36141973 -0.00223872 -0.00288688 -0.00623610
N 12.23096697 3.24947173 10.51126903 0.00122878 -0.00038500 0.00502887
N 11.35988111 6.18110507 14.88774003 0.00209269 -0.00667151 -0.00550662
N 14.52155516 1.46685036 16.79488950 -0.00653387 -0.00704405 -0.00295778
N 13.29944209 8.23342504 12.25442526 -0.00156802 -0.00602682 -0.00042282
N 11.50217854 5.45337260 19.30088836 -0.01128600 0.00741253 -0.00105142
N 12.62606912 4.07343864 24.06227373 0.00078221 0.00048779 -0.00249746
N 12.86631476 9.00891605 26.21358467 -0.00022883 0.00755436 -0.00588899
N 14.25802912 0.44171378 21.70487585 0.00166239 -0.00227440 -0.00612172
N 12.70972611 3.54051464 19.66653133 0.00485494 0.00385951 -0.00068028
N 11.30333655 6.05958405 24.20692536 0.00408058 0.00371915 -0.00359446
N 14.32494920 0.91184506 26.24122614 0.00488831 -0.00250240 -0.00049228
N 12.85703322 8.32029120 21.34857384 -0.00073007 -0.00094985 -0.00030899
N 10.97786221 14.69457047 1.30146225 -0.00543871 -0.00814626 0.00095762
N 12.91707827 13.44585177 5.79015874 0.00417668 -0.00244559 -0.00576409
N 13.29186534 18.46361380 8.22145103 0.00535055 0.00211676 0.00562549
N 14.61703046 10.10475156 3.25603100 -0.00454217 -0.00003004 0.00112366
N 12.33170749 12.83043734 1.13933413 -0.00800661 -0.00563609 0.00031208
N 11.57900576 15.42579354 6.10691420 -0.00324606 0.00311478 -0.00647402
N 14.40048288 10.53721598 7.53679910 -0.00477897 0.00201949 -0.00508783
N 13.13486550 17.92726416 3.28461352 -0.00520535 -0.00370696 -0.00848898
N 11.57200482 14.93907108 10.08468630 -0.00325313 -0.00112748 0.00259603
N 12.71874878 13.82076658 14.72972713 0.00110067 0.00163005 -0.00246029
N 13.24707895 18.56888326 17.09793436 0.00015357 0.00598190 0.00495383
N 14.42192319 10.26014535 12.58535845 0.00011312 -0.00326783 0.00035622
N 12.64579015 13.00100957 10.66950544 -0.00042282 0.00580697 0.00500294
N 11.61340877 15.79164786 15.18817646 -0.00641197 0.00460038 -0.00113250
N 14.43338641 10.75337373 16.71883871 -0.00001296 0.00165823 0.00774920
N 13.36291075 18.14110173 12.12150094 -0.00329868 -0.00606019 0.00259060
N 11.53003597 14.97895586 19.64329659 -0.00334416 0.00455542 -0.00265847
N 12.64155351 13.62228533 23.99967948 0.00742882 -0.00306466 -0.00837466
N 12.74499559 18.59328668 26.58060804 -0.01010340 0.00173247 -0.00247597
N 14.29001033 10.14660397 21.91274086 -0.00106210 0.00009369 0.00031110
N 12.68084110 13.02327715 19.79533276 -0.00050898 -0.00232132 -0.00260609
N 11.44713830 15.51598848 24.41458044 0.00070412 -0.00156720 -0.00522312
N 13.98861500 11.02613646 25.99334352 -0.00150703 -0.00016797 -0.00594747
N 13.28415293 17.93002726 21.62115828 -0.00458590 0.00202059 0.00382867
N 10.98358789 24.89648001 1.36587056 0.00703338 -0.00161674 0.00475452
N 12.53633132 23.24134812 5.99851106 0.00093408 0.00517223 -0.00424350
N 13.03955579 28.22219817 7.92112361 0.00060788 0.00131967 -0.00681534
N 14.47335334 19.86827503 3.42275443 0.00162015 0.00313584 0.00283359
N 11.92748421 22.80892447 1.77765529 -0.00554419 0.00125823 -0.00125122
N 11.47785303 25.26001579 6.12844217 -0.00176483 0.00053375 0.00293844
N 14.44831459 20.37525758 7.36844460 0.00233714 -0.00233769 0.00172835
N 13.32291832 27.50514489 3.13283139 0.00723614 0.00403534 -0.00114658
N 11.10098343 24.56407328 10.43019749 -0.00100090 0.00149171 0.00160095
N 12.82783923 23.29693174 14.91320367 0.00200242 -0.00700200 -0.00135776
N 13.26230729 28.36501267 17.19602120 -0.00298455 0.00448236 -0.00270846
N 14.75580197 19.93399568 12.17483282 -0.00054570 0.00331620 -0.00753585
N 12.57481242 22.75396743 10.42166074 -0.00309753 -0.00508434 -0.00167567
N 11.72847810 25.20449126 15.45296429 -0.00320163 -0.00246898 0.00014091
N 14.68421838 20.40010167 16.93790134 0.00042869 0.00284818 -0.00073121
N 12.95595249 27.53510454 12.17040314 -0.00014021 0.00092985 0.00172022
N 11.28982987 24.79673493 19.53719163 -0.00140723 -0.00152977 -0.00623771
N 12.14523657 23.41798322 24.14428383 0.00115204 -0.00845012 -0.00544750
N 12.83901421 28.05135452 26.35636019 0.00044165 0.00570418 -0.00257615
N 14.58376916 19.88082260 21.77585078 0.00030036 -0.00095468 0.00659443
N 12.56855161 22.93734674 19.81073512 0.00043870 0.00235314 0.00534538
N 11.39827390 25.60714316 24.12292265 -0.00172358 -0.00082064 -0.00773309
N 14.18558819 20.33784154 26.17310955 -0.00268352 -0.00208644 0.00162417
N 12.84476379 27.51699896 21.45023857 -0.00559659 0.00034889 0.00171849
N 15.02140414 5.50428259 1.13364200 -0.00120916 -0.00161966 -0.00193888
N 16.64335651 3.99937113 5.93644515 -0.00461911 0.00044101 0.00250162
N 16.85267689 8.85562534 7.83400053 0.00345023 0.00150020 -0.00387929
N 17.78516415 0.51597118 3.37545453 -0.00149932 0.00588477 0.00135573
N 16.15395058 3.60726469 1.70236081 0.00074495 -0.00614985 -0.00655238
N 15.09254070 5.80556037 5.96464329 -0.00142621 0.00578414 0.00245474
N 18.16352572 1.14368239 8.00551280 0.00281593 0.00672131 -0.00259353
N 17.31027483 8.07313222 3.14362201 -0.00299848 0.00211445 0.00119188
N 15.30699639 5.43079463 10.39581744 0.00097610 0.00678798 -0.00717749
N 16.39396849 4.28311693 15.00657460 0.00400222 0.00271077 -0.00391077
N 16.79734709 9.02609953 17.03284131 -0.00657960 -0.00344673 0.00457130
N 18.58688057 0.64191733 12.76179701 0.00051388 0.00273035 0.00505377
N 16.27595681 3.36494004 10.53847520 -0.00521641 0.00205636 -0.00251237
N 15.06612790 6.20800194 15.23057269 0.00267036 0.00221624 -0.00513689
N 17.94330594 1.15759360 16.96695205 -0.00326527 0.00208195 -0.00283309
N 16.75880659 8.37005280 12.24988806 -0.00093029 0.00148324 0.00136414
N 14.94540974 5.59385223 19.44241827 -0.00492619 0.00302769 -0.00199515
N 16.18329733 3.94266287 24.16974838 -0.00218761 -0.00137718 -0.00000620
N 16.38636754 9.11616571 26.08071669 0.00177036 -0.00174507 -0.00315920
N 18.23310283 0.19105553 21.95391323 -0.00648083 -0.00277761 0.00121185
N 15.94278744 3.61557428 19.85608666 0.00835985 -0.00095227 0.00172584
N 15.03556286 5.90645694 24.35289067 0.00352850 -0.00104329 -0.00229237
N 18.23663002 0.84568666 25.98752724 0.01003111 -0.00336123 -0.00183401
N 16.81402615 8.41848616 21.43890394 -0.00086662 -0.00227339 -0.00132041
N 14.88500182 15.00749677 1.13108225 0.00300953 -0.00094485 0.00454065
N 16.11497010 13.88923539 5.61781627 -0.00753865 -0.00262278 0.00206133
N 16.89298778 18.45468240 8.58483660 0.00443416 -0.00067207 -0.00100651
N 18.14856669 10.21455450 3.29605520 -0.00763117 -0.00016912 -0.00140248
N 16.05630577 13.11168205 1.52493466 -0.00490173 0.00233323 0.00238295
N 15.24854584 16.01883492 5.95970946 -0.00475542 -0.00387856 0.00399190
N 18.08239523 10.87530402 7.63756507 0.00885943 0.00329886 -0.00236283
N 16.73404505 18.16958519 3.45259945 0.00175017 -0.00006406 0.00173942
N 15.16429329 14.90732961 10.20952635 0.00024501 0.00253087 -0.00712171
N 16.49002495 13.64763121 15.04695608 -0.00170755 0.00028009 0.00592338
N 17.31720574 18.85424022 17.50257967 -0.00120075 0.00546652 -0.00548985
N 18.45849213 9.98712673 12.29006076 -0.00934161 -0.00280957 -0.00672801
N 16.25673790 13.06917989 10.82586030 -0.00293362 -0.00005722 -0.00047752
N 15.39610519 15.69605594 15.13167280 -0.00578291 -0.00137325 -0.00110133
N 18.07051820 10.91609549 16.76757706 -0.00676054 -0.00174745 0.00222281
N 17.03962075 18.07770214 12.34773241 -0.00434334 -0.00094180 -0.01107376
N 14.98395211 14.83003401 19.60120533 0.00325801 -0.00386900 0.00168688
N 16.22672484 13.77872021 24.14774343 0.00016363 0.00206060 -0.00243440
N 16.57840941 18.48826209 26.62871425 -0.00385294 -0.00456441 -0.00704656
N 18.14620841 10.25413025 21.53926680 -0.00272238 0.00043097 0.00821699
N 16.39346403 13.06630169 19.88876567 -0.00123146 -0.00455641 -0.00623802
N 14.83922041 15.60965013 24.54613259 -0.00233936 -0.00374788 0.00621910
N 17.93476343 10.78067432 25.78560833 -0.00186690 0.00134194 0.00495251
N 16.93161336 17.80186050 21.79705507 -0.00299616 -0.00664682 0.00145719
N 14.63882598 24.59448701 1.18691110 0.00683706 -0.00536917 0.00286048
N 16.33912419 23.41224844 5.90477584 -0.00277648 -0.00041108 -0.00147567
N 16.60689705 28.33704625 8.14975166 0.00628088 0.00556429 0.00387587
N 17.94471119 19.91093799 4.27699048 0.00117419 0.00250972 0.00122719
N 15.72782757 22.57675342 1.20600737 0.00466200 -0.00198637 -0.00508156
N 15.01224021 25.30631561 6.03107902 -0.00067193 -0.00124380 0.00223773
N 17.96225790 20.44496867 7.95168448 -0.00446452 0.00523015 0.00317555
N 16.78125600 27.41459704 2.99227344 -0.00060506 -0.00064222 0.00030558
N 15.06767902 24.62163720 10.57640803 -0.00135060 0.00142805 -0.00523917
N 16.29355578 23.71611573 14.99114304 -0.00222038 -0.00291227 0.00274949
N 17.07052294 28.02525958 17.53953682 -0.00366544 -0.00265240 0.00530879
N 18.03065944 19.98602641 12.97573804 -0.00248997 -0.00617400 0.00016192
N 16.24952547 22.70067744 10.80156559 0.00232644 -0.00431054 -0.00620069
N 14.90801578 25.51158489 15.18808033 -0.00709621 0.00369135 0.00827625
N 17.72869691 21.05568017 17.35896656 0.00663963 0.00046496 -0.00171153
N 16.97604862 27.82736621 12.30689862 -0.00044809 0.00257589 -0.00868330
N 15.03895020 24.75589224 19.62165808 0.01050092 0.00215162 0.00521956
N 16.07960801 23.42875639 24.05185717 0.00309037 0.00282471 0.00105992
N 16.84501066 27.86415175 26.50386588 0.00047958 -0.00445721 -0.00472249
N 18.50182776 19.63423190 21.92739500 -0.00287343 0.00196140 -0.00390107
N 16.31106873 22.85302778 20.04491848 -0.00215385 0.00012723 -0.00492829
N 15.24561734 25.53940469 24.23723765 -0.00068941 0.00173532 -0.00274180
N 18.08781547 20.25194810 26.36030997 -0.00190313 -0.00021484 -0.00125936
N 16.64597512 27.51517897 21.41024677 -0.00099068 0.00005875 0.00348135
N 18.46616479 5.58253122 0.27161929 -0.00438010 0.00190840 0.00797042
N 19.73333037 4.02043666 5.45785572 0.00001334 -0.00178873 0.00428114
N 20.65289550 9.21651088 7.82818693 0.00433849 0.00229238 0.00424581
N 21.65787815 0.69995637 3.54938623 -0.00149515 0.00662516 -0.00194471
N 19.44325840 3.64270721 0.98305808 -0.00874177 0.00396641 -0.00206349
N 19.33175734 6.27307440 5.79864022 0.00408610 0.00090922 -0.00480601
N 21.50072166 1.41397973 7.84162191 0.00113463 0.00464316 -0.00171661
N 20.63559001 8.43786395 2.81433026 0.00443899 -0.00616497 0.00819275
N 18.90053824 5.50921078 10.23357692 -0.00125091 0.00066401 0.00417971
N 19.80133356 4.04917294 14.77963135 -0.00011852 0.00265964 -0.00494784
N 20.41831476 9.03506281 16.89531404 0.00000895 -0.00079387 0.00027587
N 21.56277462 0.70131730 12.46417216 -0.00353923 -0.00041954 0.00030553
N 20.01855251 3.56238625 10.72877034 -0.00035121 -0.00124946 -0.00023474
N 18.83064398 6.16280640 15.16153962 0.00099121 0.00246029 -0.00172338
N 21.84402948 1.35936840 16.87603803 0.00043408 -0.00426415 -0.00361058
N 20.84499608 8.32361769 12.23252341 0.00127362 -0.00055399 -0.00224799
N 18.48770886 5.37475551 19.56276508 -0.00217632 0.00583743 0.00050509
N 20.05267953 4.32087668 24.18385252 -0.00168189 -0.00099936 0.00459112
N 20.30448267 9.04726535 26.11971973 -0.00233551 -0.00251388 -0.00008975
N 21.57186966 0.77486602 21.82703102 -0.00048046 -0.00981171 0.00065533
N 19.66170663 3.48811441 19.85650614 0.00250169 0.00478239 -0.00750332
N 18.46324507 5.95298891 24.46630011 0.00469724 0.00158448 -0.00211016
N 21.64292059 1.21447391 26.14787022 0.00141179 -0.00498258 0.00764155
N 20.33911499 8.51190544 21.41678572 -0.00188927 -0.00229213 -0.00010100
N 18.55457836 15.23182585 1.07764444 -0.00172164 -0.00054038 0.00633032
N 19.97690479 13.34221712 5.74175661 -0.00545368 0.00692827 -0.00090250
N 20.39570914 18.61865446 8.13967237 -0.00121825 -0.00113576 -0.00006883
N 21.84453384 10.31154141 3.10998972 -0.00051389 -0.00685818 0.01046322
N 19.70222440 13.22792971 1.19389720 -0.00557652 -0.00121402 0.00307202
N 18.77618262 15.20454354 6.32122483 0.00218121 0.00037759 0.00267079
N 22.08213102 11.11001143 7.69064625 0.00313230 -0.00321024 -0.00424407
N 20.98969045 17.80277853 3.15375654 0.00602997 -0.00500876 0.00228698
N 18.71948404 15.20251313 10.41540619 -0.00155023 0.00791105 -0.00662617
N 19.91169515 13.62017467 14.87139491 -0.00223805 -0.00240327 -0.00373784
N 21.25575498 18.49904437 17.31412706 -0.00388795 -0.00414767 0.00086024
N 21.83310219 10.37096683 12.41258332 0.00390670 -0.00812601 -0.00338501
N 19.95996322 13.22613450 10.70755299 -0.00595005 -0.01015125 -0.00736624
N 18.87621552 15.58790563 15.34197914 -0.00513951 0.00199628 -0.00651447
N 21.73427084 10.83060053 16.53345254 -0.00017351 0.00027300 0.00287446
N 20.55958044 18.38047856 12.44270446 -0.00102564 -0.00086804 0.00504228
N 18.77083527 15.32740907 19.55797417 0.00355428 0.00507004 0.00580364
N 19.92501330 13.98051097 24.07155131 -0.00369555 -0.00269753 -0.00378599
N 20.54166074 18.48726764 26.33499369 -0.00111872 0.00014922 0.00134271
N 21.84830357 10.24553559 21.41020094 -0.00178875 0.00727130 0.00085641
N 19.81120545 13.26081007 19.67323280 -0.00094524 0.00337075 0.00654789
N 18.44428373 15.78763091 24.47835377 0.00313139 -0.00669410 0.00567616
N 21.66721587 10.87895866 25.54352232 0.00733365 -0.00162599 -0.00073457
N 20.92109986 18.10494363 21.44962708 0.00368726 0.00112739 0.00467429
N 18.93449759 24.43341901 1.19008301 -0.00093632 -0.00683529 -0.00356254
N 19.98394819 23.30782408 5.85910499 0.00189746 0.00757804 -0.00337447
N 20.58196170 28.14571529 8.20346085 -0.00032549 -0.00809605 0.00317527
N 21.66770636 19.91326361 3.97909243 -0.00224094 0.00165373 0.00366744
N 19.55620142 22.31761570 1.73192573 -0.00427464 0.00852579 -0.00251290
N 18.65334509 25.11230476 6.23784526 -0.00217887 -0.00335701 0.00045286