1728
Time=81000.00000008 pbc="T T T" Lattice="22.17394401 0.00000000 0.00000000 0.00000000 28.82824575 0.00000000 0.00000000 0.00000000 27.40690215" energy=-10388.94833529 virial="-9.30995067 1.10587331 -24.14630423 1.10587331 -10.83862071 -20.22612197 -24.14630423 -20.22612197 -35.25397996" stress="0.00180858 -0.00003596 -0.00125715 -0.00003596 0.00190071 -0.00123151 -0.00125715 -0.00123151 0.00082975" Properties=species:S:1:pos:R:3:vel:R:3
N 0.29254388 5.38353103 1.43649235 -0.00103856 -0.00600460 -0.01002511
N 1.67853859 4.06617845 5.84887790 0.00007259 0.00038751 -0.00245398
N 1.98507123 9.27026706 7.99950515 0.00722396 -0.00237336 -0.00334522
N 3.39912123 0.74102249 3.68706424 0.00484625 -0.00215911 -0.00265725
N 1.18836891 3.27634313 1.73110127 0.00285732 0.00259656 0.00427644
N 0.49839085 5.97980296 6.27402900 0.00122257 -0.00203844 -0.00251165
N 3.24638811 1.16826350 7.46320616 0.00397215 0.00665347 -0.00140573
N 2.36390008 8.39144198 3.07844671 0.00189583 -0.00130866 -0.00136827
N 0.35749166 5.46352890 10.55822942 -0.00916466 0.00050253 -0.00369089
N 1.95698321 4.47713677 15.13716895 -0.00042111 -0.00303007 0.00587674
N 2.13341817 9.04686743 16.86021748 0.00657515 -0.00182446 -0.00379260
N 3.63110421 0.74390907 12.38632164 0.00746312 -0.00168454 0.01154309
N 1.57061218 3.52361726 10.82691433 -0.00122908 -0.00262851 0.00703942
N 0.34890491 6.17672983 15.12273549 0.00332618 0.00715512 0.00128469
N 3.63778286 1.13730660 16.70446384 0.00241197 0.01078093 0.00405153
N 2.35334589 8.32313475 12.29791859 -0.00091127 -0.00047794 0.00084929
N 0.47233491 5.47059891 19.52546866 0.00464297 -0.00543877 -0.00323703
N 1.62862326 4.38692223 24.40828294 0.00722214 -0.00160442 0.00293812
N 2.13245680 8.95210863 26.16993076 0.01112970 0.00391191 -0.00238254
N 3.57830992 0.73528972 21.80849697 0.00003694 0.00071255 0.00313719
N 1.62149014 3.53880077 19.73464692 0.00244846 -0.00016548 -0.00303437
N 0.50958493 6.48044435 24.30042694 0.01030942 0.00219216 0.00453668
N 3.05507026 1.02819122 26.12764453 0.00428822 0.00487571 -0.00368693
N 2.09876491 8.50838546 21.08712170 -0.00776261 -0.00304889 -0.00291929
N 0.13587988 15.01124356 1.28162958 0.00194300 0.00791482 0.00026713
N 1.74257735 13.83593512 6.00559922 0.00252692 -0.00844463 -0.00118772
N 2.37830216 18.81796821 7.59567416 0.00162958 -0.00623148 -0.00147150
N 3.62508485 10.29024540 3.38315939 -0.00394424 0.00511913 0.00527794
N 1.53396660 13.09533174 1.52665115 0.00633061 0.00034973 0.00085356
N 0.42734210 15.81138326 6.28144709 -0.00056673 0.00261494 -0.00024058
N 3.52639524 10.90308406 7.82765035 0.00383255 0.00819255 -0.00982943
N 1.98293466 17.78472578 2.86572058 0.00516374 0.00744810 -0.00271862
N 0.33154887 15.26622828 10.36317263 -0.00421698 0.00141081 -0.00017434
N 1.68683843 13.77635763 14.62984252 0.00408663 -0.00139677 0.00244050
N 2.10383971 18.50844887 16.93697572 0.00375403 0.00187626 -0.00302217
N 3.39332357 10.33305016 12.51261147 -0.00463458 0.00252939 -0.00706250
N 1.65986628 13.39214954 10.21654016 0.00298827 0.00091252 -0.00481567
N 0.52374316 15.79099907 14.87832050 -0.00419018 -0.00025397 -0.00399881
N 3.48993203 10.87858500 16.68961228 -0.00120121 -0.00081393 -0.00317256
N 2.35609030 18.10496711 12.03285515 -0.00243283 -0.00319915 -0.00045255
N 22.15575585 14.71122270 19.36327940 0.00263979 -0.00086111 0.00217190
N 1.33460533 13.67920279 24.36103674 0.00341489 -0.00265445 -0.00698580
N 2.11248501 18.58198734 25.96071228 -0.00559351 -0.00074566 -0.00349509
N 3.30275110 10.36819552 21.58185527 -0.00203900 0.00354389 -0.00014227
N 1.53844915 13.07236009 19.76365479 0.00146164 0.00476807 -0.00713540
N 22.10755924 15.54965001 24.43100551 0.00545123 0.00377603 0.00204162
N 3.22803127 11.01431173 26.12111690 0.00167396 -0.00156641 -0.00656122
N 1.96238426 18.01996926 21.32784870 -0.00420288 0.00570019 -0.00653527
N 0.35519940 24.92379427 0.70454964 0.00017252 0.00146599 -0.00031086
N 1.58406684 23.20231155 5.58778551 0.00092349 0.00072642 0.00253604
N 2.49011031 27.84930294 7.91774129 0.00161547 0.00212005 0.00779129
N 2.78071648 19.97506358 3.14786912 0.00332038 0.00446146 0.00344659
N 1.29688116 22.83358765 1.16487659 -0.00506256 0.00550127 -0.00349967
N 0.54596048 25.21174856 5.96453472 -0.00318636 0.00454423 -0.00117076
N 3.75441856 20.69450817 7.60252349 0.00009407 0.00278043 -0.00419794
N 2.24036816 27.70386888 2.85294567 0.00433677 -0.00284108 -0.00580571
N 22.09063124 24.85121127 10.57871276 -0.00095828 0.00724969 0.00000296
N 1.52666352 23.32519320 14.90370099 0.00251319 -0.00132598 0.00080166
N 2.11750433 28.21065196 16.95353785 -0.00666920 0.00696901 -0.00095601
N 3.66860793 20.03588875 12.45037249 -0.00361481 -0.00495568 0.00005681
N 1.29696525 22.92095255 10.49439129 0.00044975 -0.00293134 -0.00306437
N 0.65622656 25.39392196 15.14803975 0.00028823 0.00789584 -0.00220004
N 3.07582684 20.58197307 16.73337758 0.00275284 -0.00173209 0.00227545
N 2.25692362 27.66495162 12.30305520 -0.00126541 0.00574054 0.00094405
N 22.08865602 24.90471702 19.35666994 0.00043363 0.00743503 0.00632008
N 1.83946949 23.35367397 23.68604839 -0.00145967 0.00457382 0.00338561
N 1.58173769 28.10905503 26.40193263 0.00115758 0.00672020 -0.00418203
N 3.35944717 19.88652233 21.50430488 -0.00032038 0.00781384 -0.00192824
N 1.36724505 23.11374356 19.41194384 -0.00155257 -0.00006547 -0.00089481
N 0.39429113 25.19227363 24.17421347 -0.00508959 0.00129023 0.00519013
N 3.35752822 20.49884921 25.88185045 0.00176509 0.00361899 0.00074471
N 2.58763109 27.58510852 21.39338434 -0.00175703 0.00353458 -0.00259965
N 3.88356357 5.24887439 0.84616442 -0.00459558 0.00042364 0.00147352
N 5.36999606 3.98752359 5.43445407 0.00602539 -0.00530672 0.00307949
N 6.01199783 8.59751879 7.85568452 0.00223262 0.00150035 -0.00414947
N 6.99494123 0.57190223 3.30237613 -0.00490813 -0.00372441 -0.00185847
N 5.01662881 3.43053188 1.61301297 -0.00048258 -0.00091519 0.00783523
N 4.15751429 5.97557875 5.90126301 0.01366312 -0.00466243 0.00077053
N 6.85312527 1.19938523 7.88222274 -0.00274725 -0.00438921 0.00404081
N 5.81289247 7.92592068 2.89452641 -0.00595662 0.00076532 -0.00224021
N 4.14273943 5.56070541 10.19278236 -0.00722221 0.00663406 0.00121374
N 5.57645889 4.21871885 14.83343018 -0.00401952 -0.00499957 0.00767375
N 5.94359061 8.96370135 16.99226644 0.00631775 -0.00370990 0.00228846
N 7.15262321 0.78983275 12.68473738 -0.00319820 0.00054811 -0.00369923
N 4.99749754 3.47924499 10.46217860 0.00539807 -0.00473826 -0.00151977
N 4.36987402 6.11004957 14.92206772 -0.00299942 -0.00543282 -0.00509616
N 7.21194563 1.19615205 16.95147539 -0.00044035 0.00003876 -0.00424773
N 5.85641953 8.70754817 12.21797908 0.00099027 0.00886280 -0.00275693
N 4.11930457 5.62118254 19.24654544 -0.00299332 -0.00183467 -0.00088943
N 4.93082427 4.01513876 23.87087397 0.00756625 -0.00019031 -0.00315188
N 5.64370359 8.69189458 26.34860629 0.00066163 -0.00793903 -0.00476587
N 7.05411764 0.84095801 21.95989294 -0.00335948 -0.00726356 -0.00696674
N 5.34777690 3.58219136 19.56992420 -0.00161912 -0.00016655 -0.00050056
N 4.19951558 6.18688202 24.31489538 0.00241878 0.00115479 -0.00126241
N 6.59604806 1.55131856 25.91956379 -0.00310556 -0.00358468 0.00364713
N 5.98526441 8.21491394 21.39410614 -0.00102495 0.00615624 -0.00800048
N 4.06937528 15.04365448 0.95716433 -0.00340070 -0.00059935 -0.00807470
N 4.87959128 13.37406146 5.67198481 -0.00031462 -0.00347131 0.00072485
N 5.98608172 18.47177501 8.18196291 -0.00466665 0.00107480 -0.01095990
N 7.15742647 9.80222797 3.40216400 0.00038229 -0.00145524 0.00132394
N 5.42611730 13.22042930 1.46507087 0.00658532 -0.00129680 -0.00467729
N 4.06729086 15.52348543 5.96849657 -0.00009176 -0.00022294 -0.00623822
N 6.71974226 10.78798284 7.47782283 0.00112944 0.00171344 -0.00743118
N 6.15039960 17.54361688 3.11049424 -0.00253288 -0.00089066 -0.00892926
N 4.22602493 15.16416106 10.19719215 -0.00750914 -0.00242813 0.00400423
N 5.33267388 13.98109752 15.05712991 0.00601128 0.00092171 -0.00206823
N 5.42858321 18.50781569 17.58339097 0.00356551 -0.00403027 -0.00131504
N 7.37800619 10.44012908 12.29450090 0.00245893 0.00578021 0.00379750
N 5.25443600 13.28095548 10.81708768 0.00283587 -0.00066453 0.00599584
N 3.99336296 15.83649254 15.03826205 0.00076539 -0.00566795 0.00351447
N 6.89163021 11.00239260 16.73262496 0.00747839 -0.00550190 0.00914148
N 5.95513104 18.00917398 12.23456714 -0.00323726 0.00124270 0.00190179
N 3.90924419 15.17042319 19.40509538 -0.00072194 0.01339144 -0.00655827
N 5.09794969 13.78950947 23.90114986 0.00100145 0.00189834 -0.00019513
N 5.63799999 18.68132148 26.03623997 -0.00434205 -0.00352153 0.00058858
N 7.14860795 10.25598022 21.75542711 -0.00709258 -0.00427954 0.00010798
N 5.03564135 13.18941397 19.78641793 -0.00497745 -0.00702038 -0.00330072
N 3.79627120 15.73929233 24.22625657 0.00204467 -0.00087524 -0.00030134
N 6.95374084 10.51382587 25.85972619 -0.00439613 0.00393827 0.00444284
N 5.95065546 17.87056617 21.37592273 -0.00461828 0.00440851 0.00253581
N 3.74103269 24.55566823 1.16239614 0.00355850 0.00074623 -0.00507189
N 5.49616568 23.15242188 5.34563992 0.00475665 -0.00577167 0.00038292
N 5.55813252 28.03743139 7.96940547 0.00274389 -0.00175316 0.00372096
N 7.10685309 19.69969221 3.39784255 -0.00072460 -0.00533505 -0.00713878
N 4.84217416 22.58317688 1.45537400 -0.00743995 0.00085428 0.00483345
N 4.00390405 24.89665801 5.90761858 -0.00373235 0.00163451 -0.00063014
N 7.21275794 20.40686556 7.60436451 -0.00537197 -0.00121036 0.00099667
N 5.92364383 27.48923226 3.14950533 -0.00351947 0.00543939 0.00291870
N 3.72380009 24.54319962 10.38876091 0.00355355 -0.00397399 0.00740900
N 5.41423526 23.59115472 14.81635281 -0.00201803 -0.00071687 0.00124463
N 5.97821011 28.07408614 17.08641644 -0.00734573 0.00149831 -0.00275115
N 7.05745923 20.00974727 12.69532851 -0.00101723 0.00404477 0.00176929
N 5.18802557 22.76890037 10.48122261 -0.00246844 -0.00265323 0.00349253
N 3.94173199 25.31020972 15.32977983 -0.00730569 -0.00403375 -0.00127766
N 7.03675562 20.08061928 17.23807668 -0.00355562 -0.00032602 -0.00384867
N 6.11274795 27.64582803 12.10908065 -0.00578262 -0.00331947 0.00249927
N 3.97791663 24.97755673 19.44131396 -0.00535367 0.00208408 0.00250860
N 5.49703682 23.39395817 24.12146704 0.00208810 0.00456767 -0.00081248
N 5.48523312 28.36328605 26.26401832 -0.00348962 -0.00093996 0.00315854
N 7.25759205 19.74021305 21.51030152 -0.00255714 0.00530533 0.00239788
N 4.81378018 22.86235015 19.90589657 0.00330240 -0.00269515 0.00223366
N 4.11887590 25.21222779 24.18516934 -0.00281108 -0.00394333 -0.00664978
N 7.10564102 20.40525284 25.76291753 -0.00191819 0.00711745 -0.00187038
N 5.95364166 27.63080840 21.67074975 -0.00314755 -0.00847429 -0.00357875
N 7.57207411 5.32090298 0.96946681 0.00391974 0.00241257 0.00233080
N 8.86994522 4.09672536 5.88907160 -0.00249502 -0.00235943 0.00565456
N 9.50868877 9.19572681 8.21845422 -0.00138724 0.00273018 0.00235661
N 10.82441979 0.77875419 3.52665399 0.00282489 0.00495990 0.00219896
N 8.81178131 3.52765296 1.67359881 0.00305896 0.00344383 0.00188194
N 7.70354322 6.12781068 6.03027631 -0.00287638 0.00201797 -0.00322222
N 10.78572106 1.22781963 7.73931215 0.00274621 -0.00238898 0.00922861
N 9.73927518 8.35664287 3.12250455 0.00319603 -0.00174798 0.00513370
N 8.00784532 5.78104900 10.23432419 0.00358042 0.00235333 0.00271886
N 9.24099291 4.23214301 15.14239542 -0.00078728 0.00320989 -0.00747922
N 9.63245467 8.80573213 17.38243102 -0.00315099 0.00076557 -0.00681080
N 11.00411822 0.92040445 12.82660170 -0.00007864 -0.00251918 0.00348512
N 8.56929203 3.61652043 10.66659146 0.00373064 -0.00344643 0.00189925
N 7.92719597 6.19404323 15.15879654 0.00017512 -0.00341425 0.00378559
N 10.76925857 1.16937190 16.76497113 0.00064775 -0.00266909 -0.00534428
N 9.69752960 8.72721820 12.35505685 -0.00062033 0.00769229 0.00183207
N 7.61196550 5.54001090 19.61950028 -0.00083773 0.00735797 -0.00104811
N 9.31556778 3.92197979 24.00396642 -0.00023229 0.00079114 -0.00269397
N 9.48349596 8.72327819 26.46755204 0.00545545 0.00858678 0.00073918
N 10.96954992 0.61505033 21.76272131 -0.00043255 0.01060015 -0.00263154
N 8.93630545 3.63990510 20.07811129 -0.00087448 -0.00096194 -0.00060460
N 8.23944008 5.78626780 24.53270507 -0.00138709 0.00104928 -0.00209710
N 10.64845937 1.05022667 26.15555831 0.00244435 -0.00791813 -0.00692234
N 9.63969154 8.52757128 21.53183011 0.00231114 0.00072014 0.00110983
N 7.77188791 14.86781787 0.97208646 0.00302852 0.00647749 0.00448602
N 8.97141371 14.01148156 5.59169466 -0.00250533 0.00252122 0.00031364
N 9.61072941 18.50668619 7.77069798 0.00168014 -0.00034203 0.00296160
N 11.00064458 10.30797551 3.45154899 0.00180491 -0.00653286 -0.00238238
N 8.78342580 12.83484192 1.42643817 0.00368162 -0.00269103 -0.00132775
N 7.68161855 15.89031597 5.83943694 0.00448429 0.00137274 0.00065539
N 10.65168476 11.22580892 7.68277029 0.00240327 0.00037258 0.00272772
N 9.61167640 17.99931563 2.92295151 -0.00060805 0.00260442 -0.00124628
N 7.88907977 15.42835826 10.31197112 -0.01058617 0.00333811 -0.00079417
N 8.47219352 13.82756693 14.83826565 0.00124531 0.00016806 0.00085156
N 9.71000793 18.57153462 16.88328163 -0.00144738 0.00085449 0.00180334
N 10.90981174 10.54054256 13.06898684 0.00268058 -0.00286875 0.00159120
N 9.01240385 13.41753448 10.68206550 0.00516379 0.00574453 -0.00198819
N 7.57862930 15.89003286 14.98339822 -0.00069074 -0.00384253 -0.00005238
N 10.67845708 10.85832268 17.10437981 0.00386497 -0.00310364 0.00229279
N 9.65288258 17.86279901 12.26890273 -0.00531415 0.00577052 0.00058733
N 7.54165962 15.26249605 19.52965529 0.00208464 -0.00468845 -0.00525785
N 8.95766411 13.76807430 23.96882824 0.00310053 -0.00076902 0.00277960
N 9.46023739 18.56799973 26.30824687 -0.00276974 -0.00041959 0.00057248
N 10.93735566 10.31041587 21.71111823 -0.00016690 -0.00340729 -0.00288940
N 8.38605847 13.12894569 19.94390018 0.00174304 0.00341219 -0.00045133
N 7.84534501 15.72987190 24.21313534 0.00272344 0.00280831 0.00519872
N 10.51587052 10.68989477 26.01734380 -0.00564317 0.00284818 0.00157270
N 9.81000599 17.96201015 21.11700693 -0.00270011 0.00740989 -0.00241109
N 7.29209047 24.76705718 1.31573018 0.00157628 -0.00393188 0.00765548
N 9.37608793 23.57534111 5.95527485 0.00104973 -0.00223293 0.00662920
N 9.72246933 28.12756524 8.25920623 0.00117481 0.00006727 0.00567792
N 10.75374658 19.96718452 3.18516699 -0.00010047 -0.00008141 0.00054326
N 8.40541952 22.77281983 1.86634674 -0.00246169 -0.00246086 -0.00226378
N 7.71445702 25.26604634 6.33803361 0.00683183 0.00526732 -0.00335820
N 10.55199430 20.61610449 7.57041169 -0.00496322 0.00324388 0.00158477
N 9.48086213 27.77177505 3.28749060 -0.00209600 -0.00150458 -0.00405793
N 7.74166140 24.68629147 10.53184239 -0.00322455 -0.00231042 0.00625286
N 9.08306288 23.53910943 15.10768256 0.00092758 -0.00327768 -0.00144556
N 9.67978025 27.98720717 17.41344893 0.00262632 -0.00295863 -0.00194939
N 11.00863896 19.69208284 12.30574039 0.00903817 -0.00097017 0.00418656
N 8.99806263 22.76982829 10.60582408 0.00711220 -0.00010517 -0.00373707
N 7.71621558 25.38491545 15.24426456 -0.00850527 0.00180134 0.00112988
N 10.74335552 20.63577403 16.62459041 0.00185119 -0.00087238 0.00362003
N 9.62751807 27.95718348 12.18469018 0.00171896 -0.00147124 0.00854570
N 7.48588837 24.64756941 19.41081427 -0.00511142 0.01372047 0.00440700
N 9.07150516 23.38580067 24.24462733 0.00304759 0.00412776 0.00312343
N 9.22606789 28.13524615 26.70533324 0.00086996 0.00236346 -0.00279312
N 10.94581161 19.89374704 21.72854478 0.00212918 0.00405555 0.00136866
N 8.57827292 22.66990091 19.74751002 0.00595214 -0.00336250 -0.00156619
N 7.80313419 25.37563979 24.57347007 0.00409899 -0.00343394 0.00334310
N 10.86946439 20.28333059 25.85411460 -0.00222442 0.00155331 -0.00352646
N 9.83098487 27.46580440 21.54119059 0.00265840 -0.00391720 -0.00436170
N 11.34410657 5.71155040 0.70115807 -0.00311747 0.00396069 0.00209763
N 12.69056604 4.34912956 6.02529172 -0.00013718 0.00255041 0.00225438
N 13.62755685 8.72234182 8.25138998 0.00084043 0.00580207 0.00463500
N 13.99380233 0.79215578 3.59108842 -0.00143585 0.00059930 0.00577042
N 12.27264533 3.71919801 1.38420881 0.00278533 0.00099560 0.00722823
N 11.19101153 6.12105403 6.05264619 0.00224777 -0.00146654 0.00567828
N 14.63611807 1.33299648 7.43056010 0.00619648 -0.00842249 0.00435587
N 13.26361629 8.35352712 3.25920750 0.00327421 -0.00248131 -0.00416234
N 10.99121038 5.47066653 10.60570241 -0.00328978 0.00377588 0.00068403
N 12.64607728 4.36065836 14.75994604 -0.00136724 -0.00384658 -0.00077667
N 12.78774713 8.81789020 17.23322504 -0.00014472 0.00026358 -0.00312556
N 14.48196960 0.65363998 12.49583151 0.00280567 -0.00276109 -0.00052194
N 12.57742049 3.70931385 10.72095391 0.00204580 0.00882867 -0.00047509
N 11.42853429 6.27975195 14.95680475 -0.00458339 0.00175587 0.00537505
N 14.44031612 1.34804794 16.83497688 0.00020994 0.00160358 -0.00544917
N 13.27774973 8.50405103 11.98299376 0.00323406 0.00280479 0.00783154
N 11.21592142 5.46638938 19.24058935 -0.00321424 0.00873006 -0.00129429
N 12.77856632 4.26708548 23.69346870 0.00277174 0.00022276 -0.00192298
N 12.99684772 8.86627107 26.09533749 -0.00208989 0.00393084 -0.00036949
N 14.63840144 0.32701224 21.73920086 0.00679712 -0.00333800 0.00625642
N 12.34011938 3.49381751 19.54672017 0.00390324 -0.00828064 0.00017326
N 11.53000926 6.20170695 24.02645728 -0.00958171 0.00093189 -0.00742336
N 14.16106770 1.37054375 26.01738310 -0.00668492 0.00165908 -0.00045872
N 13.47350270 8.39331576 21.46438671 -0.00301623 -0.00874360 0.00607893
N 11.02493829 15.19458668 1.24065824 0.00261719 -0.00207355 0.00430484
N 12.61966923 13.65183911 5.87521021 0.00330082 0.00676276 -0.00367936
N 13.58931741 18.37683924 8.08782514 -0.00032701 0.00557720 0.00251979
N 14.50981256 10.26694443 3.14483413 -0.00279188 -0.00532214 -0.00015846
N 12.40044598 13.28993871 1.46778448 -0.00498613 -0.00044964 0.00176134
N 11.44973017 15.68419006 6.00887205 0.00049154 -0.00141167 -0.00109642
N 14.57857935 10.71193415 7.63799181 -0.00295253 0.00401887 0.00260372
N 13.15922917 17.88936263 2.79583221 -0.00148789 0.00057360 -0.00433426
N 11.72962512 15.05577458 10.83914362 -0.00100632 -0.00077318 -0.00158535
N 12.94509529 13.56344487 15.00058936 -0.00000624 -0.00330745 -0.00332290
N 13.20825546 18.49730888 16.96428347 -0.00382557 -0.00216428 0.00438388
N 14.67167962 10.30407410 12.69245062 -0.00830228 0.00081939 0.00508719
N 13.09119289 13.22077002 10.81303463 -0.00296394 -0.00012975 -0.00112154
N 12.07316210 15.63386453 15.34932490 -0.00426689 0.00004170 0.00211456
N 14.20256829 10.51406931 16.80772233 -0.00253618 -0.00139321 -0.00480766
N 13.54390097 18.09522664 11.99947942 -0.00639933 -0.00003433 0.00179391
N 10.98861524 14.92105596 19.85168810 -0.00513624 0.00026104 -0.00525937
N 12.68030066 13.88268344 23.70028972 -0.00330885 0.00468674 -0.00095068
N 13.27144793 18.47541425 25.73078928 0.00325066 0.00649921 -0.00239299
N 14.61005477 10.40695178 21.81414798 -0.00588803 -0.00899273 0.00475969
N 12.50990334 13.18288622 19.88808823 -0.00177395 0.00480008 0.00112343
N 11.43405211 15.79666476 23.93008204 -0.00296678 0.00317296 -0.00457766
N 14.32280319 10.73896550 25.90443453 -0.00413074 -0.00198442 -0.00027189
N 13.27316455 18.12631927 21.32522968 -0.00637950 0.00014895 -0.00148483
N 11.11274719 24.87046797 0.91313361 -0.00367475 -0.00767006 0.00206999
N 12.73741484 23.36690014 5.62582127 -0.00296830 -0.00423076 0.00838151
N 13.55275968 28.13790491 7.72052631 -0.00250723 -0.00092760 0.00329697
N 14.16913605 19.89393618 3.29985968 -0.00474897 0.00517604 -0.00221160
N 12.32241868 23.00842663 1.45173492 -0.00426710 -0.00332342 -0.00172641
N 11.63249314 25.33132327 6.13659942 0.00119094 0.00581602 0.00415769
N 14.40908968 20.50936789 7.75398733 -0.00385897 0.00011368 -0.00085605
N 12.83898693 27.69032789 2.80925925 -0.00564057 0.00355567 0.00088559
N 11.57925674 24.99969199 9.95816208 -0.00039722 -0.00418876 -0.00050771
N 12.73063496 23.22565674 14.49211190 0.00271838 -0.00288595 0.00272073
N 13.36874721 28.17840639 17.08343797 -0.00141287 0.00030804 -0.00370858
N 14.55634952 20.07156052 12.60531282 0.00775266 0.00424117 -0.00854780
N 12.41795240 22.93745144 10.41712704 0.00491730 -0.00227477 -0.00245924
N 11.67195463 25.14381898 14.97346730 0.00052506 -0.00431136 0.00238811
N 14.24737533 20.58620115 16.73594204 0.00041830 0.00033152 0.00367099
N 13.32838487 27.54690446 12.22371992 0.00366933 -0.00607675 -0.00099629
N 11.10481933 24.72409085 18.90651975 0.00053327 0.00660124 -0.00486428
N 12.76523276 23.57024430 24.06957674 -0.00287793 0.00325854 -0.00869538
N 13.28229301 28.10025400 26.46793982 0.00070474 0.00065979 0.00546911
N 14.37956373 20.12668142 21.45247659 0.00210055 -0.00303676 -0.00179098
N 12.42609606 23.10308548 19.82616307 0.00248346 -0.00419727 -0.00181224
N 11.49654260 25.39290840 24.33684557 0.00175900 -0.00193183 -0.00063270
N 14.45573215 20.50626202 25.83390816 0.00037848 -0.00235485 0.00404031
N 13.14714606 27.40813199 21.48158564 0.00441554 -0.00128003 -0.00692242
N 14.72127940 5.39471000 1.32297979 0.00338892 0.00146376 0.00348179
N 16.54741811 4.31444080 5.57663340 -0.00495326 0.00568589 -0.00114926
N 17.24655644 8.92117571 8.09618469 0.00050243 0.00050237 -0.00251218
N 18.13411151 0.74521159 3.74079651 0.00169991 -0.00115072 0.00427591
N 16.17627389 3.69459466 1.74236938 0.00276942 -0.01093225 0.00378760
N 15.15201814 6.09904914 6.05631574 0.00028456 -0.00167910 0.00156580
N 18.44489087 1.29483707 7.98375151 -0.00328120 -0.00019961 -0.00131582
N 16.87740090 8.38079191 3.18953890 0.00877190 -0.00107443 0.00525380
N 14.84428902 5.53959389 10.37302222 0.00214242 0.00317820 0.00611887
N 16.03102256 3.86260022 14.53110032 0.00214950 0.00104065 0.00324618
N 17.62953407 8.29654584 17.21127433 -0.00169395 0.00046452 -0.00443091
N 18.27500978 0.58091943 12.85806118 -0.00003424 -0.00135681 -0.00276640
N 16.13227337 3.54238491 10.56548088 0.00206106 -0.00068164 -0.00433651
N 15.16235358 5.93649491 15.02546165 -0.00363583 0.00295875 -0.00119851
N 18.39637823 1.27537204 16.70078450 -0.00234089 0.00704900 -0.00178273
N 16.91486149 8.36511587 12.14222647 -0.00459531 0.00137553 -0.00056653
N 14.71385550 5.38656581 19.43409262 0.00489746 -0.00082019 -0.00569647
N 16.14028672 3.94524364 23.84789656 0.00509015 0.00412749 0.00072521
N 17.10861540 8.27237825 26.21790276 0.00449691 0.00006704 0.00158155
N 18.57417309 0.62112763 21.84723121 -0.00563619 -0.00299957 -0.00838804
N 16.13760910 3.58069716 19.64500217 -0.00354776 -0.00824719 -0.00156190
N 15.07488350 5.96137140 24.26205343 -0.00680817 0.00376647 0.00505078
N 18.05273478 1.47296580 26.10548470 -0.00407103 -0.00193152 -0.00354289
N 17.20874383 8.06421413 20.92357927 -0.00436662 -0.00081636 0.00109612
N 14.97011008 15.00713811 0.94667674 -0.00410500 -0.00334304 0.00016205
N 16.00277729 13.31968810 5.41207575 0.00332693 -0.00090922 -0.00134414
N 16.82812772 18.74355449 7.69810302 -0.00363163 0.00233002 0.00062828
N 17.85718215 10.41582820 3.43093257 0.00072454 0.00405801 -0.00048669
N 15.75689735 12.94778223 1.34817275 -0.00391039 0.00559233 0.00611932
N 15.07612908 15.25634630 6.08480671 0.01123230 -0.00519862 -0.00665536
N 18.42040890 10.78540324 7.41518098 0.00885279 0.00294511 -0.00424562
N 16.71780430 17.99035479 3.27977844 0.00101227 0.00875682 -0.01011345
N 15.19132234 14.91091092 10.20500147 -0.00247880 0.00426675 0.00279215
N 16.27720633 13.56593022 14.85972787 -0.00236882 -0.00351743 0.00341447
N 16.83751011 18.52382528 17.20185367 -0.00110468 0.00622086 -0.00347331
N 18.54807253 10.11158704 12.30705370 0.00087748 -0.00656609 0.00612178
N 16.36828732 13.00133268 10.57956227 -0.00477465 0.00371023 0.00415304
N 15.63358589 15.69527074 15.13442093 0.00079035 -0.00127483 0.00505679
N 17.98423740 10.47840418 16.65233978 0.00689809 -0.00964893 0.00090102
N 17.16609136 18.01019637 12.16115683 0.00063214 -0.00228601 -0.00421377
N 14.78653807 14.94577280 19.62345805 -0.00220406 0.00184628 0.00013735
N 16.09782642 13.40689412 23.54860952 0.00245216 0.00052209 -0.00294687
N 16.85720591 18.51183865 26.53279131 -0.00179088 -0.00293164 -0.00883580
N 17.90071507 10.17003342 21.45277745 0.00195693 -0.00124733 -0.00033730
N 15.94486983 12.95830266 19.69874873 -0.00516662 0.00010672 0.00552797
N 15.42596642 15.61211762 24.23704675 0.00369374 -0.00266719 -0.00311090
N 17.73279104 10.45219088 25.67731103 0.00414588 0.00302021 0.00587593
N 17.16701539 17.76189399 21.21581094 0.00059709 0.00388199 -0.00349546
N 15.19599425 24.75802652 1.29392880 0.01075774 -0.00678439 -0.00463921
N 16.06496058 23.15461373 5.91363945 -0.00168963 -0.00043665 -0.00637117
N 17.04658163 28.26840359 8.18705296 0.00585189 0.00234508 -0.00231224
N 17.85632764 19.99435026 3.67036486 -0.00453804 0.00431685 0.00034277
N 16.39619524 22.84828609 1.55837853 -0.00360114 0.00003920 -0.00505173
N 15.34928129 25.34311852 6.15263400 0.01038472 0.00489708 0.00217884
N 18.20814547 20.56636256 7.68576391 0.00316490 0.00233905 -0.00340815
N 16.93086926 27.60992570 3.36265046 0.00044054 0.00374758 0.00469065
N 15.03628466 24.54201748 10.40731549 0.00152245 -0.00097167 -0.00298245
N 16.21946813 23.26040479 15.21781269 0.00233641 0.00767996 -0.00450228
N 17.43385280 28.13109141 17.30572360 0.00623297 0.00366871 0.00623529
N 18.17056697 19.98418105 12.61973885 -0.00218026 0.00038523 0.00000721
N 16.25485843 22.64326622 10.78286110 0.00649553 0.00351275 0.00459810
N 15.32896304 25.31373343 15.52605634 -0.00240215 -0.00124390 -0.00551532
N 17.90474866 20.48599396 17.05344253 -0.00343861 -0.00180502 -0.00015509
N 17.00610711 27.65280913 12.31322832 -0.00400758 -0.00264832 -0.00258406
N 15.15413820 24.78747625 19.60766131 0.00634091 0.00826713 -0.00404987
N 16.50877168 23.44071964 24.18447411 0.00038354 0.00489072 0.00108571
N 16.83429651 28.36585343 25.97669653 -0.00140483 0.00432947 0.00233285
N 18.38029389 19.66179386 21.67937445 -0.00481583 -0.00171142 -0.00381020
N 16.30326788 22.76648510 20.02983995 0.00475199 -0.00249965 -0.00175147
N 15.14729966 25.30944171 24.43837245 0.00324654 -0.00070770 -0.00141689
N 17.59603872 20.61073853 26.13126190 0.00547345 0.00150169 0.00283081
N 17.03375207 27.73773088 21.59334017 0.00303423 -0.00474104 -0.00652505
N 18.55726249 5.34565733 1.54011975 -0.01090823 -0.00067174 -0.00306322
N 19.90298884 3.98511227 5.45829008 0.00487735 0.00373214 -0.00016134
N 20.62600456 8.79005791 7.87577899 0.00141748 0.00127340 -0.00173752
N 22.10635290 0.59301118 3.56473422 -0.00219561 0.00481419 -0.00697919
N 19.90418997 3.44577008 1.49409108 0.00594152 -0.00268769 0.00361364
N 18.87801691 5.89493392 6.25594694 -0.00657532 -0.00466942 0.00061114
N 21.69913156 1.46443551 7.80047806 0.00160329 0.00080635 -0.00338128
N 20.51906733 8.52981569 3.15319186 -0.00400471 -0.00068000 0.00248083
N 18.87613606 5.34210080 10.42462072 -0.00545242 -0.00118186 0.00126105
N 20.74197634 4.04027664 14.64024445 0.00179946 0.00044602 -0.00179424
N 20.43586956 9.12449905 16.91472615 0.00553056 -0.00167562 -0.00826635
N 0.09611049 0.67883376 12.73577870 -0.00005601 0.00069638 -0.00049147
N 20.23250576 3.54735613 10.69793735 -0.00042065 0.00109207 0.00250522
N 19.05104588 5.73195983 14.83702720 -0.00506399 -0.00560152 0.00140531
N 21.97141396 1.22963349 17.06511267 -0.00018430 -0.00270542 -0.00257162
N 20.88030071 8.34905465 12.13090124 -0.00195181 0.01210624 -0.00675542
N 19.02180118 5.22122917 19.27150970 -0.00852392 0.00011816 0.00084898
N 20.54912502 4.17211043 24.04509758 0.00232888 -0.00224103 0.00034904
N 20.29300575 8.96651089 26.08309491 -0.00429651 -0.00379477 -0.00294800
N 0.28844320 0.73238532 21.85708491 -0.00281502 -0.00161295 0.00103877
N 20.10069222 3.31805601 19.88204486 0.00065139 0.00422561 0.00571954
N 19.10355633 5.99330093 24.03319425 -0.00102464 -0.00131116 0.00704498
N 21.76133140 1.36516206 26.12691055 -0.00282404 -0.00212821 -0.00840011
N 20.82847146 8.44809587 21.27346181 0.00440361 0.00099431 0.00162439
N 18.25942406 14.82349250 1.12796439 -0.00316141 -0.00345150 -0.00269101
N 19.92977605 13.49665003 5.29040215 0.00160436 -0.00433352 -0.00328949
N 20.49766581 19.01428764 7.76461819 0.00223483 -0.00582421 0.00103476
N 21.69520426 10.46870789 3.59427497 -0.00331194 -0.01079660 -0.00587116
N 19.73333864 13.08342660 1.15084805 -0.00177204 0.00278341 -0.00066257
N 19.36765777 15.62785262 6.16350731 0.00632099 0.00188300 -0.00272570
N 21.61225294 10.83171974 7.49933355 0.00184867 0.00051346 -0.00117998
N 20.92006763 17.73632964 2.96979282 -0.01156350 -0.01139376 -0.00108997
N 19.34958448 15.17313830 10.16290636 -0.00235885 -0.00022413 -0.00393394
N 20.13060243 13.48150490 14.31305784 -0.00084298 -0.00355386 0.00566286
N 20.69467621 18.20966148 16.99673237 -0.00239135 -0.00129737 0.00489372
N 22.10873956 10.36746137 12.21689765 -0.00698211 -0.00047999 -0.00543111
N 20.06540824 13.01217540 10.30119210 0.00158254 -0.01039598 -0.00199657
N 19.35054048 15.56625498 15.05335075 0.00039746 0.00504156 0.00543744
N 21.89736063 10.96026657 16.58127382 -0.00345803 0.00045828 0.00216020
N 20.93127365 18.00997802 12.03927639 0.00719873 0.00316529 -0.00043434
N 18.57939268 14.98748786 19.31017705 -0.00427861 -0.00055621 -0.00177362
N 19.71805342 13.62253930 23.86900287 -0.00531514 0.00489529 -0.00554014
N 20.17792634 18.59607975 26.38984822 -0.00473711 -0.00026674 -0.00004923
N 21.79143261 10.46050334 21.50055773 -0.00187631 -0.00160496 0.00423097
N 19.71890086 13.04586237 19.60056265 -0.00761262 0.00850341 -0.00363039
N 18.66424792 15.63843835 24.21213327 0.00178511 0.00030301 -0.00270375
N 21.84374599 10.67138119 25.86983915 0.00343321 -0.00195249 -0.00150371
N 20.71941035 18.04158866 21.59551674 0.00045190 -0.00319238 -0.00333326
N 18.83102344 24.97272041 1.26706635 0.00135126 -0.00126939 -0.00906025
N 20.02196196 23.29419926 5.81126993 -0.00754198 -0.00239722 0.00402756
N 20.79000410 28.23821042 8.12285792 -0.00354748 -0.00089026 -0.00900384
N 21.87783370 19.86590062 3.27337050 0.00023289 0.00342111 -0.00195634
N 19.96525077 22.99791537 1.68488936 0.00081102 0.00335487 0.00304979
N 18.97652704 25.22655660 6.60748044 0.00036975 0.00849651 0.00173825