1728
Time=79000.00000008 pbc="T T T" Lattice="22.13958430 0.00000000 0.00000000 0.00000000 28.81855604 0.00000000 0.00000000 0.00000000 27.37632979" energy=-10389.79674566 virial="9.13732019 18.66233744 -5.44070577 18.66233744 29.22804443 1.49779665 -5.44070577 1.49779665 19.59328574" stress="0.00285339 0.00100073 -0.00035835 0.00100073 0.00422689 -0.00001278 -0.00035835 -0.00001278 0.00387278" Properties=species:S:1:pos:R:3:vel:R:3
N 0.78319505 5.60000999 1.10425829 0.00032624 -0.00375809 -0.00548632
N 1.87934318 4.17753195 5.64876118 -0.00266717 -0.00227343 0.00213286
N 2.22794027 9.00453826 8.00949103 -0.00852767 0.00152230 -0.00108252
N 3.49655213 0.44967828 3.37131699 -0.00079506 -0.00336378 -0.00642970
N 1.54637355 3.39352303 1.44052818 -0.00403350 0.00666638 -0.00157779
N 0.40184906 5.93994171 6.07398330 0.00236924 -0.00035709 -0.00057577
N 3.42580994 1.32094911 7.44956207 0.01026498 -0.00394395 0.00374704
N 2.24354659 8.22859638 3.23674257 0.00133628 -0.00632278 -0.01000196
N 0.16781813 5.57562825 10.08044191 -0.00138592 -0.00716889 0.00639768
N 1.45508137 4.25850647 14.68105857 0.00640119 0.00751878 -0.00443737
N 1.93136147 9.16540467 16.98483654 -0.00156449 -0.00275945 -0.00075671
N 3.78175850 0.56283093 12.39742472 -0.00567346 -0.00024171 -0.00169077
N 1.63602921 3.88447003 10.55701483 -0.00352415 0.00008132 0.00395126
N 0.33005512 6.11991428 15.35398007 0.00177063 0.00603789 0.00008718
N 3.30417274 1.27138076 16.80086938 -0.00272388 -0.00927928 -0.00579925
N 1.99858020 8.37948111 12.21243397 0.00220747 0.00052105 0.00363248
N 0.29321558 5.11202681 19.43031082 0.00079603 0.00464712 -0.00127758
N 1.41478116 3.94211990 24.12932228 0.00246008 0.00383738 0.00361767
N 1.52634170 8.85257446 26.21653888 -0.00617904 0.00109853 -0.00198813
N 3.17310918 0.53707310 21.79741037 0.00313385 -0.00236392 -0.00017609
N 1.66225223 3.23400396 19.84303430 0.00047220 -0.00370404 0.00222404
N 0.51296938 6.07452265 24.12914068 -0.00747848 -0.00180957 0.00421059
N 3.42912367 0.99435568 26.08364067 0.00137520 0.00838982 -0.00302280
N 2.17197714 8.38780303 21.10097688 0.00207817 -0.00380554 0.00399738
N 0.15959516 15.11976931 1.24967222 0.00166216 -0.00195187 0.00434130
N 1.73268692 13.56875492 5.97112677 -0.00195242 0.00105903 0.00081909
N 2.00170339 18.61892448 8.11705296 0.00116220 0.00171425 0.00708846
N 3.64408852 9.97695321 3.19860642 0.00188496 -0.00002373 0.00864789
N 1.58538409 13.39112251 1.62041877 0.00508220 0.00584832 -0.00245303
N 0.55754519 15.59338739 6.29432106 0.00323022 -0.00384281 0.00609798
N 3.59597042 10.90834243 7.87315568 -0.00356186 -0.00634986 0.00813477
N 2.66400676 17.72028508 3.07405620 0.00149485 -0.00359822 0.00244511
N 0.04294526 15.13328276 10.42130021 -0.00360262 -0.00193138 0.00071543
N 1.98355886 13.80926251 14.92671108 0.00335497 -0.00473692 0.00280774
N 2.49911902 18.76041668 17.47205570 -0.00668534 -0.00458951 0.00123601
N 3.31657846 10.25470173 12.53396158 0.00322069 -0.00043365 -0.00294173
N 1.31726585 13.25830686 10.72586295 -0.00144826 0.00244859 0.00528621
N 1.04004281 15.84042751 15.38174976 0.00400880 -0.00288411 0.00101573
N 3.19969145 11.11067737 16.89271288 0.00441667 0.00484719 -0.00306644
N 2.00957719 18.33992633 12.20244314 0.00154564 -0.00386020 -0.00312229
N 0.82705827 15.44788072 19.43165201 0.00238071 -0.00004297 -0.00122406
N 1.09401345 13.62103869 23.84034092 0.00106451 -0.00097264 -0.00053523
N 2.27312783 18.84161324 26.29595073 -0.00689504 0.00365124 -0.00755184
N 3.15956715 10.45078061 21.32388655 0.00139313 0.00102443 -0.00365280
N 1.58343732 13.24277643 19.72221973 0.00920848 0.00727642 0.01078978
N 0.46823255 15.85113225 24.29589296 0.00237750 0.00194689 -0.00024948
N 2.78339334 10.85405815 26.07119651 -0.00154381 0.00203679 0.00532528
N 2.32624093 17.95769024 21.49834091 0.00187417 -0.00669494 -0.00139800
N 0.15777165 24.77925553 1.03541728 0.00380433 -0.00458682 0.00323986
N 1.31749509 22.97724722 5.75446092 -0.00597371 -0.00080832 0.00877513
N 2.13657046 28.25939027 7.90407655 -0.00125794 -0.00333073 0.00220200
N 3.57740928 19.84100908 3.49764259 -0.00574664 -0.00185024 -0.00083026
N 1.23256905 22.81027974 1.47872091 0.00296159 0.00073778 0.00159987
N 0.49688392 25.04360906 5.97265052 -0.00188772 -0.00391972 -0.00487804
N 3.32149516 20.45045287 7.74281251 -0.00305075 -0.00036279 0.00440346
N 2.09027108 27.46008113 3.01345893 0.00445029 -0.00250875 0.00359508
N 0.27722962 24.91350640 10.23566715 0.00409399 -0.00633382 0.00314126
N 1.59562106 23.20289039 14.81100738 0.00166199 -0.00551001 -0.00411625
N 2.25529685 27.99854477 17.11465679 0.00122609 0.00143851 -0.00168323
N 3.57267091 19.87622028 12.76986532 0.00376324 0.00395343 -0.00110570
N 1.39138911 23.03036147 10.68417787 0.00042453 0.00047086 -0.00130917
N 0.56639550 25.37491984 15.13409081 0.00090079 0.00164704 -0.00130985
N 3.46316674 20.79256086 17.29843111 -0.00059298 0.00115137 0.00276423
N 2.45592803 27.48696590 12.36763457 -0.01261060 0.00450990 -0.00987160
N 0.32839691 24.69050105 19.18368864 0.00219533 -0.00212693 0.00359953
N 1.94405890 23.56582109 23.57421510 -0.00540529 0.00340546 0.00355450
N 1.90393967 28.13732834 26.41706889 0.00426417 0.00048445 -0.00252888
N 3.41543381 20.08152566 22.04246328 -0.00974538 0.00443808 0.00676072
N 0.90581352 22.53992826 19.73243151 -0.00143149 -0.00213606 -0.00637750
N 0.21176981 25.06199824 24.13697583 0.00439069 -0.00338004 -0.00178437
N 3.42265648 20.80034310 26.07526060 0.00319966 0.00187420 0.00252238
N 2.15934771 27.29317349 21.41885719 0.00041444 0.00115486 -0.00304924
N 4.28300386 5.51919500 1.33759036 0.00004147 0.00006450 -0.00473367
N 5.43355114 4.41232439 5.91998206 -0.00562511 0.00197687 0.00335487
N 5.96531579 8.77230557 8.23539262 0.00242226 -0.00161925 0.00043385
N 7.12492405 0.80728006 3.32735894 0.00729095 0.00042346 0.00063813
N 5.15686553 3.38130071 1.50823902 -0.00392492 0.00057916 -0.00192309
N 4.10561152 6.20482209 5.69026818 -0.00192773 0.00584474 -0.00011301
N 6.66551229 1.25052026 7.74073422 -0.00129051 -0.00214785 0.00007534
N 6.22246789 8.28561877 3.06366824 -0.00176366 -0.00770418 0.00137023
N 4.00558534 5.67433968 10.43547713 0.00156090 0.00186214 0.00183774
N 5.14818752 4.18058832 14.81009800 -0.00125932 0.00052666 -0.00367690
N 5.48229876 9.08793520 17.18009879 -0.00335786 -0.00632580 0.00249012
N 7.36188981 0.81927591 12.71203945 -0.00555598 -0.00058572 0.00057001
N 5.09856984 3.69695237 10.80408910 -0.00401582 -0.00157340 0.00454370
N 3.76278353 5.97497047 15.04025947 0.00014850 0.00297062 0.00256910
N 6.97894982 1.21758885 16.70157041 0.00201973 0.00306345 -0.00166858
N 5.75191843 8.81404761 12.06603851 -0.00210046 -0.00194127 0.00284092
N 4.08907461 4.99056139 19.39812857 0.00217283 0.00098852 -0.00716977
N 4.78552536 3.96705967 24.14578527 -0.00254080 0.01016893 0.00269351
N 5.27971323 9.17944030 26.07976806 -0.00219195 0.00169578 -0.00252094
N 7.13560815 0.52924644 21.65910768 -0.00738560 0.00351547 -0.00593154
N 5.43680865 3.13221860 19.97210993 -0.00142871 0.00699745 -0.00363358
N 4.01350490 6.09631484 24.20964924 0.00240471 0.00272485 -0.00336984
N 7.18359094 1.24578482 26.06167827 0.00165761 -0.00688206 0.00248336
N 5.81937025 8.25610969 21.30486379 -0.00154085 -0.00209281 0.00383132
N 3.88598936 15.15026166 0.91312961 0.00826140 0.00148851 0.00269585
N 5.32878588 13.38298863 5.32666176 0.00238380 0.00109292 -0.00016701
N 5.99674993 18.14654969 8.21695838 -0.00110458 0.00354298 -0.00349125
N 7.04185117 10.48358222 3.15345338 -0.00088963 0.00128808 -0.00251556
N 5.30864181 13.37634589 1.01050064 -0.00220349 0.00013707 -0.00081796
N 4.07874564 15.25141431 5.71285694 -0.00239259 0.00199223 -0.00355612
N 7.13611306 10.65678593 7.57546559 0.00350713 0.00053164 0.00273058
N 5.83466793 18.03367862 3.10065410 -0.00360105 -0.00656040 -0.00105660
N 3.61121351 15.12751849 10.10006682 -0.00162453 -0.00781052 0.00029044
N 5.50691609 13.81936478 15.14281123 -0.00328164 0.00417757 -0.00990931
N 5.88179732 18.63523580 17.21933363 -0.00285131 -0.00015891 -0.00459626
N 6.88527953 10.60262886 12.89675620 0.00357901 -0.00143640 0.00054751
N 4.54143208 13.27644663 10.94673617 0.00003033 -0.01457006 -0.00310936
N 4.33027695 15.81937492 15.25748860 -0.00072873 0.00103146 -0.00039330
N 7.00338060 10.87326070 17.12737615 -0.00073126 0.00735362 0.00153457
N 5.91676775 17.87614848 12.34116729 -0.00063594 -0.00014930 0.00245764
N 4.11798053 15.15226626 19.71433487 0.00121893 -0.00818471 -0.00343032
N 5.34196316 13.71488772 23.93565611 0.00162359 -0.00594941 -0.00351209
N 5.85346388 18.34115421 26.08428937 -0.00234540 0.00041713 -0.00459985
N 7.21349873 10.14937088 21.56517741 0.00109943 -0.00042698 -0.00274810
N 5.09520695 13.11954470 19.71524757 0.00553972 0.00439135 0.00108856
N 3.98165231 15.53045895 24.23795612 0.00595547 -0.00585786 0.00403686
N 6.59829631 11.07845931 25.69113380 -0.00392135 0.00040690 0.00235815
N 6.05021831 17.98359840 21.27490169 0.00313980 0.00539889 -0.00281941
N 4.15755944 24.83173749 1.48970267 -0.00507146 -0.00236924 -0.00111510
N 5.32772287 23.20007894 5.88489719 0.00408790 -0.00335688 -0.00829715
N 5.41195364 28.07563923 7.94480945 -0.00802730 -0.00639181 0.00469056
N 7.23462782 19.89577968 3.62299471 -0.00724977 -0.00238041 -0.00086423
N 5.17750130 22.74518953 1.90062238 -0.00523485 -0.00473830 -0.00034471
N 3.95104662 25.07022656 6.23248761 -0.00340877 -0.00588789 -0.00947882
N 7.09379038 20.05439114 8.06682080 0.00484273 -0.00026849 -0.00185388
N 5.90646544 27.57427387 3.20423095 -0.00400765 -0.00099444 -0.00276725
N 4.41430917 24.84201744 10.47943329 0.00136436 -0.00055212 0.00153230
N 5.22496214 23.03740485 14.93791575 0.00712832 0.00007497 0.00441438
N 6.01104157 27.99778388 17.16368264 0.00326009 -0.00211610 -0.00079388
N 7.25293164 19.77819481 12.53871336 -0.00058903 0.00369769 -0.00411372
N 5.30739354 22.71144129 10.74947729 0.00253792 -0.00234743 -0.00096002
N 3.97261612 25.06940735 15.24198924 0.00146148 0.00552430 0.00062253
N 7.00497159 20.46025607 16.43139367 -0.00538509 -0.00073514 -0.00733275
N 6.39035054 27.63712510 12.26231090 -0.00298784 0.00301597 0.00511968
N 4.18816357 24.67189699 19.65823001 0.00164566 -0.00107999 -0.00519005
N 5.30912516 23.52950203 24.25456215 -0.00352076 0.00128290 0.00343337
N 5.78356606 28.22050837 26.03619519 -0.00128847 0.00027709 -0.00133025
N 7.02441652 20.02067241 21.80299065 -0.00548270 0.00362923 0.00406012
N 5.23402358 22.54750678 19.82515415 -0.00100302 0.00315138 -0.00016312
N 4.24787932 25.60686020 24.46409987 -0.00541879 -0.00377238 0.00109859
N 7.07716110 20.25224322 26.01568546 -0.00517618 -0.00518167 0.00197072
N 6.08193352 27.28052980 21.26466157 0.00152977 0.00365611 0.00389587
N 7.47067974 5.45225850 1.65438514 -0.00197010 -0.00206977 -0.00235164
N 8.75361912 4.33427147 5.83155561 -0.00770566 0.00047632 -0.00135776
N 9.68604129 8.73426012 8.09855006 0.01109877 0.00271260 -0.00143250
N 10.68568667 1.06181012 3.31989128 -0.00008842 0.00250420 0.00200694
N 8.84922763 3.59903897 1.40313653 0.00250193 -0.00218539 -0.00034260
N 7.59936521 6.27903684 6.22414128 -0.00009687 -0.00260483 -0.00550386
N 10.61161930 1.29561922 7.53158799 -0.00255080 -0.00066016 0.00163443
N 9.57834494 8.60270831 2.85529651 0.00110832 -0.00012695 -0.00393241
N 7.41501650 5.41444643 10.52347531 0.00074806 0.00856127 -0.00272059
N 8.87687014 4.40394567 15.14895061 0.00523522 -0.00121495 0.00159694
N 9.24318756 9.05134702 17.12595515 -0.00243248 0.00340341 -0.00204142
N 10.98223090 0.80172637 12.36181411 0.00206845 0.00165845 -0.00114059
N 8.82985163 3.52526587 10.57554624 0.00167419 0.00077049 -0.00354375
N 7.38848991 6.13906052 15.24166270 0.00057383 -0.00460901 -0.00235352
N 10.67942167 1.20175550 16.68608895 -0.00420570 -0.00655267 0.00134099
N 9.69567376 8.10418051 12.28807334 -0.00401331 -0.00254042 0.00309768
N 7.78319394 5.46890031 19.49291608 0.00129799 0.00386886 0.00390427
N 8.70947625 4.50195041 24.42585744 -0.00064701 -0.00046041 0.00588589
N 9.59725980 8.89293203 26.58715335 0.00583460 -0.00107964 0.00208795
N 11.16715482 0.58680655 21.41153590 0.00483440 0.00396807 0.00016520
N 8.72732310 3.46168706 19.94183180 -0.00651204 0.00326036 0.00322322
N 7.36178023 6.43467702 24.11563949 0.00591917 -0.00406024 0.00372809
N 11.02142536 1.15564045 25.74190640 -0.00094462 -0.00382233 -0.00214167
N 9.60341827 8.37559652 21.48808707 -0.00233525 0.00590635 -0.00353213
N 7.77758638 15.44343207 0.93352137 0.00409673 -0.00152916 0.00424865
N 8.68701689 13.65912170 5.85069010 0.00173945 0.00151571 0.00324782
N 9.51198499 18.18875853 8.22053562 0.00229496 0.00377281 0.00434700
N 10.62328172 10.51836121 3.51544778 -0.00283809 -0.00014995 -0.00752649
N 8.87888320 13.52183297 1.70176157 -0.00117029 0.00372748 0.00610625
N 7.67386689 15.68775732 5.90387128 0.00727916 -0.00418987 0.00071679
N 10.47055464 10.77974126 7.36876545 0.00709567 -0.00661940 -0.00067346
N 9.63167562 18.16871368 3.33831362 0.00165964 0.00023370 0.00014751
N 7.45737307 14.94623582 10.46102727 -0.00280580 0.00583351 0.00163614
N 9.21308361 13.30207136 14.68553748 -0.00323312 -0.00084282 0.00597619
N 9.25572565 18.55595106 17.02513305 0.00569068 0.00147423 -0.00247733
N 10.92026891 10.05967350 12.23041737 0.00073863 -0.00327370 0.00077472
N 8.75049660 13.10559679 10.24580462 -0.00069369 -0.00470753 -0.00379471
N 7.95458311 15.33346300 14.80618074 0.00022983 0.00061427 0.00055988
N 10.67432737 10.83543400 16.69053934 0.00175910 -0.00354436 0.00183590
N 9.52091518 17.69541181 12.06848936 -0.00036189 -0.00231770 -0.00604247
N 7.90351679 15.18019199 19.32704435 -0.00392292 -0.00288866 -0.00481181
N 8.72071134 13.41398636 23.94371031 -0.00458631 0.00111681 -0.00859086
N 9.27269561 18.79043599 26.11419171 0.00572520 0.00475512 0.00191727
N 10.99268676 10.13609687 21.87022910 0.00297253 0.00232437 0.00405765
N 8.68137168 13.10257264 19.78615277 0.00351849 0.00266300 0.00253091
N 7.89475058 15.53397596 24.14352684 0.00004437 -0.00111232 0.00206273
N 10.72194081 10.82327187 25.97210592 -0.00393679 0.00368404 -0.00580508
N 9.61564866 17.83731786 21.26907922 0.00304171 0.00270143 0.00445020
N 7.59766345 24.60659902 1.24348558 0.00060682 0.01097350 0.00499820
N 8.88848145 23.19967404 5.74101639 -0.00013936 0.00106781 0.00293037
N 9.10934463 28.42784595 8.12575965 0.00034366 -0.00308374 -0.00805116
N 11.02376586 19.96977924 3.40911014 0.00118033 0.00146072 0.00785417
N 8.54749396 22.48207574 1.28277633 0.00102565 0.00194706 0.00287178
N 7.79534985 25.20993433 6.28455748 -0.00362971 0.00069844 -0.00248232
N 10.63024507 20.09337435 7.53838903 0.00071640 0.00127856 0.00590244
N 9.73482426 27.88242820 2.78761047 0.00247986 0.00327583 0.00509202
N 7.82123767 24.60790869 10.34118562 0.00110428 0.00147447 -0.00578868
N 9.03218606 23.27882350 14.89642711 0.00660629 0.00377275 0.00366903
N 9.38991226 28.14759568 16.93522187 -0.00496219 -0.00207271 -0.00019907
N 11.07588609 19.43926621 12.65902183 0.00244854 0.00424917 -0.00075665
N 9.14430445 22.63666740 10.54465927 0.00107816 0.00667429 -0.00601377
N 7.78111865 25.16666306 14.89112369 -0.00585783 0.00139199 0.00637719
N 10.81581378 20.27498105 16.74087194 -0.00028072 -0.00353507 0.00514683
N 9.73524710 27.73279638 11.98502138 -0.00397511 0.00246175 -0.00051733
N 7.83039063 24.71411222 18.93472884 0.00343092 -0.00682938 -0.00193860
N 9.40700870 23.39559375 24.03290243 -0.00005323 -0.00455471 0.00160503
N 9.53377984 28.15604785 25.72729165 -0.00401288 0.00105908 -0.00872362
N 10.70586504 19.88403620 21.54220916 -0.00690401 -0.00931464 0.00280426
N 8.96773851 22.65451746 19.33722939 0.00578138 -0.00000311 -0.00451191
N 7.80200170 25.09308563 24.02780839 -0.00920786 0.00202589 -0.00538936
N 10.68704558 20.67065344 25.83431054 0.00205400 -0.00168148 -0.00440540
N 9.81352024 27.49818937 21.37867911 -0.00002825 -0.00469581 0.00348016
N 11.17555596 5.50004890 0.75774857 0.00648029 -0.00170242 0.00408447
N 12.83634419 4.11954335 5.75223049 -0.00167484 -0.00666931 0.00077594
N 13.16510043 8.51189160 8.25680273 -0.00187864 -0.00039006 -0.00271060
N 14.02153343 0.88629302 3.32029318 -0.00010263 -0.00918151 0.00506824
N 12.54637729 3.62447595 1.10605681 -0.00300053 -0.00252836 0.00172100
N 11.37814531 5.83736482 5.74001554 0.00535790 -0.00555690 -0.00034350
N 14.38071412 1.28982379 7.43704282 -0.00107523 -0.00554111 -0.00029232
N 13.23765488 8.29333506 3.05291269 0.00056291 0.00646029 0.00540026
N 11.19888260 5.27710145 10.24425950 0.00243635 0.00206070 0.00019864
N 12.13165506 4.14294312 14.67036747 0.00207344 -0.00448735 -0.00290362
N 13.11540864 8.97057950 17.40827312 0.00494671 -0.00261718 -0.00963804
N 14.37769676 0.63804267 12.69807386 -0.00064390 -0.00126421 -0.00169628
N 12.44180606 3.40699360 10.65487339 -0.01199686 -0.00729566 -0.00277898
N 11.50731383 6.38287897 15.31170718 -0.00481581 0.00737039 -0.00701763
N 14.20484459 1.61107361 16.98502089 -0.00248754 -0.00115113 -0.00087411
N 13.11193391 8.08049878 12.07508596 0.00359086 -0.00169565 -0.00419756
N 11.61265752 5.51156272 19.16718836 0.00712989 0.00265243 0.00020368
N 12.72003793 4.08820569 23.77985353 -0.00566900 -0.00485168 -0.00555389
N 12.97911920 8.88046503 26.16289363 0.00389008 -0.00229087 -0.00325187
N 14.59720723 0.87539905 21.49482578 -0.00065314 -0.00765174 -0.00514480
N 12.90663836 3.67716549 19.70183041 0.00193976 -0.00746910 -0.00304575
N 11.46199470 5.95268932 23.95906182 -0.01107732 0.00304664 0.00367954
N 14.58589762 1.35341888 25.86075890 -0.00192979 0.00118075 0.00655729
N 13.26345506 8.43578871 21.24541130 0.00313252 -0.00362838 -0.00023927
N 11.58623650 15.04033515 1.18288389 0.00681584 -0.00236264 0.00607450
N 12.57413729 13.49983036 5.60634227 0.00564239 -0.00371159 0.00480127
N 13.14961532 18.67417898 7.90954517 0.00266566 -0.00513803 -0.00254655
N 14.87067665 9.99728536 3.31592863 -0.00340766 0.00610702 -0.00727250
N 12.49674837 12.99274844 1.55624155 0.00135299 0.00297018 -0.00190596
N 11.55307347 15.58040742 5.77616851 -0.00083499 0.00113335 -0.00804279
N 14.19783005 10.58642043 7.75539276 -0.00469890 -0.00424974 -0.00169667
N 13.67585635 17.81132135 3.25056956 0.00224465 0.00376161 0.00116275
N 11.27413007 15.19767840 10.02831150 -0.00407030 0.00332842 -0.00244836
N 12.22178565 13.83853869 14.55227575 0.00407440 0.00408857 0.00175379
N 13.42486716 18.58782425 17.08207362 0.00071197 -0.00509020 -0.00405792
N 14.22760996 10.12715470 12.60750464 0.00189716 -0.00326422 -0.00307403
N 12.49862482 13.24259784 10.40922899 0.00054370 0.00401383 -0.00166767
N 11.32231465 15.86841952 15.10757072 -0.00039819 0.00304604 0.00308909
N 14.18512342 11.06616211 16.99612036 -0.00129321 -0.00119795 -0.00662405
N 13.20883480 17.94031358 12.06717051 0.00175459 -0.00065801 0.00633526
N 11.23620057 15.19820279 19.06607627 -0.00074004 -0.00067257 -0.00837739
N 12.80278298 13.83610678 23.96791943 0.00085244 0.00006878 0.00135481
N 12.90636499 18.74251164 26.01427483 0.00143891 0.00458280 0.00130710
N 14.33751679 10.41958261 21.61623747 0.00469952 -0.01054748 0.00047457
N 12.48110181 13.41777881 19.88319864 -0.00237027 -0.00127030 0.00079764
N 11.29872049 15.54211078 24.34375073 -0.00031130 -0.00321141 0.00353786
N 14.29295426 10.76534953 25.88463704 0.00439098 0.00543910 0.00334418
N 13.41548413 17.94751517 20.94055199 -0.00542433 -0.01529035 0.00187666
N 10.79098535 24.70998092 1.23848363 -0.00871546 0.00113938 -0.00183917
N 12.20093842 23.12108533 5.52899951 0.00171711 -0.00899730 -0.00249449
N 13.04212551 28.41854873 8.23462764 -0.00242370 0.00039509 -0.00048101
N 14.80604436 19.81216683 3.15875008 -0.00280884 -0.00307851 0.00539241
N 12.29586882 22.87020405 1.33989417 0.00102175 -0.00051097 0.00377092
N 11.42065564 25.29370007 6.09646183 -0.00312079 -0.00079877 0.00360849
N 14.42159362 20.53296991 7.62633575 -0.00609002 -0.00146475 -0.00469974
N 12.95081430 27.60051621 3.04029651 0.00162277 -0.00334478 0.00054441
N 11.46329467 24.74415824 10.12534067 0.00525991 0.00365788 -0.00282455
N 12.24061492 23.33212715 14.79655525 0.00605699 -0.00545540 -0.00204761
N 13.11702323 28.32838206 17.06849884 0.00233795 0.00412819 -0.00908224
N 14.62830196 19.72746697 12.37945633 -0.00433408 0.00347273 -0.00258958
N 12.54249161 22.76166496 10.78631955 0.00270676 0.00332193 -0.00052656
N 11.73437242 25.65382903 15.03087518 -0.00098331 -0.00408700 -0.00079533
N 14.57239322 20.46116548 16.58776368 -0.00689812 0.00042689 -0.00340318
N 13.42868756 27.44593067 12.03621110 0.00777581 0.00021341 0.00191806
N 11.56907969 24.74805873 19.10757836 0.00321535 0.00046167 -0.00096142
N 12.62957860 23.25660852 23.63949096 -0.00599758 0.00901641 -0.00152561
N 13.29195195 28.38838348 26.25383430 -0.00196111 0.00032499 -0.00251099
N 14.35757590 20.00956677 21.53385250 0.00119014 -0.00173594 0.00461863
N 12.52563919 22.66207415 19.65433348 0.00187607 -0.00252606 0.00951721
N 11.74505508 25.34550167 24.02711568 0.00384564 -0.00198427 -0.00310186
N 14.12651167 20.71744938 25.75060821 -0.00497243 -0.00581113 -0.00128211
N 13.49676147 27.69411883 20.86686455 0.00323092 -0.00048655 -0.00234106
N 14.78462984 5.68531985 0.70852130 -0.00907605 0.00442176 -0.00157677
N 16.54962155 4.14510731 5.27666455 0.00259868 0.00445642 -0.00064781
N 17.34368493 8.62984067 8.00521222 0.00000566 0.00562951 0.00170308
N 18.32732622 0.74568233 3.51271314 -0.00090236 -0.00041490 0.00020731
N 16.17808118 3.89752737 1.43325210 -0.00548599 -0.00133279 0.00083579
N 15.18002222 5.99330398 5.85145058 0.00005219 0.00339281 0.00026045
N 18.20103275 1.10737501 7.63604284 -0.00310622 -0.00034702 0.00274096
N 17.16031436 8.18347136 3.04850744 0.00199315 0.00272721 0.00039726
N 14.92880663 5.46772562 10.01738554 -0.00705749 -0.00108485 -0.00196590
N 16.34900701 4.07438769 14.77831704 0.00048982 -0.00329867 -0.00067506
N 16.85131707 8.96584920 17.07995708 -0.00709098 -0.00199640 0.00324793
N 17.82453677 0.95557330 12.99512416 0.00200187 0.00211127 -0.00387437
N 16.11135624 3.61039521 10.46302094 0.00103905 0.00272537 0.00122199
N 14.83999015 5.92123867 14.62280444 0.01163058 0.00379687 -0.00709432
N 18.04320920 1.22185728 16.79111455 -0.00051136 -0.00174830 -0.00189492
N 16.76175077 8.18653309 12.16156491 0.00289045 -0.00714804 -0.00248667
N 15.16106208 5.70905310 19.13416473 -0.00195987 -0.00480245 0.00448476
N 16.57385849 4.08372016 23.89584279 0.00561333 -0.00407919 0.00100907
N 16.74827965 8.96301102 26.03508229 -0.00564307 0.00295864 0.00734841
N 18.13843904 0.69363424 21.63999572 0.00110212 -0.00481176 -0.00182877
N 16.21297063 3.78137206 19.82319037 -0.00504626 -0.00080429 -0.00257519
N 15.23004319 5.86810858 24.25763168 0.00409031 -0.00176291 -0.00254315
N 18.25564749 0.92855079 26.00762835 0.00281660 0.00669151 0.00078571
N 16.91170886 8.59931500 21.07737797 0.00872970 -0.00082064 0.00047512
N 15.00339616 15.00232513 0.88342941 -0.00332276 0.00325711 0.00077742
N 15.83153617 13.52569766 5.67796297 0.00330688 0.00403726 0.00781149
N 16.91989353 18.67316181 7.82007426 0.00548749 0.00088157 0.00320133
N 18.21159097 10.15906212 3.46217441 -0.00378577 0.00060141 -0.00251532
N 16.04405313 12.99882260 1.15874446 0.00104847 0.00817100 -0.00207258
N 15.20376900 15.73139885 5.96974108 -0.00004266 -0.00098694 0.00527616
N 18.30604402 10.73887641 7.57503596 0.00036121 -0.00045778 0.00298055
N 17.36657646 18.02577454 3.30609844 0.00557263 -0.00129270 0.00013279
N 14.89734893 14.97629814 10.08317399 0.00069615 0.00013007 0.00163559
N 16.13071586 13.76185213 14.88597373 -0.00627068 0.00441375 0.00002280
N 17.23842112 18.47402421 17.09654405 0.00452332 -0.00037361 0.00029562
N 18.12832011 9.94951140 12.68436267 -0.00008209 -0.00684381 0.00198091
N 16.05126496 13.08625963 10.52528136 -0.00069540 0.00273013 -0.00200862
N 15.05750589 15.71531722 15.17073294 -0.00210724 -0.00061165 0.00359417
N 18.01381000 11.02701998 16.87193298 -0.00196991 0.00348954 -0.00321622
N 16.80341568 17.61681729 12.29516727 -0.00086969 0.00038575 0.00284098
N 14.96772726 14.95390145 19.46402220 0.00122936 0.00103545 0.00188614
N 16.43760625 14.06672176 23.72371585 0.00342362 0.00530683 -0.00560711
N 16.77284659 18.71497361 26.53164785 -0.00208707 -0.00203489 -0.00331645
N 18.49458129 10.26227795 21.51212582 0.00143503 -0.00374845 0.00904759
N 16.22207420 12.97427797 19.70144593 0.00088874 -0.00084005 0.00331305
N 15.17279291 16.00785204 24.18411111 0.00106116 0.00521698 -0.00758644
N 17.94943374 10.92325252 25.78212725 0.00022876 0.00136387 0.00407273
N 16.95100051 18.19298318 21.24884248 -0.00315234 0.00209308 -0.01033073
N 14.87033901 24.86757270 1.21778535 -0.00264695 -0.00423626 0.00342549
N 16.24042629 23.50624825 6.11903081 -0.00126863 0.00419694 0.00017723
N 16.70492655 28.30633859 8.13623873 0.00778295 -0.00516417 -0.00369329
N 18.52744411 20.06137219 3.36757548 -0.00007472 -0.00421349 -0.00791256
N 16.29576299 23.02175963 1.28852417 -0.00573184 -0.00141930 -0.01003940
N 15.01720709 25.52562975 5.99938239 0.00211237 0.00276077 -0.00343146
N 18.28704858 20.58451216 7.91523998 0.00769177 -0.00042371 0.00129037
N 16.95307608 27.76418942 3.16282276 -0.00366444 -0.01075161 0.00563202
N 14.79458564 24.63371409 10.33987165 -0.00194428 -0.00915195 0.00090415
N 16.29104216 23.41175394 14.67789841 -0.00464152 -0.00159093 0.00227738
N 16.53107555 28.30766637 16.94988600 0.00824523 0.00182280 -0.00336990
N 17.86316397 19.63655381 12.60676545 -0.00040481 -0.00361639 -0.00265723
N 15.97563453 22.64040081 10.43368238 0.00646235 0.00154874 -0.00220970
N 15.32863352 25.56179005 14.82238204 -0.00115649 0.00032654 -0.00148632
N 18.28856709 20.46393379 16.83871612 0.00347022 -0.00059260 -0.00733726
N 16.91788891 27.80675668 11.90876657 0.00046385 -0.00125222 -0.00386540
N 15.14732346 24.58349495 19.21842802 -0.00287586 -0.00123935 0.00080765
N 15.97335218 23.50651854 23.85592755 0.00057774 -0.00394897 -0.00351418
N 17.01750938 27.94342402 26.62891208 -0.00147909 -0.00484130 0.01040477
N 18.19303911 20.07353735 21.66273313 0.00244518 -0.00176275 -0.01289127
N 16.28507528 22.54458909 19.52470760 -0.00262813 -0.00290692 -0.00415096
N 14.81644887 25.34423368 24.71548101 -0.00321575 0.00038094 0.00027233
N 17.66020918 20.74952291 26.08675827 0.00331720 -0.00429724 -0.00014384
N 17.17462687 27.50670617 21.30620239 -0.00269542 -0.00034748 0.00071805
N 19.93324765 5.59554003 0.80812777 0.00709865 0.00463582 0.00100135
N 19.73195924 3.78640911 5.43160677 -0.00225482 0.00211671 0.00045599
N 20.93404288 8.59149197 7.52189795 0.00088566 -0.00338144 -0.00336545
N 22.04797956 0.31475953 3.30895161 0.00180147 0.00058948 0.00173009
N 20.24662151 3.33441227 1.40109471 -0.00100917 0.00410864 -0.00167007
N 19.03088802 5.91696414 5.90976660 0.00543285 0.00106707 0.00681950
N 21.72429668 1.28104959 7.65615594 0.00087833 0.00468725 -0.01021689
N 20.96372836 8.61651221 2.58576091 -0.00086292 -0.00137767 -0.00698181
N 18.57302788 5.14706890 10.43317555 -0.00043406 0.00038371 0.00328163
N 19.99413709 4.05174797 14.90629196 -0.00147144 -0.00119929 0.00121644
N 20.57807953 8.73894744 17.24124987 0.00272431 -0.00089532 0.00058806
N 0.28708041 0.72708804 12.61727916 0.00127244 0.00406696 -0.00320199
N 20.06411861 3.37841979 10.60374162 0.00368327 -0.00062728 0.00064321
N 18.56810807 5.84880868 15.21302343 -0.00133257 -0.00511441 0.00425280
N 0.08564011 1.11515289 16.77029710 -0.00236522 -0.00150241 -0.00206334
N 20.27933632 7.83883835 12.17235126 0.00685850 0.00208899 0.00693553
N 18.65886944 5.58209665 19.56106234 -0.00584882 0.00236943 0.00077286
N 19.86090136 4.07813787 24.31884273 0.00843236 0.00182268 0.00472508
N 20.66416572 9.10562147 26.26852787 0.00120569 -0.00876486 -0.00419022
N 21.60763874 0.60486073 21.80225208 -0.00441216 -0.00187738 -0.00244926
N 19.64113005 3.62232946 19.93858206 -0.00059965 0.00023022 -0.00426562
N 18.76983289 6.07611420 24.33118302 -0.01024803 -0.00119370 -0.00182174
N 21.67215650 1.10198801 25.90649948 -0.00046910 0.00186158 0.00065409
N 20.88746306 8.21433804 21.26313300 -0.00253083 -0.00462963 -0.00516274
N 18.79267842 15.42393520 1.29953928 0.00159057 0.00531661 -0.00284628
N 20.12539503 13.88083647 5.67193342 0.00907086 -0.00376622 0.00280849
N 20.77572699 18.54226685 8.48725182 0.00195916 0.00086352 0.00400440
N 21.86967809 10.59405151 3.39568375 -0.00189880 0.00034935 -0.00016721
N 19.91937817 13.34451354 1.54368710 -0.00399739 0.00214502 0.00235343
N 18.89250312 15.89803058 6.06160309 0.00388834 -0.00150396 0.00006427
N 21.90229560 10.71210577 7.85159111 -0.00068782 0.00259978 0.00184662
N 21.05636541 18.35219351 3.14734315 0.00193049 -0.00041579 -0.00238468
N 18.65910722 15.12882442 10.17914759 0.00434634 0.00132368 0.00224523
N 19.68649503 13.61628074 14.82528316 0.00050435 -0.00260909 -0.00573155
N 20.70879467 18.43954757 17.06873411 -0.00037053 -0.00632871 0.00062014
N 21.53876619 9.69737899 12.27587544 -0.00051610 -0.00018654 0.00005152
N 19.75114170 13.19397969 10.67531154 0.00389095 -0.00208892 -0.00457826
N 18.94195651 15.63494220 15.40091315 -0.00434603 0.00216720 -0.00683946
N 21.53988711 10.84551224 16.61051129 0.00202240 -0.00797230 0.00008602
N 20.10274417 17.82029072 12.40602267 0.00291035 -0.00052385 0.00360321
N 18.72937884 15.12401032 19.34611689 0.00326884 -0.00585035 0.00689627
N 20.11514471 14.19746454 24.28900189 -0.00544783 0.00360642 -0.00130531
N 20.87163025 18.33795362 27.14352345 -0.00280539 0.00230530 0.00035957
N 21.78466783 10.27869531 21.55730937 -0.00546170 0.00302921 -0.00228079
N 19.73229991 13.08119094 19.77467608 0.00293810 0.00276289 0.00349171
N 18.65995702 15.92743360 24.81856130 0.00422306 0.00515866 -0.00174331
N 21.51750414 11.21404377 26.12129684 -0.00068114 0.00158627 0.00006946
N 20.61424857 17.85514185 21.42414969 -0.00347302 0.00051309 0.00176870
N 18.42032682 24.99957078 0.99469487 0.00198485 -0.00450866 0.00104870
N 20.18339639 23.46146018 5.85604235 0.00356110 0.00365487 0.00060986
N 20.75727591 28.20339918 8.10415959 -0.00423174 -0.00002913 0.00381427
N 0.17620801 20.06611743 3.79417107 -0.00188701 0.00375996 -0.00585454
N 19.68240858 23.07422118 1.52392814 -0.00073762 0.00359842 0.00803845
N 18.94526712 25.36906569 6.44747695 0.00530259 -0.00078337 0.00001765