1728
Time=35000.00000001 pbc="T T T" Lattice="22.07666058 0.00000000 0.00000000 0.00000000 28.82475774 0.00000000 0.00000000 0.00000000 27.41762770" energy=-10389.49175286 virial="21.22656882 -4.20926094 16.96456050 -4.20926094 40.97110747 0.15406941 16.96456050 0.15406941 29.20433970" stress="0.00345578 -0.00038634 0.00101852 -0.00038634 0.00491430 -0.00016089 0.00101852 -0.00016089 0.00442936" Properties=species:S:1:pos:R:3:vel:R:3
N 0.64002151 5.56802889 1.01230317 -0.00270629 0.00170288 0.00530216
N 1.65271433 4.23400873 5.68419037 -0.00467641 -0.00877862 0.00396449
N 2.02766545 8.86306491 8.11454907 0.00450390 0.00225326 0.00122426
N 3.68604303 0.62334730 3.29442672 -0.00291174 0.00082570 0.00528077
N 1.44281048 3.53807106 1.61633460 0.00039410 -0.01208902 0.00617508
N 0.38012607 6.16385537 5.96396867 -0.00034330 -0.00200124 0.00144799
N 3.08647215 1.51785673 7.45779394 0.00668724 -0.00238181 -0.00869060
N 2.27273979 8.75188128 3.35562691 -0.00266792 -0.00669317 0.00073346
N 0.12347736 5.52031672 10.17671761 0.00059952 -0.00236686 -0.00083934
N 1.59524200 3.82989343 14.48682918 -0.00265206 -0.00403941 0.00371419
N 2.31918314 8.75134304 17.08860914 0.00308754 0.00014031 0.00784284
N 3.30061873 0.61382969 12.48658599 0.00354053 -0.00028799 0.00843911
N 1.31053174 3.69546271 10.58112493 -0.00379728 0.00349896 0.00705555
N 0.42726884 5.83109113 14.85910280 -0.00510716 0.00101293 0.00545191
N 3.47724728 1.35819007 16.78443073 -0.00282477 0.00400207 0.00125301
N 2.28816058 8.30048537 12.51759421 -0.00248417 -0.00053365 -0.00108395
N 0.14895614 5.43364573 19.38264570 0.00223883 0.00219128 -0.00552888
N 1.70709824 4.04729977 23.83845756 0.00062457 -0.00121740 0.00229832
N 2.04664919 8.69806820 26.23053820 -0.00422589 -0.00576101 -0.00743441
N 3.35297894 0.69596565 21.72538863 -0.00253073 0.00249002 0.00076030
N 1.36819167 3.48858248 19.86977872 -0.00715377 -0.00041629 0.00171872
N 0.35592675 5.79750468 24.33492374 -0.00237562 0.00069416 -0.00154300
N 3.16871951 1.10148935 25.89237096 0.00244027 -0.00913405 -0.00397881
N 2.13763671 8.31804679 21.42667052 0.00013120 0.00107816 0.00034473
N 0.09991174 15.08087868 1.27894516 -0.00461900 -0.00501023 -0.00373644
N 1.32755270 13.58599119 5.82563359 0.01094030 0.00279811 0.00074585
N 2.11633036 18.39571408 8.17375093 0.00658634 -0.00257531 0.00094022
N 3.45753868 10.71540632 3.45153703 0.00029870 -0.00605766 -0.00285150
N 1.51913396 13.32438174 1.34353297 0.00336899 0.00636532 -0.00072443
N 22.00739800 15.37175251 6.28984822 -0.00081773 -0.00285464 -0.00129880
N 3.21072839 10.75510951 7.69331690 0.00587368 0.00295874 0.00383229
N 2.05553774 17.88195442 3.41917206 0.00287706 -0.00307791 0.00071948
N 0.01812919 15.11541417 10.29348968 -0.00800927 0.00353595 -0.00157280
N 1.53925201 13.78447845 14.60770334 -0.00228841 0.00135623 0.00009624
N 1.75423783 18.56454959 17.17509516 0.00296838 0.00098542 0.00414765
N 3.63657776 10.18075744 12.37640693 -0.00334478 0.00437550 0.00260950
N 1.16649387 13.08587725 10.56311069 -0.00653902 0.00679887 -0.00346046
N 0.32576166 15.71794919 15.10116411 0.00750879 0.00575854 0.00232222
N 3.59603116 10.79353888 16.88785908 -0.00008064 -0.00657208 0.00061699
N 2.18702350 17.97526043 12.48512928 0.00374961 -0.00067169 0.00557962
N 22.05612841 15.20261337 19.21581061 0.00426014 0.00284417 -0.00677050
N 1.83983697 13.92949591 24.29318115 0.00853384 0.00086897 -0.00115266
N 2.15983521 18.40362802 26.54519451 0.00006666 -0.00225783 0.00140600
N 3.51591604 10.27004541 21.82555693 -0.00149946 0.00159706 -0.00970441
N 1.02939562 13.17409630 19.58238648 0.00136273 0.00444986 -0.00123828
N 0.23779697 15.66550554 24.53584553 -0.00260298 -0.00010203 -0.00238311
N 2.96182494 10.83085248 25.90918316 0.00481004 0.00874691 0.00372831
N 1.98661243 17.83895743 21.58513539 0.00405861 -0.00000553 0.00336179
N 0.41135628 24.46563643 1.01781875 0.00614253 -0.00426988 -0.00057141
N 1.59039451 23.24982302 5.95554260 -0.00434982 0.00182776 -0.00457471
N 2.03653172 28.29368562 7.73380390 -0.00043542 -0.00610900 -0.00126040
N 3.19961356 19.87380727 3.80218978 -0.00913754 -0.00068618 0.00013552
N 1.89266798 22.78853613 1.75302763 0.00083928 -0.00042576 0.00433857
N 0.56237815 25.24752433 6.14469129 0.00017768 -0.00068149 -0.00236357
N 3.04782190 20.43271576 7.94718516 0.00281202 -0.00191871 0.00050042
N 2.48108656 27.47511158 2.73907105 0.00021402 -0.00543774 -0.00223110
N 0.22352741 24.54326421 10.50895109 0.01334595 0.00290904 -0.00227677
N 1.76426482 23.18939771 14.83641124 0.00175675 0.00174177 -0.00503335
N 2.49292754 28.19682088 17.15323114 -0.00261312 0.00248720 0.00482338
N 3.44146542 19.86404596 12.79352758 0.01023655 -0.00418285 -0.00650681
N 1.80197083 22.89097597 10.75311985 0.00080173 -0.00106318 0.01122435
N 0.16194230 24.80455972 15.22737359 -0.00480746 -0.00494930 -0.00284947
N 3.09782878 20.40910903 16.75704701 -0.00020262 0.00398265 -0.00371578
N 1.97950752 27.51470201 12.36850849 -0.00373661 0.00042206 -0.00402969
N 0.23480439 24.60572097 19.65752799 -0.00045630 0.00567401 -0.00233239
N 1.63050864 23.27655547 24.20616975 -0.00318337 -0.00467966 0.00439260
N 2.09259442 27.83517365 26.24715714 0.00133328 0.00026856 -0.00139834
N 3.46272302 19.66321145 21.66988614 -0.00242684 -0.00258499 -0.00275942
N 1.52901490 22.77883199 19.83594001 -0.00319666 0.00257519 0.00885719
N 0.44853115 25.23017297 24.49156348 -0.00007689 -0.00588912 0.00460721
N 3.44901700 20.36917383 26.25070366 0.00137222 -0.00237101 -0.01259216
N 2.14860112 27.51995300 21.53664493 -0.00385186 0.00625832 -0.00285607
N 3.53542613 5.71163761 1.45800505 0.00798296 0.00536426 0.00652004
N 5.26848013 4.19295911 5.89691984 -0.00071966 0.00070295 0.00425938
N 6.01131425 8.69734459 8.10990234 -0.00032423 -0.00138386 -0.00534655
N 7.19719132 0.55045962 3.73119047 0.00021710 -0.00063167 -0.00190932
N 4.95015679 3.85681556 1.70104886 0.00394774 0.00238692 -0.00793054
N 3.95846142 6.11387409 6.26754172 -0.00461513 -0.00173555 -0.00510621
N 7.02365012 1.26522065 7.70999044 0.00053131 0.00379667 -0.00252857
N 5.93985672 8.42228255 3.38414589 -0.00901057 0.00185635 0.00714386
N 4.13174668 5.54049845 10.57638973 0.00515667 0.00392264 -0.00255131
N 5.65691588 4.32033105 14.99277086 0.00117608 0.00408904 -0.00011457
N 6.26305385 8.67313574 17.04654578 -0.00242121 0.00802133 -0.00013571
N 7.10538267 0.53019471 12.61644124 0.00288727 0.00309805 -0.00253973
N 5.25375950 3.56633020 11.00712109 0.00106031 0.00279865 -0.00025879
N 4.13232756 6.11522250 15.01585327 0.00021298 0.00808231 -0.00419764
N 7.17042899 1.03613594 17.29577556 -0.00109671 0.00249830 0.00763648
N 6.12429287 8.65763277 12.11314716 -0.00320529 -0.00849394 0.00045779
N 4.07043463 5.44599610 19.34038024 0.00381959 0.00036766 -0.00199022
N 5.33930752 4.13264665 24.32073164 -0.00131197 -0.00360692 -0.00078455
N 6.32935672 8.89504866 26.41452271 -0.00388095 -0.00006271 -0.00195669
N 6.67063313 0.51892951 22.17641855 -0.00794841 0.00164609 -0.01264605
N 5.45897995 3.76139044 20.01268205 0.00066752 -0.00464606 0.00792500
N 4.04255308 6.00283498 24.76784590 -0.00267919 -0.00297206 -0.00259175
N 6.78431679 1.12969409 26.17903016 -0.00212439 -0.00473408 -0.00030080
N 5.99988272 8.35857590 21.31774485 -0.00616048 0.00143643 -0.00181977
N 3.67687096 15.21225149 1.21902191 0.00888623 -0.00329904 0.00128909
N 4.81547470 13.53026192 5.51574689 0.00047073 0.00030343 0.00496614
N 5.91694542 18.23857089 8.15666620 0.00592398 -0.00031842 -0.00377465
N 7.06651465 10.41842719 3.17385871 -0.00131511 -0.00287636 -0.00214115
N 5.19285533 13.50541087 1.33229242 -0.00129348 0.00550022 0.00439646
N 3.72948435 15.40226069 6.26977048 0.00187897 0.00372997 0.00640486
N 6.36831765 10.85707386 7.59833325 0.00217713 0.00680120 0.00464118
N 6.11430408 17.72807476 2.93571727 0.00339201 0.00378860 0.00281236
N 3.64587944 14.98308500 10.61411817 -0.00363132 0.00228418 -0.00024512
N 5.17929022 13.73571697 14.86452133 0.00283058 -0.00487725 0.00009526
N 5.92762100 18.41701210 17.02236257 0.00355127 -0.00397602 0.00389684
N 7.40688247 10.45759101 12.52925893 -0.00275993 -0.00166732 -0.00093352
N 5.04960386 13.15074925 10.74462298 -0.00324025 0.00742403 0.00454780
N 3.86986710 15.58953566 15.45804830 -0.00573449 -0.00130546 0.00435267
N 7.23005544 10.71915781 16.76956132 0.00004502 -0.00182825 0.00084619
N 5.96356755 17.80924984 12.02434234 -0.00162822 0.00359180 -0.00462085
N 4.15478069 15.13970064 19.29891299 -0.00115314 0.00602436 0.00020414
N 5.43915584 14.09463151 23.76320433 0.00067522 0.00384938 -0.00356467
N 5.76800181 18.58228971 25.92365622 0.00250342 0.00097840 0.00479198
N 7.05976635 10.45823413 21.59070668 0.00002001 0.00671024 -0.00156381
N 4.78389495 12.93971403 19.80963978 -0.00178711 0.01158611 0.00354399
N 4.22650824 15.89794449 24.29269619 -0.00644580 0.01622923 0.00157978
N 6.94814194 11.02282655 25.81591335 -0.00345681 -0.00767427 0.00561562
N 6.07769198 18.01859822 21.10709887 0.00132683 0.00070708 0.00137515
N 4.23482277 24.19568508 1.24738373 0.00207573 -0.00146448 0.00398733
N 5.36353574 23.26683373 6.10495047 0.00041023 0.00081617 0.00321620
N 5.74025714 28.21584160 8.30007616 0.00379522 -0.00146515 -0.00405995
N 7.30771072 19.56609487 3.71915016 0.00783368 -0.00281825 -0.00286736
N 5.40326355 22.30192239 1.58058450 -0.00312526 -0.00058034 -0.00435985
N 4.30111789 25.28034952 6.25002372 0.00411445 -0.00306542 -0.00383815
N 6.78434153 20.35656516 7.95769280 0.00012147 0.00247053 -0.00178507
N 5.93830006 27.35131421 3.30245430 0.00074934 -0.00150993 0.00302948
N 3.96916884 24.76067670 10.21022397 -0.00216816 -0.00718971 -0.00125339
N 5.08192341 23.22600747 15.20283512 0.00141952 -0.00135615 -0.00481734
N 5.94501590 27.86574632 17.61337923 -0.00298574 -0.00342774 -0.00579068
N 7.01442348 19.87730546 12.30521708 -0.00263225 -0.00020872 0.00542439
N 5.20072548 22.97553243 10.95554071 0.00467660 -0.00456539 0.00074609
N 4.10900484 25.27103401 15.16786249 -0.00237714 -0.00834451 -0.00619138
N 6.77866659 20.46550332 17.08512130 0.00686720 -0.00435340 0.00568996
N 5.68926841 27.43203107 12.48967601 -0.00652049 0.00615186 -0.00667790
N 3.80570647 24.79625486 19.56052602 0.00800213 -0.00636538 -0.00334277
N 5.03068440 23.19471229 23.91992384 -0.00016274 0.00120845 0.00808674
N 5.46533875 27.97311932 26.28531558 -0.00782010 -0.00423670 0.00376476
N 7.24175531 19.92879561 21.54437144 0.00304570 -0.00029833 0.00561908
N 4.81470312 22.76317999 19.87243061 0.00331439 0.00541526 0.00378113
N 3.87306399 24.99233140 24.65140023 -0.00314124 -0.00403595 -0.00078609
N 6.91331538 20.54921891 25.88225006 -0.00160930 0.00508987 -0.00612048
N 5.76432337 27.32416625 21.76901904 0.00413387 0.00376612 0.00004853
N 7.55425363 5.59760845 1.32722995 -0.00240264 -0.00060525 -0.00071339
N 8.87660597 3.94060000 5.53933758 -0.00101944 0.00318920 -0.00428645
N 9.27869814 9.16227753 7.87913637 -0.00050180 0.00331824 -0.00178015
N 10.81267094 0.53562090 3.11571494 0.00032207 0.00618707 0.00261419
N 8.76969812 3.65407786 1.44477453 -0.00058779 -0.00000615 0.00717007
N 7.78877860 5.95370763 5.91432102 0.01063498 0.00265462 0.00230248
N 10.83812984 1.05791310 7.39622893 0.00057879 -0.00245605 0.00417522
N 9.81298404 8.70560319 3.21206609 0.00425205 0.00194367 0.00463752
N 7.28942888 5.55358178 10.40738177 -0.00487912 -0.00013108 0.00336219
N 9.07218689 3.94743365 14.70495039 0.00187962 -0.00846490 -0.00846672
N 9.63679466 9.00539082 17.12936719 -0.00071214 0.00686271 -0.00268296
N 10.84823555 0.81215435 12.29041991 -0.00769164 0.00231372 -0.00187307
N 8.60426616 3.54114631 10.62566855 0.00474391 -0.00046744 -0.00100819
N 8.01521452 5.94986511 15.13191696 0.00198623 0.00488758 -0.00081197
N 10.87380800 0.88935927 16.57191800 -0.00450151 -0.00584496 -0.00376474
N 9.46242557 8.19623695 12.29010266 -0.00334157 0.00006865 0.00702177
N 7.85594915 5.54101720 19.54031161 0.00187662 -0.00044361 -0.00246205
N 9.04742520 4.28962840 24.24160890 -0.00014112 -0.00933161 0.00106895
N 9.47836583 9.33293878 26.17090531 -0.00098121 0.00087750 0.00082763
N 10.94873861 0.41177083 21.57264999 0.00833693 -0.00026664 -0.00685937
N 8.62368606 3.42894900 19.79386157 -0.00089747 0.00473613 -0.00179570
N 7.67194185 6.17877205 24.06887238 -0.00046989 -0.00383393 0.00037722
N 10.52114797 1.41947173 25.80967402 0.00050267 -0.00236914 0.00010076
N 9.76816390 8.49133437 21.30649987 0.00167958 -0.00207040 0.00405512
N 7.62679296 15.07231037 0.67417689 0.00053884 0.00809500 -0.00559022
N 8.91030413 13.72127982 5.39718496 -0.00275445 -0.00199998 0.00301277
N 9.25320319 18.61133095 7.80744166 0.00017014 -0.00136368 0.00168480
N 11.02893963 10.52730585 3.84927674 -0.00115027 0.00271961 -0.00161800
N 8.95564399 13.31729275 1.26458489 0.00405561 0.00561837 -0.00142872
N 7.76599831 15.59347972 5.82761869 0.00302249 -0.00088790 -0.01006004
N 10.35597931 11.17032604 7.59825877 -0.00107240 -0.00799241 -0.00251799
N 9.86819921 17.93210544 3.17355410 0.00819106 -0.00128092 0.00168096
N 7.40697675 15.43489655 10.48322825 0.00811645 -0.00729198 0.00056083
N 8.89827938 13.86253487 14.97966234 0.00051508 -0.00164064 0.00156187
N 9.11016375 18.64379501 16.79633792 0.00369590 0.00073007 -0.00425725
N 10.78000297 10.08150219 12.23800611 -0.00270281 0.00535153 -0.00669350
N 8.82178683 13.54617182 10.41746726 -0.00808163 -0.00032076 0.00237673
N 7.44079122 15.66432690 15.20050800 0.00050345 0.00671994 0.00487639
N 10.66620401 11.01973394 16.88142176 0.00237307 -0.00196000 0.00262226
N 9.53711632 17.95019552 12.22893543 0.00157593 0.00408715 0.00105622
N 7.81530144 14.92406273 19.58695240 0.00062059 0.00091310 -0.00575134
N 9.37801739 13.66288057 24.02301128 0.00346343 0.00503723 0.00271434
N 9.54922378 18.85600433 25.94580890 0.00317136 -0.00331948 -0.00029319
N 10.81116050 10.43406675 21.89661565 0.00083339 0.00550553 -0.00112461
N 9.12238214 13.10066089 19.71215243 0.00115564 -0.00004607 0.00713766
N 8.03290163 15.51180521 24.30405479 -0.00191620 -0.00390307 -0.00065022
N 10.92599567 11.11003192 26.28595876 -0.00326518 0.00364834 0.00259251
N 9.61250829 17.92501548 21.08092430 0.00121591 0.00301528 -0.00222295
N 7.61547283 24.19894847 1.07436608 0.00832132 0.00443528 0.00383471
N 8.67181392 23.19326419 5.62055510 0.00102407 0.00440506 0.00257687
N 9.22280654 28.24954701 7.89486364 0.00808918 0.00087045 -0.00682332
N 10.82906101 20.04390318 3.67891182 0.00050284 -0.00952238 0.00415253
N 9.16264214 22.60353721 1.62051191 0.00258114 -0.00634333 0.00371232
N 7.58931661 25.06280968 6.24326777 -0.00184867 -0.00510038 0.00162653
N 10.38067872 20.55944025 7.82093709 0.00203501 -0.00611450 -0.00004574
N 9.38074012 27.56604052 3.00264363 0.00295261 -0.00189288 -0.00085576
N 7.96044186 24.75563669 10.37238895 -0.00218279 0.00437213 0.00177173
N 8.86370918 23.21637778 14.72102978 0.00261786 0.00040550 0.00490251
N 9.47309910 28.04200822 17.12754892 0.00017554 -0.00029765 -0.00081568
N 10.48128994 19.98309032 12.61586342 0.00415092 0.00063408 0.00080773
N 8.98944595 22.70791331 10.58077717 -0.00417582 0.00207791 -0.00091330
N 7.60687042 25.14837094 15.30395761 0.00288645 -0.00393003 0.00165437
N 10.47439348 20.48727842 16.73465568 -0.00267383 0.00216534 0.00002870
N 9.52645903 27.76057557 12.10538809 -0.00167245 -0.00253744 0.00689723
N 7.76350189 24.84316761 19.66499217 0.00219214 -0.00323558 0.00832382
N 8.82742014 23.06714899 23.98051033 -0.00206956 -0.00486589 -0.00095505
N 9.31390700 28.26880634 26.09427322 -0.01288923 -0.00377862 0.00147285
N 10.84463086 19.89607294 21.40770620 -0.00325238 0.00166226 0.00067916
N 8.72064411 22.64878715 19.55941955 -0.00375428 0.00181113 -0.00036797
N 7.33767631 24.74752754 24.62405238 0.00051731 -0.00096060 -0.00255907
N 10.75335916 20.80208814 25.82821629 -0.00447496 0.00019196 -0.00202853
N 9.10274811 27.78775731 21.34105413 0.00154697 -0.00530082 0.00121322
N 11.08798777 5.58264016 1.08849248 -0.00245329 -0.00585354 -0.00326009
N 12.47971868 4.03729208 5.57075124 -0.00263444 0.00127890 -0.00076308
N 12.99970854 8.69949185 8.02774617 -0.00169284 -0.00165292 -0.00059167
N 14.29572234 0.83078253 3.28087838 -0.00245406 0.00278528 -0.00271396
N 12.45654771 3.73530707 1.30295922 -0.00265054 -0.00183886 -0.00492063
N 11.55528948 6.03700042 5.96673417 0.00436871 0.00386939 0.00336702
N 14.40309989 1.30223482 7.50183836 0.00346914 -0.00476706 -0.00444014
N 13.19369363 8.39203770 3.16925464 -0.00401387 -0.00125207 0.00111415
N 10.96201234 5.39331393 10.40381227 -0.00184817 -0.00222097 0.00343172
N 12.46868710 3.86553702 14.91470916 -0.00412965 -0.00306114 -0.00150478
N 13.44937108 9.07965379 16.89829298 -0.00601807 -0.00282333 0.00098195
N 14.24777738 0.99685186 12.48240305 -0.00342502 0.00283554 -0.00439709
N 12.43166613 3.58803228 10.44227972 -0.00612267 0.00427602 -0.00118272
N 11.65277171 5.99454491 14.85846262 0.00008082 0.00444484 0.00137480
N 14.62356400 1.06865740 16.75093511 -0.00723258 -0.00746931 0.00298204
N 13.21093823 8.46929455 11.63849579 0.00768917 -0.00322139 -0.00015723
N 11.56155878 5.27729266 19.41959841 0.00253290 -0.00066503 -0.00048360
N 12.78007469 4.07076632 23.77822497 0.00232273 0.00551398 0.00255830
N 13.51583092 8.78085126 26.07637589 0.00003051 -0.00730823 -0.00327462
N 14.67449763 0.46532864 21.59289642 0.00907681 0.00532213 0.00132941
N 12.43226312 3.15380493 19.49951232 -0.00247279 -0.00794070 -0.00410004
N 11.62203741 6.05612390 24.30975555 0.00680700 0.00403157 0.00800313
N 14.40178098 0.99734102 25.89524662 -0.00335520 0.00300438 -0.00646977
N 13.39026142 8.44218996 21.15010186 0.00404826 -0.00391516 -0.00171723
N 11.42893241 15.31208425 0.93356681 0.00156344 0.00273708 0.00153316
N 12.51457299 13.75377598 5.90339415 -0.00337578 -0.00289755 0.00148648
N 13.19596485 18.52374670 8.13296986 0.00047458 -0.00005202 -0.00414296
N 14.39732753 10.37271721 3.50029490 -0.00143117 -0.00629856 0.00455161
N 12.69903678 13.44154145 1.39519782 -0.00688394 -0.00297781 0.00090629
N 11.20849182 15.69753883 5.86848586 0.00088313 -0.00519290 -0.00234920
N 14.05277804 10.72503921 7.71395792 0.00181737 0.00008771 -0.00041420
N 13.13779932 17.98371203 3.22995234 -0.00588286 0.00207398 0.00211556
N 11.92263962 15.44303161 10.07161851 -0.00099702 0.00151194 0.00065430
N 12.32679816 13.57983440 14.63878418 -0.00515625 -0.00151528 -0.00583044
N 12.96613912 18.63901600 17.17961647 -0.00517562 0.00384565 -0.00022690
N 14.31507928 10.41722986 12.15230843 -0.00167304 0.00019793 -0.00239265
N 12.36393784 13.23006058 10.54253145 -0.00626208 0.00062613 0.00038827
N 11.30583613 15.62866850 15.16515028 0.00129115 0.00107928 -0.00664102
N 14.23850526 11.19222058 16.83043869 -0.00232195 0.00045007 -0.00321519
N 13.24691086 18.14208962 12.28236582 -0.00097527 0.00251969 0.00440758
N 11.88022250 14.98111533 19.51429545 -0.00258103 0.00337258 -0.00488140
N 12.94648612 13.77265576 23.98731936 0.00492838 0.00023339 0.00777794
N 13.03641362 18.96818226 26.31357122 0.00095240 0.00137894 0.00197627
N 14.65538695 10.34011458 21.67357809 -0.00310376 0.00140596 0.00977375
N 12.69372375 12.92521574 19.81128093 0.00172051 -0.00263313 0.00177617
N 11.54625339 15.69063987 24.14234626 0.00069567 0.00628305 -0.00172827
N 14.57777054 10.80243950 25.98319197 0.00013740 -0.00448628 -0.00617733
N 13.24746636 18.21808678 21.47949929 0.00043418 -0.00445932 -0.00306155
N 11.47535848 24.64169220 1.27534606 0.00034190 -0.00165524 0.00469664
N 12.54265688 23.36738276 5.89218095 -0.00120564 0.00851974 -0.00183087
N 13.25070145 28.16298232 7.83914562 -0.00317975 -0.00350303 0.00387306
N 14.33582224 20.01766407 3.38490764 0.01231674 0.00091222 -0.00431111
N 12.83974564 22.83769506 1.88308954 -0.00156101 -0.00205220 0.00079801
N 11.82504894 25.56201189 6.06355218 0.00183641 -0.00473000 0.00141191
N 14.27597714 20.48165645 7.75558802 -0.00444749 -0.00155472 -0.00000423
N 13.29810552 27.61571502 3.07451428 0.00143770 0.00598547 0.00072048
N 11.46066095 24.72688165 10.44731235 -0.00329187 -0.00049430 0.00036953
N 12.55350281 23.41469651 15.04037735 0.00024554 -0.00236923 -0.00281377
N 13.16985318 28.02837624 16.86254058 0.00132106 -0.00358676 -0.00100652
N 14.58724371 19.98148863 12.62697719 -0.00558103 -0.00175989 0.00007629
N 12.77471142 22.77518964 10.59246642 0.00095857 0.00159579 0.00104660
N 11.44968918 25.44706276 14.93533135 -0.00156663 0.00035569 0.00323008
N 14.41596393 20.35138870 16.86525292 -0.00927083 -0.00111991 0.00430282
N 13.34603072 27.68574062 12.12732936 -0.00482131 -0.00068569 0.00042707
N 10.95698636 24.44627697 19.73536180 -0.00304653 0.00177429 -0.00163567
N 12.51324623 23.68018154 24.15995230 -0.00324619 0.00384463 -0.00213226
N 12.95657578 28.08503060 26.04663095 -0.00262925 -0.00293080 0.00084512
N 14.44309589 20.12756652 21.90876916 0.00245252 0.00153225 0.00557927
N 12.41621527 22.68323745 19.79586454 -0.00166801 -0.00386334 -0.00139787
N 11.01824042 25.49036744 24.08069681 0.00538774 -0.01020282 0.00077327
N 14.43175884 20.61839212 25.76841069 -0.00027003 0.00131474 -0.01159599
N 13.15770815 27.45652045 21.36025206 -0.00333269 0.00797464 0.00110187
N 15.13618811 5.58116161 1.04552472 -0.00026834 0.00010717 -0.00271623
N 16.43824112 3.99272339 5.60689361 -0.00318508 0.00050344 -0.00438750
N 16.35806665 8.78498144 7.97169158 -0.00015014 -0.00269951 -0.00678673
N 18.19137716 0.66049093 3.32642503 0.00046409 -0.00709973 0.00142558
N 16.40790554 3.49624610 1.02415051 0.00195233 0.00225845 0.00428513
N 15.29149937 5.90795116 6.01887721 0.00163401 0.00435397 -0.00069303
N 17.94406964 1.31543082 7.63779901 -0.00036432 -0.00011965 0.00497256
N 16.99397609 7.96002623 3.16525704 -0.00703054 0.00653830 0.00513893
N 14.83880889 5.32569513 10.28539454 -0.00024309 0.00329543 -0.00504587
N 16.25556065 4.08349861 14.83591664 0.00327627 -0.00183316 -0.00074674
N 16.98870333 8.88029975 17.00207179 0.00243947 0.00589613 0.00274382
N 18.12375460 0.83403709 12.63178318 0.00731221 0.00061953 -0.00275619
N 16.36489824 3.53166285 10.49029156 -0.00614596 0.00273313 -0.00881006
N 15.14776072 6.09769910 14.86958673 -0.00736093 0.00194616 0.00489411
N 18.43263393 1.15601506 16.53464459 0.00358642 0.00458417 0.00168923
N 16.64122689 8.21443996 12.01066840 -0.00082241 -0.00524262 0.00314440
N 15.25685959 5.38099038 19.06251226 0.00012255 -0.00874032 0.00335293
N 16.43316203 4.01386380 23.69779698 0.00178737 -0.00074533 0.00144468
N 16.95719219 8.72376760 26.40120897 -0.00023751 0.00123779 -0.00033047
N 18.00890663 0.44977330 21.55166787 0.00230524 -0.00471145 0.00058520
N 15.81387857 3.19825748 19.51420355 0.00779081 -0.00815462 -0.00212374
N 15.17667631 5.92290979 24.17684516 0.00326179 0.00182855 -0.00297587
N 18.24402631 1.12906622 25.83446732 0.00220614 -0.00179006 0.00174462
N 17.18991903 8.38961275 21.44467283 0.00187593 -0.00374907 0.00654810
N 15.14241461 15.02162726 1.29258949 -0.00090011 -0.00707269 0.00170674
N 16.32122290 13.78488285 5.96178275 -0.00072579 -0.00169125 0.00084476
N 16.53705078 18.47764908 8.01268986 -0.00222295 -0.00756577 0.00112611
N 18.21425634 9.89246441 3.65685345 -0.00229873 0.00844120 -0.00083381
N 16.60953307 13.21803534 1.56837769 0.00577139 -0.00342802 0.00331208
N 14.94041226 15.62787548 6.01546531 -0.00051334 0.00005339 0.00038380
N 17.82179947 10.56347938 7.83933953 -0.00151922 -0.00204160 0.00229532
N 16.73698521 18.31412803 2.84485593 -0.00125158 0.00516410 0.00269134
N 14.93696630 15.19354336 10.52099300 0.00449299 -0.00198463 0.00314645
N 16.10675365 13.66880784 15.01362845 -0.00542990 -0.00198247 0.00180375
N 16.99436702 18.27802450 17.10009914 0.00102186 0.00438193 0.00120304
N 17.80658715 10.16311848 12.28578510 -0.00170934 -0.00172063 -0.00026074
N 15.96458600 13.16460492 10.72320736 0.00432682 0.00027631 -0.00212838
N 15.00252246 15.63958512 15.27124613 0.00039435 0.00133373 -0.00184167
N 18.19992407 10.83295583 16.89729868 -0.00270005 -0.00183951 0.00733023
N 16.91492813 18.13415065 12.41538061 -0.01127142 0.00191814 -0.00204096
N 15.07960071 15.09669566 19.60586770 0.00491411 -0.00200045 -0.00373153
N 16.54681160 13.92995089 24.20531998 -0.00531335 0.00375255 0.00159716
N 16.89111287 18.86871945 26.01348156 0.00038936 0.00141745 0.00384944
N 18.27989868 10.41180790 21.76799240 -0.00105966 -0.00195395 0.00231902
N 16.41504352 13.23117743 19.86825517 -0.00429796 0.00433756 -0.00161050
N 15.27837924 15.87567890 24.54647443 -0.00594913 0.00355724 -0.00468605
N 17.96217139 10.75357195 25.96356644 0.00159610 0.00485798 -0.00836531
N 17.06041998 18.14704970 21.30501763 -0.00175635 0.00340441 -0.00797676
N 15.25653296 24.90804207 0.84147306 0.00152476 0.00456789 -0.00314474
N 16.48770929 23.41172841 5.57950698 0.00509264 -0.00535525 -0.00475025
N 16.82130472 28.11669839 7.98061577 -0.00444585 0.01118832 0.00101983
N 18.12879505 20.06247648 3.22943971 -0.00265145 0.00086684 0.00505535
N 16.16754407 22.89149075 1.40900149 -0.00561666 0.00261356 -0.00573979
N 15.06074822 25.12715533 6.00084702 -0.00122166 -0.00481433 0.00329297
N 17.81769428 20.34843433 7.82484227 0.00154358 -0.00098952 0.00369983
N 16.92974135 27.59834917 3.30688904 -0.00415971 -0.00389516 0.00340270
N 15.15011805 24.72723934 10.27941563 -0.00225829 0.00089541 -0.00526438
N 16.16033766 23.46488985 14.57825797 -0.00205527 0.00281122 0.00201688
N 16.96767233 28.27835910 17.33168554 0.00170117 0.00023176 0.00035266
N 18.19137742 20.08558342 12.71056566 0.00460885 -0.00299290 0.00218044
N 16.51987625 22.83664116 10.71306888 -0.00168783 0.00045803 -0.00897820
N 14.99317875 25.29703156 15.30212325 -0.00925653 -0.00298331 -0.00467428
N 17.74010985 20.34468844 16.52766071 0.00481104 -0.00354092 -0.00038064
N 16.63471788 27.86102626 12.29775171 -0.00593463 0.00880362 0.00819533
N 14.83129851 24.60996607 19.27930759 -0.00292248 -0.00427299 -0.00248481
N 15.94769736 23.07372415 23.47027465 -0.00530399 0.00100036 0.00280294
N 16.81155904 28.25870771 26.15999334 -0.00164384 0.00433870 0.00034281
N 18.21366362 20.11396172 21.31428276 -0.00087138 0.00139768 -0.00353953
N 16.08530084 22.72991212 19.60374699 -0.00439081 -0.00324409 -0.00059334
N 15.04903561 25.05170617 24.30796091 -0.00548929 0.00250738 -0.00400633
N 18.10232383 20.83502285 26.09757308 -0.00556005 0.00079805 0.00365191
N 16.75992958 27.25326570 21.38989150 -0.00377396 0.00100429 -0.00251925
N 18.69209988 5.31823001 1.28130800 0.00923941 0.00737751 -0.00193738
N 20.00365529 3.98101451 5.69062116 0.00236373 0.00755061 0.00629185
N 20.33817509 8.95703743 8.05488187 0.00382775 0.00693471 -0.00567707
N 22.02100101 0.60040564 3.56670902 0.00581260 -0.00486181 -0.00033724
N 20.09107053 3.58124650 1.68418850 -0.00105689 0.01191056 -0.00346248
N 18.63887712 5.78686815 6.03437389 0.00069249 -0.00339647 -0.00184122
N 21.89419171 1.35141561 7.64095335 0.00492473 -0.00178417 0.00234428
N 20.66584501 8.62695950 2.99578529 -0.00254958 -0.00147983 0.00340372
N 18.62654055 5.21976009 10.46169064 -0.00179207 -0.00155573 -0.00236590
N 19.79122043 4.14304531 14.94808855 -0.00213968 -0.00192871 -0.00320860
N 20.62182009 9.10931642 17.11502066 -0.00527718 0.00339992 -0.00385427
N 21.51498528 0.69316470 12.45351897 0.00199615 -0.00053154 -0.00637649
N 20.14318009 3.56338995 10.71169771 0.00305779 -0.00363508 -0.00425046
N 18.63272550 6.08376515 15.37720100 -0.00717933 0.00042648 -0.00619766
N 0.01733591 1.17367852 16.45289459 -0.00181816 0.00356782 0.00020206
N 20.31824573 8.46599206 12.44702057 -0.00208917 0.00845605 -0.00337411
N 18.88004325 5.62351030 19.54390472 -0.00448923 -0.00062916 -0.00387812
N 20.37479464 3.91311003 24.03891570 0.00358557 -0.00248876 -0.00193788
N 20.77179056 8.87152296 25.94118594 0.00158656 -0.00473826 -0.00599195
N 21.63195181 0.79433227 21.69956855 0.00206720 0.00321410 0.00810193
N 19.87252949 3.54656484 19.54209254 -0.00107554 -0.00230024 0.00039103
N 18.90826830 5.67580263 24.01721025 0.00144251 -0.00108085 0.00512341
N 21.66122875 1.05864891 26.02834315 -0.00399474 0.00568228 0.00524624
N 20.79159175 8.50679124 21.38210849 -0.00502740 0.00020162 0.00058915
N 18.69977486 15.12520106 1.19775156 0.00571116 0.00222452 -0.00079660
N 19.43853601 13.76492084 5.70899452 0.00152946 -0.00466259 0.00260636
N 20.40435430 18.64448403 7.85052164 -0.00840518 0.00088582 0.00307367
N 21.83741768 10.50841441 3.40547670 0.00109223 0.00636442 -0.00217873
N 19.93946429 13.16439537 1.34701852 -0.00023745 0.00970320 0.00133739
N 18.46872363 15.84302083 6.01889153 0.00749583 0.00120475 0.00734370
N 21.56781455 10.86596134 7.64065866 -0.00029040 -0.00264328 0.00015998
N 20.38849539 18.11562178 3.23744667 0.00870173 0.00197346 -0.00230268
N 18.40535915 14.82324335 10.52699957 0.00641023 0.00450896 -0.00101518
N 20.02220500 13.69781771 15.06079331 0.00004162 0.00286715 -0.00927805
N 20.66425315 18.65897525 17.11458917 -0.00330341 0.00118999 0.00050591
N 21.77228549 10.27190608 12.60566104 0.00181670 -0.00320492 -0.00039920
N 19.51870875 12.89098909 10.65893546 -0.00154816 0.00504922 -0.00338378
N 18.49432310 15.42490144 15.35152026 0.00346924 0.00327736 -0.00294956
N 0.01329144 10.86452531 16.68057636 0.00328217 -0.00039257 0.00082672
N 20.48530621 17.90070019 12.14669643 0.00325651 0.00410796 0.00941454
N 18.76930682 15.15128200 19.52018819 -0.00243120 -0.00060784 0.00643738
N 19.62127426 13.85244845 23.92375843 0.00113761 -0.00187453 0.00104410
N 20.41696050 18.92252678 26.12263064 0.00079214 -0.00393485 -0.01276950
N 21.91077549 10.46153974 21.78602283 -0.00493500 -0.00319646 -0.00244054
N 19.70497757 13.11751383 20.05153965 -0.00676534 -0.00621762 0.00019968
N 18.80612641 15.91912117 24.29711133 0.00804721 -0.00054853 0.00176193
N 21.56531466 11.04293080 25.79062384 0.00569253 0.00289548 0.00268478
N 20.24339929 18.12202271 21.25990312 -0.00103287 -0.00119816 -0.00161014
N 18.59235199 24.60940331 1.23598873 -0.00516022 0.00123126 -0.00345361
N 20.09420286 23.36345910 5.68996268 0.00500284 -0.00106059 -0.00531777
N 20.43147110 28.35472349 7.70916158 0.00262246 -0.00222908 -0.00099225
N 21.72905048 20.00486984 3.31081046 -0.00200299 -0.00106061 0.00697451
N 20.17586062 22.88914469 1.61441017 0.00105313 -0.00078579 0.00728077
N 18.85111626 25.30285628 6.05819172 0.00510472 0.00762342 0.00791381