1728
Time=73000.00000007 pbc="T T T" Lattice="22.08277785 0.00000000 0.00000000 0.00000000 28.81602883 0.00000000 0.00000000 0.00000000 27.38830362" energy=-10388.58400488 virial="21.17685434 -7.51654101 -4.45801373 -7.51654101 -6.94279012 24.52923485 -4.45801373 24.52923485 37.19171479" stress="0.00357505 -0.00039310 -0.00030136 -0.00039310 0.00227417 0.00134369 -0.00030136 0.00134369 0.00498078" Properties=species:S:1:pos:R:3:vel:R:3
N 0.02086932 5.48326340 1.40262888 -0.00003120 -0.00891029 0.00563603
N 1.78164985 4.43963246 6.09636154 -0.00471357 -0.00473226 -0.00385399
N 2.29112319 8.87011751 7.89122736 -0.00339755 -0.00667142 -0.00852941
N 3.18367073 0.83314333 3.37528114 0.00195853 -0.00011050 0.00284698
N 1.48256328 3.55744140 1.21342352 0.00209091 0.00017254 0.00441568
N 0.28214176 6.29857262 5.90678270 0.00198206 0.00237953 0.00265556
N 3.57992059 1.09923847 8.03191985 -0.00491327 -0.00426337 0.00234095
N 2.40200986 8.19001524 3.14753291 0.00111790 -0.00622701 -0.00536773
N 0.15976625 5.25428256 10.17902304 -0.00710240 -0.00360734 0.00471250
N 1.28969780 3.75270543 14.68524040 0.00016538 0.00031293 0.00125451
N 2.34992066 8.82268562 17.21651678 -0.00527756 -0.00093407 -0.00486374
N 3.48662055 0.68364057 12.73747590 0.00521141 0.00087590 0.00442968
N 1.57647559 3.38805822 10.42840404 0.00238869 -0.00511214 -0.00053931
N 0.61318403 5.90848600 15.16962115 0.00274032 0.00170526 0.00071222
N 3.31174327 1.02361182 16.93063517 0.00999265 -0.00807625 -0.00199072
N 2.16847348 8.31064729 12.01100351 -0.00058466 0.00041541 0.00146899
N 0.22053038 5.45483040 19.48376828 0.00131925 0.00034372 -0.00029277
N 1.76230400 4.13639285 24.07704708 -0.00428176 0.00208723 -0.00103824
N 1.79374196 8.87463583 26.28333642 -0.00398396 -0.00205684 0.00617599
N 3.76024612 0.63097419 21.76662667 -0.00089178 -0.00318491 0.00454107
N 1.46835045 3.50604842 19.75951282 -0.00045406 0.00200308 0.00027092
N 0.42915091 6.08378101 24.19509045 0.00306943 0.00143825 0.00200952
N 3.41442298 1.20014371 25.94241826 0.00177296 -0.00764369 -0.00371088
N 2.27514343 8.57928969 21.33858173 0.00358487 0.00435942 -0.00247244
N 21.90616199 14.71681634 1.34782349 0.00805305 0.00544457 -0.00004632
N 2.02910581 13.96321697 5.83138785 -0.00228381 0.00133352 -0.00214859
N 1.82526130 18.82938792 7.85938292 -0.00102749 0.00683841 0.00175690
N 3.51412546 10.13967489 3.38385369 0.00676292 -0.00170936 -0.00584777
N 1.43636152 13.09873614 1.39585596 -0.00547393 -0.00251949 -0.00036642
N 0.49816495 15.63428139 5.96868559 0.00277795 0.00628687 0.00101361
N 3.26928256 10.89026382 7.92832529 -0.00134624 -0.00807207 -0.00932593
N 1.99767763 17.71123335 2.97645740 0.00738796 0.00575489 -0.00020236
N 0.23918232 15.07478541 10.37043584 0.00433862 -0.00288561 0.00383545
N 1.31851547 13.79762009 14.96854406 0.00214869 -0.00405708 0.00379291
N 2.09871583 18.63805139 16.97877041 -0.00234706 0.00124364 -0.00137088
N 3.39010961 10.20936050 12.57205594 -0.00860756 -0.00202342 0.00090917
N 1.80010983 13.26625858 10.69340247 0.00324532 0.00108997 -0.00141565
N 22.06645682 15.64359889 15.02957466 -0.00457737 0.00879356 0.00910267
N 3.45018380 10.84063363 16.91730726 0.00231230 -0.00209795 -0.00611913
N 2.12862505 17.90638873 12.09147304 -0.00223552 0.00583440 -0.00273574
N 0.86832428 14.96666670 19.44933688 -0.00229222 -0.00111665 -0.00391565
N 1.64750461 13.76196210 24.11462474 0.00128886 0.00538602 -0.00264589
N 2.23598226 18.69709161 26.17145211 -0.00012438 -0.00020873 0.00342051
N 3.72889466 10.43106313 21.84338112 0.00050375 0.00551816 0.00619896
N 1.80155601 12.92664268 19.89457056 0.00437085 -0.00019162 0.00217312
N 0.53090315 15.74297915 24.48274883 0.00263058 -0.00073165 0.00550741
N 3.13724857 10.68188362 25.70950342 0.00329064 0.00360681 -0.00653925
N 2.22232676 17.99932064 21.43858038 -0.00440206 -0.00599719 0.00621786
N 0.70108901 25.14932485 0.73357271 0.00236235 0.00266271 -0.00279112
N 1.36716105 23.37228765 5.54084626 -0.00850601 -0.00437179 -0.00413168
N 2.19929953 28.03908739 8.27649342 -0.00838395 -0.00461033 0.00282664
N 3.25192544 19.59859062 3.45462710 0.00577069 -0.00358249 -0.00478252
N 1.46249335 23.05530706 1.32691979 0.00678760 0.00382076 0.00147860
N 0.29126157 25.44179863 5.61771484 0.00157413 0.00132760 -0.00033500
N 3.18294228 20.65475077 7.75942485 -0.00443437 -0.00809776 -0.00495300
N 2.01985892 27.65764731 3.21509493 -0.00196193 -0.00961244 -0.00367564
N 0.22721942 24.59862080 10.05644243 -0.00635668 -0.00364153 -0.00379386
N 1.19483796 23.25966976 14.47077252 -0.00267550 0.00313633 -0.00271121
N 2.21096490 27.86466759 17.31253983 -0.00219598 -0.00348450 -0.00098971
N 3.33132781 19.87789953 12.45990785 0.00102610 0.00328917 -0.00290360
N 1.67507975 22.88616463 10.59414465 0.00317628 -0.00236615 0.00713101
N 0.22647298 25.18826662 15.22015556 -0.00401983 -0.00853747 0.00318522
N 3.36161923 20.62183800 16.67784553 0.00170735 -0.00078623 0.00615549
N 2.20736656 27.60493639 12.25143191 0.00172528 0.00366250 0.00644208
N 22.00735360 24.41203795 19.37699907 0.01121437 -0.00672052 -0.00235362
N 1.77846199 23.37607165 23.53948058 -0.00492684 0.00040569 -0.00097320
N 2.12276729 28.03936647 25.75474081 -0.00667657 -0.00393725 0.00552684
N 3.70928300 19.79742075 21.47076196 0.00146091 -0.00025796 -0.00752002
N 1.53800447 22.79195484 19.58222550 -0.00023137 -0.00714279 0.00763809
N 0.32415139 25.10424335 24.04530920 0.00059887 0.00567554 -0.00121063
N 3.36355037 20.59545967 25.85243957 0.00495071 -0.00103456 0.00575629
N 2.44240679 27.54554441 21.42515607 -0.00654444 -0.00237957 -0.00646887
N 3.61690257 5.63512437 0.97812050 0.00503040 0.00116074 -0.00225796
N 5.67619412 4.11354030 5.43638595 -0.00230469 0.00697456 -0.00483124
N 5.54558026 8.80409587 7.86095845 0.00172074 -0.00287962 0.00732679
N 7.06955995 0.63856693 3.31727361 0.00403644 -0.00577783 -0.00423988
N 4.68236241 3.70306267 1.45740850 0.00007580 0.00294689 0.00356872
N 4.34942493 6.02504122 5.74742093 -0.00486919 -0.00598120 0.00452848
N 7.15664789 1.21649725 7.44548871 -0.00298640 0.00296328 0.00225634
N 5.96512882 8.08005023 2.78187976 0.00159056 0.00300021 0.00389607
N 3.66565016 5.32694902 9.93826027 0.00207830 0.00186743 0.00341894
N 4.57855518 4.01597612 14.81066602 0.00455778 0.00036042 0.00443466
N 5.74505964 8.95373819 16.89713882 -0.00471284 -0.00404372 -0.00298183
N 7.20626307 1.05365186 12.64388667 0.00252164 -0.00083167 0.00222837
N 5.25323414 3.78700674 10.39099033 0.00385587 -0.00364824 0.00590857
N 3.73045710 6.05992536 14.92905259 -0.00013894 -0.00650533 0.00217146
N 6.89238851 1.45273504 16.82841063 -0.00459657 0.00111190 -0.00708346
N 5.95089877 8.13059143 12.00585128 0.00380545 -0.00611616 0.00412098
N 3.79791769 5.29932619 19.51048926 0.00289109 -0.00306907 -0.00081008
N 5.29807502 4.21092856 23.79025061 -0.00314932 -0.00272165 -0.00760521
N 5.68679381 8.90932378 26.04072547 0.00809052 0.01032584 0.00149694
N 7.24353225 0.82175329 21.52676126 -0.00245090 -0.00245501 -0.00412803
N 5.21828279 3.46607827 19.57060204 0.00022336 0.00015567 0.00611551
N 4.11798203 6.10093524 24.26521091 -0.00076347 0.01112226 -0.00571725
N 7.12365229 1.27744054 26.02242576 0.00559444 -0.00033531 0.00121588
N 6.06138692 8.16329597 21.34105271 -0.00156712 0.00013678 -0.00591086
N 3.98899706 14.73270689 1.23202820 -0.00680327 -0.00188783 -0.00371128
N 5.09707766 13.65113877 5.57896127 -0.00022531 -0.00166861 -0.00100145
N 5.76453859 18.35924807 8.08707283 -0.00136953 0.00119551 -0.00192761
N 7.06731228 9.96284340 3.11230158 -0.00078365 -0.00458940 -0.00027195
N 5.15990047 12.77486632 1.33574939 -0.00152175 -0.00426059 -0.00429680
N 4.34742077 15.68848193 6.01434873 -0.00025202 0.00544051 -0.00122226
N 6.89079516 10.69883106 7.56329943 0.00796633 0.00619601 -0.00494863
N 5.63687100 17.92797548 3.04903461 0.00183588 -0.00319687 -0.00067943
N 4.06400395 15.17716944 10.18775087 0.00663457 -0.00505338 -0.00225552
N 5.11094969 13.63765502 14.82503039 -0.00168430 -0.00176551 0.00510471
N 5.71810376 18.56490735 17.51528328 0.00310815 0.00537495 0.00228823
N 6.52381384 10.32245280 12.34187480 0.00184147 -0.00581535 -0.00577089
N 5.05022283 13.10809402 10.68282019 -0.00278953 0.00362201 0.00351092
N 3.79325986 15.50808413 15.25595536 -0.00526154 0.00545260 0.00095658
N 7.08849700 10.85300850 16.38269195 0.00086821 0.00178400 0.00704057
N 5.87982668 18.12153597 12.34247193 0.00084745 0.00302580 0.00325436
N 3.94039727 15.13736089 19.73203438 0.00569554 0.00034162 0.00190776
N 5.07973473 13.75891982 24.08675803 -0.00113778 0.00337361 0.00492795
N 5.78852716 18.65220445 26.11487494 -0.00577649 -0.00136654 0.00452843
N 7.28234910 10.06848438 21.50029356 0.00483622 0.00556560 0.00315242
N 5.45335288 13.25218931 19.96559824 0.00623315 -0.00039894 0.00613485
N 4.44806066 15.90905931 24.48538295 0.00118974 0.00042836 -0.00264667
N 7.00470496 10.79114205 25.76543106 0.00038660 -0.00365632 -0.00065163
N 6.02344401 18.07919273 21.55665616 -0.00243430 -0.00484134 0.00175002
N 4.16938785 24.75440203 1.15051781 0.00151444 0.00213051 0.00049434
N 5.22004369 23.37521581 5.83912144 -0.00150977 0.00010362 0.00680881
N 6.01695211 28.05647146 7.98979620 0.00140713 -0.00297784 0.00051369
N 7.11600464 19.61222436 3.29393389 -0.00126545 0.00305699 -0.00178312
N 5.13595718 22.68244364 1.52016690 0.00269807 -0.00121686 -0.00604760
N 4.13120339 25.39155187 6.05946602 -0.00032669 -0.00151482 0.00143904
N 6.85077583 20.41341334 8.02494851 -0.00498605 0.00281245 -0.00279859
N 5.64316674 27.60029881 3.08187238 -0.00245679 0.00401725 0.00231083
N 4.12765784 25.08826005 10.40451313 -0.00176144 0.00376966 0.00585892
N 5.61410280 23.29764145 14.81337301 -0.00586856 -0.00312987 -0.00529960
N 5.61807168 28.29874444 17.02359364 -0.00205148 0.00223704 -0.00316960
N 7.24438904 19.89152054 12.67657195 0.00325964 0.00004461 0.00329310
N 5.15939730 23.08674931 10.83293219 0.00216049 -0.00102144 0.00277201
N 4.56460223 25.37959435 15.25873049 0.00144620 0.00243922 -0.00504214
N 7.07210860 20.39837854 16.95623880 -0.00037970 0.00348572 -0.00020846
N 6.39567345 27.73411471 12.17552418 -0.00863491 -0.00455520 -0.00311661
N 3.93821656 24.72645317 19.60998184 -0.00007974 -0.00018445 0.00164142
N 5.47477412 23.44684210 24.39165222 -0.00109238 0.00095289 0.00759204
N 5.76541882 28.15130107 26.15231320 0.00353671 -0.00499454 -0.00153548
N 6.81536687 20.17542563 22.04015162 0.00123122 0.00333801 -0.00532601
N 5.13029910 22.75725026 19.71392964 -0.00768964 -0.00748571 -0.00180897
N 3.87937613 25.25966340 24.43759335 -0.00463121 0.00348649 -0.00482572
N 7.04342810 20.52835475 26.25208854 -0.00017663 -0.00275121 -0.00543799
N 6.21538463 27.60992364 21.42349927 -0.00034533 0.00617240 -0.00068569
N 7.97880919 5.64124224 0.91493926 0.00146277 0.00541383 -0.00333753
N 9.27424927 4.13109422 5.29327582 0.00534650 0.00468315 -0.00598322
N 9.55116095 8.86338106 8.10997800 0.00027479 -0.00178929 0.00854467
N 10.70040468 0.19081801 3.50062417 -0.00271529 -0.00752355 -0.00001937
N 8.91806485 3.59867387 1.40685718 0.00288147 -0.00460103 0.00574414
N 7.88008495 5.91487250 5.96736831 0.00305358 0.00027690 -0.00712914
N 10.80370896 1.04668649 7.73485638 -0.00511530 -0.00464043 0.00569609
N 9.77493961 8.33622484 2.95058408 0.00443985 0.00306572 -0.00542088
N 7.94951338 5.48224629 10.12126275 -0.00101556 -0.00280875 -0.00550468
N 8.97984917 4.01274238 15.13618557 0.00089311 0.00640011 0.00061254
N 9.35559919 8.63876628 17.26944611 0.00649430 -0.00050559 -0.00742286
N 10.79666234 0.80068121 12.60054580 -0.00205523 -0.00305746 0.00378575
N 9.17761887 3.50771259 10.52741935 0.00001859 0.00014341 0.00415441
N 7.66513935 5.87974952 15.38211305 -0.00032634 0.00201038 0.00211321
N 10.81332844 1.05497093 17.10095322 -0.00554726 0.00145414 0.00153453
N 9.33938573 8.35370241 12.40970928 0.00173151 0.00339715 -0.00123894
N 7.48559062 5.77220692 19.18087262 0.00548976 -0.00136752 0.00521059
N 9.35085852 4.32739883 23.96405019 -0.00625560 0.00006052 -0.00267763
N 9.30527772 9.21241444 26.24668655 -0.00212110 0.00107017 0.00554210
N 10.97754435 0.84223049 21.93303821 0.00276663 0.00678706 0.00843761
N 8.71414797 3.92048188 19.79342416 0.00316131 -0.00173052 0.00580980
N 8.05898070 6.25229236 24.13853710 -0.00166330 -0.00041857 0.00166635
N 10.55309019 1.37362663 25.99622595 -0.00144825 -0.00488732 0.00089851
N 10.03127918 8.67436922 21.21871834 -0.00833614 -0.00074129 -0.00010807
N 7.70730402 14.97781488 1.33278674 0.00138564 0.00171794 -0.00182008
N 8.98957764 13.51631398 5.50286047 -0.00543527 -0.00796842 0.00275697
N 9.05979378 18.48717896 7.87208764 0.00150501 0.00112618 -0.00459215
N 10.85209836 10.29508678 3.58936269 -0.00056165 -0.00481249 -0.00447521
N 8.50224262 12.87458299 1.51726391 0.00000931 0.00959219 0.00039459
N 7.77901474 15.43682587 5.98134823 0.00000362 -0.00371158 -0.00249847
N 10.72185887 10.83116034 7.80677047 0.00052193 0.00380840 0.00311997
N 9.59427297 18.09528789 2.83789519 0.00785031 -0.00856920 0.00053407
N 7.69524872 15.10419428 10.30396448 -0.01002216 0.00181453 0.00080280
N 9.02685302 14.03813658 13.96791739 -0.00284446 0.00003571 -0.00286443
N 9.18683842 18.62484013 17.24175672 -0.00291033 -0.00369258 -0.00950774
N 10.51427265 10.36507035 12.80484628 0.00151482 -0.00051742 -0.00225211
N 8.86686634 13.08504501 10.33413752 -0.00093891 -0.00018317 -0.00077093
N 7.62727764 15.39636108 15.20673118 0.00282460 0.00602294 0.00663260
N 10.53753535 10.66859614 16.68296568 -0.00205584 0.00335084 0.00295048
N 9.69698410 18.23747474 11.96950995 -0.00147980 0.00097476 0.00049700
N 7.60157753 15.26183050 19.58015721 0.00674874 0.00137084 -0.00081910
N 8.95345287 13.68306366 23.89526025 0.00332989 -0.00116549 0.00623791
N 9.97821863 18.30403360 26.43010574 0.00346420 0.00042722 0.00280597
N 10.99652650 10.62214015 21.67829646 0.00436426 -0.00053478 0.00181081
N 8.70633830 13.17139279 20.04072087 0.00197077 0.00487651 0.00281156
N 7.75631183 15.56237760 24.54150889 -0.00482433 -0.00036148 -0.00383814
N 10.80557972 10.82767778 25.73374703 -0.00202120 -0.00787961 0.00286340
N 9.66164456 17.86085436 21.48468064 -0.00248620 0.00123663 0.00797174
N 7.33881866 24.57088106 1.27406833 -0.00732003 0.00149732 -0.00048421
N 8.94824950 23.19802662 5.51528798 -0.00622674 0.00467920 0.00850771
N 9.57748355 27.92223040 8.24334723 0.00342032 0.00248330 -0.00194892
N 10.84107510 19.86774162 3.46736005 -0.00379086 -0.00001777 -0.00165490
N 8.89682250 22.88499696 1.81524479 0.00553180 -0.00032779 -0.00291234
N 7.78373086 25.03910281 6.20356347 -0.00061060 -0.00540223 -0.00250459
N 10.39577832 20.45472493 7.69111051 -0.00089219 -0.00109937 -0.00213544
N 9.39457610 27.23992669 3.07747012 -0.00199155 0.00583705 -0.00326318
N 7.58226117 24.55065343 10.34919871 0.00030427 0.00972232 0.00052811
N 8.75115529 23.36076799 14.93547214 -0.00169982 -0.00280947 0.00085605
N 9.26762025 28.22988313 17.31183969 -0.00162378 -0.00049812 -0.00503590
N 10.76915939 20.25302107 12.59663557 0.00303501 0.00116984 -0.00185450
N 8.95803463 22.73088326 10.80998525 0.00290951 0.00229782 -0.00439376
N 7.95263312 25.58114787 15.04955375 0.00484034 0.00120143 0.00127644
N 10.47355372 20.53189989 16.59871847 -0.00061819 -0.00036626 -0.00832288
N 9.36266099 27.94472694 11.76737140 -0.00250026 -0.00219322 -0.00812010
N 7.72015344 24.57092893 19.62704409 -0.00167344 -0.00268544 -0.00471245
N 8.81349280 23.03706217 23.91482354 -0.00528890 -0.00444947 0.00104628
N 9.83114106 28.11489738 26.25018089 -0.00201299 -0.00517843 0.00423170
N 10.92614995 19.82478181 21.77298336 0.00806536 -0.01338612 -0.00763677
N 8.69650834 22.50332360 19.88382599 0.00076229 0.00164992 -0.00083843
N 8.00118755 25.16144276 24.38459733 0.00123798 -0.00437099 0.00310374
N 10.85317568 20.45169551 26.21424639 0.00042502 -0.00245895 -0.00621628
N 9.89429298 27.75588762 21.30742993 -0.00537191 -0.00299788 0.00036084
N 11.09442126 5.75126940 1.29290330 0.00071798 0.00231037 -0.00757100
N 12.89554058 4.32492487 6.09707531 -0.00173006 0.00328555 0.00230374
N 13.06070009 8.79814688 8.23316784 0.00154466 -0.00170696 0.00275176
N 14.38601540 0.59296548 3.20143237 0.01046073 -0.00497747 0.00014576
N 12.26972799 3.83640842 2.03668838 -0.00351166 0.00282689 0.00150937
N 11.42263266 6.04993777 6.29763974 -0.00037193 0.00023819 -0.00274527
N 14.25890968 1.50462401 7.59336960 0.00364193 0.00053963 0.00696036
N 13.79729284 8.30812222 3.27624755 -0.00302844 -0.00664304 0.00777857
N 11.32884012 5.75073645 10.28243531 -0.00404324 0.00116796 -0.00223236
N 12.58160449 4.15268748 14.86920983 -0.00871614 -0.00000629 0.00393411
N 13.26749400 8.65304357 17.09683725 -0.00625173 0.00321717 0.00212412
N 14.55347569 0.68894895 12.51265968 -0.00947917 0.00574584 0.00402432
N 12.55610858 3.76184417 10.41965853 -0.00283589 0.00185573 0.00599944
N 11.34334491 5.99084405 15.19035860 0.00243257 0.00020643 0.00298327
N 14.41628196 1.19075331 16.93005027 0.00335338 -0.00031611 0.00007525
N 13.18649580 8.40933358 12.39742932 0.00065362 0.00070803 -0.00065800
N 11.27478771 5.41024687 19.56923089 0.00204703 0.00750102 0.00358933
N 12.72907726 4.12838557 24.35938407 0.00378655 0.00293542 -0.00262015
N 13.28491465 9.10019663 26.23259250 0.00477072 0.00833989 -0.00549679
N 14.48902046 0.99106471 21.96034421 0.00071295 -0.00589059 0.00308675
N 12.33598202 3.42324047 20.00264023 0.00325021 0.00295069 0.00073945
N 11.72778007 6.21297653 24.28631532 -0.00296687 0.00087575 -0.00107051
N 14.24765452 1.37760695 25.97839682 -0.00016790 0.00424732 0.00372052
N 13.26424923 8.49004949 21.25628674 -0.00238382 -0.00809542 0.00242774
N 11.18870955 14.91852525 1.34863255 0.00104790 0.00274843 -0.00248020
N 12.59650251 13.63058746 5.94354749 -0.00224602 -0.00164440 -0.00343282
N 12.95940812 18.50151537 7.92532283 -0.00057532 0.00348527 0.00515541
N 14.96749603 10.37017050 3.24383125 -0.00060251 -0.00182630 0.00003097
N 12.48220467 12.93423984 1.33504029 -0.00746397 0.00221604 -0.00412742
N 11.60288318 15.61790203 6.05773041 0.00462224 0.01090172 0.00425784
N 14.35427011 10.67809605 7.82228742 -0.00665495 -0.00558730 0.00491021
N 13.14899872 17.71829524 3.34244807 -0.00163450 -0.00535969 -0.00488161
N 11.31351362 15.10925994 10.38602794 -0.00160166 -0.00861993 0.00288649
N 12.35918128 13.66227484 14.87626306 -0.00101800 -0.00113235 0.00004001
N 13.04511287 18.40666304 17.16086748 -0.00147977 -0.00069919 -0.00806306
N 14.54060356 10.32189048 12.37442857 -0.00208038 -0.00194356 -0.00549231
N 12.56052962 13.16869192 10.85293782 0.00613113 0.00577719 -0.00104635
N 11.29571532 15.60496484 15.26332256 0.00668333 0.00616122 -0.00090024
N 14.31955243 10.69377996 16.80238806 -0.00100231 -0.00266550 -0.00160317
N 13.06824075 18.09029232 12.03825571 0.00254672 -0.00140063 -0.00431088
N 11.39761759 15.41670199 19.42512075 -0.00182723 -0.00543974 0.00330385
N 12.78708526 13.73210893 23.95260051 -0.00261741 0.00021019 -0.00152512
N 13.15086304 18.62145683 26.11266815 -0.00187056 0.00018998 0.00142234
N 14.54373765 10.43241881 21.41417002 -0.00766690 -0.00147040 0.00215019
N 12.49954814 13.41791289 19.64907638 0.00486619 0.00475543 -0.00132035
N 11.41766090 15.63481678 24.12199626 0.00623348 -0.00230070 -0.00525362
N 14.42418592 10.93699887 25.57901759 0.00155512 0.00174519 -0.00178468
N 13.16033004 18.06104951 21.31318656 -0.00188111 -0.00240826 0.00070464
N 11.08229705 24.72078646 0.83312922 -0.00616800 -0.00333418 0.00528844
N 12.51599865 23.22557601 5.82767663 0.00692718 0.00737034 -0.00154062
N 13.42142402 28.14049140 8.03477973 0.00165773 0.00380364 0.00866915
N 14.36792657 19.58118752 3.53487411 -0.00009890 -0.00586281 -0.00434262
N 12.48921166 23.12826783 1.50621235 -0.01015456 0.00120288 0.00777361
N 11.55435538 25.22069705 6.22190021 -0.00147451 0.00108549 -0.00044304
N 14.10478921 20.41674028 7.80126587 0.00307267 0.00376044 0.00518251
N 13.36353618 27.26157696 2.99054627 -0.00115410 0.00222390 -0.00168056
N 11.14465340 24.64965759 10.46607028 -0.00691130 0.00406503 -0.00297148
N 12.91164598 23.72630164 14.97113440 -0.00293012 -0.00020421 0.00235744
N 13.21712344 28.06544157 17.23114931 0.00289904 -0.00523332 -0.00005942
N 14.47339185 20.01771492 12.35083364 -0.00534211 0.00023636 -0.00611639
N 12.29212393 22.72108885 10.59361927 -0.00124340 0.00205156 -0.00291742
N 11.59734771 25.55102428 14.98225740 0.01075808 -0.00120113 0.00433281
N 14.14162365 20.43542179 16.88112116 -0.00050946 0.00505557 -0.00223892
N 13.09286818 27.68323394 12.07670680 -0.00007203 -0.00173773 0.00147076
N 11.10378872 24.39611211 19.28541601 0.00195175 -0.00693763 -0.00181649
N 12.61441915 23.34166292 23.44920851 0.00355199 -0.00322567 0.00288022
N 13.18903167 28.18869195 26.12966939 0.00381032 -0.00632773 -0.00204689
N 14.52049361 20.01903359 21.58944975 -0.00000303 -0.00589188 -0.00264733
N 12.21708001 22.48978761 19.34768526 -0.00275191 0.00658286 0.00380306
N 11.54224823 25.07047338 24.43202970 0.00327260 0.00149506 -0.00606835
N 14.43134766 20.56757897 26.03672410 -0.00352498 -0.00067978 0.00501224
N 13.26891476 27.80628771 21.64179581 0.00384178 0.00379707 0.00143252
N 14.88582721 5.47403879 1.26535314 -0.00439953 -0.00207035 0.00216488
N 16.65932542 3.72842515 5.56412513 0.00059130 -0.00535808 0.00485817
N 16.69777699 8.84621505 7.82925183 0.00102020 0.00512624 -0.00246987
N 18.01507264 0.53692941 3.25983320 0.00051620 -0.00840240 0.00247679
N 16.13243180 3.47998881 1.37101206 -0.00329473 0.00354512 -0.00102447
N 15.43136128 5.72057639 5.92897166 0.00281480 -0.00993891 0.00585915
N 18.22084759 0.90869429 7.85799202 -0.00213043 0.00233693 -0.00482321
N 16.95429245 8.41667367 3.18139021 -0.00342149 0.00141419 0.00357973
N 15.24987043 5.68152238 9.98900966 -0.00362325 -0.00583259 0.00019594
N 16.22982559 3.86523692 14.58312486 0.00143635 0.00247043 -0.00208764
N 16.86206549 8.47880179 17.14943799 -0.00814286 0.00053213 -0.00688377
N 18.35235510 0.43115284 12.76096238 -0.00092070 0.00329382 -0.00220751
N 16.20921132 3.67773098 10.68971232 0.00270478 0.00159324 0.00351005
N 15.14308498 5.80159246 15.24653405 0.00057131 0.00163346 0.00159013
N 18.09086870 1.09513773 16.68218581 -0.00047403 0.00031215 -0.00472131
N 17.16608233 8.46775934 12.32733153 0.00087915 -0.00974237 0.00272964
N 14.98911765 5.68500467 19.46247681 0.00303619 0.00221178 0.00154463
N 16.21464036 4.18999933 24.10254461 -0.00470405 0.00449040 -0.00750720
N 16.69137591 8.91968863 26.43074101 -0.00038669 0.00228626 0.00018922
N 18.41423776 0.68890009 21.64398084 -0.00076847 -0.00028563 -0.00494839
N 15.91344409 3.49244460 19.72722144 -0.00331014 0.01146719 0.00193257
N 15.19244933 6.18346881 24.37352963 0.00353293 -0.00261977 -0.00392057
N 17.89775501 1.33554976 25.83988960 -0.00314858 0.00774716 -0.00752634
N 16.93875555 8.49969443 21.49204217 0.00893081 0.00444063 0.00213067
N 14.94252347 15.29905715 0.99600354 0.00059966 -0.00159294 -0.00501716
N 16.41938848 13.52233496 5.42911171 -0.00708733 -0.00657773 -0.00374381
N 16.43307113 18.44586154 7.92228463 0.00132582 0.00395983 0.00149651
N 18.22509187 10.31448380 3.42719966 0.00124035 0.00551436 0.00568640
N 15.92195711 13.26675300 1.26019424 0.00011643 0.00438773 -0.00700112
N 15.07070362 15.22459572 6.09866914 0.00216768 0.00413538 0.00525302
N 17.67081709 10.91855854 7.47020522 -0.00401986 0.00477267 -0.00102188
N 16.85291725 17.87599116 3.37412149 -0.00293128 0.00096313 -0.00516477
N 14.75088902 15.17977030 10.33549350 -0.00249593 -0.00165589 -0.00271963
N 16.40049300 13.67508958 14.91509166 0.00457857 0.00296473 0.00045934
N 16.67563015 18.52324512 16.96510823 0.00156753 -0.00263881 -0.00013150
N 18.14306792 10.65189099 12.40549165 -0.00307272 -0.00371541 0.00077339
N 16.20856746 13.39121734 10.59681236 -0.00088817 -0.00242998 0.00968990
N 14.88709408 15.57439154 14.73742953 0.00208010 -0.00204679 0.00253829
N 17.78914380 10.62994325 16.86865842 0.00003576 -0.00058794 0.00273745
N 16.97903279 18.12452183 11.89156874 0.00151403 -0.00008390 -0.00198882
N 14.91344399 15.21573447 19.40370100 0.00010792 0.00055544 0.00503455
N 16.52217613 13.72685556 23.84316210 0.00047272 -0.00084060 -0.00201803
N 16.90945414 18.79136869 26.23968325 -0.00105927 0.00111203 0.00392168
N 17.94024471 10.50286638 21.84031898 -0.00884450 0.00263261 0.00487016
N 16.22927940 13.23209498 19.65613084 0.00272453 -0.00008568 0.00124944
N 15.07316214 15.59060722 24.01691187 -0.00246631 0.00186881 -0.00141670
N 18.03424143 10.71573817 25.83452223 0.00099304 0.00474571 -0.00648511
N 16.91554180 18.10445380 21.08562684 0.00678717 0.00376352 -0.00484636
N 15.19002353 24.28106080 1.30844203 -0.00527829 0.00487800 0.00212353
N 16.15125325 23.17672645 5.85445610 0.00255675 0.00378511 0.00690410
N 16.59487988 28.02757017 8.02793910 0.00089338 0.00136766 0.00342135
N 18.27435500 19.71413124 3.68448766 -0.00381558 0.00259908 0.00286936
N 16.07771586 22.27085561 1.76388825 -0.00109911 -0.00644126 0.00173735
N 14.63301099 24.88867458 6.38568221 -0.00603505 0.00049769 -0.00517217
N 17.80116088 20.31834314 7.62589228 0.00263835 -0.00153660 0.00511596
N 16.92624686 27.32266494 3.07114023 -0.00131650 0.00042454 0.00332081
N 14.73233681 24.38013885 10.36772860 0.00298843 -0.00186154 -0.00131046
N 16.21643809 23.52060076 14.89817699 -0.00588809 -0.00424899 -0.00737040
N 16.82038122 28.10698977 17.15974500 -0.00218520 0.00432350 -0.00066574
N 18.31288602 19.89366362 12.71615883 -0.00084266 -0.00334087 0.00289540
N 16.27581360 22.67820137 10.55167683 -0.00165233 -0.00271842 -0.00365679
N 15.26089002 25.56357406 15.03194867 0.00325549 -0.00204260 0.00774779
N 17.93030433 20.40522766 16.35015028 -0.00095330 -0.00082974 0.00276861
N 16.87642223 27.52771530 12.22830374 0.00123792 0.00246379 0.00241119
N 15.23096814 24.87878451 19.53439306 0.00878828 -0.00015683 0.00545915
N 16.43211013 23.19719158 24.29330238 0.00372405 -0.00413506 0.00233370
N 16.63416235 28.17695083 26.01520288 0.00435394 0.00238365 -0.00029183
N 18.30574298 19.98551093 21.44377504 0.00436143 0.00276260 -0.00186356
N 16.11927807 22.78134596 19.86527923 -0.00091377 0.00375525 0.00447128
N 14.85513553 24.95150935 24.28746961 0.00422467 -0.00062245 0.00560326
N 18.58500853 20.28096697 25.73639873 0.00046441 0.00810243 -0.00482597
N 17.03404664 27.61503955 21.38338852 -0.00478250 0.00013231 -0.00454897
N 18.95992115 5.64562845 1.32403167 0.00142176 0.00090297 0.00502370
N 20.02547311 4.00040711 5.89382048 -0.00276563 0.00680669 0.00533153
N 20.87219921 9.37749963 7.89109919 0.00405857 0.00105267 -0.00035241
N 21.62898016 0.52552117 3.48370668 0.00049713 -0.00682387 0.00957984
N 19.80598958 3.52491658 1.49805949 -0.00210369 0.00522043 -0.00174393
N 19.04503218 6.08406086 5.97329695 0.00211252 0.00324501 0.00090453
N 21.59301570 1.17202005 7.59894098 -0.00181869 0.00697941 0.00412344
N 20.52997841 8.69953147 3.23001682 -0.00123916 -0.00194867 0.00194979
N 18.43223367 5.40471298 10.28211390 -0.00454456 -0.00562206 -0.00376296
N 20.18327175 3.68131512 15.02612613 0.00373950 0.00320610 0.00200639
N 20.41407667 8.81673874 17.04940632 -0.00789467 0.00480592 -0.00240046
N 0.02031020 0.50110376 12.64122556 -0.00032847 0.00293084 -0.00312627
N 19.73113430 3.42576247 10.81196737 0.00090845 0.00697422 -0.00114450
N 18.68894231 5.51416607 15.10878869 -0.00041806 -0.00581969 -0.00184364
N 21.74662179 0.99748504 17.08971578 0.00362151 0.00577834 -0.00213517
N 20.38809233 8.40026013 12.24560584 0.00378782 0.00119859 0.00412249
N 18.34209823 5.32516321 19.53197175 -0.00194754 0.00895094 0.00660179
N 20.16655210 4.53744884 24.14356411 0.00688045 -0.00242627 0.00105293
N 20.42165132 8.80002400 26.10866637 0.00005417 0.00178987 0.00184818
N 21.56173819 0.93489054 21.82892323 -0.00292462 -0.00508880 0.00302786
N 19.90075417 3.53210268 19.83153959 0.00216474 0.00436006 -0.00085441
N 18.76908773 6.36537415 24.05742820 0.00541067 0.00049242 0.00026812
N 21.80833973 1.22411278 25.57641088 0.00183646 -0.00566153 -0.00070345
N 20.70397129 8.44395837 21.16567297 -0.00231269 -0.00323522 -0.00449091
N 18.31289157 15.08328728 1.35823041 -0.00041327 0.00046634 -0.00132100
N 20.12679913 13.55059896 5.93422478 -0.00018622 -0.00329221 0.00594418
N 20.88018030 18.68184507 8.05649153 0.00026146 0.00322911 -0.00067527
N 0.02273492 10.35408233 3.10701026 0.00108317 0.00340582 0.00003618
N 19.47209373 13.01451902 1.14835466 0.00198059 0.00160517 0.00150577
N 18.82788995 15.40750691 5.96313713 -0.00469175 0.00278921 0.00101233
N 21.61578699 11.56844440 7.94602084 -0.00829418 0.01316308 0.00202900
N 20.44752105 17.96128482 3.24050791 0.00665439 0.00935643 -0.00297831
N 18.76927563 15.40347849 10.20079102 0.00068024 -0.00666027 0.00204295
N 19.65397250 13.75111801 14.73281898 -0.00580614 -0.00790586 0.00626160
N 20.15442710 18.46365707 16.98095209 0.00571375 -0.00213494 0.00845573
N 21.86848464 10.25781878 12.38024241 -0.00201956 -0.00569150 0.00170631
N 19.91279506 13.27826813 10.29932823 -0.00075775 -0.00091942 -0.00293807
N 18.41920954 15.69646054 15.00715460 0.00943004 -0.00284193 0.00628440
N 21.83677125 10.62803775 16.83180488 -0.00670441 0.00584526 -0.00383904
N 20.61357320 18.32237496 11.94497091 0.00231921 0.00880212 -0.00414868
N 18.75210191 15.08831963 19.42504825 -0.00099193 0.00721840 -0.00013333
N 20.06472371 13.98356935 24.18828857 0.00363794 -0.00126482 -0.00436986
N 20.67867348 18.48518190 26.25576108 -0.00268551 -0.00248395 0.00042042
N 21.93353948 10.21036738 21.82171857 0.00077258 0.00069027 -0.00167253
N 19.57881759 12.84537830 19.59785807 -0.00674145 0.00115307 -0.00472811
N 18.70013542 15.82192243 24.13785913 -0.00590023 0.00066319 -0.00423587
N 21.70399099 10.71752383 25.95372955 0.00052081 0.00133577 0.00561504
N 20.95268916 17.91664042 21.19055579 0.00111375 0.00258548 -0.00174204
N 18.53743725 24.65244619 0.87627233 0.00171225 0.00093315 0.00642779
N 19.87066550 23.45766360 5.67050024 -0.00703075 0.00714294 0.00390710
N 20.56897870 28.00874256 8.19290786 -0.01198277 0.00265021 -0.00181806
N 21.57310602 20.04702923 3.47519893 0.00318028 -0.00835861 0.00200773
N 19.89774632 22.90005619 1.34632985 -0.00185402 0.00726180 -0.00631148
N 18.52590098 25.20314689 6.30190533 0.00606513 0.00438264 -0.00165525