1728
Time=37000.00000002 pbc="T T T" Lattice="22.05330825 0.00000000 0.00000000 0.00000000 28.88458930 0.00000000 0.00000000 0.00000000 27.43281342" energy=-10389.87829745 virial="4.23236293 10.83832111 13.71876963 10.83832111 7.89542300 17.04855761 13.71876963 17.04855761 -26.15148192" stress="0.00248228 0.00062204 0.00074798 0.00062204 0.00317601 0.00092574 0.00074798 0.00092574 0.00105817" Properties=species:S:1:pos:R:3:vel:R:3
N 0.19451556 5.68333337 1.06760539 -0.00219283 -0.00281467 -0.00687186
N 1.47799855 3.93737538 5.77597760 0.00004780 -0.00086019 -0.00208192
N 1.79636263 8.97366395 8.09820896 0.00418219 -0.00611774 0.00229220
N 3.49314538 0.53526873 3.12010818 0.00493773 0.00199387 -0.00101295
N 1.51799613 3.90820313 1.53204931 -0.00330585 0.00487068 -0.00024591
N 0.30920485 5.91949532 6.13996539 -0.00106142 -0.00688855 -0.00083677
N 3.26903898 1.18491966 7.53717125 0.00424158 0.00003375 0.00079497
N 2.16234907 8.54738421 3.02634015 -0.00377995 0.00362482 -0.00307598
N 0.23390905 5.42801698 10.39684218 -0.00645372 -0.00176464 0.00244902
N 1.48077877 4.19582164 14.39377788 0.00977207 -0.00368481 0.00175930
N 2.16047710 9.01296198 17.09757308 0.00262879 0.00248924 -0.00198940
N 3.68085570 1.01867480 12.31037103 0.00260553 0.00142798 -0.00410110
N 1.22531715 3.34712634 10.43840442 0.00468301 -0.00362698 -0.00301759
N 0.18379038 5.96565490 15.24510457 -0.00112036 -0.00505070 0.00016968
N 3.58818671 1.47105061 16.62719641 -0.00151121 -0.00666945 -0.00683068
N 2.35954572 8.55876159 12.12622145 0.00591903 -0.00318804 0.00129338
N 0.24515831 5.36325883 19.78950059 -0.00192254 -0.00085430 -0.00311737
N 1.16039248 4.08918987 24.04972636 0.01016674 -0.00345293 -0.00430650
N 2.36812387 8.71144685 26.27746169 -0.00974352 -0.00783532 0.00286105
N 3.75665003 0.77812322 21.52949238 -0.00523950 0.00447254 0.00106555
N 0.95918999 3.21557017 19.78723241 -0.00003129 0.00437657 -0.00224549
N 0.24744432 6.11709645 23.76024164 0.00127403 0.00055880 0.00212155
N 2.92324230 1.07964470 25.85220946 0.00017527 -0.00488359 -0.00041083
N 2.15093614 8.28579191 21.28999080 0.00036037 -0.00153350 -0.00274664
N 0.04559963 14.77309598 1.29110859 -0.00257345 -0.00549922 -0.00973507
N 1.50284172 13.90544248 5.94392921 -0.00159531 -0.00444113 0.00175962
N 2.59351583 18.67683417 8.29932273 0.00116832 -0.00261750 -0.00051286
N 3.16242562 10.52004826 3.62798356 -0.00437532 0.00523245 0.00265773
N 1.64923033 13.06691730 1.61421496 -0.00555035 -0.00260529 0.00399672
N 0.56430131 15.97059764 6.17991067 0.00069019 -0.00190638 -0.00668047
N 3.02681611 10.87765005 7.80154111 0.00200868 0.00337309 -0.01276797
N 1.99317596 17.82188110 3.00545557 -0.00566055 0.00357567 0.00277424
N 0.20926937 15.07684206 10.15194606 0.00242347 -0.00191997 0.00322017
N 1.79197421 13.88952339 15.03345273 0.00153941 -0.00133093 0.00104249
N 2.14119512 18.72335191 17.28863171 0.00263150 0.00551843 -0.00119371
N 3.70017499 10.46621312 12.52089254 -0.00446566 -0.00509950 0.00154991
N 1.30094190 13.11028548 10.41642165 -0.00050843 -0.00088114 0.00720065
N 0.47701925 15.80800509 15.22373045 -0.00468232 -0.00506632 0.00196366
N 3.32121185 10.98677766 16.78735883 0.00443160 0.00685248 0.00218739
N 2.22865402 18.25651513 12.15637587 -0.00173403 -0.00133732 0.00270659
N 0.39055606 15.14978584 19.46320639 0.00164900 0.00624870 0.00047670
N 1.27420611 13.55965812 23.98568730 0.00019914 0.00377156 0.00241600
N 2.20958793 18.64169968 26.24300802 -0.00903544 0.00258800 -0.00627593
N 3.41452647 10.14356529 21.67109513 -0.00264351 0.00145568 -0.00108879
N 1.33758274 13.16694658 19.73732319 0.00183966 0.00551319 -0.00446621
N 22.04688630 15.60371537 24.47627523 -0.00271190 -0.00144565 -0.00160206
N 3.61264610 10.67964488 26.02059353 0.00114336 0.00088503 0.00206024
N 2.46149442 17.69770300 21.30145315 -0.00609933 -0.00078350 0.00288370
N 21.97544213 24.56719145 0.71123000 -0.00119170 -0.00067467 -0.00372333
N 1.34678264 23.51061325 5.74944307 -0.00820819 -0.00315020 0.00055114
N 1.92061054 28.18010645 7.75833830 0.00154940 -0.00326779 0.00035184
N 3.33817411 19.64484005 3.55909771 -0.00817967 -0.00442633 -0.00098363
N 1.19418192 22.77797999 1.31543164 0.00483286 0.00089008 0.00749570
N 0.32695941 25.62174097 6.06694718 0.00120850 0.00480488 0.00565035
N 3.24460650 20.85245272 7.78182709 0.00353798 -0.00253305 0.00597288
N 2.21132665 27.44416539 2.94851870 -0.00812480 -0.00061109 -0.00410707
N 0.18618215 24.86301103 10.35397975 0.00234121 -0.00625792 -0.00130624
N 1.62546605 23.44916220 15.09556180 0.00202692 -0.00374906 -0.00135035
N 2.44929859 28.33558365 17.05740564 0.00411873 -0.00118315 -0.00107173
N 2.93850600 20.27626473 12.97164276 0.00447593 0.00135436 -0.00242666
N 1.49410449 23.02469213 11.05156701 0.00210085 -0.00130296 -0.00551034
N 0.60533029 25.47940674 15.34201025 0.00330023 -0.00164177 0.00111936
N 3.58065436 20.57099219 17.07208517 0.00462774 0.00051056 -0.00197840
N 2.47587857 27.88121765 12.12676329 0.00619651 0.00505717 -0.00081159
N 0.66209110 25.07334997 19.37981192 -0.00553935 -0.00177375 -0.00654214
N 1.81978740 23.02111756 23.40258185 0.00259088 -0.00128805 -0.00180530
N 2.47120855 27.77315643 26.43239023 -0.00456549 0.00425386 0.00178580
N 3.69195136 19.68895679 21.47804541 -0.00320488 0.00311251 0.00336884
N 1.56917077 22.99505113 19.94439464 -0.00185886 0.00286857 -0.00117801
N 0.80514342 24.97698184 24.22078631 0.00394534 0.00033761 -0.00600214
N 3.27117058 20.52082729 25.91413020 0.00086900 -0.00811761 -0.00160347
N 2.44839925 27.75488112 21.42274429 -0.00023161 -0.00378779 0.00435322
N 4.00467412 5.74288446 0.95495543 0.00230040 0.00682563 0.00288496
N 5.32101137 4.21950127 5.39967819 -0.00140575 -0.00904666 -0.00005067
N 5.39671072 8.75266836 8.18817806 -0.00767129 -0.00626522 0.00605374
N 6.94879324 0.59578315 3.17750290 -0.00015942 -0.00021947 -0.00316078
N 5.02627573 3.77705961 1.37324445 0.00506824 -0.00041544 -0.00515643
N 3.93726506 6.01848029 5.87665414 -0.00284949 0.00213965 0.00238647
N 7.06929273 0.96538672 7.67783723 0.00380125 -0.00037842 0.00033742
N 6.27295674 8.08543956 3.07619851 0.00328647 -0.00051198 0.00385692
N 3.80961837 5.64472599 9.29465843 -0.00588653 -0.00181233 0.00030427
N 5.29597335 4.32058465 14.05334948 0.00433088 -0.00135963 -0.00189354
N 5.65455928 9.03457553 17.11808255 0.00184285 0.00707372 -0.00043440
N 6.87768302 0.93534275 12.74186959 -0.00059501 0.00079012 -0.00096884
N 4.97000563 3.79086749 10.21127786 -0.00475976 -0.00055601 0.00490897
N 3.76513204 5.78094801 14.95050563 -0.00491175 0.00098500 0.00662343
N 7.01745131 1.59373745 16.77741482 -0.00768387 0.00756456 0.00448987
N 6.07050311 8.51730398 12.29344447 -0.00362318 -0.00076967 0.00151046
N 4.23394518 5.90542605 19.30236865 0.00246879 -0.00262325 0.00251127
N 5.39148041 3.97692988 23.70926920 0.00217560 -0.00014229 -0.00325096
N 5.70948369 8.84817687 26.15815935 0.00602478 0.00064089 -0.00466639
N 7.16608099 0.79325557 21.80720683 0.00500656 0.00513675 -0.00355668
N 5.01499031 3.77478704 19.54486629 -0.00444766 -0.00303943 0.00431962
N 4.10931972 5.83164734 24.14037035 -0.00687669 0.00381586 0.00065582
N 6.93213311 1.18040247 25.68136541 -0.00027053 0.00085754 -0.00024498
N 6.01281935 8.63035605 21.42844678 0.00389882 0.00306183 0.00388874
N 3.83790884 14.81549946 1.39460233 0.00123213 0.00225968 -0.00349219
N 5.09380191 13.52031210 5.80544679 0.00527026 -0.00506555 -0.00531945
N 5.49385396 18.79429290 8.14846596 0.00186588 -0.00028844 -0.00020335
N 7.21117278 10.06826058 3.72668806 0.00846343 0.00069796 0.00409831
N 5.25235451 13.02674778 1.52517420 0.00463137 -0.00144271 0.00229454
N 3.87444813 15.47347191 6.16303947 -0.00470367 0.00166907 0.00076891
N 6.64742248 10.67466086 7.75879619 0.00510801 -0.00108463 0.00742131
N 5.58286391 17.90772287 3.24976891 0.00642561 -0.00043647 -0.00637709
N 3.56326449 15.16542652 10.09422187 0.00051228 0.00291073 -0.00618410
N 5.59565588 14.01697748 14.62615067 -0.00559085 -0.00658618 -0.00478369
N 5.67486045 18.65938759 17.37276837 -0.00030191 -0.00038171 0.00514928
N 7.35658069 10.40486246 12.48329532 0.00603185 0.00403909 0.00162520
N 4.82583532 13.23265326 10.80050983 0.00205509 0.00812691 -0.00070303
N 4.10599799 15.78799239 15.13030097 -0.00274246 0.00566780 0.00014339
N 7.07294704 10.88462160 16.76260922 -0.00381813 -0.00594152 -0.00466591
N 5.84879221 18.28641604 12.27470736 -0.00689590 0.00380805 0.00787067
N 3.66616230 15.00799751 18.96425633 -0.00385753 -0.00332443 0.00086071
N 5.24025255 13.73255863 24.31693760 -0.00090922 -0.00290173 -0.01071563
N 5.63722936 18.61286339 26.26865352 0.00388475 -0.00738784 0.00284345
N 7.07118511 10.60073744 21.73966754 0.00171085 -0.00088014 -0.00027762
N 5.07914980 13.28054626 19.52152563 -0.00059572 0.00306179 0.00482250
N 4.11521972 15.81632160 24.49176769 -0.00423592 0.00003352 0.00165929
N 6.84101317 10.89023940 26.30199470 0.00763083 0.00280336 -0.00112245
N 6.17397744 18.26681726 21.66298781 -0.00204746 -0.00048720 -0.00268200
N 3.71654287 24.53082585 1.14475018 -0.00072537 -0.00352293 -0.00424983
N 5.27551336 23.44059529 5.84858643 -0.00048646 -0.00301951 0.00054582
N 5.94725326 27.89213484 7.91240140 0.00251520 0.00236780 -0.00068660
N 6.96249698 19.75753396 3.33343848 0.00436966 0.00060998 0.00691879
N 5.04173475 22.68537687 1.72691975 -0.00145831 -0.00729370 -0.00409709
N 3.86752347 25.27315742 6.04087322 0.00682442 0.00664792 -0.00351786
N 6.66588171 20.76119021 7.88348982 0.00660394 -0.00208089 -0.00052440
N 5.88970916 27.48353936 3.10297038 -0.00472338 0.00138316 0.00111270
N 3.95561520 24.80827263 10.40412278 0.00062374 -0.00367284 -0.00328390
N 5.37201783 23.41432540 14.83861827 0.00180102 -0.00195768 -0.00240318
N 5.84367279 28.51924979 17.13657425 -0.00051375 0.00414534 -0.00177885
N 6.99605788 20.03909028 13.30928525 0.00443552 -0.00537219 0.00313199
N 5.39146066 23.07526523 10.85416400 0.00122739 -0.00090690 0.00376165
N 4.21100427 25.38287230 15.26740444 0.00055201 0.00428221 0.00008439
N 6.95496081 20.66675420 17.01720462 -0.00375050 0.00277597 -0.00315645
N 5.87307795 27.82832324 12.28210977 -0.00451292 -0.00351493 0.00535815
N 4.02023163 24.76458025 19.59171237 0.00400488 0.00501744 -0.00376237
N 5.67965204 23.41990708 23.87938764 -0.00308678 -0.00133724 0.00377168
N 5.63839453 28.28300370 26.32107562 0.00468091 -0.00136976 0.00242751
N 7.68807632 19.97931932 21.84044668 0.00216763 0.00379740 -0.01077591
N 5.34234528 22.86301707 19.70947328 -0.00310715 -0.00790914 -0.00028216
N 4.42673869 25.25775909 24.52785595 0.00383781 0.00150576 -0.00056375
N 6.89954727 20.49535186 25.95273930 0.00144158 -0.00368823 0.00169997
N 6.20104683 27.66330020 21.60850415 -0.00068510 0.00356148 -0.00084678
N 7.66642601 5.20640735 1.25065061 0.00794109 -0.00180859 0.00919883
N 9.07953861 4.14651584 5.86291315 -0.00162098 -0.00239366 0.00129337
N 9.63592061 8.89158136 7.96207379 0.00323822 0.00207202 -0.00103832
N 10.90560006 0.62985787 3.32421233 0.00142666 -0.00210114 -0.00112938
N 8.95924468 3.27280783 1.41729664 -0.00500504 -0.00031273 -0.00321651
N 7.63495239 6.01124136 5.93875256 0.00256957 -0.00226443 -0.00385100
N 10.90441375 1.03948015 7.35104624 -0.00190272 -0.00100010 0.00769814
N 9.54598283 8.36247176 2.96600716 -0.00016558 0.00421548 0.00070955
N 7.78580667 5.65452602 10.09224540 -0.00016867 0.00221512 0.00127204
N 8.64538987 4.33659588 14.78609868 0.00638168 0.00089864 0.00027810
N 9.46367935 9.10513396 17.21426084 0.00111755 -0.00095245 0.00030792
N 10.69816982 0.98248632 12.34968829 -0.00101610 -0.00791973 -0.00231638
N 8.33651364 3.47211781 10.42257165 -0.00113626 0.00712595 0.00224731
N 8.00767145 6.53106712 15.18388643 0.00131863 0.00448582 0.00837227
N 10.74150896 1.37250170 16.77361603 -0.00284400 -0.00082076 -0.00307562
N 9.52317700 8.56343131 12.10804370 0.00576536 -0.00449865 0.00253701
N 7.43049731 5.56298273 19.33976129 0.00208982 -0.00013392 -0.00038939
N 8.94526343 3.95683236 23.57974024 0.00089477 0.00226806 0.00010783
N 9.31608979 8.72532184 26.25529265 0.00014151 -0.00039531 -0.00267835
N 11.25954613 0.61194914 21.73964955 0.00075159 -0.00077780 -0.00531583
N 8.67565228 3.73543449 19.91952029 -0.00497893 -0.00519358 -0.00023129
N 7.76550157 5.74426451 24.38240040 0.00065681 -0.00515387 -0.00383168
N 10.73800526 1.49470935 25.87254892 0.00168531 0.00049422 -0.00191415
N 9.44539251 8.45371120 21.65589613 -0.00119973 -0.00001269 0.00159870
N 7.41938765 15.00058417 1.31170682 0.00152428 -0.00959351 0.00238288
N 8.69496737 13.53333720 5.93482864 0.00694379 0.00223051 0.00015045
N 9.19436359 18.69461045 7.91050993 0.00384495 -0.00336750 0.00721849
N 10.86764946 10.21582540 3.09591446 -0.00134399 -0.00320632 0.00305432
N 8.59444407 13.06737024 1.55178400 0.00321584 -0.00133301 0.00256157
N 7.44141702 15.48107771 6.15019229 0.00532027 0.00374256 -0.00082863
N 10.66797638 10.90677081 7.65059450 -0.00279632 -0.00551651 0.00012611
N 9.36937941 17.94008727 3.35296440 0.00083223 0.00447584 -0.00126101
N 7.36013010 15.09172590 10.39283920 -0.00556806 0.00043261 -0.00910988
N 9.10994724 14.03832038 14.81249803 -0.00029741 -0.00454330 0.00281725
N 9.55957296 18.80053061 17.09775529 -0.00674776 -0.00430054 -0.00295866
N 10.93345755 10.35009767 12.62577684 -0.00144888 -0.00306592 0.00435973
N 8.78393080 13.33248400 10.30539592 -0.00219711 -0.00365476 0.00113389
N 7.75605930 15.82155826 15.14286620 0.00072914 -0.00378424 -0.00090104
N 10.61367984 11.07509746 16.92562375 -0.00345740 -0.00485872 0.00228528
N 9.88292959 17.86637957 12.21973672 0.00011798 -0.00066541 0.00255344
N 7.47935296 15.11351902 19.70392173 0.00196210 0.00289664 0.00084486
N 9.01808694 13.81383937 24.24094213 -0.00395701 -0.00140475 0.00283789
N 9.39356523 18.54997348 26.44900118 -0.00579329 -0.00219395 -0.00056153
N 10.84432679 10.30397056 21.83366357 0.00295000 0.00638874 0.00088972
N 9.05248266 13.39130865 19.57875572 -0.00028234 0.00398188 -0.00170046
N 7.59922243 15.62200518 24.08362653 0.00411384 -0.00212678 -0.00240201
N 10.38032032 10.76518446 25.83454357 -0.00507258 -0.00119151 -0.00088655
N 9.72079437 17.97092803 21.04391520 0.00392721 0.00095686 -0.00767672
N 7.53768202 24.64303852 1.16758554 -0.00209910 -0.00146659 0.00152053
N 8.71831313 23.41537806 5.68139745 0.00151288 0.00691163 -0.00060022
N 9.58306121 28.08093255 7.95110211 0.00152106 -0.00315516 0.00385326
N 10.65456976 19.83150137 3.64830314 -0.00031261 -0.00541312 -0.00100032
N 8.42833825 22.54120259 1.36272637 -0.00228467 -0.00489436 0.00479383
N 7.50594763 25.38490474 5.91892834 -0.00143828 -0.00685932 -0.00802986
N 10.09964747 20.81699224 7.96065841 0.00088670 -0.00413740 0.00403311
N 9.58885716 27.63848041 2.94223706 0.00061012 -0.00090108 -0.00202841
N 7.82886276 24.88461916 10.19111455 -0.00507145 0.00974497 0.00224540
N 8.92276585 23.40014072 14.76895400 -0.00731937 -0.00141359 -0.00660282
N 9.37131969 28.36213211 16.88279699 -0.00488829 -0.00039635 0.00305843
N 10.70965643 20.03858682 12.57808656 -0.00501533 -0.00271971 0.00243031
N 9.07548593 22.93264560 10.68456075 0.00329115 0.00209380 0.00010298
N 7.81093366 25.42519913 15.09640910 0.00515101 0.00312967 0.00157637
N 10.83128642 20.76381249 16.85410423 -0.00389519 -0.00354577 0.00076740
N 9.58633572 27.89882878 11.96053570 -0.00066112 -0.00547185 0.00186370
N 7.98560396 24.83638903 19.64008876 -0.00238770 -0.00046017 0.00432751
N 9.08281373 23.28360110 24.00522241 -0.00175388 0.00438398 -0.00231784
N 9.55350992 28.46396513 25.91365822 0.00260357 -0.00229315 -0.00014434
N 11.14984527 19.83413526 21.55659395 -0.00127023 0.00009116 0.00002742
N 9.48572704 23.01850273 19.73288994 -0.00663516 -0.00107392 -0.00566480
N 8.09796184 25.28797214 24.35573490 0.00192921 0.00166862 -0.00623884
N 10.75914449 20.34044757 25.87849772 0.00516522 -0.00141857 0.00229629
N 9.76348568 27.81827111 21.50784184 0.00158923 0.00348374 0.00331875
N 11.29474034 5.43251390 1.28253872 0.00220555 -0.00452813 0.00562013
N 12.62628623 4.10464942 5.87124021 0.00420874 -0.00105284 0.00349232
N 13.31583512 8.60628742 8.00693174 -0.00092704 -0.00856828 0.00035462
N 14.13302203 0.50711314 3.48957383 0.00833853 -0.00380083 -0.00565921
N 12.82168726 3.62838814 1.29780161 0.00111574 0.00388134 -0.00106737
N 11.27716122 6.00296771 5.89296443 -0.00342152 0.00081673 -0.00819655
N 14.06368773 1.13004388 7.76939923 -0.00383850 0.00320362 -0.00514396
N 13.31858037 8.27261671 3.27852204 -0.00099468 -0.00335422 -0.00156951
N 11.01390836 5.38763234 10.37730136 0.00459975 0.00236972 0.00860325
N 12.60782776 4.15351000 14.86415609 0.00216201 -0.00167683 0.00443089
N 13.14199609 8.79656683 17.07100774 0.00088519 -0.00604094 -0.00532587
N 14.33475916 0.35494326 12.69211341 -0.00112400 0.00081499 0.00100319
N 12.63463308 3.83164421 10.74766981 0.00369349 -0.01080355 0.00102409
N 11.37367147 6.03987059 14.98103528 0.00998871 -0.00409672 0.00063946
N 14.32428408 1.34558424 16.84978800 -0.00393712 -0.00496792 0.00539780
N 13.12608429 8.26854367 12.34025917 0.00064096 -0.00123238 0.00125096
N 11.34087436 5.63198660 19.31099144 0.00081633 0.00065930 0.01289788
N 12.94556337 4.26806878 24.00676172 0.00271227 -0.00001918 0.00355871
N 13.38079898 8.50543624 26.13150333 0.00000065 0.00095531 -0.00010492
N 14.71720945 0.71779960 21.86347531 0.00138090 -0.00041240 -0.00195839
N 12.47048140 3.65697187 19.48120223 0.00086263 -0.00092139 -0.00335332
N 11.57032015 6.16317745 24.30934237 -0.00258739 -0.00407597 -0.00086835
N 14.21273088 1.37084647 25.93985844 -0.00052979 -0.00178607 -0.00439280
N 13.04670364 8.18512183 21.41638029 -0.00030188 -0.00376219 -0.00597891
N 10.81913983 14.94964660 1.29083597 0.00277100 0.00442731 -0.00356862
N 12.14754924 13.73580698 5.63787339 0.00445509 0.00506551 0.00546244
N 12.87311045 18.35530622 8.40774711 0.00147410 -0.00210806 0.00206515
N 14.22984852 10.45328134 3.25085464 0.00229853 0.00466428 -0.00038097
N 12.44792253 13.26518977 1.43029080 -0.00029686 -0.00119513 -0.00040137
N 11.16577223 15.69210050 6.18946991 -0.00158759 -0.00306083 -0.00001447
N 13.90800144 10.78749980 7.47697117 -0.00132490 -0.00321014 0.01094049
N 13.21002717 17.88831364 2.95637015 -0.00290339 -0.00206965 0.00610786
N 11.40195273 15.04710690 10.09122735 0.00036631 -0.00293577 0.00070603
N 12.65998750 13.78600986 14.86115841 -0.00083453 0.00559608 0.00270730
N 13.50968048 18.66169847 16.94474249 0.00719375 -0.00344105 -0.00268935
N 14.41348920 10.17294897 12.36813639 -0.00255903 0.00421842 0.00693543
N 12.56612787 13.16634566 10.61510406 -0.00173673 -0.00014456 0.00270690
N 11.62761964 15.76157745 15.42224719 -0.00263331 0.00052171 0.00494007
N 14.33426497 10.78531099 16.88625680 0.00246328 -0.00088318 0.00037139
N 13.31158143 18.15219131 12.62362262 0.00225974 0.00224307 0.00006611
N 11.47066253 15.03104759 19.44333864 -0.00076535 -0.00034038 0.00266683
N 12.71429720 13.73084495 24.13289427 -0.00096273 0.00411839 -0.00083039
N 13.19975945 18.66052028 26.32570858 0.00324987 0.00438566 -0.00456638
N 14.47762840 10.02183404 21.58645140 0.00287368 -0.00169509 -0.00226991
N 12.69176757 13.14421145 19.82086395 0.00129611 -0.00166572 -0.00232006
N 11.40350635 15.59003511 24.40577715 -0.00987545 -0.00337122 0.00572722
N 14.31706094 10.58499218 25.83897018 0.00296132 -0.00022259 -0.00172791
N 13.51383889 17.92280555 21.26003287 -0.00180202 -0.00548264 0.00332094
N 10.90700527 24.65754986 1.23100048 0.00094107 -0.00949873 -0.00183090
N 12.35617405 23.15700390 5.66652805 0.00024759 -0.00061347 0.00031728
N 12.99355474 28.01716398 8.22655824 -0.00135650 -0.01052576 -0.00473135
N 14.42494584 19.91448612 3.27134280 -0.00209686 0.00635025 0.00366627
N 12.10117596 22.62145291 1.39064025 -0.00653251 0.00334869 -0.00687193
N 11.32279975 25.12547415 6.12777586 -0.00310702 -0.00328025 -0.00253984
N 13.77089853 20.38180046 7.81325658 0.00173812 0.00559334 -0.00385037
N 12.95033743 27.39563278 3.16077230 -0.00052076 0.00422870 0.00065657
N 11.38007832 24.75339573 10.40738838 -0.00114321 -0.00358915 -0.00033123
N 12.61745334 23.47619694 14.91887779 -0.00023320 0.00015597 0.00550823
N 13.03656822 28.31796675 17.35264294 0.00016307 -0.00267962 0.00518191
N 14.49515196 20.16053435 12.84210910 -0.00070975 -0.00604508 0.00332687
N 12.57270437 22.90176791 10.88004485 0.00087848 0.00716325 0.00364678
N 11.13688302 25.22757890 15.27003588 0.00268236 -0.01057032 -0.00066105
N 14.76268909 20.55383782 16.94833591 -0.00114048 0.00264836 0.00211697
N 12.87277750 27.45422596 12.56663216 -0.00243057 -0.00378505 -0.00465636
N 12.03234052 24.87833052 19.42946863 0.00067622 0.00294615 -0.00235969
N 12.64785439 23.21444034 24.13727328 0.00638134 0.00366097 -0.00878475
N 12.95994497 28.46108664 26.47284986 0.00491412 -0.00247042 0.00360246
N 14.78314755 19.88093611 21.69201194 0.00189732 -0.00148981 0.00332850
N 12.80915746 22.79137509 19.87377891 0.00149073 -0.00416191 0.00416685
N 11.47473410 25.23186437 24.34745157 -0.00130303 0.00975985 0.00085508
N 13.96756910 20.83526324 26.09644296 -0.00121524 0.00130542 -0.00779705
N 13.69527638 27.62545537 21.42758588 0.00422504 0.00229950 0.00450445
N 15.00315822 5.69416383 1.26284926 -0.00273341 -0.00225885 -0.00018584
N 16.13217887 3.91401325 5.98314057 -0.00814994 0.00287144 0.00222954
N 16.97580364 8.92041727 8.03021661 -0.00377890 0.00004484 0.00668786
N 17.60748299 0.63126801 3.34460773 -0.00010739 0.01068040 0.00181749
N 16.25261860 3.79519686 1.58143427 -0.00778090 0.00156118 0.00232668
N 15.16639472 5.97243017 6.08941739 0.00601504 0.00415066 -0.00351044
N 18.04300065 1.19412020 7.67893998 0.00530030 -0.00337952 -0.00367967
N 16.82935296 8.67545360 2.94641958 0.00041515 -0.00052630 0.00058357
N 15.10298446 5.59250822 10.75745746 0.00068909 0.00292263 0.00547379
N 16.36938129 3.86218326 14.93135166 0.00210375 0.00185608 -0.00269938
N 16.90799760 9.10884999 16.96422631 -0.00354107 0.00107506 -0.00039227
N 17.80091127 0.30523012 12.51752173 0.00236920 0.00376605 -0.00179808
N 16.08165932 3.52752566 10.73414778 -0.00063827 0.00199824 0.00556936
N 15.35704331 5.95285980 15.28129007 0.00059416 -0.00583330 0.00849972
N 17.90932662 1.19816715 16.91268439 0.00605739 0.00626062 -0.00019964
N 17.19536139 8.33394573 12.35821427 0.00607747 -0.00671961 -0.00554440
N 14.99697646 5.39228707 19.48119919 0.00298707 0.00351673 0.00129907
N 16.53319317 4.03922862 24.11315619 -0.00096274 -0.00066260 -0.00373746
N 16.72439044 8.92961153 26.21123811 -0.00249615 -0.00427851 0.00295246
N 18.39059649 0.82487179 22.05383196 -0.00637475 -0.00237230 0.00199167
N 16.24160442 3.49316142 19.82843095 -0.00172595 0.00151087 0.00445621
N 15.28068388 5.94803996 24.23640888 -0.00568492 0.00549160 -0.00295150
N 17.80083890 1.37059037 26.10077687 -0.00162786 0.00118148 0.00328013
N 16.95097369 8.35882743 21.52797137 0.00191136 -0.00881567 -0.00290741
N 14.60516938 15.11679047 1.32418725 0.00256739 -0.00477081 -0.00312181
N 16.19770365 13.80537096 5.86402625 -0.00504729 0.00761326 -0.00111181
N 16.26649487 18.72149134 7.73107929 -0.00677634 -0.00200989 -0.00161605
N 18.33795958 10.41482420 3.43078820 -0.00380488 0.00026542 0.00170522
N 16.18514878 13.39962387 1.33945507 0.00196404 -0.00272911 -0.00640035
N 14.86064447 15.72976110 6.19870605 -0.00060445 0.00822641 0.00224545
N 17.92768893 10.95836663 7.54012382 -0.00810874 -0.00568191 0.00305910
N 16.81428231 18.01035746 3.22503371 0.00077603 -0.00076560 0.00823373
N 15.07546051 15.29577739 10.48872062 0.00012012 0.00300745 -0.00630147
N 16.68274078 13.75959726 15.04378028 -0.00148600 0.00387432 0.00193743
N 17.01155934 18.64510640 17.15425738 -0.00019334 0.00829699 0.00018817
N 18.25354439 10.39042600 12.40490587 -0.00345913 -0.00037315 0.00298631
N 16.07654811 13.24950542 10.63517092 0.00121244 0.00501733 0.00503185
N 15.33593529 15.57273663 15.43828162 -0.00343884 -0.00106976 -0.00089855
N 18.37312158 10.90995809 17.02524857 0.00483856 0.00457355 0.00165801
N 17.10364771 17.89435996 12.40113884 -0.00324843 0.00459559 0.00173965
N 15.05179809 14.73367485 19.62659165 -0.00124905 -0.00166003 -0.00529162
N 16.24205688 13.67883540 24.02826444 -0.00461142 -0.00225500 0.00521015
N 16.46003259 18.57710338 26.42872514 -0.00586063 -0.00296227 -0.00845151
N 18.15804743 10.34846214 21.69787806 0.00757333 -0.00255995 -0.00228037
N 16.63591039 12.98177663 19.97476939 0.00078209 0.00310074 -0.00200696
N 14.98764733 15.55646965 24.47877731 0.00454760 0.00345038 -0.00575084
N 17.95198481 10.76715258 25.83982405 0.00003965 0.00081440 0.00156054
N 17.06070327 17.92343598 21.64157285 -0.00222890 0.01137017 0.00056224
N 14.49090462 24.72472794 0.89821302 -0.00411652 -0.00133652 0.00181858
N 16.10217814 23.36110862 4.99249227 -0.00058474 0.00447940 0.00115442
N 16.61118073 28.21220172 7.67866295 -0.00461575 0.00160770 0.00266246
N 18.02365193 19.96879661 3.56568547 -0.00087951 0.00249751 -0.00257405
N 15.83683016 22.80842987 1.14027852 0.00207670 -0.00416566 0.00229850
N 14.98626957 25.07719687 5.78791488 -0.00122055 0.00308288 0.00236898
N 17.64240182 20.55094576 7.58412609 -0.00036024 -0.00610090 -0.00371232
N 16.81342498 27.41782528 3.05211537 0.00066922 0.00148301 0.00354952
N 14.84000494 24.80542104 9.69413486 -0.00629898 -0.00994786 0.00195272
N 16.01234409 23.31024757 14.65245643 -0.00317871 0.00081292 0.00550882
N 16.98005804 27.99325941 17.23271023 0.00171217 -0.00106339 -0.00293327
N 17.87397791 20.10605269 12.06221299 -0.00048588 -0.00139862 0.00176966
N 15.92463565 22.92426394 10.37784062 0.00005168 -0.00481202 0.00320856
N 14.92688432 25.36132614 14.92731652 0.00094557 0.00401231 -0.00948161
N 18.00482274 20.64210226 16.56572596 -0.00093323 0.00355728 -0.00671431
N 16.54587152 27.22807693 12.63456672 0.00374146 0.00086264 0.00190658
N 15.30121477 24.67609633 19.31453911 -0.00064371 0.00055763 -0.00598731
N 15.62830480 23.11322845 23.87699277 0.00597914 -0.00719389 -0.00042076
N 16.70341711 28.29633442 26.59273914 0.00215690 -0.00285890 -0.00356080
N 18.42901207 19.82346257 21.68186781 -0.00036840 0.00119102 -0.00235216
N 16.49125663 22.80954476 19.44434174 -0.00100942 0.00142681 0.00090072
N 15.27547879 25.40678272 24.38369444 0.00373308 0.00176851 -0.00174593
N 17.79444538 20.40927686 25.85662940 0.00295418 -0.00150239 0.00426971
N 17.14637905 27.83425221 21.54061209 0.00203216 0.00843246 0.00448947
N 18.71114503 5.84711236 1.29585096 -0.00295089 0.00064494 -0.00068068
N 19.72983006 4.04196786 5.80820910 0.00114315 -0.00253691 0.00194781
N 20.41120965 8.95887127 7.60112728 0.00072734 0.00138608 0.00122060
N 21.93705914 0.48971966 3.23087294 -0.00345324 -0.00179292 -0.00326530
N 19.92824133 3.79651555 1.57007706 0.00230287 -0.00112917 0.00793532
N 18.55427150 5.93392184 6.28108194 0.00151278 -0.00245013 -0.01225447
N 21.47465146 1.33784005 7.68917342 0.00078473 0.00244936 -0.00670438
N 20.40760839 8.52621584 3.17449198 0.00285697 -0.00196795 0.00031707
N 18.60003741 5.24807723 10.64200533 -0.00019192 0.00230176 -0.00310553
N 19.71350459 3.86841245 14.89974955 0.00012089 -0.00071142 -0.00115577
N 20.55258947 8.73179679 17.38949387 0.00513047 0.00098525 0.00243158
N 21.80563908 0.75109291 12.75262636 -0.00501941 0.00094001 -0.00409173
N 19.55669704 3.17700339 10.80905243 -0.00042068 0.00125014 0.00212076
N 18.87544783 5.97451796 15.31037530 -0.00063045 -0.00266025 -0.00134959
N 21.97316102 1.37415835 16.90199494 -0.00321230 0.00243188 -0.00753647
N 20.72916118 8.45614656 12.46043336 0.00031105 0.00661165 -0.00622757
N 18.74559304 5.43769716 19.59620007 -0.00317860 0.00160554 0.00695109
N 20.03837911 4.14330079 24.08646666 0.00321638 0.00211353 0.00208707
N 20.61990891 9.22835137 26.05534247 0.00913444 -0.00114663 -0.00515045
N 22.04832048 0.77481891 22.23608186 -0.00460182 0.00532066 0.00595404
N 19.84614101 3.39921203 19.96706807 0.00675330 -0.00297872 0.00283294
N 18.64932215 6.06463340 24.49233661 -0.00090696 0.00374688 0.00336644
N 21.47091064 1.20886760 26.22331300 0.00609231 0.00536319 0.00194249
N 20.61946391 8.41025007 21.66935813 0.00043570 -0.00091912 0.00532096
N 18.45616416 15.08354589 0.99622493 0.00288363 0.00642878 -0.00732474
N 19.89365939 13.56192189 5.30488128 -0.00028315 0.00111031 0.00146036
N 20.23959514 18.71133776 7.80370694 0.00543834 -0.00336929 -0.00181654
N 21.42623333 10.47631727 3.43061611 0.00108356 0.00331075 0.00203045
N 19.59462086 13.07661907 1.18422259 -0.00162761 0.00387525 0.00580891
N 18.65243952 15.47432026 5.79172427 -0.00029368 0.00624663 0.00148051
N 21.40080641 10.96427424 7.51000789 -0.00155178 0.00225972 -0.00406310
N 20.44631189 17.96979259 3.21183623 0.00153930 -0.01024226 -0.00197680
N 18.72741410 15.21294916 10.11719223 -0.00106314 -0.00098153 0.00047294
N 20.23290524 13.84258538 14.89077275 0.00358913 0.00011151 -0.00027657
N 20.77331454 18.71328500 17.17322735 0.00273322 -0.00053290 0.00678127
N 21.87031321 10.44862235 12.91509037 0.00109162 0.00146690 0.00061046
N 19.63268091 13.17853873 10.55818683 -0.00147165 0.00134815 -0.00466406
N 19.07486074 15.75089560 15.17291056 0.00579865 0.00375050 -0.00700741
N 21.86076732 10.55710945 16.70572796 -0.00139017 0.01047657 -0.00755452
N 20.73070978 17.85713092 12.17260745 -0.00402548 0.00146196 -0.00402735
N 18.82828855 15.06140266 19.56610083 0.00104419 0.00469754 0.00586330
N 19.84347684 13.62597162 24.07878894 0.01171025 -0.00512848 0.00040534
N 20.13949407 18.64763833 26.38191793 -0.00160117 0.00318052 0.00112714
N 21.88853759 10.36515478 21.49751810 -0.00131387 -0.00095548 -0.00318061
N 19.79525349 13.00853992 19.87962965 0.00048111 -0.00044435 -0.00360951
N 18.72345998 15.62612344 24.44454136 0.00116228 0.00356465 0.00199185
N 21.91349302 11.12655915 26.07834382 -0.00809500 0.00277241 0.00133017
N 20.90745196 18.10277961 21.40597457 -0.00456383 0.00688433 0.00289168
N 18.57019399 24.61361381 1.27118614 0.00242709 0.00640738 -0.00176763
N 20.12259192 23.30750407 5.91034938 -0.00096628 -0.00131584 0.00394093
N 20.35139697 28.29927282 8.14963496 -0.00121185 -0.00052446 0.00578516
N 21.71550301 19.87719067 3.26988643 -0.00395654 -0.00386537 0.00620003
N 19.95197504 22.75608441 1.40847611 0.00265101 0.00168376 0.00114873
N 18.71200355 25.26774316 6.05712881 0.00119472 0.00536097 0.00775856