1728
Time=95999.99999999 pbc="T T T" Lattice="21.97471696 0.00000000 0.00000000 0.00000000 29.01217297 0.00000000 0.00000000 0.00000000 27.42858536" energy=-10389.89123094 virial="10.88385557 10.49395590 -14.14767952 10.49395590 30.98872436 24.02555250 -14.14767952 24.02555250 29.50213175" stress="0.00300341 0.00053578 -0.00065703 0.00053578 0.00440737 0.00134916 -0.00065703 0.00134916 0.00447882" Properties=species:S:1:pos:R:3:vel:R:3
N 0.40974035 5.50659782 1.37066653 -0.00216447 0.00585104 0.00062839
N 1.49237442 4.26055780 5.44740759 -0.00172774 -0.00157833 0.00843501
N 2.16583893 9.26073312 7.54316712 0.00203221 0.00406930 -0.00015492
N 3.45748913 0.50462108 3.85006086 -0.00308278 -0.00204307 -0.00691822
N 1.56867305 3.52542082 1.66719079 0.00504893 -0.00692394 0.00573812
N 0.30222362 6.07675708 6.20116930 0.00909229 -0.00334982 0.00720124
N 3.24931941 1.16748418 7.79437517 -0.00276792 -0.00106542 0.00548124
N 2.29760814 8.36631834 2.81418162 0.00120133 0.00168365 0.00139806
N 0.30580563 5.68895972 10.13022547 0.00023816 0.00282517 -0.00017726
N 1.80437054 4.33477616 14.90375061 -0.00002283 -0.00256921 -0.01120122
N 1.74512747 8.84685084 17.18470224 0.00330912 -0.00150974 0.00695277
N 3.41621874 0.79386247 12.58359437 0.00238297 -0.00656395 0.00767921
N 1.34638616 3.64706825 10.71719274 -0.00969136 0.00124030 -0.00479856
N 0.41404750 6.05249081 15.23523394 0.00571506 0.00024995 -0.00138029
N 3.18568597 1.41064735 16.60429679 0.00681743 -0.00399462 -0.00144559
N 1.69613900 8.46821593 11.78477760 0.00195944 -0.00140173 -0.00068659
N 0.21483310 5.47980334 19.47720847 0.00420246 -0.00445225 0.00098249
N 1.80786674 4.16478741 24.22694469 0.00015919 0.00035025 0.00333515
N 2.00537662 9.22100878 26.22524388 0.00154311 0.00447741 0.00172038
N 3.43937154 0.94856721 22.03577572 0.00223804 -0.00598417 -0.00163061
N 1.35443243 3.49438915 19.78800134 -0.00344845 0.00046204 0.00024358
N 0.54026295 6.12246563 24.34499049 -0.00169514 0.00553735 -0.00414495
N 3.62629692 1.08413524 26.18721336 -0.00267650 0.00113690 0.00309683
N 1.82920842 8.50185323 21.31632553 -0.00554994 0.00433819 -0.00170692
N 0.06820430 15.48902575 1.01679664 -0.00596133 -0.00192719 0.00849941
N 1.71731265 13.80429315 5.36512314 0.00607453 0.00375594 0.01258916
N 2.52560060 18.16440622 7.96354773 -0.00283202 -0.00711373 -0.00479589
N 3.77025840 10.15113871 2.74190116 -0.00349525 0.00081691 0.00614266
N 1.52609660 13.70650244 1.62059833 -0.00138852 0.00312713 -0.00534287
N 0.53775874 15.59270548 6.06218792 0.00264694 -0.00417504 -0.00121253
N 3.49793187 11.14554273 7.38789251 -0.00445964 0.00021482 0.00034218
N 2.00450004 18.13320757 3.36643192 0.00053634 -0.00330414 0.00127783
N 0.21171289 15.29023150 9.91337287 -0.00440555 -0.00050392 0.00902053
N 1.37443271 13.93619383 14.70368704 0.00211091 -0.01086618 -0.00069581
N 1.86443283 18.66860057 16.87063295 -0.00396845 -0.00687468 0.00205698
N 3.12366443 10.23654251 12.14454339 0.00094176 -0.00244980 0.00170764
N 1.30854356 13.34491354 10.48094662 -0.00413144 0.00112430 0.00253558
N 0.05757918 15.80283748 14.89970407 -0.00920548 -0.00022942 -0.00199736
N 2.95791385 10.77657764 16.60647588 0.00381672 0.00301462 0.00810408
N 2.54691829 18.09011741 12.02633870 0.00651303 -0.00388925 0.00479222
N 0.14739437 15.24273212 19.47868626 -0.01193729 -0.00008618 -0.00500494
N 1.53775872 14.05822062 24.00578939 0.00023060 0.00455347 0.00419344
N 2.12216526 18.50967251 26.43459142 -0.00151715 -0.00161346 0.00347457
N 3.55632265 10.20658301 21.32212753 -0.00190177 0.00214456 0.00433909
N 1.26973236 13.22858399 19.78795375 0.00244607 -0.00241477 -0.00203436
N 0.36341031 15.93407771 24.47098504 0.00062426 -0.00161794 -0.00202218
N 3.17579411 11.15496823 25.90739685 0.00103374 -0.00204511 0.00588612
N 1.86138233 18.38436357 21.07732585 -0.00435086 -0.00467997 0.00531968
N 0.34111031 24.84443951 1.23281748 -0.00430403 -0.00138862 -0.00537926
N 1.91093591 23.12435382 5.80039389 -0.00072744 -0.00383754 -0.00117695
N 2.07756211 28.28252630 8.31879507 0.00644032 -0.00302196 0.00232881
N 3.33901737 20.07487474 3.63490430 0.00322421 -0.00103211 -0.00590300
N 1.09950314 22.89602418 2.19256775 0.00133945 -0.00261326 -0.00184244
N 0.73681671 25.14371652 6.04818612 0.00571235 0.00203683 -0.00201915
N 3.14476843 20.32433232 7.79692043 0.00384207 -0.00280394 0.00111152
N 2.53243718 27.45130143 3.30629917 -0.00367768 -0.00064441 -0.00474049
N 0.28613481 24.94812440 10.12898329 0.00292297 -0.00468658 0.00502864
N 1.26259011 23.63389584 14.67450559 -0.00653188 -0.00064137 -0.00227528
N 1.77556165 28.47060810 16.86042456 -0.00002842 -0.00211198 0.00016643
N 3.65718766 20.09743652 12.46146507 -0.00288316 0.00416214 -0.00305437
N 1.42641478 22.99165368 10.59931141 -0.00156148 -0.00809273 -0.00229972
N 0.35144705 25.73336447 15.03559193 0.00448906 0.00478880 0.00098922
N 3.21114303 20.64131329 16.63187255 -0.00871377 -0.00799142 -0.00038115
N 2.49636358 27.73935865 12.16076684 -0.00625599 -0.00448334 -0.00270598
N 0.23492877 25.11818699 19.52862001 -0.00069390 0.00102187 0.00470315
N 1.81051362 23.71593571 24.23025020 0.00043159 0.00277132 -0.00235666
N 2.11035064 28.27297941 26.60802725 0.00305917 -0.00014867 0.00277734
N 2.76636238 20.36509880 21.96350270 -0.00443954 0.00868351 0.00277198
N 1.10175451 22.96203292 19.62477057 0.00758495 -0.00530048 -0.00876614
N 0.49215369 25.62258251 24.48695064 0.00417366 0.00164119 0.00460515
N 3.17999626 20.54820882 26.16383115 0.00232233 -0.00122946 -0.00742584
N 2.17445237 28.13305906 21.58035256 -0.00224148 0.00308497 -0.00053094
N 4.36935362 5.32267529 1.04810086 0.00228286 0.00029531 0.00022371
N 5.36647174 4.35114069 5.84862581 0.00038351 -0.00471732 -0.00167373
N 6.32381329 9.04669835 7.61617381 -0.00228820 -0.00009285 0.00375473
N 7.31594878 0.41050436 3.65398864 -0.00164211 0.00254977 0.00445312
N 5.48504734 3.43459740 1.73693614 0.00021768 -0.00177556 -0.00049839
N 4.16686403 6.33522382 6.04108251 0.00922110 -0.00581359 0.00662699
N 7.19255223 1.15948415 7.61448752 -0.00076203 -0.00121179 -0.00036669
N 6.39830462 8.29529582 2.66448279 -0.00114280 0.00050924 0.00563920
N 3.87939055 5.64534473 10.36354475 -0.00125900 0.00322862 -0.00055271
N 5.37238627 4.29221088 14.93614151 -0.00260221 -0.00123070 -0.00394995
N 5.66885797 8.96145161 17.03622704 0.00204360 -0.00357114 0.00495899
N 7.03021407 0.62287368 12.90144086 0.00055544 0.00060373 -0.00260822
N 4.76219024 3.48778168 10.61829224 0.00394013 0.00835145 -0.00063134
N 4.03243694 6.18091644 14.92369491 0.00841287 -0.00231124 -0.00072191
N 6.66120172 1.25749550 16.79709190 0.00306865 -0.00042282 -0.00205963
N 5.71792680 8.48600375 12.04509667 -0.00099473 0.00180946 0.00093628
N 3.96689880 5.28281382 19.47936208 0.00273644 0.00161753 0.00504135
N 5.26264828 3.94120370 24.06514381 -0.00036244 -0.00444866 0.00219260
N 5.64000707 8.99542314 26.13684328 -0.00852151 -0.00121742 -0.00057484
N 6.93641206 0.86397184 22.04042363 -0.00318309 0.00264782 0.00341344
N 5.28742516 3.46094627 19.64675504 0.00372388 -0.00762361 0.00141161
N 4.13613374 5.90641741 24.40012886 -0.00154111 -0.00236316 -0.00579990
N 6.98945752 1.25597164 26.08980148 -0.00340155 0.00226878 0.00029144
N 5.85233569 8.30099542 21.38027153 -0.00435180 -0.00642543 -0.00320938
N 3.82231211 15.36765920 0.98259590 0.00008628 0.00423974 0.00197302
N 5.62804072 13.52111891 5.37049015 0.00114639 -0.00176612 0.00103619
N 5.55928219 18.43719663 8.05323227 0.00279666 0.00055938 0.00348492
N 6.89853232 10.38251472 3.42457582 -0.00618259 0.00023504 0.00163555
N 4.91569057 13.32638841 1.06008933 0.00567645 -0.00143773 -0.00249889
N 4.59111813 15.56630810 5.86228582 -0.00118520 0.00032150 0.00243055
N 7.17882666 11.11564406 7.58230208 -0.00038980 0.00733325 -0.00208655
N 5.91346223 18.10545754 3.15497508 0.00369637 0.00448747 -0.00156252
N 3.91980239 15.08460626 10.40335498 -0.00127091 -0.00237282 -0.00220635
N 4.95396650 13.91451121 15.04895363 0.00682080 -0.00130484 0.00078097
N 5.96895421 18.84473830 16.78323146 0.00513838 -0.00031995 0.00498948
N 6.71488859 10.61518364 12.35901282 -0.00047438 -0.00028821 0.00238828
N 5.23140130 13.28973650 10.79206449 -0.00080465 0.00399630 -0.00015866
N 3.58192787 15.75284101 15.21882096 -0.00010462 -0.00513105 0.00958763
N 6.68215386 10.95206204 16.66257120 -0.00075153 0.00174510 0.00255935
N 5.94977349 17.98129176 12.39514755 0.00198431 0.00163819 -0.00251401
N 3.57788280 15.34918775 19.23364094 0.00457867 0.00915327 0.00410988
N 5.56803453 14.04669703 23.70641289 0.00044675 -0.00593600 0.00173295
N 5.59819218 18.57865569 26.91675488 -0.00088175 -0.00287878 -0.00045710
N 6.63332252 10.48706287 21.52193159 0.00045640 0.00023285 -0.00372576
N 4.83708092 13.44532843 19.31238099 -0.00461834 -0.00267003 0.00025916
N 3.97278280 15.61650460 23.74331541 0.00419173 0.00260108 -0.00342471
N 6.68167225 11.02921549 25.70594144 0.00043442 -0.00257905 -0.00733114
N 5.68617073 18.19606557 21.41730559 0.00451292 -0.00955461 -0.00361743
N 3.90636671 24.94619771 0.97419612 -0.00472082 -0.00160198 -0.00317055
N 5.31314866 23.49668083 5.88582489 -0.00161081 0.00252018 -0.00429326
N 5.87759569 28.34500849 8.08708188 0.00172711 -0.00429825 -0.00015022
N 7.46055115 19.86225879 3.60248932 -0.00144435 0.00232198 0.00428357
N 4.96389341 22.89064434 1.65078010 -0.00314423 -0.00331400 0.00197167
N 4.09114758 25.37818865 5.82844713 -0.00503297 0.00321707 0.00314391
N 6.88593756 20.36437394 7.71959567 0.00312214 -0.00181038 0.00025014
N 5.92363361 27.62133197 3.36582630 -0.00283993 0.00597569 -0.00137761
N 3.55856400 24.61347952 10.43784767 -0.00172100 0.00620014 -0.00462328
N 5.09321280 23.62408450 14.95574271 -0.00090113 0.00221569 0.00281485
N 5.63395361 28.27206181 17.23533135 -0.00050137 -0.00183425 -0.01185600
N 7.16229231 19.99726500 12.38033122 -0.00059865 -0.00204376 -0.00470230
N 5.03301274 22.82093593 10.55008093 0.00087381 -0.00218986 -0.00078059
N 3.74870226 25.52583474 15.19045067 -0.00271250 0.00211141 -0.00019523
N 6.94706595 20.93847167 16.68778931 0.00567561 0.00189286 0.00385759
N 5.75416773 27.88275057 12.23510904 0.00213410 0.00638792 -0.00062006
N 3.96396846 25.19906350 19.50254116 -0.00650902 -0.00142080 -0.00882388
N 4.87315005 23.37105995 24.07750582 0.00265303 -0.00610499 -0.00354003
N 6.10987445 28.18925445 26.53520655 -0.00649937 0.00180970 0.00261081
N 7.00573428 20.13110349 21.63938782 -0.00084445 0.00053063 0.00047983
N 4.85321661 23.16930904 19.83358193 -0.00408802 -0.00570946 -0.00477975
N 3.97518026 25.50957155 24.20935339 0.00937180 0.00438959 -0.00014660
N 6.97881524 20.17933403 25.85997296 -0.00621893 -0.00437130 -0.00313692
N 5.96649173 27.86214083 21.67184724 -0.00058662 0.00464229 -0.00482161
N 7.68798928 5.41245291 1.14221184 -0.00704467 -0.00377640 0.00002655
N 9.04115936 3.94923129 5.88057627 -0.00530020 0.00168408 0.00470172
N 9.67079316 9.08340658 7.91149452 0.00946877 -0.00546436 -0.00630497
N 11.15349950 0.48337575 3.23325382 0.00271559 -0.00528620 0.00183216
N 8.97179187 3.43777993 1.46084144 -0.00408501 0.00094388 0.00243933
N 7.73312693 6.00112998 6.03228974 0.00321303 0.00201125 -0.00270384
N 10.38967639 1.20576658 7.56057394 -0.00446048 -0.00208848 -0.00486409
N 9.80251436 7.86602123 3.46042035 0.00079018 0.00056812 -0.00654003
N 7.55722712 5.49644930 10.27083753 0.00089979 0.00252927 -0.00411252
N 8.61413255 4.34578951 14.71253090 0.00283241 -0.00131977 -0.00181344
N 9.34610766 9.13236891 17.11252053 -0.00455382 0.00378220 -0.00135306
N 10.74302890 0.72995980 12.51249522 0.00322636 0.00280862 0.00336543
N 8.70766082 3.54405476 10.54119327 0.00310030 -0.00747830 0.00586489
N 7.46456822 6.42116330 14.93572932 -0.00280293 -0.00850631 -0.00416857
N 10.32758128 1.41989029 16.94989798 -0.00092782 -0.00114660 0.00572046
N 9.24776037 8.60392589 11.91355538 -0.00306229 -0.00258128 -0.00202065
N 7.52803348 5.33744396 19.40106146 0.00766441 -0.00034748 -0.00016960
N 8.97789715 4.10790229 24.01626819 0.00173638 0.00185173 0.00192094
N 9.29444419 8.70097113 26.57250313 -0.00087968 -0.00027847 0.00193930
N 10.88404592 0.86200867 21.66132361 -0.00107755 0.00093924 -0.00403069
N 8.82812618 3.38873362 19.72102289 -0.00288265 0.00068732 0.00581416
N 7.57838900 6.02637720 24.25023837 0.00078466 -0.00323097 -0.00249252
N 10.79377769 1.03126491 25.94154729 0.00129178 -0.00107249 0.00101550
N 9.72351689 8.72758051 21.26249448 -0.00403165 -0.00468521 -0.00085744
N 7.77817563 15.09827283 1.44489856 0.00504956 0.00519036 0.00663540
N 9.30513342 13.93744207 5.99835161 0.00094160 -0.00412149 0.00558353
N 9.16732923 18.72917376 7.81581061 0.00449686 0.00438474 0.00228648
N 10.79663013 9.96932992 3.45663414 0.00246702 0.00411966 -0.00825280
N 8.75541924 13.01520136 1.42960787 0.00192073 0.00160996 -0.00205194
N 7.89853973 15.81346133 6.15642179 -0.00112060 0.00335787 -0.00731738
N 10.83518516 10.96480640 7.80275074 0.00540982 0.00361958 -0.00287791
N 9.83498800 17.87087271 3.27906785 0.00020958 0.00167370 0.00799492
N 7.65795369 15.17925921 10.57869018 0.00564160 0.00683827 -0.00612897
N 8.84932324 13.75990984 14.92145738 -0.00012521 -0.00374873 -0.00454618
N 9.00542715 19.07552852 16.66926738 0.00150464 -0.00038194 -0.00184388
N 10.50672627 10.42838084 12.46020281 -0.00119814 -0.00075445 0.00271764
N 8.91839075 13.34652436 10.74711822 0.01009636 0.00114960 -0.00386979
N 7.57291675 15.67714196 15.02765944 -0.00159750 -0.00061610 -0.00772733
N 10.62863284 10.93126536 16.79399130 0.00093315 0.00183722 -0.00128024
N 9.74831936 18.00375197 12.37256313 0.00479735 0.00497868 -0.00216894
N 7.59229005 15.42884823 19.03142914 -0.00355024 0.00315670 0.00634366
N 8.85735921 13.46764288 24.01208765 0.00440806 -0.00575393 -0.00149921
N 9.48682948 18.55849068 26.40578167 0.00248618 -0.00029609 0.00223893
N 10.84299116 10.63933083 21.92468851 -0.00579363 -0.00038244 -0.00192343
N 8.52889507 13.37376021 19.84665381 0.00470938 0.00624143 0.00072252
N 8.01623605 15.59330137 24.51383630 -0.00186519 -0.00449373 -0.00349686
N 10.52151161 10.49218801 25.92259066 -0.00314325 -0.00959540 0.00506547
N 9.62221144 18.15243110 21.30262974 -0.00234666 -0.00243277 -0.00771407
N 7.35446895 24.73036581 1.17387372 0.00066381 0.00290391 -0.00682990
N 9.04535608 23.51504027 5.99333738 0.00208893 0.00435089 0.00493266
N 9.35039949 28.15911489 8.14106723 0.00239310 0.00984492 -0.00454542
N 10.44634312 20.13060836 3.63517265 -0.00181690 0.00179040 0.00252624
N 8.49100939 22.73391115 1.43555480 -0.00073795 -0.00768957 0.00117322
N 7.57712485 25.22735338 6.27621741 0.00041464 0.01050102 0.00463894
N 10.63128622 20.57408681 7.58991201 -0.00008960 -0.00015538 -0.00230929
N 9.55620123 27.76994395 3.11561161 -0.00380528 -0.00278939 -0.00192674
N 7.39681104 24.73217622 10.37332310 -0.00059667 -0.00117633 0.00466380
N 8.78217422 23.62275769 14.97554741 -0.00179572 0.00196855 -0.00032158
N 9.20630499 28.49745091 17.04220151 -0.00416419 -0.00188163 -0.00530420
N 11.04473285 19.93636881 12.37236108 -0.00419528 0.00429003 0.00054090
N 9.04777399 23.12689943 10.76563742 -0.00615423 0.00021210 -0.00203620
N 7.67095029 25.57079477 15.23627979 0.00459516 0.00228713 -0.00297710
N 10.43196176 20.83010097 16.89786408 -0.00488456 -0.00242293 -0.00470119
N 9.55994858 27.79393173 12.42838174 -0.00665584 0.00076249 -0.00233341
N 7.43785139 25.02066300 19.37528933 0.00817671 0.00541451 0.00576428
N 9.01940231 23.51368839 24.10725597 0.00489906 -0.00036549 0.00299841
N 9.50383216 28.10505899 26.10843719 -0.00561901 0.00277035 0.00277231
N 10.84001928 19.94596157 21.79742368 -0.00100896 0.00362987 0.00035207
N 8.76260592 23.14324727 19.62825198 0.00347053 -0.00643520 -0.00158658
N 7.77673306 25.51852849 24.25730323 0.00223562 0.00427307 0.00166603
N 10.45542857 20.68839926 26.18348221 0.00272023 -0.00481711 -0.00176801
N 10.01318445 27.75203679 21.27082593 0.00611427 -0.00012630 -0.00109010
N 11.39235993 5.20374577 0.96130952 -0.00409304 -0.00550642 -0.00107870
N 12.52563684 3.94822886 5.46925235 -0.00411225 0.00055193 0.00278448
N 13.19684573 8.95943227 7.90722582 -0.00124431 0.00089497 -0.00557936
N 14.99642810 0.48999828 3.40846765 -0.00042888 0.00320007 0.00502223
N 12.69669107 3.35073482 1.04525958 0.00574151 0.00087851 -0.00945745
N 11.44346747 5.88856064 6.12013629 -0.00027230 -0.00298617 0.00244127
N 14.06102709 1.30031952 7.34256191 0.00796435 0.00003303 0.00303914
N 13.23987345 8.01164051 2.91114483 -0.00351710 -0.00296766 -0.00188937
N 11.34175922 5.74796769 10.32879900 -0.00445450 0.00660390 0.00052648
N 12.43050905 4.31262179 15.12352956 -0.00003717 0.00375241 -0.00177598
N 13.18089519 8.73038354 17.31738693 -0.00656212 0.00921307 0.00222065
N 14.04283516 0.86566018 12.67676099 0.00593011 0.00179281 -0.00363126
N 12.15315018 3.59272257 10.47488289 0.00018467 -0.00713050 0.00115815
N 11.09429170 6.21311692 15.12233395 0.00413363 0.00354775 0.00618048
N 14.13747652 1.35850286 16.83876142 -0.00185057 0.00047897 -0.00437703
N 12.98698136 8.55829503 12.17786864 0.00217301 -0.00437243 -0.00249945
N 11.24649389 5.49783769 19.58683023 0.00362905 -0.00350845 0.00267188
N 12.39719890 3.89422007 23.59436304 0.00102910 0.00442230 0.00031410
N 12.99773726 8.85805600 26.18678669 0.00038421 -0.00044653 -0.00267248
N 14.36518329 0.77435407 21.39661965 -0.00077530 -0.00027436 0.00313343
N 12.69294926 3.73309547 19.59247832 0.00121974 -0.00510219 0.00489001
N 11.34170424 5.95854587 23.87899321 0.00253107 0.00580563 -0.00343383
N 14.30805038 1.22468613 25.78818112 -0.00440522 -0.00105303 -0.00122000
N 13.19595570 8.59003698 21.38462157 0.00365005 0.00477352 -0.00163670
N 11.23025919 14.84877030 1.25991660 0.00187655 -0.00127391 0.00301304
N 12.18933915 13.69445447 5.58441595 0.00021884 -0.00497186 0.00028312
N 13.03909942 18.75059267 8.04620691 -0.00010782 -0.00378978 0.00203223
N 14.27549955 10.01767540 3.16390618 0.00070824 0.00337485 0.00297491
N 12.67864022 12.99249917 1.43589281 0.00440334 0.00122303 -0.00396318
N 11.42950476 15.82739750 6.16229722 -0.00075869 -0.00062109 0.00981306
N 14.45161534 10.91213505 7.61496973 0.00109207 0.00205243 -0.00152870
N 13.27563644 17.96263149 2.90748360 -0.00592266 0.00603534 -0.00272157
N 11.24221882 15.25945859 10.18544940 -0.00179917 0.00063584 -0.00405398
N 12.65353225 13.85239035 15.09257921 0.00260673 -0.00102916 0.00361893
N 13.05092310 18.61104032 17.17088425 0.00405048 0.00190506 -0.00639076
N 14.30123800 10.45125492 12.23851063 0.01301209 -0.00739367 -0.00025401
N 12.65060395 13.43268490 10.66465259 -0.00236646 0.00329581 0.00179101
N 11.60886228 15.95809353 15.31254510 -0.00340359 0.00174570 -0.00225016
N 14.17271256 10.78216144 16.71308282 -0.00342807 0.00400417 -0.00673588
N 13.36438025 18.12333956 12.38637989 -0.00501049 0.00023429 -0.00094291
N 10.96713036 14.91212608 19.67576873 0.00361832 0.00502906 -0.00402312
N 12.68084137 13.81434943 24.13808532 -0.00545513 0.00095984 -0.00235542
N 12.81234188 18.90121099 26.29183058 -0.00028558 -0.00071739 0.00342255
N 14.55054595 10.42695813 21.60758197 0.00107949 -0.00629129 -0.00343488
N 12.75771192 13.44479516 19.84264850 -0.00586190 0.00061620 0.00622581
N 11.43834873 15.84906859 24.35020264 -0.00174076 -0.00387731 -0.00207450
N 14.06326109 10.89407945 25.92291725 0.00570718 0.00434652 0.00283958
N 13.47814848 18.07389216 21.29194108 -0.00065856 -0.00597951 0.00411904
N 11.21691849 24.62585522 1.16021170 0.00595163 0.00545166 -0.00144763
N 12.51096241 23.47014698 6.03018116 -0.00067524 0.00123881 0.00114829
N 12.89282421 28.37169817 7.68966444 0.00302211 -0.00332778 0.00039794
N 14.52658508 19.82588457 3.45968417 -0.00472536 0.00281658 -0.00302324
N 12.58734936 22.79759432 1.81917822 0.00018387 -0.00249011 0.00766469
N 11.40065759 25.45862957 6.18233280 -0.00055609 0.00139197 -0.00098514
N 14.29527774 20.60470108 7.71551477 0.00233057 -0.00075085 -0.00846085
N 13.47676237 27.77742366 3.03954837 0.00290606 -0.00129397 -0.00215918
N 11.43796615 25.02737330 10.49895460 -0.00034605 -0.00279060 0.00173430
N 12.27345309 23.30844768 15.00920717 -0.00459467 -0.00048600 -0.00642030
N 13.01789136 28.35356243 17.30938632 0.00340317 0.00223153 0.00446389
N 14.35918909 20.17011013 12.68058584 0.00984336 0.00282168 0.00443885
N 12.34449627 22.96471472 10.76253622 0.00137345 -0.01340625 -0.00135175
N 11.22611445 25.34036892 15.28147121 -0.00127694 -0.00028660 -0.00028145
N 14.07194616 20.66531842 16.98352592 0.00257833 0.00194978 -0.00331602
N 13.33656849 27.67522219 12.36752494 -0.00444536 0.00212591 0.00514840
N 11.29981195 24.89755956 19.57312080 -0.00260924 0.00129740 -0.00190153
N 12.25305971 23.41606709 23.97808616 -0.00395368 -0.00364994 -0.00027485
N 13.58693209 28.11084877 26.17515213 0.00424298 0.00746600 0.00110785
N 14.61223749 20.12447509 21.70839278 -0.00330465 0.00240496 -0.00386557
N 12.36846160 22.84031194 19.85471794 -0.00198315 0.00209379 -0.00373421
N 11.37232871 25.48665756 24.16818870 -0.00145496 -0.00266538 -0.00341486
N 14.23253745 20.78507121 25.98001927 0.00290450 -0.00022875 -0.00355428
N 13.11732117 27.86656468 21.45398562 0.00115155 0.00248322 -0.00181451
N 14.92487762 5.26561806 1.27643350 -0.00643484 -0.00159456 0.00193055
N 16.09414070 4.12395001 5.53399758 -0.00013419 0.00057008 0.00248498
N 16.97105537 9.09520591 7.74908496 -0.00084354 0.00583670 -0.00133060
N 18.41537021 0.59543707 3.43384210 0.00311382 0.00305068 0.00108900
N 16.66314103 3.65516286 1.38257269 0.00537825 0.00556138 0.00259979
N 14.88192408 6.01817032 5.94836737 0.00617557 -0.00401097 0.00101779
N 17.84402587 1.19732336 7.77636015 -0.00148522 0.00258465 0.00811250
N 16.98959381 8.25168512 3.02038513 -0.00442879 -0.00806913 0.00315950
N 14.76633360 5.45307535 10.22393213 0.00373486 0.00020295 0.00194508
N 16.12323506 4.37607016 14.86695027 0.00538299 0.00276505 -0.00399203
N 16.71994878 8.96295553 16.78486764 -0.00676910 -0.00695545 -0.00042614
N 18.06812058 0.97398708 12.28047954 0.00218071 0.00385982 -0.00578205
N 15.90230235 3.47832465 10.56545497 0.00372303 0.00099861 0.00286918
N 14.65877594 6.17328951 15.16218122 -0.00683888 -0.00297067 -0.00593390
N 17.79500558 1.21242826 16.34295049 -0.00816468 -0.00707183 -0.00206875
N 16.54986069 8.50056398 12.40724244 -0.00331738 0.00028424 -0.00259760
N 15.00088910 5.63318842 19.51559049 -0.00091556 -0.00496503 -0.00471857
N 16.29123842 4.34660041 23.89115569 -0.00013375 0.00299387 0.00198032
N 16.97490632 9.02181757 26.26572858 -0.00197416 -0.00315178 -0.00913801
N 18.01692873 0.64849641 21.52246564 0.00379201 0.00192811 0.00247608
N 16.42809900 3.77543588 19.68343830 -0.00512511 -0.00110092 0.00278362
N 14.97020729 6.22925465 24.06440518 0.00163675 -0.00123849 0.01052043
N 18.00776464 1.13533391 25.99351658 -0.00515636 0.00323767 0.00004639
N 16.82207262 8.37084374 21.23927119 0.00179464 0.00016107 0.00079187
N 14.68996711 14.88238878 0.95039589 0.00622566 0.00328314 -0.00058466
N 16.59941507 14.09450055 5.98222552 -0.00750842 0.00815825 -0.00044774
N 16.65317603 18.76652219 8.24937967 -0.00411915 -0.00135420 -0.00146265
N 18.24125770 10.21033155 3.17073715 0.00065251 0.00395450 -0.00202542
N 15.98465513 13.01703251 1.49805012 0.00451481 0.00488348 0.00508827
N 15.00112096 15.70710608 5.86663809 -0.00624849 -0.00193555 -0.00369869
N 18.30277784 10.98278775 7.56908401 -0.00084360 0.00631660 0.00696362
N 16.92638602 18.00025988 3.12883134 0.00743895 0.00420933 -0.00300809
N 14.75328204 15.24434016 10.40441661 0.00090396 0.00114578 0.00106624
N 16.11028544 13.75002300 14.65901702 0.00338509 -0.00171363 0.00234603
N 16.54346859 18.40774450 17.24485545 0.00041319 -0.00005943 0.01123552
N 17.95441712 10.37405140 12.39650095 0.00070107 -0.00450902 0.00122919
N 16.31091010 13.44998930 10.51844681 -0.00548699 0.00417256 0.00212172
N 15.17552141 15.71973048 15.38184960 0.00145994 0.00155944 -0.00315855
N 17.94783912 10.86715801 16.62082326 -0.00481010 -0.00208382 -0.00291886
N 16.85147088 18.01235094 12.65308180 -0.00227988 -0.00284145 0.00319744
N 15.21050337 15.28783573 19.18555649 -0.00542842 -0.00381056 0.00259405
N 15.95640639 13.83122882 23.85351117 0.00155412 -0.00160323 0.00530945
N 16.69378862 18.60318679 26.44114730 0.00775978 -0.00228846 0.00281904
N 17.89475971 10.44620741 21.62566096 0.00147946 -0.00347014 0.00268912
N 16.09697138 13.08300612 19.52153207 0.00244096 -0.00363119 -0.00095270
N 15.24249322 15.97794521 24.22592772 -0.00549399 0.00477203 -0.00098673
N 17.66212123 11.11798907 25.90431797 0.00029979 0.00653552 0.00813188
N 16.75865226 18.01897804 21.49072215 -0.00399143 -0.00097149 0.00302734
N 14.82228896 24.64002565 1.14946210 -0.00232039 0.00273763 0.00874009
N 16.11157368 23.38607267 5.73184752 -0.00860205 -0.00246465 0.00104938
N 16.78000357 28.20560505 8.01821564 -0.00256500 0.00440684 0.00450311
N 18.12058878 19.82520769 3.72642057 -0.00217182 0.00010183 0.00817004
N 16.19691479 22.86545429 1.54666825 -0.00243108 -0.00271446 0.00259411
N 14.88313365 25.30448317 6.13260361 0.00742765 -0.00061520 -0.00783928
N 17.81506380 20.74062345 7.84207551 0.00357454 -0.00104887 -0.00114555
N 17.35517624 27.55886239 3.24073334 -0.00368107 0.00113844 -0.00518609
N 14.81095449 24.65515066 10.26368220 -0.00084209 0.00741325 -0.00001034
N 16.19070307 23.62793838 14.84313797 -0.00038420 -0.00164919 0.00317764
N 16.96893560 28.17725295 17.12594612 -0.00201736 -0.00494379 0.00071175
N 18.06304969 20.05537722 12.58330518 -0.00407672 0.00396178 0.00394529
N 16.53710209 23.18705503 10.74893342 0.00058109 0.00595241 0.00383830
N 14.67976423 25.36398818 15.09101340 0.00096272 -0.00076680 -0.00338710
N 17.39473001 20.41340813 16.63518240 0.00674644 0.00471449 -0.00728186
N 17.35333909 27.83743743 11.76680078 0.00071582 0.00083520 0.00009968
N 14.95590023 24.72829109 19.34214667 -0.00684806 0.00002374 0.00093598
N 16.44047390 23.27763772 23.93849032 -0.00192780 -0.00082864 0.00539577
N 16.83060954 28.25518195 26.16733249 -0.00173121 0.00159731 0.00108602
N 17.81571684 20.00483249 21.97827251 -0.00461261 0.00291421 -0.00394556
N 16.28181424 22.82548080 19.65371143 0.00401407 0.00171607 0.00888108
N 15.22305444 25.26293999 24.36296957 0.00276532 0.00128737 0.00536565
N 17.78822893 20.58809981 25.97180456 -0.00027452 -0.00407175 -0.00196663
N 16.76583288 27.64316768 21.45173419 0.00419737 0.00273608 0.00461564
N 18.92163280 5.49242499 1.36627083 0.00188908 -0.00085680 0.00088445
N 19.99516180 4.15489513 6.00477149 -0.01170324 0.00050239 -0.00129329
N 20.63104804 9.08414071 8.01243330 0.01470482 0.00221630 -0.00709462
N 0.03562463 0.31167904 3.21764665 0.00661017 -0.00207653 0.00156509
N 20.29803993 3.60204868 1.74195045 -0.00514967 0.00097435 0.00316157
N 18.50582787 6.10361081 5.78974178 -0.00343228 0.00338132 0.00988838
N 21.74722864 1.28139116 7.69293503 -0.00162836 0.00519531 0.00265131
N 20.66163927 8.41985752 3.11201328 -0.00666253 -0.00176287 0.00132178
N 18.16788104 5.58308878 10.37680626 -0.00306091 -0.00963290 -0.00084864
N 20.02524139 4.14466369 14.73884020 0.00488674 0.00030868 -0.00271841
N 20.16280241 8.98897746 17.10706092 -0.00330806 0.00248519 -0.00476025
N 21.92566881 0.78690918 12.95627819 0.00934454 0.00345572 0.00218202
N 19.82752184 3.90217620 10.44108792 0.00391158 -0.00063326 0.00022714
N 18.66002139 5.89860762 15.45913692 0.00277656 0.00505165 -0.00460838
N 21.54459648 1.26964312 16.53462648 0.00591680 0.00275143 0.00537074
N 20.41882657 8.24685519 12.25134664 0.00438941 0.00662682 0.00340235
N 18.56853130 5.42332104 19.56300106 -0.00035494 -0.00375472 -0.00195424
N 19.81150781 4.04308108 24.19958106 -0.00641797 0.00137881 0.00625512
N 20.29172851 9.24526146 26.30672824 0.00123409 -0.00156441 0.00546202
N 21.57920408 0.85922313 21.75778781 0.00093607 0.00117660 -0.00599005
N 19.75871319 3.52199757 19.74584429 -0.00810138 -0.00539380 -0.00348892
N 18.83301656 6.19967193 24.38465630 -0.00220305 0.00366321 -0.00218961
N 21.89694678 1.17678930 25.94147313 -0.00934030 0.00110755 0.00247092
N 20.49008300 8.12730280 21.50549408 0.00627827 -0.00578638 0.00287011
N 18.48773344 14.93949628 1.44653632 -0.00052079 -0.00293567 -0.00677903
N 20.13768785 14.00661421 5.67449080 -0.00121014 0.00278109 0.00416256
N 20.07290884 18.60377110 8.59695981 -0.00384588 0.00347987 -0.00980157
N 0.11984347 10.12393764 3.47331481 -0.00324651 -0.00480695 -0.00122954
N 19.83842513 13.14049719 1.62984262 -0.00337043 0.00295438 0.00325798
N 18.91407165 15.90564326 6.21399454 0.00241565 -0.00366292 0.00022961
N 21.58729529 11.11055515 7.70640632 -0.00409550 -0.00406688 -0.00673918
N 20.60079922 18.09343646 3.52435930 -0.00049679 0.00531268 0.00327287
N 18.76193003 15.15441761 10.69654491 -0.00414309 -0.00292562 -0.00641038
N 19.71657901 13.75852145 15.29431296 -0.00020068 -0.00418921 0.00384401
N 20.56074434 18.74590261 17.16165431 0.00169544 -0.00339426 -0.00577673
N 21.42281463 10.29483550 12.56306110 0.00650781 0.00380690 0.00329370
N 19.97610338 13.18994141 10.67825063 -0.00288098 0.00106873 0.00171992
N 18.40727935 15.68751059 15.41025851 0.00049733 0.00139331 0.00273796
N 21.43458679 10.90100753 17.02354128 -0.00847595 -0.00397293 0.00253077
N 20.79263070 18.19940570 12.19728469 0.00055952 0.00089062 0.01251459
N 18.48349517 15.21306424 19.56905909 -0.00287550 -0.00249665 -0.00058846
N 19.58607786 13.89839148 23.92197448 0.00345558 -0.00491346 -0.00449103
N 20.36413287 18.67461425 26.68433745 -0.00058509 -0.00051030 0.00572927
N 21.35062155 10.25137834 21.82114420 -0.00538410 -0.00361028 0.00162418
N 19.61696568 13.23975069 20.01629726 -0.00078078 0.00280150 -0.00376871
N 18.21188446 15.74975208 24.52598887 -0.00024326 0.00502530 0.00541966
N 21.44491331 11.19323919 25.86549769 -0.00172199 -0.00016766 -0.01097273
N 20.48803272 17.92271250 21.55472838 -0.00577099 0.00453797 -0.00263147
N 18.60340363 24.55658578 0.96992045 0.00140560 -0.00068486 -0.00143558
N 20.29160699 23.34604701 5.52615485 -0.00522122 -0.00910871 -0.00621369
N 20.30197598 28.51340990 7.89103032 -0.00364573 0.00074252 0.00241785
N 21.77917891 20.03912643 4.13723994 0.00042236 0.00006092 -0.00709508
N 19.57202965 22.63596740 1.62283974 -0.00057801 0.00093926 0.00091391
N 19.02688988 25.35320443 5.62730284 -0.00177288 0.00032536 0.00236799