1728
Time=68000.00000006 pbc="T T T" Lattice="22.06439182 0.00000000 0.00000000 0.00000000 28.77267795 0.00000000 0.00000000 0.00000000 27.41128969" energy=-10388.16707563 virial="11.03324201 1.14271570 -10.33544192 1.14271570 12.95513901 16.44523894 -10.33544192 16.44523894 62.79561980" stress="0.00303364 0.00001981 -0.00059193 0.00001981 0.00316907 0.00093024 -0.00059193 0.00093024 0.00653970" Properties=species:S:1:pos:R:3:vel:R:3
N 0.05668639 5.40328961 0.99209392 0.00253724 0.00040552 0.00169165
N 1.83502302 4.52526340 5.81100308 0.00427754 0.00479741 0.00642993
N 2.55954469 9.25848076 7.92989077 -0.00232933 -0.00179653 0.01052966
N 3.32495004 0.52870803 3.44678031 -0.00251110 -0.00061086 -0.00565254
N 1.49692131 3.60744667 1.24696227 -0.00694728 -0.00633400 -0.00351371
N 0.26354610 6.15450556 6.13448446 -0.00635552 -0.00305721 0.00019619
N 3.32292350 1.39722096 7.60373645 -0.00656992 -0.00027819 -0.00355185
N 2.35462596 8.52080780 3.02539294 0.00570766 0.00368066 -0.00518168
N 0.28235127 5.32766591 10.42001477 0.00610553 0.00341368 -0.00041329
N 1.51731060 4.09094964 15.20151872 0.00878777 0.00221733 -0.00086035
N 2.21089637 8.81197230 17.39697707 0.00336126 0.00333965 0.00386982
N 3.49279142 0.67775313 12.48470504 0.00339618 0.00764497 0.00538313
N 1.83354644 3.58703580 10.85231512 -0.00513701 0.00525256 0.00290384
N 0.27926867 6.05926795 15.38563211 0.00042650 0.00423012 -0.00295723
N 3.40249230 1.52386626 16.95821912 0.00192562 -0.00041669 0.00562924
N 1.95430420 8.39664670 12.32027985 0.00025527 0.00039425 -0.00125037
N 0.15439488 5.54282805 19.60656125 -0.00820097 0.00144306 -0.00486472
N 1.63309137 4.07584319 24.09436890 -0.01005381 0.00009691 0.00476513
N 2.56132081 8.85629908 26.02394195 0.00259864 0.00283466 0.00222430
N 3.36942425 0.46887982 21.57207509 0.00078386 -0.00300265 0.00378014
N 1.33674158 3.57205252 20.02166765 -0.00169617 0.00266779 -0.00614342
N 0.62678613 6.09965655 24.24225361 0.00139111 0.00009502 -0.00045186
N 3.20684762 1.07778128 25.83469476 0.00557667 -0.00088905 -0.00051200
N 2.28581116 8.46605678 21.37010885 -0.00878526 0.00427692 -0.00263263
N 21.78670295 15.03978594 1.36149094 0.00918891 -0.00030782 -0.00193664
N 1.35056087 13.48176175 6.05296744 -0.00032353 -0.00190215 -0.00185874
N 2.07876576 18.55847576 8.11524726 0.00243135 0.00225441 -0.00032900
N 3.50842753 10.42394932 3.31261845 -0.00406502 -0.00113303 -0.00000807
N 1.43894560 13.44298693 1.36107857 0.00289908 -0.00125666 -0.00244853
N 0.47320513 15.56325990 6.57878077 -0.00407435 -0.00311652 0.00451599
N 3.68948906 11.30680698 7.69365004 0.00254927 -0.00949917 0.00081010
N 2.08384092 17.91723146 3.26941083 -0.00463545 0.00391570 -0.00099616
N 0.16704567 15.28078661 10.23201036 0.01267607 -0.00303711 0.00303025
N 1.21208521 13.57016092 15.02155004 0.00186704 -0.00301936 -0.00298812
N 2.09994712 18.45083680 16.95945824 -0.00588451 -0.00181497 0.00488901
N 3.27311180 10.38409749 12.32540190 0.00077210 -0.01083789 -0.00153180
N 1.31599672 13.28818453 10.79138960 0.00196679 0.00270410 -0.00115974
N 0.35771142 15.71149113 15.09354302 0.00601936 0.00495167 -0.00093857
N 3.65679258 10.52551263 16.76364084 0.00323777 0.00095926 0.00576598
N 2.11643817 17.82812848 12.45686840 -0.00182423 0.00893266 -0.00067033
N 0.29918065 15.11568248 19.62823769 0.00270803 0.00544265 0.00359605
N 1.54081943 13.56286581 24.17033968 -0.00393459 -0.00713377 -0.00852906
N 1.58651973 18.50824591 26.15368097 0.00017119 -0.00089490 -0.00239907
N 3.53838951 10.32416619 21.69649287 0.00297774 -0.00048630 -0.00019019
N 1.67127952 13.21244523 19.82861737 0.00699988 -0.00147645 0.00866749
N 0.19679345 15.42255806 24.43610945 -0.00241308 0.00675115 0.00188168
N 3.42067582 10.95994837 25.73925266 -0.00414457 0.00109290 -0.00326876
N 2.43877702 17.89266719 21.55188854 0.00631392 -0.00705251 0.00236007
N 0.33129297 24.67796298 1.26146231 0.00344211 -0.00367167 0.00295600
N 1.59567720 23.78242944 5.76874342 -0.00495757 0.00225013 -0.00062152
N 2.43819734 28.06772842 8.01231219 0.00590007 0.00137886 0.00734341
N 2.90270767 20.02677709 3.58519661 0.00163812 0.00261802 -0.00502633
N 1.39387241 22.70382095 1.75941482 -0.00124339 0.00517664 0.00128097
N 0.02399683 25.42373718 6.13687175 0.00440792 0.00314404 0.00221108
N 3.48554027 20.46074170 7.63572684 0.00364682 -0.00104325 -0.00059794
N 2.13341355 27.37358353 3.28978899 0.00278999 0.00472166 -0.00629484
N 0.05490189 24.49734116 10.33304294 -0.00251178 -0.00511623 0.00089401
N 1.76092627 23.34621108 14.95917628 0.00085108 -0.00257207 0.00047317
N 1.90480342 28.44286448 16.88072999 0.00239086 -0.00054413 0.00326388
N 3.47674801 19.65558736 12.47127337 -0.00380914 0.00433055 0.00234653
N 1.59515774 22.79072102 10.56467464 0.00219634 -0.00173368 -0.00202479
N 0.58481902 25.18429105 15.47147337 0.00507457 0.00586747 -0.00126896
N 3.44521260 20.31899479 16.74690308 0.00200287 0.00026128 -0.00196940
N 2.06977828 27.67948051 11.94482753 0.00305211 0.00144872 -0.00482458
N 0.45971949 24.70833678 19.49735421 -0.00184840 0.00230470 0.00549558
N 1.86966194 23.08032022 23.97521263 0.00848920 0.00497478 -0.00301838
N 1.74185212 28.11849917 26.26197652 -0.00529653 0.00679351 0.00276806
N 3.86495198 19.69442664 22.09138184 0.00474024 0.00365903 -0.00060072
N 1.51422401 22.71002636 19.64275294 -0.00225766 0.00139909 -0.00701256
N 0.29314596 24.86844790 24.11300411 -0.00090099 0.00291446 -0.00008394
N 3.00231444 20.36969136 26.01534202 0.00118300 0.00500639 -0.00858506
N 2.02637134 27.36171793 21.31675757 -0.00244449 -0.00093819 0.00049864
N 3.81351673 5.34004622 1.13824985 0.00152429 -0.00133267 0.00204835
N 5.26416487 4.17635600 5.80802447 0.00840086 0.00531042 -0.00322377
N 5.99424602 8.69870880 7.80981752 -0.00311679 0.00079344 -0.00003602
N 7.07426367 0.63311795 2.84870336 -0.00086301 -0.00038054 0.00038941
N 5.11709316 3.41082526 1.28685058 -0.00402485 -0.00482650 -0.00182021
N 4.04814234 6.12376126 5.81401552 -0.00528325 -0.00090547 -0.00730333
N 7.03928589 1.50618052 7.50882149 -0.00208569 -0.01140824 -0.00562603
N 6.28258527 7.95665802 2.94580058 -0.00275687 0.00453756 0.00736841
N 3.98142162 5.68554723 10.32820056 -0.00110867 -0.00322350 0.00649516
N 5.46208911 4.19770886 14.88969987 0.00395796 -0.00160033 0.00317910
N 5.87990748 8.55703545 16.54196359 0.00531249 0.00423435 -0.00323900
N 6.90754610 0.43116957 12.49768726 -0.00463419 0.00312590 0.00120410
N 5.39152199 3.83180097 10.67559089 -0.00652218 0.00576829 -0.00493145
N 3.99246905 5.91777923 15.01526093 0.00877001 -0.00114077 -0.00234730
N 7.15028591 1.07521549 16.76497372 0.00712874 -0.00271663 0.00308472
N 5.78194209 8.27584211 12.34115753 -0.00216409 -0.00220237 0.00452529
N 3.78095853 5.33465296 19.65029216 0.00191468 0.00127651 -0.00205979
N 5.32456216 3.95111266 23.84702929 -0.00001004 -0.00179161 0.00331796
N 6.16709570 8.77462926 26.43959932 0.00610082 0.00120089 0.00587237
N 7.14665709 0.44345655 21.40463374 0.00373193 -0.00229449 0.00582615
N 4.85184170 3.33233586 19.77489067 0.00167961 0.00550429 0.00174473
N 4.01695561 5.70930289 24.47629165 -0.00352399 0.00205028 -0.00383333
N 7.18904671 1.23066935 25.54077349 0.00767597 0.00021531 0.00319606
N 6.08132144 8.09065550 21.25765985 -0.00299983 0.00156592 -0.00048615
N 3.64638984 15.18845080 0.95077083 0.00764572 -0.00486917 0.00395585
N 4.90989954 13.69279983 5.56216255 0.00157678 -0.00360540 -0.00070327
N 6.21347000 18.43342314 7.96556655 0.00575851 -0.00291893 -0.00178348
N 6.70295832 10.24144149 3.44412125 0.00193579 0.00082330 0.00097994
N 4.87498666 13.33527449 1.28860666 0.00163305 -0.00392211 0.00500297
N 3.95699395 15.68794168 6.16297679 0.00177954 0.00145964 0.00334275
N 6.97571926 10.78566861 7.22558309 -0.00937096 -0.00350764 -0.00490443
N 5.77418534 17.88803517 2.93688531 -0.00255774 -0.00900790 0.00288777
N 3.70009833 15.08763849 10.37054909 -0.00344484 0.00184711 0.00358267
N 5.19872466 13.41114650 14.73201387 -0.00632984 -0.00150045 -0.00130046
N 5.76723188 18.42976296 16.84611401 -0.00006888 0.00293569 -0.00291509
N 7.32632043 9.97057029 11.98246344 -0.00003086 0.00526883 0.00191190
N 5.12622868 13.24969536 10.68928875 0.00199751 0.00024829 -0.00297150
N 4.23999049 15.47953025 15.06467177 -0.00163804 -0.00244528 0.00129711
N 6.94760305 10.53581273 16.38654482 0.00265959 -0.00067137 -0.01251158
N 5.97439074 17.98208866 12.00188216 0.00247271 0.00239212 -0.00539215
N 4.15569559 14.98099395 19.24751147 -0.00227842 -0.00381106 -0.00319351
N 5.38778895 13.63496731 23.75842812 -0.00152179 -0.00053270 -0.01127756
N 5.44603467 18.71693024 25.81415195 0.00071045 0.00105782 -0.00241206
N 7.12065564 10.08178744 21.69072201 -0.00167797 0.00521647 -0.00453599
N 5.13929993 12.87801698 19.50769426 -0.00230927 0.00306170 0.00305302
N 4.11452410 15.45361163 24.33170579 0.00357517 -0.00460959 -0.00352242
N 7.30162195 10.70709287 25.79275923 0.00133532 0.00246648 -0.00074861
N 5.90357391 17.70822767 21.11351625 -0.00020731 -0.00672305 -0.00998465
N 3.92501218 24.35675705 1.04609248 -0.00759323 -0.00303728 -0.00299658
N 5.39800037 23.38414344 5.22304780 0.00119064 -0.00711843 -0.00216411
N 5.75988076 28.24967759 7.53112599 0.00361775 0.00125374 0.00349416
N 7.06760124 19.82208678 3.02227282 0.00132258 -0.00197312 0.00213850
N 5.17779944 22.39265991 1.19743432 0.00028729 0.00204701 -0.00708861
N 4.60221863 25.47245872 5.98760277 -0.00339715 -0.00069659 -0.00072986
N 7.00134071 20.61514369 7.37242448 -0.00047591 0.00003067 -0.00275023
N 5.94249671 27.43288066 3.01242372 -0.00387311 -0.00004854 0.00427083
N 3.90169522 24.68698899 9.29833780 0.00087091 0.00077741 0.00304900
N 5.31821776 23.25418289 14.58496539 -0.00529844 0.00168080 -0.00551515
N 5.89460088 28.07222541 17.31196251 -0.00470016 -0.00283384 -0.00314405
N 7.09026101 19.98203977 12.26334280 -0.00483552 0.00041711 0.00313202
N 5.32250648 23.06448507 10.25405097 -0.00296448 0.00411801 0.00109422
N 4.05549622 25.17238098 15.03889314 -0.00460686 0.00236595 0.00150157
N 6.86925244 20.37256583 16.25563915 0.00734115 -0.00621021 0.00465081
N 5.74016827 27.29196225 12.05927908 0.00433905 -0.00275467 0.00030512
N 4.22461324 24.93356430 19.25173172 0.00221015 -0.00333291 0.00195945
N 5.12429342 23.45864922 23.95649553 -0.00071179 0.00212890 0.00005672
N 6.17987669 27.94887272 25.94577139 0.00136155 -0.00212293 0.00025025
N 7.17402229 19.64977037 21.25572617 0.00027679 0.00215298 0.00186929
N 5.09544972 22.83815374 19.56701585 -0.00845206 0.00370164 0.00575935
N 4.02834715 25.38458958 24.49079509 -0.00047360 -0.00649306 0.00263335
N 6.85423420 20.47073939 25.75580264 0.00091127 -0.00137068 -0.00026585
N 5.79019218 27.37248629 21.37730655 -0.00264974 0.00173376 0.00226739
N 7.55752045 5.65658605 0.47192951 -0.00280526 -0.00827475 -0.00362755
N 8.70429911 4.19267793 5.19452641 -0.00313833 -0.00107631 -0.00353991
N 9.54898601 8.87591725 8.16545207 0.00217191 0.00389470 -0.00174168
N 10.85075646 0.65037375 3.22471489 0.00066552 -0.00822944 0.00111442
N 8.47506556 3.63519035 1.01356291 -0.00367942 -0.00870642 -0.00293270
N 7.85740275 6.21495354 6.15457565 0.00141934 0.00667651 -0.00411755
N 10.56596489 1.45045433 7.37666665 -0.00283128 -0.00101961 -0.00324498
N 9.56046550 8.66035210 3.05978970 -0.00053948 0.00349842 -0.00676762
N 7.70520117 5.64432060 10.29751741 0.00049172 0.00290658 -0.00680027
N 8.81452113 4.04834533 14.54544787 -0.00484242 0.00309814 -0.00022744
N 9.62761917 8.78027353 17.38547022 0.00035800 0.00351167 -0.00156932
N 10.72638487 0.46597732 12.22605416 -0.00771394 0.00091768 -0.00173995
N 8.75734395 3.57513637 10.43540918 0.00309973 -0.00118301 0.00094095
N 7.97262533 6.06274554 15.23533844 0.00208665 0.00484276 -0.00010337
N 10.50782275 1.35864348 16.45909409 0.00257335 0.00316062 0.00510392
N 9.79895837 8.10134107 12.41688104 0.00106916 -0.00290085 -0.00021127
N 7.25535510 5.18087127 19.41773329 -0.00360675 0.00278926 0.00367015
N 9.17013697 4.02850043 23.80111449 -0.00001125 -0.00072164 -0.00302607
N 9.58132554 8.82123368 26.60027782 -0.00062442 -0.00028007 -0.00031630
N 11.03082712 0.58988855 21.36835707 0.00467216 0.00254257 0.00084211
N 8.65560927 3.40067345 19.58857988 -0.00268943 -0.00159673 0.00011884
N 7.77454672 5.86295406 24.05115923 0.00595576 0.00312591 0.00239569
N 10.62172421 1.06325798 25.64672632 0.00027406 0.00258323 0.00338819
N 9.89160110 8.60343130 21.26691204 0.00111318 0.00170549 0.00204951
N 7.50239435 14.92800453 0.95784599 0.00368683 -0.00377468 0.00044440
N 9.04763909 13.74519244 5.85506905 -0.00545217 -0.00141716 0.00756398
N 9.31209848 18.47429268 8.01363912 0.00510869 0.00444489 0.00187773
N 10.65604920 10.64340980 3.44236034 -0.00270317 0.00421139 0.00425683
N 8.56666419 12.88173655 1.19823406 -0.00565725 -0.00013468 -0.00231191
N 7.57575219 15.50151491 5.91161411 0.00034108 -0.00224616 -0.00289842
N 10.61059030 10.82803956 7.99269359 -0.00244395 0.00175119 0.00518683
N 9.42860283 17.77542098 2.94777731 0.00050645 0.00099319 0.00296843
N 7.65494605 15.00116533 10.30851382 -0.00261130 -0.00533344 -0.00149607
N 9.43340406 13.85222015 14.79364761 -0.00279563 -0.00429931 0.01066798
N 9.35622220 18.33156237 17.08779528 -0.00179464 0.00245055 -0.00411626
N 10.90189161 10.12047699 12.81324773 0.00437156 0.00148886 -0.00189402
N 8.85155993 13.06711692 9.84176475 -0.00399649 -0.00326865 -0.00935098
N 7.97979535 15.77580805 14.96745525 -0.00441012 0.00525557 0.00301156
N 10.38103228 10.93213711 17.11249226 -0.00300203 0.00477055 0.00457327
N 9.40540437 18.04702757 12.22204393 -0.00816361 -0.00181756 -0.00011405
N 7.45353610 14.85513812 18.82734989 -0.00588932 -0.00464127 0.00347184
N 8.79826673 13.46782143 23.57595481 0.00232400 0.00335742 -0.00070018
N 8.76946122 18.24149098 26.22657135 0.00442723 0.00864803 -0.00109542
N 10.88950368 10.59699955 21.71563648 -0.00036134 -0.00519710 -0.00172202
N 8.81818982 13.10871767 19.54519365 -0.00417916 0.00941407 -0.00085369
N 7.64176479 15.49412215 23.73285376 0.00355903 0.00959253 -0.00380784
N 10.64987745 10.71162235 25.97388705 -0.00316003 0.00217001 -0.00241059
N 9.75639307 17.73871974 21.33017378 0.00355443 0.00410248 0.00384663
N 7.75933860 25.09849126 0.60693560 -0.00238509 0.00575917 0.00071938
N 9.07383542 23.15619179 5.33067764 0.00243419 0.00322627 0.00210322
N 9.41476500 28.22863386 7.51834543 -0.00484995 -0.00405618 0.00517719
N 10.72252518 19.55094848 3.53205705 -0.00708816 -0.00641309 0.00150889
N 8.36655218 22.99302076 1.42005548 -0.00370754 0.00113499 0.00323667
N 8.00895199 25.15467332 5.92796316 0.00023588 0.01062035 -0.00714365
N 10.33499713 20.55128573 7.72153950 -0.00039264 -0.00025430 0.00280906
N 9.48209297 27.48372407 2.99338408 0.00055886 0.00482935 -0.00448071
N 7.67645163 25.10247753 9.75908159 0.00060041 0.00220077 0.00806986
N 9.00653009 23.35799184 14.85032983 0.00587859 0.00061559 0.00183100
N 9.55438650 28.09567088 16.95492434 0.00830531 -0.00227574 0.00017595
N 10.79817481 19.84556528 12.85569181 0.00019296 -0.00154281 -0.00544502
N 8.58876398 23.24999749 10.81604117 -0.00561591 0.00115121 -0.00382996
N 7.67185104 25.25869485 15.35940144 0.00758324 0.00029690 -0.00344655
N 10.55924367 20.25537700 16.85357935 0.00577820 0.00402690 -0.00123928
N 9.47644316 27.40727466 11.79900558 -0.00086591 -0.00083381 -0.00314566
N 7.85965541 24.55020045 19.66925818 0.00120039 0.00639873 0.00375050
N 9.31608395 22.93626164 24.07293733 -0.00199473 0.00111343 -0.00767319
N 9.25259057 28.03365089 25.99350749 -0.00015977 -0.00336712 0.00346629
N 10.67126193 19.60833627 21.91865592 -0.00003937 0.00214605 -0.01320744
N 8.80578931 22.46328238 19.53831150 0.00091143 -0.00345609 0.00302441
N 8.17027955 24.92958834 24.29902992 -0.00578453 -0.00188670 0.00012951
N 10.38404111 19.81426640 26.01041197 0.00384796 0.00358424 -0.00285179
N 9.65275851 27.54486408 21.18327631 -0.00156551 0.00518146 0.00379648
N 10.99501420 5.30259034 1.15121391 -0.00154545 -0.00876460 -0.00267025
N 12.51814424 4.15011061 5.57380307 -0.00236280 0.00332320 -0.00082777
N 13.50775229 8.62318930 8.01715068 0.00090043 0.00814952 -0.00068764
N 14.50312693 0.68244140 3.24322333 0.00253235 -0.00420696 0.00277946
N 11.94640246 3.18933759 1.35245465 0.00155729 -0.00051133 0.00403363
N 11.43196005 6.14386489 6.02341576 -0.00001612 -0.00241053 0.00745533
N 14.41274643 1.35680939 7.64477960 -0.00030650 0.00456474 -0.00052707
N 13.21069951 8.60391488 3.15969313 0.00396496 0.00190197 0.00150311
N 11.29839777 5.37912761 10.02023830 0.00140393 0.00039139 0.00069856
N 12.50391023 4.15616055 14.24321003 -0.00650546 0.00535700 -0.00313766
N 13.24668390 8.98656096 17.07236350 0.00296629 -0.00171437 0.00109421
N 14.32796028 0.61908710 12.35865003 -0.00528175 0.00397171 0.00167938
N 12.83005470 3.66873283 10.54907499 0.00878945 -0.00090843 0.00058519
N 11.21145081 5.81938830 15.15419436 0.00071014 0.00395801 -0.00270752
N 14.27417573 1.26769498 16.61776912 -0.00058844 -0.00326554 -0.00051415
N 13.35227694 8.56026257 12.28776929 0.00184216 -0.00063314 0.00687751
N 11.42843696 5.61628022 19.35120542 0.00548131 -0.00419637 -0.00007157
N 12.63312601 4.18743661 23.82647531 0.00398370 0.00431859 -0.00268883
N 13.14769243 9.06343184 26.30162631 0.00081164 -0.00139282 -0.00454565
N 14.63789745 0.59178182 21.21795747 -0.00336070 0.00345095 -0.00632860
N 12.25546990 3.46679061 19.45844488 0.00067480 -0.00096133 -0.00546780
N 11.47486339 6.16940591 24.24873996 0.00723471 0.00707137 -0.00164996
N 14.50613743 1.30305920 25.62894295 -0.00055806 -0.00586368 -0.00345490
N 13.24715315 8.65321867 21.22732834 0.00374308 -0.00643817 0.00054019
N 11.04233658 14.79359503 1.14290009 -0.00120241 -0.00295263 -0.00515803
N 12.79802621 13.71651958 6.12997253 -0.00615323 0.00283850 -0.00527124
N 13.34681576 18.41798767 8.01803077 0.00402055 0.00755112 0.00156452
N 14.56099762 10.34035851 3.65693422 -0.00560962 0.00167761 -0.01427308
N 12.44429050 12.97899284 1.41237097 -0.00192827 -0.00228217 -0.00580926
N 11.27006123 15.48772997 6.16680439 0.00183015 0.00441939 -0.00058751
N 14.57280994 10.73788283 8.09358514 0.00167507 -0.00550920 0.00590918
N 13.09613509 18.01282316 3.25732557 -0.00116214 -0.00361936 -0.00136158
N 11.33502430 15.15201939 10.52379318 -0.00003368 0.00495927 -0.00363473
N 12.78881784 14.01331620 14.84758609 0.00611832 -0.00021887 -0.00615660
N 13.11823626 18.42773718 17.12685221 -0.00441746 -0.00274071 -0.00125639
N 14.46191638 10.57658075 12.55489122 0.00628122 -0.00952407 -0.00835032
N 12.38625376 13.12127369 11.03802231 -0.00357997 -0.00406464 0.00103666
N 11.49149228 15.91084559 15.28984415 0.00565594 0.00109024 0.00731511
N 14.31061424 11.00353260 16.85872997 -0.00267592 -0.00271340 0.00531833
N 13.30067627 17.96875229 12.44355593 0.00488619 0.00241992 -0.00300442
N 10.85375691 15.16931392 18.98135286 -0.00017597 -0.00221444 -0.00436062
N 12.72026650 13.47698472 23.94945725 0.00100994 -0.00204820 -0.00781393
N 12.67349720 18.02464280 26.38752591 -0.00240931 -0.00011792 0.00536715
N 14.77198757 10.39166174 21.82696609 0.00363278 -0.00885853 -0.00441751
N 12.34803888 13.60344228 19.66881358 -0.00411265 0.00157742 0.00093589
N 11.36193505 15.31593819 24.24811151 -0.00224377 0.00854985 -0.00153882
N 14.33991411 11.02792600 26.07892241 -0.00002167 -0.00957652 0.00415442
N 13.35378917 18.07061933 21.53382026 0.00684379 0.00403847 -0.00455472
N 10.76117846 24.49663954 0.95512578 -0.00245875 -0.00089117 0.00872847
N 12.72622648 23.18374971 5.47088209 -0.00248819 0.00162164 0.00266946
N 12.90503431 28.26884935 7.88763038 -0.00608925 0.00153155 0.00365284
N 14.06126844 20.07882301 3.49484470 0.00040843 0.00106147 0.00251013
N 11.75265989 22.47332299 1.44156985 -0.00516206 -0.00328748 -0.00239976
N 11.67705630 25.31328499 5.85545428 0.00172194 0.00122256 0.00790119
N 14.43612585 20.38533313 7.77600470 0.00721848 -0.00129198 -0.00258555
N 13.27237332 27.51757071 2.85709917 -0.00221805 0.00263620 0.00032783
N 11.17136140 24.55053071 10.06088989 -0.00124462 -0.00038178 -0.00233416
N 12.53330069 23.27628074 14.75085877 -0.00299397 0.00008113 -0.00881053
N 13.32444650 27.96343213 16.93818947 -0.00099808 0.00279628 -0.00522261
N 14.52843662 19.94901283 12.70680687 0.00590509 0.00464572 -0.00674368
N 12.10953486 22.45949676 10.49870359 0.00582630 -0.00650910 -0.00865967
N 11.41582147 25.30987851 14.78272046 -0.00421405 0.00161823 -0.00779360
N 13.97030609 20.51374517 16.76614109 0.00380419 0.00439428 0.00551199
N 13.13224331 27.48685361 12.16178622 0.00274237 0.00312400 0.00221643
N 11.28084027 24.51663836 19.16729573 0.00491401 -0.00002767 0.00553033
N 12.79618429 23.18308241 24.05133330 0.00233596 -0.00255742 0.00996749
N 13.03315098 28.26098133 25.86409912 -0.00097794 0.00257994 0.00386383
N 14.78017951 19.91167374 22.07993988 0.00469785 0.00116123 0.01789354
N 12.52368745 22.75552236 19.79870481 0.00012654 0.00513726 0.00421552
N 11.62054588 25.12183249 24.22874874 -0.00644857 0.00288909 0.00479965
N 14.01319708 19.87336404 26.30110714 -0.00151331 -0.00867203 -0.00082113
N 13.35188376 27.47283077 21.03290944 -0.00266447 -0.00982420 -0.00191252
N 14.57443633 5.75018023 1.18532889 -0.00130822 -0.00053943 -0.00719403
N 16.45283971 4.42600319 5.72542147 0.00344217 0.00085568 0.00456955
N 16.84752393 8.92015903 7.83926244 0.00367171 -0.00516396 -0.00150867
N 18.28572038 0.63604146 3.53101794 -0.00612431 0.00009624 -0.00379090
N 15.68999169 3.68895272 1.16624227 -0.00051923 0.00306877 -0.00137294
N 14.88449395 5.99797180 6.10724800 -0.00080423 0.00559627 0.00644798
N 18.08663063 1.41449498 7.71551731 -0.00185430 0.00238513 -0.00096197
N 17.07078529 8.45595647 3.27048575 0.00131395 -0.01060981 0.00652401
N 15.05681476 5.80191274 10.40010853 -0.00327307 0.00593174 0.00347848
N 16.16172293 4.33970658 14.93050256 0.00084819 0.00140108 0.00215044
N 16.67193548 9.00903246 17.23413475 -0.00126093 -0.00388841 -0.00427112
N 18.29600175 0.60215229 12.79761331 -0.00442077 0.00474012 0.00805052
N 16.25216647 3.72754901 10.61730435 0.00028994 0.00019174 0.00073921
N 15.17397885 6.40964456 15.07710119 -0.00593688 0.00396924 0.00640385
N 18.10265831 1.40482750 16.83193725 -0.00433129 -0.00505854 -0.00295915
N 16.75623385 8.40469982 12.26390636 -0.00363916 -0.00405190 -0.00448759
N 15.13896672 5.63046314 19.21151399 -0.00224504 -0.00450318 -0.00250392
N 16.33908577 4.25217943 24.13600626 -0.00595417 0.00754742 -0.00584804
N 16.73757753 8.71890655 26.49653470 0.00053651 0.00114235 0.00096283
N 17.53463062 0.81858257 21.80012624 -0.00598373 -0.00084143 0.00279611
N 16.09009745 3.63372654 19.54583320 -0.00805462 -0.00593386 0.00471122
N 15.09269820 6.24675957 24.06908744 -0.00405720 -0.00244323 0.00134465
N 17.76359130 1.10980096 26.40916016 -0.00141084 -0.00040160 -0.00440392
N 17.08646659 8.50534449 21.39318072 -0.00192060 0.00615574 0.00162232
N 15.11403015 15.18462265 1.34615078 -0.00379206 -0.00335589 0.00579212
N 16.24758515 13.38970062 5.65854042 -0.00672151 0.00321937 -0.00006975
N 17.04019725 18.35615254 8.08797550 0.00127989 -0.00519201 0.00134547
N 18.43436454 10.37313387 3.60160965 -0.00163164 -0.00085707 -0.00146061
N 16.14430174 13.15774424 1.50325891 -0.00248185 0.00405069 -0.00591717
N 15.10148871 15.36609952 6.10429059 0.00040271 0.00204134 -0.00491863
N 18.16111300 10.76205740 7.43076709 0.00398800 0.00281174 -0.00521214
N 16.90861003 18.03577711 3.07241709 0.00059910 -0.00095140 -0.00052449
N 15.01475320 14.83712714 10.62425034 0.00064927 0.00077181 0.00212889
N 16.49096653 13.88590513 15.02959933 -0.00163914 -0.00427245 -0.00073333
N 17.18030191 18.80707655 17.16678558 -0.00328841 -0.00004550 0.00150068
N 17.80651731 10.40283699 12.67916600 -0.00062754 0.00557312 -0.00243208
N 16.33323897 12.87822522 10.71237052 -0.00333497 -0.00372026 -0.00331151
N 15.29759206 15.83371809 15.30020385 -0.00395352 -0.00329513 0.00495330
N 18.26522321 10.68677595 16.84973933 -0.00289349 0.00875703 0.00065752
N 17.11870326 18.21053061 12.23595520 0.00560762 0.00166712 -0.00288907
N 14.81304721 15.33585651 19.05793764 -0.00023837 -0.00436221 -0.00197157
N 16.01906809 13.73195838 24.13243640 -0.00201171 0.00260599 -0.00699044
N 16.55451230 18.82919668 26.60977975 -0.00357011 0.00222399 0.00355906
N 18.09694401 10.47872192 21.83198628 -0.00336044 -0.00112431 -0.00760569
N 16.03001654 13.42377635 19.65496167 0.00063016 0.00635562 0.00238340
N 14.97312416 15.73337570 24.59301700 0.00071142 0.00035448 -0.00354320
N 18.01203806 10.62980523 26.22937969 -0.00589337 0.00218729 0.00590589
N 17.21647033 18.05237377 21.42368587 -0.00101303 -0.00351833 -0.00066877
N 15.11851363 24.70416713 1.23356309 -0.00465519 0.00328074 -0.00510672
N 16.06767952 23.43524800 6.02354995 0.00611874 -0.00188971 -0.00407351
N 17.00452906 28.13092357 8.16098955 0.00279193 -0.00287783 -0.00027373
N 18.14708491 19.68811230 3.73614259 0.00333368 0.00633680 0.00195628
N 15.84772723 22.51174571 1.71132440 -0.00317287 0.00155339 0.00660122
N 14.91122900 25.45756622 6.13834598 -0.00357241 -0.00309661 -0.00184298
N 17.61298695 20.54134483 7.62780213 -0.00604714 0.00361084 0.00348301
N 16.77074597 27.64871270 3.43177366 0.00037422 -0.00128677 0.00238370
N 14.60434822 24.22781458 10.70185649 0.00084278 0.00317349 0.00756144
N 16.52672811 23.45225110 15.24057741 0.00084607 0.00142891 0.00360766
N 16.76701163 28.28940423 17.17844544 0.00444142 0.00355529 -0.00243882
N 18.17183630 20.18139174 12.77185231 -0.00200662 0.00062322 0.00561897
N 16.18394594 22.57484787 10.43089952 0.00153564 0.00376814 0.00850057
N 15.01201114 25.10985035 15.70550925 -0.00186437 -0.00577833 -0.00373522
N 18.47285821 20.70048049 16.99317030 0.00169757 -0.00380165 0.00091361
N 16.89900194 27.50469220 12.88319086 0.00698793 -0.00332718 -0.00433613
N 14.94193857 24.21344104 19.74036586 0.00317473 -0.00099534 0.00437240
N 16.28087942 23.23163924 24.50709190 0.00141289 0.00063065 -0.00032728
N 16.46235844 28.08571899 27.09458377 -0.00433950 -0.00138193 0.00106808
N 18.30387991 19.94278248 22.06163166 0.00455611 -0.00016653 0.00840838
N 16.46742876 22.46990042 20.11086729 -0.00440004 -0.00342762 -0.00054944
N 15.19060264 25.23009956 24.55222412 -0.00201619 0.00331582 -0.00018233
N 18.13129314 20.50624391 26.10838448 0.00118189 0.00127734 0.00030207
N 16.95771910 27.39317113 21.45016932 -0.00154485 0.00132845 0.00020432
N 18.26665572 5.45841243 1.33716044 -0.00178753 0.00745974 -0.00247481
N 20.10891887 4.01661653 5.52658463 0.00032449 -0.00659247 0.00077055
N 20.61342108 8.88713390 8.14967934 -0.00226483 0.00346664 0.00155070
N 21.96343795 0.82486077 3.25729625 -0.00419394 0.00240749 -0.00495698
N 19.46033444 3.56809664 1.78282452 -0.00133679 -0.00723659 0.00105753
N 18.73779854 5.81132603 6.05950555 0.00431918 0.00434418 -0.00008289
N 22.05861005 1.29855664 7.77065330 0.00030361 0.00003939 0.00403365
N 20.85022639 8.49469936 3.19933927 0.00351508 -0.00450475 -0.00020210
N 19.01202437 5.71478941 10.31114684 -0.00103538 -0.00689759 0.00067538
N 20.17328618 4.21623981 15.28390780 0.00100171 -0.00299325 -0.00025793
N 20.48694983 8.77779966 17.40360647 0.00144988 0.00134077 0.00873506
N 21.79674296 0.80215855 12.69446020 -0.00438332 -0.00021394 -0.00822435
N 20.15173530 3.54577412 10.38525448 -0.00372210 -0.00097841 0.00546429
N 18.59750436 6.00796739 15.31071980 -0.00286075 -0.00302338 -0.00187048
N 21.56604968 1.30699804 17.33244068 0.00415134 -0.00017784 0.00969488
N 20.93942995 8.13827401 12.18976740 0.00304208 0.00164121 0.00008739
N 18.49644862 5.52835854 19.70915547 -0.00010072 -0.00162530 0.00039100
N 19.59882446 4.07553164 24.25727445 0.00515673 -0.00854818 0.00239479
N 20.65767745 8.87425001 26.44310871 -0.00065828 -0.00294574 0.00048467
N 21.60971164 0.57392731 21.88470153 0.00041061 -0.00025940 0.00049713
N 19.78967950 3.57007848 19.98472646 0.00240143 -0.00097492 -0.00250554
N 18.89435161 6.28974510 24.64393054 0.00681881 0.00408997 -0.00143565
N 21.43241581 1.26110092 26.05241486 0.00824244 0.00190662 -0.00228112
N 20.39743920 8.35200447 21.55626963 -0.00342606 0.00398469 -0.00283141
N 18.68498955 15.11428020 1.23429742 -0.00429622 -0.00441285 -0.00493766
N 20.40660598 13.76173709 5.61877694 0.00156631 -0.00454083 -0.00245886
N 20.19050986 18.74266966 8.16115590 0.00204452 -0.00462553 -0.00014344
N 21.72739956 10.55705744 3.53890987 -0.00077466 0.00192869 -0.00419216
N 19.69070213 13.09875079 1.64658118 -0.00111122 -0.00243687 -0.00032128
N 19.07343366 15.52761316 6.10416181 0.00386269 0.00558563 -0.00003607
N 21.96638424 10.77440968 7.87978088 0.00112804 -0.00439870 -0.00682755
N 20.50655708 17.90552085 3.42690120 0.00100271 0.00461055 0.00273823
N 18.97681921 15.29614877 10.54279076 0.00018950 0.00507211 0.01240297
N 19.58071650 13.91330719 15.37073399 0.00199131 -0.00262953 -0.00190794
N 20.80230427 18.80225864 17.24668228 -0.00298652 -0.00309985 0.00021088
N 21.58757070 10.24524474 12.68552266 -0.00208921 -0.00114713 0.00312489
N 19.52904275 13.05101586 10.51830117 0.00013049 0.00079290 0.00696515
N 18.81416399 16.12630352 15.36619774 0.01028034 0.00233527 -0.00006904
N 21.51213281 10.74423632 16.90591397 -0.00489014 0.00626222 0.00406401
N 20.55108754 18.20144014 12.32248582 0.00294312 0.00038604 -0.00217877
N 18.95991990 15.08646442 19.52439347 0.00684760 0.00287961 0.00684324
N 19.73261416 13.63909862 24.12380894 -0.00479780 -0.00409434 -0.00003480
N 20.64783161 18.58436348 26.59980853 0.00561238 -0.00198301 -0.00336196
N 21.60768722 10.29816289 21.77811094 -0.00736123 0.00152101 0.00099912
N 19.99866405 13.06335010 19.99425230 0.00056219 0.00734366 0.00894260
N 18.67900502 15.68574988 24.59180059 -0.00032501 -0.00349473 0.00587081
N 21.80869448 10.82294487 25.94980590 0.00174190 -0.00225920 0.00094285
N 21.15578831 17.94075148 21.50699209 0.00167988 -0.00402848 0.00278681
N 18.53505166 24.61419079 1.14718698 -0.00720778 -0.00179548 -0.00163055
N 19.87498838 23.38092464 5.54630429 0.00576173 -0.00018093 -0.00528208
N 20.44234292 28.56023383 8.27181850 -0.00476997 -0.00540662 -0.00026708
N 21.73540629 19.83677955 3.65137565 0.00039033 0.00251264 -0.00556716
N 19.97239207 22.88050428 1.77450196 0.00500317 -0.00341336 -0.00002394
N 18.78251681 25.42076695 6.12670113 0.00611689 0.00344646 0.00072726