1728
Time=16000.00000000 pbc="T T T" Lattice="22.06408479 0.00000000 0.00000000 0.00000000 28.94171417 0.00000000 0.00000000 0.00000000 27.35875950" energy=-10388.25577354 virial="-7.91198419 -25.62554484 -15.48142312 -25.62554484 -3.27498711 20.94590263 -15.48142312 20.94590263 55.03172039" stress="0.00180006 -0.00143698 -0.00086650 -0.00143698 0.00222289 0.00128783 -0.00086650 0.00128783 0.00600979" Properties=species:S:1:pos:R:3:vel:R:3
N 0.28309803 5.57459326 1.13142042 0.00355914 0.00050852 -0.00571295
N 1.75316946 4.23933105 5.86374516 0.00006898 0.00244566 0.00147002
N 1.93736141 9.15199759 8.00400690 0.00807370 0.00437635 0.00124353
N 3.32394475 0.76523766 3.98900528 -0.00064093 0.00733863 -0.00533144
N 1.52635045 3.66441378 1.50732527 0.00204216 -0.00795278 -0.00317203
N 0.48387905 6.11705839 6.09431619 -0.00116290 -0.00159261 -0.00103577
N 2.96833517 1.15136044 7.58589140 -0.00162567 0.00306251 -0.00376198
N 2.23708238 8.25431424 2.93513878 0.00237270 0.00051199 -0.00499846
N 0.07496778 5.55634035 10.51100748 0.00707791 -0.00305468 -0.00616622
N 1.64059702 3.88741790 14.30860267 0.00810252 -0.00348154 -0.00859674
N 1.86892964 8.98453997 16.97279529 -0.00425153 0.00478945 -0.00766983
N 2.92294387 0.69130356 12.51048773 -0.00176534 0.00145082 0.00404758
N 1.14418255 3.51692695 10.24277890 -0.00171254 -0.00139126 -0.00468192
N 0.69833393 5.77988000 15.27759632 -0.00215710 -0.00047831 0.00272544
N 3.19640744 1.51884316 16.64385509 -0.00498267 0.00583291 0.00394651
N 2.47868799 8.12195782 12.13684496 -0.00219962 0.00299033 -0.00100725
N 0.00154026 5.40540077 19.33577035 0.00098217 0.00039619 -0.00597589
N 1.45567263 4.10057738 23.98093013 -0.00697537 0.00273397 -0.00103869
N 2.09908847 8.89761103 26.22633126 0.00498633 -0.00327985 -0.00125904
N 3.34934231 0.80950397 21.47968200 -0.00407797 -0.00563277 -0.00506483
N 1.52077224 3.66269878 19.67002191 0.00234169 -0.00108325 -0.00466585
N 0.52939147 6.23654012 24.13866188 -0.00018679 0.00307280 0.00246651
N 2.95061457 1.71352383 26.28378186 0.00016419 0.00077808 0.00024404
N 2.11915406 8.16665657 21.22085982 -0.00841294 0.00147118 0.00622299
N 22.00768510 14.93309040 1.38789698 -0.00455733 -0.00213466 0.00176802
N 1.34171923 13.54880968 5.78736790 0.00968731 0.00480755 -0.00118773
N 1.81813094 18.64434627 7.75061059 -0.00424313 0.00544007 0.00647237
N 3.63185460 10.17454842 3.34949634 0.00763108 0.00341443 -0.00273428
N 1.29900581 13.05784855 1.68682049 -0.00430549 -0.00389912 -0.00065933
N 0.68689341 15.68979069 6.40362483 0.00113398 0.00064184 -0.00556541
N 3.22787410 11.16596212 7.84806194 0.00294425 -0.00385861 0.00559198
N 2.05656370 18.22139144 2.84937755 -0.00665668 -0.00185003 -0.00377094
N 0.43294953 15.22438826 10.21651505 -0.00215706 -0.00204963 0.00031716
N 1.24651456 13.78301594 14.89430200 0.00233721 -0.00620078 -0.00112558
N 2.11687944 18.63471358 17.10387181 0.00461715 0.00089579 0.00096065
N 3.07293916 10.25674605 12.80673592 0.00293483 -0.00115654 0.00163406
N 1.75201029 13.29978382 10.59688182 0.00094011 -0.00477076 0.00275979
N 0.42707823 15.93883967 15.19103595 -0.00454316 0.00977305 -0.00388109
N 3.13227537 10.84263479 16.68713347 -0.00189408 -0.00504358 0.00245747
N 2.08252852 18.24164222 12.19738648 0.00231987 -0.00193987 0.00441429
N 0.14477914 15.06325205 19.44469509 -0.00245934 -0.00198030 0.00276631
N 1.32238251 13.75277731 24.07651910 -0.00250227 -0.00717338 0.00093566
N 2.12415251 18.60015375 26.05528862 -0.00412465 0.00348554 0.00706606
N 3.42821814 10.01814817 21.59215655 -0.00274378 -0.00287760 -0.00373401
N 1.47759421 13.16828872 19.78327049 -0.00012321 -0.00156376 -0.00070350
N 0.26677040 15.74321048 24.18120609 -0.00321020 0.00195446 0.00038317
N 3.33307284 10.84008885 25.98626645 0.00114405 -0.00508815 0.00169464
N 2.34754410 17.73949487 21.57211154 -0.00835191 -0.00563867 0.00479575
N 0.28919503 24.94524923 1.35492983 0.00090698 0.00551091 0.00323528
N 1.90973612 23.63669572 5.72860391 0.00789472 -0.00213620 0.00953745
N 2.14923802 28.06565295 8.23454201 -0.00208398 -0.00227713 -0.00401748
N 3.41200833 19.97754575 3.36403202 -0.00337627 -0.00310025 -0.00686808
N 1.26264066 22.94677055 1.76387584 -0.00112722 -0.00510528 -0.00405789
N 0.41471049 25.41442365 6.26847795 0.00210603 0.00223036 -0.00159678
N 3.23395489 20.50783303 7.52875448 0.00115158 0.00243758 0.00043200
N 2.19983833 27.81715820 3.34059949 -0.00129375 0.00021454 -0.00066605
N 0.52245085 24.85567219 10.16847794 -0.00084849 0.00017194 0.00825884
N 1.36607730 23.20264046 14.61951305 -0.00374994 0.00196854 -0.00224573
N 2.23354308 28.39428816 16.71857222 -0.00112948 0.00067119 -0.00250091
N 3.69115391 19.89204854 12.60011246 0.01165740 0.01006580 0.00021566
N 1.65116684 22.86090275 10.56572369 -0.00099716 -0.00022309 -0.00173609
N 0.06180090 25.03525218 15.14094575 -0.00086226 0.00575952 0.00491832
N 3.32969511 20.59607495 16.89131114 -0.00366361 0.00221615 -0.00343588
N 2.30085272 27.39815880 12.06244265 0.00234906 0.00224208 -0.00429332
N 0.39511733 24.70635408 19.50342130 0.00055307 0.00238515 -0.00128837
N 1.71839714 23.59783697 24.21110240 0.00509163 -0.00059144 0.00192544
N 1.93941791 28.53239549 26.71902399 0.00306918 0.00344943 -0.00140622
N 3.51704840 19.82874358 21.68994268 -0.00042392 0.00229503 -0.00106699
N 1.51077261 22.78883682 19.87639656 0.00620406 0.00046178 -0.00147333
N 0.38967931 25.44707177 24.52371196 -0.00325602 -0.00365973 0.00262505
N 3.47628338 20.53036841 25.85254095 0.00168606 -0.00311227 -0.00007063
N 2.39751364 27.69776484 21.48908433 0.00213012 -0.00032518 -0.00409224
N 4.16185276 5.27996789 1.17487072 0.00060134 -0.00105284 0.01002607
N 5.50678425 4.45355547 6.07007594 -0.00133037 -0.00041415 0.00581514
N 5.83742462 8.93531921 8.68532991 -0.00058591 -0.00075099 0.00490448
N 7.44288662 0.53811887 3.54610272 0.00268084 -0.00618698 0.00045797
N 5.29029455 3.34422036 1.59496282 -0.00318332 0.00758407 0.00112416
N 4.15198113 6.38115877 6.20065589 0.00459898 -0.00554099 0.00323378
N 7.04128791 1.39191204 7.46113423 0.00035455 -0.00116938 0.00307695
N 6.27609108 8.37901474 2.88988821 -0.00387842 -0.00595593 -0.00197616
N 4.02961284 5.66716683 10.10294834 0.00435405 -0.00150559 0.00584341
N 5.23583322 4.02001385 14.83139003 0.00074597 0.00360196 -0.00150809
N 5.69364527 9.06549633 17.03255882 -0.00522875 -0.00041415 -0.00079560
N 7.22814877 0.65974815 12.39621530 -0.00204466 -0.00115987 -0.00910210
N 5.15085994 3.69459849 10.78804972 0.00123176 0.00452876 -0.00454188
N 4.21973576 5.98282454 15.14946991 -0.00024790 0.00023566 -0.00313703
N 6.92534687 1.24085330 16.74459620 0.00301333 -0.00520637 -0.00141275
N 5.73659871 8.68417349 12.21971922 0.00416316 0.00443181 0.00668974
N 3.92478084 5.65892910 19.34575202 0.00246113 -0.00644288 -0.00094745
N 5.35593569 4.07800048 23.90247162 -0.00112408 0.00454028 -0.00098833
N 5.70160954 8.85845330 26.34110121 0.00009353 0.00934758 0.00085157
N 6.93248909 0.61692018 21.79564272 0.00767117 0.00681351 0.00014074
N 5.33406534 3.78446691 19.90981834 0.00183256 -0.00634549 0.00305026
N 4.02459636 5.95650151 24.16747861 0.00866970 -0.00272097 -0.00645249
N 7.21561626 1.24691082 25.81538202 0.00230641 0.00050357 -0.00008473
N 5.83970767 8.39569657 21.12341657 0.00046500 -0.00349823 0.00234298
N 4.08695246 15.25108845 1.15364900 0.00174029 0.00299873 0.00065733
N 5.45982382 13.88551229 5.68770891 -0.00222395 -0.00291851 0.00175307
N 5.58802200 18.68783462 7.91148438 0.00187906 0.00436432 -0.00621265
N 7.11048566 10.37041970 3.53806052 0.00403976 0.00330722 0.00070504
N 5.04095217 13.13662069 1.46386830 -0.00390265 -0.00256245 -0.00599276
N 3.72822320 15.51023300 5.96123940 -0.00134782 -0.00564868 -0.00157972
N 6.86955951 10.71613417 7.61822521 0.00297835 -0.00460967 0.00066297
N 5.83544472 18.05171692 3.17268367 0.00008481 0.00311069 0.00303069
N 4.02429524 15.15734799 10.38062543 0.00002182 0.00345225 -0.00076957
N 5.33425643 13.92270911 15.00343197 -0.00101610 -0.00230228 -0.00218057
N 5.94054230 18.56238953 17.03333764 0.00155070 -0.00114143 -0.00219035
N 7.02885784 10.55591904 12.66134099 0.00010370 -0.00606586 -0.00713567
N 4.98652420 13.16886545 11.16382468 0.00308054 -0.00559290 -0.00602880
N 4.26607658 15.99727621 15.15388432 -0.00636312 0.00034308 -0.00193063
N 6.86101394 10.99426247 16.84629146 -0.00129968 -0.00002075 0.00550643
N 6.11949541 17.90616430 12.14147604 0.00024444 -0.00101321 0.00120837
N 3.83611620 15.23475115 19.52180000 -0.00741746 -0.00158698 0.00503272
N 5.17908476 13.70161088 24.05414275 -0.00088864 -0.00363910 0.00313030
N 5.90185541 18.58958063 26.36997530 0.01001448 -0.00296220 -0.00591673
N 6.74206938 10.43895448 21.87697085 -0.00011951 -0.00879021 0.00527834
N 4.97859561 13.27873420 19.71125466 0.00242348 -0.00358367 -0.00098197
N 4.09785304 15.62803090 24.46865545 0.00151825 0.00207035 0.00057722
N 6.79053102 10.91727507 26.36603758 -0.00296172 0.00279025 0.00320908
N 5.93912702 17.63142797 21.75205222 0.00086552 -0.00229774 0.00238129
N 3.99527419 24.89531424 1.18234037 0.00110202 0.00040811 0.00403068
N 5.27335997 23.80423627 5.49913375 -0.00012396 -0.00273965 0.00387527
N 5.55474992 28.58444125 7.75959213 0.00335303 -0.00585777 0.00296678
N 7.14749648 19.96172270 3.31874347 -0.00314169 0.00349202 0.00500660
N 5.16184669 22.97037455 1.57717672 0.00165272 0.00485602 0.00729294
N 4.02183770 25.63963529 6.21396042 0.00327463 -0.00544432 -0.00077693
N 7.14170869 20.40717757 7.55234462 0.00380861 -0.00572071 0.00299661
N 6.05326986 27.64413301 3.27105487 -0.00719776 0.00321700 0.00067272
N 3.81782311 24.70762134 10.21460241 -0.00350898 -0.00474984 0.00098004
N 4.94220377 23.66835665 15.07121154 0.00120597 0.00305790 -0.00608080
N 5.51007157 28.37804747 16.87857697 -0.00444448 0.00611682 -0.00243603
N 7.44051908 19.82866986 12.44610626 -0.00162060 -0.00348118 -0.00181547
N 4.84489042 22.68952753 10.45009162 -0.00032795 0.00000439 -0.01042992
N 3.50586208 25.42520707 15.17422309 -0.00071348 -0.00383112 -0.00227533
N 6.84042045 20.58075174 16.68430375 -0.00559664 0.00228579 -0.00415482
N 5.92473589 27.69286802 12.23997800 0.00126477 0.00242840 -0.00707674
N 3.76970556 24.68180837 19.77132728 0.00794451 0.00526281 -0.00020230
N 5.38433171 23.47049728 23.94807980 -0.00174491 0.00450622 -0.00298732
N 5.82167268 28.37021377 26.44379693 -0.00285417 -0.01036641 0.00445591
N 7.29691861 19.52589609 21.68139586 -0.00011096 0.00342865 0.00013997
N 5.14508085 22.79052109 19.96467141 -0.00540392 0.00477786 0.00401591
N 4.04036518 25.29660557 24.48264036 0.00475039 -0.00249705 -0.00392365
N 6.98565093 20.66439014 26.17536214 0.00816833 0.00153908 0.00300642
N 5.86921732 27.50655026 21.74112285 0.00030923 0.00110831 -0.00441651
N 7.68380545 5.47520246 1.23280127 0.00344157 -0.00578218 0.00141815
N 8.96111374 4.29705313 5.93529582 0.00030901 0.00209068 -0.00036429
N 9.19891024 9.03447904 7.92083226 -0.00377904 -0.00032541 -0.00541960
N 10.80162770 0.67617324 3.21641254 -0.00172209 0.00283621 0.00500406
N 8.92988106 3.55535096 1.47910829 0.00516022 -0.00034900 0.00330156
N 7.93434513 6.39518845 6.00386466 -0.00032578 0.00011394 -0.00329329
N 10.89286373 1.04096432 7.44206139 0.00464482 0.00180315 0.00732542
N 9.54028891 8.26124494 3.13243025 0.00354764 -0.00131077 -0.00134356
N 7.37258341 5.41465498 10.47237327 0.00663684 0.00482170 -0.00797360
N 8.99866077 4.09786305 14.91902303 -0.00322218 -0.00757224 -0.00258596
N 9.56150723 9.02945079 17.25686541 0.00817477 0.00607017 -0.00279037
N 10.99402458 0.86324091 12.35646269 0.00210150 0.00054865 0.00595804
N 8.76325305 3.54870741 10.53043048 -0.00576261 0.00190492 -0.00498014
N 7.67916768 5.91658587 15.20099147 -0.00346219 -0.00123743 -0.00374173
N 10.65546315 1.25549113 16.77019661 -0.00151495 -0.00137830 -0.00163952
N 9.53668748 8.20955620 12.00380711 0.00147663 0.00098706 -0.00094455
N 7.57092432 5.67952479 19.31100337 -0.00766099 0.00395547 -0.01258897
N 9.29682162 4.36861088 23.96754488 -0.00079367 0.00217121 0.00021124
N 9.33783290 8.72211432 26.14871529 -0.00040326 0.00295602 -0.00234282
N 10.81402972 0.45665429 21.35378044 0.00307342 -0.00406321 -0.00064072
N 8.84535765 3.81635898 19.54249712 0.00120712 -0.00258352 0.00183943
N 7.56681202 5.88861454 23.98286794 0.00057527 0.00428964 -0.00067414
N 10.68950601 1.18017802 25.82464551 -0.00216179 0.00383573 0.00388995
N 9.51134752 8.39164484 21.36855542 0.00658914 0.00086933 -0.00386004
N 7.22609023 14.90502607 1.64267304 0.00418988 0.00173753 0.00344952
N 8.69901211 13.77395957 5.88035163 0.00118662 -0.00988934 0.00191559
N 9.35060026 18.73470875 8.28144271 -0.00246106 -0.00098499 -0.00048344
N 10.86961687 10.13751231 3.08960462 0.00084059 0.00224277 -0.00614549
N 8.65588345 13.05667877 1.76829841 0.00117093 -0.00109659 -0.00773805
N 7.74207389 15.88448684 6.02384431 0.00326340 -0.00597259 0.00096364
N 10.66326905 10.77180593 7.43169984 0.00217910 0.00497348 0.00546844
N 9.78342363 18.19344222 3.07741707 -0.00107652 0.00498916 0.00145922
N 7.52574214 14.87068850 10.45702975 -0.00308327 0.00010059 0.00051948
N 9.04622322 14.04278514 14.75310505 -0.00119278 0.00484818 0.00103403
N 9.33825535 18.98347135 17.22401117 -0.00041787 0.00013105 -0.00045959
N 10.71435739 10.13940812 12.48562703 -0.00342720 -0.00366811 -0.00587822
N 8.97300170 12.95276125 10.40259833 0.00520421 0.00167822 0.00731435
N 7.66469157 15.76576496 15.37850185 -0.00061243 -0.00165891 0.00375218
N 10.66907280 10.95648583 16.67755306 0.00166335 -0.00076846 0.00357611
N 9.64939566 18.11756834 12.38432527 -0.00215759 -0.00219188 0.00202154
N 7.50852499 15.46428393 19.58585811 -0.00086309 0.00128725 -0.00082707
N 8.66677079 13.85100798 24.43658714 0.00594473 0.00121171 -0.00683914
N 9.39872025 18.83616551 26.41994633 -0.00069401 0.00626440 -0.00536476
N 10.60816482 10.35954683 21.79719059 0.00292290 0.00141074 -0.00464453
N 8.68595325 13.46925366 19.84860653 -0.00699166 -0.00602296 -0.00816831
N 7.23726308 15.62655826 24.70127459 0.00445388 -0.00188006 -0.00075293
N 10.64985070 10.52698529 25.75766112 0.00033325 -0.00433864 0.00127945
N 9.74002222 17.96136331 21.63007411 0.00167340 -0.00471109 0.00260182
N 7.54244751 24.45674612 1.55352466 -0.00188346 -0.00339812 0.00333235
N 8.87365140 23.37568479 5.84552716 0.00416904 0.00248179 -0.00567569
N 9.28558010 28.31858430 7.69133073 0.00122454 0.00635832 0.00399556
N 10.96777764 20.11222851 3.51923265 -0.00111794 -0.00090937 0.00401005
N 9.25211178 22.84808337 1.72528700 -0.00196975 -0.00022854 -0.00068222
N 7.66641636 25.37883549 5.96412329 0.00231500 -0.00389764 -0.00524834
N 10.68939830 20.54448177 7.70295783 0.00271356 0.00264467 -0.00310069
N 9.67171798 27.60809554 3.07225322 0.00283633 0.00489144 0.00726587
N 7.57061735 24.88436837 10.40309153 0.00772138 0.00465285 -0.00030043
N 8.41461846 23.19480722 14.83053675 -0.00136629 -0.00332034 0.00016336
N 9.36165205 28.21673213 17.01110735 -0.00546200 -0.00100122 -0.00753526
N 10.89381271 19.93003085 12.61194535 -0.00292688 -0.00140010 0.00187089
N 8.62105186 22.93891088 10.69400352 0.00262023 -0.00254855 -0.00188618
N 7.41245490 25.34431998 15.02296883 0.00022775 0.00078357 0.00154421
N 10.62177162 20.87946069 16.86393048 -0.00274070 -0.00216582 -0.00369541
N 9.90360322 27.85933869 11.95227065 -0.00135126 -0.00055228 0.00365560
N 7.43916173 24.64900345 19.70390799 0.00087641 0.00237484 0.00897078
N 8.98329419 23.24492747 24.18901155 0.00016930 -0.00201268 0.00075830
N 9.53083300 28.18537007 26.04092351 0.00070608 0.00131581 -0.00340663
N 10.70992412 20.05196014 21.93192346 -0.00076419 0.00275726 0.00603237
N 8.83525647 22.82712419 19.82729830 0.00436323 0.00264190 0.00144908
N 8.00798456 25.32856170 24.57024157 -0.00021843 0.00038072 -0.00241900
N 10.62847623 20.67628434 25.84190047 0.00723426 0.00364641 -0.00007050
N 9.48100335 27.53648894 21.45551902 0.00251506 0.00641247 -0.00004726
N 11.19087606 5.40576949 1.03985015 0.00290674 -0.00229268 -0.00459529
N 12.62689686 4.27797463 5.40324623 -0.00171814 0.00654718 0.00045583
N 13.05906052 8.94739160 7.96747329 0.00119436 0.00657932 -0.00187495
N 14.48108460 0.99872964 3.33493828 0.00333288 -0.00668050 0.00556587
N 12.66402472 3.60599692 1.21921076 0.00242952 -0.01005111 0.00662184
N 11.58073551 6.20354834 5.78651556 0.00031214 0.00432413 -0.00212609
N 14.33123295 1.35465939 7.42043325 -0.00279322 -0.00173398 0.00140330
N 13.48589750 8.66515433 2.96295798 -0.00123707 -0.00182730 0.00480505
N 11.15249116 5.37510011 10.15858843 -0.00827368 -0.00088332 -0.01059528
N 12.29622517 4.16909723 14.73617175 -0.00202176 0.00753699 -0.00172921
N 13.11781046 9.30074604 16.92382975 -0.00086400 -0.00283687 -0.00184646
N 14.54725730 0.70999127 12.23589866 0.00417992 -0.00314372 0.00099280
N 12.55473796 3.59543943 10.26963639 -0.00156210 -0.00112049 0.00259053
N 11.22402582 6.14461414 15.17026840 -0.00350101 0.00097729 -0.00494838
N 14.31324071 1.15728398 16.70740112 0.00435595 -0.00512514 -0.00204930
N 13.29656086 8.13504557 12.22376416 0.00257379 0.00743482 0.00404262
N 11.31646110 5.60304288 19.12242752 -0.00502034 -0.00213168 -0.00239414
N 12.69991146 4.01295048 23.68506816 0.00020332 0.00257865 -0.00470974
N 13.07069720 8.92298932 26.07139050 0.00196751 -0.00400664 -0.00142629
N 14.53548616 0.41298237 21.42186197 0.00576506 -0.00116170 -0.00564560
N 12.52499025 3.75126497 19.61278719 -0.00611284 -0.00402631 -0.01168924
N 11.79323905 6.12278364 23.90117111 -0.00503587 -0.00029859 -0.00059290
N 14.32995656 1.45651641 25.78086892 -0.00281996 -0.00569362 0.00233911
N 13.18633084 8.34207141 21.10960870 -0.00111601 0.00240661 0.00356174
N 11.05112686 15.02971480 1.21512538 -0.00201492 0.00326124 0.00623513
N 12.61287524 13.92821532 5.54071669 -0.00722392 -0.00393614 -0.00529689
N 13.22624083 18.53624657 8.08106909 -0.00184380 -0.00028030 0.00000335
N 14.59726068 10.66996455 3.61262378 -0.00132904 0.00092701 0.00266334
N 12.50968938 13.21204118 1.42473782 -0.00411103 0.00085368 -0.00099793
N 11.41237608 15.94961490 5.63499819 -0.00215040 0.00128490 0.00183523
N 14.36417598 10.96324464 7.80911199 0.00490570 -0.00394229 0.00369436
N 13.20862753 18.12605590 2.95535054 -0.00158565 0.00224887 -0.00472768
N 11.42273272 15.19112177 9.78847564 -0.00213189 -0.00421972 0.00603915
N 12.35509258 13.84114315 14.52767810 -0.00078622 0.00005836 -0.00081507
N 13.15090146 18.66161973 17.01077315 -0.00559406 -0.00627805 -0.00184115
N 13.88726122 10.29874833 12.71726007 -0.00070567 -0.00022774 -0.00382183
N 12.71203384 13.29574558 10.11806600 0.00389032 -0.00101592 -0.00197653
N 11.19261172 15.73681444 15.21289723 0.00265544 0.00101306 -0.00431042
N 14.56012777 11.19824568 16.62351957 -0.00599003 0.00411048 0.00388984
N 13.69194414 18.00364065 12.03442424 0.00254528 -0.00389592 -0.00699010
N 11.33553877 15.05518804 19.65328044 -0.00350151 0.00026412 -0.00369907
N 12.44678539 13.73333752 24.20399164 0.00220936 0.00501674 0.00357606
N 13.30957710 18.59692834 26.25032040 0.00165609 -0.00058470 -0.00045673
N 14.23973423 10.41437213 21.57673487 0.00745712 0.00157316 -0.00578098
N 12.47865422 13.01984105 19.81039188 0.00396601 0.00164031 0.00132652
N 11.15096673 15.51319691 24.64763100 0.00454663 0.00350706 -0.00453484
N 14.21369172 10.81049795 25.78657866 -0.00364143 -0.00028871 0.00145203
N 13.35583889 18.04171143 21.15104694 0.00253332 0.00173664 0.00330365
N 11.64445739 24.79387835 1.34866630 -0.00191238 -0.00147642 -0.00671988
N 12.89471699 23.76886715 5.90676370 0.00444715 0.00299874 -0.00568605
N 13.17222957 28.37279367 7.86359538 -0.00356698 -0.00107476 0.00356238
N 14.57978034 19.80812704 3.75360050 -0.00086656 -0.00216574 -0.00639294
N 12.89824160 22.88138164 1.62977176 -0.00330020 -0.00072489 -0.00287802
N 11.41680105 25.55350717 5.91470346 -0.00564047 -0.00387268 0.00159858
N 14.28251258 20.57534374 7.54745367 0.00055601 -0.00083003 0.00370047
N 13.39345438 27.95088180 2.95734534 -0.00178305 -0.00731080 -0.00036186
N 11.32019595 24.71621401 10.03223836 0.00117339 -0.00060378 -0.00544893
N 12.42045433 23.54684767 14.56518398 -0.00202859 -0.00099548 0.00035649
N 13.17937750 28.14007233 16.80166213 0.00369210 -0.00019168 0.00530451
N 14.46810624 20.13207513 12.63962441 -0.00068126 -0.00482298 0.00221438
N 12.42315956 22.70506920 10.39596943 -0.00094462 -0.00291134 -0.00058351
N 11.37774970 25.64281485 14.81382241 -0.00621662 0.00042897 -0.00369477
N 14.39867613 20.61937690 16.84602176 0.00272506 0.00284100 -0.00237792
N 13.06500192 27.87932362 11.77008188 0.00322714 -0.00094291 -0.01148305
N 11.25826889 24.75823244 19.38012793 0.00409674 -0.00226458 -0.00066561
N 12.51093602 23.44786426 23.93439839 0.00089671 0.00257457 0.00132817
N 13.22258644 28.42992009 26.16376192 -0.00317208 0.00151099 0.00436628
N 14.65751513 19.92734488 21.54219037 0.00320543 0.00004104 -0.00075006
N 12.24329497 22.78424934 19.96399761 -0.00419223 0.00463823 -0.00027950
N 11.43893805 25.42398370 24.45641019 0.00202756 0.00261458 -0.00384287
N 14.45486530 20.55248309 25.75712346 -0.00278517 -0.00485412 0.00541799
N 13.21308520 27.54479973 21.51344878 -0.00003665 -0.00054351 -0.00180029
N 15.09851123 5.57219696 0.97381943 0.00251227 0.00073977 -0.00249642
N 16.63430088 4.46608864 5.62958581 0.00076951 0.00613158 0.00240412
N 16.61800570 9.20302307 7.75449163 0.00015342 0.00571095 -0.00160642
N 18.10304997 0.87215156 3.15744067 -0.00668270 0.00618582 0.00205223
N 16.38336325 3.69404653 1.31129928 -0.00235506 0.00475168 -0.00417684
N 15.19550963 6.26229301 5.91084148 0.00255827 0.00146630 -0.00373072
N 18.33119056 1.23929819 7.37787774 -0.00138674 0.00538912 -0.00172139
N 17.27421074 8.55197007 3.29490498 -0.00051652 0.00014694 0.00663993
N 14.85585327 5.46619892 10.15845852 -0.00025396 -0.00206102 0.00242230
N 16.25074406 4.07569725 14.72633465 0.00072086 0.00141866 -0.00139153
N 16.79495369 9.10044026 16.95399505 0.00435972 -0.00517691 -0.00318968
N 18.11508642 0.56648517 12.29459549 -0.00711404 -0.00023869 0.00381922
N 15.99396622 3.50806078 10.46674623 0.00128198 0.00235394 -0.00109947
N 14.92322702 5.90994133 14.97957484 0.00052444 -0.00193764 -0.00260705
N 17.94168304 1.07993594 16.64255351 -0.00093412 0.00376732 0.00097923
N 16.84948932 8.17687142 12.17656906 0.00274646 -0.00186992 0.00235315
N 14.92722100 5.57445194 19.31143354 -0.00063925 -0.00385242 -0.00316387
N 16.44871704 4.23682578 24.09781660 0.00051420 0.00057460 -0.00127088
N 16.73365479 8.87772941 26.12640134 -0.00164970 0.00416588 0.00119736
N 18.18860710 0.62830024 21.46491846 0.00017055 0.00152548 -0.00231078
N 16.22337650 3.64848040 19.41715079 -0.00035017 -0.00284849 0.00037666
N 14.96167872 6.09570718 24.21423080 0.00279147 -0.00285523 0.00231356
N 18.13181865 1.37426994 26.02065799 0.00363306 0.00370298 -0.00228712
N 16.65896105 8.47515497 21.51534075 -0.00359788 0.00346587 0.00000083
N 14.65995082 15.33439273 0.64626457 -0.00137563 0.00009637 0.00254190
N 16.34400725 13.93936735 5.58216155 0.00366441 0.00110992 0.00424163
N 16.66938184 18.79716302 7.67566157 0.00013330 -0.00423254 0.00301051
N 18.67666397 10.42162533 3.38097907 -0.00404643 -0.00751401 -0.00266430
N 15.97110657 13.56510728 1.42517097 0.00016370 0.00178585 0.00147790
N 15.05153279 15.84395673 5.78854520 -0.00048297 0.00080653 -0.00124011
N 18.20534135 10.93313983 7.78863362 0.00072365 -0.00253441 -0.00078348
N 17.06708930 17.94916050 2.87950685 0.00377312 -0.00319055 -0.00425250
N 14.99575914 14.92877768 10.11807452 0.00110589 0.00452744 0.00109330
N 16.22471624 13.76629320 14.62353813 0.00086217 -0.00345292 0.00249395
N 16.88983326 18.65192417 16.72861827 -0.00481371 -0.00936713 -0.00326374
N 18.01864756 10.14801082 12.54038566 -0.00146667 -0.00023561 0.00000458
N 16.21189089 13.02428744 10.51628456 -0.00067461 -0.00577747 0.00529204
N 14.81706342 15.67903993 15.24846246 -0.00387193 -0.00521145 0.00521652
N 17.91436116 11.06923117 16.79164741 0.00368918 -0.00461221 0.00615021
N 16.70042906 17.89552968 12.01000890 -0.00737379 0.00126188 0.00128931
N 14.91123944 14.96891091 19.18778840 -0.00114328 -0.00411313 -0.00639425
N 16.32005473 13.63842800 23.83306097 0.00035487 -0.00104340 -0.00116339
N 16.49540694 18.67699816 25.98845330 0.00097508 0.00170727 0.00457759
N 18.26868501 10.21699081 21.60581787 0.00198076 0.00344069 0.00047169
N 16.13119946 12.98711285 19.44303154 -0.00227500 0.00477870 0.00239912
N 15.01291754 15.55668765 24.18033013 0.00722228 -0.01006393 -0.00044534
N 17.70852596 10.90325534 25.92062248 -0.00191453 -0.00369244 -0.00017514
N 17.08335193 17.88373411 21.04157303 0.00486705 -0.00211496 -0.00457600
N 15.36721080 24.83324210 0.91013647 -0.00171955 -0.00364576 -0.00049625
N 16.56343996 23.29568566 5.30265608 -0.00205803 -0.00379308 -0.00334837
N 16.58798071 28.62129004 7.67359130 -0.00310488 0.00574602 0.00302694
N 18.44231958 19.76367242 3.04585192 0.00023311 -0.00381340 -0.00023619
N 16.05373067 22.70194502 1.28720719 -0.00970617 -0.00310306 -0.00420709
N 15.54810181 25.33089637 6.06456966 0.00430809 -0.00073427 -0.00206817
N 18.35537289 20.42448264 7.63331315 0.00098495 0.00407012 0.00314942
N 16.92178142 27.92680031 2.95155398 0.00072956 0.00150016 -0.00683801
N 14.82327744 24.73125816 10.12075979 0.00754233 -0.00132342 0.00063365
N 15.97607249 23.31336032 14.74036249 0.00213937 -0.00279144 0.00370463
N 16.76374127 28.05613158 16.86169347 -0.00100529 -0.00246136 -0.00240869
N 17.96463652 19.81542145 12.28197668 -0.00062207 0.00302571 0.00498886
N 16.15760026 22.91015816 10.40338112 -0.00363793 0.00369246 0.00311412
N 14.96889638 25.36520487 15.01143333 0.00691357 0.00415951 -0.00330774
N 18.16474763 20.50934072 16.53091800 0.01002692 0.00337580 -0.00642507
N 17.06880991 27.36754072 12.13622657 -0.00271030 0.00187261 -0.00606187
N 14.75012799 24.75584900 19.57562135 0.00078987 0.00106972 -0.00929870
N 16.27204064 23.40937942 23.83513664 -0.00294760 -0.00561102 -0.00004402
N 16.93088588 28.39035973 26.13788600 -0.00433457 -0.00596281 -0.00468717
N 18.26983108 19.83096779 21.40259940 -0.00014693 0.00524278 -0.00127713
N 16.24575885 23.03363552 19.83268861 -0.00110643 0.00442080 0.00080340
N 14.86663286 25.20880086 24.41981301 0.00028712 0.00862006 0.00466590
N 17.81692714 20.43107215 25.37439121 -0.00272256 -0.00072687 -0.00138615
N 17.14979618 27.51784113 21.36740715 -0.00346725 -0.00094858 -0.00145189
N 18.69492316 5.40757526 1.31909596 -0.00142297 0.00311436 0.00107899
N 20.20523144 4.34876786 5.70511241 -0.00004994 0.00165893 0.00662504
N 20.70383930 8.93749324 8.03211352 0.00371224 0.00236211 -0.00365915
N 21.96056345 0.73938269 3.20512243 0.00501771 0.00286900 0.00770567
N 20.08708754 3.55864663 1.48713943 -0.00961957 0.00267499 0.00372150
N 19.06793163 6.32807483 5.85510988 0.00147423 -0.00108709 0.00209758
N 21.71964554 1.19206994 7.63529248 0.00247334 -0.00301226 0.00484356
N 20.92862749 8.24747748 3.02404876 -0.00125033 0.00076022 0.00458778
N 18.32275722 5.56642317 10.49176215 -0.00306642 -0.00042789 -0.00342747
N 19.99953467 4.08648264 14.80307983 0.00068544 -0.00186463 0.00595903
N 20.58549125 8.72520235 17.23789788 0.00173116 0.00415093 -0.00074156
N 22.00563215 0.48792758 12.53212938 -0.00267396 -0.00247900 0.00500001
N 19.60677948 3.70253006 10.32821898 0.00222997 -0.00473162 0.00572751
N 18.63064077 5.89927388 15.33268551 -0.00718736 -0.00133462 0.00354774
N 21.64485389 0.92121787 16.70800910 0.00317722 -0.00271478 -0.00485113
N 20.48935444 8.48763646 12.54548497 0.01043522 0.00113838 -0.00175795
N 18.73975905 5.42343714 19.67066272 0.00365631 -0.00451786 0.00063808
N 20.31031106 4.30215184 24.10347998 -0.00205614 -0.00332461 0.00032464
N 20.95927011 8.94137817 26.20722533 -0.00822357 -0.00771155 0.00235715
N 22.05375357 0.33900150 21.54392858 -0.00246101 0.00045634 0.00323829
N 19.83578389 3.35980840 19.71347318 0.00231854 -0.00021258 -0.00442221
N 18.73813645 6.12304033 24.34275880 -0.00389106 -0.00078800 -0.00163833
N 21.65418558 1.30725458 25.75499410 -0.00548235 -0.00052258 -0.00489993
N 20.56780064 8.55993530 21.26140533 0.00486438 -0.00206006 0.00424236
N 18.86873079 15.45334602 1.01875302 0.00282836 0.00354561 0.00829895
N 19.76603749 13.90241090 5.55317047 -0.00014317 0.00166165 -0.00369679
N 20.49616767 18.58478646 8.08783992 -0.00604797 -0.00459521 -0.00085152
N 21.99134247 10.29032707 3.42154792 0.00690944 -0.00203122 -0.00086702
N 19.40837547 13.24787302 1.54374506 0.00484114 0.00270263 -0.00167047
N 18.56856727 15.87599289 5.88722024 0.00095965 -0.00059722 -0.00187593
N 21.62889577 11.06783988 7.84310374 0.00485583 0.00160470 0.00534234
N 20.82363622 18.00400935 3.04924344 -0.00045035 0.00549054 -0.00591650
N 18.66019824 15.11955061 10.33728696 0.00365853 -0.00148546 0.00340065
N 19.87310017 13.77027409 14.92090483 -0.00278677 -0.00292054 0.00023663
N 20.47233767 18.67005871 17.29049421 0.00081954 -0.00493852 0.00004111
N 21.84458718 10.40312742 12.69959179 -0.00393103 -0.00183136 -0.00740010
N 19.93655927 13.15575133 10.68330616 0.00596688 -0.00205084 -0.00404800
N 18.77639414 15.78427085 14.95091614 0.00114864 -0.00397950 0.00372428
N 21.56459919 10.86852419 16.85326693 -0.00290071 0.00597551 0.00000153
N 20.60094188 17.98953313 12.27199985 -0.00352176 -0.00172062 -0.00034312
N 18.57195184 14.84017202 19.23999840 -0.00468059 0.00682695 -0.00064876
N 19.85214825 13.69186284 23.94858368 0.00218101 0.00830201 -0.00265184
N 20.63040836 18.58206773 26.36700476 0.00250309 -0.00756547 -0.00202347
N 0.03570730 10.29471354 21.71416824 -0.00284894 0.00241394 -0.00341491
N 19.92861949 13.03052887 19.85538854 0.00302284 0.00819996 0.00198573
N 18.41786374 15.53071058 24.30297536 -0.00592731 0.00206854 -0.00483277
N 21.78865351 11.02891064 26.08050393 -0.00054810 -0.00575947 -0.00076786
N 20.68757401 18.16855091 21.37847853 0.00358795 0.00735054 0.00001418
N 18.56710169 24.82873055 1.23187450 -0.00316411 -0.00229905 0.00502082
N 19.86649003 23.56133631 5.77190410 -0.00175971 -0.00277427 -0.00072192
N 20.90443658 28.01480335 8.13392412 -0.00327238 -0.00086023 -0.00076591
N 21.59143030 20.16329966 3.49728412 -0.00080381 -0.00177465 0.00055883
N 20.03519302 23.01940433 1.46279378 -0.00578745 -0.00052461 -0.00179785
N 18.95629003 25.63316548 6.20778358 -0.00016488 -0.00237636 0.00601490