1920
Time=91000.00000003 pbc="T T T" Lattice="25.58733663 0.00000000 0.00000000 0.00000000 25.45893042 0.00000000 0.00000000 0.00000000 32.90591191" energy=-12247.63894260 virial="-34.60845698 5.82355288 -27.26019031 5.82355288 -20.38810652 -7.06704059 -27.26019031 -7.06704059 -80.14269560" stress="0.00068726 0.00020312 -0.00140126 0.00020312 0.00145372 -0.00030192 -0.00140126 -0.00030192 -0.00139410" Properties=species:S:1:pos:R:3:vel:R:3
O 6.06304042 3.00197476 6.97115059 -0.00013261 -0.00272290 0.00100068
O 2.56406371 3.40670876 15.06249259 0.00054801 0.00117529 -0.00266153
O 2.09799039 10.19020825 1.13997310 -0.00405855 0.00571008 -0.00326857
O 6.54269477 9.38564573 9.61391785 0.00227557 -0.00461900 -0.00491697
O 2.85608142 10.38852804 9.34897464 0.00237676 0.00096821 -0.00321171
O 6.33425693 9.21956595 1.53560808 0.00379267 -0.00595104 0.00276608
O 6.84673356 2.55408850 15.48383973 0.01108998 0.00683447 -0.00166208
O 2.28256391 3.79795908 6.97136392 -0.00259978 0.00455938 0.00276982
O 6.33940719 0.85792090 17.29733306 -0.00325731 0.00562857 0.00624488
O 2.17258246 5.39921959 9.05757032 0.00551921 0.00444097 -0.00208638
O 2.29189477 11.80426333 7.27854928 -0.00441606 -0.00067558 -0.00338640
O 6.45482306 7.64525178 32.55227020 0.00395019 0.00437380 0.00105663
O 2.62280266 11.59200149 31.96954604 -0.00153339 0.00446351 0.00267788
O 6.08232357 7.51431152 7.64791566 0.00181823 0.00198575 0.00691044
O 6.44322296 1.21788601 9.13973986 -0.00043600 -0.00452739 0.00175967
O 2.57110520 4.98360703 17.05769241 0.00128573 -0.00472290 0.00053848
O 5.70790510 2.86091044 23.48858454 -0.00455831 -0.00084316 -0.00153441
O 2.92231940 3.72896604 31.48521532 -0.00020097 0.00058669 -0.00294255
O 1.36102440 10.16099034 17.45136390 -0.00421552 0.00472928 0.00369862
O 7.12972243 9.16817269 26.32431912 0.00144490 -0.00547168 -0.00150405
O 2.01386943 9.94803564 25.73212929 -0.00135293 -0.00227309 0.00078060
O 5.97591022 8.98728283 17.67550502 0.00113714 0.00488509 0.00411348
O 7.03645310 2.59860655 31.89073691 -0.00032759 -0.00127433 -0.00348753
O 1.69087910 3.44847329 23.23847671 -0.00251841 -0.00774198 -0.00251379
O 6.72179398 0.99375387 0.93259687 0.00117294 0.00361992 -0.00101751
O 1.92119140 4.96289913 25.27837008 -0.00324506 -0.00515929 -0.00216087
O 1.92139794 11.33316107 23.57133205 -0.00382409 0.00705053 -0.00805476
O 6.34948117 7.39494605 15.70234024 -0.00735116 0.00458309 0.00202840
O 2.35068526 11.31540385 15.59705848 0.00472814 0.00190496 0.00840248
O 6.51583763 8.05166911 23.93123106 -0.00287964 0.00290451 0.00284566
O 5.76710205 1.08668757 25.63096631 -0.00571359 -0.00037291 -0.00125984
O 2.06687218 4.96616787 0.60470240 0.00198956 0.00100022 0.00084129
O 6.22881009 15.45311673 6.53207607 0.00206873 -0.00287502 0.00003143
O 2.80188011 16.61075300 15.05973794 -0.00929045 -0.00939056 -0.00059474
O 1.65220668 22.52287302 1.35420253 0.00260078 -0.00538137 0.00224093
O 6.92282508 21.63422776 9.30665794 -0.00430749 -0.00566727 0.00322754
O 2.25796053 22.86517621 9.42391349 0.00118875 -0.00008743 0.00558695
O 5.67804559 21.61842905 1.11157622 -0.00385926 -0.00615781 -0.00152786
O 7.10049861 15.48066171 14.84225343 -0.00625594 0.00165759 0.00144250
O 1.67661617 16.54954992 6.78740978 -0.00001166 0.00356307 0.00240453
O 6.91910781 13.85746448 16.99857288 -0.00297835 -0.00599784 0.00139968
O 2.37524082 17.97929168 8.86253346 -0.00174048 0.00484505 -0.00070553
O 1.94816804 24.60779464 7.48014816 -0.00043781 -0.00568337 -0.00384577
O 6.47462509 20.38661588 32.03072046 0.00806570 -0.00200209 0.00476623
O 2.32176737 24.16102289 32.18283598 0.00131844 -0.00660098 0.00093973
O 6.01992278 20.35145700 7.35996513 -0.00279241 -0.00427660 -0.00179625
O 6.57598649 13.81605418 8.60827257 -0.00529052 -0.00055139 -0.00178837
O 1.86084438 17.92661304 17.17803220 0.00149442 0.00034903 0.00353610
O 5.44612847 15.47287202 22.93773559 -0.00137532 0.00449410 0.00324529
O 3.00426732 16.79893705 31.55914189 0.00179808 -0.00490508 0.00346882
O 1.23681333 22.28704251 17.84001788 -0.00057304 -0.00441370 0.00262016
O 6.62661954 21.63770077 25.71247014 -0.00412320 -0.00476484 -0.00059544
O 2.54651490 22.49312627 26.12649457 0.00042514 0.00417517 0.00690336
O 5.60937235 21.60576495 17.61972772 0.00308485 -0.00222930 0.00291458
O 6.95657396 15.84692957 31.32526126 0.00260656 -0.00066428 -0.00126893
O 1.94131900 16.36841411 23.27016318 0.00552503 0.00089816 -0.00046080
O 6.67285526 14.17083627 0.45867855 -0.00200716 0.00217038 0.00236253
O 1.99053369 17.80675228 25.46060104 -0.00371447 -0.00509728 -0.00137412
O 2.27534969 24.05195921 23.88620208 0.00838609 0.00222928 -0.00265415
O 6.35088095 20.31495188 15.55510684 -0.00259869 0.00158299 -0.00318127
O 1.39921136 23.96283587 15.81258005 -0.00007843 -0.00327080 0.00670768
O 5.94971269 19.89512574 23.53068456 0.00552972 0.00100198 -0.00277330
O 5.81660123 14.19964916 25.07405246 0.00556628 0.00033898 -0.00039119
O 2.14464752 17.77863634 0.73683575 -0.00111586 0.00063941 0.00473900
O 14.41107546 2.86488414 7.24750847 -0.00480047 -0.00044595 -0.00490174
O 11.71040784 3.57026884 15.46852750 -0.00230491 -0.00758244 -0.00499722
O 10.00267910 10.18102531 0.86510449 -0.00271432 0.00680398 -0.00018394
O 15.45723145 9.39299912 9.35071762 -0.00403680 0.00242848 -0.00264010
O 11.37193197 10.21319131 8.82854397 -0.00238515 0.00612943 0.00099754
O 14.90654001 8.76451909 1.05578085 0.00341218 0.00178490 -0.00024108
O 15.62799395 2.61896117 15.21544345 0.00387320 -0.00103370 0.00351999
O 10.31825269 4.03134734 7.46498839 0.00707592 -0.00838787 -0.00028589
O 14.92118682 1.43407899 17.38179439 -0.00064337 -0.00223509 -0.00235202
O 10.73963863 5.44606729 9.62736521 0.00497909 0.00117029 0.01032287
O 10.53500189 11.45224257 6.94045229 -0.00142537 0.00111088 0.00124870
O 15.60083620 7.27052522 31.92145537 0.00503503 0.00688970 -0.00077093
O 10.37669627 11.51258026 31.68420290 -0.00333174 0.00982165 0.00256323
O 15.30684510 7.76830363 7.45452901 -0.00364927 -0.00239588 -0.00265204
O 15.21868952 1.32108478 9.17961620 -0.00357772 0.00274659 0.00120298
O 11.04027422 5.20132748 17.71934568 -0.00077360 0.00362181 -0.00094570
O 14.32985036 2.69097304 23.63272501 0.00362323 0.00664242 0.00427133
O 11.21181167 3.65861920 31.95588879 0.00525554 -0.00493436 0.00081749
O 10.18382486 10.09425101 17.24949363 -0.00278147 -0.00727378 0.00323607
O 14.80223220 9.23840584 25.94685673 0.00373327 -0.00187143 -0.00394934
O 10.98487710 9.97915732 25.51738425 -0.00155010 -0.00461630 0.00002223
O 14.92976278 9.14715845 17.73703505 -0.00435569 0.00563674 -0.00525580
O 15.42419573 2.55183138 32.25866166 -0.00406422 -0.00907835 0.00656981
O 9.86044364 3.48191106 23.86004332 -0.00102653 0.00446953 0.00451100
O 14.45913551 1.02050971 1.11658646 -0.00175912 -0.00058941 0.00007321
O 10.53559590 5.00285196 25.73875595 -0.00968199 -0.00330877 -0.00337370
O 10.28541060 11.53985224 23.40270675 0.00347712 -0.00086672 -0.00105951
O 15.05998447 7.84261618 15.54928036 0.00335306 0.00214288 -0.00278107
O 11.08936608 11.52206596 15.14855790 0.00581717 0.00251945 -0.00291426
O 15.06096871 7.54650973 24.11591052 0.00015327 -0.00379716 0.00366982
O 14.94616670 1.54633725 26.00769099 0.00330626 -0.00231780 0.00412290
O 10.84107385 5.31550145 1.07901230 -0.00126724 0.00597896 0.00084884
O 14.03619395 15.05867571 6.52606504 -0.00290176 -0.00233375 -0.00526517
O 11.49631965 16.59062585 15.05110772 0.00052055 0.00038389 -0.00436784
O 10.18680815 22.49113164 1.63976598 0.00687301 -0.00506633 0.00581417
O 15.22243456 21.91322715 9.44870689 -0.00829514 0.00038444 -0.00630104
O 11.25766268 23.10724705 9.60154586 -0.00002163 -0.01077366 -0.00307707
O 14.29234678 21.73310638 1.09079603 0.00163225 0.00116612 0.00349367
O 15.53111477 15.58954149 14.94080245 0.00346612 -0.00518775 0.00213284
O 9.93964987 16.68606344 6.54381926 -0.00113394 0.00141683 -0.00144772
O 15.21254451 13.97438181 16.86154063 0.00137921 0.00008217 0.00282691
O 10.60364411 17.57102592 8.80115889 0.00358428 -0.00083085 0.00064957
O 10.47824715 24.58409326 7.47436577 0.00378292 0.00046378 0.00300170
O 15.16749146 20.33418122 32.03478642 -0.00424077 0.00276503 0.00228249
O 10.35522226 24.13324596 32.55107496 -0.00210320 0.00551968 -0.00152751
O 14.80935879 20.35777502 7.34061960 0.00198005 0.00254989 -0.00021040
O 14.89354732 14.23993744 8.87845798 0.00044410 0.00381957 0.00171168
O 10.57963425 17.72225572 17.02606724 0.00740181 0.00172691 -0.00417501
O 14.11999263 15.27580806 23.13010829 -0.00080756 0.00231821 -0.00312941
O 11.23196795 16.80474756 31.40385069 0.00324452 0.00003984 -0.00154900
O 10.51221729 22.28523887 18.05200283 0.00052282 -0.00489870 -0.00086160
O 15.39510400 21.95955851 26.06517410 -0.00071688 -0.00215952 -0.00981302
O 11.27182695 22.53011948 26.34696382 -0.00199581 -0.00353907 -0.00221173
O 14.71458936 21.70775949 17.52299259 0.00425594 -0.00403523 -0.00156460
O 15.62968248 15.56041911 31.13733481 -0.01048893 0.00021581 0.00428863
O 10.09224326 16.73145639 23.31035327 0.00220482 0.00521168 -0.00719679
O 15.46211946 14.01954141 0.41633734 0.00249858 -0.00125639 0.00059797
O 10.90715729 18.03972781 25.42293726 -0.00091707 -0.00043710 0.00046432
O 11.22849358 23.96696886 24.30780322 -0.00200279 -0.00214505 0.00647662
O 15.40620689 20.15082500 15.48048530 0.00434368 0.00407662 0.00084313
O 10.45948233 24.14163948 15.92102929 -0.00224637 0.00110982 0.00344185
O 15.10346913 20.38994173 23.85314676 -0.00210227 0.00596700 -0.00114364
O 14.90887427 13.86197945 25.01070263 -0.00227656 0.00597387 -0.00090191
O 10.40711642 18.07818353 0.45595160 -0.00006275 0.00590897 0.00434885
O 23.22675022 2.67310092 7.04490533 -0.00353721 -0.00793906 -0.00347066
O 19.66386688 3.35133712 15.52189367 -0.00054113 -0.00406127 -0.00400076
O 18.39267418 10.05693650 1.78941709 -0.00455796 0.00425274 0.00761040
O 24.17610440 8.92264850 9.48520260 0.00438127 -0.00093220 0.00025897
O 20.04351574 10.11103214 9.80740459 -0.00185375 0.00182582 -0.00067887
O 22.72916212 9.56354864 1.57926876 0.00340528 0.00270077 0.00015514
O 23.63454277 2.21170470 15.28959854 -0.00407313 -0.00168601 0.00286193
O 18.65139319 3.72981473 7.26221973 -0.00107401 -0.00151887 -0.00674350
O 23.48831307 1.19268838 17.56427009 0.00240516 -0.00330197 -0.00277778
O 19.39003016 5.06003078 9.37043977 0.00020991 -0.00269207 -0.00174906
O 19.40540463 11.60705183 7.69654412 0.00291678 0.00431380 -0.00343079
O 23.06434794 8.03004702 32.34124114 -0.00030762 -0.00695081 -0.00434330
O 18.66873839 11.56006764 32.51313540 -0.00327463 -0.00100534 -0.00001242
O 23.35695409 7.47718444 7.51086572 -0.00351609 -0.00169084 -0.00144991
O 23.84964392 1.09769678 9.07451645 -0.00912496 -0.00063723 0.00512061
O 19.16245991 5.06520651 17.34925766 0.00245855 -0.00644719 0.00713575
O 22.61378156 2.74424673 23.50552290 -0.00210822 -0.00567117 -0.00462364
O 20.23682621 3.93470526 31.65228766 -0.00509772 0.00106226 0.00146317
O 18.82053274 10.04899101 17.94467752 -0.00044032 -0.00563899 0.00507574
O 24.10250886 8.93082291 26.02959066 0.00315377 0.00077482 0.00431826
O 19.05749693 10.00055533 26.12752943 -0.00324470 0.00335522 0.00276657
O 23.17584765 9.09691746 17.40604988 -0.00757627 0.00217755 -0.00343443
O 24.29338988 2.45696263 31.54062490 -0.00184808 -0.00465485 0.00077332
O 18.66236781 3.34155428 23.46515403 -0.00119297 -0.00784524 0.00649397
O 23.96145190 1.04511284 0.94446436 0.00131728 -0.01056231 -0.00529809
O 18.84501448 5.04796027 25.49978478 -0.00601253 -0.00033115 0.01048707
O 18.95393986 11.66545746 24.24877302 -0.00010013 0.00630733 0.00019116
O 23.50274415 7.43156948 15.64984499 0.00693492 -0.00033532 -0.01105367
O 18.85185790 11.56609585 15.91398694 0.00098821 -0.00088318 0.00292224
O 23.60189816 7.86912266 23.53369907 0.00273504 -0.00469451 -0.00189944
O 22.91121141 1.14351119 25.58459534 0.00725960 -0.00000645 0.00070590
O 19.90862758 5.05517376 1.12731220 -0.00026503 -0.00471059 0.00402053
O 22.64975146 15.28903357 6.93279062 0.00394377 -0.00424404 -0.00615707
O 19.92503482 16.81031951 14.83154953 0.00210394 0.00010051 0.00358633
O 18.64329197 22.56966019 1.57487283 0.00330789 -0.00005189 0.00315769
O 23.81593395 21.75541966 9.21529409 0.00469523 -0.00132595 -0.00311138
O 19.87792700 22.75679735 9.55567573 -0.00401428 -0.00089076 -0.00179303
O 22.90317795 21.50848840 1.13474787 -0.00063329 -0.00157395 0.00082511
O 24.24660448 15.19840576 15.34339970 0.00268387 0.00019573 -0.00177609
O 18.29281918 16.27659146 6.59036827 -0.00274254 0.00705285 0.00015604
O 23.39859967 14.03324932 17.29644713 -0.00256225 0.00954482 -0.00316289
O 18.37167794 17.84050795 8.74196564 -0.00325899 0.00331303 0.00166158
O 19.44477912 24.17694187 7.69564295 -0.00534672 -0.00026834 0.00766554
O 23.64496088 20.25380142 31.85271303 -0.00203368 0.00105516 0.00021642
O 18.67681504 24.19739811 32.55241586 -0.00480090 0.00066675 -0.00049064
O 23.49727298 20.20581060 7.28459381 0.00477740 0.00372959 -0.00472197
O 23.48944724 14.39876679 9.11516485 -0.00127501 -0.00097558 -0.00856691
O 19.24115640 17.74075163 17.01634538 0.00010734 0.00138781 -0.00010398
O 22.82220536 15.23866999 23.48773044 -0.00829116 -0.00060295 0.00618155
O 20.13880194 16.16811974 31.37478325 -0.00062264 -0.00102564 -0.00036750
O 18.41384598 22.71054292 17.69682926 0.00080375 -0.00006893 -0.00475978
O 23.95001236 21.52299743 25.91786134 -0.00293704 -0.00383788 0.00476829
O 19.42383449 22.82286871 26.34049788 0.00455743 0.00279163 -0.00226969
O 22.72370973 21.68994968 17.64752364 -0.00587306 0.00373233 0.00516558
O 24.38893724 15.33546409 31.64424091 -0.00410463 -0.00113910 0.00661851
O 19.00342181 16.63842760 23.24316322 -0.00275183 -0.00282390 0.00599492
O 23.44707159 14.13008619 0.85313847 -0.00248874 0.00071627 0.00343361
O 19.35291166 18.22742739 25.37582545 -0.00147052 -0.00558469 -0.00234972
O 19.03273683 24.03064687 23.93415639 -0.00043927 -0.00152304 0.00058111
O 23.32000537 20.28720354 15.57302100 -0.00129096 0.00535769 0.00543674
O 19.29103933 24.16071535 15.72962609 -0.00503217 -0.00115476 -0.00222067
O 23.06545004 20.50314177 23.78957819 -0.00017170 -0.00574543 0.00181313
O 23.54085525 13.76343710 25.60046045 -0.00210362 0.00413158 0.00545472
O 19.67794553 17.97953869 0.46391743 0.00670269 -0.00149943 0.00806970
N 7.78419896 12.83934910 1.98904096 -0.00752640 0.00043401 -0.00509807
N 0.94130334 6.33518341 10.71306267 -0.00252277 -0.00286797 0.00268098
N 3.27567318 0.03109703 5.86350306 0.00756149 0.00362219 -0.01006645
N 5.14083007 6.30387566 14.07638708 0.00498118 -0.00262455 -0.00807495
N 0.83745272 0.06212983 14.22139343 -0.00315206 0.00255334 0.00004386
N 7.25441300 6.15732387 6.15130518 0.00047068 -0.00368488 -0.00017279
N 5.42269515 12.58282844 10.25622465 0.00595692 0.00612471 -0.00423246
N 3.11983223 6.31481499 2.12433606 0.00307498 0.00392734 0.00412641
N 7.75152460 12.68686340 18.71412657 0.00407566 -0.00428886 -0.00177687
N 0.86305355 6.09880233 26.90305991 -0.00313062 0.00067875 0.00342927
N 3.29194349 25.08640331 22.11891122 0.00243329 0.00608303 0.00043737
N 5.33098502 6.54751703 30.89491045 0.00889388 0.01161788 0.00027336
N 0.90483954 25.18845275 30.63628491 0.00007830 -0.00278967 0.00202628
N 7.22581960 6.55902331 22.38273603 0.00225454 -0.00375640 -0.00463510
N 5.06359619 13.05682495 26.94771542 0.00482515 -0.00385459 -0.00796372
N 3.13220466 6.40774118 18.81320070 -0.00248597 -0.00306544 -0.01016495
N 7.57770316 25.20185310 2.73311548 -0.00028171 0.00294444 0.00032378
N 1.06093055 18.96744289 10.41842346 0.00074269 -0.00119752 -0.00718952
N 3.40120282 13.07685169 5.70940307 0.00014407 -0.00220391 -0.00657068
N 5.28741141 19.19839435 13.93796969 -0.00286799 -0.00575604 0.00834409
N 1.14137658 12.50478883 14.05747697 -0.00121071 -0.00110760 0.00473970
N 7.55011156 19.43336775 5.84338083 -0.01185280 0.00471144 -0.00371562
N 5.50497397 25.28615692 10.71830687 -0.00544309 -0.00376076 0.00384214
N 3.56545478 18.77183486 2.12398963 0.00468479 -0.00293690 -0.00010896
N 7.36298815 25.32050524 19.14241360 -0.00186883 0.00696362 -0.00274805
N 0.84382818 18.97342546 27.07165486 -0.00303488 0.00256390 -0.00409129
N 3.11116631 12.57379095 22.06104919 0.00013948 0.01142960 -0.00237823
N 5.36905050 19.07329684 30.51434852 -0.00441617 -0.00764073 0.00149862
N 1.13937642 12.53936612 30.49625855 0.00128975 0.00490163 0.00387910
N 7.49217126 18.88822902 22.11274611 -0.00683058 -0.00759258 0.00474614
N 5.09339512 25.41139741 27.46881244 -0.00046813 0.00078540 0.00500772
N 3.21496516 19.12777211 18.59282782 -0.00374883 -0.00113849 0.00500085
N 16.28100288 12.57196076 2.05769397 -0.00156931 -0.00045162 -0.00131780
N 9.42904510 6.44568789 11.30653972 0.00266429 0.00103753 -0.00165852
N 11.73222201 0.31478998 5.93065590 -0.00461669 0.00004652 0.00260146
N 13.93359702 6.61479389 13.95113841 0.00246053 0.00242582 -0.00016912
N 9.86743544 0.14383191 14.18610820 0.00285556 0.00245309 0.00081930
N 16.30772495 6.41311029 5.94506939 -0.00101107 -0.00444277 -0.00178457
N 14.03427132 12.92730185 10.46597384 0.00118426 0.00456464 -0.00112436
N 11.94656825 6.49761905 2.68885115 0.00328531 -0.00329125 -0.00318001
N 16.20997715 12.83296213 18.66521382 -0.00451628 0.01062369 0.01128627
N 9.37149256 6.17712692 27.29235206 -0.00603345 0.00183700 -0.00345358
N 11.80030731 25.36263214 22.55862773 0.00095156 -0.00205252 -0.00523934
N 14.03488665 6.27861474 30.52993818 0.00493068 -0.00543810 0.00413669
N 9.50175575 25.25944913 30.70885361 -0.01136317 0.00248659 -0.00295620
N 15.94671672 6.28289293 22.38961958 0.00158112 0.00145214 -0.00346425
N 13.95956044 12.59525195 26.66682080 -0.00003596 0.00712356 -0.00160731
N 11.66655057 6.39167886 19.52502717 -0.00189280 0.00001173 -0.00090593
N 15.86265071 0.09509707 2.66506040 0.00188574 -0.00129201 0.00229705
N 9.66932132 18.96065669 10.42640634 0.00194529 0.00452383 -0.00391567
N 11.96900235 12.60410385 5.43045953 0.00108436 0.00452609 -0.00050047
N 13.74477144 19.26623921 14.06610740 -0.00020844 0.01011262 0.00839066
N 9.62745800 12.36120480 13.64663329 0.00065990 -0.00543317 0.00687301
N 15.82277883 19.10163450 5.64586066 -0.00248331 0.00737117 0.00468161
N 13.83790357 0.23631904 10.60752260 0.00211939 0.00102513 -0.00202642
N 11.63617901 19.26462085 1.98976830 0.00108191 0.00186876 0.00548978
N 15.86267750 0.02019269 18.97744138 0.00211965 -0.00545177 -0.01239321
N 9.39020848 19.07123564 26.79234895 0.00172145 -0.00395677 0.00210100
N 11.78217006 12.44250757 21.93468971 0.00124768 0.00304822 0.00387733
N 13.95273264 19.09582836 30.59226003 0.00305128 0.00281823 0.00620896
N 9.59195866 12.89877966 30.04367430 0.00216907 -0.00123595 -0.00224371
N 16.03069088 19.05942636 22.19163389 0.00273872 -0.00233807 0.00177489
N 13.73327425 0.27778681 27.42163794 -0.00445623 -0.00259443 -0.00955834
N 11.72978100 18.95246615 18.54061247 -0.00296930 -0.00084052 0.00294644
N 24.58467498 12.93354265 2.40600555 -0.00390359 0.00072908 -0.00683774
N 18.13660397 6.14620533 10.89072273 -0.00187125 -0.00209764 -0.00031526
N 20.33500798 25.39532265 5.96710013 0.00021682 0.00251386 0.00202747
N 22.10920012 6.60031589 14.04829770 -0.00079844 -0.00000237 0.00175853
N 17.80884044 25.01134231 14.12853330 -0.00464907 -0.00212290 0.00816916
N 24.51470109 6.62088920 5.86238358 0.00247896 -0.00197585 0.00012108
N 22.12741393 13.13309237 10.58596086 0.00723603 0.00461907 0.00290716
N 20.90806919 6.17110434 2.84182534 0.00460283 0.00437463 -0.00444491
N 24.51214199 12.76998190 18.83197162 -0.00025833 -0.00104042 -0.00116030
N 17.90011603 6.30913723 27.29769008 0.00799028 0.00701148 0.00610718
N 20.33986231 25.10728487 22.35935811 0.00131800 -0.00358786 0.00440696
N 22.40215502 6.60251515 30.73431090 -0.00629004 0.00264501 -0.00102678
N 18.09675718 0.23274644 30.91715124 0.01075842 0.00664919 0.00114239
N 24.56974579 6.51606506 22.03644908 0.01084875 -0.00182944 -0.00110592
N 22.05251003 13.10141336 27.11805480 -0.00315711 0.00475522 -0.00621191
N 20.20114631 6.24370814 18.94294737 -0.00260554 0.00267009 -0.00352502
N 24.73980439 25.10000265 2.62469143 -0.00266034 -0.00734316 0.00223348
N 17.77470735 19.34780099 10.39188450 -0.00479056 0.00118700 0.00288295
N 20.27410164 12.88782640 6.00528538 -0.00029890 0.00057873 -0.00145882
N 22.23397094 19.10948444 13.91645339 -0.00280746 0.01011047 0.00152941
N 17.97680281 12.74129289 14.15662067 -0.00000471 -0.00851388 0.00135923
N 24.89558313 19.27912419 5.70576913 0.00172290 -0.00248956 -0.00536478
N 22.59835923 25.30156712 10.50950345 0.00848878 -0.00059014 0.00679615
N 20.36231716 19.14342887 2.35613496 -0.00086010 -0.00365215 0.00144542
N 24.53237651 25.38757280 19.22914886 -0.00366056 0.00779494 -0.00362187
N 18.01013718 18.95280138 27.11492380 0.00255823 -0.00594099 -0.00456929
N 20.06265838 12.82813756 22.58289221 -0.00006119 -0.00850028 -0.00160578
N 22.10109840 19.20005738 30.57014411 0.00409013 0.00577904 -0.00086225
N 17.96287946 12.87707983 30.77348924 -0.00462051 -0.00062973 -0.00170217
N 24.48012735 19.46759317 22.34144841 0.00233348 -0.00020201 -0.00148303
N 22.12536408 25.31727920 27.30968427 0.00200113 0.00152755 -0.00490038
N 20.46157857 19.05976684 18.46789588 -0.00091695 -0.00394210 0.00599941
C 7.56401976 0.33736562 5.00524105 0.00167081 0.00092889 0.00687773
C 0.90857494 5.89788518 13.12979617 0.00139373 0.00395017 -0.00092300
C 3.69902712 12.56213217 3.37658095 0.00267458 -0.00467076 0.00458167
C 4.89254287 6.90011766 11.73840659 0.00076204 -0.00042413 -0.00133544
C 0.87080963 12.25818889 11.67178583 0.00539986 0.00196916 -0.00219636
C 7.66986390 6.58729052 3.78905485 -0.00515523 0.00363088 -0.00427721
C 5.37945177 0.12008816 13.12450346 -0.00183687 -0.00248879 -0.00024600
C 3.20101648 6.16183422 4.49700862 -0.00246782 0.00171815 -0.00064215
C 7.14663901 1.10361372 6.07408178 0.01046682 -0.00906306 0.00349952
C 1.13768571 5.09830590 14.21083398 0.00075813 0.00680180 -0.00498085
C 3.34699489 11.83531104 2.25691280 0.00158455 -0.00285702 0.00025445
C 5.18339651 7.74553591 10.66044317 0.00264785 0.00067203 -0.00281169
C 1.31618517 11.78460662 10.49514311 -0.00087792 -0.00584865 -0.00275289
C 7.22639680 7.32656614 2.66540730 0.00565224 0.00047688 -0.00450105
C 5.61239899 0.83980689 14.27150948 0.01179406 -0.00664377 0.00446451
C 2.93666587 5.69904914 5.73985454 -0.00238252 -0.00005277 0.00005204
C 6.38511085 2.26012187 5.90419873 0.00375449 -0.00684172 -0.00228208
C 2.02647177 4.02073349 14.04811080 -0.00171060 0.00055366 0.00799899
C 2.47518338 10.74564108 2.27292044 0.00021568 -0.00453803 0.00380234
C 6.11403930 8.74112723 10.72928740 0.00073234 -0.01060684 0.00492056
C 2.20817407 10.72991374 10.49538246 -0.00288603 0.00403948 -0.00006958
C 6.53416838 8.53430069 2.71181215 -0.00030875 -0.00116512 0.00093461
C 6.40919274 1.99618188 14.32722881 0.00424151 0.00016731 -0.00205701
C 2.34208840 4.40550785 5.76524856 -0.00087077 0.00296252 -0.00218866
C 5.95070180 2.50085144 4.58418230 0.00127911 -0.00197976 -0.00252439
C 2.40378591 3.64526699 12.77236287 -0.00076563 0.00061783 -0.00965921
C 2.03979456 10.33538269 3.54462620 0.00779700 0.00555849 -0.00138102
C 6.61011537 8.98725643 12.00163519 -0.00349471 0.00740118 0.00251025
C 2.46250761 10.03604688 11.69705830 -0.00105368 -0.00626584 -0.00118189
C 6.16672931 9.00255075 3.93628597 0.00142676 0.00124246 0.00581423
C 6.82855479 2.45617697 13.06931793 -0.00116451 -0.00102712 -0.00379827
C 1.90308956 3.78039818 4.60248802 -0.00396187 0.00155351 -0.00030887
C 6.41775365 1.75372482 3.50150245 -0.00036698 0.00121654 0.00051496
C 2.13015979 4.41736481 11.66783698 0.00547449 0.00353587 -0.00870073
C 2.51764762 10.93043130 4.73315139 -0.00402674 -0.00170108 0.01295886
C 6.35706932 8.25237582 13.08117768 -0.00102443 0.00430157 0.00512732
C 2.10049035 10.51867855 12.91052703 0.00148702 0.00072008 -0.00217841
C 6.36666547 8.19780674 5.07159262 0.00558574 -0.00075466 0.00243757
C 6.45932739 1.78842739 11.88368838 0.00366754 0.00528329 -0.00017477
C 2.03735555 4.41291637 3.33505016 -0.01353292 0.00587298 -0.00174426
C 7.17913064 0.62972296 3.67787404 -0.00178912 -0.00146174 -0.00280359
C 1.33858993 5.52415860 11.81053887 -0.00008696 0.00257327 -0.00009651
C 3.14775038 12.20171087 4.63357179 -0.00028308 0.00818974 0.00561086
C 5.46211639 7.15362901 13.00308076 -0.00186951 0.00174529 0.00168272
C 1.37295009 11.72752241 12.91749927 0.00131538 0.00377086 -0.01007183
C 7.16025876 7.04968363 5.06739581 -0.00208042 -0.00083108 -0.00091085
C 5.73288085 0.60866461 11.85741276 0.00362050 -0.00291530 0.00179203
C 2.76535648 5.64144434 3.29128423 0.00688551 -0.00573226 -0.00131701
C 7.17338060 25.36272635 1.40924907 -0.00535379 0.00072631 -0.00153098
C 1.44072488 6.26997463 9.46697419 0.00294925 -0.00007345 -0.00146814
C 2.81659069 12.84351066 6.94160488 0.01407154 0.00306596 -0.00381918
C 5.70541606 6.38408525 15.30085129 -0.00220909 0.00633077 -0.00115960
C 1.77478051 12.32662081 15.21010367 -0.00407074 0.00417741 0.01141460
C 6.71824944 6.48480168 7.39317306 0.00294678 -0.00050372 0.00083040
C 5.90348896 0.14743574 9.40057649 -0.00251306 0.00340843 -0.00698322
C 2.53039026 6.07277042 0.93739098 -0.00198149 0.00478277 0.00130763
C 7.12009625 11.51817612 16.64832754 -0.00192333 0.00773626 0.00366658
C 1.25074847 7.58157825 8.68943320 0.00410550 0.00058818 -0.00404055
C 3.14579219 1.07589049 8.13257482 0.00328555 0.00291539 0.00418772
C 5.65194564 5.38532165 0.01589528 0.00747629 -0.00128248 0.00201287
C 1.39422288 0.84698459 32.67573726 -0.00378899 0.00304894 -0.00178044
C 6.90385040 5.35254081 8.39807879 -0.00364563 -0.00576053 0.00450362
C 5.70261111 11.71949452 7.92189157 -0.00318220 0.00771730 -0.00925010
C 2.73840409 7.34788911 16.71480726 0.00380207 -0.00049872 -0.00318598
C 7.20235291 0.31194039 21.47358606 -0.00070398 0.00049482 -0.00554715
C 0.96103781 5.77118164 29.19257139 -0.00411256 -0.00053113 -0.00261877
C 3.40429012 12.16658890 19.71508032 -0.00348042 0.00451904 0.00363760
C 5.06746150 7.15592775 28.53153422 0.00171867 -0.00243313 0.00287677
C 0.95094865 12.41475381 28.16030993 -0.00071267 -0.00026932 -0.00446570
C 7.43025478 6.71157053 19.99407000 0.00132402 -0.00561766 -0.00027698
C 5.11019107 0.39014905 29.82241742 -0.00237360 0.00104360 0.00542183
C 3.06351005 6.12166104 21.23410350 0.00030849 -0.00727228 0.00278872
C 6.78174913 1.00495698 22.53359383 -0.01112731 -0.00140644 -0.00723726
C 1.42255477 5.18029488 30.31707555 -0.00295927 0.00076024 -0.00246887
C 3.03586718 11.58543948 18.55311358 0.00313817 0.00234463 -0.00652329
C 5.45156556 7.85648089 27.38176673 -0.00154371 -0.00148694 -0.00889408
C 1.09734823 11.76225054 26.93504401 -0.00469195 -0.00550876 -0.00192397
C 7.23136673 7.34256070 18.79417421 -0.00458977 -0.00185294 0.00253620
C 5.62912306 0.97036239 30.92877022 -0.00181425 0.00197723 0.00282861
C 2.73687633 5.34502817 22.32137890 0.00186047 -0.00216981 0.00429721
C 6.13988732 2.23363585 22.35490156 0.00543712 0.00373405 -0.00228741
C 2.34261452 4.12608260 30.33770742 -0.00474785 -0.00748271 0.00197219
C 1.95320274 10.58831645 18.57948440 0.00305140 -0.00004163 0.00207691
C 6.47061172 8.75510579 27.46205098 0.00032678 0.00152482 0.00069069
C 1.84271810 10.58891082 26.87329684 -0.00856605 -0.00542657 -0.00483434
C 6.45698639 8.46888009 18.83899720 0.00136189 0.00309346 -0.00331560
C 6.53230165 2.04123512 30.78777405 -0.00389770 -0.00224025 0.00067001
C 2.09825381 4.10067198 22.16419067 -0.00383183 -0.00262300 -0.00722204
C 6.00416281 2.75936847 21.07169516 -0.00213565 -0.00404923 -0.00396595
C 2.56987441 3.57034685 29.08337609 -0.00619436 -0.00209220 -0.00086037
C 1.75190576 9.96237816 19.77638849 -0.00589416 0.00117644 -0.00443441
C 6.88139101 9.18505868 28.79095399 0.00626897 -0.00802667 0.00133148
C 2.33369690 10.00744827 28.08449284 -0.00270744 -0.00001951 -0.00128166
C 6.10854019 9.14746935 20.03310491 0.00568737 -0.00420777 -0.00109867
C 6.66706928 2.61133473 29.54614807 -0.00187359 -0.00340447 -0.00154672
C 1.96929167 3.51671810 20.80516140 -0.00330758 0.00298819 -0.00482810
C 6.32109341 1.96577554 19.98107569 -0.00830970 -0.00018008 0.00198135
C 2.17454068 4.22319318 27.93154334 0.00698031 0.00093772 -0.00067954
C 2.13847515 10.61146216 20.92716097 -0.00923630 0.00125632 -0.00007577
C 6.54555711 8.45604565 29.90665573 0.00144779 0.00332593 0.00041880
C 2.29730412 10.72262078 29.28843458 -0.01746572 0.00469496 0.00429878
C 6.38096110 8.60261585 21.29478700 -0.00047355 -0.00164129 -0.00086249
C 6.13338987 2.00738977 28.39003782 -0.00720969 0.00403827 0.00389597
C 2.27911476 4.31608932 19.74001094 -0.00164864 -0.00348642 -0.00660761
C 6.95458410 0.68248515 20.13042280 0.00003400 0.00623956 0.00392562
C 1.34904065 5.31134727 27.97968369 -0.00225588 -0.00022265 0.00091682
C 2.84822196 11.76060616 20.92063320 -0.00352203 0.00154901 0.00481497
C 5.61945850 7.42889593 29.81034698 0.00378994 -0.00028999 -0.00538646
C 1.45417673 11.87262915 29.33762774 -0.00085574 -0.00288206 -0.00060116
C 6.98178508 7.34129410 21.23781128 0.00349264 0.00289451 -0.00898321
C 5.43424734 0.70679524 28.53893441 0.00428689 -0.00135772 0.00522518
C 2.81095358 5.65777663 19.94482792 0.00308462 -0.00193451 0.00239031
C 6.92747916 25.38396947 17.81866566 -0.00200129 0.00221830 0.00326986
C 1.47102503 6.02626628 25.69506195 -0.00133495 -0.00592401 -0.00306940
C 2.45543343 12.38166568 23.22018083 0.00283954 -0.00268522 0.00697925
C 5.83933758 6.65103365 32.13451285 -0.00954700 -0.00283714 0.00033206
C 1.85167452 12.50420583 31.65424052 0.00343232 0.00128598 -0.00239133
C 6.81769220 6.89389465 23.60767151 -0.00552097 -0.00285056 0.00022584
C 5.52496479 0.06615343 26.17805593 -0.00265605 0.01314068 0.00241483
C 2.81485058 6.09735249 17.53165539 0.00168305 -0.00215830 -0.00133463
C 7.22478192 11.93248928 32.85757057 0.00048768 -0.00109946 0.00479086
C 1.50139299 7.29843027 24.90542132 0.00095516 0.00192032 0.01103894
C 2.84227081 0.85843838 24.17382778 0.00129492 0.00595044 0.00536726
C 5.74066072 5.17469044 16.12655897 0.00073660 -0.00797602 0.00267270
C 1.11043510 0.99993397 16.37041235 -0.00408332 -0.00589265 -0.00216040
C 6.69201515 5.79547778 24.58408074 0.00656101 -0.00079610 0.00128188
C 5.03936621 11.88749395 24.82603111 0.00426997 0.00356618 -0.00603227