1920
Time=37000.00000002 pbc="T T T" Lattice="25.56572526 0.00000000 0.00000000 0.00000000 25.31440533 0.00000000 0.00000000 0.00000000 32.99307577" energy=-12247.11708856 virial="-44.49378371 -6.92967291 -3.28319250 -6.92967291 -14.76536210 -0.76959257 -3.28319250 -0.76959257 -37.10013834" stress="0.00023877 -0.00038490 -0.00008187 -0.00038490 0.00161060 0.00007983 -0.00008187 0.00007983 0.00056083" Properties=species:S:1:pos:R:3:vel:R:3
O 6.15682257 2.55693675 7.00495184 0.00066602 0.00190884 -0.00318558
O 2.62587075 3.82749758 15.08681245 -0.00198125 0.00231460 -0.00181344
O 1.98875785 10.12496822 1.25433864 -0.00066797 -0.00316796 -0.00286409
O 7.11891234 8.96755576 9.32246892 0.00070986 0.00805498 0.00092354
O 2.37746963 10.01531367 9.63293276 -0.00226905 0.00055827 -0.00306232
O 5.83788798 8.86884168 1.21618838 0.00210417 0.00595433 0.00396826
O 7.15310075 2.74045318 15.49978866 -0.00144440 -0.00203639 -0.00088937
O 1.73366247 3.21596910 6.75630503 0.00161834 0.00263070 -0.00144097
O 6.68468339 1.57303444 17.62264466 -0.00203942 0.00087057 0.00874559
O 2.03012238 4.96125682 8.77115106 -0.00068732 -0.00948033 -0.00415526
O 2.61359171 11.23762765 7.42719378 0.00367335 0.00144784 -0.00543635
O 6.46018446 7.53843957 32.14073382 0.00192582 -0.00057493 0.00675909
O 2.47059337 11.77644781 32.33321284 0.00307953 -0.00035850 0.00149585
O 6.38898274 7.65295162 7.36945476 0.00432767 -0.00368317 0.00380930
O 6.54137076 1.21959583 9.37463273 0.00462186 -0.00774423 0.00413674
O 2.19082275 5.49008847 17.14157059 -0.00665803 0.00100734 0.00488367
O 5.81842502 2.79494244 23.97967531 -0.00049858 0.00013398 -0.00035185
O 2.10601716 3.33339546 31.59635924 0.00316230 0.00110105 0.00266340
O 1.82272699 10.28961833 17.76342616 -0.00376877 -0.00350338 0.00239510
O 6.54479711 9.29823800 25.91837123 0.01057916 -0.00681341 0.00426443
O 2.79407604 10.48969384 26.22638014 0.00175214 -0.00086078 -0.00175640
O 5.73995361 8.96231645 17.53899169 0.00376239 -0.00129921 0.00037262
O 6.86047014 2.44078338 31.78950988 -0.00089306 -0.00021753 0.00077975
O 1.70956821 3.81252494 23.32510151 -0.00290538 0.00267957 -0.00339319
O 6.41456877 0.95575055 0.84078534 0.00441785 0.00174514 -0.00355077
O 2.25140989 5.40647854 25.53783589 0.00349436 0.00031016 -0.00233711
O 1.85781464 11.55062033 23.93149079 -0.00695846 0.00458261 -0.00257260
O 6.55943082 7.73855382 15.38664520 0.00160354 0.00297235 0.00439546
O 2.05193591 11.88930679 15.78311609 0.00059641 0.00845168 -0.00813950
O 6.34763642 7.66578920 23.77978994 0.00215153 -0.00147015 -0.00384071
O 6.48519458 1.15073846 25.82495889 -0.00382699 -0.00198020 0.00560680
O 1.95951309 4.93300800 0.66297516 0.00050464 -0.00373015 0.00507761
O 5.99459564 15.16017185 7.30342475 0.00162433 0.00357054 -0.00373522
O 2.72480626 16.26349433 14.78151139 0.00224162 -0.00043591 0.00426582
O 1.52850338 22.34067417 1.64878615 0.00684675 -0.00680035 -0.00325441
O 7.03651048 21.74942463 9.28860583 0.00306971 0.00014444 -0.00302005
O 2.35312951 22.26766027 9.74226733 -0.00750654 -0.00494124 0.00108153
O 6.02799758 21.49855657 1.12146661 -0.00036153 -0.00512452 0.00268904
O 6.90330119 15.14293110 15.53120427 0.00200245 0.00062694 -0.00425037
O 1.62426692 16.19967444 6.51305640 -0.00285865 -0.00002070 0.00255396
O 6.30576763 13.88923376 17.67272855 0.00537582 0.00220426 0.00322252
O 1.98848827 17.70114782 8.62054521 0.00227599 -0.00883381 -0.00533279
O 1.89476807 23.89031163 7.76063592 -0.00131528 -0.00285588 0.00515794
O 6.67588928 19.91656329 32.10172605 -0.00150691 0.00305200 0.00590951
O 2.12953916 23.57374941 32.58736488 -0.00465507 -0.00197461 0.00077509
O 6.44800938 20.22534668 7.26280673 0.00312348 -0.00230726 -0.00116691
O 6.77049580 13.93462392 9.51684000 0.00214607 -0.00332879 -0.00117206
O 2.32310978 17.81625285 16.92778568 -0.00392663 0.00099234 -0.00264947
O 5.66537062 15.41626503 23.71383432 -0.00048169 0.00142765 0.00301414
O 2.66657655 16.50455084 31.64786938 0.00353540 0.00303026 -0.00157220
O 1.55740817 22.83455584 18.16259978 0.00740622 -0.00301754 -0.00020678
O 6.54025119 21.62984960 26.09982663 0.00230961 -0.00058213 0.00341314
O 2.36979566 22.75189610 26.28107426 -0.00062290 -0.00692899 0.00037148
O 5.84147163 21.62308763 17.65764786 0.00264517 -0.00115035 0.00166627
O 6.71959335 15.05514518 31.96680597 -0.00405433 -0.00032260 -0.00907772
O 2.24643099 16.64405042 23.47935350 0.00387569 -0.00510884 -0.00381675
O 6.09606142 13.77424136 1.30233835 -0.00565582 -0.00140288 -0.00150630
O 2.58312496 18.10356281 25.60588812 -0.00080549 -0.00156587 0.00655009
O 2.16437264 24.37144916 24.37458924 -0.00327563 -0.00182903 0.00211017
O 6.45385064 20.32478167 15.43834092 -0.00270112 0.00225772 -0.00142627
O 2.09452393 24.17059077 16.01211313 -0.00211329 -0.00401876 0.00335601
O 6.10265788 20.09315865 23.89000734 0.00539965 -0.00219387 -0.00051573
O 6.38439941 14.15275013 25.78965720 -0.00348137 0.00654508 0.00200668
O 1.86848227 18.18375828 0.60474071 0.00673210 -0.00352372 0.00059857
O 14.96868649 2.51906749 7.06947309 -0.00522479 -0.00272359 0.00298098
O 10.71644948 3.74266166 15.25546140 -0.00533763 0.00683291 -0.00225909
O 10.07112431 9.97374334 1.25321420 -0.00057989 -0.00163743 0.00123834
O 15.48859214 9.13321400 9.18667856 -0.00271009 0.00022270 0.00170598
O 10.88936364 9.97493043 9.31813455 0.00236825 0.00246480 -0.00148802
O 14.63855411 8.99947810 0.78164590 0.00073699 0.00087930 -0.00178209
O 15.22157108 2.74463811 15.10114136 0.00551887 0.00369532 0.01041150
O 9.57312710 3.59667049 6.67096588 -0.00902789 -0.00074386 0.00483173
O 14.97231897 1.10962124 17.19118933 0.00803986 0.00592374 0.00083760
O 10.13800208 4.95673606 8.91345907 0.00780334 0.00119531 -0.00099299
O 10.67612711 11.35884073 7.35818765 -0.00549762 0.00689466 0.00199067
O 15.00859586 7.43076063 31.82498954 -0.00688824 -0.00370786 0.00706731
O 10.53835973 11.38021386 32.10824957 0.00000804 -0.00106983 -0.00323057
O 14.79309750 7.66822794 7.16692148 0.00279719 -0.00076780 -0.00074219
O 15.29931422 0.89657586 8.98758826 -0.00232905 -0.00586098 0.00055183
O 10.24304602 5.06190484 17.29608214 0.00265696 -0.00074094 -0.00248354
O 14.34015742 2.03327795 23.53475420 -0.00187464 0.00250227 0.00811835
O 10.77493067 3.09888054 31.52218261 -0.00619280 -0.00548568 0.00072714
O 10.00504795 9.92336546 17.85141249 0.00244664 0.00276787 0.00468855
O 15.38750166 8.63202152 25.63567464 0.00014280 0.00343336 -0.00208827
O 11.49965614 9.97940439 26.15750960 0.00449038 -0.00345395 -0.00576617
O 14.80071815 9.03837278 17.19247006 0.00091618 0.00577902 0.00337074
O 15.21964227 2.65315865 31.92184876 0.00039178 -0.00334691 0.00052283
O 10.33035559 3.51424857 23.38605999 -0.00543061 -0.00416114 0.00460539
O 14.88905716 0.96739798 0.72611828 -0.00779221 -0.00257275 0.00138291
O 10.34268838 5.23994321 25.38328939 0.00024342 -0.00284155 -0.00117770
O 10.84900434 11.31873950 24.08947866 0.00455871 -0.00437437 0.00692775
O 14.93069624 7.28995865 15.28953790 0.00134748 -0.00765857 -0.00365338
O 10.56534272 11.15144149 15.70046350 -0.00126726 -0.00405720 -0.00295962
O 14.91122564 7.27300970 23.42197732 -0.00204905 0.00277593 0.00782051
O 15.09774967 1.15028688 25.83248753 0.00004921 -0.00097105 0.00216873
O 10.83664084 4.65277869 0.65232693 0.00256325 0.00331262 -0.00202052
O 14.63976810 15.62276763 6.94957972 -0.00053343 -0.00493079 -0.00773324
O 11.15844635 16.40973812 15.03094733 -0.00084572 0.00104871 -0.00136683
O 9.93738022 22.04259694 1.60441790 0.00364946 0.00176604 0.00072810
O 15.40829364 21.20321408 9.36593824 0.00135684 0.00173816 0.00164690
O 11.27505426 22.91638947 9.65230385 0.00133763 -0.00513532 -0.00229624
O 13.90496823 21.30494611 1.31451995 -0.00110807 0.00437737 0.00530913
O 15.08061385 15.91993778 15.17568534 -0.00641028 0.00146817 0.00011790
O 10.20560965 16.59934973 7.07513642 0.00174028 -0.00067040 -0.00243932
O 14.84685143 14.24354311 17.26677075 0.00596345 0.00073654 0.00027072
O 10.71914153 18.16905181 8.98795067 0.00085476 0.00416630 -0.00405139
O 10.82448562 24.34760943 7.41501462 0.00754386 -0.00241224 -0.00119971
O 15.00762072 20.05915279 32.21716297 0.00513771 -0.00529377 0.00905188
O 10.23288852 23.67358207 32.41691893 0.00111820 -0.01172054 -0.00026907
O 14.64583540 19.74202256 7.42715595 -0.00303622 -0.00011851 0.00330704
O 14.79774906 14.24410829 8.99041795 0.00155061 -0.00312857 0.00311786
O 10.73629944 17.81333837 17.06086527 -0.00004331 -0.00077188 0.00193929
O 14.53462762 14.88413900 23.45597710 -0.00209968 0.00572352 0.00063583
O 11.19142400 16.30663935 31.70347516 0.00548051 -0.00417407 0.00055599
O 10.65330650 22.87943887 17.69947002 -0.00245151 0.00502319 0.00267883
O 15.29105487 21.45671318 26.10164542 0.00082801 -0.00072674 0.00670784
O 11.04404604 22.70779194 26.03485491 0.00119599 -0.00245011 -0.00304206
O 14.30085623 21.66078403 17.97135604 0.00211199 -0.00614716 -0.00470847
O 15.53848417 15.25781452 31.61145914 0.00389204 -0.00446288 0.00701199
O 10.62656350 16.27144331 23.28880188 -0.00276814 0.00185923 0.00024988
O 15.48702959 14.01850213 0.74449137 -0.00624308 -0.00085907 -0.00403014
O 10.66859371 17.80649674 25.43343804 0.00081721 -0.00202878 -0.00244967
O 10.33725790 24.38893041 24.03024428 0.00253264 -0.00670046 0.00658955
O 15.14353935 20.67443243 15.74164520 0.00100984 0.00283514 0.00034883
O 11.12988271 24.38275926 15.69994067 -0.00182762 -0.00008648 0.00211595
O 14.70392634 19.87091878 24.08373119 0.00461007 -0.00488792 0.00007173
O 15.26871962 13.53484507 25.62464859 0.00071966 -0.00225129 -0.00366460
O 10.53822687 17.42137872 0.84998034 -0.00479674 -0.00372276 0.00418674
O 22.81252601 2.50265832 7.46614875 0.00199356 0.00237452 -0.00303946
O 20.44650483 3.43639707 15.05144910 0.00020478 0.00510582 -0.00133822
O 18.77298107 9.65844374 0.97664684 0.00705511 0.00367828 0.00289192
O 24.04173578 8.95328625 9.48917136 -0.00306056 -0.00368306 -0.00058109
O 20.16889023 9.81724706 9.29790105 -0.00080152 -0.00004119 -0.00002457
O 22.82258286 9.14340562 1.34050098 0.00084183 0.00619797 -0.00070706
O 24.07355096 2.68443584 15.38171460 0.00492402 -0.00341981 0.00030580
O 18.43766484 3.65344215 7.21033494 0.00504239 0.00197684 -0.00320577
O 23.54276363 1.63038181 17.64077681 0.00107244 -0.00194377 -0.00200693
O 18.82831671 4.99386825 9.30299063 -0.00097125 -0.00661791 0.00400219
O 19.79700652 11.20952812 7.04342340 -0.00359894 -0.00541233 0.00371994
O 23.40245269 7.79669440 32.21974233 -0.00224446 -0.00041440 0.00181524
O 18.99253478 11.14731805 32.00483612 -0.00212459 -0.00070678 -0.00284121
O 23.75236168 7.52985442 7.33107296 0.00522442 0.00455514 -0.00098796
O 23.82686720 0.95262851 9.23085746 -0.00351433 -0.00047663 -0.00367364
O 19.70502321 4.97065016 17.19579020 0.00140192 -0.00610911 -0.00086064
O 23.04603481 3.27144044 23.80268545 0.00153433 0.00135103 0.00042624
O 20.09469639 3.85257030 31.64778633 -0.00063865 -0.00274242 0.00471163
O 18.39432801 10.10401648 17.40533971 -0.00141392 0.00244106 -0.00037230
O 23.91312557 8.83689960 25.87756253 0.00165453 -0.00052065 -0.00116203
O 19.61565612 9.69386749 25.84367033 0.00385135 0.00062907 0.00728406
O 23.08900988 9.51622567 17.99177555 -0.00127098 -0.00458569 0.00139592
O 23.67003161 2.51930781 32.17348112 0.00322957 -0.00576178 -0.00029968
O 18.44579677 3.44502955 23.21338834 0.00466804 0.00232743 -0.00506627
O 23.03506050 1.11369506 1.31419806 0.00134164 0.00084910 0.00452033
O 18.97071724 4.92196141 25.21198168 0.00072389 0.00087463 -0.00285692
O 19.68622860 11.18766871 23.52515349 0.00357366 0.00160564 -0.00619977
O 22.97245771 7.81783630 15.90503821 0.00425218 -0.00363947 -0.00309787
O 18.91309172 11.57473025 15.17445207 0.00209388 -0.00059523 -0.00282165
O 23.22126995 7.57571168 23.87520429 -0.00056632 -0.00190277 -0.00259720
O 23.07342266 1.51698388 25.83821142 -0.00320614 0.00295728 0.00095936
O 19.42244732 4.60051454 0.99239605 -0.00034931 0.00777753 0.00150540
O 23.06753096 15.37076209 7.12981141 -0.00000413 -0.00126281 -0.00036870
O 19.90122026 16.70264605 14.90249847 -0.00040222 -0.00216027 -0.00579207
O 18.25934764 22.83929751 1.58173727 0.00474945 -0.00057384 0.00140630
O 23.99420099 21.34200076 9.55877478 0.00134381 0.00199219 0.00113921
O 19.67123682 22.62549386 9.68950831 0.00338975 -0.00273776 -0.00113469
O 22.54722939 21.41912419 1.00468247 -0.00615388 -0.00471947 -0.00447489
O 23.64186733 15.15956603 14.97373928 -0.00251573 0.00343706 -0.00216333
O 19.14239267 16.18318922 6.93783669 0.00085652 0.00317254 0.00695063
O 23.86812688 14.29711692 17.36271564 0.00635398 0.00167762 -0.00515095
O 19.26153455 17.92161684 8.86847732 0.00916453 0.00533957 0.00024650
O 19.05645553 24.27524650 7.66040554 0.00483871 -0.00156492 -0.00523371
O 23.49272808 20.17905233 32.11565647 0.00301954 -0.00272641 -0.00535484
O 18.84285296 24.11508144 32.37417531 0.00043379 0.00036403 0.00378174
O 23.21813370 20.22630586 7.39034763 -0.00112999 -0.00131337 -0.00765837
O 23.64824862 13.71407960 8.94273841 0.00342814 -0.00581537 0.00202589
O 19.44818019 17.81944245 17.32546807 -0.00452228 0.00108184 -0.00016645
O 23.09290261 15.18703656 23.65193630 0.00289131 0.00051711 -0.00108542
O 19.59914019 16.52563699 31.78404079 0.00701437 0.00209427 -0.00392688
O 19.24421481 22.96210506 18.01399292 0.00309931 -0.00324254 0.00014609
O 24.08188208 21.64100188 25.92919104 0.00259091 0.00234988 0.00130716
O 19.55047703 22.34959129 26.33470837 -0.00580391 -0.00475857 -0.00023086
O 23.12290265 21.60522684 17.68503746 -0.00031459 -0.00346522 -0.00599679
O 23.65980277 15.18989322 32.08016970 0.00509679 -0.00060929 0.00559075
O 19.00435329 16.24176685 23.56876718 0.00388542 0.00336116 -0.00464389
O 23.11223211 13.43050363 1.11154145 0.00219247 0.00421483 -0.00182963
O 19.60106136 17.81101135 25.53715103 0.00250452 0.00144397 -0.00008622
O 19.76028035 23.98958759 24.43906371 -0.00816451 0.00655185 -0.00564516
O 23.55576782 20.08156535 15.65772155 0.00105778 -0.00347135 -0.00491442
O 19.01309041 24.15048312 15.74178514 -0.00246093 0.00300920 -0.00082765
O 23.39388782 20.03182018 24.05310146 -0.00150009 -0.00426554 -0.00195721
O 23.87518467 14.06838084 25.79028768 -0.00352817 -0.00191527 -0.00077950
O 18.44504688 18.08114264 0.61984061 -0.00018344 0.00200782 -0.00114036
N 7.81143810 12.88353671 2.56222908 0.00376538 0.00228158 -0.00663951
N 1.21607209 6.35019493 10.42191630 -0.00140010 -0.00004650 -0.00495173
N 3.08850651 25.05206628 6.23123464 -0.00034603 0.00322788 -0.00302253
N 5.15346040 6.70667678 13.92354498 -0.00121337 -0.00363531 0.00436842
N 1.17225599 0.03691853 14.25888608 0.00010422 -0.00133779 0.00217128
N 7.36602056 6.33770867 5.86084290 -0.00039419 -0.00155550 0.00273336
N 5.63537219 12.56794960 10.98664202 -0.00708336 0.00037171 0.00307563
N 3.23370414 6.11461320 2.22019896 0.00274062 -0.00022444 -0.00447258
N 7.55489830 12.82872885 19.32583075 -0.00093412 0.00063954 -0.00643537
N 1.21976030 6.58581497 27.18764082 -0.00139530 -0.00386673 -0.00194951
N 3.02511537 0.26199117 22.62717498 0.00257756 0.00170086 0.00156273
N 5.01779755 6.63119019 30.52399358 -0.00514950 -0.00121488 -0.00611963
N 1.12080417 25.07926823 31.13758719 0.00024577 0.00469702 0.00240172
N 7.65793224 6.55704461 22.22266432 0.01114621 0.00746713 0.00966895
N 5.05994809 12.89362629 27.11005120 -0.00028056 -0.00176986 0.00034533
N 3.38127137 6.62392923 18.80010281 -0.00724322 -0.00327769 -0.00363521
N 7.52244086 25.05241068 2.39278845 -0.00159781 0.00140065 -0.00107663
N 0.80637620 18.80345068 10.29822935 0.00263236 -0.01022761 0.00640295
N 3.24345993 12.88309436 5.95993936 -0.00570808 -0.00074768 -0.00058001
N 5.08426294 19.25970980 13.93567146 0.00342399 -0.00038046 -0.00244655
N 1.22538913 13.09349384 14.02728103 0.00068909 0.00152663 -0.00776205
N 7.50523867 18.93989419 5.81799960 0.00222487 0.00400288 -0.00025297
N 5.14773239 0.26710651 10.90333737 0.00418601 -0.00055078 0.00181825
N 3.21575490 19.19209583 2.15465285 -0.00206011 -0.01017538 0.00814253
N 7.34413564 0.22501973 19.30618035 0.00286164 -0.00476851 -0.00629371
N 1.06789955 19.01168310 27.01583987 0.00218562 0.00429301 -0.00168537
N 3.21518244 12.70675617 22.52396186 0.00359692 0.00478070 -0.00515201
N 5.26072962 18.84761489 30.65954946 -0.00073720 0.00445587 0.00541898
N 0.67950991 12.39211195 31.00121904 -0.00582900 0.00920893 -0.00017241
N 7.85011982 19.49278827 22.46229101 -0.00050140 -0.00569245 0.00467901
N 5.05533982 25.30749289 27.13203061 0.00899655 -0.00575113 0.00358926
N 3.13693908 19.22258220 18.56031545 -0.00648767 0.00343471 0.00101001
N 15.97831469 12.62266836 2.51528695 0.00174367 -0.00425635 0.00932786
N 9.65911043 6.43237962 10.62029796 0.00271590 0.00232926 -0.00091032
N 11.85366116 0.03006308 5.62238720 0.00530339 -0.00025958 -0.00766128
N 13.69594194 6.29101659 13.61853453 -0.00498355 0.00942350 0.00511285
N 9.42737876 25.15401150 14.40975650 0.00337279 -0.00533137 -0.00510300
N 16.05839592 6.64682643 5.62310808 -0.00356548 -0.00102653 0.00471608
N 13.79670843 13.09631794 10.70144423 -0.00888867 0.00390962 0.00176407
N 11.85183384 5.92586844 2.26371976 0.00110553 -0.00093782 0.00207130
N 16.21728407 12.91983968 18.59433931 -0.00505008 0.00195134 -0.00271405
N 9.21243884 6.12927886 27.12967347 -0.00350738 -0.00116931 0.00546907
N 11.80814467 0.07044391 22.48495666 0.00455761 0.00358982 -0.00624962
N 13.33589579 6.71830708 30.53547858 0.00067101 0.00065756 0.00177565
N 9.53960224 25.09932504 30.81450548 0.00070731 0.00503361 0.00607194
N 15.96575791 6.07992379 21.76607057 0.00026420 0.00531240 -0.00197629
N 14.02553008 12.38301133 27.15721490 -0.00088443 -0.00483107 0.00117380
N 11.80378144 6.08494639 18.64673991 -0.00595782 -0.00344808 0.00496902
N 15.67083010 24.83332089 2.37244578 0.00169724 -0.00245913 -0.00127339
N 9.56107419 19.30051099 10.61587015 0.00562774 0.00345930 0.01339795
N 11.98429705 12.39929803 5.80221378 -0.00276009 0.00225123 -0.00556520
N 13.62163475 19.54374722 14.40380254 -0.00060285 -0.00467037 0.00440634
N 9.63218766 12.46593176 14.09321798 -0.00447472 -0.00102921 -0.00591214
N 16.09677516 19.01988627 5.82085659 0.00721331 0.00337314 -0.00065218
N 13.78214236 25.26145615 10.46729216 0.00015347 0.00121195 0.00037371
N 11.72615743 18.81011683 2.21439358 -0.00320028 -0.00404717 -0.00113347
N 16.22038057 25.30299200 18.73724832 -0.00029005 -0.00325154 0.00315301
N 9.40247809 18.64947572 27.15309276 0.00565351 -0.00579036 0.00172342
N 11.95032719 12.50665273 22.43611797 -0.00141856 0.00633825 -0.00897559
N 13.73842187 18.89763660 30.67221177 -0.00156072 0.00497932 -0.00015965
N 9.30673205 12.56499016 30.54761266 -0.01066002 -0.00277493 0.00145256
N 15.89148100 18.96019596 22.41763364 -0.00213204 0.00806004 -0.00013532
N 13.65355948 0.09719141 27.29611200 0.00140865 -0.00351568 0.00251581
N 11.89357116 19.02829033 18.65999996 -0.00737775 -0.00476597 -0.00056185
N 24.36027396 12.25770460 2.75071219 -0.00120183 0.00214389 0.00213958
N 17.62439021 5.86850302 10.94650364 0.00260444 -0.00821849 0.00841869
N 20.50845332 25.13742679 6.08344183 0.00760137 0.00551687 0.00412322
N 22.53219157 6.42835280 14.15348391 0.00467558 -0.00088983 0.00344824
N 18.01943344 0.14410501 14.04751857 0.00326419 0.00816792 0.00856956
N 24.79804969 6.28792215 5.64308301 -0.00134227 0.00199579 0.00322896
N 22.31034212 12.58543629 10.35148216 -0.00750251 0.00042682 0.00051143
N 20.52259097 5.80702397 2.55462381 0.00285640 -0.00754710 -0.00603586
N 24.87064326 12.89763359 18.92232187 -0.00164229 -0.00098506 0.00411435
N 17.80087176 5.83550895 26.97359204 0.00164460 0.00425812 -0.00248766
N 20.44637220 0.18465199 22.90638141 0.00070158 0.00320957 -0.00481934
N 22.24899462 6.49801296 30.72999745 -0.00026051 -0.00610203 0.00060904
N 17.78284065 25.05024135 30.67984145 0.00464414 0.00023492 -0.00640173
N 24.57473338 6.45369481 22.40179777 0.00541384 0.00340497 -0.00667169
N 22.22853567 13.12837645 27.10509823 -0.00187046 -0.00472360 0.00591180
N 20.52164338 6.09365434 18.91257850 -0.00223226 0.00398290 0.00130851
N 24.45571558 0.09385368 2.70232696 0.00845362 -0.00030742 -0.00316755
N 18.02321504 19.15028419 10.30746605 0.00134601 -0.00094714 -0.00256311
N 20.28516345 12.59658914 5.33129172 0.00251488 -0.00094365 0.00327502
N 22.24323482 18.84633197 14.19507623 0.00193739 -0.00254375 0.00514393
N 17.77317447 12.57032539 13.46903690 0.00247102 -0.00092493 0.01318239
N 24.34188653 19.05040095 5.78744110 0.00461222 -0.00354105 0.00302441
N 22.51964408 0.01802234 10.84439148 0.00040222 -0.00416023 -0.00171363
N 19.88631751 19.01191962 2.14654625 -0.00307896 -0.00877282 -0.00301653
N 24.58952769 0.44574190 19.29591541 -0.00368679 0.00257819 -0.00110285
N 18.00951461 18.68866223 26.94881900 -0.00423850 0.00214739 -0.00432401
N 20.69154321 12.42409112 21.88022934 0.00099030 0.00137731 -0.00455912
N 22.10488357 19.27914771 30.56716852 0.00442399 -0.00267004 0.00312135
N 17.97647316 12.47157488 30.39643043 -0.01025484 0.00573685 0.00111725
N 24.79918598 19.30317993 22.39587932 0.00020853 0.00646883 -0.00038218
N 22.23634771 0.13598137 27.44961801 -0.00108597 0.00041716 0.00011106
N 20.45672751 19.04262567 19.06832878 -0.00406973 -0.00216147 0.00070631
C 7.51068523 0.02372325 4.76654329 -0.00202459 -0.00366871 -0.00289868
C 0.92621352 6.10477428 12.73903098 -0.00177342 -0.00179861 -0.00192170
C 3.41610918 12.58388335 3.54859233 0.00722351 -0.00216058 0.00650926
C 5.11762212 6.97794521 11.58694619 0.00833337 0.00059845 0.00928930
C 1.08454804 12.71524523 11.60899030 0.00483722 -0.00851927 0.00463260
C 7.55842183 6.69889506 3.47513270 -0.00053773 -0.00658984 0.00125494
C 5.24870474 0.49596706 13.28877893 -0.00318490 0.00401322 -0.00191888
C 3.30365214 5.76873890 4.61674466 -0.01031483 0.00072986 -0.00391983
C 7.10929761 0.58697641 5.93974107 -0.00243040 -0.00320475 -0.00013626
C 1.40566112 5.57814681 13.90900010 0.00096545 -0.00648203 0.00283941
C 3.00566876 11.90603572 2.44010898 0.00485507 -0.00107295 -0.00736474
C 5.62580076 7.47126144 10.38644070 -0.00077028 -0.00157295 -0.00586360
C 1.28385998 11.93315199 10.50332734 -0.00010882 -0.00036593 -0.00503679
C 7.21635745 7.24157893 2.28398980 0.00292243 -0.00044097 -0.00156463
C 5.76972655 1.10906877 14.39629387 0.00011483 0.00457772 0.00890932
C 3.01178561 5.01839412 5.70190790 -0.00371743 0.00354278 0.00466080
C 6.51692138 1.88231497 5.82726888 0.00285758 -0.00339005 0.00143881
C 2.17689233 4.38330164 13.93401766 0.00218049 0.00407459 0.00543733
C 2.35168086 10.68420433 2.41633495 0.00264934 -0.00870250 -0.00383286
C 6.49146846 8.54639199 10.39088313 -0.00335888 0.00227625 -0.00379213
C 1.97907798 10.72282145 10.67830579 -0.00136288 0.00495595 0.00868773
C 6.39543274 8.32392531 2.34183901 -0.00622056 -0.00116443 -0.00489319
C 6.58795393 2.24721512 14.36020518 -0.00329658 0.00460151 -0.00044344
C 2.18823793 3.79382631 5.64067470 -0.00067953 -0.00344276 -0.00281922
C 6.20821435 2.41036034 4.62773649 0.00567170 -0.00457660 -0.00479108
C 2.37840572 3.73311340 12.73679545 -0.00515579 0.00080639 -0.00614691
C 2.05855838 10.13881579 3.67271141 -0.00991490 0.00516059 0.00132432
C 6.65301318 9.27430706 11.61455633 0.00083641 0.00305897 0.00081680
C 2.31449887 10.31042611 11.95012815 -0.00014204 0.00088422 0.00460208
C 6.08623597 8.89142488 3.57189155 -0.00104315 -0.00086507 0.00514429
C 6.79042567 2.80288557 13.10021708 0.00274860 -0.00615259 -0.00309844
C 1.74206498 3.46413097 4.37702308 0.00267154 0.00526276 -0.00298613
C 6.51200267 1.80408953 3.39419902 0.00182456 -0.00692214 -0.00432657
C 1.99655434 4.35466181 11.49757953 0.00149149 0.00103618 -0.00405806
C 2.44709099 10.87180467 4.79374071 -0.00034929 0.00098569 0.00469895
C 6.12052591 8.79544360 12.78938502 0.00221797 -0.00169161 0.00507172
C 2.00506407 11.03897641 13.07128448 0.00482711 -0.00238415 0.00148479
C 6.20101845 8.14200628 4.70427855 0.00255359 0.00814117 0.00730808
C 6.30495785 2.21652996 11.94759413 -0.00035862 0.00239675 -0.00312938
C 2.19974574 4.06937516 3.25616940 -0.00117444 -0.00220513 0.01018597
C 7.23877050 0.57458894 3.51227475 0.00135256 -0.00531235 -0.00594205
C 1.38227405 5.57562429 11.49090062 0.00393502 -0.00348804 -0.00294821
C 3.06331021 12.13554509 4.81796993 0.00440036 -0.00016443 0.00624179
C 5.38165395 7.51301690 12.82304788 0.00006805 -0.00173320 0.00241136
C 1.40932639 12.31426509 12.90991941 -0.00728916 -0.00003855 0.00457393
C 7.10495604 7.09800177 4.69971546 -0.00865559 -0.00333806 0.00387474
C 5.56247603 0.97476711 11.99736856 0.00219174 -0.00748547 0.00523334
C 2.89917546 5.36824737 3.35014004 -0.00764949 -0.01170658 0.00419541
C 6.95181798 25.19604711 1.17968470 0.00451759 0.00319541 -0.00563313
C 1.58971001 6.05104665 9.17244123 0.00380795 0.00205701 -0.00120361
C 2.95737427 12.41781787 7.15857327 -0.00635644 -0.00239293 -0.00992312
C 5.82395187 6.78539485 15.10865822 0.00231087 -0.00561026 0.00151356
C 1.59748993 12.91973598 15.33912938 0.00702568 -0.00000870 0.00158684
C 6.85049155 6.57118481 7.11716286 -0.00965573 0.00454564 0.00037564
C 5.69874257 0.34388212 9.64726256 -0.00511451 -0.00287789 -0.00182885
C 2.67329597 5.90295766 0.97616987 -0.00630071 0.00278102 -0.00304057
C 7.22119224 11.76554321 17.06889050 -0.00058806 -0.00133539 -0.00348793
C 1.48850578 7.13476568 8.13544288 0.00746449 -0.00052938 0.00000833
C 2.67359297 0.76927286 8.38828690 0.00029149 0.00127257 -0.00010294
C 5.59933132 5.38850897 32.51484525 0.01337241 0.00231020 -0.00681160
C 1.59564625 0.45552961 0.39665373 -0.01303980 0.00555804 -0.00423772
C 6.85287954 5.32686263 8.01563825 -0.00409949 -0.00252027 -0.00379396
C 5.68878081 11.92617589 8.63933297 0.00602671 -0.00054716 -0.00359974
C 3.04634808 7.66371200 16.60303659 -0.00590504 -0.00895966 -0.00263094
C 7.50941592 0.59252340 21.66384796 -0.00536949 0.00369080 -0.00162229
C 1.00917217 6.06153070 29.51767377 0.00084592 -0.00110795 0.00067086
C 3.50251112 12.39286013 20.21802786 0.00147580 -0.00775240 0.00349754
C 5.00006570 6.93802997 28.11497265 -0.00652210 -0.00321286 0.00204228
C 0.64826281 12.43301189 28.62439238 -0.00670870 0.00611107 -0.00395495
C 7.62675091 6.83039040 19.82855503 -0.00112593 0.00279459 -0.00979381
C 5.05470127 0.19733484 29.55827813 -0.00708232 0.00352752 0.00007729
C 3.48242266 6.07595479 21.15504437 0.00570695 -0.00004221 -0.00683455
C 7.00944552 1.15055679 22.81237517 -0.00128580 0.00577308 -0.00591518
C 1.21985080 5.26079301 30.58983548 0.01048415 -0.00314410 -0.00036285
C 3.17701979 11.85126390 18.97893958 0.00020887 -0.00046841 -0.00283618
C 5.48343302 7.48461535 26.94891716 -0.00553700 0.00458719 0.00449940
C 1.26577531 12.05265884 27.39134111 0.00491848 0.00000493 -0.00577574
C 7.22950745 7.45805197 18.61359713 0.00306772 0.00158019 -0.00238145
C 5.45727555 0.82816309 30.71914282 0.00113576 0.00063932 0.00008914
C 2.99843122 5.45925414 22.25540954 -0.00646217 0.00196101 0.00025571
C 6.26664779 2.29077806 22.81408804 -0.00104049 -0.00212217 -0.00150922
C 1.96826438 4.09395976 30.50892612 0.00808738 -0.00372247 -0.00560737
C 2.33570586 10.68401557 18.89084214 -0.00513364 -0.00401914 -0.00313463
C 6.29059163 8.63417833 27.05832772 -0.00009058 -0.00155222 0.00219466
C 2.19896954 10.92242822 27.35071325 0.00197498 -0.00662876 0.00077711
C 6.34104488 8.57384289 18.71683309 0.00046300 0.00165480 0.00078373
C 6.27419380 1.98513884 30.65834474 -0.00476720 0.00729272 -0.01179205
C 2.17210815 4.29256363 22.13927372 0.00261577 0.00232841 0.00514441
C 6.04784101 2.87860737 21.56300372 -0.00604995 0.00644236 0.00499660
C 2.39469482 3.76664860 29.24006576 0.00211966 0.00209170 -0.00884584
C 1.91380365 10.09935889 20.16791137 -0.00550836 0.00517357 0.00880175
C 6.67276588 9.11824005 28.32152261 0.00450424 -0.00366463 0.00069794
C 2.45608857 10.27061536 28.56201055 0.00074813 -0.00700497 -0.00639725
C 6.15421932 9.09071827 20.02030524 -0.00164353 0.00347290 -0.00124877
C 6.37721793 2.64693017 29.46797407 0.00145127 0.00719252 0.00311852
C 1.83336721 3.87012269 20.89544953 0.00215797 -0.01059142 0.00501623
C 6.28428612 2.24156896 20.38466822 0.00258897 -0.00837653 -0.00433390
C 2.08906076 4.49012517 28.09427351 0.00143069 -0.00368838 -0.00877825
C 2.22217421 10.63715125 21.36330748 -0.00264506 0.00509267 -0.00121335
C 6.28147219 8.43097330 29.46948651 0.00119772 0.00394503 -0.00113289
C 1.92629034 10.72434552 29.79412418 0.00265967 0.00397433 0.00394115
C 6.67050906 8.61322216 21.16616513 0.00334561 0.00796040 -0.00098391
C 5.83078701 2.11806115 28.26897401 -0.00854421 0.00131634 0.00042359
C 2.19395393 4.66817780 19.80401695 0.00199285 -0.00602611 -0.00668604
C 7.03040114 1.00457859 20.40094127 0.00389660 0.01159753 -0.00348107
C 1.41806530 5.72930740 28.24829244 0.00133806 0.00541506 -0.00987060
C 3.03738636 11.81290782 21.42794905 0.00066226 -0.00323871 -0.00329190
C 5.44925028 7.32395911 29.40447732 -0.00475773 -0.00269051 0.00025659
C 1.15334528 11.88972616 29.78630623 -0.00560238 -0.00034440 0.00137140
C 7.29101493 7.37977207 21.07283782 -0.00213515 0.00550047 -0.00121710
C 5.26565846 0.75772051 28.29046331 -0.00782777 0.00399040 -0.00309280
C 2.96704975 5.83214675 19.87025176 0.00788749 0.00965060 -0.00289833
C 7.05172227 0.48885110 18.03220372 -0.00327528 0.00297470 -0.00510322
C 1.78071132 6.43236958 25.98076862 0.00153902 -0.00021668 -0.00868918
C 2.61356938 12.50689353 23.68479970 -0.00310624 0.00057223 0.00211645
C 5.72360473 6.61226273 31.71078680 -0.00082283 -0.00369747 0.00281004
C 1.53525073 12.55387824 32.08881115 -0.00476829 0.00459070 0.00202859
C 7.02522756 6.69481201 23.41179182 0.00217218 -0.00473847 0.00236081
C 5.71932686 0.17848721 25.96733183 0.00129618 -0.00532231 0.00189212
C 2.84997625 6.47643531 17.54388147 0.00385712 -0.00809279 -0.00727693
C 6.93179673 11.62165066 0.65753236 0.00419112 -0.00139764 -0.00386497
C 1.90240903 7.66951527 25.14979153 0.00557646 0.00306781 0.00103101
C 2.90600247 1.34856617 24.85286932 -0.00073569 -0.00077627 -0.00282825
C 5.59378402 5.68864148 16.09738019 0.00081041 -0.00168532 0.00125275
C 1.46314430 1.11319505 16.30195263 -0.00374299 0.00223837 0.00363204
C 7.05594347 5.42451160 24.24741338 -0.00384898 0.00006211 0.00494118
C 5.84807374 11.99479705 24.96811950 -0.00395414 0.00371880 -0.00423325