1920
Time=89000.00000004 pbc="T T T" Lattice="25.52354119 0.00000000 0.00000000 0.00000000 25.76546156 0.00000000 0.00000000 0.00000000 32.74025665" energy=-12246.93151057 virial="-84.19662709 -1.97788261 10.48635110 -1.97788261 -91.96090488 -4.90039612 10.48635110 -4.90039612 -101.27340349" stress="-0.00171781 -0.00004308 0.00045705 -0.00004308 -0.00192904 -0.00029320 0.00045705 -0.00029320 -0.00228584" Properties=species:S:1:pos:R:3:vel:R:3
O 6.26674199 2.72565748 7.32446166 -0.00361583 -0.00232292 -0.00407951
O 2.90279871 3.43087530 14.99197675 -0.00027396 -0.00520903 -0.00374043
O 1.57474564 9.69114142 1.65871954 -0.00176309 0.00476765 -0.00235129
O 6.99118518 9.17035868 9.67582338 -0.00549658 -0.00071207 0.00050741
O 2.81636019 10.25164499 9.79193357 -0.00186053 -0.00666665 -0.00151589
O 6.20159077 9.25691642 1.20097190 0.00271887 -0.00637193 -0.00458883
O 6.91827267 2.63632749 14.99532837 -0.00068265 0.01035915 -0.00593152
O 1.45009258 4.39054059 6.97358458 0.00559429 -0.00259099 -0.00700459
O 6.51351294 1.39518764 17.16193495 -0.00241012 0.00492298 -0.00562776
O 2.55478760 5.44313057 8.92025342 -0.00100869 0.00614329 -0.00313932
O 2.49069897 11.69615868 7.75098897 -0.00004588 -0.00246271 0.00583335
O 6.15755226 7.43340265 32.10679326 0.00054790 -0.00454333 0.00260391
O 2.02897625 11.67144680 32.21871397 0.00658029 0.00764907 -0.00468753
O 6.36990344 7.62122696 7.57901699 -0.00189404 0.00567826 -0.00161243
O 6.98423195 1.09393775 9.04565335 0.00232360 -0.00164253 -0.00351424
O 2.73214866 4.83857748 17.17459319 -0.00226572 -0.00058289 0.00489602
O 5.88470384 3.15186235 23.17992298 0.00835644 0.00393000 0.00517896
O 2.68581597 3.39655577 31.22741235 0.00280677 -0.00069955 -0.00553195
O 1.96557974 9.95828233 17.95652976 -0.00609968 -0.00031130 0.00047156
O 6.56732526 9.70326708 26.09211851 -0.00092419 0.00289177 -0.00001857
O 2.43492817 10.24475010 25.99834379 0.00125969 0.00208231 0.00239485
O 6.11053808 9.20189386 17.86388070 -0.00004003 -0.00184946 -0.00869845
O 6.74466503 2.73040026 31.42065654 0.00253386 0.00208863 0.00195612
O 1.77433908 3.65732592 23.28319672 0.00065313 0.00035860 -0.00509108
O 6.18237422 1.55540741 0.92203975 0.00160376 -0.00013812 0.00122818
O 1.52592099 5.29386577 25.29327895 -0.00044382 0.00241242 0.00221543
O 1.64085570 11.82469154 23.94658598 -0.00092240 0.00386949 -0.00227505
O 6.00333864 7.61405663 15.75796401 -0.00657993 -0.00363156 -0.00440622
O 2.10778335 11.47758006 15.98701188 0.00141096 0.00352602 -0.00282594
O 6.14872707 7.93105383 24.11469856 0.00158131 -0.00038539 -0.00263531
O 6.03550266 1.50796396 25.12603215 0.00336160 0.00460481 -0.00261138
O 2.59276696 5.10305813 0.67847419 0.00087148 -0.00018924 0.00265870
O 5.94047033 15.40564180 7.12547796 -0.00358123 -0.00355864 -0.00622210
O 2.44579544 16.48580114 14.89952070 -0.00453334 -0.00090468 0.00538832
O 1.24903833 22.76086655 1.30698673 -0.00088715 -0.00564915 0.00089220
O 7.05913680 21.91236805 9.26518698 0.00551481 0.00311643 0.00549374
O 2.87882854 22.81977573 9.03218592 0.00544690 -0.00732084 0.00335801
O 5.61005393 21.96795978 1.25595853 -0.00313023 -0.00129693 0.00678827
O 6.75342889 16.12034932 15.16447753 -0.00298496 -0.00161010 0.00218338
O 1.46382117 16.64199439 6.70867162 -0.00573788 0.00320610 -0.00413105
O 6.92376752 14.33026092 16.98805874 -0.00280692 -0.00097807 0.00373964
O 2.15723904 17.85924022 8.82503503 -0.00016103 -0.00153765 -0.00144586
O 2.53257922 24.64074930 7.23453931 0.00329021 0.00035854 0.00368549
O 6.46771616 20.83887918 31.82326408 -0.00371045 0.00123942 -0.00143660
O 1.58194451 24.33402741 31.89615988 -0.00106663 0.00066805 -0.00270724
O 6.33037766 20.41013861 7.30111536 0.00243836 -0.00292610 0.01250432
O 6.64601314 14.00589622 9.21290428 -0.00042173 -0.00161777 -0.00415706
O 1.98103315 18.00891510 16.85498139 0.00068854 0.00230688 -0.00144357
O 5.80511876 15.94987591 23.01331857 0.00463982 0.00296664 -0.00093939
O 2.49037211 16.36429071 31.37190207 0.00012190 -0.00001586 0.00296518
O 1.73768128 22.95922101 17.50303476 0.00235991 -0.00232476 -0.00364943
O 6.88997379 22.26561184 25.59126667 -0.00353472 0.00245656 0.00261609
O 2.95405591 22.79408320 25.84243182 0.00004528 -0.00155872 0.00156969
O 5.46812515 22.45547800 17.64781533 -0.00362951 0.00137335 0.00629543
O 6.56963507 15.48482973 31.44794572 -0.00126729 -0.00114707 -0.00581591
O 1.82177161 16.33435373 22.91248852 -0.00426495 0.00304770 -0.00095784
O 6.50579467 14.10507079 1.02219363 -0.00083802 -0.00481959 0.00576752
O 2.31669625 17.96604933 24.95082486 0.00061394 0.00126118 -0.00064270
O 2.15356468 24.14602217 23.77248870 0.00396238 -0.00202374 0.00017183
O 5.73551321 20.93195765 15.60046074 0.00351001 0.00353929 0.00253994
O 1.97083703 24.43731547 15.31124178 0.00463626 -0.00374619 0.00514741
O 6.58682715 20.70639125 23.53560614 -0.00013939 -0.00157558 -0.00283379
O 6.34313574 14.47265208 25.03816531 0.00036257 0.00011017 0.00599023
O 2.06676047 17.88293298 0.66713994 0.00194465 0.00064750 0.00403792
O 14.53800909 3.04312596 6.81181170 -0.00469354 0.00180559 0.00229596
O 11.06581545 3.77825630 15.45894233 0.00195301 -0.00535694 0.00488866
O 10.21396797 10.28627175 1.25047251 -0.00073639 -0.00039811 0.00065864
O 15.95741069 9.06211885 9.63810914 0.00244124 0.00417863 -0.00294939
O 11.47739663 10.34090407 9.80454984 0.00442884 0.00080317 -0.00018543
O 14.81402052 9.08988716 1.67152395 -0.00180751 0.00110068 -0.00442434
O 14.93327658 2.82735960 14.95627337 0.00362976 -0.00422900 -0.00085219
O 10.47335428 3.50897138 7.42175707 -0.00507006 0.00264286 0.00138386
O 14.96493009 1.00598954 16.80914214 0.00009432 -0.00220735 0.00037845
O 10.92300841 5.27486196 9.26371810 0.00698577 -0.00243364 0.00197054
O 10.93247593 11.40089381 7.68016952 -0.00191565 0.00368437 -0.00518059
O 14.73771771 7.75262514 32.18149226 -0.00424884 -0.00462749 0.00855087
O 10.84891128 11.71556728 31.85942607 0.00234333 -0.00313365 -0.00741723
O 15.36364459 7.52956057 7.79016792 0.00065514 0.00185124 -0.00104970
O 14.83940721 1.37768486 8.77510179 -0.00021547 0.00285022 0.00024495
O 10.28278035 5.60816104 17.42774745 -0.00423103 0.00021860 -0.00128061
O 14.53146295 3.19660210 22.96131588 0.00586847 0.00579886 -0.00377939
O 10.58311820 3.95782394 31.76865908 -0.00151319 -0.00078464 -0.00374161
O 9.90022392 10.27460651 17.71800356 -0.00209106 0.00454827 -0.00795899
O 15.26040384 9.44310492 25.87935473 -0.00529637 0.00091752 0.00091698
O 11.06459512 10.55438470 25.60720615 0.00601538 -0.00490382 0.00448384
O 14.61736333 9.41169051 17.85701623 0.00289213 -0.00151961 0.00183750
O 15.56933889 2.25039039 31.55522656 0.00118090 -0.00008224 0.00612414
O 9.32920464 3.74943148 23.45803971 -0.00224660 -0.00325657 0.00621529
O 14.58916497 0.86473743 0.87359932 -0.00223078 0.00246567 0.00262341
O 10.11122289 5.15873831 25.44159554 -0.00777568 -0.00185626 0.00293772
O 10.46731828 12.15121615 23.87418742 0.00877883 0.00386944 -0.00173389
O 14.82450865 7.86619412 15.78599239 -0.00502208 -0.00389130 0.00548041
O 10.57772931 11.72176993 15.76966690 -0.00214940 0.00121213 0.00255771
O 15.27563362 7.73971659 24.07862081 0.00609945 0.00319072 -0.00390694
O 14.45810558 1.71293404 25.08165122 -0.00377141 0.00206539 -0.00736179
O 10.64768651 5.20653307 1.27782823 -0.00394949 0.00100179 0.00196664
O 14.25741656 15.26577366 6.87993060 -0.00188734 -0.00050640 -0.00311081
O 11.05585618 16.30222130 14.47490424 -0.00339031 0.00029163 -0.00574768
O 9.77478984 23.29060274 1.20162061 0.00462625 0.00627320 0.00234605
O 15.51339406 22.03030703 9.16167950 0.00527050 0.00041434 -0.00219828
O 11.39682380 23.20297385 9.19513168 -0.00033082 -0.00094833 0.00605639
O 14.41304375 22.13880432 0.89050505 -0.00709919 0.00045218 0.00323316
O 15.74038193 15.48566486 15.17726562 0.00270637 0.00561093 0.00281670
O 10.32260206 16.13995509 6.61621375 0.00247960 0.00204206 -0.00205326
O 14.72023743 14.24144639 17.20910599 0.00756998 -0.00188923 -0.00798337
O 10.56875610 18.22209039 8.49929822 -0.00223122 -0.00400200 -0.00261016
O 10.41253208 24.48195570 7.21312882 -0.00694655 0.00031387 -0.00743315
O 15.13955184 20.61418820 31.75228101 -0.00068867 -0.00143063 0.00384913
O 10.54451717 24.63149492 31.79075263 0.00403621 -0.00386734 0.00906602
O 15.00185507 20.42284114 7.10838959 0.00928152 -0.00247989 0.00384510
O 14.98249340 13.94252808 9.07343012 0.00141688 0.00141752 -0.00098489
O 10.76487086 17.97718504 16.66637064 0.00711670 -0.00293464 0.00038083
O 14.06778140 15.40479518 23.40589132 -0.00443798 0.00337044 -0.00127388
O 11.43772403 16.71601589 31.35637224 -0.00826887 -0.00374090 0.00060472
O 10.08174302 22.98407750 17.52877829 -0.00495940 -0.00596798 -0.00552291
O 15.47593506 22.32353207 25.63337711 0.00581834 0.00080261 0.00637776
O 11.18903702 23.06635029 25.93207578 0.00338274 0.00128573 -0.00040293
O 14.06702285 21.94600838 17.33290538 -0.00069126 0.00098511 0.00653952
O 15.54602192 15.75316863 31.35123787 0.00170689 -0.01038760 0.00207601
O 9.93169728 17.08406576 22.99690869 0.00986928 -0.00176674 -0.00578335
O 15.60539223 13.95198044 0.47509730 -0.00020743 0.00279060 0.00028189
O 10.60484148 18.15622590 25.09998485 0.00454629 0.00519935 -0.00350966
O 11.02762261 24.49626284 23.81459872 0.00715608 0.00191248 -0.00195822
O 14.80646044 20.69357937 15.26229531 -0.00871610 0.00830564 0.00395334
O 10.50819395 24.34927545 15.39128534 0.00116428 0.00126325 0.00526687
O 14.47042472 20.50364516 23.45032483 0.00063652 0.00354471 -0.00519955
O 14.86384549 14.00234522 25.50107612 -0.00062240 0.00212244 0.00198027
O 10.66259101 18.22960926 0.50320073 -0.00249761 -0.00480483 0.00225549
O 23.39067030 2.59730601 6.85214476 -0.00625793 -0.00478053 -0.00701614
O 19.77009588 3.85282235 15.44380388 -0.00013599 0.00597428 0.00161720
O 18.77960493 10.20313651 1.45272251 0.00359447 0.00102537 -0.00350448
O 24.23285531 9.00788702 9.77857571 -0.00371123 0.00669110 -0.00440925
O 19.67085100 10.12798829 9.61809734 -0.00463566 -0.00097340 0.00308068
O 22.87173404 8.93414499 1.63107989 -0.00423628 0.00214179 -0.00007413
O 24.15919622 3.29153497 14.88094525 0.00683999 0.00342278 0.00368079
O 18.89202671 3.69226504 7.22290263 0.00202205 -0.00139075 -0.00117070
O 24.06068223 1.59349723 16.86840382 0.00018696 -0.00161601 -0.00328615
O 19.73403817 5.33188031 9.34811909 0.00106812 0.00927065 -0.00344036
O 18.91306738 11.85627074 7.81817868 0.00340795 0.00315768 -0.00270654
O 23.24553662 7.43677612 32.27133824 0.00483550 0.00441065 -0.00163022
O 19.38395578 11.60973997 31.95229269 0.00022555 -0.00255138 -0.00263577
O 23.27056202 7.65534115 7.69163043 0.00046031 -0.00485216 -0.00357678
O 23.78922902 1.04472405 9.00450502 -0.00141720 0.00417060 -0.00188868
O 18.71094385 5.25442771 17.37182528 0.00175159 0.00845308 0.00462146
O 22.76164652 2.86521713 22.84354377 -0.00499419 -0.00636088 -0.00041706
O 19.45307416 3.87827294 31.65491278 -0.00423042 -0.00746011 0.00720521
O 19.07830626 9.88581242 17.81620795 -0.00624521 -0.00061778 0.00455146
O 23.94035290 9.30221111 26.22409091 -0.00299419 0.00829963 -0.00040632
O 19.45432682 10.23200799 26.01714820 0.00026976 0.00013195 0.00401927
O 23.22506591 9.34258421 18.06987684 0.00695692 0.00104385 -0.00158473
O 23.60281832 2.86685483 31.33006462 -0.00177139 -0.00255428 0.00385473
O 18.63427348 3.46209719 23.44987080 0.00076649 -0.00001932 0.00088648
O 23.34835903 0.88881987 0.72868126 0.00327628 -0.00121274 0.00342749
O 18.82383036 5.13457890 25.31282162 0.00907916 -0.00444798 0.00428489
O 18.85976926 11.72683970 24.01529366 0.00327309 0.00171204 -0.00078246
O 23.38021455 7.72871678 15.95437993 -0.00125923 0.00058506 0.00007791
O 19.51777173 11.54183415 15.87407283 0.00090050 -0.00899341 0.00610856
O 23.65471604 7.55328850 24.14403380 -0.00069933 0.00011195 -0.00041190
O 23.35679530 1.55042605 24.95684110 -0.00518699 -0.00125731 -0.00181817
O 19.00501335 5.17821170 1.16786867 0.00326217 0.00617385 0.00480199
O 22.80733838 15.15707805 7.43554030 0.00761258 -0.00811922 0.00222497
O 19.56990787 16.42834796 14.73346079 0.00109238 0.00267073 -0.00051766
O 19.04566828 22.90437735 1.26625865 -0.00166685 0.00525192 0.00346856
O 23.92327204 21.85204931 8.85494479 -0.00232993 0.00546441 0.00004147
O 19.51647219 22.79567441 9.07293405 0.00046039 0.00386378 -0.00330738
O 22.59767483 21.76208847 1.03769425 0.00653954 -0.00333405 0.00197703
O 24.14527041 16.00055263 15.38998011 0.00320192 0.00034557 -0.00058563
O 18.72850285 16.76505302 6.88913022 -0.00142389 0.00101913 0.00163795
O 23.54756637 14.28504086 17.54405584 -0.00076578 -0.00490058 0.00906406
O 19.44390543 18.29005474 8.72009831 0.00007606 -0.00297678 -0.00137097
O 19.17480640 24.59435138 7.46516824 0.00216979 -0.00115746 0.00079345
O 23.09323184 20.61822069 31.59313056 -0.00257434 0.00471378 0.00493025
O 19.31940314 24.39176745 31.80814160 0.00614682 0.00318458 -0.00128508
O 23.15534850 20.11932911 7.09232262 0.00123564 -0.00832041 -0.00056496
O 23.60611898 13.97415584 9.42230042 -0.00305010 -0.00288942 -0.00309484
O 18.96252748 17.96429850 16.81111336 -0.00589410 0.00106021 0.00684724
O 22.36183053 15.21862891 23.75287639 0.00394213 -0.00658715 0.00339613
O 19.42662075 16.35036682 31.21297969 0.00196178 0.00205200 -0.00019002
O 18.57708881 22.84927269 17.68350165 0.00054117 0.00097856 0.00689624
O 23.51584423 22.14677448 25.47228931 0.00018446 0.00488982 -0.00662691
O 19.94173866 23.52568912 25.58608648 0.00288394 0.00309858 0.00025447
O 23.09653397 22.51740590 17.60530494 -0.00075232 0.00256915 0.00371054
O 24.19490241 15.60074072 31.68738196 -0.00084312 0.00530930 -0.00216764
O 18.93279603 16.74091471 23.22148323 0.00000355 0.00680898 0.00156257
O 23.91165727 14.32435540 1.13001914 -0.00105171 -0.00738572 0.00935306
O 19.24029344 18.30281821 25.20052281 -0.00098167 -0.00577049 0.00602326
O 18.96385835 24.88141698 23.69348699 0.00745121 0.00614580 0.00157434
O 23.28559167 20.86909669 15.47860071 0.00410211 -0.00053021 0.00028438
O 19.17842149 24.36261626 15.48410138 -0.00549801 0.00113323 0.00197890
O 23.30951860 20.35726196 23.52158060 0.00135460 -0.00441127 0.00107755
O 23.29752575 13.81935697 25.70280017 -0.00017675 -0.00038057 0.00103353
O 18.93238957 17.87004515 0.54789178 0.00368016 0.00718575 0.00028940
N 7.64839511 12.87980041 2.53626241 -0.00131818 0.00270616 -0.00213263
N 1.41754338 6.40520552 10.63150600 0.00251604 -0.00286954 0.00489800
N 3.48377467 25.67423891 5.48726587 0.00255826 -0.00017064 -0.00252397
N 5.10134215 6.23191511 14.08493583 0.01004728 -0.00505118 -0.00154670
N 0.78422979 25.31061030 13.57138006 0.00498238 -0.00569675 0.00369664
N 7.64228606 6.71511559 5.91786053 -0.00386227 -0.00139158 -0.00670114
N 5.33228617 13.09348755 10.87498613 0.00642058 0.00219170 -0.00066649
N 3.34371106 6.49075169 2.33287687 -0.00457763 -0.00556734 0.00158358
N 7.67788352 12.94566319 18.68876771 -0.00241381 0.00406001 0.00166801
N 0.66703795 6.47242249 27.07608361 0.00283692 -0.00243419 0.01045993
N 2.98514828 25.47346199 22.21551060 -0.00541392 0.00053894 0.00390194
N 5.16709237 6.36095941 30.32040180 0.00211660 0.00344948 -0.00360732
N 0.57534443 25.34581897 30.08490865 0.00739050 -0.00066717 0.00495386
N 7.27365047 6.62833314 22.60084015 -0.00061838 0.00231919 -0.00689678
N 5.37103511 13.06046585 26.57902339 -0.00341748 -0.00914899 -0.00004807
N 3.24559304 6.46465583 18.72188853 -0.00132192 0.00550308 0.00027320
N 7.38637061 0.36779640 2.39504943 0.00020834 -0.00314264 -0.00134556
N 0.76458060 18.96652607 10.29158517 -0.00059570 0.00393071 -0.00098322
N 3.50255379 12.72968187 5.87887327 0.00065676 0.00043119 -0.00792934
N 5.20108694 19.51496089 13.88102975 -0.00230382 0.00687080 0.00261346
N 0.76319376 12.51919906 14.33880915 -0.00902542 0.00077159 -0.00302383
N 7.67442731 19.42366207 5.68331133 -0.00086624 -0.00506372 0.00039282
N 5.38147629 0.03795572 10.39310528 0.00383994 0.00249362 0.00484642
N 3.52726872 18.95818293 2.07789992 0.00021828 -0.00636938 0.00145086
N 7.19980352 25.75145799 18.83194930 -0.00138593 -0.00572984 -0.00299665
N 1.33275895 19.16858227 26.65843131 0.00064645 -0.00083127 0.00432249
N 2.92649239 12.97938502 22.54721050 -0.00271487 0.00571889 -0.00140483
N 5.41613249 19.48400027 30.15048925 0.00522411 -0.00242391 0.00127322
N 0.99818172 13.06421971 30.69978015 -0.00096420 0.00139231 0.00245163
N 7.31534965 19.32050275 21.77810680 -0.00117217 0.00285176 -0.00161504
N 5.22251131 0.14991196 26.76923962 -0.00243855 -0.00029725 -0.00679694
N 2.96426472 19.39807745 18.45875350 -0.00048517 0.00054058 -0.00031344
N 16.06107988 12.68979677 2.31450135 0.00222581 0.00052329 0.00454512
N 9.69809376 6.49997109 10.75395283 0.00275062 0.00023711 0.00587945
N 11.88377079 25.45083221 5.78719554 -0.00541213 0.00489640 0.00153386
N 13.74947037 6.72669506 14.19200062 0.00609401 -0.00256420 0.00450570
N 9.45973608 25.51550505 13.76469440 0.00407593 0.00635742 0.00353262
N 16.35262338 6.19542409 6.23678032 0.00213260 0.00022105 0.00170950
N 13.70040372 12.91684245 10.75405283 -0.00447920 0.00696605 0.00458717
N 11.77691981 6.41682891 2.86041458 -0.00019307 0.00497595 -0.00628686
N 15.83688282 13.05000375 18.75996414 0.00162274 0.00117475 0.00033127
N 9.20667384 6.44326576 27.05183225 -0.00357785 0.00005695 0.00235514
N 11.56527738 0.01069748 22.02795341 -0.00126918 0.00358478 0.00734804
N 13.71980730 6.64532366 30.49503083 0.00224467 -0.00256797 0.00028189
N 9.29725898 0.01963594 30.35195541 -0.00630794 0.00404684 -0.00381175
N 15.56248710 6.34144805 22.34029048 -0.00214074 0.00347459 0.00140832
N 13.45896279 12.99466118 27.10815273 -0.00380102 0.00261937 -0.00199817
N 11.72159182 6.31851016 19.06841811 0.00414157 -0.00308097 -0.00523322
N 15.99014506 0.01671279 2.41404312 0.00001587 -0.00133110 0.00299526
N 9.68167383 19.46257780 10.12254636 0.00152509 0.00269545 0.00603452
N 11.81403924 12.67472164 6.00393275 0.00019445 -0.00472876 0.00766581
N 13.75312669 19.42324960 13.73236309 -0.00241184 0.00408358 0.00025054
N 9.35568065 12.76981415 14.23441839 -0.00286898 0.00170658 -0.00023486
N 16.00661521 19.25385590 5.37521914 -0.00439621 0.00339311 -0.00432861
N 14.10032913 25.65478372 10.44347968 -0.00342382 0.00426382 0.00565910
N 11.98344276 19.20694943 2.18974056 0.00321765 0.00679740 -0.00031868
N 15.94517191 0.08394163 18.62582063 0.00052180 -0.00131204 -0.00303964
N 9.49598004 19.16064456 26.85737361 0.01101779 -0.00453507 -0.00144761
N 11.68161434 13.01697774 22.19575720 0.00696087 0.01005417 -0.00266026
N 13.79628542 19.69006667 30.21291675 -0.00037059 0.00424359 -0.00096902
N 9.56667854 12.93056076 30.35047565 0.00352754 -0.00231926 0.00640315
N 15.92733921 19.53420476 21.93171036 -0.00265523 -0.00405468 0.00163540
N 13.69434982 0.35560316 26.66637975 0.00369206 -0.00460492 0.00139437
N 11.77223870 19.21483478 18.24414918 0.00092338 -0.00127792 0.00453367
N 24.69993468 12.92897307 2.74719782 0.00109697 -0.00748634 0.00843688
N 18.29803530 6.37314482 10.80963478 -0.00447024 0.00009193 -0.00100180
N 20.34260840 25.68182585 5.82193879 -0.00126275 0.00670443 0.00548060
N 22.46069041 6.44694944 14.28759846 -0.00139660 -0.00132799 -0.00086804
N 18.19933562 25.55710663 13.71072658 -0.00664154 -0.00402095 0.00058213
N 24.70575963 6.66951202 6.25560218 -0.00465836 -0.00074684 -0.00150946
N 22.32029618 13.05361609 11.08167670 0.00445374 0.00456395 0.00203443
N 20.30062444 6.29193515 2.74646729 -0.00098538 0.00164954 0.00027040
N 24.83534869 13.34391880 19.26210995 -0.00493258 -0.00394472 -0.00727715
N 18.04925952 6.51747884 27.01394350 0.00081995 -0.01008118 -0.00177367
N 20.17847643 0.18289372 22.12117449 -0.00120765 -0.00110244 -0.00224382
N 22.06659342 6.46425908 30.49862121 0.00496317 -0.00556249 0.00067291
N 18.05985456 25.45972678 30.31105408 0.00050482 0.00441998 0.00630768
N 24.12681091 6.06174681 22.52409740 0.00531785 -0.00552233 0.00183313
N 22.10318786 12.87156675 27.35874498 0.00666855 -0.00194389 0.00910672
N 20.08008043 6.38395405 18.82031498 -0.00540354 0.00179533 0.00145891
N 24.56779962 25.46124493 2.32306807 0.00174508 0.00541636 0.00374802
N 18.01246204 19.16001601 10.19876299 -0.00025865 -0.00506924 -0.00704880
N 20.17265800 12.79150877 6.15741133 -0.00223251 -0.00234517 0.00281410
N 22.47016520 19.59015424 13.72463980 -0.00068379 0.00355045 -0.00383889
N 18.38389509 12.69611544 14.23658074 0.00776404 -0.00917511 -0.00434356
N 24.61395441 19.23502546 5.56739837 0.00319710 0.00330736 0.01444264
N 22.44797440 0.19692509 10.63690526 0.00198873 -0.00200512 -0.00584379
N 20.09751816 19.11889280 2.10660175 0.00194584 0.00563102 -0.00358246
N 24.37183990 25.67546339 18.43103367 0.00571273 -0.00837085 0.00211431
N 17.84562322 19.15801321 26.72872758 0.00010307 -0.00068059 0.00631941
N 19.68511263 13.08297084 22.37265040 0.00058464 0.00604635 -0.00050037
N 22.16830837 19.17142045 29.94409657 0.00276367 -0.00193305 0.00542267
N 17.94550837 12.85194781 30.69359691 -0.00672449 -0.00043908 0.00062322
N 24.34620835 19.19098415 21.81883019 -0.00278522 0.00037244 0.00285690
N 22.39064602 0.20150754 26.60825805 -0.00915292 0.00574489 -0.00237968
N 20.13576384 19.20101218 18.38606819 0.00002354 0.00548071 -0.00329851
C 7.43068061 0.26561408 4.85201039 0.00386421 0.00542854 0.00512323
C 1.21430328 5.98038721 13.00430395 -0.00389645 -0.00050265 0.00666646
C 3.39606282 12.18666648 3.58805282 -0.00072761 0.00947173 -0.00168446
C 5.21707532 6.57851185 11.64811013 0.00497316 0.00143434 0.00183823
C 0.95820941 12.45761647 11.97054726 -0.00153721 0.00356162 0.00200589
C 7.37894736 6.72500699 3.49597744 0.00416606 0.01093263 -0.00175958
C 5.23328675 0.31643725 12.78235477 -0.00242454 -0.00411474 -0.00177737
C 3.49912075 6.27106479 4.73390297 0.00014123 0.00554739 -0.00028630
C 7.17709432 0.89019166 6.06012141 -0.00993051 0.00030980 -0.00181072
C 1.53429646 5.23247671 14.12127537 -0.00241894 0.00143594 -0.00256052
C 3.17303687 11.33069637 2.52604161 -0.01046558 0.00571883 -0.00132844
C 5.62680898 7.39977203 10.58725926 0.00778724 0.00526653 -0.00568393
C 1.46747126 11.97146232 10.79623856 -0.00707504 0.00136081 0.00006485
C 7.14351559 7.41038901 2.32909104 -0.00498906 0.00113262 0.00212074
C 5.67486400 0.99683550 13.87744760 -0.00476217 -0.00574667 -0.00105049
C 3.09837064 5.77997821 5.93378083 -0.00062672 0.00018418 -0.00231608
C 6.46392005 2.09984049 6.11417664 0.00292119 -0.00974877 -0.00541035
C 2.22954808 4.05443578 13.94465237 -0.00685066 -0.00611020 0.00624003
C 2.28334617 10.22951239 2.68872713 -0.00613734 0.00624472 0.00046568
C 6.46742554 8.55016272 10.77351417 -0.00877747 0.00140037 0.00148261
C 2.23859767 10.75546860 10.86592470 -0.00431642 -0.00035728 0.00251749
C 6.52673394 8.67139288 2.39085630 0.00311889 0.00537024 -0.00651527
C 6.50922575 2.05841703 13.84582690 0.00158177 0.00094830 0.00908720
C 2.21640390 4.70205670 5.96126062 0.00126432 0.00412035 0.00593409
C 6.15565424 2.73835088 4.95706435 0.00580398 -0.00210883 -0.00154731
C 2.52716331 3.54209597 12.65460115 0.00733568 0.00036336 0.00186807
C 2.00606094 9.74787861 4.03419558 -0.00017342 -0.00236830 0.00173765
C 6.69766885 8.95842181 12.10872717 -0.00354777 0.00025383 0.00628001
C 2.53668451 10.17464600 12.14734968 0.00036408 -0.00363386 -0.00522105
C 6.39148126 9.30394816 3.67316456 0.00012733 0.00199406 0.00777973
C 6.85185531 2.61309847 12.60729953 0.00382470 0.00538860 0.00817107
C 1.95121163 4.01387524 4.70676595 -0.00034616 -0.00223574 0.00313020
C 6.41621542 2.10022583 3.70705076 -0.00106583 0.00290517 0.00119140
C 2.26067666 4.34015247 11.55145378 0.00792152 -0.00722202 -0.00553235
C 2.33453163 10.59333348 5.08392254 0.00149377 0.00048984 -0.00447752
C 6.19782711 8.20209205 13.12617164 -0.00106572 0.00306254 0.00232196
C 2.06488530 10.73436304 13.29421104 0.00025627 0.00260742 0.01067900
C 6.66345215 8.59258095 4.82757337 0.00234582 -0.00590172 -0.00820991
C 6.47160258 1.95313817 11.48080178 -0.00515848 -0.00023129 0.00028495
C 2.39537298 4.52862793 3.48189126 -0.00533963 0.00057274 -0.00569985
C 7.08456616 0.91747718 3.66999561 -0.00320897 0.00195933 0.00701746
C 1.71868579 5.57814500 11.70930891 0.00801696 0.00284317 0.00057565
C 3.06907362 11.82964155 4.91006293 -0.00825114 -0.00165082 -0.00360583
C 5.52181898 6.98072910 12.96875966 -0.00337311 -0.00884959 0.00279960
C 1.25123879 11.88036580 13.25974590 -0.00116506 -0.00303493 0.00720719
C 7.22123947 7.36362793 4.75991786 0.00919943 0.00332842 -0.00815521
C 5.69513451 0.71239300 11.53514316 0.00315899 -0.00161027 0.00447193
C 3.13753990 5.73593402 3.50036559 0.00341831 0.00586251 -0.00062410
C 6.76366641 0.49677491 1.20682213 0.00062025 -0.00296895 0.00641059
C 1.98263888 6.38045716 9.41561310 -0.01248708 0.00310170 0.00167763
C 3.00855449 12.62425278 7.18959195 -0.00375529 -0.00290424 -0.00077929
C 5.62402930 6.49131524 15.33518510 0.00518665 0.00251479 0.00270545
C 1.48175560 12.46683729 15.53511995 -0.00238305 0.00473755 0.00277851
C 7.16916177 6.72666722 7.21170043 -0.00316156 0.00230745 0.00749638
C 6.06973443 0.22077922 9.21085583 -0.00081672 0.00931156 0.00078778
C 2.97259695 6.19387000 1.00582710 -0.00707960 -0.00278635 0.00353204
C 7.25786892 12.01946938 16.51732317 -0.00115405 0.00094602 -0.00207905
C 1.83167083 7.65435858 8.63955386 -0.00486126 0.00210644 0.00080086
C 2.84957812 1.24948674 7.41569772 -0.00219621 -0.00789571 0.00529944
C 5.64722118 5.11601995 32.39457820 -0.00318480 0.00813202 -0.00350772
C 0.98184989 0.87078869 32.20778275 -0.00103148 -0.00420636 0.00354441
C 7.59234398 5.53293970 8.02555365 -0.00253804 0.00380842 0.00438065
C 5.81866091 11.71387186 8.95645853 -0.00309483 0.00200878 -0.00522293
C 2.85198005 7.18103242 16.45875888 0.00767617 0.00247515 -0.00112022
C 7.33311674 0.49436744 21.20995905 -0.00227190 0.00150326 -0.00538528
C 0.74306348 5.93904689 29.36342336 -0.00639010 -0.00644525 0.00222549
C 3.38196744 12.50153271 20.15317539 -0.00299437 -0.01053378 -0.00215058
C 4.82568091 7.16289365 28.09662124 -0.00364386 -0.00322030 0.00150050
C 1.03684044 12.76425026 28.26016260 0.00183449 0.00490799 -0.00122155
C 7.30161795 6.79559782 20.29659239 -0.00135999 0.00260674 0.00200032
C 5.10481293 0.35771444 29.28649930 -0.00089389 0.00318127 0.00034229
C 3.20506762 6.15624756 21.06672477 -0.01047690 -0.00638815 0.00562534
C 6.97387432 1.22244110 22.29926632 0.00563205 -0.00308751 0.00051441
C 1.21168030 5.21448334 30.44859911 -0.00385315 -0.00120134 0.00308574
C 3.18951034 11.72306275 19.01019658 0.00557866 -0.00888583 0.00040199
C 5.07811027 8.05760161 26.99808327 0.00747163 -0.00430707 -0.00079945
C 1.12187404 11.92706988 27.11619504 -0.00587818 0.00040121 0.00090965
C 7.13017097 7.47687994 19.08732118 0.00336116 0.00171111 -0.01272179
C 5.37898165 1.09773556 30.40861919 -0.00414333 -0.00479079 0.00065177
C 2.86676545 5.46560348 22.19908120 -0.00006762 -0.00405995 -0.00509784
C 6.16875860 2.38804998 22.10696967 0.00188473 0.00006770 0.00125737
C 2.04862587 4.08769290 30.18374617 -0.00335958 -0.00122251 -0.00627010
C 2.23678171 10.68465045 19.11405780 -0.00248375 0.00430272 0.00092707
C 6.08645555 8.98864918 27.14071415 0.00165756 0.00100580 0.00378623
C 1.87252954 10.76911502 27.10894728 0.00064064 0.00530650 0.00057269
C 6.36890777 8.64378671 19.03194332 -0.00282656 0.00391715 0.00151531
C 6.18273020 2.24089771 30.27504450 -0.00105498 -0.00159874 -0.00756656
C 2.07610150 4.28454505 22.11719342 0.00263385 -0.00014897 -0.00137980
C 5.77717218 2.75671022 20.80960523 -0.00075219 0.00163514 -0.01017870
C 2.03615861 3.56269646 28.90860842 0.00038740 0.00184145 0.00830852
C 1.82395779 10.25281706 20.35178371 -0.00318626 -0.00577050 0.00199598
C 6.61325758 9.28323868 28.43604677 -0.00041913 0.00143608 0.00505695
C 2.23721401 10.32884811 28.40503641 0.00534087 -0.00971444 0.00151577
C 5.95486943 9.23402967 20.28949787 -0.00066552 -0.00197863 0.00138699
C 6.38969213 2.84043290 29.01274506 -0.00098206 -0.00062521 -0.00428311
C 1.66059657 3.80859829 20.83630763 -0.00007717 0.00496042 0.00550099
C 6.22362999 2.01031017 19.74318348 -0.00396499 -0.00962412 0.00435894
C 1.59005413 4.27124836 27.82799702 -0.00334270 -0.00556936 0.00144084
C 2.01958900 11.05035932 21.45559960 -0.00201472 -0.00852376 -0.00296516
C 6.15066343 8.55763920 29.56099482 -0.00419292 0.00312916 0.00231513
C 1.89436160 10.98199165 29.62450329 0.00207087 0.00325559 0.00230222
C 6.10910143 8.56192532 21.48752962 0.00715378 -0.00280599 -0.00453998
C 6.17587722 2.10635288 27.89796759 0.00377548 0.00116207 0.00223594
C 2.01132377 4.53881838 19.67735064 0.00115524 0.00053798 -0.00666838
C 6.91243129 0.80501687 19.90342432 -0.00006236 -0.00893461 -0.00445369
C 1.05361385 5.53001325 28.04719921 -0.00437918 -0.00085905 -0.00543939
C 2.77705656 12.22532654 21.42523292 -0.00764505 -0.00075115 -0.00233328
C 5.42435132 7.35485701 29.32235275 0.00019870 0.00859546 -0.00693371
C 1.27056693 12.26050418 29.55302352 0.00631749 -0.00607677 -0.00141004
C 6.89534900 7.38867060 21.51503462 -0.00233320 -0.00158046 0.00428445
C 5.53891104 0.84513519 27.99729571 -0.00214961 0.00512121 -0.00064175
C 2.83143961 5.72558007 19.77793908 0.00136971 0.00198053 0.00089171
C 6.94490294 0.30804941 17.54957449 0.00707187 0.00861613 0.00267608
C 1.01562933 6.33234715 25.74788268 -0.00558396 0.00103125 -0.00311676
C 2.30333166 12.78491262 23.73112068 -0.00228777 0.00211453 -0.00265927
C 5.67379197 6.42293757 31.61874296 -0.00161414 -0.00156107 0.00054779
C 1.46776694 12.72573317 31.92984742 -0.00274888 -0.00092921 0.00293710
C 6.61861154 6.83086674 23.77196239 0.00330147 -0.00027284 -0.00420317
C 5.58801626 0.42682137 25.51966564 0.00343627 0.00105442 0.00348283
C 2.90417495 6.04842386 17.46880270 0.00021666 0.00039680 -0.00830845
C 6.97347914 11.79291151 0.47983114 -0.00454548 -0.00138795 -0.00291843
C 1.03521539 7.56290483 24.85424468 -0.00052765 0.01260503 0.00040010
C 2.61811795 0.63482610 24.45230131 0.00005832 0.00427063 -0.00061166
C 5.74006018 5.20371256 16.17609190 -0.00107747 -0.00074426 0.00010675
C 1.46854362 0.96364317 15.42298198 -0.00734043 -0.00769091 0.00284683
C 6.50442072 5.74252652 24.78217502 -0.00445533 -0.00204931 -0.00228053
C 5.77961721 12.25528337 24.32594502 0.00716968 -0.00130288 -0.00693447