1920
Time=53000.00000004 pbc="T T T" Lattice="25.39221484 0.00000000 0.00000000 0.00000000 25.72443615 0.00000000 0.00000000 0.00000000 32.90376414" energy=-12246.32870138 virial="-50.14836551 16.60556478 -17.03386929 16.60556478 -81.42355141 -11.86730210 -17.03386929 -11.86730210 -34.73361204" stress="-0.00009483 0.00079759 -0.00075373 0.00079759 -0.00149141 -0.00050547 -0.00075373 -0.00050547 0.00073954" Properties=species:S:1:pos:R:3:vel:R:3
O 5.75830271 2.84945733 7.01429694 0.00720822 0.00410045 0.00120965
O 2.66967180 3.77204018 15.25987386 0.00064058 -0.00328289 -0.00103443
O 1.75750353 10.30282870 0.79068855 -0.00101331 -0.00591731 0.00215125
O 6.85302770 9.54569265 9.35527345 0.00132752 0.00078485 0.00028312
O 2.69913861 10.07718028 9.14550320 -0.00275770 -0.00129838 0.00615348
O 5.65837040 9.02336991 1.17325475 -0.00375473 -0.00025445 0.00169018
O 6.54680739 2.94243799 15.44926071 -0.00047527 0.00371834 -0.00226947
O 1.24538763 3.65128727 6.82472015 0.00623243 0.00114901 -0.00072169
O 6.29218873 1.22827606 17.41302911 0.00584063 0.00391483 0.00443883
O 2.12975654 5.12621323 9.01507983 -0.00195160 0.00262852 -0.01092002
O 2.09137421 11.56682341 7.07943184 0.00303015 0.00228197 0.00033854
O 6.15797478 7.56902096 32.11571878 0.00385804 -0.00617192 -0.00058247
O 2.19531193 11.82548577 31.53266183 -0.00236828 -0.00473623 0.00076178
O 6.62927394 7.99569187 7.25771688 0.00172233 -0.00383434 -0.00370873
O 6.53072858 1.32189109 9.25879192 -0.00313145 -0.00264598 0.00464600
O 2.03957269 5.33050088 17.05519992 -0.00692486 -0.00361103 -0.00123794
O 6.09640309 2.62720217 23.61618843 0.00541410 0.00692689 0.00097594
O 2.87951928 3.67221935 31.58575840 0.00506008 -0.00030132 0.01006222
O 1.77297475 10.22287209 17.45612540 -0.00066457 0.00204438 -0.00032903
O 6.60247405 9.32146263 25.95486900 -0.00049519 -0.00253309 0.00157779
O 2.29096655 10.05695072 25.34364477 -0.00207632 -0.00579709 0.00147565
O 6.24003165 9.49338226 17.56081828 -0.00163417 -0.00006540 -0.00074371
O 6.91523903 2.27788696 31.81880099 -0.00405530 -0.00263862 -0.00199192
O 1.22506594 3.80877809 23.06868123 -0.00018707 -0.00289120 -0.00254025
O 6.19131133 1.19157466 1.13724486 0.00161703 -0.00191542 0.00379878
O 1.58399660 4.92090068 25.52846467 -0.00613957 -0.00881357 0.00246904
O 1.68624570 11.77573756 23.48747360 0.00089094 -0.00580953 0.00452402
O 6.34847753 7.67787496 15.49984384 -0.00150743 -0.00212708 -0.00069988
O 2.17195542 11.81217445 15.47230914 0.00474084 -0.00462475 -0.00039772
O 6.56671266 7.72553136 23.91512735 -0.00080252 0.00107742 0.00130973
O 6.21455579 0.92904710 25.57336164 -0.00598660 0.00390359 0.00342641
O 2.07223779 5.07869573 0.65930320 -0.00239184 -0.00363261 0.00075687
O 5.40568617 15.52552486 6.56249388 -0.00212277 0.00845535 0.00383221
O 3.12007807 16.35452245 15.42790623 0.00132262 -0.00001936 -0.00066529
O 1.43455019 23.00761930 1.25563417 0.00182868 0.00106842 -0.00092249
O 7.03564961 21.58745429 9.64423286 -0.00279616 -0.00199284 -0.00661329
O 2.82844462 23.23967169 9.63583238 -0.00003642 -0.00301827 -0.00436587
O 5.66407521 21.96349844 1.12074012 -0.00295954 -0.00640896 0.00351237
O 7.08480014 15.87267844 14.65910639 -0.00347269 -0.00044564 -0.00420414
O 1.90427979 16.69274516 7.13288613 -0.00271349 0.00427521 -0.00426539
O 6.66761425 14.30629349 16.90274412 0.00223479 0.00474800 0.00192110
O 1.80112545 18.03670962 9.31843973 0.00286179 0.00192499 -0.00564020
O 2.27737410 24.55804052 7.39994710 0.00579175 0.00289836 -0.00437046
O 6.05711866 20.45783295 31.96597026 0.00213675 0.00542669 0.00263466
O 1.58981854 24.31408626 31.88565349 0.00147119 0.00081793 0.00194960
O 6.56114103 20.75948242 7.30243446 -0.00165912 0.00074953 -0.00001525
O 6.57138777 14.29674348 8.44255783 0.00159308 -0.00436954 0.00136602
O 2.59455961 17.67246818 17.61967370 -0.00491337 0.00056909 -0.00351182
O 5.60668654 15.50158326 23.20773290 0.00314244 0.00336490 0.01324365
O 2.54823850 16.65208464 31.83444348 -0.00004912 -0.00042266 0.00388689
O 1.70478001 22.47722394 17.78463492 0.00284471 -0.00354280 -0.00110875
O 7.13409613 21.64152704 25.90989801 -0.00455029 0.00130680 0.00099332
O 2.58976383 22.73259297 25.86121498 0.00417027 0.00317959 0.00199003
O 6.42641954 22.23291293 17.80253256 -0.00186320 -0.00232789 -0.00159878
O 6.37282994 15.51181985 31.49612363 0.00624268 -0.00369207 -0.00205332
O 1.35612416 16.56076559 23.61708106 -0.00043502 -0.00135281 0.00083629
O 5.93396961 14.07014922 0.49896155 0.00352803 0.00071177 0.00468154
O 1.02412087 17.68772445 25.83541162 0.00078687 -0.00372285 0.00387366
O 2.55109196 24.43997700 23.72571647 0.00192080 0.00025687 -0.00255789
O 6.55231090 20.61591669 15.69933350 -0.00070752 0.00102009 -0.00446109
O 1.86771105 24.24925444 15.89832958 0.00036331 0.00475546 0.00281970
O 6.19603208 20.45857064 23.84082822 0.00469874 -0.00136879 0.00816705
O 6.12234019 14.15971833 25.37621294 0.00604270 -0.00569496 -0.00094033
O 2.38161166 18.17670651 0.92150788 -0.00408127 0.00093421 0.00156055
O 14.22365193 2.88892704 7.15076598 -0.00009995 -0.00008762 -0.00419587
O 11.56945630 4.00159182 15.44584039 0.00315483 -0.00591100 -0.00344946
O 9.91203384 10.33469059 0.94777106 -0.00215247 -0.00109742 -0.00012701
O 15.01951721 9.95212550 9.63081246 0.00244044 -0.00299873 0.00614913
O 10.99558890 10.26740414 9.18412952 0.00145907 -0.00687068 -0.00461589
O 14.07021557 8.98897478 1.52552777 -0.00482243 -0.00523326 0.01379200
O 15.03384904 2.78540372 15.55212319 -0.00622399 0.00601214 0.00205877
O 10.45989479 3.66863906 7.53641393 -0.00056412 0.00050167 -0.00262979
O 15.54411563 1.24125907 17.48826709 0.00024346 0.00046022 -0.00298566
O 11.01407727 5.10940872 9.43774850 -0.00246581 0.00163774 -0.00061516
O 10.61726442 11.51832816 7.08345704 0.00143109 -0.00345647 0.00348486
O 14.83171551 7.45289085 32.58288108 -0.00314803 -0.00633354 -0.00325965
O 10.78088392 11.56571833 31.80320643 -0.00023478 -0.00308201 0.00462305
O 15.10155434 7.95439694 7.90433885 -0.00210071 -0.00212774 -0.00512525
O 15.15240032 1.19361167 9.18297100 -0.00203462 0.00142939 0.00073316
O 10.72816783 5.65196312 17.27035815 0.00225609 0.00344106 -0.01035699
O 14.45165465 2.90325455 23.60732753 0.01152940 -0.00229230 -0.00351977
O 11.03252823 3.81449658 31.79935261 0.00663021 0.00152222 -0.00108914
O 10.20087550 10.60833546 17.34647964 0.00413636 0.00177933 -0.00542104
O 15.03725238 9.55900116 26.51267583 -0.00518958 0.01353641 0.00350556
O 11.05529279 10.43401508 25.72219022 -0.00136382 0.00133060 0.00174208
O 15.01825986 9.39280935 17.87455761 -0.00148855 0.00044962 0.00410290
O 15.33463054 2.46577143 31.71389718 0.00428166 0.00422542 0.00062753
O 10.15484111 3.63697161 23.26925983 0.00210546 -0.00484297 -0.00101956
O 15.28017675 1.27891157 1.09003384 -0.00228654 -0.00533194 0.00027223
O 10.36407304 4.99920873 25.53950845 -0.00038090 -0.00032580 0.00198665
O 10.50493927 11.77599507 23.55632415 0.00008081 -0.00225087 0.00086901
O 15.05987623 7.79159589 15.73569202 0.00198096 0.00649080 -0.00326480
O 10.82934694 12.01384390 15.42668850 0.00097766 -0.00296897 0.00397414
O 14.87368061 7.92676468 24.13862011 0.00431621 0.00728853 -0.00318792
O 14.75264546 1.20042142 25.65104209 -0.00617443 0.00303664 -0.00127363
O 10.08870942 5.14784885 1.15867472 0.00119598 -0.00315880 -0.00555346
O 14.73711909 15.80550597 6.44905769 -0.00135831 -0.00326092 -0.00481487
O 11.55421073 16.59884191 14.85314397 0.00042342 -0.00018700 0.00289386
O 10.13780454 22.68060457 1.27615217 -0.00590097 -0.00072757 0.00525776
O 15.53517542 21.99651586 9.43766330 -0.00157126 0.00390212 0.00235547
O 11.53749711 22.74860243 9.74006395 -0.00126943 -0.00306257 0.00322748
O 14.07776235 21.69952445 1.43173854 -0.00999819 0.00446661 0.00212446
O 15.38880537 15.45444306 14.67636702 -0.00130426 -0.00559950 0.00402849
O 9.69254855 16.39157305 6.86767819 0.00422067 0.00077619 0.01064089
O 14.87445725 14.04673603 16.72327083 -0.00174707 -0.00161309 0.00033724
O 10.55614923 17.89934991 8.83333152 0.00045318 -0.00194743 -0.00127917
O 10.81092583 24.12590122 7.67902390 -0.00148928 -0.00330347 -0.00136281
O 14.14288556 20.51094200 32.10788547 -0.00245486 0.00000147 0.00474495
O 10.38749113 24.42296823 32.32138639 -0.00140945 0.00250023 0.00591808
O 14.50760197 20.34613450 7.58476391 -0.00290806 -0.00319142 -0.00490888
O 15.18060830 14.04266458 8.21766238 0.00131234 0.00380941 -0.00822897
O 11.49567339 17.98150324 17.14911946 -0.00431556 0.00411700 0.00034307
O 14.40663736 15.61570698 22.82897848 0.00070960 0.00258703 -0.00766446
O 10.82181749 16.66836842 31.56408708 0.00672566 -0.00400551 0.00425915
O 10.72576708 23.14095386 17.96197630 -0.00726705 0.00621901 -0.00198919
O 15.33307077 22.13127054 26.10059670 -0.00355414 0.00202771 -0.00662971
O 10.89788090 22.73869292 26.10675173 0.00506396 0.01133491 -0.00784745
O 14.25666103 21.88013229 17.79923482 -0.00137982 -0.00085171 0.00578032
O 15.15687117 15.32953674 31.24355156 0.00491095 0.00394524 -0.00092667
O 10.05189872 16.40683666 23.14726739 -0.00219466 -0.00039370 -0.00077536
O 14.34432518 13.84373701 0.46571570 -0.00013419 -0.00037848 -0.00011386
O 10.64708031 17.81471144 25.20468912 -0.00197186 -0.00083110 -0.00072518
O 10.87309378 24.61234204 24.32763538 -0.00195201 0.00626447 0.00378724
O 14.82613688 20.53920674 15.77379244 -0.00194700 -0.00577409 -0.00770212
O 10.91709369 24.78039907 15.66908209 -0.00171374 -0.00669706 0.00157283
O 14.85029376 20.49145437 23.98380676 0.00759710 0.00018365 -0.00043411
O 14.84059586 14.14405080 25.02266040 0.00414883 0.00377392 -0.00085135
O 10.16231863 17.98312418 0.77780489 -0.00391561 0.00465963 -0.00221958
O 22.39264557 2.56084489 7.73359800 0.00514713 -0.00147985 0.00321603
O 19.87528653 3.93397215 15.63711009 0.00334344 -0.00264687 -0.00159709
O 17.99164344 10.34939878 1.05551648 -0.00944853 0.00077973 0.00091306
O 23.79464663 9.36937189 9.36637159 0.00949007 -0.00562506 -0.00213399
O 19.58452316 10.12871285 9.05368335 0.00040645 -0.00487121 -0.00272276
O 22.87724063 9.67715420 1.44691537 0.00265035 -0.00260187 0.00133801
O 23.70674753 2.85109313 15.75580918 -0.00165990 -0.00728006 -0.00136825
O 18.29388634 3.97979463 7.05772300 0.00105866 -0.00622074 -0.00207049
O 23.41876573 1.09422069 17.68148912 0.00390005 -0.00077991 -0.00348466
O 18.82982783 5.12739160 9.42030742 0.00447223 -0.00242367 -0.00334203
O 19.19819502 11.94046675 7.03615969 -0.00384090 -0.00089881 -0.00699166
O 22.95324066 8.04652035 32.25069119 -0.00450603 -0.00138278 0.00438287
O 18.46953450 11.26826671 31.59564612 0.00519769 -0.00068835 0.00036568
O 23.11967462 7.64883920 7.54710092 0.00141558 -0.00379367 -0.00272802
O 23.23345059 1.25641747 9.71771566 0.00463458 0.00193828 -0.00733353
O 19.17788621 5.63815114 17.53337902 -0.00363720 -0.00181279 -0.01020173
O 22.37838145 2.54098902 23.63463308 0.00306013 0.00096130 0.00215716
O 19.46974055 3.27903531 31.81514845 -0.00377286 0.00098448 0.00351471
O 18.48550852 10.58805603 17.41678335 0.00012574 -0.00482524 -0.00035495
O 23.37419465 9.26432042 25.91871776 0.00407297 0.00915254 0.00540059
O 19.42599488 10.30226274 25.36651264 -0.00621093 0.00166047 0.00516078
O 22.94637222 9.51582600 18.05482053 0.00468755 -0.00608202 0.00230153
O 23.57283208 2.82610983 32.07059478 0.00216937 0.00390389 -0.00000121
O 18.25823050 3.56353199 23.50989099 0.00826201 -0.00238563 0.00496348
O 23.33502297 1.40777418 1.42160132 0.00476677 -0.00367048 0.00471957
O 18.60676205 5.25799243 25.58843651 -0.00632626 0.00028168 -0.00459207
O 18.75848821 12.02891948 23.47284395 -0.00040047 -0.00211102 0.00125007
O 23.13786092 8.28509004 15.72656161 0.00212071 -0.00296213 -0.00198934
O 19.39686730 11.67882238 15.29892413 0.00129143 0.00160797 -0.01143018
O 23.13751129 7.65434007 23.89221669 -0.00400864 0.00268274 -0.00303175
O 23.15082931 1.10987063 25.88359643 0.00355023 0.00191693 -0.00715648
O 19.06864454 5.05878457 0.84936715 0.00023947 0.00191221 0.00424662
O 23.09487165 16.12694998 6.55993610 0.00265878 0.00258257 -0.01099812
O 19.37544909 16.31371106 15.06923559 0.00194440 -0.00375981 0.00774881
O 18.30683827 22.33738834 1.96936533 0.00265949 -0.00162030 -0.00134159
O 23.94621154 22.25480027 9.57871714 -0.00303203 -0.00520097 0.00170747
O 19.71403748 22.75208432 10.28892076 -0.00009179 0.00558385 0.00027224
O 22.35591143 21.85045057 1.46917603 0.00147032 0.00254031 0.00745050
O 23.59560974 15.52304854 14.75590922 0.00119487 -0.00123031 -0.00327079
O 18.39933687 16.86855606 7.04721509 -0.00143122 -0.00088558 0.00156282
O 22.91990829 14.04830736 16.68026860 -0.00141605 -0.00156252 0.00401984
O 19.59774823 18.23001758 9.00930224 0.00040435 -0.00632301 0.00915604
O 18.94755445 24.34869263 8.15512565 0.00018685 0.00496288 0.00095387
O 22.60996987 20.52063005 32.14174051 0.00383129 -0.00940249 -0.00390336
O 19.20643892 24.31475965 32.82278202 0.00136628 -0.00459468 0.00055594
O 23.47374414 20.67351965 7.54320152 -0.00017658 -0.00491545 -0.00158640
O 23.74583347 14.45894120 8.41454934 -0.00360038 -0.00253410 0.00534895
O 18.90274180 18.07099017 17.16130848 0.00237441 0.00020760 -0.00185444
O 22.66775981 15.55020459 22.92547880 -0.00226688 0.00335294 -0.00185494
O 19.41056193 16.43561877 31.45324361 0.00547705 -0.00106494 0.00389786
O 18.65978654 22.81063695 18.37601659 0.00557887 -0.00277031 0.00558761
O 24.12711769 21.80576372 26.16724438 0.00438808 0.00384963 -0.00046706
O 19.44729209 22.90044481 26.40103694 0.00156423 -0.00197366 0.00601415
O 22.92246020 22.13454895 17.55542218 -0.00068650 -0.00121625 -0.00177418
O 23.13736343 15.73044700 31.09346612 -0.00806699 0.00467839 -0.00229511
O 18.26139037 16.46636544 23.28104022 -0.00367402 -0.00642996 0.00058739
O 23.11295893 14.28403745 0.32049004 -0.00061835 0.00166565 -0.00132863
O 18.83546770 17.89584566 25.42082787 -0.00288042 0.00498841 0.00487028
O 18.68344748 24.52752794 24.47044227 0.00291615 -0.00578844 0.00725307
O 22.81298913 20.40045722 15.53883402 0.00338460 0.00042652 -0.00314379
O 18.98658649 24.62993610 16.38812633 0.00275569 -0.00177938 0.00118396
O 23.37718762 20.61206488 23.83647226 0.00594166 0.00732684 -0.00553748
O 23.32003053 14.10619368 24.99030514 0.00378252 0.00511220 0.00027716
O 19.10330704 17.50344179 0.74702497 0.00604626 -0.00191208 -0.00082905
N 7.45587699 13.23638470 1.99640726 -0.00314130 0.00542171 -0.00603529
N 1.11808254 6.37403163 10.67471277 0.00834269 0.00428087 0.00265470
N 3.39341372 25.61032088 5.68494430 -0.00302019 0.00461668 -0.00933053
N 5.30098454 6.66201451 13.80787699 0.00308204 0.00101989 -0.00157285
N 1.23534307 25.67838082 14.14321049 0.00444227 0.00099534 -0.00066727
N 7.78497688 6.83592468 5.71894353 -0.00160152 -0.00444499 -0.00524771
N 5.74141493 12.95373133 10.13846239 0.00458114 0.00225873 0.00073907
N 3.22488828 6.23875487 2.22833179 0.00422519 0.00282917 0.00292632
N 7.65285669 13.16718117 18.67216336 -0.00521571 -0.00918069 0.00167365
N 1.28699732 6.42296244 27.25945672 -0.00520754 0.00029858 0.00295927
N 3.38232494 25.71076809 22.04592158 -0.00834910 -0.00062954 0.00356247
N 5.17854346 6.32041996 30.39129684 0.00811504 0.00919406 -0.00400833
N 0.67024693 25.54187272 30.17017255 0.00152186 -0.00165549 -0.00272756
N 7.58455762 6.59087879 22.15991380 0.00426398 -0.00198139 0.00078679
N 4.89458068 12.88302101 26.91460261 -0.01003699 0.00498230 0.00254660
N 3.53742777 6.01866611 18.60500701 -0.00456235 0.00365645 -0.00367211
N 7.70109104 0.35388818 2.56465637 -0.00556553 0.00164164 0.00176988
N 0.85187395 19.05083467 11.08912356 0.00504543 -0.00539338 0.00180627
N 3.36913881 12.60545078 5.56300319 0.00277544 -0.00036448 -0.00711124
N 5.47110278 19.07753046 14.39423240 0.00082123 -0.00043275 -0.00265129
N 1.08070189 12.79988223 13.72085925 0.00054101 0.00332061 -0.00027178
N 7.60239788 19.49471855 5.71821546 0.00356458 -0.00062970 0.00628891
N 5.40287681 0.07768635 10.77925693 -0.00509222 0.00053024 0.00362450
N 3.15978470 19.61458318 2.58126457 -0.00227886 -0.00410932 -0.00578245
N 7.78363209 0.21648872 18.78953176 -0.00635571 -0.00121450 0.00409742
N 1.07672137 19.32440542 27.37296726 0.00555118 -0.00458231 0.00307670
N 3.09605162 12.91457270 22.06340668 -0.00013327 -0.00716304 -0.00552957
N 5.15823387 19.07927491 30.35110752 -0.00300868 0.00379128 -0.00987186
N 0.53809118 12.60842853 30.09128415 0.00001566 -0.00295422 -0.00266507
N 7.47791876 19.27159878 22.33496053 0.00457117 -0.00333183 -0.00281135
N 4.99321536 25.58454674 27.21165546 -0.00045958 0.00021709 0.00124027
N 3.50035616 18.99592455 19.25297572 0.00227857 0.00126187 0.00401890
N 15.42636339 12.54019020 2.03517229 0.00626033 -0.00296080 0.00100176
N 9.66350214 6.29468831 10.79957513 0.00109033 -0.00043127 0.00511173
N 11.72933861 25.30283199 5.93217111 -0.00522322 -0.00019712 -0.00375817
N 13.95075185 6.66803746 14.05114224 0.00289372 0.00444684 -0.00405976
N 9.45471604 25.53455871 14.06680055 0.00000262 -0.00018254 0.00277797
N 15.56654994 6.45557074 6.19873056 0.00079208 -0.00857789 -0.00483830
N 14.23175552 12.83575125 9.86432003 0.00065970 -0.00116227 0.00404827
N 11.21586724 6.43144288 2.75791821 -0.00089652 0.00070943 0.00452320
N 15.70470795 12.67300507 18.31369015 -0.00241286 0.00066350 -0.00571443
N 9.23994603 6.28266547 27.11927809 -0.00438654 -0.00145033 -0.00475195
N 11.73733500 0.25060409 22.73014142 -0.00014704 -0.00883270 0.00568157
N 13.58064731 6.49938241 30.88436848 0.00038484 -0.00302888 0.00210972
N 9.53122537 25.61319031 30.58312163 -0.00108563 0.00461962 -0.00758275
N 15.84324820 6.58115135 22.58862651 -0.00269711 -0.00431901 -0.00499923
N 13.62702895 12.88901294 26.60868267 -0.00375463 -0.00198096 -0.00060479
N 11.96497266 6.56593457 18.95499857 0.00353941 -0.00092193 0.01128228
N 15.92344513 25.66847681 2.78903795 0.00423453 0.00169253 -0.00091648
N 9.39465552 19.09218737 10.43659450 0.00956673 0.00476121 -0.00245898
N 11.67531518 12.79158138 5.48985636 0.00253772 0.00386612 -0.00288537
N 13.81926332 19.40501711 14.05208133 0.00373061 0.00100062 0.00044976
N 9.45907311 12.87413585 13.85608077 -0.00295720 0.00426766 -0.00353620
N 15.53281527 19.10097410 5.98348907 -0.00619195 0.00541477 -0.00042605
N 14.28170068 25.58605726 10.82057642 -0.00264964 0.00338399 0.00066175
N 11.66270603 18.90070713 2.26099403 0.00088407 -0.00052072 -0.00540818
N 16.07814169 25.62776601 19.26628652 -0.00216770 -0.00272350 -0.00026522
N 9.51019058 19.08122206 26.73897643 0.00303737 0.00168297 -0.00184277
N 11.93100403 12.94689454 22.13143860 -0.00089573 -0.00414416 0.00398324
N 13.26316931 19.32023775 30.46023562 0.00133822 -0.00201691 -0.00569018
N 9.31113733 12.65310693 30.39896826 0.00592830 0.00124568 0.00519552
N 15.82914899 19.18789721 22.34918888 0.00642919 0.00009315 0.00339688
N 13.83966887 25.51444831 27.23972009 0.00602283 0.00629389 0.00692283
N 11.78055640 19.41584494 18.88982572 0.00144671 -0.00393524 -0.00049531
N 24.30126222 13.18621421 1.96321196 -0.00559200 -0.00340916 0.00098006
N 17.74918327 6.28380181 11.13537131 0.00464515 -0.00306632 0.00315781
N 19.82302540 25.51620322 6.35766571 0.00461923 0.00052306 -0.00631175
N 22.15645817 7.03271204 14.05773884 -0.00014338 -0.00353869 -0.00544060
N 18.17126204 0.13176854 14.63096354 -0.00404995 0.00488819 0.00505731
N 24.33297686 6.63141380 5.88722320 0.00041372 -0.00077679 0.00246985
N 22.79627309 12.97940936 9.89502597 -0.00510516 -0.00326386 0.00378113
N 20.17034653 6.25263373 2.45759964 -0.00190907 -0.00374819 0.00149506
N 24.14552754 13.00859660 18.22744611 0.00024735 0.00755384 0.00995321
N 17.74292503 6.23633434 27.48156468 0.00513028 -0.00579745 -0.00257215
N 19.68878882 0.06885478 22.84888122 0.00444389 -0.00378143 0.00209188
N 22.12764807 6.59936084 30.74275832 0.00250370 0.00122051 0.00071674
N 17.90343985 25.29314366 31.27208459 -0.00272995 0.00051609 -0.00189776
N 24.61520904 6.54122569 22.46749134 0.00435212 -0.00273266 0.00015304
N 22.22736973 12.85908969 26.52520078 -0.00134211 -0.00131156 -0.00142755
N 20.23296191 6.59621320 19.31098624 -0.00164828 0.00413357 0.00166192
N 24.38356347 0.22492796 3.12840266 -0.00201176 0.00726271 0.00486240
N 18.19274612 19.24504717 10.36534097 -0.00050733 0.00273340 0.00298744
N 20.06344677 13.09919679 5.28191961 -0.00725788 -0.00203333 0.00559534
N 22.18575858 19.16133078 13.77654675 0.00493004 -0.00135921 0.00615150
N 18.17213285 12.86934084 13.72952287 0.00284266 0.00099148 0.00669088
N 24.31853810 19.34929048 5.92620066 -0.00273758 0.00300715 -0.00068053
N 22.23710523 25.66171276 11.27025278 -0.00169733 0.00223018 0.00572673
N 20.04545077 18.90239407 2.28034088 0.00136068 0.00739953 0.00482875
N 24.67488855 0.04419322 19.33112104 -0.00278197 -0.00302070 0.00878853
N 17.82658185 19.23418774 26.94758296 0.00959154 -0.00350141 -0.00059604
N 19.92768722 13.31897148 21.86909224 0.00443583 0.00300589 -0.00708053
N 22.04363306 19.04467790 30.50959856 -0.00087060 -0.00189673 0.00424044
N 17.72813934 12.70362682 29.97181398 0.00402520 -0.00840613 -0.00155328
N 24.47202749 19.42805770 22.19995326 -0.00744723 0.00503573 0.00379592
N 22.07795612 25.70975473 27.51061980 0.00264357 0.00512298 0.00376418
N 20.23125906 18.91325203 18.84492781 -0.00040671 -0.00262508 -0.00269860
C 7.50603621 0.50640352 4.90838202 -0.00217901 -0.00778186 -0.00292138
C 0.96656833 6.10259810 13.09584310 0.00592299 -0.00653955 0.00638563
C 3.06491166 12.66782467 3.15090211 -0.00719275 0.00078653 -0.00303129
C 5.42073704 6.89912052 11.47228190 -0.00034443 0.00139461 -0.00193365
C 1.26904079 12.60761649 11.34455368 0.00899367 0.00575612 0.00407333
C 7.36722609 6.75681632 3.30535293 0.00211219 -0.00299101 0.00298071
C 5.25783838 0.38548783 13.14456434 -0.00690749 -0.00915802 -0.00177574
C 2.99697099 6.13481607 4.70145207 -0.00078614 -0.00016826 -0.00098378
C 7.17095464 1.21248899 6.02150027 0.00116136 -0.00514074 0.00527840
C 1.19660482 5.40692108 14.21979776 0.00813718 0.00064976 -0.00379900
C 2.75243738 12.07137749 1.96687435 0.00086768 -0.00820012 0.00160779
C 5.82724286 7.57089945 10.33892219 0.00405909 -0.00041053 0.00133690
C 1.74972537 11.97766679 10.24704026 0.00057529 -0.00903365 -0.00871549
C 6.93362932 7.33573103 2.17506668 -0.00640471 -0.00107959 -0.00213675
C 5.53524916 1.01681102 14.31446034 -0.00164486 -0.00812663 0.00478257
C 2.59049301 5.43705775 5.78976179 -0.00589007 0.00290905 0.00108561
C 6.31156761 2.34177690 5.91939628 0.00316508 0.00047032 0.00188541
C 2.21250189 4.34322305 14.15323609 0.00369647 -0.00428311 -0.00238494
C 2.06727255 10.83413843 1.98573197 0.00176647 0.00242922 0.00609952
C 6.57207995 8.82051155 10.43841568 -0.00526465 0.00594190 0.00502782
C 2.43301937 10.73246369 10.31105278 0.00217515 0.00087623 -0.00142395
C 6.12354137 8.53137381 2.27003486 -0.00443114 -0.00171361 -0.00534523
C 6.19143298 2.27262237 14.33624833 0.00017235 -0.00020560 0.01315943
C 1.81184758 4.26161497 5.71887434 0.00527299 0.00172408 0.00295852
C 6.06270640 2.87139644 4.67826033 0.00077689 0.00070199 0.00197196
C 2.60702490 3.87892330 12.95227461 -0.00355183 -0.00261058 0.00548714
C 1.74666178 10.25069391 3.17580007 0.00094505 -0.00310466 -0.00369698
C 6.85676672 9.31372379 11.76520213 0.00144480 -0.00238759 -0.00260813
C 2.61517953 10.16999404 11.55437627 -0.00139429 -0.00484093 -0.00445320
C 5.84989647 9.10806804 3.52803310 0.00543609 -0.00292196 -0.00144832
C 6.59105220 2.77868897 13.02702622 0.00280456 0.00388793 -0.00894262
C 1.66988856 3.66498005 4.49101991 0.00105291 -0.00010886 0.00566599
C 6.49471667 2.21687069 3.54787649 0.00455071 -0.00684137 0.00188485
C 2.16331328 4.47698803 11.74581261 0.00460137 0.00182884 -0.00026336
C 2.10995274 10.83420153 4.38252291 0.00165681 0.00282028 0.00752933
C 6.49228194 8.57614768 12.91017235 -0.00259419 -0.00089349 -0.00299329
C 2.22272902 10.89660770 12.71258106 0.00420569 -0.00612522 -0.00711050
C 6.27431837 8.50892739 4.68235435 -0.00163438 0.00338227 -0.00127922
C 6.35921660 2.05819484 11.88309316 0.00456015 0.00213976 0.00368653
C 2.14590938 4.29584490 3.34104259 0.00505854 0.00201203 -0.00236394
C 7.20267047 0.98230657 3.64448303 -0.00664079 -0.00274784 0.00346767
C 1.42592005 5.61464104 11.80067700 0.00060565 -0.00183233 0.00511379
C 2.87211754 12.00831840 4.40693791 -0.00277651 0.00067422 0.00143741
C 5.67609582 7.40113228 12.75069961 -0.00334132 -0.00099439 0.00524746
C 1.49582847 12.12489317 12.61830249 0.00073920 0.00793205 -0.00176149
C 7.10934188 7.37946527 4.58361879 0.00718923 -0.00293687 -0.00275048
C 5.72180153 0.84286571 11.92749691 -0.00446050 -0.00080816 -0.00155014
C 2.74903427 5.55734686 3.37541134 0.00116245 -0.00208557 -0.00486462
C 7.00749697 0.31589976 1.39797080 0.00128842 0.00042491 0.00296069
C 1.62106261 6.18601350 9.42262874 -0.00762013 0.00274431 -0.00375224
C 2.74838716 12.54343771 6.74857078 0.00247743 -0.01027775 0.00387616
C 5.79268956 6.69076502 15.05174260 0.00310984 -0.00557971 0.00628882
C 1.47758217 12.70164719 15.00207321 -0.00100162 0.00440300 0.00441512
C 7.22401037 6.98335015 6.92620101 0.00259225 -0.00298378 -0.00026453
C 5.86404587 0.34937745 9.53416350 -0.00034461 0.00388636 -0.00783898
C 2.72784049 6.06355240 0.95497793 0.00363117 0.00575312 -0.00554858
C 7.28758248 12.06420813 16.61629853 -0.00599578 0.00157712 0.00578992
C 1.60770567 7.46198090 8.57646498 -0.00552975 0.00993509 -0.00301998
C 2.93830423 1.08760365 7.74462167 0.00387000 0.00358796 0.00549683
C 5.80754854 5.21526355 32.50133736 0.00635800 -0.00357252 0.00471167
C 1.07054264 0.84102067 32.33473961 -0.00120052 -0.00398877 -0.00719082
C 7.44441845 5.69306701 7.82875838 0.00355961 0.00080441 0.00074208
C 5.75041045 12.09341526 7.94515357 -0.00138601 0.00546547 -0.00105731
C 3.09531309 7.41817858 16.66717561 -0.00110093 -0.00060298 -0.00091203
C 7.64846306 0.39012030 21.24243760 0.00188705 0.00173508 -0.00126377
C 0.92307057 5.90251586 29.56435589 -0.00138752 0.00566077 0.00490824
C 3.39375879 12.62641553 19.67736744 0.00279014 0.00037143 0.00755934
C 5.20230810 6.74015491 28.03599811 0.00045525 -0.00557350 -0.00008755
C 0.58970654 12.43810525 27.60163750 -0.00219034 0.00131519 0.00144139
C 7.79853160 6.96310076 19.76469621 -0.00379954 0.00701001 -0.00787071
C 4.94941768 0.20375291 29.59552601 0.00844281 -0.00034008 -0.00553740
C 3.52156902 5.69394529 20.94301208 -0.00362119 -0.01385549 -0.00479657
C 7.20093977 0.97294708 22.35490326 -0.00292837 -0.00240665 -0.00615982
C 1.46389433 5.23972192 30.63039459 -0.00485378 -0.00025214 -0.00819127
C 3.17843080 11.92046911 18.53105038 0.00515485 -0.00912390 0.00336857
C 5.45957476 7.52315253 26.90486714 -0.00673365 -0.00402203 0.00304384
C 0.99174517 11.77860373 26.45167916 -0.00798554 -0.00784614 0.00390374
C 7.38840795 7.67985958 18.59668431 -0.00176301 -0.00135100 0.00533933
C 5.35558038 0.87490095 30.71278292 0.00009512 -0.00182579 -0.00021470
C 2.97733763 5.07964022 22.06882789 -0.00907629 -0.00497021 -0.00162224
C 6.48536334 2.18030373 22.41610935 -0.00847214 0.00036468 0.00197725
C 2.29667268 4.14842046 30.52333385 0.00472685 -0.00252692 0.00402937
C 2.29726647 10.80414538 18.56522846 0.00655092 -0.00061281 0.00287620
C 6.10972464 8.76557735 27.03775221 -0.00986731 0.00645884 -0.00101408
C 1.79462934 10.67553536 26.48763268 0.00207696 0.00332605 0.00085001
C 6.51980173 8.75341397 18.71390542 0.00165819 0.00019310 -0.00673852
C 6.29139449 1.91071872 30.70763527 0.00543122 0.00749931 -0.00634057
C 2.02492747 4.10604688 22.02416825 -0.00786928 -0.00097384 -0.00076074
C 6.17595721 2.72605308 21.16602972 -0.00138607 -0.00690991 0.00676850
C 2.46239388 3.57459779 29.24122066 -0.00330628 0.00085641 0.00005398
C 1.87255382 10.30500307 19.80353413 -0.00237535 0.00369999 0.00629180
C 6.43017898 9.13795263 28.43536356 -0.00053666 -0.01000395 0.00132163
C 2.23938557 10.16647641 27.71137901 0.00689082 0.00370764 -0.00098185
C 6.09090473 9.21082208 19.96315619 -0.00105506 -0.00092659 -0.00135897
C 6.58848541 2.46147605 29.30298909 -0.00156994 0.00352791 0.00278148
C 1.93471651 3.47486010 20.73233655 -0.00256840 -0.00783293 0.00234929
C 6.56662433 2.13356243 20.00935919 0.00789252 -0.00149404 -0.00295000
C 2.02252979 4.27025935 28.18838203 0.00631767 -0.00174358 0.00439434
C 2.03917897 11.02361497 20.92462599 -0.00770376 -0.00010824 -0.00080448
C 5.98753070 8.52662768 29.48519325 0.00396172 0.00299552 -0.00352068
C 1.79311632 10.78644655 28.91305016 -0.00405145 -0.00369704 -0.00427992
C 6.39918274 8.48301529 21.11505866 -0.00425948 0.00266034 0.00156588
C 6.08682174 1.81100330 28.17454512 0.00159976 -0.00499601 -0.00023952
C 2.33302329 4.05477699 19.55395741 0.00100877 -0.00081068 -0.00638163
C 7.21950639 0.83097069 20.02741505 0.00200046 -0.00230623 0.00137606
C 1.34640455 5.53037113 28.30124656 -0.00053532 -0.00097889 0.00466320
C 2.81619812 12.20635686 20.91241233 -0.00198481 -0.00149569 0.00245727
C 5.46093964 7.20078484 29.29603908 -0.00110652 0.00475197 -0.00437570
C 0.93855837 11.95768183 28.87360003 -0.00691809 0.00640692 -0.00388936
C 7.25611080 7.34971898 21.01495951 0.00651430 0.00010028 0.00233830
C 5.37940808 0.60317741 28.33321563 -0.00403358 -0.00394383 -0.01137720
C 3.10202733 5.25456469 19.65081414 0.00050936 -0.00280667 -0.00028118
C 7.05585801 0.28296498 17.63727596 -0.00288157 -0.00593081 -0.00193700
C 1.33020374 6.03588483 25.93026204 -0.00053039 0.00140868 -0.00129711
C 2.42872152 12.72825844 23.23741259 0.00755969 0.00423606 -0.00117766
C 5.77123135 6.47855447 31.61404136 -0.00631365 0.00288700 -0.00343357
C 1.37978431 12.67125347 31.23919262 -0.00275420 0.00216389 0.00005678
C 6.94444512 6.66736457 23.39075966 0.00596956 -0.00099659 0.00209554
C 5.60382308 25.70532589 26.00027470 0.00477434 0.00739618 0.00273665
C 2.81887964 6.21602466 17.45556690 0.00637426 0.00365875 -0.00479392
C 6.81266065 11.89094167 32.87617114 0.00765330 0.00004394 -0.00580114
C 1.18531864 7.20240028 24.93755532 0.00457751 -0.00640897 -0.00120442
C 2.83769481 1.04147807 24.14110065 0.00490319 -0.00133289 0.00064829
C 5.59211886 5.57259275 15.93954386 0.00190790 -0.00336592 0.00112105
C 1.79022997 0.92048188 16.29444270 -0.00171880 -0.00167447 -0.00161629
C 6.66145122 5.29644808 23.89828486 0.00107443 -0.00482744 -0.00081511
C 5.30330371 11.97788608 24.72760887 -0.00509328 -0.00419598 -0.00558643