1920
Time=86000.00000007 pbc="T T T" Lattice="25.47433386 0.00000000 0.00000000 0.00000000 25.81242225 0.00000000 0.00000000 0.00000000 32.98996952" energy=-12247.85436165 virial="-18.23536744 -18.49194241 12.97307060 -18.49194241 -32.13065718 -10.48885585 12.97307060 -10.48885585 -42.26060511" stress="0.00144850 -0.00083521 0.00068125 -0.00083521 0.00073353 -0.00041905 0.00068125 -0.00041905 0.00038555" Properties=species:S:1:pos:R:3:vel:R:3
O 6.01907456 3.07298058 6.60722554 -0.00049921 -0.00544695 -0.00358054
O 2.92390929 3.91601444 14.96445567 -0.00482068 -0.00561951 0.00443936
O 1.43851246 9.84141058 1.63461739 -0.00278423 0.00181082 0.00100058
O 6.98042574 8.70728341 9.40069771 -0.00269531 -0.00909074 -0.00551932
O 2.95457353 10.17840202 9.93823687 0.00072159 -0.00435350 0.00267915
O 5.79768992 8.85076912 1.19427601 -0.00110243 -0.00109336 0.00334481
O 6.37435954 3.06217581 14.84694382 0.00249300 0.00178988 -0.00141997
O 1.91016710 3.46889885 6.85012046 0.00591689 -0.00148344 -0.00084117
O 6.14027769 1.43275474 17.00377367 -0.00587746 0.00336659 -0.00112449
O 1.91778031 5.23096272 8.84335056 -0.00193490 0.00132572 0.00877174
O 2.15103693 11.67795374 7.67679044 -0.00001679 -0.00418884 0.00259271
O 6.55559867 7.35510504 32.06696984 -0.00215948 0.00063326 0.00176221
O 1.66121607 11.34764128 32.48813332 -0.00312920 0.00359856 0.00328168
O 6.08346990 7.06405770 7.28469897 -0.00252628 0.00049112 -0.00135786
O 6.41631688 1.26522986 8.62699260 -0.00347757 -0.00452383 -0.00459881
O 1.92300248 5.35238910 16.88698739 -0.00577013 -0.00178075 0.00210481
O 6.60806974 3.00102409 23.35151841 0.00353917 -0.00349074 -0.00214191
O 2.56115756 3.42505652 31.35262191 0.00570594 0.00655079 -0.00699338
O 1.65920013 10.12433072 17.98582097 -0.00414400 -0.00360101 0.00164612
O 6.64275568 9.36296545 26.00793022 0.00280261 -0.00961370 0.00345524
O 2.58985295 10.36969790 26.16905493 -0.00502820 -0.00683972 0.00428000
O 5.61081815 9.06122945 17.68967942 -0.00497038 0.00134686 0.00340869
O 6.89758350 2.57976805 31.53983845 0.00211971 0.00566357 -0.00047262
O 1.42613400 3.90595139 23.20017845 -0.00910841 -0.00344165 0.01193666
O 6.60631948 1.04657169 0.55234723 0.00978881 0.00324832 -0.00327898
O 1.95474640 5.47273126 25.17069872 0.00241156 -0.00550858 -0.00262884
O 1.92872061 11.76084017 24.11779294 0.00267368 0.00233609 -0.00526615
O 6.46975394 7.75368461 15.72448361 -0.00498622 -0.00365620 0.00423598
O 1.48914519 11.68027569 15.91772574 -0.00031045 0.00319126 -0.00269832
O 6.26571055 7.97729134 23.98086058 -0.00459754 0.00140447 -0.00266722
O 6.38484759 1.20129212 25.26874211 0.00034016 0.00181003 -0.00048586
O 2.29773617 4.91835089 0.49306430 0.00403622 0.00152898 -0.00092649
O 5.83135942 15.51846415 6.98604648 -0.00422038 0.00199583 0.00106692
O 2.67994748 16.95026336 15.40875581 -0.00191912 0.00066889 -0.00246776
O 1.70276470 23.06595176 1.29664096 0.00233416 0.00242575 0.00032918
O 6.50884841 22.25386019 9.50900462 0.00816428 0.00400439 -0.00052041
O 2.52757301 22.69054670 9.74421731 0.00070102 0.00034873 0.00604087
O 5.98872786 21.98791974 1.23551993 0.00232419 -0.00477597 0.00065980
O 6.38390418 15.56141522 15.31869359 -0.00068356 0.00549539 -0.00123671
O 1.40285696 16.57656356 7.26806086 0.00003368 0.00012991 0.00642532
O 6.47698439 14.40598226 17.47479033 0.00054871 0.00191413 0.00864874
O 2.11012870 17.86081820 9.39868421 -0.00288978 -0.00200999 0.00404921
O 2.18109077 24.37811242 7.55731275 0.00401981 -0.00305624 -0.00184251
O 6.42027627 20.56871639 32.14636228 -0.00039476 -0.00398893 -0.00582443
O 1.99674283 24.43295214 32.16852605 -0.00761986 0.00336193 0.00411345
O 6.25412524 20.39948233 7.46739225 0.00164870 -0.00047230 0.00142717
O 6.45419137 13.95998326 9.06235921 -0.00132772 -0.00009129 0.00184175
O 1.85300541 18.15156770 17.64309711 -0.00044955 -0.00176357 -0.00478126
O 5.82669076 15.77858955 23.80674092 -0.00441485 0.00128899 0.00352822
O 2.66667078 16.32011154 31.93474033 -0.00633124 -0.00184979 0.00369274
O 1.99605078 22.89975497 17.63298696 0.00173033 0.00650696 -0.00061840
O 7.15699793 22.39320692 26.22805191 0.00869336 -0.00620820 -0.00548712
O 2.53619893 23.38955873 25.77419826 0.00405117 -0.00736121 -0.00307257
O 5.89755046 22.47816747 18.16869420 -0.00017176 -0.00136170 -0.01271124
O 6.75164779 15.60958099 31.80705392 -0.00513347 0.00609478 0.00752078
O 1.78408867 16.82463112 23.76364868 -0.00334137 -0.00110878 -0.00148687
O 6.07350674 14.00690509 0.88588855 0.00255224 -0.00001279 0.00405330
O 2.22758778 18.10828535 25.98700403 0.00000826 0.00510768 0.00548015
O 1.88449600 24.79042674 23.53932085 -0.00860748 -0.00243922 -0.00041456
O 5.80947485 20.90494139 15.71054535 0.00563132 -0.00303581 0.00215628
O 2.00393488 24.84967950 15.70866616 -0.00445543 -0.00314924 -0.00074263
O 7.22625679 20.73847876 24.20942191 0.00117468 0.00345680 0.00382647
O 6.43845153 14.13152049 25.63050984 0.00320897 0.00291453 0.00119296
O 2.16469223 17.95961393 0.90989784 -0.00001548 0.00703188 -0.00319442
O 14.43211703 2.79019218 6.53008672 -0.00282203 0.00025959 0.00193687
O 10.98647877 4.14195058 15.41460606 0.00368923 0.00081026 -0.00154319
O 10.05431087 10.28229004 1.34817730 -0.00008772 -0.00862043 0.00050140
O 15.49143122 8.87831114 9.75289745 0.00036163 -0.00287908 -0.00271058
O 11.53822595 9.81548858 9.63989946 -0.00085925 -0.00185851 -0.00041345
O 14.41144350 9.04696553 1.33548178 -0.00462790 0.00108389 -0.00089860
O 15.02689308 2.87356967 14.66640876 -0.00736800 0.00390903 -0.00146637
O 10.44538855 3.35246089 7.08273933 -0.00111434 -0.00037917 -0.00269967
O 15.38092329 1.32043556 16.75758887 -0.00182700 -0.00581809 0.00158818
O 10.63490242 5.01591564 9.01910168 -0.00652917 -0.00278085 0.00375467
O 11.39780677 11.25784829 7.52657108 0.00074869 0.00057166 -0.00239980
O 14.94853494 7.49008593 32.36072435 0.00330233 -0.00889506 0.00654909
O 10.57736406 11.75823202 32.30502564 -0.00174493 -0.00546948 -0.00242761
O 15.04943036 7.66840492 7.56085631 0.00308960 -0.00098148 0.00477407
O 14.82352531 1.05060942 8.55226855 -0.00601454 0.00150326 0.00061235
O 10.16117992 5.51692250 17.28526905 0.00098807 -0.00818452 0.00231814
O 14.25027078 2.98292473 22.96156667 -0.00216741 0.00476873 0.00160415
O 10.95094005 3.84106375 31.75404003 0.00510557 0.00495636 0.00054227
O 10.27779021 10.29665425 18.14518953 0.00213022 0.00160609 0.00033146
O 15.11699398 9.14292873 26.14425871 -0.00280924 -0.00160897 -0.00109092
O 11.08859462 10.38675377 26.18388424 0.00250687 -0.00175614 -0.00048499
O 14.05331642 9.35101088 17.62788933 -0.00828306 0.00243961 -0.00559628
O 15.53587408 3.11583461 31.19621184 -0.00216102 0.00210876 0.00077336
O 10.14538687 4.12369342 23.38765726 -0.00108390 0.00045994 0.00351466
O 15.45634128 1.51958848 0.45386746 0.00551987 0.00316720 -0.00186546
O 10.70083028 5.17418443 25.65519389 0.00433509 -0.00518888 -0.00505819
O 10.59151548 11.86356739 24.24487907 0.00062090 0.00694860 0.00292306
O 14.73463870 7.50112606 15.86132051 -0.00166249 0.00466219 0.00751073
O 10.51713890 11.70825521 15.84302735 0.00056090 0.00214766 0.00085578
O 14.79566241 7.78572423 23.73435366 0.00136538 0.00275579 0.00026857
O 14.90765550 1.05782287 24.91473711 -0.00561639 0.00181792 0.00260111
O 10.43287357 5.09641264 0.84598009 0.00229892 -0.00024576 0.00032814
O 14.05645525 15.45151671 7.46743856 -0.00383752 -0.00189470 0.00422043
O 11.32285243 16.54973548 15.13313328 -0.00885445 0.00365532 0.00822158
O 10.02643800 23.23730350 1.30203839 -0.00641459 -0.00170718 -0.00342148
O 15.61751375 22.02303723 9.34096416 -0.00207629 0.00870408 0.00104341
O 11.23232310 22.77010427 9.60801036 -0.00142666 -0.00144389 -0.00550652
O 14.46819268 22.42745623 1.18118912 0.00686210 0.00011199 0.00140502
O 15.62897860 15.75524465 15.27949847 0.00419328 0.00083773 0.00591384
O 10.00195484 16.64778729 6.90529010 0.00376572 0.00387082 0.00003013
O 14.96906637 14.35059109 17.33173153 0.00245423 0.00063767 -0.00247287
O 10.27425374 18.12147529 8.98576779 0.00188982 -0.00202155 0.00445986
O 11.10515046 24.32298666 7.57620130 0.00104676 -0.00534639 -0.00533282
O 14.55269411 20.90602489 31.97095244 0.00385534 0.00138958 -0.00042390
O 10.47752878 24.56949522 32.06376995 0.00035375 -0.00349635 -0.00432933
O 15.15705398 20.50713276 7.34110049 0.00330323 0.00528793 -0.00117378
O 15.02964563 13.88537192 9.44576115 -0.00365134 -0.00160027 -0.00017549
O 10.93991468 18.06802063 17.17405927 0.00129208 -0.00123087 -0.00645845
O 14.69449266 15.90238429 23.67796503 -0.00267712 -0.00054468 0.00033090
O 11.26608680 16.50043050 31.54479640 0.00374278 0.00524516 0.00189883
O 9.93330084 23.20749418 17.30185165 -0.00351087 0.00466065 -0.00322934
O 15.71690947 22.05685248 25.85737097 0.00469940 -0.00021704 0.00355980
O 11.43086961 23.32404371 25.72118645 0.00320343 -0.00055343 0.00170446
O 14.60332239 22.26679300 17.47838888 -0.00322958 -0.00441535 -0.00101001
O 14.87390472 15.44019302 32.08066247 -0.00298260 -0.00323178 -0.00634359
O 10.26269668 16.72707978 23.32110934 0.00017952 -0.00260343 0.00302852
O 14.71173338 14.01573183 1.30967808 0.00903364 0.00150305 -0.00040773
O 10.32744071 18.23561747 25.35177911 0.00206978 -0.00132680 0.00374334
O 10.81600509 24.71982403 23.55484628 -0.00273749 0.00111931 0.00487816
O 14.60703595 20.67592828 15.51940912 -0.00686916 -0.00102180 -0.00328830
O 10.92544654 25.04010348 15.34246219 -0.00113003 -0.00581016 0.00499314
O 15.15482056 20.83533093 23.62235902 0.00398296 0.00803500 0.00192163
O 14.81591143 14.17451476 25.47043835 0.00094686 0.00049792 0.00585667
O 10.70781676 17.97708850 0.68782291 -0.00054139 -0.00192082 0.00221765
O 22.79722620 2.76472656 6.84161350 -0.00106647 0.00421037 -0.00239541
O 20.18412604 3.81632975 15.35114706 -0.00038010 0.00539116 -0.00360542
O 18.44304743 10.14240914 1.50670349 0.00000295 -0.00496012 -0.00021988
O 24.12904825 8.80835302 9.21363510 0.00333474 0.00195766 0.00367202
O 19.06935934 10.32881866 9.50482692 -0.00135835 -0.00460877 -0.00021432
O 22.85558896 9.20587526 1.27174189 -0.00268072 -0.00408688 -0.00022606
O 23.92912060 2.49894786 15.10128675 0.00348230 -0.00026771 0.00508827
O 18.61949505 3.77819655 7.11301437 0.00233526 0.00136842 -0.00023302
O 23.48934830 1.08801481 17.40330870 0.00491286 0.00181402 -0.00948056
O 19.35783582 5.26180894 9.30966972 -0.00029393 -0.00094478 0.00492139
O 19.27956639 11.75982559 7.47444601 0.00306209 -0.00235277 0.00612985
O 22.91648195 7.97140914 31.98855774 -0.00454241 -0.00440470 -0.00375898
O 18.65479128 11.67885662 32.45421653 0.00455801 -0.00001354 -0.00087079
O 23.41755505 7.49983813 7.25244029 -0.00156381 -0.00141977 -0.00483785
O 23.23297720 1.23258348 8.89904000 0.00203427 0.00478421 0.00055488
O 19.28868074 5.28033280 17.26611960 0.00138437 0.00239054 0.00330467
O 22.58351344 3.00934855 23.28438930 -0.00261994 0.00390786 -0.00183050
O 19.87748949 3.69692731 31.61428055 0.00327289 -0.00251750 0.00440782
O 18.66895452 10.21856280 18.24712571 -0.00225946 0.00243079 -0.00354609
O 23.70776427 8.95499456 25.83395688 -0.00150577 -0.00606725 -0.00131899
O 19.74631058 9.74025654 26.40688419 0.00504348 0.00325440 0.00068218
O 22.90047417 9.24516057 17.43686487 -0.00031522 0.00177381 -0.00386882
O 23.93304016 2.52235056 31.53316978 -0.00039810 -0.00209801 -0.00117826
O 18.37786930 3.80433970 23.28167485 0.00048579 0.00328517 -0.00003708
O 23.39364272 0.99472496 0.67898463 -0.00348660 -0.00766823 0.00335714
O 18.91767739 5.21496819 25.49434098 0.00322424 -0.00158029 -0.00270505
O 19.10864969 11.59467017 24.32200700 0.00014238 0.00150518 -0.00055010
O 23.39316034 7.75211197 15.41729854 0.00568452 -0.00002439 0.00722372
O 19.01702044 11.44742385 15.98947488 -0.00267239 -0.00645555 0.00484809
O 23.09731201 7.69267514 23.54920330 -0.00056927 -0.00467140 -0.01047083
O 23.19179080 1.33010888 25.15183326 -0.00125701 0.00359949 0.00348656
O 19.36889296 4.97088746 1.01617549 -0.00008368 -0.00321911 -0.00610536
O 22.58966024 15.46721494 7.03960087 -0.00051223 0.00450385 -0.00027627
O 19.47092211 17.02394157 15.83093112 -0.00279414 -0.00060443 -0.00084159
O 18.66347086 22.91128813 1.04325096 0.00423402 -0.00071417 -0.00407837
O 23.58879214 21.82652715 9.84517492 -0.00453763 -0.01060177 -0.00727215
O 19.43632464 22.88960012 9.50931949 0.00048531 -0.00733824 -0.00297217
O 23.06194880 22.29418760 1.60458258 0.00110790 0.00366905 -0.00588592
O 23.85662470 15.93772729 15.00034225 0.01414459 0.00576497 -0.00887430
O 18.66040396 16.69474012 7.14741619 -0.00268015 0.00122071 -0.00838007
O 23.71393126 14.33970870 17.20546148 -0.00397200 0.00232956 0.00362317
O 19.34133062 17.85376758 9.26871778 0.00315225 -0.00273158 -0.00397607
O 19.36433311 24.29392838 7.30245590 0.00054817 -0.00446118 -0.00557787
O 23.48866522 20.81239645 32.48006571 -0.00227697 -0.00141693 -0.00187529
O 18.81120310 24.51343002 32.09409758 -0.00011924 -0.00628725 0.00008774
O 23.16765059 20.46357148 7.66240478 0.00303548 0.00425246 0.00521444
O 22.90314448 14.02058431 9.03834107 0.00745061 -0.00003071 -0.00149643
O 18.61618833 18.43021604 17.75183931 0.00057167 0.00253337 -0.00535807
O 22.66162810 15.51419361 23.62426632 0.00710206 -0.00187147 -0.00707190
O 19.41852047 16.80014498 32.02263137 -0.00361173 -0.00331026 0.00241083
O 18.74574391 23.25693599 17.55965940 0.00000388 -0.00246357 0.00107049
O 23.86682681 22.28213818 26.28489312 -0.00374546 -0.00357388 -0.00137273
O 19.65814071 23.25394600 25.77839397 -0.00636227 -0.00740018 -0.00183467
O 22.75390848 22.38863277 18.20859275 -0.00563961 -0.00071552 -0.00497960
O 23.53674139 15.78038516 31.91135822 -0.00299138 -0.00284878 0.00206798
O 18.84223540 16.27945265 23.60525773 0.00150763 0.00137763 0.00470629
O 23.15313336 14.17954511 0.79618715 -0.00345107 0.00018081 0.00414712
O 18.99869145 17.94191143 25.61993336 -0.00280498 -0.00140118 0.00678117
O 19.18109986 24.69674343 23.71515332 -0.00398746 -0.00373622 0.00129710
O 22.96179584 20.88408036 16.19865545 0.00341419 -0.00156111 -0.00200169
O 19.07707249 24.77243644 15.46643822 0.00268505 0.00432258 0.00310402
O 23.44481714 20.41993849 24.36766323 0.00357898 -0.00189951 -0.00068269
O 23.01527533 14.14807398 25.81595048 0.00390234 -0.00193932 0.00142048
O 18.64870655 18.34253488 0.93965153 -0.00865896 0.00000798 0.00095209
N 7.32458419 12.88533923 2.46739706 0.00427080 0.00899304 -0.00324823
N 1.02781525 6.47759111 10.44763556 -0.00411452 -0.00324129 -0.00188460
N 3.25045493 25.60663404 5.97515914 0.00451861 0.00318312 -0.00124124
N 5.22327211 6.52201491 14.14469007 0.00538876 0.00137177 0.00270456
N 0.92695028 0.02166838 13.97995142 0.00476078 0.00113764 0.00693463
N 7.73129964 6.48723479 5.81881030 -0.00008424 -0.00435691 0.00706340
N 5.47835068 12.63932974 10.69638603 0.00082557 -0.00412681 0.00179712
N 3.06945587 6.32761304 2.15599371 -0.00732785 -0.00732100 -0.00633865
N 7.46011170 13.16891472 19.08973596 0.00194693 0.00070535 -0.00220998
N 0.78837070 6.51972265 26.96230504 0.00283184 -0.00780008 -0.00177508
N 3.24021755 0.08101457 22.10342163 -0.00618625 -0.00580304 0.00320751
N 5.19497074 6.42915161 30.37591830 -0.00776989 -0.00205361 0.00113111
N 0.89121902 25.56755865 30.51508572 -0.00054364 0.00110112 0.00076573
N 7.36178404 6.77589350 22.42937266 -0.00048996 -0.00226131 -0.00564175
N 5.19698988 12.99764320 27.18592127 0.00033634 -0.00888053 0.00185984
N 3.00740503 6.60331042 18.58412355 -0.00115509 0.00663776 -0.00137981
N 7.14188342 25.51376318 2.36739793 0.00319455 0.00068623 0.00596855
N 0.84623249 19.12085309 10.81007455 0.00402298 0.00703633 -0.00144752
N 3.19919337 12.80123412 6.00419880 -0.00522193 0.00838640 -0.00680687
N 5.40022087 19.36006777 14.07882531 -0.00149412 0.00083858 0.00017506
N 0.91730033 13.01241675 14.15669745 -0.00817702 -0.00383037 0.00537514
N 7.29129528 19.22957231 5.87845449 0.00371116 0.00115659 0.00092055
N 5.60785791 25.71329457 10.31832288 -0.00146546 0.00560451 -0.00748069
N 3.10153178 19.11986902 2.66597212 0.00160642 -0.00093335 -0.00619124
N 7.35934356 0.29985969 18.56110861 -0.00306249 0.00365381 -0.00100578
N 1.02188537 19.18400596 27.54710783 -0.00686400 -0.00400095 -0.00278101
N 3.09704673 12.97539735 22.54173819 -0.00967579 -0.00187284 0.00736643
N 5.03572879 19.64441927 30.52511713 -0.00632783 -0.00014941 -0.00148535
N 0.87565751 12.66496905 30.87474862 -0.00128352 -0.01336367 -0.00415117
N 7.69284157 19.33594582 22.40324611 0.00212076 0.00355227 0.00040956
N 5.02735685 0.19002576 26.89283299 -0.00099389 0.00204342 -0.00360906
N 3.36031259 19.09124679 19.00832290 -0.00756845 -0.00408102 -0.00233535
N 16.16559558 13.18358425 2.86546660 -0.00000742 -0.00435436 0.00171339
N 9.72385227 6.55682526 10.51044468 -0.00148515 0.00171038 -0.00687850
N 11.86838392 25.75540698 5.86116134 0.00262349 -0.00892639 -0.00626313
N 13.69401329 6.30639014 14.27270863 0.00371091 -0.00364439 -0.00150147
N 9.46192962 0.00395932 13.81061456 -0.00360600 -0.00102133 -0.00218287
N 16.09515810 6.40142378 5.98457778 0.00491598 -0.00238607 0.00163620
N 13.83895166 12.83327265 11.06647116 0.00669643 -0.00564014 -0.00008779
N 11.66616526 6.12909516 2.43924683 0.00164305 0.00768070 0.00368965
N 15.86966511 13.12697742 19.00419913 0.00101167 0.00476621 -0.00383334
N 9.41024288 6.33686874 27.12973217 -0.00068998 0.00070605 -0.00138222
N 11.99950467 25.70303350 21.84937641 -0.00360288 0.00028217 -0.00109711
N 13.75564643 6.27710879 30.82505587 0.00462106 -0.00573112 0.00615921
N 9.32489854 25.62231244 30.33292454 -0.00075912 -0.00274937 0.00426765
N 16.11447742 6.80288335 22.09260438 0.00479585 -0.00836093 -0.00608559
N 13.79598812 13.02266821 27.21050192 -0.00507133 -0.00291394 -0.00162535
N 11.53239626 6.65231456 18.68881554 0.00526699 0.00388639 -0.00213243
N 15.92738755 0.02251437 2.12062255 -0.00155080 -0.00883378 -0.00165511
N 9.00181936 18.94025925 10.70737340 -0.00830621 -0.00630925 -0.00110270
N 11.70474765 12.85866298 5.94389755 0.00725183 -0.00088512 0.00444246
N 13.59101509 19.45616064 13.79454819 0.00345086 -0.00274987 0.00316532
N 9.39670140 12.58254663 14.02594532 -0.00510438 -0.00031141 -0.00027067
N 15.90139025 19.31004185 5.51780629 0.00826748 -0.00506812 -0.00086382
N 13.84369268 25.61849771 10.18700252 0.00101378 0.00200099 0.01136845
N 11.64857645 19.29949096 2.32074827 -0.00201810 0.00204586 -0.00119496
N 16.09136759 0.01197447 18.59674654 0.00300239 -0.00064150 -0.00027181
N 9.45024654 19.37365833 27.13107209 -0.00328257 -0.00235430 -0.00298515
N 11.65422168 13.10263061 22.68191821 0.00170952 -0.01116027 0.00884448
N 13.61546516 19.54981640 30.27331096 -0.00365939 0.00136590 -0.00349379
N 9.32944082 12.88193651 30.80962613 0.00224360 0.00059172 -0.00103036
N 16.05572034 19.57750179 21.95141776 -0.00712316 -0.00413446 0.00067390
N 13.64703938 0.27530165 26.70700336 0.00146701 0.00009483 0.00410928
N 11.67884619 19.46328835 18.80626338 0.00157078 0.00350778 -0.00507757
N 24.51515505 13.31983304 2.38553248 0.00722284 -0.00488718 0.00463371
N 18.00705843 6.17852267 10.84859068 0.00643186 0.00083720 0.00063001
N 20.15189112 25.67050071 5.61029938 -0.00026227 -0.00102358 -0.00735398
N 22.13553749 6.65610263 14.00425081 0.00196947 -0.00291862 -0.00248817
N 18.05186644 0.18708040 13.84767029 -0.00337482 -0.00115530 -0.00485508
N 24.33593453 6.15204666 5.55544671 -0.00004193 0.00850014 0.00282234
N 22.21787701 12.71370067 10.84038867 0.00388740 -0.00498654 0.00338478
N 20.22409335 6.38252578 2.56079449 -0.00036211 0.00530143 0.00093099
N 24.68731539 13.11428151 18.92500357 -0.00395630 -0.00215337 0.00172231
N 17.76241120 6.23415222 27.17349676 0.00048565 -0.00308536 0.00245087
N 20.20916116 0.18700354 22.12982464 0.00687974 0.00155375 0.00393681
N 21.98774157 6.58967730 30.49014899 0.00192065 -0.00913811 -0.00481787
N 17.81938337 25.71474668 30.45320475 0.00257496 0.00172619 0.00795476
N 24.44886796 6.65905412 22.10146599 -0.00015094 0.00715440 -0.00433501
N 22.01176857 12.93808719 27.46983832 -0.00137517 0.00267125 -0.00466254
N 20.19636476 6.65974072 18.84797800 -0.00471378 -0.00297430 0.00134733
N 24.40931729 25.67049793 2.35523754 0.00286191 0.00376138 0.00116288
N 18.02104953 18.94070639 10.84266971 -0.00669787 0.00118367 0.00180340
N 20.28867086 13.00280624 5.83987393 -0.00465976 0.00052674 0.00014687
N 22.17355579 19.41613418 14.59815545 -0.00525069 0.00282018 0.00465711
N 17.97812356 12.78292690 14.42643115 0.00035951 -0.00205087 -0.00401760
N 24.48157034 19.36188629 6.19272327 -0.00975686 0.00542125 0.00251061
N 22.23188659 25.80555834 10.46132320 0.00251219 0.00197492 0.00432993
N 20.17076932 19.18774417 2.39993525 0.00100689 -0.00046299 -0.00208079
N 24.82460922 0.23495295 19.06596956 0.00104031 0.00403961 0.00785371
N 18.22192929 19.40841549 27.24333543 0.00096854 -0.00014057 0.00998812
N 20.08887335 13.01198631 22.79955495 -0.00093784 -0.00136083 0.00659305
N 22.46542715 19.61456594 30.83359980 0.00205636 0.00743376 0.00197818
N 17.88889004 12.89621720 30.61591979 -0.00178394 0.00188389 0.00204439
N 24.60526302 19.51374815 22.66217250 -0.01136734 0.00594458 -0.00132694
N 22.23032711 0.14335274 26.82720030 -0.00658669 0.00401990 -0.00304017
N 20.19160597 19.31428234 19.21263611 -0.00047271 0.00287602 -0.00685917
C 7.53311047 0.33592949 4.68899813 0.00104376 -0.00334159 0.00657889
C 0.89781778 6.07502425 12.82785848 0.00063968 -0.00656287 -0.00034252
C 3.20009891 12.34216679 3.63678601 0.00514840 -0.00240212 -0.00338853
C 5.24951105 6.58138712 11.72931240 0.00164883 0.00712091 0.00886009
C 1.06383894 12.55199936 11.83948850 -0.00604011 -0.00022308 -0.00763630
C 7.42548593 6.63499755 3.40852210 0.00499498 0.00153223 -0.00223712
C 5.34201822 0.28694586 12.68244000 0.00759948 -0.00299217 -0.00563908
C 3.30449593 5.91842744 4.55453413 -0.00389728 0.00033289 0.00593372
C 7.15634133 1.16674762 5.75766473 0.00327757 0.00134898 -0.00449901
C 1.33188624 5.40998273 13.91821368 0.00384708 0.00081339 0.00440473
C 2.74842445 11.54921476 2.56843818 0.00304729 -0.00200330 0.00229460
C 5.67743000 7.09811961 10.51895750 -0.00194234 -0.00240364 -0.00349393
C 1.37039192 11.74864200 10.76249751 0.00074257 0.00693993 -0.00294765
C 7.09954344 7.25406426 2.20213117 0.00161667 -0.00348530 -0.00176863
C 5.46309637 1.04912732 13.79601540 0.00621101 -0.00164880 -0.00542149
C 3.11889805 5.30036770 5.71561568 -0.00132340 0.00371768 0.00160535
C 6.39088794 2.29454614 5.60462920 -0.00666911 -0.00081136 0.00000291
C 2.24859146 4.36829374 13.82530894 -0.00534792 0.00038706 -0.00374626
C 2.06210994 10.35220515 2.71305971 0.00334940 -0.00310167 0.00826516
C 6.45336584 8.27728763 10.56984508 -0.00880464 -0.00258428 -0.00212107
C 2.15732535 10.63635229 10.95872528 -0.00696116 -0.00517966 -0.00054670
C 6.26516736 8.35040346 2.34270270 0.01370237 -0.00147676 -0.00659603
C 6.10033067 2.28430194 13.79854988 -0.00183938 -0.00006373 0.00022920
C 2.32904772 4.00427064 5.72055050 -0.00115569 0.00756813 0.00636037
C 6.13073534 2.68729547 4.26792355 0.00916631 -0.00536989 -0.00515858
C 2.46591445 3.73032419 12.61383022 -0.00074675 -0.00171723 0.00685845
C 1.93006018 9.83033467 4.04143160 0.00010886 0.00150617 -0.00340827
C 6.71131336 8.93203254 11.78295701 -0.00033267 0.00073717 0.00201086
C 2.35951423 10.19882289 12.25595108 0.00393251 -0.00126078 0.00672944
C 6.04346766 8.96767768 3.60132213 0.00005597 -0.00105189 0.00000050
C 6.59596612 2.69260582 12.51380667 -0.00430320 0.00471342 -0.00638202
C 1.94996672 3.53518034 4.43607892 -0.00382675 -0.00189663 0.00108496
C 6.47277085 1.88696905 3.23304290 0.00458243 -0.00591523 0.00777786
C 2.01049648 4.42314850 11.45321786 0.01146244 -0.00973416 0.00134868
C 2.37448149 10.61534256 5.10158420 -0.00335831 0.00296030 0.00791286
C 6.34796834 8.42129469 12.99283656 -0.00891277 -0.00575691 -0.00271047
C 1.89797141 10.90141816 13.34185794 0.00286580 -0.00117127 0.00192218
C 6.47512817 8.38797496 4.82774125 0.00060972 0.00773834 0.00796623
C 6.45202191 1.94667906 11.33905664 -0.00010216 0.00344921 0.00400583
C 2.09987900 4.28645026 3.25857113 0.00342126 0.00054448 -0.01268363
C 7.02292739 0.65952809 3.42560873 -0.00192254 0.00181060 0.00254427
C 1.32179054 5.67252786 11.53344831 0.00143881 -0.00472399 -0.00483425
C 2.88675619 11.97947135 4.96424086 0.00418770 -0.00453262 -0.00183094
C 5.58386322 7.18600578 12.96375748 -0.00236313 -0.00537222 -0.00219254
C 1.28564832 12.17240887 13.12297445 0.00196807 0.00361039 -0.00709357
C 7.24102148 7.14492200 4.67086435 0.00169800 -0.00034969 -0.00738390
C 5.79338782 0.73436155 11.42033193 0.00681433 0.00353535 -0.00978055
C 2.82695158 5.50538964 3.29211728 0.00612504 0.00417501 -0.00494030
C 6.97874700 25.78291182 1.04345176 0.00376567 0.00342863 -0.00094439
C 1.58016814 6.32518381 9.22936458 -0.00385296 0.00280784 -0.00392595
C 2.78860181 12.61328958 7.32808379 0.00181553 0.00120858 -0.00280471
C 5.81653690 6.73426687 15.36443925 0.00156145 0.00126389 0.00364011
C 1.20583865 12.80223202 15.49161682 0.00392289 -0.00064592 -0.00246873
C 7.08355744 6.41792759 7.00573034 0.00220693 0.00173079 0.00510158
C 5.99383552 0.18060826 9.03018730 0.00348794 0.00454309 0.00370751
C 2.68226888 6.00609786 0.89098341 0.00082533 0.00159616 -0.00715987
C 7.26912479 12.22415831 16.89872941 0.00590598 -0.00146224 -0.00309879
C 1.69285828 7.52485013 8.37705885 -0.00270760 0.00174405 -0.00041224
C 3.03139494 0.79223261 8.18092795 -0.00319859 0.00004055 0.00455978
C 5.51731292 5.24954636 32.46209373 0.00420548 0.00154666 0.00280478
C 1.27655893 0.86245868 32.64522594 -0.00173992 0.00242398 -0.00058942
C 7.58040236 5.39748117 8.00176435 -0.00205019 -0.00609582 0.00332117
C 5.90921462 11.72637609 8.49034535 -0.00096165 -0.00170688 -0.00113293
C 2.65788502 7.60084306 16.46498411 0.00308481 -0.00344459 -0.00644482
C 7.72242122 0.49466794 20.89845725 -0.00030786 0.00458407 0.00310924
C 0.99724378 6.09749277 29.34007619 -0.00051273 -0.00361547 -0.00005936
C 3.29600845 12.54439569 20.17366694 -0.00215342 -0.00414165 0.00087274
C 5.16049448 6.72865115 28.05185932 0.00081316 -0.00469479 0.00320516
C 0.66283000 12.38541100 28.50674513 0.00471025 -0.00506440 -0.00414259
C 7.67425415 7.27214127 20.05444069 -0.01298198 -0.00087374 0.01016044
C 5.06432721 0.40253906 29.24036283 -0.00427348 0.00715391 0.00128440
C 3.27943409 6.18764112 20.96744452 0.00066325 0.00539854 0.00204500
C 7.48751705 1.09768477 22.12554396 -0.00509527 0.00589973 0.00426560
C 1.17278704 5.19740198 30.38111290 -0.00099642 0.00165103 0.00010574
C 2.94168233 11.84119433 18.99447536 0.00731312 -0.00044830 -0.00084888
C 5.37312996 7.57205595 26.95345268 0.00395877 -0.00354106 -0.00957669
C 1.14513441 11.81607853 27.35358348 -0.00348379 0.00362084 -0.00216662
C 7.20752693 7.84436084 18.86941912 -0.00057432 0.00719791 -0.00462220
C 5.55698135 0.88628096 30.44726277 -0.00359095 -0.00997703 -0.00986483
C 2.99534235 5.40584567 22.14179738 -0.00491959 -0.00064784 0.00126051
C 6.74102718 2.35151963 22.17133014 -0.00322334 -0.00158346 0.00120661
C 2.02501661 4.06718697 30.28403858 -0.00354775 0.00247666 0.00454632
C 2.17014760 10.67831320 19.06921817 -0.00068975 -0.00328728 -0.00190033
C 6.16173350 8.70589109 27.06283748 -0.00212538 0.00082468 0.00149326
C 2.02489261 10.76384645 27.30753613 -0.00092162 -0.00459965 0.00669907
C 6.12945760 8.77706040 18.87283474 -0.00006587 0.00114165 0.00127605
C 6.31480365 2.03748094 30.42575964 0.00169083 0.00176839 0.00510860
C 2.07966483 4.36514533 22.06681504 0.00408248 0.00306245 -0.00001261
C 6.21051484 2.84825759 20.99168749 0.00252443 0.00141195 -0.00157457
C 2.28074542 3.73330592 28.92011921 -0.00167208 0.00666316 0.00157657
C 1.84695609 10.28726941 20.42521104 -0.00497567 0.00032155 -0.00779670
C 6.50613891 9.10661999 28.35322057 0.00511855 0.00460846 -0.00009660
C 2.36544414 10.17456079 28.53351254 -0.00142545 0.00727281 0.00081900
C 5.80149106 9.31817780 20.10632578 0.00792488 -0.00780552 -0.00930688
C 6.64215634 2.61231679 29.23075594 0.00469965 0.00649611 -0.00455586
C 1.75989106 3.82380860 20.81804153 -0.00120304 -0.00317935 0.00448564
C 6.50217479 2.23397831 19.76088068 0.00182188 -0.00102418 0.00827486
C 1.76017259 4.45744268 27.83943434 -0.00290643 -0.00196150 0.00348109
C 2.35336361 10.87472904 21.57725974 0.00143841 -0.00393496 0.00033477
C 6.13896856 8.46592367 29.48283130 0.00497859 -0.00400420 0.00298557
C 1.85872101 10.69397080 29.74426638 0.00368515 -0.00467453 -0.00378370
C 6.21070843 8.72872801 21.28041927 0.01036863 0.00133253 0.00645060
C 6.17000539 2.13369415 28.03291156 0.00599069 -0.00135588 0.00605284
C 2.08688498 4.58515606 19.67644905 0.00944364 -0.00365949 0.00916302
C 7.19088542 1.02006671 19.74654335 -0.00160693 -0.00110821 -0.00663960
C 1.17834169 5.70625014 27.96879593 -0.00014861 0.00086730 0.00966750
C 2.94756042 12.15603423 21.44942441 -0.00148358 0.00638373 -0.00152955
C 5.53639138 7.19319380 29.31500835 -0.00474177 0.00186314 -0.00471609
C 1.16505852 11.89247862 29.74675565 0.00232471 0.00484024 0.00208772
C 7.06890474 7.58213490 21.32105645 -0.00705131 0.00423774 0.00227832
C 5.47243078 0.87652866 27.99131409 -0.00604926 0.00295476 -0.00155418
C 2.75913966 5.82095139 19.74060927 0.00432178 0.00662941 0.00257285
C 6.90117236 0.53615560 17.31368235 0.00219599 -0.00141790 -0.00526583
C 1.45581739 6.48713135 25.69486727 -0.00007001 0.00682573 -0.00013774
C 2.52162898 12.78398523 23.76346930 -0.00096476 0.00654131 0.00123430
C 5.80181601 6.51313632 31.60522196 0.00034447 -0.00033401 -0.00603540
C 1.37719912 12.46103452 32.12876574 -0.00748080 -0.00512447 -0.00142758
C 6.91082444 6.96306430 23.67103720 -0.00571088 -0.00007348 0.00098887
C 5.72422559 0.24651755 25.70155444 0.00346968 0.00455390 0.00085997
C 2.48614523 6.38762504 17.34118791 -0.00833698 0.00118861 0.00046502
C 6.94303707 11.79942511 0.23182311 -0.00180102 -0.00977087 -0.00220504
C 1.30756400 7.77152763 24.85184232 0.00700122 -0.00288986 -0.00535151
C 2.55400647 1.25949359 24.04629583 0.00411265 0.00087996 -0.00124835
C 5.66920932 5.60672253 16.27782959 0.00145614 -0.00709944 0.00154195
C 1.13144225 1.29730952 16.07102330 -0.00177031 -0.00230673 -0.00257207
C 7.22968465 5.80979373 24.51938114 0.00475503 -0.00539863 0.00709998
C 5.41972627 12.07158075 24.98849115 0.00204776 0.00644737 0.00321801