1920
Time=1000.00000000 pbc="T T T" Lattice="24.91967613 0.00000000 0.00000000 0.00000000 26.53042810 0.00000000 0.00000000 0.00000000 32.96109317" energy=-12236.78269744 virial="-59.97551058 24.40385761 9.71429927 24.40385761 -45.53648101 -21.62508834 9.71429927 -21.62508834 -67.40815196" stress="-0.00033797 0.00115690 0.00031782 0.00115690 0.00012937 -0.00097485 0.00031782 -0.00097485 -0.00108193" Properties=species:S:1:pos:R:3:vel:R:3
O 5.91913957 3.09629000 6.94332974 0.00216855 0.00208500 0.00347988
O 2.36691855 3.42539938 14.65201227 0.00261337 -0.00206120 -0.00493614
O 0.96871487 10.13787197 2.18185397 0.00096315 0.00630354 0.00206602
O 7.09093308 9.20564856 10.00572629 -0.00511740 0.00062128 0.00300206
O 2.66098410 10.36223586 10.08760458 0.00157236 -0.00270374 -0.00027930
O 5.60971906 9.70532893 1.60938101 0.00112844 0.00275437 -0.00312990
O 6.45637081 2.46972757 15.66751284 0.01033438 0.00149120 -0.00548691
O 2.07082588 3.83699662 6.66646795 0.00695500 -0.00185691 0.00006857
O 6.18782242 0.81619930 17.71127211 -0.00375935 -0.00660376 -0.00247985
O 2.17797452 5.55826276 8.72249375 -0.00091812 -0.00004285 0.00189197
O 2.19588844 12.06757782 8.12746647 -0.00070260 -0.00195191 -0.00577806
O 5.43470256 8.06325619 32.32869327 0.01230962 -0.00231883 -0.00360643
O 1.55881875 12.00039603 0.21664838 -0.00019059 0.00200066 0.00495402
O 6.17056704 7.89707721 7.83919949 -0.00249552 0.00320037 -0.00249659
O 6.73288396 1.75078248 9.28426367 0.00656549 0.00561460 0.00241897
O 2.57376619 5.09593520 16.66537279 0.00972784 0.00475215 -0.00748523
O 5.53497397 2.66849720 23.68072041 0.00317146 0.00401137 -0.00334250
O 2.37133816 3.69197994 31.31802213 -0.00232827 0.00463551 -0.00125031
O 2.02887595 9.66464140 18.59566280 0.00581318 0.00676290 -0.00032653
O 6.39006749 9.20886036 26.14520961 0.00683018 -0.00161453 0.00075315
O 1.81184654 9.98398665 26.93441642 -0.00147777 0.00712158 0.00419270
O 5.57321961 9.14654164 18.12432999 -0.00094760 -0.00332135 -0.00037555
O 7.14765782 3.36215035 31.35286078 0.00870810 0.00204797 -0.00398629
O 1.47128303 3.64645091 23.13961257 0.00749085 0.00317232 0.00492560
O 6.96863356 1.58140563 0.49422238 -0.00666218 -0.00084820 -0.00698686
O 1.92592798 5.40306587 25.20427629 -0.00176556 0.00262630 -0.00890022
O 1.31319630 11.56112567 24.56062285 -0.00458839 0.00030143 0.00247112
O 6.62152943 7.77599641 16.04620549 0.00092397 -0.00524392 -0.00107102
O 2.03897767 11.58765500 16.50470906 0.00246722 -0.00197476 -0.00222113
O 5.50827127 7.46001019 24.44705429 -0.00439505 0.00807594 -0.00371768
O 6.11693262 0.80232685 25.42080740 -0.00013596 -0.00182157 -0.00085373
O 1.87134970 5.44606312 0.55789889 -0.00969797 0.00163114 -0.00111615
O 4.87228085 17.53226740 6.95179003 -0.00696699 -0.00226152 -0.00281925
O 3.14183906 17.01315549 15.53952608 0.00103864 -0.00514277 -0.00238018
O 1.47131466 23.72306619 1.88082920 -0.00941442 -0.00093000 0.00296725
O 6.77319408 23.50803284 9.44074631 -0.00281743 0.00663787 -0.00616488
O 2.50984693 23.80985340 9.63475602 0.00439790 0.00445467 0.00200588
O 5.67817005 22.98017200 1.58926691 -0.00399050 -0.00389758 0.00136850
O 7.69132608 16.49715050 15.42555046 0.00697331 0.00351450 -0.00506915
O 2.25029521 17.26096859 6.73006268 0.00261164 0.00756466 -0.00102837
O 5.77221020 14.01787137 17.78663064 0.00134669 -0.00161702 0.00264212
O 3.13158704 18.73213683 9.46124329 -0.00607868 0.00136670 0.00234682
O 2.27063624 25.67650124 8.03294417 0.00517282 0.00775677 0.00157954
O 5.33426569 21.41698800 32.54280326 0.00513990 -0.00548376 -0.00088678
O 2.05544121 25.19289566 32.66467069 0.01011756 -0.00094781 -0.00107918
O 6.47102055 21.61491682 7.71774422 0.01284916 0.00329286 0.00509369
O 7.14280625 14.00142603 9.68868465 -0.00276988 -0.00084267 -0.00045147
O 2.00188664 18.63008399 17.31974238 -0.00176802 -0.00593871 0.00331615
O 4.76335201 15.56393895 23.80087575 0.00085063 -0.00764803 -0.00183408
O 2.53677916 16.72790751 31.86741893 -0.00362041 -0.00418358 -0.00042199
O 1.42677266 23.40938874 17.72663328 0.00782552 -0.00229781 0.00022164
O 5.94261054 22.61153151 26.05632829 -0.00134288 0.00635755 -0.00476282
O 1.72829066 24.14205511 26.16618989 -0.00670736 -0.00235365 0.00234584
O 5.59897862 22.77535385 17.97001886 0.00361361 0.00643657 0.00483774
O 7.06287463 15.70634254 31.79002558 0.00077029 -0.00721792 0.00237584
O 2.09000678 17.11665883 23.48734837 0.00436385 -0.00396468 0.00526637
O 6.53569960 14.80275259 1.33872320 -0.00214075 -0.00235005 0.00534404
O 2.41355828 18.65189726 25.52571229 -0.00585034 0.00313015 0.00496636
O 2.65689621 25.21422063 23.71010674 0.01333799 0.00214103 -0.00496709
O 6.50168353 21.36963504 15.62008155 0.00391203 -0.00405865 -0.00047115
O 1.73199722 25.30722528 15.92278175 -0.00813005 0.00793147 -0.00025670
O 5.32406185 20.93883788 24.03924747 0.00266439 -0.00271101 0.00127151
O 5.82002148 13.99810177 25.80436486 -0.00612353 -0.00557278 0.00432401
O 2.43542262 18.97781194 0.58380899 0.00212193 0.00852594 -0.00513714
O 14.05900464 3.32156301 6.89084842 0.00231447 0.00450956 -0.00910939
O 10.92634682 2.92438879 14.67243891 0.00581976 0.00009276 -0.00088181
O 10.22306831 10.22377291 1.64558593 -0.01026219 0.00081607 0.00072721
O 15.60544547 9.70169326 9.24126930 -0.00118974 -0.01135630 -0.00126164
O 10.89661381 10.18057722 9.80134338 0.00563801 0.00209468 0.00201818
O 13.97913475 9.58237985 0.61150328 0.00176909 -0.00232818 -0.00237179
O 15.49287340 2.76796710 15.20468063 -0.00016141 0.00615178 -0.00315645
O 9.70248511 4.40610083 6.45263177 0.00642810 -0.00117082 -0.00004859
O 15.55551922 1.05287882 17.43830559 0.00267152 0.00215316 -0.00258682
O 10.47068983 5.43780796 8.78946965 0.00090462 -0.00541388 -0.00380550
O 10.31697447 11.68423840 7.94343672 -0.00640949 0.00643792 0.00824580
O 14.97937395 7.85265530 31.80309969 0.00179256 -0.00738128 -0.00874044
O 10.63337391 12.07834634 32.86150812 0.00608897 -0.00017432 -0.00145463
O 15.08488973 8.52111806 6.95069059 -0.00431079 -0.00187407 0.00279088
O 13.46379096 2.07338014 9.03981784 0.00571371 -0.00109112 -0.00404160
O 10.68693613 5.39763985 16.96485953 0.00196924 -0.00439240 0.00158282
O 14.21938581 3.18708628 23.49887331 0.00381266 0.00272787 0.00701217
O 11.11769299 3.84324772 30.78457941 -0.00542409 0.00572727 0.00849597
O 10.03106658 9.85748219 17.68658951 -0.00151040 0.00550703 -0.00290100
O 14.80259822 9.81181028 25.75446814 -0.00125558 0.00292383 -0.00361186
O 11.03898633 10.43012409 26.73308506 0.00068534 -0.00754642 0.00078673
O 14.12399979 8.38494505 17.53900177 -0.00573943 -0.00267559 -0.00100116
O 14.45173322 2.72795421 31.87720893 -0.00187660 0.00005377 -0.00465594
O 10.69002804 4.09646550 22.97383715 -0.00680407 0.00274465 0.00696153
O 13.97556997 0.94028348 0.96881984 -0.00037466 -0.00171739 0.00127176
O 9.75182835 5.91914897 24.71370942 -0.00450002 0.00138842 0.00257017
O 10.43646711 11.15558253 24.25434753 -0.00051980 -0.00139765 0.00937946
O 14.16894458 7.34315500 14.95344604 0.00116162 0.00083823 -0.00836538
O 11.13749593 11.75515008 16.00118027 -0.00517833 -0.00221570 0.00565713
O 13.99876539 7.60180269 24.06358634 0.00428472 0.00100995 0.00046098
O 14.08824689 1.01362088 25.75288296 -0.00851505 0.00106019 -0.00266024
O 10.45331730 5.33002018 0.18202237 0.00571466 -0.00274031 0.00856093
O 13.60458612 15.85273014 7.23944310 0.00139132 -0.00655189 -0.00106371
O 11.08010159 16.98192882 16.17182979 0.00404253 -0.00138280 -0.00076216
O 9.37437946 24.18936748 1.35080753 -0.00244768 0.00060012 -0.00439112
O 14.28963204 24.05527857 9.73642930 -0.00425012 0.00371930 -0.00143186
O 10.24515937 24.34419643 9.46046327 0.01072752 -0.00253961 0.00059083
O 13.97284187 22.66381920 1.01271669 -0.00472266 -0.00098527 -0.00601605
O 14.86246574 16.08198453 15.38213722 -0.00524819 0.00051806 -0.00171749
O 10.09837655 17.06478838 7.28548172 -0.00242426 0.00114132 0.00137707
O 15.18230519 14.57058696 17.47772063 -0.00238051 0.00197241 -0.00054697
O 9.80814071 18.45751893 10.13573196 -0.00718768 -0.00190030 -0.00952268
O 9.88842611 25.81970766 7.53045749 0.00957034 -0.00086560 0.00531044
O 14.39549124 21.02710008 32.05718614 -0.00254936 0.00182850 -0.00029940
O 10.80955897 25.57448673 32.29527836 -0.00316605 -0.00817293 -0.00224754
O 14.35061203 21.27224851 7.09175299 0.00196322 0.00393473 -0.00220187
O 14.45359551 14.50515327 9.33914098 0.00603869 -0.00325887 0.00183868
O 10.72507731 18.73944289 18.24866015 -0.00186555 -0.00285930 -0.00478030
O 13.29005227 15.84783063 23.60693461 0.00695582 0.00434736 -0.00679915
O 10.73550139 16.89280496 32.58631732 0.00593380 0.00270431 -0.00019382
O 10.11009140 23.46867076 17.92191286 0.00370698 0.00278940 0.00429017
O 15.32554051 22.30689436 25.87489762 0.00715016 -0.00458404 -0.00564252
O 10.19787483 23.76981318 26.12513321 0.00260809 0.00491540 -0.00460205
O 14.77094966 22.66079451 17.74619388 0.00189786 -0.00684189 -0.00418699
O 14.23225715 16.10544564 31.98395374 0.00235683 0.00262962 -0.00565959
O 8.99994267 16.95083536 24.25703473 -0.00477261 0.00298688 -0.00200469
O 15.13538671 14.87481635 1.17372783 -0.00541916 -0.01139549 0.00185230
O 8.59935767 18.21218761 26.53867505 -0.00442520 0.00079745 -0.00078247
O 10.03849187 25.26120502 23.83532834 0.00112652 0.00454746 -0.00363096
O 14.54882264 21.18724593 15.57708552 0.00059480 0.00505054 0.00057071
O 11.12809774 24.97891463 16.10204058 0.01023335 0.00034697 0.00264938
O 14.35767149 21.01110621 23.83647159 0.00527879 0.00473967 0.00060021
O 14.50411773 14.78017135 25.62716344 -0.00309620 0.00271913 -0.00110034
O 11.05789071 19.03347292 1.11434881 -0.00478207 0.00051683 -0.00188317
O 22.47038542 2.93740623 7.14603941 -0.00581194 0.00569371 -0.00030766
O 19.51718565 3.47488222 15.75560912 -0.00500152 -0.00618478 0.00373445
O 17.77842852 9.89722601 32.80970275 -0.00852876 -0.00473673 -0.00542615
O 22.94680705 10.10854611 9.50485753 0.00130813 0.00002100 0.00197184
O 18.70988635 10.71377999 8.75195946 0.00233686 0.00020504 -0.00120002
O 21.39814860 9.55211043 1.52459144 0.00004229 0.00176620 0.00478100
O 22.98731339 3.23441397 14.97968166 0.00571247 0.00135157 0.00288360
O 17.94780579 3.44371659 7.44312039 -0.00094045 0.00084659 -0.00027514
O 23.12567285 1.77833622 17.34741720 -0.00458498 -0.00212929 0.00704619
O 17.74752476 5.14295099 9.71885526 -0.00588148 0.00083865 0.01069749
O 19.36135601 11.98914526 5.92398631 0.00642401 -0.00065547 -0.00381533
O 22.52249746 8.10905339 32.33264351 -0.00336402 0.00042440 0.00039713
O 17.84519537 11.82852451 31.10053484 0.00713407 -0.00039517 0.00302183
O 23.04021309 8.20772860 7.51951426 0.00303608 0.00258277 0.00097299
O 22.38286286 1.19978650 9.11344361 -0.01261982 0.00046942 -0.00625337
O 19.16934894 5.39965847 17.46752682 0.00385655 0.00207184 0.00538952
O 21.82413145 2.24948509 23.58416812 0.00159329 -0.00772052 -0.00057144
O 19.65889335 3.39307730 31.82272978 0.00850092 0.00802765 -0.00576929
O 17.97219026 10.48426982 16.94368052 -0.00137030 -0.00067597 0.00311334
O 23.59079154 8.86384770 25.99527802 0.00323460 0.00268232 -0.00535811
O 20.16526916 9.56553307 25.32377259 0.00610850 -0.00372929 0.00246481
O 22.37046948 10.25382231 18.37770526 -0.00368308 -0.00213344 0.00130043
O 22.61647874 2.61794863 32.09945509 -0.00477663 -0.00426661 0.00581570
O 18.57923832 3.96689344 23.78668988 -0.00149235 0.00461644 0.00700028
O 22.71169373 0.84048989 1.30204939 -0.00267947 -0.00099251 -0.00226181
O 18.05319404 5.30184423 25.96882946 -0.00258232 0.00286725 0.00904720
O 19.86657307 11.41919570 23.23196781 0.00169165 0.00739622 -0.00318772
O 22.81625379 8.51148665 15.75883161 0.00072068 -0.01004693 -0.00165199
O 18.97351566 12.16585746 15.15143911 -0.00798534 0.00099460 0.00212812
O 22.61174594 7.11942767 24.10105073 -0.00014727 -0.00425858 -0.00225437
O 22.82929034 1.21395699 25.71296491 0.00210327 -0.00172907 0.00419859
O 19.16048010 4.76822549 1.19152182 0.00041701 0.00851622 0.00080323
O 21.98721890 16.79390026 5.99398610 -0.00361632 0.01204522 0.00235399
O 19.59424300 17.30204041 15.24238421 0.00346339 0.00238414 -0.00300366
O 17.80185010 23.53422303 0.40710947 0.00029143 -0.00518517 0.00214451
O 24.67361219 23.10618225 8.83505287 -0.00139635 0.00065968 -0.00069762
O 19.76692766 23.77901446 8.56582945 -0.00626674 0.00387066 -0.00998525
O 22.29940444 22.60180711 0.56074772 -0.00225922 -0.00802613 -0.00357210
O 23.68053510 16.45229804 14.10420136 -0.00242217 0.01042262 0.00169974
O 18.12569659 17.25330878 6.93887598 0.00092403 0.00240209 -0.00313514
O 23.61569396 14.47095229 16.21917848 0.00348768 0.00087875 0.00275063
O 18.37567419 18.92113321 9.24390269 -0.00994334 -0.00463370 0.00553476
O 18.63788297 24.91338341 6.45630925 -0.00032574 -0.00486696 -0.00179946
O 22.93539175 20.82950598 31.68050894 -0.00034983 0.00272785 0.00201755
O 17.58104348 24.74853574 30.99184773 0.00556449 -0.00340775 0.00387533
O 23.95521462 21.50757462 6.64825237 -0.00124257 0.00532339 0.00145713
O 22.37281302 15.09750082 8.22014197 -0.00211046 -0.00637217 -0.00552609
O 18.67636859 18.64836195 17.26066821 -0.00182494 -0.00402298 0.00351889
O 23.51698662 16.08662501 22.62244933 -0.00381197 0.00152561 -0.00017670
O 18.90681274 16.86694852 31.71047002 0.00065242 -0.00060411 0.00214976
O 19.53825480 23.50663598 16.54564488 -0.00309433 -0.00763039 -0.00636880
O 23.17220771 22.92700329 25.67680420 0.00138348 -0.00088965 0.00783784
O 18.88297772 23.28848917 24.85506096 -0.00065535 0.00046511 -0.00430455
O 22.63627548 22.87234007 17.52605670 -0.00039511 -0.00012863 0.00147472
O 23.68744500 16.61166925 30.84152711 -0.00013699 -0.00110754 -0.00034188
O 17.27796483 16.60551956 23.19348146 -0.00390124 0.00125048 0.01228997
O 23.58443167 14.67252170 32.91973416 0.00350373 -0.00313036 0.00210159
O 18.14376369 18.01652389 25.20888825 0.00695652 0.00597656 0.00279422
O 19.29925363 25.05422861 23.00110339 0.00771672 0.00075441 0.00073244
O 23.76905215 20.66761064 14.61518339 -0.00397145 0.00410891 -0.00093793
O 18.48081380 25.04767090 14.77296381 0.00404007 0.00179869 -0.00580664
O 22.90451903 21.21852160 23.79157332 0.01126616 0.00276856 -0.00220306
O 23.20153425 14.26974758 24.77625310 -0.01153148 -0.00523499 0.00584647
O 18.98780935 18.51448732 0.91059890 -0.00244247 -0.00090649 -0.00216651
N 7.14852769 13.85806553 3.40914437 -0.00542946 0.00613379 0.00963160
N 1.46963057 6.91376341 10.45167436 0.00577698 -0.01262924 0.00326442
N 3.22616631 0.11941003 6.21787450 -0.00348677 -0.00128465 -0.00010476
N 5.54592731 6.44988363 14.49669188 0.00449696 0.01161522 0.00102752
N 1.85200441 0.39418825 14.33315757 0.00137206 -0.00114848 0.00039089
N 6.70313188 6.69094794 6.10670759 -0.01011179 -0.00983335 -0.00730136
N 5.92657492 13.13412779 11.41984424 -0.00057775 0.00359163 0.00036182
N 2.72323506 6.88523022 2.14794192 0.00076229 0.00321158 0.00081954
N 7.05161784 13.16075341 19.45703668 0.00220968 0.00909851 0.00071568
N 1.24979739 6.91064003 26.94215268 -0.00424478 0.00440863 -0.00152603
N 3.41454869 26.29372465 21.88052842 -0.00164953 -0.00498305 0.00210476
N 5.05964244 6.49294660 30.68172595 -0.00780467 0.00135093 -0.00031405
N 0.97480070 0.09759782 31.12631120 0.00997289 -0.00218680 0.00277790
N 6.94813363 6.59231872 22.83660751 0.00272497 -0.00010153 -0.00465283
N 4.80490901 12.83746013 27.52988942 0.00143312 0.00489052 0.00596099
N 3.02566134 6.37354025 18.55245809 -0.00188316 0.00551552 -0.00075776
N 7.25027701 0.18326135 2.34340392 -0.00374860 0.00533820 -0.00214354
N 1.34506592 19.29956261 10.70742877 -0.00722156 0.00317599 -0.00259397
N 2.69474825 13.31482877 6.31583552 0.00031865 -0.00183665 0.00495177
N 5.46739868 20.43229188 13.81074850 0.00540956 0.00634674 -0.00461576
N 1.36245075 13.05169868 14.85555233 0.00058663 -0.00521924 -0.00197572
N 7.30661262 20.20525923 6.05822475 -0.00064847 -0.01262536 -0.00084675
N 5.47100528 0.39026468 10.63187530 0.00215703 0.00087581 0.00402712
N 2.42873496 20.59638581 2.16762892 -0.00335946 -0.00365301 0.00322692
N 7.88608979 0.54653950 19.15999594 -0.00054901 0.00852277 0.00100929
N 1.20173375 19.78549303 27.18161189 0.00342638 0.00112093 0.00098565
N 2.81140081 12.63383541 23.20619586 -0.00276581 0.00580473 0.00339555
N 5.50057690 19.80378924 30.86900384 0.00135852 0.00013030 -0.00354257
N 1.02798261 13.33873516 31.36178710 0.00524543 -0.00679111 0.00009340
N 6.76140497 19.95853421 22.55361291 0.00246787 -0.00677041 0.00580459
N 4.81955296 0.20933617 27.25835456 -0.00130324 -0.00369291 0.00188376
N 3.05755569 19.99916979 18.77504487 -0.00426782 0.00211356 0.00429683
N 15.70591205 13.42207097 2.81551339 -0.01484983 0.00140623 0.00454036
N 9.73642766 6.61833869 10.72513927 0.00594114 -0.00010690 0.00576230
N 11.10197332 0.35440705 5.85280470 -0.00346457 0.00467777 -0.00295761
N 13.72471402 6.21734442 13.02849461 -0.00345811 -0.00903100 -0.00506575
N 10.82963037 0.03518465 14.48284763 -0.00766869 0.00233394 0.00412896
N 14.98139340 6.88487421 5.36351307 0.00622429 -0.00238729 -0.00717711
N 14.38389669 12.90472926 10.95757348 -0.00015011 -0.00236469 0.00396346
N 10.96732079 6.93809015 1.74642352 -0.00022453 -0.01068777 -0.00434144
N 15.56888749 13.32804198 19.18382054 0.00340043 -0.00427697 0.00282520
N 9.46259362 7.23057537 26.60470565 0.00309858 0.00075608 0.01212756
N 11.40624688 26.37324636 22.36761429 0.00088002 -0.00645895 0.00427748
N 13.42556006 6.98037317 30.31723315 0.00083226 -0.00715387 -0.00262610
N 9.41777951 26.48519669 30.83337659 0.00059712 0.00501931 0.00463491
N 15.01571952 6.13609549 22.58113922 0.00283797 0.00165831 -0.00641834
N 13.80040210 13.20733040 27.12482514 -0.00612962 0.00893353 0.00388731
N 11.03682718 7.10450935 18.41447212 0.00528781 0.00430996 0.01051633
N 15.62152554 0.41666562 2.45138641 -0.00746987 -0.00136755 -0.00210856
N 9.68247085 19.99599247 11.76268525 -0.00434422 -0.00776843 0.00377092
N 10.61686258 13.22723710 6.33011596 -0.00816730 0.00360809 0.00370568
N 13.35528447 20.36896879 13.77358464 -0.00002535 0.00154142 -0.00014947
N 9.79741227 12.80812214 14.57340301 0.00707722 -0.00821019 0.00078915
N 15.22943605 19.79119928 5.64321187 -0.00108956 0.00503555 0.00467028
N 13.52737784 0.36899236 10.44605445 0.01066173 0.00800757 0.00285464
N 11.51887483 20.32130950 2.96855822 0.00740290 -0.01083734 -0.00052224
N 16.46971320 0.27912201 19.37021877 -0.00377694 0.00240778 -0.00231977
N 8.78948745 19.70439931 28.24814576 0.00920658 -0.00331947 -0.00457025
N 11.40496838 12.28741882 22.49402316 0.00179163 -0.01549565 0.00180847
N 13.11874529 20.08345100 30.38385100 0.00381932 0.00376176 0.00516895
N 9.46594168 13.29922269 31.28815146 0.00215043 -0.00014703 0.00187579
N 15.17168793 19.57833315 22.31078123 0.00188338 0.00364649 0.00011127
N 13.14160296 26.27213217 27.39059536 -0.00758540 0.00967822 0.00162216
N 11.40433121 19.65791060 20.19138117 0.00567141 -0.00710292 0.00191473
N 23.81162363 13.47788721 1.87833413 0.00214201 0.00028922 -0.00026500
N 17.36458737 6.35726246 11.51054680 0.00520019 -0.00282935 -0.00520886
N 19.92787398 25.88963717 4.88606709 0.00717376 0.00066029 -0.00401966
N 21.95556595 7.20369742 14.12614103 0.00297087 0.00127487 0.00304832
N 18.11162092 0.10664310 13.17098590 0.00831312 -0.00503859 -0.00048314
N 23.71502181 6.82333998 5.78737892 0.00062107 -0.00680478 0.00249269
N 22.01932896 13.42810761 9.71291224 0.00727201 0.00030432 0.00031015
N 19.40398487 6.34003246 2.88998579 -0.00195541 0.00277450 -0.00531100
N 24.20102937 13.10854520 18.01867105 -0.00010186 -0.00127647 0.00212269
N 17.47648313 6.49164439 27.81540779 0.00881626 0.00291998 0.00087130
N 19.73435011 0.02499775 21.24595916 -0.00442038 -0.00530661 0.00157327
N 21.91221071 6.49547402 30.78814351 0.00721611 0.00170925 0.00088899
N 17.03870087 26.06264662 29.20420120 -0.00041213 -0.00500354 -0.00430499
N 23.95746048 6.63641910 22.35630685 -0.00786240 -0.00077424 0.00205352
N 22.70186845 13.13975729 26.71453798 0.00335917 0.00482084 -0.00235101
N 19.09222625 6.98791899 19.11366206 -0.00922417 -0.00529817 0.00759056
N 23.89531080 26.20423866 2.81266287 -0.00708086 0.00878386 0.00183301
N 17.31354837 19.88004131 11.00610904 0.00005464 -0.00451021 0.00039070
N 19.35946796 13.21626477 3.96981731 0.00113919 0.00269011 -0.00043706
N 22.13977031 20.40027256 12.98723754 0.00148202 0.00453848 -0.00024761
N 17.81985345 13.42239428 13.54495814 -0.00054438 -0.00649418 -0.00249730
N 24.27078810 20.07919866 4.94063220 0.00149672 0.00839419 0.00049107
N 22.43032698 26.26464874 10.85747407 -0.00223754 0.00526015 0.00102591
N 19.31572597 20.23048404 2.37653661 -0.00165184 0.00155381 -0.00329962
N 24.35127815 0.64778502 18.90032347 -0.00244648 0.00760412 0.00537577
N 17.61058272 19.40519298 27.00352598 -0.00228029 -0.00266402 -0.00346913
N 19.84601037 13.02835662 21.65147802 -0.00029181 -0.00667705 -0.00527101
N 21.63819302 19.86572238 30.14055291 0.00784470 0.00078522 -0.00385992
N 17.89336105 13.03319814 29.16821585 0.00391401 -0.00035942 0.00163586
N 23.45160295 19.77797538 22.10751545 0.00351479 0.00806852 -0.00356538
N 21.69932282 0.07508070 27.30107823 0.00128263 -0.00546010 -0.00363373
N 19.47292101 19.63329423 19.13756852 -0.01146716 -0.00692286 0.00940474
C 7.38214867 0.54201981 4.77760536 -0.00263257 -0.00491975 -0.00620476
C 1.06036025 6.27291717 12.81170452 0.00610691 0.00233757 0.00605293
C 2.78883200 12.67538929 3.94535628 0.00870741 -0.00169264 0.00467060
C 5.38933146 6.85055792 12.11867376 -0.00263860 0.00117459 -0.00091723
C 1.32739888 12.93859767 12.33076426 0.00546268 0.00003213 0.00283520
C 7.07710636 7.18869025 3.87155382 0.00247348 0.00494415 0.00329568
C 5.40275882 0.27329656 12.97537430 -0.00930480 0.00602864 0.00639042
C 2.74167520 6.65948589 4.50445141 -0.00482760 -0.00007460 0.00024419
C 7.08698302 1.28918177 5.91494684 -0.00007938 -0.00197754 -0.00752280
C 1.38648678 5.42210880 13.84107469 0.00581250 -0.00834053 0.00228063
C 2.34328708 11.80371019 2.99441482 -0.01091524 0.00633323 -0.00063300
C 5.66892294 7.59242486 10.96892653 -0.00398783 -0.00117363 -0.00089819
C 1.69062440 12.26727541 11.20655095 0.00584382 -0.00325169 -0.00397490
C 6.86107223 7.97349426 2.70560784 -0.00057455 0.00546232 -0.00118209
C 5.70627088 0.75249164 14.22168550 0.00258823 0.00089192 0.00516536
C 2.57670112 5.90673076 5.65754542 0.00270644 0.00113710 0.00433172
C 6.29413469 2.43753972 5.76739471 -0.00074178 -0.00148862 -0.00555535
C 2.11383219 4.20675905 13.57405457 0.00685610 -0.00346232 0.01446054
C 1.50703983 10.74145434 3.28478836 0.00084558 0.00067286 0.00864969
C 6.55389405 8.68950330 11.14151552 -0.00604830 -0.00156107 0.00506779
C 2.36443449 11.03136276 11.23564448 0.00037698 -0.00580806 -0.00675622
C 6.05496674 9.09099476 2.73645230 -0.00027965 -0.00186016 -0.00764944
C 6.38333148 1.94172013 14.42789712 -0.00934813 0.01472473 -0.00045226
C 2.17759230 4.58757287 5.56840126 0.00031303 -0.00191697 0.00263157
C 5.91994173 2.86521161 4.50672693 0.00331512 0.00265015 -0.00360669
C 2.61434413 3.91939722 12.32153388 0.00039480 -0.00590903 0.00173676
C 1.29854959 10.28902411 4.59782282 -0.00897006 0.00571001 -0.00385137
C 6.92080186 9.10857847 12.39428707 -0.00262777 -0.00522401 -0.00334697
C 2.68850301 10.50320353 12.48386107 -0.00086555 -0.00862008 -0.00043273
C 5.62337066 9.56682826 4.03786927 -0.00512498 -0.00367585 -0.00511759
C 6.89118773 2.62160303 13.25085257 -0.01100428 0.01568599 0.00483375
C 1.82096768 4.05105561 4.31421997 0.00038099 -0.00301429 0.00235891
C 6.23482314 2.16611108 3.38302719 0.00149635 -0.00082394 -0.00909196
C 2.40938489 4.85524431 11.32405785 -0.00452002 -0.00782764 0.00074732
C 1.80011233 11.14360456 5.59711227 -0.00813463 0.00119257 0.00318827
C 6.33262685 8.53269994 13.49713472 0.00215815 -0.00214181 0.00222786
C 2.25418390 11.13121887 13.65057286 -0.00235872 0.00572734 0.00419146
C 5.94000652 8.84620971 5.14884881 0.00239706 -0.00355417 -0.00666987
C 6.55478828 2.18116010 11.99636766 -0.00423762 0.00567258 -0.00480439
C 2.00248665 4.74365785 3.16191057 -0.00110931 0.00168100 0.01337054
C 6.98199743 0.96392874 3.50999594 0.00275060 -0.00263203 -0.00385794
C 1.59024741 5.98994745 11.50455374 0.00656192 -0.00800108 0.00631124
C 2.42082347 12.39271199 5.30366193 -0.00397550 -0.00015977 0.00555834
C 5.67325775 7.29881657 13.43507939 -0.00008801 0.00399286 -0.00140424
C 1.63257176 12.36371915 13.61526819 0.00098909 0.00149130 -0.00353180
C 6.59233533 7.63136247 5.05640932 0.00322848 -0.00371791 0.00532770
C 5.82453866 0.92957625 11.85356274 -0.00363934 0.00402363 0.00270593
C 2.47605988 6.09374992 3.24373036 -0.00005723 0.00964384 0.00610221
C 6.83223770 0.45151455 1.02823528 0.00153467 -0.00160056 -0.00575189
C 1.83241645 6.64481916 9.20279509 -0.00078522 0.00200276 0.00578936
C 2.31788184 13.15303312 7.57966812 0.00240079 0.00235815 0.00265638
C 6.00680605 6.71055021 15.74301747 0.00321424 0.00061731 0.00225821
C 1.98548868 12.68313712 15.99286018 0.00358218 0.00072668 0.00046769
C 6.45844942 6.82604157 7.40444106 0.00272433 0.00363427 0.00728724
C 6.12209254 0.68197108 9.49785517 -0.00409529 -0.00657982 -0.00088448
C 2.22978982 6.57349200 0.88818522 -0.00876463 -0.00264897 -0.00009313
C 7.04195831 11.94443075 17.37289574 -0.00588273 0.00154816 -0.00274792
C 1.74180654 7.89742024 8.29321310 0.00387394 -0.00197698 0.00307773
C 2.98220281 1.49823085 8.09934736 0.00046263 -0.00030109 -0.00256865
C 5.43648393 5.75122245 0.00380934 -0.00465939 -0.00289575 -0.01235609
C 1.60727226 0.85236292 0.38440121 -0.00253030 -0.00719679 -0.00258760
C 6.39482249 5.63950648 8.30956296 0.00298774 0.00328219 0.00581961
C 5.67821966 12.21895147 9.13964335 -0.00712507 -0.00253476 0.00432196
C 3.12485059 7.33567412 16.27780112 0.00174381 0.00800067 0.00755294
C 7.77463893 0.62194656 21.56426578 -0.00767650 -0.00071408 -0.00316079
C 0.69509454 6.18301462 29.24931013 0.00097230 -0.00754344 -0.00138159
C 3.38995702 12.16473188 20.83791447 -0.00549082 0.00382072 0.00693981
C 4.86507774 6.77896150 28.29184891 0.01085357 0.00503933 -0.00202436
C 0.86713647 12.87093552 29.00354076 0.00314578 -0.00474747 -0.00457116
C 7.15566840 7.01808827 20.55361411 0.00232445 -0.00285803 0.00149455
C 5.19600595 0.72759735 29.55375578 -0.00066071 0.00484454 -0.00770562
C 3.20469367 5.92038406 20.99952164 -0.00798093 -0.00023191 -0.00968318
C 7.26626853 1.21824354 22.71345846 0.00551672 0.00381571 -0.00435824
C 0.99331935 5.41432562 30.35942388 0.00252570 -0.00088915 0.00217262
C 3.32741669 11.28227633 19.80906481 -0.00021906 0.00458741 -0.00054086
C 5.02590862 7.63486066 27.21251619 0.00590736 -0.00106944 0.00047737
C 1.17404134 12.18402026 27.84789912 0.00215530 0.00035711 -0.00447300
C 6.71255253 7.47837034 19.32588904 -0.00403954 -0.00270141 -0.00530584
C 5.55644916 1.54720649 30.63516777 0.00925139 0.00505203 -0.00732932
C 2.88489542 5.17617980 22.09374081 0.00191881 -0.00040819 0.00154477
C 6.25017331 2.21190478 22.61195468 0.00311017 0.00752003 0.00230707
C 1.90712527 4.31813914 30.23733168 0.01345779 -0.00489919 -0.00373832
C 2.35293250 10.28795837 19.74700499 -0.00202485 -0.00113791 -0.00010212
C 5.80988087 8.74138445 27.27669949 0.00366593 -0.00225951 -0.00046515
C 1.69585258 10.87330179 27.98679336 -0.00094180 0.00089488 0.00615316
C 5.98511505 8.65428059 19.31770284 0.00509875 -0.00379460 0.00007666
C 6.39861904 2.64624208 30.37798849 0.00505331 -0.00859177 -0.00364785
C 1.96373002 4.14122791 22.01158570 -0.00379844 -0.00205142 0.00528926
C 6.06602215 2.82915117 21.30904998 0.00556766 -0.00048001 0.00164198
C 2.44876922 4.01050764 28.99301186 0.00302170 0.00655875 0.00277085
C 1.67498347 9.97313340 20.89958624 0.00166014 0.00102727 -0.00855044
C 6.12832752 9.25266963 28.56799176 0.00307738 -0.00008350 -0.00003093
C 2.06283755 10.42134724 29.29591585 0.00799652 -0.00092561 0.00519096
C 5.65430153 9.28504647 20.51626723 0.00029436 -0.00080677 -0.00584347
C 6.76162963 2.83947980 29.02533561 0.00185563 -0.00241506 -0.00212596
C 1.53055438 3.76795370 20.71124610 -0.00615743 0.01040930 0.00603792
C 6.66110893 2.35954384 20.18816756 -0.00245508 0.00389072 -0.00278898
C 2.20510124 4.85145846 27.87588633 -0.00505897 0.00708814 0.00369535
C 1.92084433 10.71182671 22.02652895 -0.00035910 -0.00115457 0.00762973
C 5.76974576 8.58746363 29.70391147 0.00099104 0.00252462 0.00680847
C 1.83287759 11.19054528 30.41157813 -0.00612394 -0.00364624 0.00275812
C 5.77958456 8.60256237 21.74442709 0.00195973 -0.00212146 -0.00024114
C 6.28050248 2.07723016 27.95879528 0.00272597 0.00037543 -0.00044196
C 2.07782499 4.35881286 19.57149456 -0.00980505 -0.00237059 -0.00523365
C 7.40120957 1.13553467 20.31691835 -0.00524078 -0.00189583 0.00346726
C 1.32208863 5.93788773 27.99870167 -0.00232804 -0.00108920 -0.00516989
C 2.74436049 11.79224647 22.07480911 -0.00009828 -0.00137543 0.00445476
C 5.21363916 7.30650502 29.58032954 -0.00329975 -0.00033639 -0.00097440
C 1.21125410 12.40160451 30.28880970 0.00493124 -0.00017462 0.00310238
C 6.64950093 7.46092492 21.74178844 0.01246922 -0.00648864 -0.00334302
C 5.41461410 0.99328699 28.22245590 0.00218324 0.00134090 -0.00594504
C 2.77511539 5.56009023 19.65908968 -0.00716999 0.00104571 -0.00321115
C 7.16133225 0.16434428 18.07376799 0.00639117 -0.00032448 -0.00650027
C 1.59130729 6.56212706 25.63519325 0.00182810 0.00940478 0.00234415
C 1.80878498 12.62925654 24.15787256 -0.00091914 0.00378381 0.00326929
C 5.38717918 6.88690867 31.97623117 -0.00367827 -0.00410500 0.00098022
C 1.38210356 13.10742848 32.66053336 0.00078002 0.00268436 0.01201954
C 6.33297977 6.58242696 24.05695506 -0.00102866 0.00259880 0.00047513
C 5.45996499 26.48083261 26.05783136 0.00586290 0.00132559 -0.00060648
C 2.84471321 6.15490090 17.20343201 0.00520094 0.00194384 -0.00543862
C 6.34291406 12.40121804 1.64891732 -0.00175425 -0.00408175 0.00394840
C 1.64805556 7.61805296 24.50231289 -0.00373462 0.00067651 -0.00316813
C 3.01359692 1.05018007 23.98102563 0.00162893 0.00383813 -0.01039839
C 5.74433104 5.66258505 16.80087497 -0.00709397 0.00271044 -0.00092277
C 2.13432477 0.92111478 16.73956794 0.00960132 0.00029950 0.00281853
C 6.63028341 5.43265129 25.04164738 -0.00235673 -0.00416849 -0.00021419
C 5.01955492 11.79562420 25.24454226 -0.00303670 -0.00370628 0.00630164