1920
Time=40000.00000002 pbc="T T T" Lattice="25.57713696 0.00000000 0.00000000 0.00000000 25.69241350 0.00000000 0.00000000 0.00000000 32.86018646" energy=-12246.04643375 virial="-62.32182334 9.30338205 -1.90149101 9.30338205 -73.21605886 21.69629581 -1.90149101 21.69629581 -22.93362097" stress="-0.00066576 0.00055496 -0.00012885 0.00055496 -0.00108200 0.00095112 -0.00012885 0.00095112 0.00118833" Properties=species:S:1:pos:R:3:vel:R:3
O 6.10954932 2.85713015 7.18389662 -0.00486342 -0.00267571 0.00424835
O 3.06062606 3.79199592 15.06054339 0.00005505 0.00607215 0.00778297
O 1.26964054 10.08741134 0.96895318 0.00337161 -0.00181607 -0.00492998
O 6.90412013 9.06147769 9.42870486 0.00226972 -0.00689682 0.00460036
O 2.72873287 10.40804050 8.98480432 -0.00185179 -0.00850145 0.00012045
O 5.91781714 9.51656550 1.30428476 0.00854553 0.00785247 0.00290736
O 7.42863789 2.66269434 15.35907200 0.00025138 0.00435288 0.00519914
O 1.98642539 3.59157986 6.98209053 -0.00278619 -0.00091889 -0.00643936
O 6.61059346 1.41437065 17.33436519 -0.00014360 0.00381245 0.00069053
O 1.90718540 5.40062080 9.02968866 -0.00469482 -0.00140107 0.00536201
O 1.99418994 11.74221519 6.88785422 0.00332857 0.00400975 0.00173599
O 6.30196619 7.92101289 32.11607551 -0.00487198 -0.00012613 -0.00360117
O 2.25551626 11.63054859 31.73800587 -0.00313958 -0.00572213 0.00601752
O 6.45629923 7.59568265 7.24608971 -0.00112563 0.00752324 -0.00615666
O 6.39943508 1.30611452 9.36706289 0.00141455 -0.00137207 -0.00324474
O 2.42276768 5.35234241 17.08538457 -0.00863033 -0.00438937 0.00217063
O 5.82278121 3.08026378 23.62088822 -0.00280160 -0.00128598 0.01023581
O 2.47211186 3.25064599 31.74014628 0.00581209 -0.00180196 0.00449951
O 1.84076690 10.53199257 17.47612810 0.00577896 0.00447072 -0.00415781
O 6.96367698 9.35405335 25.82182527 -0.00180266 -0.00129996 0.00090139
O 2.48074745 9.79042997 25.58882637 0.00216612 0.00151489 -0.00022820
O 6.27769006 9.36303899 17.51483902 0.00230904 -0.00509683 0.00245653
O 7.36927284 2.45215829 32.01068062 0.00211520 -0.00002498 -0.00156984
O 1.75248461 3.42400761 23.44012047 -0.00108462 0.00071106 0.00410406
O 6.45914278 0.83554738 1.06238807 -0.00159126 -0.00204942 -0.00299501
O 1.80531822 4.80485416 25.61395963 -0.00287510 -0.00210407 0.00138732
O 2.03551638 11.31713536 23.66502773 -0.00208536 0.00489678 -0.00262885
O 5.92917853 7.93270874 15.50462750 0.00153640 0.00041073 0.00091268
O 2.43468113 11.68034285 15.26255515 0.00403140 0.00182123 -0.00069825
O 6.57637423 7.79573746 23.65833886 -0.00377881 0.00616577 -0.00303873
O 5.93546387 1.42429077 25.89095507 0.00101760 -0.00305140 -0.00329897
O 2.53448102 5.20080737 0.84657994 -0.00460988 -0.00215166 0.00295245
O 5.70368353 15.64028866 6.70172639 -0.00164251 -0.00044220 -0.00265184
O 2.51401082 16.86277225 15.12547294 0.00104732 -0.00016169 -0.00172967
O 1.78296993 22.77079843 1.51937937 -0.00208871 0.00099891 -0.00182764
O 6.79886632 22.04135241 9.65601194 0.00118079 0.00118265 -0.00650657
O 2.70600173 23.23998694 9.66500855 -0.00603201 -0.00536969 0.00825223
O 5.93123362 21.53493851 1.23098604 -0.00017792 -0.00215787 0.00416087
O 6.77257224 15.73994218 14.77431936 0.00064405 -0.00078685 0.00178719
O 1.75685170 16.69950165 7.00233028 -0.00191443 0.00078858 -0.00410015
O 6.67990919 14.15890000 16.83565030 -0.01012357 -0.00126120 0.00639542
O 2.49588097 18.17830809 9.01368630 -0.00113934 0.00263891 0.00768903
O 2.18412146 24.63246050 7.48788473 -0.00068423 0.00856173 0.00066716
O 6.57354820 19.94835139 32.04287241 0.00274781 -0.00114312 -0.00160807
O 2.26406565 24.06811462 32.19764856 -0.00618234 -0.00068259 0.00072446
O 6.50960182 20.66939469 7.50976667 -0.00099311 0.00024884 0.00945666
O 5.83748081 13.98891491 8.52499064 0.00419911 -0.00174860 0.00421181
O 2.02238625 17.89740242 17.29159250 -0.00402751 0.00056139 -0.00237686
O 5.65171411 15.58938329 22.98151714 -0.00177437 -0.00197416 -0.00152386
O 2.62599405 16.75572638 31.29270090 -0.00195697 -0.00200781 -0.00384047
O 1.24181423 23.09772147 17.76369770 0.00111328 0.00492730 0.00176605
O 6.20578812 21.72245806 25.87545844 -0.00506241 0.00661570 0.00898668
O 2.31453607 22.86624046 26.00214474 0.00504154 0.00263009 0.00198951
O 6.07137844 22.24643303 17.74057429 0.00082097 0.00057319 0.00202068
O 6.65775588 15.96382152 31.10777359 0.00688591 0.00435757 -0.00041372
O 1.51797565 16.19380968 23.26689486 0.00171193 0.00136367 0.00653719
O 7.04029766 14.41577715 0.50557372 -0.00499745 -0.00286766 0.00624705
O 1.80747392 17.94278335 25.12729986 0.00257734 0.01152519 0.00085260
O 1.74863520 24.35339319 24.02507654 -0.00349096 -0.00144475 -0.00333036
O 6.00560769 20.56660064 15.72343025 0.00160926 -0.00602871 -0.00143527
O 2.15097080 24.43925096 15.67726522 0.00188959 0.00365913 -0.00166865
O 5.91420773 20.18392793 23.79070136 0.00357279 -0.00339964 -0.00179063
O 5.89050117 13.96764651 25.15117051 0.00195280 -0.00306645 0.00021785
O 2.21193666 17.92635714 0.71980802 0.00102992 -0.00293011 0.00091238
O 14.29750804 2.49867398 7.08622708 -0.00174552 -0.00164648 -0.00522172
O 11.29113403 3.72344404 14.80585211 -0.00015331 -0.00428317 0.00412305
O 10.00865949 10.36434097 0.96118111 0.00107136 -0.00425077 -0.00006630
O 15.21165748 8.67888340 9.62180919 0.00172787 0.00101494 -0.00472932
O 11.35751957 10.20356938 9.18455673 0.00304293 0.00199061 0.00019860
O 14.66392854 9.24925231 1.09496161 -0.00217909 0.00330539 0.00669488
O 15.45600468 2.67023095 15.34248396 0.00736117 -0.00588592 -0.00153467
O 10.55002796 3.34590695 6.94776509 0.00382532 -0.00358722 -0.00416653
O 14.61523334 0.96563682 17.30480453 -0.00140916 0.00349111 0.00397323
O 10.84665334 5.16221885 8.89914535 0.00257472 -0.00247388 -0.00525267
O 10.68304120 11.59418242 7.19716385 0.00648246 -0.00002664 -0.00074934
O 15.23549013 7.67554373 32.00446021 -0.00249412 -0.00413448 -0.00058239
O 11.01072440 11.72879867 31.97062529 0.00131325 0.00233525 -0.00064297
O 14.74399630 7.60773956 7.22615236 0.00167862 -0.00039358 -0.00494559
O 14.66161800 1.07330974 9.21035946 0.00498267 -0.00053303 0.00442949
O 11.32212951 4.90192172 17.22522444 0.00554789 0.00514367 -0.00079100
O 14.55622630 2.95432138 23.46817341 0.00028572 0.00059983 0.00941280
O 11.66590406 3.99811863 31.47604424 -0.00691549 -0.00001825 0.00073078
O 10.15036929 9.96629752 17.31832237 0.00219773 -0.00627062 0.00228796
O 15.22976287 9.58831934 25.97331072 0.00300833 0.01085440 0.00204448
O 10.87792057 10.45989002 25.83082872 0.00246938 -0.00132304 -0.00189243
O 14.34133895 9.13539967 17.87169954 0.00911835 0.00150591 -0.00219666
O 15.82345576 2.38946980 31.82899389 -0.00626182 0.00102777 -0.00142255
O 10.08463386 3.44465671 23.38965957 0.00063125 0.00065486 0.00044405
O 15.01902506 0.95474825 1.10868791 0.00378302 -0.00229631 0.00179464
O 10.55859992 5.05927162 25.28543181 0.00390809 0.00461063 -0.00335396
O 10.45112788 11.68274683 23.52289581 -0.00419555 -0.00129864 -0.00011379
O 14.59931337 7.72797895 15.84366950 0.00228179 -0.00262287 -0.00192792
O 10.09407564 11.64735203 15.26639476 -0.00402532 0.00202805 -0.00302783
O 15.14939816 7.87330733 24.07199619 -0.00115652 0.00846392 -0.00067255
O 13.85192741 1.73372180 25.67063888 0.00304955 0.00356230 0.00398594
O 10.95356230 5.25846973 0.84633932 -0.00532057 0.00321751 -0.00016558
O 14.60606185 15.11307753 7.01087963 0.00428429 0.00415807 -0.00066506
O 11.37984349 16.73128873 15.00610796 0.00109005 0.00942325 -0.00416508
O 10.68136706 23.10240540 1.61349584 -0.00482302 0.00490535 -0.00450116
O 15.41570997 21.90636349 9.60615283 -0.00678158 0.00158170 -0.00284019
O 10.97308656 22.80623783 10.08408222 -0.00123834 0.00267782 0.00046847
O 14.35615671 21.80321365 1.13294990 -0.00177579 -0.00065514 -0.00188832
O 15.33790441 15.54518080 14.90214246 -0.00557376 -0.00419062 0.00226224
O 9.83425391 16.14877013 6.86871662 0.00177185 -0.00291293 -0.00611158
O 14.97922075 14.31094647 17.09065262 0.00066754 0.00740683 -0.00433354
O 10.29243017 18.00849476 8.74755206 0.00123078 0.00159072 0.00152112
O 10.75689633 24.31782685 7.99453654 -0.00140447 0.00372273 0.00654900
O 14.91561067 20.46197273 31.89690569 0.00421727 -0.00104029 -0.00050952
O 11.02972191 24.47823644 32.45229556 0.00155134 -0.00064910 -0.00131681
O 14.89171063 20.44659763 7.42709455 0.00343610 -0.00192569 0.00183890
O 14.91445512 13.71802401 8.99998648 -0.00659413 -0.00361665 0.00034434
O 10.59535580 18.07111680 17.12127623 -0.00395850 -0.00049178 -0.00419580
O 14.51385077 15.85083610 23.24695030 -0.00449539 -0.00669823 0.00436194
O 11.27031949 16.44516245 31.74638630 -0.00551986 0.00138816 -0.00423795
O 10.30165856 23.06470560 18.01942209 -0.00273540 -0.00578862 -0.00747954
O 15.75514734 22.14433769 25.91657777 -0.00470804 0.00142455 0.00333363
O 11.30364028 22.77524813 26.33824696 -0.00328889 -0.00722217 0.00702932
O 14.39622016 21.86970034 17.65458910 0.00128207 0.00038030 -0.00103397
O 15.78472670 15.47623570 31.28553359 0.00040868 0.00043189 0.00085211
O 9.88676630 16.83223726 23.36820084 0.00120287 -0.00998719 0.00410849
O 14.66849641 14.11944799 0.61991248 0.00098692 -0.00446603 0.00378570
O 10.53381488 18.07783083 25.55488649 0.00240061 0.00044631 0.00105269
O 11.25031874 24.49180196 24.33330284 0.00206353 0.00171131 -0.00116581
O 14.65108270 20.37857663 15.60429827 0.00335941 0.00115767 -0.00623381
O 11.08685668 24.69579306 16.13319791 -0.00334071 0.00236171 -0.00663345
O 15.50612219 20.74471032 23.85678539 -0.00160720 0.00138928 -0.00885497
O 14.84527817 14.23055790 25.14543742 0.00178722 0.00339940 0.00372985
O 10.91471510 18.09612114 0.77250902 -0.00315303 -0.00438031 -0.00190774
O 23.29876450 3.10535465 7.35060702 0.00404455 -0.00485743 -0.00170944
O 20.13211759 3.88422441 15.21570807 -0.00372151 0.00696302 -0.00467077
O 19.02454617 9.67258556 1.42107075 0.00756904 -0.00060910 -0.00289048
O 23.98715363 9.11188002 9.39172340 0.00599180 -0.00241945 -0.00096950
O 19.98710793 10.18710693 9.54510883 -0.00791012 -0.00630098 0.00817889
O 23.10866598 9.12418512 0.91312758 -0.00287343 0.00740841 0.00181926
O 24.20276267 2.67377404 15.57448784 0.00801174 -0.00059347 0.00240928
O 18.59770193 4.10198790 6.92308050 -0.00435072 -0.00185525 0.00554737
O 22.91260869 0.82186389 17.32128863 0.00393059 -0.00061556 0.00072200
O 19.24680649 5.36430877 9.07913979 -0.00743861 0.00866377 0.00187467
O 19.38609189 11.69535020 7.50311500 -0.00198508 0.00150189 0.00335438
O 23.51262075 7.25456496 32.11669136 0.00053483 0.00201813 -0.00214120
O 19.12876629 11.38138636 32.10158401 0.00290001 -0.00911156 -0.00409129
O 23.49249665 7.96026872 7.19810267 0.00284628 0.00339026 -0.00365745
O 23.82405947 1.49426771 9.35654718 0.00489542 0.00528899 -0.00311421
O 18.91125475 5.08403821 17.24302361 -0.00258354 -0.00229290 -0.00022260
O 22.52872123 2.51398631 23.34489608 -0.00761440 0.00058172 -0.00363179
O 20.20947914 3.60241285 31.44745190 0.00106667 -0.00327503 0.00054652
O 18.57497197 10.05464380 17.65680965 -0.00040618 0.00165649 0.00480939
O 23.46591325 9.39973566 26.11368620 -0.00215012 -0.00731189 -0.00054378
O 19.67705563 10.02099882 26.00867941 -0.00919778 0.00307310 0.00336359
O 22.87514514 9.56326043 17.76272988 0.00242693 0.00617756 0.00214969
O 24.46020798 2.17592062 32.00698506 -0.00654518 0.00279199 0.00100814
O 18.33661483 3.82716202 23.49328434 -0.00600042 -0.00469821 -0.00545965
O 23.69270592 0.88783324 1.18021973 -0.00259214 0.00227845 0.00498915
O 18.79115670 5.17452828 25.58647509 -0.00094052 -0.00444215 0.00124437
O 19.26349724 11.59311741 23.95952878 -0.00119165 -0.00241533 -0.00435248
O 23.31919646 7.80983616 15.57876945 -0.01203163 -0.00254534 -0.00000081
O 17.90087757 11.56847501 15.53108010 0.00006685 0.00684526 0.00209274
O 23.62149439 7.66388584 23.86816896 0.00585808 -0.00192593 -0.00672870
O 23.35540840 1.40161295 25.68939655 0.00225583 -0.00037690 -0.00047548
O 19.43351687 4.80693350 0.63932083 0.00154542 -0.00106865 0.00169477
O 22.85998089 15.36182124 7.08725846 -0.00187730 0.00337915 0.00105714
O 19.52759907 16.41906810 14.78346681 0.00343162 0.01038331 0.00748736
O 18.95621455 22.85268316 1.71660557 -0.00140633 0.00044758 0.00099951
O 24.33807644 22.07313971 9.31217052 0.00508387 -0.00226966 0.00058852
O 19.83311029 23.13941679 9.78717428 -0.00440410 -0.00550056 0.00355716
O 22.58821209 21.99332283 1.16257425 -0.00318601 -0.00367089 0.00066791
O 23.82922490 15.70905910 15.08788877 0.00097776 -0.00751560 -0.00183994
O 19.13472958 16.65866354 7.00560201 0.00017725 -0.00071242 -0.00352760
O 23.19431445 14.20762434 16.98309376 -0.00530693 -0.00233750 -0.00274407
O 19.55754191 18.49112931 8.84790100 0.00160944 0.00202223 -0.00214018
O 19.45688385 24.75085883 7.73036167 -0.00536954 -0.00179775 0.00068064
O 23.45209755 20.68872369 31.97780881 0.00114245 -0.00038878 0.00078309
O 18.89743611 24.11702227 32.40125842 0.00210932 0.00162640 0.00227830
O 23.85827233 20.75546573 7.13830309 0.00220108 0.00126622 0.00011385
O 23.73418167 13.90990849 9.00549209 0.00323912 0.00189573 -0.00731730
O 19.35981780 17.82086432 16.89607335 0.00410712 -0.00957074 0.00897306
O 22.93949843 15.55061566 22.99667418 -0.00563000 0.00268506 0.00684866
O 19.98939691 16.33685666 31.36687400 0.00259619 -0.00616484 -0.00036625
O 18.38229711 22.73432262 18.00926634 -0.00602826 0.00111094 0.00160197
O 23.71682307 21.96413101 25.52843670 -0.00012139 -0.00333496 -0.00010529
O 19.96826284 23.42907517 26.30588925 0.00277492 -0.00163268 -0.00243068
O 22.51794615 21.82738548 17.49331792 -0.00442180 -0.00303323 0.00269800
O 23.95452533 15.90541022 31.00970207 0.00177282 0.00533940 -0.00416055
O 18.55012808 16.70505806 23.33131395 0.00132958 -0.00267514 0.00108299
O 23.86251341 14.74281713 0.71222865 0.00271459 -0.00244214 -0.00069353
O 19.28645121 18.19108510 25.30904303 0.00248035 0.00208812 -0.00455554
O 19.34776243 24.52170379 24.08807596 -0.00205569 -0.00307085 0.00021237
O 23.30265038 20.39990277 15.25404058 0.00761394 -0.00263430 -0.00051661
O 18.60821514 24.47478211 15.97005588 -0.00188445 0.00063156 -0.00644372
O 23.00196192 20.18075185 23.60830516 0.00680381 -0.00120700 0.00283809
O 22.94329533 14.08025231 25.09623814 0.00224114 -0.00882151 -0.00471816
O 19.60660620 17.76826947 0.68437424 0.00203047 0.00149509 -0.00474114
N 7.67268067 13.05534571 2.23767025 0.00337761 -0.00144330 -0.00172677
N 0.64276525 6.38206541 10.68553908 -0.00029591 0.00020926 0.00197147
N 3.72869266 25.44261723 6.03949949 0.00170891 -0.00458688 0.00538299
N 5.26619121 6.38418454 14.00243973 0.00513344 0.00343978 0.00275360
N 1.09260511 0.11487560 14.26773833 -0.00188988 0.00085983 0.00255872
N 7.66071104 6.53419074 5.60680773 -0.00493175 0.00056104 0.00855617
N 5.04724295 12.90659817 10.44682645 -0.00381398 0.00217747 0.00857349
N 3.29605596 6.49646607 2.44750164 0.00176532 -0.00097099 0.00687263
N 7.58500122 12.97739808 18.48306093 -0.00356713 -0.00180952 -0.00034133
N 1.19173947 6.34807080 27.19780750 -0.00046420 0.00539158 0.00159453
N 3.10782765 25.40268517 22.52569368 -0.01138012 -0.00292583 0.00192997
N 5.61569009 6.47230439 30.41537348 -0.00634985 0.00457191 0.00728859
N 1.26786516 25.45442749 30.73324751 -0.00171378 0.00273166 -0.00262861
N 7.48184525 6.44067977 22.08376380 -0.00279442 -0.00540770 0.00206552
N 5.19992664 12.69087890 26.88636583 -0.00182579 0.00141982 0.00166317
N 3.01585067 6.44968108 19.06925039 0.00204621 0.00370512 0.00119577
N 7.76083855 25.68717874 2.73311173 -0.00442395 -0.00165606 -0.00376777
N 0.96422160 19.14573690 10.37655179 0.00893093 -0.00462447 -0.00105664
N 3.31603150 12.75710411 5.30180437 -0.00494272 -0.00032475 0.00433921
N 4.92849342 19.24768658 14.12815195 -0.00119125 -0.00102518 -0.00608227
N 0.96903306 12.52116760 13.73266251 0.00081776 0.00108495 0.00294414
N 7.64346474 19.46170818 5.92827112 -0.00375464 -0.00165564 -0.00353610
N 5.33516536 25.65324158 10.96541786 0.00040998 -0.00442959 -0.00359859
N 3.58719744 19.04539459 2.30401820 -0.00717737 0.00104328 -0.00467741
N 7.36509495 0.12977986 19.13298916 0.00444628 0.00398006 0.00213732
N 0.90196065 19.27805075 26.75620132 0.00130676 -0.00028482 0.00467130
N 3.16672538 12.92157527 22.39122946 -0.00032287 -0.00009917 0.00820892
N 4.85796047 19.22324411 30.69000732 -0.00156250 0.00044067 0.00392956
N 0.94780316 12.64291746 30.10912323 0.00393663 -0.01010268 0.00294280
N 7.39310085 19.23085377 22.32385492 0.01017350 0.00458670 0.00039774
N 5.15464611 0.07698841 27.55003733 -0.00256061 -0.00097254 -0.00152251
N 3.21527580 19.03905246 18.80157719 0.00098312 0.00578590 0.00417205
N 16.08891442 13.10745935 2.11286506 -0.00393162 -0.00005992 0.00200216
N 9.42600871 6.34979538 10.29676459 -0.00151906 0.00118255 0.00128307
N 11.91038240 25.49461081 6.52646464 -0.00274360 -0.00020490 -0.00118700
N 13.72332255 6.35518678 14.30435508 -0.00234643 -0.00509664 0.00768149
N 9.68959097 25.69108721 14.59883521 -0.00283468 0.00417665 0.00475123
N 16.17984204 6.67038039 5.68856976 -0.00463656 -0.00427705 0.00457508
N 13.56056027 12.64936006 10.50943572 0.00169237 0.00685606 0.00397519
N 11.96631619 6.42886938 2.58046780 0.00593589 0.00468424 -0.00207247
N 15.88005174 12.95144107 18.78216675 0.00247443 0.00461319 -0.00094675
N 9.34224929 6.11774751 26.89791237 -0.00144826 0.00388689 -0.00670648
N 11.56374020 0.23302303 22.54373638 0.00077809 -0.00263752 -0.00221995
N 14.04529607 6.54447431 30.37487687 -0.00361512 0.00329037 -0.00291636
N 9.80475184 25.56008355 30.79498316 -0.00203071 -0.01081200 -0.00434755
N 16.20488030 6.56224646 22.44797847 0.00221482 -0.00233372 -0.00083088
N 13.90841118 13.02738334 26.77358609 0.00085851 0.00880410 -0.00085190
N 11.83853462 6.25245439 18.93384079 0.00297253 0.00403455 -0.00326990
N 16.51484491 25.62326863 2.60440141 -0.00791124 0.00289109 -0.00357300
N 9.26414400 19.05262348 10.49555836 -0.00215142 -0.00049958 0.00423563
N 11.88188577 12.78745459 5.60565564 -0.00774630 -0.01007812 -0.00318634
N 13.51640019 19.27531171 14.01537266 -0.00125513 0.00175954 0.00195341
N 9.05467500 12.64487184 13.49141687 -0.00351139 -0.00092904 -0.00928971
N 16.16721278 19.48292670 5.82446080 0.00550522 0.00201866 -0.00089841
N 13.82830966 25.50016708 10.95927631 -0.00381314 0.00541892 -0.00163283
N 12.00616030 19.00604393 2.56597161 0.00221069 -0.00517633 -0.00173583
N 15.55263717 25.38211741 19.04292035 -0.00164553 -0.00510797 -0.00503171
N 9.39703623 19.05523256 27.32497191 -0.00277374 -0.00576687 0.00124585
N 11.71856834 12.59657008 21.90474030 0.00401645 0.00955383 -0.00310811
N 13.59245270 19.49205089 30.22790471 0.00258496 0.00249233 0.00374658
N 9.75623278 13.00104682 30.60628284 -0.00525385 0.00063943 0.00768884
N 16.14918134 19.34254923 22.20962139 0.00190196 0.00479429 0.00043125
N 13.41055172 0.20776157 27.37861560 -0.00602548 -0.00169729 -0.00342984
N 11.64169925 19.20194794 18.75136862 -0.00135873 0.00010426 -0.00358062
N 24.65886748 13.30608541 2.29271994 -0.00322083 0.00660074 0.00564469
N 18.06044009 6.40019743 10.70955790 0.00206824 -0.00437144 0.00302532
N 20.64619151 0.14831305 6.09070348 -0.00516614 -0.00250581 -0.00409050
N 22.16961868 6.64129378 13.95296393 -0.00230828 0.00802066 0.00198620
N 18.25794727 0.23992766 14.19581122 -0.00554529 -0.00076480 0.00369878
N 24.64571016 6.67535597 5.77097956 -0.00018729 0.00243410 -0.00474889
N 22.20636197 12.97677474 10.37314028 -0.00238508 0.00704998 -0.00405120
N 20.50713108 6.13513033 2.17706622 0.00341567 0.00315562 -0.00837421
N 24.30570189 12.75772387 18.50485990 0.00183295 0.00320200 0.00162123
N 17.80358245 6.22500789 27.29294155 -0.00187989 -0.00104815 -0.00237581
N 20.42465223 25.43641916 22.26402657 0.00158099 -0.00856061 -0.00871089
N 22.45535968 6.04737932 30.44318911 -0.00213975 -0.00355814 -0.00221843
N 17.89315520 25.50739006 30.82415486 0.00538185 0.00642959 -0.00208346
N 24.45434446 6.44849189 22.16067063 0.00825172 0.00359783 -0.00573427
N 22.43273783 12.64722142 26.79937825 0.00800240 0.00180945 -0.00116377
N 20.28925151 6.18029391 18.80739831 -0.00475148 0.00317981 -0.00533764
N 25.03675052 0.16523890 2.92924846 0.00145652 -0.00168100 0.00212344
N 18.02761213 19.34728385 10.41422405 0.00183816 0.00119788 0.00215362
N 20.18769713 12.90205706 5.68761275 0.00138476 -0.00962148 -0.00153658
N 21.98150688 19.54790439 13.54584468 -0.00289848 -0.00126796 0.00029934
N 17.69334631 12.95638574 13.75024914 0.00436415 -0.00486892 0.00278403
N 24.76920154 19.50073440 5.47999013 0.00224079 -0.00001813 0.00120508
N 22.53053463 0.30769386 10.85129769 0.00463557 -0.00142497 0.00528783
N 20.20688847 19.32124828 2.21174412 -0.00515326 0.00341792 0.00139884
N 24.31291742 25.61834737 18.81752074 0.00175492 -0.00675872 -0.00705831
N 18.17167308 19.31836077 27.00078972 -0.00176040 -0.00313568 -0.00381723
N 20.13406947 12.79064735 22.19379926 0.00879795 -0.00251585 0.00033292
N 22.27563968 19.44574089 30.35742813 -0.00369311 -0.00235025 0.00279989
N 18.06806434 12.65425974 30.64040842 -0.00089992 -0.00607297 -0.00274718
N 24.44321114 19.26514513 22.04583541 -0.00672789 0.00016930 0.00243603
N 22.23412102 0.13988809 27.32099761 -0.00906213 -0.00582193 0.00368627
N 20.04750448 19.16184902 18.60723897 0.00330619 -0.00239768 0.00300999
C 7.75603669 0.39589633 5.07281793 0.00646995 0.00169560 -0.00713618
C 1.01601048 6.15731756 13.10827599 -0.00398443 0.00068668 -0.00563027
C 3.29044436 12.37396578 2.92798849 0.00185435 0.00088682 0.00965982
C 5.22827768 6.69168248 11.60377743 -0.00268656 0.00221292 -0.00189706
C 0.92958589 12.41905897 11.32229416 0.00646082 0.00069279 0.00088296
C 7.68286679 7.00892343 3.20586834 0.00055761 0.00689184 -0.00450773
C 5.39100656 0.34977073 13.30434950 0.00285404 0.01193967 0.00417575
C 3.37356457 6.15476192 4.78961778 0.00014150 -0.00244375 0.00492890
C 7.34335391 1.09182603 6.16629052 0.01060871 0.00517927 0.00009267
C 1.65749255 5.50692595 14.13392106 -0.00559243 0.00063578 0.00713258
C 2.96701702 11.59748359 1.82014186 -0.00275059 -0.00984565 -0.00714774
C 5.51749601 7.44695199 10.45248018 0.00505615 0.00037252 0.00089148
C 1.16252194 11.71181143 10.19071603 -0.00092106 -0.00129958 -0.00833121
C 7.32494984 7.84212733 2.16915524 0.00139329 -0.00280608 -0.00000611
C 5.85391835 1.00828936 14.44700087 0.00925829 -0.00060372 -0.00147953
C 2.96577177 5.45270788 5.89933561 -0.00321003 0.00575922 -0.00249013
C 6.52811977 2.21972654 6.02427309 0.00685327 -0.00154670 0.00347663
C 2.45318598 4.35089567 13.97472320 0.00824771 -0.00242459 0.00007314
C 1.90996107 10.60391567 2.01708673 -0.00164790 0.00660296 -0.00568471
C 6.41903722 8.49840701 10.53449640 -0.00597416 -0.00045920 0.00067538
C 2.20718449 10.74212988 10.13257660 -0.00133560 0.00206853 0.00614842
C 6.38910588 8.84844930 2.38438388 0.00598537 0.00018315 0.00180565
C 6.79190344 2.10047698 14.33479921 -0.00138471 0.00300675 0.00209665
C 2.43250999 4.19579321 5.83984299 0.00234536 -0.00166413 -0.00350897
C 6.23049346 2.62785500 4.77537450 0.00210677 0.00454793 -0.00434316
C 2.53451073 3.78738817 12.68021939 -0.00316577 0.00588859 0.00249688
C 1.67984305 10.10571010 3.33043688 -0.00553204 0.01169233 -0.00053423
C 6.72379103 8.93135284 11.79280139 -0.00157407 -0.00208045 0.00587925
C 2.56815135 10.13378686 11.40200124 -0.00136697 0.00494934 0.00306739
C 5.95899127 9.17190381 3.65465735 -0.00419348 -0.00191235 0.00570023
C 6.94966969 2.57208496 13.03883074 0.00022947 0.00228499 -0.01173626
C 2.22847152 3.63335578 4.58323257 0.00444020 0.00540773 -0.01018825
C 6.59680034 1.96795233 3.65421273 0.00718087 -0.00607533 -0.00005100
C 1.88715201 4.45502599 11.61218557 -0.00090649 0.00364609 0.00939439
C 2.10525419 10.79318020 4.41150209 0.00797734 0.00291839 0.00467230
C 6.23297145 8.36256141 12.95701133 -0.00477467 0.00207233 -0.00266987
C 2.17584769 10.65724872 12.60978938 -0.00207799 0.00390509 -0.00036350
C 6.48328662 8.52099771 4.68394142 0.00244625 -0.00196934 0.00084847
C 6.40260034 1.94597160 11.93048899 -0.00198443 -0.00109846 -0.00216664
C 2.43940857 4.36162464 3.41413884 -0.00035175 -0.00519375 0.00942484
C 7.38800651 0.78525150 3.81969975 0.00216241 0.00353241 -0.00649924
C 1.18657042 5.65943224 11.74515649 -0.00095228 -0.00653123 0.00398824
C 2.89809572 11.95572939 4.20333756 0.00266172 -0.00329728 0.00475786
C 5.56572762 7.16684386 12.86548751 -0.00571069 -0.00194021 -0.00522886
C 1.38319386 11.87545697 12.58360093 -0.00300651 0.00037208 0.00382242
C 7.32069611 7.35163994 4.51800213 0.00221786 0.00325490 -0.00230344
C 5.67421606 0.77259482 12.03265011 -0.00240708 0.00199838 0.01061760
C 3.08718311 5.64657265 3.47152108 -0.00987773 -0.00795080 -0.00594356
C 7.08773013 25.54647381 1.52900917 -0.00559235 0.00230678 -0.00326352
C 1.36192616 6.35581408 9.47741431 -0.00425954 0.00192809 0.00543625
C 2.74316953 12.67993016 6.52002343 -0.00904637 0.00015089 0.00574648
C 5.69350138 6.73364316 15.23799655 -0.00017404 -0.00702586 -0.00346166
C 1.69118935 12.57661996 14.91966774 -0.00081677 0.00141559 -0.00421732
C 7.03598727 6.59027013 6.82601130 0.00071592 -0.00866849 0.00273885
C 5.79363487 0.26394437 9.71318249 -0.00148101 -0.00980106 0.00349042
C 2.96017468 6.32597883 1.13058650 0.00554108 0.00299909 -0.00224683
C 7.14375873 11.95296594 16.30888161 0.00710641 -0.00205333 0.00347721
C 1.38010292 7.74412229 8.84924852 0.00585930 0.00809528 0.00103886
C 3.16373346 1.01586708 8.09052341 -0.00026836 -0.00376780 0.00544271
C 6.51602945 5.62170256 32.55166416 -0.00232766 0.00624738 -0.00100944
C 1.82543167 0.53841617 0.11870341 -0.00376504 -0.00816205 -0.00100496
C 7.35196262 5.40204213 7.67840472 0.00533727 0.00190598 -0.00376904
C 5.63677384 11.65383274 8.48525037 0.00043649 0.00019693 0.00411041
C 2.85275931 7.69339653 16.95239340 0.00147844 0.00158391 0.00297072
C 7.34046030 0.56766047 21.45197696 0.00805283 -0.00521735 -0.00598931
C 1.20937218 6.00372528 29.56189290 0.00221220 -0.00251176 0.00061070
C 3.30724283 12.80978638 19.95702442 0.00238009 0.00596015 0.00551836
C 5.48859823 6.89355042 28.03026261 0.00768903 -0.00835121 -0.00558507
C 0.81526193 12.15751862 27.72016631 -0.00666320 -0.00349622 0.00344767
C 7.64113632 6.83004037 19.76048896 0.00057750 0.00556759 -0.00001048
C 5.40994361 0.24664877 29.86122069 0.00253782 0.00197840 0.00225195
C 3.18390812 5.96827037 21.40973273 -0.00551827 0.00070825 -0.00893759
C 6.85198052 1.22357320 22.58662416 -0.00541583 -0.00761952 0.00128809
C 1.46458588 5.22966127 30.69224175 0.00210065 0.00294898 0.00685928
C 3.00267641 12.25418117 18.73485409 0.00333187 -0.00538565 0.00076813
C 5.80057095 7.57147455 26.90977717 -0.00093242 0.00071731 -0.00009925
C 0.98862290 11.23152134 26.68403273 0.00050860 -0.00304917 -0.00441039
C 7.54285532 7.64328287 18.66861841 0.00348871 -0.00065641 -0.00001656
C 5.96817675 0.81823983 30.95580168 -0.00214092 -0.00312408 -0.00289460
C 2.97958103 5.10607850 22.49153341 -0.00168603 -0.00170505 -0.00363880
C 6.25769036 2.43753362 22.46488575 -0.00407866 0.00422409 -0.00872387
C 2.27254583 4.05424137 30.63488781 0.00153707 -0.00112558 -0.00506334
C 2.27336282 11.00624805 18.63554767 -0.00498906 -0.00603452 0.01103563
C 6.52495239 8.74894412 27.00121412 0.00141122 0.00305473 0.00699391
C 2.06680856 10.33864721 26.71965555 -0.00293197 -0.00322099 0.00215291
C 6.61359079 8.72029370 18.61863725 0.00051416 -0.00559612 -0.00399799
C 6.79271590 1.93424532 30.86489724 -0.00336811 -0.00024472 0.00779989
C 2.03589253 4.07954353 22.31892187 -0.00881221 -0.00254681 -0.00336791
C 6.00565811 2.88483469 21.15218992 0.00350099 -0.00482904 -0.00937230
C 2.53229893 3.54178927 29.33017341 0.00943220 0.00554295 -0.00587343
C 1.92771991 10.37566139 19.81820874 0.00641151 -0.00034644 -0.00121910
C 6.73359325 9.28604250 28.27217485 0.00173371 -0.00545503 -0.01295475
C 2.62996875 10.10879897 27.97798019 0.00841658 0.00078279 0.00014580
C 6.17543029 9.15606924 19.84113627 -0.00183952 0.00022363 -0.00482468
C 6.92971774 2.53773728 29.61329181 0.00827895 0.01191238 0.00807463
C 1.55467664 3.68868248 21.04825640 -0.00881843 -0.01090661 0.00762918
C 6.29652016 2.18774186 20.06699318 0.00225924 -0.00406978 -0.00363868
C 2.18644006 4.28233287 28.20227464 0.00563583 -0.00040638 -0.00131732
C 2.26373088 11.00277125 21.01065397 0.00514683 0.00143644 -0.00122953
C 6.34939075 8.64034974 29.45559481 0.00267814 0.00977094 -0.00179449
C 2.24911691 10.85820117 29.03080690 -0.00040146 -0.00807700 -0.00213920
C 6.54055232 8.49054183 21.00032858 0.00371463 -0.00391083 -0.00122777
C 6.41579607 1.95748437 28.47412379 -0.00103309 -0.00154440 -0.00532836
C 1.91242137 4.44290097 19.99370437 -0.00592500 -0.00067547 0.00057566
C 6.94291858 0.92391603 20.16532922 0.00166787 -0.00308316 0.00107770
C 1.54700097 5.50863852 28.28111695 0.00359606 -0.00075162 0.00894035
C 2.89997077 12.21462598 21.12962083 -0.00389921 0.00536493 0.00126857
C 5.84566360 7.32068907 29.37381091 -0.00938453 -0.00416236 -0.00195173
C 1.35994699 11.96740903 28.99693504 0.00589909 0.00253741 -0.00396160
C 7.14739425 7.23269530 21.01999779 -0.00469283 -0.00788637 -0.00702610
C 5.67332571 0.73122548 28.55630325 -0.00022136 -0.00809202 0.00186782
C 2.74058664 5.57546972 20.09371631 0.00438626 -0.00320939 0.00074419
C 7.08986820 0.36002746 17.82679518 -0.00001770 0.00328598 0.00200197
C 1.42876659 5.92773698 25.90833110 0.00217940 -0.00445759 -0.00214837
C 2.50641296 12.48547919 23.49953166 -0.00560235 0.00890045 -0.00110970
C 6.06866155 6.79189776 31.70965500 0.00420901 -0.00666935 -0.00280770
C 1.65470998 12.63816898 31.29073917 -0.00018816 -0.00033741 -0.00147955
C 6.90208456 6.66486439 23.31547753 -0.00173796 0.00099024 0.00682210
C 5.54187951 0.32438793 26.27016632 0.00567118 0.00188256 -0.00027932
C 2.78769185 6.36919782 17.68383593 0.01067667 0.00046297 0.00267277
C 7.07629986 12.05542740 0.01207486 0.00269291 0.00931808 0.00356682
C 1.12915988 7.07702407 24.94709577 -0.00380475 -0.00416355 0.00368356
C 2.54955845 0.84038883 24.50107394 0.00779416 -0.00252225 0.00526966
C 5.69448080 5.52847328 16.32850390 -0.00023838 0.00232194 -0.00707763
C 1.54099356 0.88816942 16.54592736 0.00083718 0.00740726 0.00019420
C 6.92756823 5.45577708 24.21584288 0.00344141 -0.00064517 -0.00247910
C 5.49469228 11.57879470 24.71175809 -0.00004776 0.00221716 0.00192388