1920
Time=7000.00000000 pbc="T T T" Lattice="25.41410942 0.00000000 0.00000000 0.00000000 25.62057842 0.00000000 0.00000000 0.00000000 33.06485243" energy=-12246.86806846 virial="-15.12770765 -18.51591473 -7.75562549 -18.51591473 26.79093287 13.87467786 -7.75562549 13.87467786 -15.86019563" stress="0.00155644 -0.00083747 -0.00039245 -0.00083747 0.00361757 0.00065410 -0.00039245 0.00065410 0.00150320" Properties=species:S:1:pos:R:3:vel:R:3
O 5.86743184 2.44576518 7.35528406 -0.00114532 -0.00150527 -0.00368554
O 2.84243539 3.74098316 14.68122213 -0.00146611 0.00047719 0.00313307
O 1.98380922 10.17602833 1.37059384 -0.00154375 -0.00370418 0.00907867
O 6.52764549 8.96470563 9.28375701 -0.00053396 0.00703369 0.01031997
O 2.42455155 10.30199260 9.51737555 0.00347052 -0.00384141 0.00436231
O 5.51080880 9.39805872 1.14595898 -0.00075204 0.00292215 0.00130476
O 6.64956359 2.48477798 15.10455231 -0.00228902 0.00253655 0.00223903
O 2.09958050 3.83651310 6.94341869 0.00426540 0.00191667 0.00284555
O 6.06048557 1.01816684 17.48099167 -0.00150227 -0.00232723 0.00640987
O 2.73385140 5.36524051 8.83936165 -0.00574524 0.00478906 0.00462403
O 2.00284666 11.92000834 7.39775821 -0.00261920 -0.00684217 0.00002940
O 5.71115429 8.04462792 31.93996524 0.01002779 -0.00144741 -0.00018484
O 2.61004799 11.57727499 32.37178912 0.00074779 -0.00658093 -0.00381686
O 6.30822415 7.67931604 7.25011128 -0.00801964 -0.00293339 -0.00115347
O 6.58558627 0.79460120 9.14457094 0.00075655 -0.00522662 -0.00651836
O 2.37065547 5.05437046 16.94074781 0.00188373 0.00337725 -0.00275203
O 5.85789078 2.71248997 23.67044429 -0.00068185 -0.00127860 -0.00572316
O 2.79149227 3.74297323 31.34877101 -0.00078103 -0.00375783 0.00038402
O 1.69170262 10.06962472 17.73673154 -0.00240996 -0.00179552 -0.00476548
O 6.91156131 9.26686092 25.73865091 -0.00700795 -0.00105269 0.00112830
O 2.33237781 9.86434928 26.12156384 -0.00145448 -0.00821555 0.00002129
O 5.77124279 8.93883842 17.57894276 0.00173690 0.00560815 0.00342081
O 7.29056997 2.94403756 32.15702683 0.00561162 -0.00380202 0.00362337
O 1.84213999 3.55224129 23.21363785 0.00079757 0.00216276 -0.00628975
O 6.44589378 1.72880783 1.18487371 0.00903975 0.00143887 0.00050168
O 2.80352182 5.03405971 25.06888792 0.00048149 0.01042470 -0.00206885
O 1.98895304 11.56835496 24.01250987 -0.00030637 -0.00076768 -0.00040620
O 6.29931376 7.53916783 15.44381400 -0.00521429 0.00605455 0.00039553
O 2.11023391 11.58302802 15.73231031 -0.00057572 0.00039853 -0.00996394
O 6.24503301 7.65873088 23.67227126 0.00608135 0.00118972 -0.00701590
O 5.58590763 1.40944311 25.81383141 0.00078027 -0.00505078 -0.00387842
O 2.46587611 5.20455354 0.55832115 -0.00180092 0.00134861 0.00619395
O 5.89224251 15.83195740 6.95956569 0.00710934 -0.00143069 0.00387936
O 1.73002544 16.30458577 15.51248836 -0.00653157 -0.00304601 0.00385853
O 1.83840988 23.19242825 1.49903799 -0.00431480 -0.00077718 0.00590149
O 7.05441431 21.92551817 9.70992072 0.00180867 0.00271707 -0.00270465
O 2.87249153 22.96127771 9.77336231 -0.00156163 0.00395784 -0.00140760
O 5.97049349 22.64624245 1.63396535 0.00036650 -0.00699107 0.00008012
O 6.88309138 15.48444142 15.32475010 0.00711614 -0.00487700 -0.00136208
O 1.54768338 16.95618098 7.21508110 -0.00288213 -0.00383573 -0.00150058
O 6.23178427 14.12728351 17.36764280 0.00060256 -0.00336261 -0.00227256
O 1.49532821 18.38957972 9.40910727 -0.00472309 -0.00123259 0.00251895
O 2.40825044 24.45422008 7.61594535 0.00468928 0.00076206 0.00037140
O 6.10790360 20.48941321 32.55776032 0.00012540 0.00491818 -0.00174150
O 2.09711531 24.94909357 32.80646084 0.00820385 -0.00457077 -0.00073386
O 6.87249260 20.55868024 7.52816241 0.00775945 0.00066653 0.00239196
O 5.84041403 14.05908983 9.18662873 0.00399081 0.01044370 -0.00277106
O 1.83974557 17.87505445 17.47582628 -0.00594744 0.00292469 0.00137106
O 6.23940406 15.29778515 23.74310560 0.00157447 -0.00391939 -0.00511922
O 2.26846177 16.69834785 31.93763612 0.00244626 -0.00469239 0.00053809
O 1.41131900 23.21846364 17.69721706 0.00220429 -0.00473682 -0.00231481
O 7.12855713 22.08063970 26.31832138 0.00150499 -0.00607892 -0.00520635
O 2.32329086 22.46734397 26.89376430 0.00203966 -0.00343830 -0.00066587
O 5.63558972 21.99206295 17.76790365 -0.00571776 0.00168248 -0.00206129
O 7.00978098 15.75168598 31.78554303 -0.00891949 0.00192623 0.00147361
O 1.41516432 16.38971768 23.48761138 0.00176032 0.00024542 0.00485708
O 6.48039066 14.26871971 0.73266731 0.00053477 0.00333692 -0.00311318
O 2.18819720 17.75729937 25.62020266 0.00407580 0.00782142 0.00392661
O 2.11031838 24.11019867 24.03095750 0.00404332 0.00050914 -0.00459899
O 6.08639752 20.39007013 15.78099755 0.00167175 0.00358513 0.00342603
O 2.18286974 24.80269423 15.69636582 0.00092669 -0.00120574 -0.00377131
O 6.47569829 20.78137886 24.14528942 0.00187717 -0.00181647 -0.00636366
O 6.22471359 13.96632622 25.92565428 -0.00073306 -0.00385443 0.00373235
O 2.25750215 18.28771213 0.95051056 0.00131927 0.00323470 0.00575587
O 14.52832713 2.96525888 7.21286466 0.00079982 0.00619200 0.00448092
O 11.16751592 3.51465035 14.99137080 -0.00428304 -0.00544020 0.00253013
O 9.88600978 10.51606227 1.26119471 -0.00923889 -0.00012369 0.00166374
O 15.55247189 9.11477178 9.23337992 -0.00224406 0.00676861 -0.00439331
O 11.40270980 10.43405279 9.69959208 0.00370327 0.00482414 0.00148836
O 14.20323412 9.20556705 1.31899503 0.00282381 -0.00197070 -0.00080531
O 14.87394142 2.56104119 15.11909540 -0.00275345 0.00603045 0.00060193
O 10.35519710 3.82097904 7.15770161 -0.00400401 -0.00063497 0.00337108
O 15.23547606 0.99352295 17.18996853 -0.00624737 -0.00489560 -0.00802146
O 10.73084216 5.50956953 9.01756325 0.00166361 0.00873634 -0.00390119
O 10.58669147 11.66042896 7.55597599 -0.00242190 0.00747589 0.00444300
O 14.69821098 7.90174971 32.11943497 0.00056983 -0.00110117 0.00440113
O 10.83242745 12.09380331 32.48942027 -0.00977211 -0.00722533 0.00811926
O 15.08080141 7.48912290 7.30705517 0.00696793 0.00098808 -0.00636208
O 15.01338535 0.92785669 8.94509926 0.00503468 -0.00085613 -0.00679326
O 10.51347846 4.89760944 17.15755127 0.00244826 0.00248780 -0.00702933
O 14.60807717 1.88376409 23.37339949 0.00342411 -0.00418763 -0.00086303
O 11.13116596 4.00533177 31.81795112 -0.00134588 -0.00143333 -0.00482377
O 9.61980954 10.04005522 17.71711379 0.00138863 -0.00325088 -0.00094444
O 15.43149033 8.97580883 25.87922320 -0.00528377 -0.00112630 -0.00081690
O 11.11098965 9.91821668 26.52313326 -0.00067767 0.01303615 0.00054377
O 14.09081948 8.84987613 17.78271348 0.00441607 -0.00553438 -0.00219218
O 15.51281199 2.56644978 32.02414211 0.00185127 0.00642209 0.00639063
O 10.08180887 3.67955684 23.33766981 0.00511258 -0.00240741 0.00694203
O 14.73013237 1.49818729 1.11384763 0.00027782 0.00684442 -0.00495563
O 10.16625019 5.28860512 25.47630159 -0.00192315 -0.00138439 -0.00338034
O 10.33552653 11.47427729 24.00049436 -0.00113507 -0.00369261 0.00778956
O 14.78496873 7.67274186 15.38953378 0.00082887 -0.00671745 0.00150583
O 10.57762076 11.24022838 15.76012563 -0.00065349 -0.00253601 -0.00066942
O 14.77643197 7.24224746 24.08395180 0.00220277 0.00066076 -0.00078628
O 14.95520637 1.27764708 25.76669833 0.00667435 -0.00342899 -0.00925579
O 10.88461827 5.41567563 0.84131618 0.00271140 0.00102289 -0.00127748
O 14.43634118 15.51397421 6.86905204 -0.00233812 0.00504324 -0.00011443
O 10.87706649 16.56436868 15.66729798 -0.00316855 0.00107902 -0.00605838
O 10.02301520 23.04786500 1.08601121 0.00095281 -0.00772575 0.00222578
O 15.62289767 21.97983645 10.18727430 -0.00075130 -0.00108115 0.00321840
O 11.37720902 22.95740028 9.63451820 0.00065300 -0.00542294 0.00140563
O 14.54745182 22.07750110 1.61997792 0.00609810 0.00499678 0.00334272
O 15.47367688 15.41099857 14.97392052 0.00266252 0.00211936 -0.00110964
O 9.98163602 16.53632221 7.41046336 0.00133924 -0.00242032 -0.00998038
O 14.73258570 14.09943495 17.33871630 -0.00507497 0.00751330 -0.00434345
O 10.92978335 17.97540225 9.40715250 -0.00486852 -0.00675219 -0.00135973
O 11.12503786 24.40288159 7.39210752 -0.00174638 -0.00298566 0.00186342
O 14.87520985 20.42954947 32.75717349 0.00130909 0.00380281 0.00044257
O 10.87491363 24.41881671 32.05586433 0.00261676 0.00447229 0.00840796
O 14.24519012 20.04420490 7.46320370 0.00801734 -0.00400263 -0.00434956
O 15.03032261 14.04614018 8.82402008 -0.00529616 0.00338253 -0.00081638
O 10.13859532 17.90525348 17.67739252 0.00497172 0.00131451 0.00025365
O 14.33828550 15.34976556 23.74956970 -0.00507205 -0.00028275 0.00323819
O 11.20793479 17.07629630 32.15867056 -0.00141727 -0.00501385 -0.00238291
O 9.64889900 22.85994592 17.95417611 0.00160764 0.00729392 0.00570346
O 15.42170432 21.67294324 26.45242458 -0.00307912 0.00338363 -0.00704256
O 11.49331499 23.03252043 25.97004997 -0.00443570 0.00046065 -0.00222957
O 14.58122013 21.74925081 17.81367745 -0.00301164 -0.00134634 -0.00075009
O 15.29645069 15.64036231 31.72633031 -0.00216428 0.00445373 0.00737710
O 9.82356377 16.46508508 23.81790324 -0.00741303 0.00424017 0.00115242
O 14.70519557 13.99600619 0.63421037 0.00068755 0.00341880 0.00008086
O 10.38520387 17.90803776 25.93947284 0.00421133 -0.00205763 0.00024767
O 10.52573745 24.48435504 24.02196524 -0.00578940 0.00165073 -0.00440073
O 15.18440466 19.94242193 15.88774915 0.01087608 -0.00730904 -0.00449057
O 9.99190670 24.11873650 15.61412296 0.00197838 -0.00460708 0.00705767
O 15.09201005 20.39569227 24.28244136 -0.00552617 -0.00451866 -0.00572812
O 14.61117052 13.80244608 25.57578638 -0.00107195 -0.00187870 0.00234783
O 10.67360494 18.14551061 1.26898229 0.00132450 0.00188840 -0.00859027
O 23.05089054 2.92109017 6.98496913 -0.00159937 -0.00443666 -0.00600633
O 19.94548479 3.62521473 14.67205806 -0.00045096 -0.00252901 0.00451657
O 18.36641160 10.43916341 1.27551794 0.00021675 -0.00237364 0.00475660
O 23.14662116 9.36364484 9.20864916 -0.00612471 -0.00509539 0.00091107
O 19.46488668 10.30281896 9.42695368 0.00672714 0.00662506 0.00201219
O 22.73831363 9.16862805 0.83822848 -0.00547455 -0.00219652 -0.00082667
O 23.59902115 2.70283446 15.37114945 0.00176310 0.00197949 0.00497543
O 19.10030022 3.61351510 6.54128633 -0.00028797 -0.00437392 -0.00223181
O 23.31369075 0.99034297 17.31567860 -0.00390292 0.00204045 -0.00721936
O 19.11507386 5.39257146 8.48152651 -0.00174496 -0.00124434 0.00605783
O 18.72063927 11.87762107 7.37847630 0.00025304 -0.00169304 0.00588031
O 23.61726169 8.16674915 31.69194983 0.00075269 -0.00137869 -0.01049781
O 18.98541840 11.05191790 31.94632370 0.00083779 0.00525315 -0.00293150
O 23.05868094 7.77814493 6.98480494 0.00684745 -0.00321880 -0.01207063
O 23.78158348 1.41972990 9.23266090 0.00577432 -0.00374676 0.00309644
O 19.23460071 4.74231447 16.84280896 0.00063601 0.00199213 -0.00426532
O 22.70025513 2.46845712 23.54227532 0.00039395 -0.00007238 -0.00132255
O 19.54348358 3.88425361 31.30743485 -0.00600107 0.00338771 0.00565978
O 18.29216123 9.55767658 17.77122577 -0.00180389 -0.00330606 0.00216498
O 24.24499564 8.86220603 25.51500936 -0.00806137 0.00146537 -0.00087796
O 19.63079376 10.15129498 25.82611208 0.00041220 0.00189690 -0.00766740
O 22.63487717 9.20021613 17.62677942 -0.00222491 -0.00014426 0.00931085
O 23.61530278 2.85779327 31.80683144 0.00162439 -0.00134355 0.00639611
O 18.63295528 3.70384322 23.32461608 -0.00308597 -0.00690355 -0.00093216
O 23.27090521 1.42229462 0.83965415 0.00265664 0.00506724 0.00134780
O 18.75329527 5.23981471 25.32554770 0.00327990 0.00255159 0.00484345
O 19.26274449 11.62505502 23.71383458 0.00126610 -0.00797696 -0.00567546
O 22.77412742 7.71429016 15.52480536 0.00485900 0.00069034 -0.00323681
O 19.32152658 11.89241775 15.52035261 0.00159281 0.00371143 0.00032110
O 23.04774305 7.05207192 23.66879915 -0.00064171 0.00346597 0.00277898
O 23.12467398 1.08077929 25.78086987 0.00018488 0.00429373 0.00066191
O 19.29903209 5.42153996 0.29517298 -0.00081924 0.00227570 0.00236643
O 22.93478407 15.82476761 7.04129098 0.00200941 -0.00213776 0.00128265
O 19.97766598 16.66036759 15.48357325 -0.00095885 -0.00241095 -0.00632340
O 18.63712247 23.42211538 1.50696022 0.00099157 -0.00732772 0.00566389
O 23.64900408 21.94112819 9.58498294 0.00011260 0.00453127 0.00404161
O 19.56708368 22.88195786 9.71837369 0.00038520 -0.00500388 -0.00343232
O 22.66715405 21.88376666 0.95497210 0.00653500 -0.00045463 0.00296503
O 23.54902316 14.86692312 15.19711600 -0.00453025 -0.00412818 -0.00064978
O 18.43055864 16.86809472 7.41464363 -0.01105806 -0.00075573 -0.00319635
O 23.05687939 13.62523800 17.53936336 0.00178954 0.00106151 -0.00498112
O 19.27135494 18.26750588 9.29113202 0.00016594 0.00288557 -0.00243302
O 19.37079908 24.44548567 7.60079222 -0.00077331 -0.00472207 0.00654891
O 23.29513265 20.23798296 32.12692578 -0.00031098 -0.00671142 -0.00346592
O 18.79484664 24.40079230 32.24734806 -0.00563049 0.00140553 0.00397588
O 23.39140392 20.94163275 7.30888427 -0.00730839 0.00431456 0.00257862
O 23.35728952 13.90296171 8.86347939 -0.00182827 0.00374143 0.00124437
O 18.92016848 17.56805747 17.67760508 0.00415667 0.00497322 0.00467875
O 23.11107486 15.22081993 23.82837419 -0.00186807 0.01272536 -0.00352922
O 19.31175826 16.39814405 32.07363059 -0.00055748 -0.00046352 -0.00159414
O 18.27528440 22.92154628 17.79670246 0.00564529 -0.00219607 -0.00633468
O 23.94963036 21.77703656 26.00098686 -0.00299531 -0.00205248 -0.00035734
O 19.82148831 22.84138102 26.26866290 -0.00064428 0.00618030 -0.00864543
O 23.14940481 21.63591357 17.93999990 0.00240004 -0.00374248 0.00237369
O 23.78871193 15.24121572 32.01824887 0.00311530 -0.00073113 0.00011569
O 18.44810199 16.25003417 24.13293892 0.00658563 -0.00426099 -0.00171450
O 22.89623189 13.98531503 0.99456569 0.00425139 0.00844064 0.00034368
O 19.41046001 17.89725710 26.07030171 -0.00201272 0.00475220 -0.00548646
O 19.55110182 23.91901515 23.81231011 -0.00621054 -0.00114823 0.00185324
O 23.16795119 20.41389470 15.59491885 0.00612895 -0.00251240 0.00307908
O 18.34099913 24.39575424 15.86406767 0.00094092 -0.00275280 0.00507288
O 22.95655459 20.14383156 24.13481591 -0.00212877 0.00252949 -0.00238855
O 23.76173158 13.68616091 25.99852757 0.00106160 0.00298841 -0.00347094
O 19.65033491 18.17676826 1.08475106 -0.00394732 0.00572729 -0.00191501
N 7.65431330 13.17934922 2.34110914 -0.00378577 0.00049194 0.00278065
N 1.11266484 6.42220674 10.18326376 -0.00064727 -0.00263891 -0.01310891
N 3.22673665 0.19019299 6.04767921 -0.00139945 0.00113113 -0.00032252
N 5.03147480 6.46038746 13.97046032 -0.00386081 -0.00431051 -0.00397005
N 0.78542534 25.59285034 14.02575075 0.00528392 0.00149952 -0.00420542
N 7.71623875 6.90336538 5.63414869 0.00055111 -0.00201822 0.01389267
N 4.82356825 12.86744999 10.86061266 -0.00046699 0.00307375 -0.00435592
N 3.26105999 6.51115118 2.21639548 0.00364442 -0.00219490 -0.00530469
N 7.57141185 13.07978447 18.87794985 -0.00134157 0.00008909 -0.00189640
N 1.22996269 5.90609441 26.49213085 -0.00404630 -0.00461162 0.00281827
N 2.92415296 25.49679318 22.43464251 -0.00027392 0.00194091 -0.00037495
N 5.26647453 6.52852993 30.29764026 0.00521165 -0.00778137 0.00131960
N 1.30531989 0.50063616 31.04829241 -0.00353723 0.00200430 -0.00020413
N 7.36074535 6.38994504 22.07761692 0.00398107 0.00528470 0.00760907
N 4.87481628 13.03214113 27.52898373 0.00057099 -0.00027526 -0.00321476
N 3.31578078 6.17482624 18.67114998 0.00322374 -0.00523365 -0.00041625
N 7.77596014 0.51676555 2.63068173 -0.00432817 -0.00581375 0.00750780
N 0.62503636 19.53923233 11.13587990 0.00918923 -0.00040939 -0.00120781
N 3.46374178 12.89326392 5.92128348 0.00253315 0.00551956 -0.00206293
N 4.89706169 19.38651980 14.03932288 -0.00198646 0.00151451 -0.00166815
N 0.71309573 12.59116981 14.35394255 0.00187753 -0.00055331 0.00498150
N 7.70534096 19.38885150 5.77063497 -0.00078240 0.00488627 -0.00266053
N 4.99347137 25.45958692 10.50339600 0.00159802 0.00016699 -0.00185771
N 3.60739338 19.30205198 2.57307019 0.00025954 0.00636164 -0.00390477
N 7.64156907 0.13446000 19.00620458 0.00136799 0.00281360 0.00145986
N 1.20953935 19.10348305 27.21674210 -0.00561508 0.00625596 -0.00328036
N 3.26567403 12.75486326 22.44697951 0.00704384 -0.00224065 0.00256320
N 5.28468443 19.28879957 30.74405842 0.00357956 0.00279839 0.00152976
N 0.99838370 12.19566707 30.93412782 0.00361595 0.00331396 -0.00302820
N 7.37763358 19.66619086 22.49252517 -0.00130620 0.00217292 0.00396506
N 5.20340402 0.22489050 27.86147963 -0.00313882 -0.00088875 0.00213206
N 2.96484164 19.11362533 19.12930061 0.00275636 0.00268900 -0.00311572
N 15.81406821 12.79913967 2.24678706 -0.00299202 -0.00091039 -0.00619853
N 9.51423959 6.57408068 10.72895473 0.00045104 0.00949817 0.00085852
N 12.17649070 25.45167256 5.55934534 -0.00003614 0.00738685 0.00026847
N 13.92879613 6.36986679 13.76395119 -0.00312868 -0.00462410 0.00974855
N 9.28402290 25.48309560 13.95557532 -0.00236485 0.00098260 0.00047322
N 16.31385620 6.56232351 5.61904513 0.00011049 -0.00011911 -0.00247341
N 13.49126359 13.12308440 10.28683326 0.00282902 0.00139893 0.00198380
N 11.91755176 6.56695534 2.55103751 -0.00518755 0.00422591 -0.00508450
N 15.59521214 12.74104346 18.98179581 0.00621079 -0.00009936 0.00571282
N 9.39172493 6.70159467 27.16268616 -0.00041193 0.00450231 -0.00456294
N 11.85904161 25.40066980 22.34275281 -0.00213364 0.00645454 0.00232893
N 13.70385066 6.51922569 30.56527009 0.00330470 -0.00315105 -0.00499099
N 9.36981925 25.24109192 30.52087766 0.00896030 -0.00290862 -0.00317432
N 15.95260571 6.30711605 22.43402641 -0.00025865 -0.00567651 -0.00401133
N 13.41028538 12.80741723 27.24866774 0.00267775 -0.00551360 -0.00458622
N 11.77365987 6.10356452 18.60923850 -0.00016263 0.00119379 -0.00252772
N 16.11562001 0.38315285 2.67705547 0.00642339 -0.00153411 0.00103174
N 9.39771134 18.89914511 10.84959504 -0.00229340 0.00697065 -0.00171908
N 11.73744300 12.81669437 5.97474083 0.00022191 -0.00111833 0.00447880
N 13.67649893 19.04937514 14.40649810 -0.00377551 0.00829644 0.00234351
N 9.56544884 12.61367360 14.23804980 0.00184479 0.00304736 0.00128000
N 15.76154569 19.01953511 6.08523706 0.00021306 0.01195351 -0.00424924
N 13.49619073 25.53470587 10.29347484 -0.00344673 0.00163977 0.00038319
N 12.02281535 19.00200484 2.88258342 0.00047334 0.00062293 0.00279876
N 16.22377490 25.13609904 18.60742950 -0.00021511 0.00138792 -0.00165453
N 9.42759970 19.24856111 27.47996445 0.00357730 0.00333572 -0.00302080
N 11.55099704 12.52495263 22.37251627 -0.00556025 0.00076905 0.00242703
N 13.77195211 19.21638180 31.14990124 0.00895670 0.00210154 -0.00499663
N 9.58919159 13.01095166 30.73385727 -0.00055524 -0.00272816 0.00389824
N 15.84446428 19.00218066 22.58451757 -0.00089151 -0.00413568 0.00089452
N 13.47706221 0.50170645 27.29614495 0.00136768 0.00080327 0.00494301
N 11.39760736 19.15492473 19.17016696 -0.00084502 0.00390955 0.00683761
N 24.32310773 13.07072190 2.59263940 0.00072769 0.00578961 0.00291645
N 18.24362631 6.41634435 10.32556208 -0.00222271 0.00817978 0.00134101
N 20.25796848 0.25410112 6.10049273 0.00289189 -0.00424293 -0.00001075
N 22.52259747 6.22062451 13.69650600 0.00449867 0.00871188 0.00231468
N 17.71030637 0.04061604 14.12972000 -0.00425812 0.00276463 -0.00263831
N 24.46688531 6.72769554 5.50693962 0.00539282 0.00286602 0.00192545
N 22.22494809 12.53201998 10.33362823 -0.00421110 -0.00130511 -0.00613909
N 20.34797254 6.50579249 1.98951486 0.00500911 -0.00023713 -0.00109503
N 24.20210000 12.38589174 19.05679088 -0.00115135 -0.00195194 0.00114838
N 17.71881914 6.46690158 26.92885979 0.00095633 0.00538085 0.00500378
N 20.41901481 25.23866038 22.18284038 0.00795953 -0.00122493 -0.00306130
N 22.04411012 7.20243294 30.31484943 0.00753826 0.00025084 0.00334106
N 18.02979858 0.09443700 30.54104277 0.00633414 -0.00173679 -0.00202586
N 24.59835348 6.37055391 22.00381519 0.00110014 -0.00531660 -0.00290696
N 22.05539543 12.98550296 27.28151226 -0.00218761 -0.00034983 -0.00090728
N 19.69582092 6.18542731 18.57983032 -0.00156426 0.00660544 -0.00343993
N 24.59019541 0.29859488 2.29033842 0.00535744 0.00235462 -0.00820569
N 17.89794415 19.06579894 10.93804067 0.00087685 -0.00261738 0.00124452
N 20.23194365 12.79184102 5.87014010 -0.00371535 0.00262753 -0.00041352
N 21.97908700 19.21886770 14.15197337 0.00317406 -0.00999105 -0.00170149
N 17.66478430 12.53926868 14.13936798 -0.00004780 -0.00096757 0.00601758
N 24.31021053 19.68685989 5.60242380 -0.00028179 -0.00303227 0.00426463
N 22.50764783 0.10902936 10.70784016 -0.00612821 -0.00238951 -0.00205907
N 19.96943241 19.44235727 2.93336997 0.00391086 -0.00263132 -0.00172089
N 24.41145939 25.46445954 18.99647174 -0.00378151 0.01253661 -0.00168022
N 17.93655911 18.93146134 27.51280335 0.00100452 0.00157332 0.00726578
N 20.32071686 12.56138975 22.01159934 0.00335420 -0.01051395 0.00449566
N 22.26269533 19.02985721 30.53980472 0.00134459 0.00309297 -0.00415390
N 17.93475003 12.50063652 30.54170886 -0.00129980 0.00075006 0.00198004
N 24.08613881 18.88263375 22.60346554 0.00000838 -0.00350659 -0.00143200
N 22.05661109 25.57847556 27.38174836 -0.00355911 -0.00092770 0.00414394
N 20.17256802 18.57659995 19.26562046 -0.00437836 -0.00137147 0.00128270
C 7.75950486 0.63278855 4.97800539 0.00004225 0.00484665 0.00104555
C 0.94028849 5.92049603 12.55030295 0.00520783 0.00130672 -0.00019152
C 3.55907128 12.58286197 3.56600578 -0.00167492 0.00130468 0.00012089
C 4.95954148 6.63440352 11.57130477 -0.00129485 -0.00717202 0.00697561
C 0.92610283 12.54897715 11.98374687 -0.00381366 -0.00882328 0.01007686
C 7.56127693 7.23872566 3.29594205 -0.00233939 0.00606744 -0.00626494
C 4.92399178 0.25630253 12.88272664 0.00663567 0.01020458 0.00153089
C 3.41252292 6.16177997 4.54226752 0.00091536 -0.00495321 0.00282268
C 7.35522782 1.14823573 6.19346231 0.00333548 -0.00205802 -0.00167869
C 1.23617326 5.17412822 13.66912048 -0.01167832 -0.01255459 0.00135450
C 3.10460594 12.04350861 2.37373749 -0.00603804 -0.00373888 -0.00007381
C 5.25219977 7.31154102 10.44379820 0.00196617 -0.00330354 0.00486411
C 1.20119234 12.04853593 10.73029635 -0.00437869 -0.00083613 -0.00116430
C 7.05036957 7.93642912 2.20256928 -0.00030676 0.00175781 0.00429314
C 5.40159368 0.83020767 14.00882397 0.00480047 -0.00682688 0.00345421
C 3.34011717 5.39262016 5.68988713 0.00101912 -0.00055961 -0.00576396
C 6.38522845 2.14240499 6.21316757 0.00405083 -0.00190250 -0.00730603
C 2.18403170 4.14970489 13.53254274 -0.00555099 0.00481165 0.00035223
C 2.30952602 10.83259292 2.47215225 -0.00251492 -0.00050903 0.00272504
C 6.13026762 8.49365376 10.38737881 0.00874675 -0.00543381 -0.00448295
C 2.00860391 10.87758338 10.66209924 0.00181467 0.00088153 0.00138597
C 6.09895454 8.95794988 2.26495874 -0.00083875 -0.00492333 0.00268116
C 6.16192569 1.99062056 13.91663018 0.00381024 -0.00008109 0.00290908
C 2.41576867 4.41639355 5.76243602 -0.00005950 0.00206845 0.00301427
C 5.98089506 2.75130759 4.97756197 -0.00618794 0.00622588 -0.00365090
C 2.45430924 3.65238427 12.26090507 -0.00830576 0.00311989 -0.00225874
C 1.87298853 10.35691122 3.75090873 -0.00392814 0.00284887 -0.00500583
C 6.46300183 9.05548078 11.62677255 -0.00492910 0.00060631 -0.00076790
C 2.41000065 10.31399713 11.90746676 -0.00262202 0.00194516 -0.00247070
C 5.81891139 9.39494690 3.55194826 0.00412095 0.00963591 0.00056670
C 6.50874139 2.49782249 12.67737862 -0.00090166 -0.00241544 0.00297916
C 1.73401024 3.99772444 4.57868900 -0.00698742 -0.00288061 0.00580749
C 6.27898152 2.11927962 3.73777145 -0.00705199 0.00209298 -0.01044206
C 1.90081464 4.31987922 11.18687734 -0.00361008 0.00476993 0.01257022
C 2.16664696 11.08887280 4.85621498 -0.00202946 0.00556838 -0.00018977
C 6.07194303 8.38259427 12.79828831 0.00210377 -0.00171893 -0.00219743
C 1.85330654 10.66483297 13.13092962 -0.00633773 -0.00554107 -0.00672118
C 6.46042248 8.88173522 4.64734074 0.00356285 -0.00167025 0.00343137
C 5.94358049 1.96193040 11.53820318 -0.00895825 -0.00274072 0.00019321
C 2.14535892 4.58851207 3.33876739 0.00057867 -0.00164426 0.00131058
C 7.27986399 1.12644670 3.75767462 0.00156452 0.00026437 0.00401202
C 1.26610679 5.53581461 11.27656622 0.00867403 -0.01118372 0.00559709
C 3.08541755 12.17048816 4.78758441 0.00438343 -0.00101396 -0.00655578
C 5.43376751 7.14555204 12.80470274 -0.00335475 0.00358736 -0.00297535
C 1.20452907 11.94481866 13.18597378 0.00055087 -0.00703354 -0.00371496
C 7.18291092 7.65762362 4.59087252 -0.00050662 0.00294846 -0.00522677
C 5.33965552 0.68425954 11.61569054 0.00001502 -0.00747754 -0.00080767
C 2.93291964 5.77834771 3.30467391 0.00635706 -0.00312469 0.00544016
C 7.19215154 0.77524461 1.45039237 -0.00524429 0.00377112 -0.00579271
C 2.03937371 6.34173777 9.19132236 0.00407632 -0.00339265 -0.00420680
C 2.71952077 12.89665596 7.07153354 -0.00307095 -0.00302077 -0.00041333
C 5.71642430 6.51392318 15.17208644 0.00049331 -0.00250670 0.00517815
C 1.45940855 12.60285297 15.44001418 -0.00574707 0.00386810 0.00078401
C 7.14088733 6.80114504 6.83712661 0.00381030 -0.00300019 0.00514493
C 5.78214856 25.46166097 9.35854658 0.00613488 0.00357931 0.00184051
C 2.84250147 6.28975259 0.93036295 -0.00668651 -0.00334472 0.00140720
C 6.99917163 11.92414254 16.83023225 -0.00275878 -0.00096046 0.00300890
C 2.11797684 7.55767145 8.35784592 0.00166677 0.00029087 -0.00252250
C 2.66082249 1.10861100 8.31832324 -0.00408332 0.00360987 -0.00120359
C 5.52318615 5.68184388 32.52730651 -0.00193526 0.00034765 -0.00130117
C 1.59002256 1.63323374 0.08804702 0.00339232 -0.00799030 0.00005930
C 7.50694252 5.53543979 7.60770451 -0.00130284 -0.00355453 -0.00258565
C 5.59853077 11.74034878 8.85600812 -0.00689561 0.01265659 0.00132126
C 2.86470661 7.38866072 16.65147162 0.00122996 0.00081161 -0.00842765
C 7.27335814 0.25628161 21.37385590 0.00184194 -0.00924693 0.00254060
C 1.05025580 5.74277257 28.79279249 0.00333404 -0.00797128 0.00101077
C 3.19438869 12.47253416 20.07516070 0.00531597 -0.00279743 0.00325788
C 5.13743053 6.91170788 27.89167628 0.00227767 0.01463863 0.00393507
C 1.05489614 12.23117987 28.51936815 -0.00373388 0.00252969 0.00000633
C 7.44493791 6.59409113 19.70483961 -0.00518063 0.00215064 0.00035296
C 5.29364545 0.66917796 30.24411513 0.00431109 -0.00286617 -0.00048624
C 3.39122887 5.89253596 20.96733245 -0.00160148 0.00242886 -0.00039727
C 6.83395249 0.84821422 22.54969402 0.00069499 -0.00072701 -0.00032089
C 1.46304860 5.22589258 29.99710010 0.00632508 -0.00282053 0.00241627
C 2.87763639 11.87855610 18.87151457 0.00596183 -0.00504418 0.00085518
C 5.64769529 7.49702886 26.78051630 0.00633052 0.00366828 0.00159419
C 1.35197504 11.64651045 27.34298079 -0.00103797 -0.00218820 0.00135619
C 7.05947975 7.29126617 18.58218526 0.00253255 -0.00740689 0.00101635
C 5.83461037 1.31982633 31.31469749 0.00033559 -0.00622646 0.00137910
C 3.06482850 5.25751183 22.13105900 0.00491341 -0.00432020 0.00455472
C 6.14990432 2.05998241 22.50706765 0.00143646 0.00516358 0.00673415
C 2.37461885 4.22220797 30.12867916 -0.00377882 -0.00654851 -0.00369120
C 2.19033341 10.71066221 18.86853458 0.00602148 -0.01028348 -0.00492054
C 6.32494661 8.74034440 26.86885033 -0.00152128 0.00200879 0.00666013
C 2.05371110 10.40654385 27.29355008 -0.00566502 0.00379008 0.00149138
C 6.35236432 8.50278629 18.66405945 0.00253619 0.00175703 0.00626013
C 6.77668634 2.35636477 31.11195567 0.00254038 -0.00036642 -0.00424334
C 2.17466071 4.13250801 22.05724215 -0.00107813 0.00060320 -0.00183574
C 6.00043755 2.73944502 21.27041787 0.00338242 0.00265556 -0.00119687
C 2.73556402 3.54723751 28.95769334 0.00011931 0.00307523 0.00138151
C 2.04242892 10.12033792 20.13880826 0.00414555 0.00068319 0.00248534
C 6.45951859 9.33355863 28.10164778 0.00383219 -0.00832808 0.00407037
C 2.50172824 9.83150300 28.53452494 -0.00484501 -0.00659227 0.00167355
C 6.19200111 9.11112864 19.92037682 -0.00041982 0.00342497 0.00222529
C 7.00250596 2.77316186 29.78778187 -0.00001665 0.00491022 -0.00437504
C 1.78539900 3.60279937 20.80740551 -0.00160391 0.00902095 -0.00187170
C 6.54346929 2.13023790 20.07104391 -0.00136947 0.00091863 0.00121153
C 2.37348103 4.04685588 27.74986955 0.00540899 -0.00753203 0.00208355
C 2.39900864 10.61699359 21.32441602 0.00396977 0.00436104 0.00047908
C 6.08420557 8.63047531 29.24359623 -0.00079193 -0.00390561 0.00355921
C 2.15706832 10.45643610 29.75755917 -0.00045935 0.00539593 0.00237561
C 6.55980531 8.42294225 21.01627257 -0.00968440 -0.00429189 0.00380507
C 6.47245116 2.12171102 28.69649638 -0.00321171 -0.00001334 0.00260883
C 2.32430136 4.19579483 19.63520402 0.00362463 -0.00369408 0.00452122
C 7.15393485 0.87179846 20.12547916 -0.00726041 -0.00153168 0.00184433
C 1.55002452 5.16796838 27.64273928 0.00349475 -0.00268615 0.00168362
C 2.94080493 11.94971549 21.36619619 0.00709857 -0.00407210 -0.00113184
C 5.43760902 7.36885413 29.18785566 -0.00818427 0.00173559 0.00442373
C 1.43442615 11.65269727 29.76841810 -0.00193038 0.00358548 0.00016458
C 7.11624275 7.13677764 20.94862935 0.00371720 -0.01204979 -0.00255515
C 5.65949230 0.98766307 28.88099314 0.00297241 0.00206844 -0.00198954
C 2.97187190 5.37937796 19.75359873 0.00221724 -0.00173953 -0.00169323
C 6.85818431 0.10935992 17.81694576 -0.00103034 0.00235528 0.00490431
C 1.97379973 5.94409930 25.39891561 -0.00484764 0.00110814 0.00314368
C 2.61657333 12.51861041 23.63214775 0.00468641 -0.00137948 0.00019706
C 5.53017716 6.86003858 31.61055688 0.00455000 0.00346624 -0.00070338
C 1.67612751 12.32308680 32.09536563 0.00053258 0.00305209 0.00464658
C 6.86026547 6.63461125 23.32261222 -0.00004711 0.00045929 -0.00233110
C 5.58190176 0.35086287 26.49903937 -0.01133287 -0.00400264 0.00331306
C 2.80101668 6.09357758 17.44115914 0.00638491 0.00118359 -0.00430456
C 7.31825320 12.15793631 0.22458993 0.00021482 0.00088799 0.00068368
C 1.89688500 7.18210128 24.57432318 0.00213361 -0.00800873 -0.00548101
C 2.47510692 0.70151262 24.59669962 -0.00032754 -0.00150627 0.00985505
C 5.71487327 5.32524077 16.09024802 0.00372634 -0.00004035 -0.00261843
C 1.00676035 1.17060048 16.19431859 -0.00289990 -0.00414795 -0.00045228
C 7.01289764 5.52099077 24.40524563 -0.00422396 -0.00184947 -0.00096427
C 5.68044201 11.72464947 25.56861824 0.00411291 -0.00260272 -0.00102485