1920
Time=2000.00000000 pbc="T T T" Lattice="25.51314077 0.00000000 0.00000000 0.00000000 25.68394324 0.00000000 0.00000000 0.00000000 33.00753206" energy=-12240.58963287 virial="-63.36384527 15.74234027 -9.14595538 15.74234027 -59.83540301 -17.83441703 -9.14595538 -17.83441703 -43.09310840" stress="-0.00051641 0.00065522 -0.00037577 0.00065522 -0.00041761 -0.00080101 -0.00037577 -0.00080101 0.00019045" Properties=species:S:1:pos:R:3:vel:R:3
O 6.19261995 3.40630019 7.48360548 0.00326177 -0.00079961 0.00460780
O 2.77757259 4.11658517 15.85114925 0.00058459 -0.00958388 0.00027162
O 1.69632875 10.21136466 1.85662842 -0.00127000 0.00501141 -0.00820999
O 6.80104259 9.16096925 9.78730433 -0.00024595 0.01048770 0.00790501
O 2.40878812 9.66677239 10.18923432 0.00541609 -0.00517257 0.00196066
O 5.78058628 9.26559620 1.91717090 0.00300083 0.00626096 -0.00068523
O 7.16955541 2.58953223 15.48687726 -0.00432122 0.00234023 -0.00155160
O 1.10660641 3.56748272 7.51066197 -0.00145026 -0.00265229 -0.00340351
O 6.06259339 0.76204568 17.45788776 0.00927769 0.00108238 0.00148633
O 2.23725020 4.91773193 9.56398943 -0.01105188 -0.00618925 -0.00002902
O 1.33467982 10.99905521 8.06287012 -0.00000670 -0.00183201 0.00189012
O 6.15568314 8.16386195 32.52580627 -0.00151020 0.00652905 -0.00228866
O 2.67280933 11.22297066 32.54735516 -0.00498976 -0.00442033 -0.00398958
O 5.87211738 7.58376746 7.99887997 -0.00083350 -0.00448112 0.00285305
O 6.35003509 1.78505281 9.60950695 -0.00505655 -0.00027596 -0.00239260
O 2.38264438 5.81245198 17.74333190 0.00197599 -0.00646708 0.00422217
O 6.03711598 1.74518518 23.68467998 0.00015661 0.00568448 -0.00204469
O 2.44331707 4.40064968 31.96855511 0.00867193 0.00294438 0.00134894
O 1.89740261 10.60811920 18.68943167 -0.00898544 -0.00000828 0.00550037
O 7.34353338 8.60554758 26.34957822 0.00428764 -0.00510863 0.00022323
O 2.33772869 10.13632815 26.47696765 -0.00636876 -0.00366663 0.00456680
O 6.77602266 9.29846439 18.38391989 -0.00168384 0.00687953 -0.00069559
O 6.47771694 2.72437835 32.44520895 -0.00416539 -0.00570419 0.00510339
O 1.22403458 3.31339320 23.37871655 0.00078889 -0.01019699 -0.00039158
O 5.57282950 1.15130343 1.46299858 -0.00018964 0.00063297 0.00458095
O 1.48368435 4.78145239 25.45783068 0.00025774 0.00179079 -0.00651355
O 1.60918894 11.68855672 24.70733860 0.00171238 0.00622389 0.00414520
O 7.29762554 7.72399801 16.14765447 0.00195996 0.00579808 0.00534428
O 2.84895833 11.49198383 16.45077493 0.00638659 0.00470820 0.00193822
O 5.87792467 7.52485862 24.47139186 0.00695969 -0.00556382 0.00015855
O 6.57734529 1.36710221 26.20462302 0.00264696 0.00026846 0.00253739
O 1.88361601 5.24605903 1.40828996 0.00069212 0.00530104 0.00177695
O 6.10821248 16.02484859 6.23508265 0.00076911 -0.00922595 -0.00233208
O 3.22725887 16.16614105 15.02115432 0.00163530 -0.00465272 -0.00466494
O 0.89226874 22.92543432 1.63120649 0.00491579 -0.00805461 -0.00335759
O 6.71847765 22.90475303 9.96138037 -0.00075281 0.00306819 -0.00501439
O 2.87397429 22.58230667 10.14776404 0.00179281 -0.00541723 0.00308269
O 6.11062545 21.97939768 1.64662290 0.00431143 0.00275272 0.00325570
O 7.46796883 16.50462647 13.94163513 -0.00078341 0.00541830 0.00038789
O 1.49880042 16.30039031 6.59162588 0.00562705 -0.00133056 0.00689724
O 6.50749923 14.22531160 17.93275530 0.00664245 0.00066299 0.00373084
O 2.10007080 17.78723162 8.65216256 -0.00373919 -0.01139523 0.00166069
O 2.19686233 24.35491924 7.78330724 0.00454932 0.00029625 0.00348987
O 6.57658043 20.37919050 32.59474469 0.00137019 0.00784219 0.00112483
O 1.55586559 24.21894082 32.36010105 -0.00586768 -0.00447371 -0.00115511
O 6.70650180 20.83943549 8.06080141 -0.00039408 -0.00042883 0.00491640
O 7.21272761 12.92069106 8.76589375 -0.00155921 0.00463981 -0.00406016
O 2.86096036 17.61774638 17.32838243 -0.00707793 0.00520167 0.00016833
O 5.51200192 15.18185187 23.99519214 -0.01201895 0.00072573 -0.00480480
O 1.84119711 16.00322267 31.71423008 0.00798948 -0.00040542 -0.00015394
O 1.88398464 22.99309886 17.98671078 -0.00323847 -0.00440285 0.00490229
O 6.68497574 22.20406008 26.35626768 -0.00052029 -0.00666414 -0.00244969
O 2.25565393 23.16851505 25.88839068 -0.00440351 -0.00661625 0.00025580
O 5.62033990 21.96230354 18.38483451 -0.00069184 0.00853457 0.00092124
O 6.61914425 15.58495500 31.45270858 -0.00194596 0.00389189 -0.00372757
O 1.89976776 16.34792063 23.52535672 -0.00349006 0.00055169 -0.00213889
O 6.93963088 13.84783295 0.29236447 -0.00324783 0.00270723 -0.00179601
O 1.90649927 17.90702193 25.57215350 0.00434522 -0.00660093 0.00434606
O 1.82407909 25.07836889 23.95832788 0.00239997 0.00832661 -0.00205913
O 6.30855042 20.71177547 16.19934194 0.00582060 0.00114457 0.00080821
O 2.35921953 24.61174569 16.12308955 -0.00134578 0.00576370 -0.00459090
O 6.08131998 20.45099729 24.42847192 0.00109193 0.00983255 -0.01237061
O 6.07844216 13.40940715 25.64935815 0.00361390 0.00500181 -0.00009973
O 1.89448705 18.04709130 0.58273628 0.00328179 -0.00530348 -0.00195284
O 14.43393706 3.27936095 7.25202158 -0.00182471 -0.00076410 0.00118823
O 11.32812875 3.48351684 15.41474712 0.00598906 0.00415751 -0.00869998
O 10.41162497 10.42459895 1.31396428 0.00279457 -0.00607567 -0.00483351
O 16.34179764 9.14186322 9.19886157 0.00120004 0.00268843 -0.00287851
O 11.62614596 10.10491039 9.51146993 -0.00363812 -0.00409878 -0.00355351
O 14.12240123 8.90641757 0.80354830 0.00441793 -0.00378473 0.00138161
O 15.98540204 2.60402197 15.26476952 0.00464570 0.00035061 0.00417668
O 9.98575358 4.13070957 6.91901934 0.00850179 0.00263555 0.00095657
O 15.21525673 1.19148065 17.33790250 -0.00389479 -0.00042375 0.01001098
O 10.55732285 5.05682237 9.20729308 0.00651475 0.00371907 -0.00067100
O 11.55123495 11.92828021 7.55440899 0.00111412 0.00000074 -0.00943481
O 13.88334228 8.05343990 31.40573068 0.00934567 -0.00734678 -0.00294913
O 10.32648381 11.57383393 32.02323052 0.00195053 0.00051520 0.00613913
O 15.99435156 7.57262674 6.98599753 0.00165162 -0.00188525 -0.00095284
O 14.94138153 1.30722539 9.06306630 -0.00109362 -0.00472430 -0.00161466
O 10.85296678 5.13527028 17.26499349 -0.00183240 -0.00504859 0.00195200
O 14.38741927 3.03261638 23.66319228 0.00454202 0.00540279 0.00195601
O 10.48897025 3.87748523 31.98559836 0.00368832 0.00423584 0.00139324
O 10.33320634 10.16040048 17.49152574 -0.00524635 0.00787122 -0.00536786
O 15.67829490 9.24190672 25.38199986 0.00969101 -0.00114949 0.00436374
O 11.53959595 10.67977091 25.97326586 -0.00209668 0.00364658 0.00298999
O 14.35380778 9.07759435 16.76153085 0.00383019 0.01010205 0.00873184
O 15.43035311 2.86748015 31.82833966 0.00653813 -0.00440560 0.00120822
O 9.76774772 4.40479203 23.38008836 0.00401580 -0.00875992 -0.00347835
O 15.29658464 1.72321216 1.15186098 -0.00041752 -0.00107130 -0.00120471
O 10.78560104 4.85852549 25.85193213 0.00024142 -0.00351337 0.00199154
O 10.16542603 11.54086834 23.83393692 0.00321192 0.00024546 -0.00250694
O 15.33508476 7.51948483 14.94787636 0.00506843 -0.00486424 -0.00273196
O 10.73746663 12.03286804 15.74048495 -0.00584450 -0.00579400 -0.00187887
O 15.27590253 7.92778407 23.11042416 0.00021890 0.00742498 0.00204217
O 14.38261321 1.36133600 25.58164631 -0.00436754 -0.00285289 0.00481037
O 9.83204190 5.48488858 0.84350538 0.00477431 0.00011529 -0.00503818
O 14.85682182 16.13557876 6.41634217 -0.00388735 0.00385603 0.00101632
O 11.08356746 17.25874302 15.17868586 0.00575469 0.01003724 0.00700209
O 9.91661184 22.70329213 1.19453842 -0.01244771 -0.00236770 0.00147100
O 16.30396790 22.67857523 9.76773022 0.00006504 0.00642828 0.00255782
O 11.26905930 22.88425529 9.45749452 -0.00934498 -0.00276010 -0.00244670
O 14.12468630 21.82276963 1.21593330 -0.00523129 -0.00036083 0.00196429
O 15.60583516 15.79910441 15.64503686 0.00003148 0.00216930 -0.00012845
O 9.75062520 16.36070394 7.27114109 -0.00307354 -0.00532831 -0.00376953
O 14.86922907 13.91306414 17.38156617 0.00133470 -0.00118414 -0.00229409
O 10.77046851 18.22614964 9.01954777 0.00193141 -0.00034686 -0.01236485
O 10.47795940 24.45992150 7.46450148 -0.00351612 -0.00612134 -0.00283135
O 14.81721257 20.48196150 32.20832829 0.00418708 -0.00029783 -0.00335158
O 10.24627472 24.34440228 32.23252173 -0.00878683 0.00431303 -0.00680145
O 14.09321891 20.74020320 7.39270689 -0.00814383 0.00726110 0.00837106
O 15.30078093 14.35357711 9.45490496 0.00651970 0.00210315 -0.00302250
O 11.02627221 17.89065852 17.60900349 -0.00675478 0.00388183 0.00065219
O 14.27046010 15.61787719 23.61242717 -0.00124430 -0.00377630 0.00047686
O 11.64085382 16.21927396 32.17159511 0.00293237 -0.00655088 -0.00666221
O 9.83979128 22.96865159 17.76608404 -0.00044547 0.00144955 -0.00179655
O 15.60049688 21.75345596 26.05351598 -0.00133571 0.00447454 0.00125641
O 10.97963372 23.22495859 25.96346139 0.00742526 -0.00065986 0.00844172
O 14.03305729 22.18200645 18.01448935 -0.00400867 -0.00513083 -0.00820430
O 15.00650816 15.27713634 32.08981706 0.00573016 -0.00114461 -0.00111780
O 10.29970167 16.86513330 24.00342813 0.00608993 -0.00590554 -0.00791224
O 13.71768709 13.74722146 0.61416974 -0.00287549 0.00223908 0.00715301
O 10.54303343 18.32172658 26.18804738 -0.00681700 0.00378672 0.00227568
O 11.29405987 24.33668010 23.75650538 -0.00167059 -0.00686838 0.00956339
O 14.57852471 20.81814327 15.80250823 -0.00697759 -0.00527767 -0.00625841
O 10.50387585 24.08456238 15.63915964 -0.00312280 -0.00366533 -0.00763496
O 15.53216921 20.42644576 23.92787976 -0.00838713 0.00025561 0.00251944
O 15.06218090 14.06941948 25.57515532 0.00211774 -0.00472271 -0.00126121
O 9.86476070 17.92050126 1.26613330 0.00481490 -0.00718828 0.00812068
O 23.19529232 2.78731601 7.52859799 0.00224070 -0.00095308 -0.00069722
O 20.45227881 4.00734434 16.11862093 -0.00070091 -0.00056252 -0.00747749
O 17.41744024 10.35234349 1.47264570 -0.00271157 -0.00704375 0.00674658
O 23.57230951 9.30559291 10.13655641 -0.00075588 -0.00264560 0.00264501
O 19.64476298 9.71292339 8.85033702 0.00242137 -0.00496538 -0.00014923
O 22.38822798 9.18219362 1.37305554 0.00274495 -0.00219552 0.00005878
O 23.84361543 2.83251124 16.39471003 -0.00448435 0.00473982 0.00063206
O 19.21938416 2.97631666 7.30405869 0.00251979 0.00194083 -0.00031827
O 24.17051182 1.29561667 18.52152035 -0.00557263 0.00355259 0.00383692
O 18.96404217 4.58315988 9.49439631 0.00165436 0.00933628 -0.00739009
O 20.06108246 11.54170583 7.10758606 0.00434127 0.00100440 0.00042427
O 23.23139398 7.53131292 32.52932992 0.01199530 0.00271951 -0.00483134
O 18.12482222 11.47669306 32.08054639 0.00025216 0.00552619 0.00725944
O 23.36308470 7.74866309 7.85870742 -0.00272393 -0.00088002 0.00811091
O 22.62957924 2.04674147 10.17177931 0.00616653 0.00090856 0.00373299
O 19.86819316 4.99212319 18.38304758 0.00150227 -0.00410891 -0.00410161
O 22.52902475 2.44067540 24.59522750 0.00412211 0.00252870 -0.00130459
O 18.79385677 3.32765003 32.24109845 0.00496854 -0.00108238 -0.00188803
O 19.73282996 9.95033690 15.46635721 0.00261132 -0.00085824 0.00149078
O 24.05948850 8.45519764 26.39197905 -0.00449373 0.00303676 -0.00910967
O 19.47806326 10.14479631 26.22103912 0.00217274 0.00918474 -0.00732664
O 23.42711623 10.18094544 18.45939663 -0.00049070 -0.00388395 0.00603591
O 23.58590419 2.49204581 32.94365472 0.00485167 -0.00083706 0.00514881
O 18.17034972 1.78927928 23.76904950 -0.00556882 -0.00481978 -0.00053069
O 22.77380910 1.01370777 1.89410939 -0.00406325 -0.00305401 -0.00543228
O 19.87395377 5.29483452 26.58451432 0.00248540 0.00345465 -0.00808031
O 20.40824865 11.20697984 21.47846069 -0.01153814 0.00166865 -0.00935143
O 22.49928371 8.62040479 16.45628344 -0.00611986 -0.00177860 -0.00338093
O 18.10077827 11.87753008 14.75750948 -0.00908824 0.00407792 0.00015831
O 23.12606680 7.15885353 24.26685814 0.00683815 0.00051897 0.00133990
O 23.39158527 1.10499045 26.60313220 0.00019904 -0.00108075 -0.00196295
O 18.74444731 5.18403326 1.21417760 0.00091602 0.00247768 -0.00563098
O 23.00277082 15.73448573 6.21232070 -0.00109582 0.00927809 -0.00696138
O 19.85976460 16.26800930 14.18923617 0.00486868 0.00005473 -0.00363237
O 17.79018892 22.98411989 32.71003684 0.00027893 0.00207216 -0.00057466
O 24.45991416 22.30048956 9.41473068 -0.00139233 -0.00231778 -0.00459855
O 19.45759659 23.21531309 8.15217748 -0.00163614 -0.00168478 0.00090308
O 22.10710803 22.29717836 1.32392811 -0.01107975 -0.00284995 0.00347808
O 24.35039150 15.67016669 14.73830973 -0.00155123 -0.00170927 0.00188880
O 18.65914233 16.10538454 6.06706439 -0.00181049 -0.00613939 -0.00921129
O 25.12731526 14.12188209 16.59505270 -0.00194063 0.00422506 -0.00192831
O 18.67020913 17.72765700 8.13367454 -0.00381663 0.00060290 0.00331647
O 18.95561970 24.39412632 5.79939551 0.00917564 -0.00189033 0.00320411
O 22.74905879 20.57792809 31.82696304 0.00330301 -0.01029671 -0.00374054
O 18.64682289 24.34190496 30.60026606 0.00408233 -0.00035196 0.00610372
O 24.11043382 20.49238249 7.17932512 -0.00894685 -0.00446342 -0.00824531
O 23.57203562 14.12184152 8.59296417 0.00024513 -0.00836324 -0.00038532
O 19.28049121 17.54323276 16.53324688 0.00547772 0.00295889 -0.00280292
O 23.15015819 16.03191503 22.29559101 0.00256695 -0.00409695 0.00032254
O 19.26848637 16.21887498 31.15180409 -0.00112497 0.00309884 -0.00134901
O 18.17501901 22.88973927 16.11206993 0.00390662 0.00181293 -0.00650765
O 23.77121896 21.97981425 25.75853295 -0.00825456 0.01035094 0.00240385
O 19.63358838 23.02590084 24.30877193 -0.00212458 0.00371720 0.00074267
O 22.93935262 21.78873333 17.55832960 -0.00246385 0.00241717 0.00811009
O 23.53061530 15.84671809 30.72668547 0.00402446 -0.00134149 0.00176723
O 19.14469008 16.42875525 23.10421207 -0.00422106 -0.00228676 0.00136615
O 23.71501250 14.32889591 32.84628233 -0.00184122 0.00281030 0.00156948
O 19.19619260 18.04063056 25.12887543 0.00169070 0.00097446 0.00542171
O 18.82592797 24.57163713 22.42961999 0.00452306 0.01320678 0.00711359
O 23.65302840 20.49069215 15.42017614 -0.00149113 0.00439264 -0.00091697
O 19.12115018 24.54175065 14.33536487 0.00201706 0.00098876 -0.00539064
O 23.60776076 20.31236609 23.72009267 0.00202153 -0.00663222 -0.00174470
O 22.92494910 13.67731442 24.68666268 0.00367511 0.00162690 -0.00044442
O 18.85497133 18.01975376 32.97456346 -0.00196174 0.00530599 0.00156016
N 7.57939538 12.58291456 2.02741924 -0.00205301 -0.00544872 -0.00265535
N 1.50826093 6.52095288 11.03869240 -0.00157282 -0.00000636 0.00590383
N 3.28764202 25.43578800 6.07183359 -0.00060708 0.00261749 0.00017516
N 5.71419351 6.88633947 14.75856963 0.00244131 -0.00058872 0.00169947
N 1.06067258 0.02091940 14.64175148 0.00029493 -0.00262537 0.00214956
N 7.36196862 6.56572861 6.61493030 0.00295485 -0.00249076 0.00743760
N 5.53152161 12.69053795 10.35546794 -0.00225601 0.00690759 0.00068209
N 3.10757746 6.16921517 3.07792332 -0.00243995 -0.00584855 0.00271508
N 7.89680681 13.23413933 19.41666129 -0.00394937 0.00152522 -0.00255129
N 0.60641935 6.12112519 27.11320729 -0.00175320 -0.00001363 0.00793862
N 3.57693807 25.47242628 22.59026361 -0.00290635 0.00105294 -0.00237296
N 4.82563850 7.16583123 31.06825669 -0.00049326 0.00266381 -0.00248221
N 0.62407157 25.52029563 30.67274873 0.00622246 0.00882691 -0.00545005
N 7.06750453 6.24718366 22.90654013 0.00551088 -0.01064921 -0.00143459
N 4.86734297 12.39054213 27.30198554 0.00492029 -0.00493835 0.00170962
N 3.32217693 6.72414825 19.66157583 0.00977571 -0.00434468 0.00284270
N 7.15328486 0.45299671 2.97529070 0.00444417 -0.00655549 0.00042116
N 1.43456323 19.07038427 10.36015455 0.01055392 0.00299478 -0.01004472
N 2.64796251 12.33825708 6.74435913 -0.00174666 0.00225623 -0.00582347
N 5.78419846 19.49561093 14.28951725 0.00075175 -0.00263927 -0.00187663
N 1.99190162 12.83551748 14.82868014 0.00295331 0.00120371 -0.00280788
N 6.59763625 19.22061783 6.48513540 -0.00275337 -0.00503261 0.00438596
N 4.85105806 0.58384646 10.85375371 -0.00164476 0.00144434 0.00361839
N 3.00851007 19.25840508 2.26477306 0.00573289 -0.00068702 -0.00106590
N 7.82160184 25.66707608 18.83960445 0.00534973 0.00403817 -0.00113832
N 0.90563489 19.16077278 27.15786045 0.00615718 0.00178023 0.00697397
N 3.14570614 12.93730407 23.46490539 0.00890726 0.00750270 -0.00518644
N 5.10337321 19.60894889 31.02503492 -0.00049545 0.00512235 -0.00250042
N 0.97930961 12.25015827 31.33410746 0.00110164 0.00029659 -0.00557996
N 7.48748422 19.49965301 22.86295682 -0.00860612 -0.00558252 -0.00301177
N 4.99095376 0.41084471 27.58595740 0.00138694 0.01200961 0.00295029
N 3.80040044 18.98775377 18.99153922 0.00347440 -0.00027220 0.00299529
N 15.05649322 12.64357291 2.00859375 -0.00559890 0.00737510 -0.00037203
N 9.79977895 6.31369688 10.95459074 0.00381398 -0.00570204 -0.00111995
N 11.33144544 0.02297410 5.70740372 -0.00184654 -0.00291106 0.00273665
N 14.13964003 6.41161042 13.33618349 -0.00353816 0.00979250 0.00850157
N 9.64998814 25.42123460 14.11012628 0.01138740 0.00348171 0.00232824
N 16.34301672 6.33465575 5.11876043 0.00396791 -0.00141092 -0.00376539
N 13.71778045 13.62791359 10.97685622 -0.00340426 -0.00316538 0.00419780
N 11.59305438 6.35807538 2.18479318 -0.00430687 0.00195966 0.00238152
N 16.11874044 12.98513291 19.00995942 -0.00193249 -0.00080893 -0.00766451
N 9.22991173 5.98241427 27.05575105 -0.00371820 0.00109754 0.00203662
N 12.00794756 25.57815359 22.01440451 0.00236020 -0.01072909 -0.00738703
N 13.38361758 6.66700189 29.71834430 -0.00791248 0.00686316 -0.00453207
N 9.35434895 0.05839003 30.71567058 0.00294615 0.00591912 -0.00163799
N 16.50285821 6.86177266 21.50325906 -0.00137231 -0.00461055 -0.00300978
N 13.63159105 13.08452501 27.12062058 0.00183972 0.00055958 -0.00623989
N 11.94439688 6.39130062 18.81329250 -0.00270707 -0.00066574 -0.00255975
N 15.65966909 0.22761049 2.76900932 0.00685543 -0.00465662 0.00247640
N 9.71055342 19.70552303 10.40965626 0.00147588 -0.00715449 -0.00347158
N 12.31566998 13.18855807 5.77778707 -0.00831075 -0.00120141 0.00108950
N 13.91370477 19.83610129 13.87301410 0.00495595 -0.00863548 -0.00683116
N 9.79700038 13.08849830 13.87287140 -0.00550577 -0.01531922 0.00416053
N 15.03375690 19.21771830 5.97639807 -0.00248482 0.00245117 -0.00168946
N 14.11624555 25.55831667 10.65103163 0.00674604 0.00431858 -0.00294053
N 11.39788995 18.89464238 2.65858129 0.00670943 0.00098480 -0.00261166
N 15.75063634 25.65016685 19.26058679 -0.00221759 -0.00354247 0.00175281
N 9.21059140 18.94314509 27.93983273 0.00483247 -0.00453044 0.00397564
N 11.78147629 12.32377551 22.34084444 -0.00278273 0.00133241 -0.00969066
N 13.90595866 19.12009463 30.58590906 0.00702368 -0.00489913 -0.00150441
N 9.37495653 12.81496432 30.42357695 -0.00199377 -0.00487246 -0.00013409
N 16.44547229 19.29486888 22.21207657 0.00113310 0.00017278 0.00296654
N 13.57538054 0.16650235 27.39840342 -0.00294336 0.00593680 0.00002448
N 11.60910773 19.33592641 19.25988916 0.00349570 0.00145164 0.00077371
N 24.46082482 12.96717509 1.59948915 0.00200510 -0.00017716 -0.00325232
N 18.24748352 5.72673551 11.35958643 0.00313324 0.00359217 0.00078535
N 20.03664777 25.54779333 4.13308758 0.00638966 -0.00459977 -0.00974959
N 22.27907621 6.96291320 14.93997973 -0.00314541 -0.00089811 -0.00214935
N 18.66275874 0.44742489 12.72230331 -0.00692748 0.00557192 0.00231502
N 24.39871568 6.89036394 5.97236273 -0.01292474 0.00384166 0.00114729
N 22.51316143 13.02308030 10.27427408 0.00445713 -0.00151169 -0.00255097
N 19.17013444 6.51004193 3.08882549 -0.00303035 -0.00272400 0.00483990
N 25.25850150 12.65110791 18.22097342 -0.00503504 0.00102671 -0.00096216
N 17.78387480 5.79521781 27.47983040 -0.00879944 -0.00661529 0.00361668
N 19.99921698 25.45675231 20.66523615 -0.00265565 0.00258648 0.00284404
N 21.62628284 6.77812283 31.17288977 0.00386347 -0.00033561 0.00773130
N 17.64667562 25.49533818 28.90256916 0.00633534 -0.00032862 0.00303098
N 24.08545205 6.27545716 22.33381724 -0.01366923 -0.00203822 -0.00158667
N 22.16841473 12.53466534 26.55602382 -0.00145301 0.00776958 0.00342137
N 20.24068901 5.73903383 20.52674527 -0.00177926 -0.00658373 0.00542989
N 24.37736275 25.41106860 2.98974689 0.00467316 0.00213972 -0.00335371
N 18.41846023 19.29265229 9.66368674 -0.00457519 -0.00461306 -0.00448412
N 20.46407225 12.88282608 5.34571721 -0.00499490 0.00298877 -0.01528216
N 22.62360493 19.32539969 13.72222200 -0.01364580 -0.00082075 -0.00002322
N 18.11593678 13.27413006 12.92402751 -0.00292964 0.00114026 -0.00028513
N 24.65535015 19.17183158 5.33481768 0.00951094 0.00214437 0.00649314
N 22.45883175 0.36234854 11.72439210 0.00529329 0.00119223 0.00284037
N 19.95515581 19.18983342 1.67909460 -0.00375387 -0.00702296 0.00883779
N 24.68050541 25.54650428 20.24001885 -0.00178048 -0.00308703 -0.00996624
N 17.90539836 19.06392320 26.62559835 0.00008094 -0.00022986 0.00264353
N 20.55262559 12.95806622 20.04719285 0.00421421 -0.00254936 0.00350119
N 22.53515575 18.99372839 30.13058352 -0.00297265 -0.00473595 -0.00544434
N 17.69051669 13.03993598 30.58118618 0.00426368 0.00349158 0.00312839
N 24.47375306 18.95270129 22.08912712 0.00426605 -0.00325238 -0.00204609
N 21.98123938 0.15749454 28.20244122 -0.00018033 0.00015682 -0.00437145
N 20.28860892 18.85807975 18.17271996 0.00095506 0.00227989 0.00168888
C 7.57972780 0.86300694 5.25245685 0.00040523 -0.00931713 0.00208096
C 1.29181578 6.34447223 13.33322359 -0.00077378 0.00069596 0.00134015
C 3.26316643 12.00183203 4.56679419 0.00263713 -0.00197326 0.00338131
C 5.45450902 7.00663098 12.34149593 0.00744515 -0.00060064 -0.00535880
C 1.32446304 12.25045110 12.56422491 -0.00007043 -0.00208333 -0.00020674
C 7.77038954 7.09343327 4.25827936 -0.00325480 0.00450879 0.00742949
C 4.98253748 0.60837946 13.31511334 0.00024037 -0.00186191 0.00761566
C 3.02264922 5.80500927 5.42048511 0.00374654 0.00319356 0.00188227
C 7.33856872 1.62422798 6.34842298 0.00212048 0.00081727 0.00258549
C 1.61050054 5.77388574 14.55816903 -0.00347642 0.00356099 0.00602366
C 3.00966895 11.61871861 3.26976713 -0.00221285 -0.00549935 -0.00307630
C 5.78008507 7.45106485 11.07423336 -0.00139521 0.00531652 -0.00488544
C 1.41375767 11.41208378 11.47022841 -0.00085555 -0.00672291 -0.00008281
C 7.30251764 7.69413224 3.07889447 0.00432731 -0.00615424 -0.00270397
C 5.59639696 1.06898534 14.46063959 0.00090850 0.00075132 0.00015756
C 2.60195357 5.10682272 6.50163905 -0.00601586 -0.00136766 0.00154629
C 6.57911505 2.82947568 6.30934411 0.00175498 -0.00193469 0.00268126
C 2.49246287 4.65762343 14.62386571 -0.00276666 -0.00659976 0.00083838
C 2.08032386 10.59371849 3.09506916 -0.00227847 -0.00031295 -0.00718733
C 6.66825555 8.51773683 10.95863920 0.00814917 -0.00169219 0.00293452
C 2.29119604 10.33149128 11.38301054 0.00212154 -0.00294317 -0.00314814
C 6.31038135 8.66156846 3.09355611 -0.00076589 -0.00444519 0.00067653
C 6.34637332 2.22480288 14.48863753 -0.00310209 0.00191746 -0.00211526
C 1.80123085 3.96802031 6.40154779 0.00067381 -0.00732889 0.00101201
C 6.25726113 3.40085841 5.06879275 0.00518040 0.00237102 -0.00116112
C 2.78194388 3.99639275 13.40144671 -0.00142081 -0.00359631 -0.00177174
C 1.54381784 9.92880429 4.21495333 0.00100476 -0.00865981 -0.00737537
C 7.21138417 9.02583211 12.15850514 0.00265024 0.00192529 -0.00077917
C 2.94787890 10.01323177 12.58433383 0.00452006 -0.00135526 0.00273541
C 5.85439732 9.12693222 4.32378008 -0.00354943 -0.00116356 0.00055902
C 6.39694846 2.95068641 13.27514627 0.00125084 -0.00423434 0.00686769
C 1.64182212 3.44088659 5.13708783 0.00232488 0.00244765 0.00094425
C 6.55677727 2.68569479 3.90312908 -0.00233969 0.00235073 0.00991567
C 2.45377827 4.55548016 12.18984293 -0.00643637 -0.00097738 0.00267163
C 1.60245041 10.45797521 5.46879659 0.00465216 0.00102975 -0.00746304
C 6.98330751 8.50712797 13.43438596 0.01620222 0.00271793 0.00297554
C 2.84296151 10.83052862 13.68307241 -0.00355463 -0.00041681 0.00319144
C 6.24181579 8.40325929 5.45028074 -0.01048519 0.00167610 0.00146201
C 5.95945367 2.41685307 12.11427410 -0.00190557 0.00477295 0.00128157
C 2.18684021 4.07135263 4.02349588 -0.00060018 -0.00324642 0.00128714
C 7.12561273 1.39346744 4.02798357 0.00228819 -0.00391693 0.00687636
C 1.72557481 5.72455155 12.16719958 0.00230686 0.00157775 0.00118725
C 2.48653670 11.55050701 5.64030676 0.00347495 0.00128769 -0.00326070
C 6.05543542 7.43629805 13.54839972 0.00768871 0.00281283 -0.00415079
C 2.05533652 11.97945826 13.72025025 -0.00406556 -0.00096375 0.00836808
C 7.20222983 7.37416573 5.48023484 0.00718023 -0.00360122 0.00513565
C 5.28527218 1.16469039 12.04480270 -0.00107308 0.00364217 0.00055406
C 2.76151562 5.36036645 4.11712881 0.00244964 0.00082537 0.00352142
C 6.43402343 0.37384281 1.80458726 -0.00548942 0.00743669 0.00373750
C 1.75935502 6.01180226 9.80752142 -0.00357832 -0.00549380 -0.00490281
C 1.81274863 12.12733810 7.78222516 -0.00091223 0.00413211 -0.00487691
C 6.57425133 6.75022075 15.80441205 -0.00805083 -0.00118861 -0.00110006
C 2.53219838 12.62377729 16.03912158 0.00570588 0.00819297 0.00782312
C 6.72244072 6.69497095 7.75898037 0.00052801 -0.00450822 0.00962841
C 5.63017404 0.79605018 9.73546519 -0.00100644 0.00295613 -0.00186631
C 2.50471353 6.17531247 1.85173988 -0.00565284 -0.00633464 -0.00195486
C 7.22773209 11.92685608 17.41754066 -0.00198508 0.00055023 -0.00329094
C 1.39376670 6.93978917 8.63666052 -0.00460731 0.00419724 -0.00114767
C 2.76090566 1.00736193 8.00083300 -0.00066457 -0.00168342 -0.00402425
C 5.70500937 5.81702703 0.01682321 -0.00465357 0.01278575 -0.00590423
C 1.19484355 0.82955709 32.85791520 -0.00995931 0.00647828 0.00124489
C 7.21442020 5.77705492 8.83751545 -0.00418487 -0.00060035 0.00715583
C 5.44947605 11.27877642 8.53503811 -0.00072240 0.00361585 -0.00195798
C 3.68754725 7.80613041 17.56295843 0.00300945 -0.00575719 -0.00462391
C 8.06519510 0.17013959 21.22315108 0.00165634 0.00773643 -0.00708327
C 0.76988948 6.35608911 29.51779298 0.00706119 0.00567094 0.00514664
C 3.78987682 12.41378373 21.17945929 -0.01061784 -0.00022293 -0.00129995
C 5.13184958 6.89593675 28.72603388 -0.00296870 -0.00234941 -0.00869038
C 0.65609964 12.07065695 28.97148473 -0.00537495 -0.00097708 -0.00123109
C 7.31659747 6.54162494 20.51417954 -0.00687433 0.00931915 0.00374673
C 4.79350111 0.64321696 29.95450996 -0.00118367 0.00036193 0.00795573
C 2.93990907 6.11924178 21.92727520 0.00043226 0.00362481 -0.00335293
C 7.66751521 0.55036789 22.44938511 -0.00010058 0.00016097 0.00071935
C 1.13359923 5.87473558 30.71333651 -0.00687455 -0.00215221 -0.00411593
C 3.48511403 11.83616457 19.94340712 0.00873835 -0.00055441 -0.00292777
C 5.60891815 7.25929286 27.45523394 0.00385784 -0.00709530 0.00482365
C 0.95656035 11.63679782 27.67727082 0.00203592 -0.00011142 -0.00060996
C 7.31550052 7.26984604 19.37004325 0.00185476 0.00530390 -0.00271068
C 5.33934256 1.13674093 31.07547714 -0.00323056 0.00559202 -0.00278684
C 2.53846283 5.14865349 22.82376506 0.00301850 0.00150793 -0.00117709
C 6.66697635 1.57183082 22.52011727 -0.00019341 -0.00025592 -0.00765832
C 1.93983566 4.69071910 30.80885162 0.00584713 0.00202640 -0.00116661
C 2.45368303 10.88611447 19.88186914 0.00448722 -0.00989428 0.00131814
C 6.51903738 8.38463538 27.43227606 0.00571229 -0.01093487 0.00254065
C 1.75487686 10.49169928 27.59064634 0.00170272 0.00238564 0.00407087
C 6.74002213 8.60042315 19.48383281 -0.00812853 0.00417322 -0.00480244
C 6.18546210 2.21374434 31.15645588 0.00305777 0.00586618 0.00226103
C 1.80167306 4.02261622 22.34702215 0.00733247 0.00084055 -0.00252603
C 6.30307230 2.22762329 21.32024811 -0.00288487 0.00526538 -0.00018599
C 2.18980526 3.97958590 29.62542978 0.00348144 0.00737744 0.00049363
C 1.86662827 10.39896430 21.05244133 0.00028863 -0.00336947 0.00010648
C 6.66214769 9.18503637 28.55355734 0.00486189 -0.00266669 -0.00629237
C 1.96887887 9.74188692 28.76291577 -0.00687155 0.00303828 0.00820172
C 6.27391635 9.08751916 20.71073339 -0.00450613 0.00040502 0.00564840
C 6.49881667 2.87277269 29.92618270 -0.00358323 0.00156289 -0.00064034
C 1.88360008 3.60558244 21.00819613 0.00866030 -0.01023500 -0.00084940
C 6.66911970 1.76911865 20.07723918 -0.00150889 0.00886683 0.00025220
C 1.70437777 4.34789461 28.40657259 0.00091122 -0.00301188 0.00981915
C 2.20691332 10.95330737 22.24529266 0.00405106 -0.00098467 -0.00248609
C 6.06818618 8.84568988 29.76116330 -0.01226382 0.00256596 -0.00674792
C 1.75719652 10.26029622 30.01609517 0.00159510 0.00003022 -0.00397472
C 6.48544656 8.38412447 21.86810936 -0.01150495 0.00151812 -0.00177308
C 6.00703312 2.29710452 28.74863203 0.00094819 -0.00540108 -0.00752312
C 2.40450206 4.52427658 20.10598791 -0.00092505 -0.00041235 -0.00790602
C 7.50292603 0.64260232 19.99086532 0.00772961 0.00216595 0.00053037
C 1.01321238 5.63624531 28.33505471 -0.00348500 0.00316507 -0.00181044
C 3.06218951 12.15901575 22.31722743 0.00516778 0.00507952 -0.00601110
C 5.29573657 7.72209051 29.83730040 -0.00215687 -0.00125221 0.00562413
C 1.15488041 11.55041147 30.16882207 0.00408220 0.00487119 0.00005151
C 7.00357874 7.09405783 21.78837394 -0.00225145 -0.00109208 0.00141879
C 5.28433090 1.10344262 28.75108559 -0.00488919 -0.00188512 0.00726484
C 2.82196820 5.79348490 20.51407280 -0.00030291 0.00535947 -0.00229400
C 6.89038723 25.58822294 17.80263609 0.00539920 -0.00747133 -0.00067222
C 1.35555827 5.91174177 25.91932366 -0.00227453 0.00675329 0.00221606
C 2.24596261 12.73789001 24.52296850 -0.00377633 0.01059967 0.00141652
C 5.55205597 7.13938130 32.21041222 -0.00126617 0.00479613 0.00575772
C 1.88603278 12.13898331 32.37994403 0.00164808 0.00160767 0.00724852
C 6.29285541 6.43316484 24.02800854 -0.00331882 -0.00166642 0.00764610
C 5.79295257 0.45917492 26.48897687 0.00010176 0.00586179 -0.00423033
C 3.05495175 6.67374250 18.30223798 0.00330835 0.00082943 0.00288834
C 6.86603001 11.50313882 32.97442292 -0.00915288 -0.00758111 0.00040248
C 1.81304585 7.09330284 25.11024073 0.01127249 0.01037777 -0.00807472
C 3.22895138 1.19267844 24.50472716 -0.00247036 -0.00553167 -0.00259790
C 6.59964118 5.48334535 16.51848627 -0.00121017 0.00482721 -0.00077717
C 1.86161623 1.14730740 16.69467434 0.00655771 -0.00287362 -0.00045856
C 6.07726886 5.19749320 24.86390024 0.00377279 -0.00688007 0.00439268
C 5.16375436 11.27140597 25.19347896 0.00866213 0.00051087 -0.00706570