1920
Time=16000.00000000 pbc="T T T" Lattice="25.58146729 0.00000000 0.00000000 0.00000000 25.62355075 0.00000000 0.00000000 0.00000000 32.97658841" energy=-12246.51278055 virial="-63.47841038 -3.87809044 8.09468387 -3.87809044 -37.20200795 -10.17693152 8.09468387 -10.17693152 -97.68794539" stress="-0.00056752 -0.00010768 0.00038962 -0.00010768 0.00068119 -0.00043166 0.00038962 -0.00043166 -0.00222112" Properties=species:S:1:pos:R:3:vel:R:3
O 6.08285210 2.76833561 7.25279376 -0.00413277 -0.00089881 -0.00419605
O 2.66850757 3.76545918 15.12510403 0.00547748 -0.00495813 -0.00026777
O 1.35470776 10.22348607 1.32365718 -0.00767207 -0.00195285 -0.00625494
O 6.79365538 9.35091711 9.84135782 -0.00286737 -0.00051249 0.00148005
O 2.22390210 9.82871447 9.47855504 0.00574238 0.00293586 -0.00539679
O 5.47531920 8.98383830 1.64959509 -0.00227320 0.00009549 -0.00180258
O 7.67092178 2.83591940 14.74943812 0.00262005 -0.00273500 0.00152883
O 2.16313666 3.57225507 7.00726902 0.00240987 0.00110135 0.00299413
O 7.15637084 1.48181029 17.06505052 -0.00409494 -0.00064522 -0.00143521
O 2.57101451 5.12560187 9.09460520 0.00226176 -0.00039006 0.00041616
O 1.84203411 11.39278596 7.42178748 -0.00295150 0.00619748 -0.00020972
O 6.13509445 7.71164474 32.43297968 0.00784899 0.00017708 0.00246281
O 2.01076868 11.81408364 32.39472856 0.00176605 0.00108329 0.00311155
O 6.73115702 7.79771494 7.62337704 0.00018494 -0.00155208 0.00401643
O 6.24915975 0.88284176 9.18121722 -0.00118854 -0.00594476 -0.00603254
O 2.32381086 4.95464335 17.38700492 0.00361261 0.00343943 0.00883551
O 5.33893969 2.67887341 23.18803825 -0.00593462 -0.00375583 -0.00555544
O 2.79848093 3.93141066 32.00234086 -0.00463370 -0.00234117 0.00024399
O 1.53889730 10.13882907 17.72299851 -0.00386713 -0.00356962 -0.00018833
O 6.82473365 9.34072562 26.17168625 -0.00155929 0.00001099 0.00023489
O 2.85883238 10.25686409 26.31208962 0.00316326 -0.00127918 0.00486090
O 6.11467404 9.03474718 18.02926688 -0.00798106 0.00476008 -0.00091684
O 7.40634198 2.68729467 31.59841895 0.00122321 0.00285860 0.00351943
O 1.64450469 3.82638352 23.70952075 0.00047277 0.00128852 -0.00391245
O 6.63834772 1.19934267 0.84183477 0.00248306 0.00157748 0.00199528
O 2.12402115 5.29016648 25.71174337 -0.00383753 -0.00189300 0.00563219
O 2.26615089 11.48793720 23.99650022 0.00057882 0.00458793 0.00099459
O 6.40176796 7.39639832 15.98204294 -0.00649040 -0.00133828 -0.00391958
O 2.35524585 11.48285495 15.63893087 -0.00252009 0.00291534 -0.00166583
O 6.76524835 7.69509492 24.19146581 -0.00731632 -0.00682979 -0.00326897
O 6.13880377 1.35070234 25.52531102 -0.00150381 -0.00219131 0.00203061
O 1.87787571 5.33886298 0.94806907 0.00320977 -0.00134929 -0.00351968
O 6.01787690 15.50339457 7.12541832 -0.00120538 -0.00502681 -0.00374864
O 2.30688430 16.34446507 15.05801683 0.00925470 -0.00359502 0.00272343
O 1.47094817 23.04276793 0.94480757 -0.00207820 -0.00624572 -0.00061889
O 7.21540641 21.60742245 9.70448644 0.00133316 -0.00645069 -0.00011806
O 2.71102572 22.78225179 9.59772528 -0.00303143 0.00274112 -0.00331982
O 6.06788715 21.83317881 1.06980793 0.00207595 0.00251444 0.00226145
O 6.93096694 15.44606507 15.13658978 0.00522210 -0.00122997 -0.00301320
O 1.38530375 16.48335588 6.84222706 -0.00508226 0.00003807 0.00204669
O 6.75268630 13.94102814 17.24908705 -0.00373813 0.00464244 -0.00056062
O 1.66240663 18.07893716 8.74510721 -0.00040803 -0.00413887 -0.00440831
O 2.47423854 24.12544104 7.24177838 -0.00299814 0.00637422 0.00475586
O 6.44411402 20.34142467 32.02744024 -0.00175938 0.00400008 -0.00164595
O 2.17813977 24.45609355 31.94489960 -0.00291969 0.00033578 -0.00465054
O 6.37033801 20.39345922 7.42666685 0.00258323 -0.00735754 -0.00274382
O 6.20287895 13.83151647 8.99341478 -0.00367071 0.00118056 -0.00023245
O 2.27731865 17.81001998 17.23342398 -0.00508020 0.00416134 -0.00205079
O 5.98075846 15.32910281 23.61022212 0.00186291 0.00430742 0.00017412
O 2.65309897 16.89141465 31.35643784 -0.00850456 -0.00245434 0.00141124
O 1.74012716 22.70098842 17.76840852 -0.00100349 0.00355483 -0.00363071
O 7.53990060 22.03756537 26.12367220 0.00797722 -0.00010386 0.00625527
O 2.03961714 22.74505129 25.85341503 -0.00189029 -0.00364296 -0.00447820
O 6.16995978 21.93046574 17.80820090 0.00039766 0.00184124 -0.00396234
O 6.84720693 15.46373121 31.85911202 0.00454313 0.00154511 -0.00165676
O 1.46996435 16.33699569 23.58887620 -0.00082470 0.00266786 -0.00045853
O 6.24647991 13.87017377 0.93096577 -0.00171654 -0.00093120 -0.00268505
O 1.83577408 18.27131706 25.15876944 -0.00340996 0.00325763 -0.00146295
O 1.91145649 24.45584552 23.86247530 0.00067773 0.00456310 -0.00063661
O 5.78043096 20.26665627 15.78173557 -0.00217186 0.00406663 0.00634865
O 2.19615564 24.36370238 15.60420849 0.00008126 -0.01061970 0.00653170
O 7.04154136 20.62524768 23.90391458 -0.00299195 -0.00608528 0.00879694
O 6.53532410 13.93499608 25.82579647 -0.00070932 0.00670505 -0.00035098
O 2.15719257 18.08861448 0.79428659 -0.00221379 -0.00104425 -0.00326509
O 14.81970228 3.18930853 6.86054414 0.00176726 -0.00092912 -0.00176101
O 11.60811719 4.16544801 15.40832910 0.00416102 0.00002170 -0.00064035
O 10.26876176 10.08241811 1.51796900 -0.00451466 0.00124960 0.01276606
O 15.29659737 8.96940479 9.58046225 -0.00198927 0.00254515 0.00022991
O 10.76990084 10.28550224 9.63754185 -0.00419767 -0.00157848 0.00698115
O 14.95136075 9.21528854 1.50416464 0.00125435 0.00173803 0.00546368
O 15.61228376 2.53015160 14.99094595 -0.00153882 0.00286460 0.00018281
O 10.34218028 3.65573025 7.24862974 -0.00639701 0.00269595 0.00008938
O 15.09757390 1.22952217 17.18138334 -0.00500533 -0.00313358 0.00049074
O 10.50260619 5.36979842 9.21625870 0.00634206 0.00278962 -0.00670370
O 10.35117762 11.66032368 7.51450655 -0.00909414 0.00172719 -0.00541724
O 15.07913202 8.12299102 32.07089789 -0.00280448 0.00043161 -0.00070712
O 11.03146581 11.85327485 32.59749234 0.00386500 -0.00071083 0.00507068
O 14.51910246 7.49180428 7.66316187 -0.00000527 -0.00352757 0.00489833
O 14.54126568 1.44916690 8.94040291 -0.00186614 0.00218372 0.00077183
O 11.10800990 4.83017294 17.83691846 0.00280321 0.00718771 -0.00318442
O 14.56130667 2.91821274 23.33421137 0.00265715 0.00866434 0.00366908
O 10.91082599 4.01286298 32.22768763 0.00320223 0.00658489 0.00692664
O 9.75889587 10.30505737 18.15259690 0.00330596 0.00076851 0.00357247
O 14.92265636 9.18658172 25.79985636 -0.00627303 -0.00044307 -0.00636343
O 10.88534845 10.42913766 26.18210925 -0.00494320 0.00391599 -0.00320860
O 14.52288793 9.24116211 17.97688557 0.00353902 -0.00668042 0.00175364
O 15.38744634 3.15491166 31.53979306 0.00320101 -0.00041693 0.00662088
O 9.40135639 3.82302796 23.77775963 0.00018480 -0.00224496 0.00447548
O 15.44020658 1.58272733 0.54703478 -0.00335440 -0.00019405 -0.00636670
O 10.03131806 4.99888753 25.87267290 0.00409033 -0.00460365 -0.00054465
O 10.22357638 11.78252993 24.18392204 0.00584708 0.00535817 0.00082769
O 14.92299672 7.79376894 15.89666025 -0.00286746 0.00022488 0.00640591
O 10.51084400 11.48377854 15.89128100 0.00308225 -0.00673179 0.00296267
O 14.39105236 7.35244988 24.01568232 -0.00323495 -0.00826555 -0.00165268
O 15.38845577 1.32061102 25.43845209 -0.00041537 0.00019071 0.00094296
O 10.23999859 5.43191539 1.26174409 -0.00417264 0.00089655 0.00788383
O 14.22665622 15.34060180 6.98293734 0.00178869 -0.00272521 0.00122798
O 11.13753136 16.20238747 14.91321093 -0.00944250 -0.00542684 0.00419219
O 10.75752325 23.03768424 1.57891909 -0.00267403 -0.00311075 -0.00375421
O 15.24051382 21.94035877 9.10644651 0.00582097 -0.00181040 -0.00262271
O 11.12699843 22.98784856 9.81027250 -0.00050092 0.00021963 -0.00377895
O 14.80136676 22.00674132 0.98451297 0.00461346 -0.00070209 -0.00385870
O 15.45533407 15.43520915 15.18389174 -0.00092287 -0.00629369 -0.00314641
O 10.37616793 16.11314667 6.87784023 0.00050279 -0.00367143 -0.00185841
O 14.99918060 13.82623207 17.12211431 0.00256478 0.00415138 -0.00449284
O 10.27136148 17.78866046 8.89792066 0.00230812 -0.00291212 -0.00180073
O 10.63855415 24.44116983 7.73076642 -0.01490277 -0.00692309 -0.00618365
O 14.41883765 20.54296598 31.87190992 0.00308587 0.00831547 0.00096752
O 10.71688143 24.24176036 32.26010698 -0.00182686 0.00253159 0.00014084
O 15.40197699 20.26193686 7.21106082 0.00602826 -0.00060034 -0.00575220
O 15.15222059 13.84217971 8.79393668 0.00132465 -0.00557276 0.00248470
O 11.13324308 18.01728074 16.76090062 0.00225292 -0.00106621 0.00339871
O 13.96769783 15.37200727 23.34446614 0.01193316 0.00550321 0.00396572
O 11.68715305 16.36890200 30.81852816 0.00334774 0.00032147 -0.00222151
O 10.40514443 22.83024513 17.51884096 -0.00098296 0.00006383 0.00532105
O 15.60838921 22.17893211 25.80019533 -0.00037813 0.00172029 0.00059020
O 11.43494648 22.80438415 26.11389219 -0.00158576 0.00157776 -0.00338446
O 14.20040218 21.96228486 17.51915448 0.00348079 0.00650476 0.00423104
O 15.79956275 15.62335335 31.52312752 0.00440101 -0.00614826 -0.00129614
O 10.07389447 16.31080116 22.83946433 -0.00194906 0.00227388 0.00526009
O 15.39744414 14.15128413 0.73323627 -0.00355296 -0.00332879 -0.00300856
O 10.03397251 18.03592553 24.85564081 0.00096296 -0.00262913 -0.00093787
O 11.23297685 24.39115648 23.73840721 0.00188589 0.01281390 0.00254304
O 14.82384958 20.52701285 15.46770482 0.00508201 0.00191415 -0.00065224
O 10.92042431 24.46557995 15.72776666 -0.00293526 -0.00541098 0.00834896
O 15.14421360 20.49863593 23.67269064 0.00609152 -0.00488690 -0.00125177
O 14.66389001 14.14606689 25.46093339 -0.00133534 0.00489658 0.00292604
O 10.95825590 18.20510377 0.81419702 -0.00437972 0.00580255 0.00004788
O 22.76976257 2.21235160 6.80970203 -0.00537889 0.00212343 -0.00355740
O 19.71915472 3.70569137 15.35527725 0.00663486 -0.00629794 0.00589338
O 19.37565515 9.96318279 1.35327016 0.00358772 0.00582246 -0.00665644
O 23.68236505 8.85887759 9.35464482 0.00511451 -0.00057568 -0.00228811
O 19.62603244 10.26257030 9.93190610 0.00171091 0.00557671 0.00059721
O 23.12134486 9.21457084 1.18617856 0.00295609 -0.00131513 0.00102382
O 23.99420136 2.42411177 15.36765268 0.00284115 -0.00743949 0.00545975
O 18.90961725 3.64187158 7.06812849 -0.00113589 -0.00063777 -0.00285188
O 23.27684441 0.80598597 17.28092490 0.00257408 0.00519492 -0.00392120
O 19.11518978 5.14278176 9.21363009 -0.00038555 0.00712291 -0.00173416
O 19.30224296 11.51304614 7.48553145 0.00652226 0.00311546 0.00013703
O 23.40238690 7.76378957 32.02409761 0.00647304 -0.00875329 0.00162155
O 19.53630860 11.34343491 32.03333428 -0.00664156 -0.00048619 -0.00326577
O 23.02760887 7.33768803 7.30105291 -0.00077789 0.00246876 0.00019897
O 23.21964837 1.18477815 9.12501395 -0.00372464 -0.00026034 -0.00017587
O 19.28659217 5.23654227 17.33694064 0.00189610 -0.00566461 0.00329819
O 23.53617609 2.74339744 23.25894122 0.00550414 -0.00034621 0.00072767
O 19.79285270 3.72915113 31.53917122 0.00496269 0.00057676 -0.00330606
O 18.59451780 10.05153303 18.02027623 0.00671988 -0.00268098 0.00139108
O 24.05600596 9.31213277 25.81854020 -0.00412962 -0.00480201 -0.00460618
O 19.48792736 10.34396825 25.71650409 -0.00158054 -0.00707909 0.00158765
O 22.67746160 9.21475432 17.73388844 -0.00123918 0.00099496 -0.01219285
O 24.17277295 2.55963207 31.68559879 0.00785656 0.01060746 -0.00629116
O 18.59129493 4.06199250 23.39362304 -0.00524723 0.00119430 -0.00076695
O 23.50484293 1.45986812 0.80414552 -0.00462510 -0.00099568 0.00566818
O 19.04250403 5.47699574 25.49424967 -0.00152114 0.00003448 0.00041522
O 18.63317742 11.95019681 23.98086132 -0.00641745 -0.00487442 0.00018192
O 23.00246893 7.70139698 15.57859523 -0.00124297 -0.00191642 -0.00646058
O 19.29388655 11.60934333 15.99254514 0.00270428 -0.00385333 0.00357151
O 23.28463532 7.73197352 24.16216329 -0.00086045 -0.00441407 -0.00318106
O 23.39496155 1.13107305 25.36150714 -0.00671649 0.00557074 -0.00370727
O 19.45678644 5.11780731 0.84172472 0.00494696 -0.00030050 0.00455291
O 22.79731541 15.76595657 7.08266964 0.00049207 -0.00298569 -0.00250356
O 19.20206969 16.21567739 14.83584248 0.00731777 0.00499658 0.00987590
O 18.60863554 23.46246336 1.08518308 -0.00297643 -0.00543215 0.00210316
O 24.13468192 21.98971927 9.57161404 0.00215279 -0.00118195 0.00211527
O 19.75582925 23.51436122 9.35221219 0.00298199 0.00180969 0.00315100
O 22.90807510 21.90639075 0.94837304 0.00277278 -0.00471089 0.00445963
O 23.74505232 15.21285604 15.39361350 0.00298759 -0.00409795 0.00027670
O 18.56800331 16.39664241 6.74812491 0.00427919 -0.00191360 -0.00265473
O 23.22012383 13.94322700 17.43240517 -0.00069307 0.00511475 -0.00574935
O 18.43640015 18.26165146 8.69497265 -0.00363811 0.00351923 -0.00432849
O 18.96532413 24.50155978 7.13993858 0.00362961 -0.00078216 0.00052701
O 23.79203955 20.36814832 32.02112847 0.00576345 -0.00005461 -0.00573294
O 19.32024721 24.49507167 31.81590866 -0.00102354 0.00012556 -0.00249097
O 23.60737397 20.85840101 7.29369726 0.01090491 -0.00489729 0.00323485
O 23.28347739 13.92766452 9.01872788 -0.00190714 0.00008629 -0.00130165
O 19.46215144 17.72776181 16.98224929 -0.00678426 -0.00019107 0.00944333
O 23.08473720 15.53125439 23.53637491 -0.00541038 -0.00696025 0.00308503
O 19.92237159 16.69780601 31.85953707 0.00357552 0.00108154 0.00192178
O 18.18572436 22.77835618 17.82573022 0.00070830 0.00360100 -0.00165288
O 23.48706150 21.66965412 25.73819756 0.00268043 0.00209391 0.00181560
O 19.47176217 22.68610681 25.77029448 -0.00118389 -0.00272272 0.00277276
O 22.78854851 21.42788498 17.96601803 -0.00189501 -0.00309811 -0.00167004
O 23.60601984 15.70758010 31.70874978 0.00105202 0.00652694 -0.00443343
O 18.73144862 16.13993891 23.17292836 0.00479938 -0.00034767 0.00122056
O 23.49060166 14.29804714 0.77898077 0.00174776 -0.00022592 -0.00448737
O 19.11680755 17.61218040 25.54548301 0.00487070 0.00136645 0.00226331
O 20.04614846 24.11510371 23.75775906 -0.00558203 0.00019016 -0.00184326
O 23.04657908 20.28391552 15.72268437 -0.00321899 0.00510611 -0.00125429
O 18.99594598 24.07341426 15.54529443 0.00386302 -0.00205600 0.00117883
O 23.10091437 20.00945940 23.87737146 0.00472991 0.00706169 0.00092383
O 23.53864133 14.00115612 25.64306553 -0.00259539 0.00148811 -0.00423066
O 19.09652375 18.29737279 0.88275624 0.00545810 -0.00230632 -0.00438428
N 7.53791564 12.74287649 2.48369743 0.00166877 -0.00274074 0.00115471
N 0.94252042 5.87716952 10.40016776 -0.00225546 -0.00033733 -0.00022063
N 3.45835709 25.34593674 5.57325808 0.00130469 -0.00177040 0.00248054
N 5.03638238 6.51270289 14.39962659 0.00447207 0.00713989 0.00662975
N 0.98508178 25.48549683 14.08368399 -0.00447210 0.00132394 0.00270431
N 7.91402950 6.64307499 6.01383539 -0.00106542 0.00003605 -0.00276563
N 4.99293840 12.72252812 10.63155348 0.00691670 -0.00263614 -0.00312661
N 3.38911057 6.33513174 2.37929241 -0.00181712 0.00056812 0.00527454
N 7.45624551 12.56498152 18.88367563 -0.00430419 0.00569503 -0.00273781
N 0.95332584 6.31726614 27.32966421 0.00127013 -0.00382964 0.00558110
N 3.44322876 25.33233742 22.39442111 -0.00528769 -0.00132252 0.00103588
N 5.28414506 6.47929594 30.65313945 0.00289962 -0.00306538 0.00338249
N 1.14417518 0.11887757 30.38604348 0.00623110 -0.00443944 -0.00591980
N 7.58625402 6.30631861 22.54395058 -0.00008278 0.00990174 0.00017492
N 5.73318658 12.47744238 27.32044275 0.00551217 0.00227470 -0.00064649
N 3.53506586 6.03924183 19.06543556 0.00099929 0.00530182 0.00386980
N 7.84576904 0.38933862 2.56669493 -0.00646058 0.00257697 0.00792558
N 0.72037328 19.20871675 10.51891083 -0.00488416 0.00584364 -0.00046299
N 3.13383013 12.63502079 5.97386354 -0.00015380 -0.00337999 0.00677718
N 4.82143986 19.00731963 14.08404771 0.00372234 0.00371349 0.00401860
N 1.09974184 12.54336317 14.10380843 -0.00044433 0.00233532 0.00659145
N 7.57533543 19.33249013 5.73291307 0.00507114 0.00412356 0.00117198
N 4.83238060 0.22680427 10.83996137 0.00316490 -0.00052193 -0.00228408
N 3.23505066 19.29115840 2.48226873 0.00283864 0.00441765 -0.00445568
N 7.64873383 0.08916698 18.82448211 -0.00227961 -0.00267956 0.00156493
N 0.91551549 19.59178691 26.81724832 0.00639373 0.00077693 0.00277168
N 3.26122429 12.63185494 22.32916703 0.00094607 0.00415883 0.00327162
N 5.25604251 19.35722483 30.31296633 -0.00375529 0.00273388 -0.00617615
N 1.03551669 12.99573622 30.70730297 -0.00297472 0.00140267 0.00138436
N 7.63080599 19.15966735 22.30981344 0.00588868 -0.00399858 0.00439667
N 5.19922160 0.15050135 27.21638013 0.00276252 0.00028580 0.00348616
N 3.19901192 18.98312124 18.99132053 -0.00026463 -0.00224425 -0.00430779
N 16.05363428 12.75650501 2.48760148 -0.00244860 0.00753350 -0.00188580
N 9.39764371 6.42048510 10.87231440 -0.00220349 -0.00739982 -0.00631797
N 11.73592448 0.17321337 6.25539368 -0.00529728 -0.00300079 -0.00541804
N 13.59143984 6.76919201 14.35068607 0.00620417 -0.00436394 0.00796123
N 9.78259394 0.14602317 14.20369402 -0.00592720 -0.00115540 -0.00023611
N 15.91319914 6.40537700 6.18913240 -0.00678850 0.00247041 -0.00567924
N 13.73478695 13.06817234 10.57650901 -0.00741963 -0.00282013 0.00268436
N 11.93675100 6.21736671 2.67957204 -0.00625678 0.00103151 -0.00170184
N 16.01210042 12.67187502 18.93820200 0.00749718 0.00422802 0.00385462
N 9.26943074 6.37444111 27.60071853 0.00291303 -0.00870901 -0.00518529
N 11.93228535 0.16168295 22.08956073 -0.00098886 -0.00242601 0.00263321
N 13.58357850 6.94971582 30.68357506 -0.00137088 -0.00573110 -0.00540450
N 9.94753719 0.01522038 30.66045870 -0.00561177 0.00403578 0.00103371
N 15.92898996 6.40187819 22.65284440 -0.00130839 0.00083635 0.00395866
N 13.99731526 12.66567352 27.10363362 -0.00453321 -0.00715732 0.00198108
N 11.94455229 6.03866960 19.47581925 -0.00137032 -0.00598075 0.00507739
N 16.31183297 0.31290248 2.28792454 0.00535954 -0.00033722 -0.00233278
N 9.57727511 19.15281358 10.58719536 0.00607020 0.00230297 -0.00682158
N 12.01547541 12.54407904 6.18518098 -0.00036770 0.00322801 -0.00126850
N 13.89007158 19.33102048 13.82207755 0.00498080 -0.00149984 0.00099191
N 9.25847100 12.62325649 14.33708268 -0.00576375 0.00329139 0.00304849
N 16.07665877 18.97441905 5.38823625 0.00510984 -0.00117164 0.00372931
N 13.46523101 0.15442407 10.50890858 -0.00710268 0.00308470 0.00342071
N 11.92193424 19.28396499 2.52357842 0.00022735 -0.00820064 0.00055720
N 16.32472908 0.16429595 18.72880313 -0.00237916 0.00305816 0.00325783
N 9.50328319 19.33726662 26.75949308 -0.00127565 0.00205045 -0.00319172
N 11.71659054 12.74800126 22.59794767 0.00234668 -0.00416199 -0.00550080
N 13.75605586 19.17385588 30.10770705 -0.00704623 -0.00048845 0.00285681
N 9.65681486 12.79162587 30.99414860 -0.00154805 0.00550088 0.00510995
N 15.88729169 19.22244986 21.89024282 -0.00189024 0.00172935 0.00348108
N 14.43295516 0.04343235 27.13817534 -0.00197491 -0.00565041 -0.00335709
N 11.49148876 19.50839825 18.49026849 0.00147508 -0.00507567 -0.00215972
N 24.68812443 13.25789217 2.51091417 0.00667231 -0.00008469 -0.00394496
N 17.95311327 6.27527356 10.85765111 0.00153075 0.00779258 0.00215504
N 20.19682360 0.23749014 5.76056067 -0.00582996 0.00282867 0.00082875
N 22.20599543 6.23042888 14.05159143 0.00502265 -0.00447986 -0.00012780
N 17.76168521 25.25095781 14.03873624 0.00193246 0.00174800 0.00322767
N 24.57608854 6.53690236 5.82289585 0.00241440 0.00632200 -0.00494419
N 22.08559819 12.85469624 10.71630212 -0.00330943 0.00323771 -0.00123088
N 20.57774152 6.21127142 2.45496335 0.00110418 0.00226444 -0.00361278
N 24.53888356 12.79002304 18.92064344 -0.00226405 -0.00137496 0.00724122
N 17.86111711 6.55392164 27.10506186 0.00620673 -0.00017740 -0.00489435
N 20.83015675 25.32272085 21.94061582 0.00490716 -0.00096169 0.00016586
N 22.02214181 6.95219128 30.43329994 -0.00333836 -0.00275157 -0.00154959
N 18.17082101 0.08158648 30.31858631 0.00366224 0.00031027 0.00325842
N 24.64271326 6.82985731 22.53713107 -0.00158141 0.00113296 -0.00330049
N 22.20899897 12.95322701 27.15355845 0.00712171 -0.00331975 0.00509801
N 20.43174074 6.49443079 18.76397616 -0.00649218 -0.00231555 0.00544758
N 24.72398770 0.04300652 2.15285695 -0.00045805 0.00006954 -0.00207207
N 18.03792781 19.55111261 10.50053476 0.01059179 -0.00133009 -0.00086518
N 20.31799269 12.92321603 5.94974357 -0.00542265 -0.00258993 -0.00729554
N 21.92105674 19.33511617 13.92858263 0.00096986 -0.00144092 0.00387425
N 18.03441423 12.80872213 14.48886493 -0.00742020 -0.00292742 0.00827463
N 24.54769302 19.57363391 5.63924052 -0.00173056 -0.00333188 0.00501829
N 21.99245043 0.22359549 10.82730349 0.00148221 -0.00329371 -0.01599962
N 20.20818689 19.39911234 2.47025432 -0.00637907 0.00557857 -0.00041513
N 24.36487064 25.16460173 18.90671520 0.00244488 0.00304933 0.00322882
N 17.70777282 18.54580670 27.11508632 -0.00622083 0.00408800 0.00136541
N 19.98694241 13.01828147 22.43406895 -0.00357615 0.00265811 -0.00103278
N 22.46127153 19.16457061 30.60418618 -0.00119876 -0.00257822 -0.00047632
N 18.12595634 12.54362259 30.62082309 0.00327214 0.00331570 -0.00858359
N 24.56168261 18.91709360 22.48958346 0.00799383 -0.00488153 -0.00303119
N 22.38361036 0.10846557 27.13367851 0.00229848 -0.00107639 0.00184548
N 20.18551660 19.01478258 18.70105422 0.00010688 0.00382017 -0.00273450
C 7.60820084 0.44532901 4.92511561 0.00010063 0.00119522 -0.00467069
C 0.68435198 5.66147807 12.78338436 0.00079673 -0.00104923 0.00351759
C 3.10804515 12.41495735 3.61021004 -0.00290052 -0.00405270 0.00244186
C 5.02512412 6.90692084 12.03006482 -0.00152911 -0.00986216 0.00466070
C 0.88874885 12.25485579 11.79081083 -0.00741953 0.00593166 -0.00613259
C 7.75184638 6.98601680 3.63972027 0.00413574 -0.00479409 0.00114370
C 5.34658360 0.48863698 13.16694849 -0.00444883 -0.00025751 0.00909336
C 3.55258367 6.03872592 4.81751609 -0.00197996 -0.00066066 -0.00705568
C 7.14018527 1.01339364 6.09667043 -0.00654161 -0.00051623 -0.00367348
C 1.10009743 5.06444755 13.95569688 0.00279703 0.00351015 0.00384323
C 2.55162047 11.91799777 2.41952221 0.00591637 0.00568066 0.00903490
C 5.58564441 7.48108914 10.86659426 0.00148726 -0.00889303 -0.00366451
C 1.11103923 11.54546993 10.64409596 0.00041994 0.00013223 -0.00225095
C 7.12341461 7.58737920 2.52325577 -0.00255410 0.00703193 0.00901328
C 5.95951922 1.26259983 14.15291059 0.00361467 0.00288361 -0.00316162
C 3.31948169 5.29748182 5.96720682 0.00512182 0.00326771 0.00506099
C 6.47485851 2.25912408 6.04539112 -0.00287729 -0.00313514 0.00255381
C 2.11960282 4.07466834 13.99432772 0.00425253 0.00442662 0.00541665
C 1.88272056 10.69314909 2.47655643 0.00041258 0.00076954 0.00014439
C 6.31169893 8.72252473 10.93041991 0.00135322 0.00583960 -0.00400461
C 1.78423790 10.33878879 10.68039323 -0.00723861 -0.00367814 -0.00445961
C 6.18457266 8.62643632 2.71098469 0.00111983 -0.00386234 -0.00573627
C 6.75393364 2.35128493 13.85360726 -0.00470877 0.00482616 0.00584384
C 2.53807389 4.19667725 5.88940545 -0.00931129 0.00153700 -0.00905972
C 6.27095776 2.85175930 4.85392398 0.00264665 -0.00460862 -0.00406291
C 2.60096595 3.66345884 12.78227087 0.00519464 -0.00429496 -0.00117262
C 1.75322835 9.97539391 3.69797768 -0.00828608 0.00183022 -0.00133185
C 6.48264034 9.22783194 12.28098395 0.00100727 -0.00129282 -0.00132771
C 2.08058660 9.73638697 11.89704711 0.00159756 -0.00715314 0.00051228
C 6.09390995 9.21516705 4.03809878 -0.00373032 -0.00482457 0.00107695
C 6.62160845 2.94723016 12.59951515 -0.00695851 -0.00275622 -0.00222435
C 2.06200677 3.71584755 4.58311070 0.00288057 0.00088711 0.00434302
C 6.59546159 2.19515625 3.63687146 0.00081081 -0.00227264 -0.00428362
C 2.16258388 4.16946083 11.60836305 -0.00111494 -0.00280141 -0.00004621
C 2.12296849 10.62347499 4.89247978 -0.00001629 0.00301371 -0.00340800
C 6.05154630 8.51430157 13.36581768 -0.00166885 0.00056370 0.00232488
C 1.89931304 10.49372999 13.05460714 -0.00099529 0.00086984 0.00217776
C 6.53286762 8.50994875 5.11359799 0.00472574 -0.00947522 0.00442745
C 5.96054065 2.28078542 11.59463170 -0.00208700 0.00059670 0.00105521
C 2.37259978 4.39560286 3.48126671 0.00272165 0.00319953 -0.00051369
C 7.37334856 1.04269150 3.70970098 0.00435517 0.00345570 -0.00396170
C 1.29528314 5.23826808 11.58165829 0.00502650 0.00347988 0.00296603
C 2.80178721 11.91961857 4.82424232 -0.00150464 -0.00154934 -0.00402237
C 5.34760709 7.33104372 13.33393570 0.00296876 -0.00155319 -0.00876275
C 1.17095082 11.68076159 13.02409462 -0.00868578 0.00395126 0.00023286
C 7.41991826 7.37756906 4.96417280 -0.00231875 -0.00318641 0.00124495
C 5.42247445 0.94053350 11.85265769 0.00020552 0.00034202 -0.00116843
C 3.14073286 5.58528562 3.53946961 0.00107059 -0.00234984 -0.01530519
C 7.25243198 0.27182597 1.33869737 0.00727142 0.00280773 -0.00418695
C 1.66326564 5.95559751 9.29040108 -0.00406290 -0.00135884 -0.01006267
C 2.46272073 12.42709878 7.12244153 0.00035512 0.00216632 -0.01124550
C 5.72597169 6.48342954 15.56260437 0.00852460 -0.00562985 0.00402298
C 1.61984700 12.46141752 15.29513512 -0.00477971 0.00280026 0.00336621
C 7.23824572 6.72594721 7.21863994 0.00259697 0.00644173 0.00713450
C 5.50241313 0.07110876 9.59953276 -0.01012995 -0.00058583 0.00385481
C 2.67929580 6.21973661 1.22302470 0.00031894 0.00334659 -0.00571000
C 7.03174208 11.59480510 16.72717017 -0.00003314 -0.00077895 -0.00093811
C 1.17046308 6.97502146 8.28161111 0.00513495 -0.00049228 -0.00037800
C 3.02643880 0.80782405 7.78846853 0.00475169 -0.00675600 -0.00379182
C 5.82962385 5.30325509 32.64752973 -0.00832464 0.00398738 0.00014412
C 1.61864928 1.16823725 32.51392007 0.00149931 0.00686630 0.00734426
C 7.25702092 5.44993206 8.03290089 -0.00812490 -0.00590049 0.00291783
C 5.43726931 11.68319686 8.41708692 -0.00317631 0.01002369 0.00125362
C 2.96768329 7.28952391 17.07927097 -0.00207174 0.00320346 -0.00409593
C 7.67397976 0.55300146 21.16559068 -0.00119931 0.00455739 0.00145409
C 0.98370018 6.08908633 29.68200602 -0.00359354 0.00052137 0.00088164
C 3.39325304 12.24865597 19.93914560 -0.00139359 0.00042378 0.00533603
C 5.26631292 6.86721498 28.32267795 -0.00669139 -0.00331564 -0.00068670
C 1.06052772 12.61574253 28.34958486 0.00204511 0.00733433 -0.00563639
C 7.81393953 6.66628242 20.16597538 0.00499707 -0.00592477 0.00509340
C 5.44026830 0.38500841 29.61320936 0.00894646 -0.00048042 0.00386598
C 3.36010866 6.03265608 21.43105893 -0.00270792 -0.00702284 0.00459938
C 7.21197563 1.21630089 22.30285164 0.00200859 -0.00617208 -0.00206967
C 1.23927631 5.39364594 30.86290984 0.00323895 -0.00520870 -0.00430191
C 3.02531452 11.50448641 18.81884444 -0.00161021 0.00319750 0.00364604
C 5.70156605 7.56030357 27.18169395 -0.00131325 0.00739035 0.01211982
C 1.39604199 11.88081270 27.22768617 0.00483322 0.00328522 0.00820357
C 7.46275180 7.39438672 19.04469374 -0.00299174 0.00023769 0.00493727
C 5.91621329 1.08669781 30.73166636 0.00432146 0.00261746 -0.00031403
C 2.95156917 5.44837194 22.56275638 0.00259543 0.00128678 -0.00490398
C 6.18295519 2.21928657 22.15420036 0.00955039 0.00437720 0.00111578
C 2.25824796 4.36648434 30.81777647 0.00386051 0.00446709 0.00025247
C 2.16230966 10.41904079 18.85807758 -0.00202922 -0.00427762 -0.00631944
C 6.42786818 8.77484319 27.27730857 -0.00073156 -0.00257438 -0.00027814
C 2.21218124 10.73841636 27.36674217 0.00191822 -0.00121082 0.00287001
C 6.57766196 8.46798236 19.14871256 0.00863652 -0.00368337 0.00623670
C 6.68499341 2.20244018 30.52758893 -0.00815378 0.00455000 -0.00015062
C 2.05006452 4.31714889 22.53136043 -0.00622567 0.00428320 -0.00451451
C 5.99005736 2.79390753 20.87062174 -0.00012923 0.00440630 0.00243118
C 2.55557957 3.84646215 29.56953440 0.00005131 0.00088362 0.00306526
C 1.90569478 9.85914375 20.17235800 -0.00467025 -0.00317961 0.00378815
C 6.69659298 9.22221600 28.59651335 0.00388853 -0.00480733 0.00118571
C 2.27933110 10.11362920 28.64924199 0.00817277 0.00668289 -0.00352452
C 6.14518409 8.89459828 20.43136864 0.00454383 -0.00938539 -0.00065389
C 6.83788400 2.79086574 29.23279580 0.00060115 -0.00049274 -0.00123789
C 1.65683940 3.77088303 21.30851683 0.00419158 -0.00645269 -0.00370746
C 6.46614216 2.11822168 19.74667865 -0.00368886 -0.00091950 -0.00455535
C 1.95460038 4.33986783 28.36401130 0.00424395 0.00469720 -0.00230797
C 2.22291771 10.62179216 21.27547560 0.00182277 -0.00037135 -0.00183504
C 6.30129713 8.57357230 29.74417398 -0.00120861 0.00553227 0.00493484
C 1.94109639 10.87924765 29.74254656 -0.00092860 0.00869936 -0.00319205
C 6.62343531 8.29027674 21.56186017 -0.00012374 0.00383370 -0.00392588
C 6.27227684 2.19596502 28.15315605 -0.00089661 0.00088713 0.00876650
C 2.14663371 4.32628519 20.13146009 -0.00082907 -0.00474556 -0.00508741
C 7.26742472 0.95749405 19.88127526 0.00414771 0.00034109 0.00493968
C 1.37460154 5.62418358 28.42341077 -0.00976429 0.00711755 -0.00530244
C 2.98839611 11.84317745 21.24890091 0.00648544 0.00653618 -0.00043028
C 5.56181244 7.36871766 29.60119795 0.00265195 0.00646902 0.00387469
C 1.26035755 12.13082009 29.62297577 -0.00044872 -0.00038883 0.00477515
C 7.34191732 7.07724967 21.46952460 -0.00023275 0.00947536 -0.00210593
C 5.54992199 0.93169290 28.32087828 -0.00173015 -0.00078955 -0.00484775
C 3.01881563 5.43704073 20.18058774 -0.00021202 0.00659968 0.00140885
C 7.37836266 0.34777355 17.51378177 0.00307809 0.01171485 -0.00115484
C 1.46209838 6.28249452 26.06085850 0.00338955 0.00522869 -0.00741006
C 2.78501617 12.51633785 23.64231907 -0.00412943 0.00255463 0.00178459
C 5.73941953 6.61322615 31.89900349 -0.00014997 0.00322657 0.00043695
C 1.42730576 12.83058239 31.98717595 0.00162469 0.00139064 -0.00557408
C 7.06411017 6.59053619 23.75488657 -0.00235789 -0.00821024 0.00316646
C 5.73138693 0.29092402 25.96537816 -0.00339375 0.00592891 0.00430421
C 2.91293708 5.95772841 17.82579694 0.00062557 0.00471738 0.00458340
C 7.12211482 11.69012698 0.36249714 -0.00212452 0.00123095 0.00361477
C 1.19588147 7.48552766 25.20898934 0.00916994 0.00285310 0.00088866
C 2.91372333 0.77426721 24.50274378 0.00306855 0.00082248 -0.00338050
C 5.57851809 5.28440733 16.38672762 0.00571191 -0.00662233 0.00328064
C 1.48025142 0.90415378 16.25030027 0.00185427 0.00000005 -0.00290006
C 6.72992827 5.35430153 24.53396408 0.00587200 0.00294369 -0.00160425
C 5.73793628 11.93077903 24.90471410 -0.00021989 -0.00290940 0.00354380