1920
Time=29000.00000000 pbc="T T T" Lattice="25.48895737 0.00000000 0.00000000 0.00000000 25.80710287 0.00000000 0.00000000 0.00000000 33.01791743" energy=-12243.73648119 virial="-52.53322762 -15.60358748 -7.99390456 -15.60358748 -74.39423695 -29.23711941 -7.99390456 -29.23711941 -47.53961866" stress="-0.00020273 -0.00070241 -0.00039676 -0.00070241 -0.00120432 -0.00130598 -0.00039676 -0.00130598 0.00013358" Properties=species:S:1:pos:R:3:vel:R:3
O 5.82705355 2.40299044 7.21463809 -0.00308933 0.00427567 -0.00403546
O 2.77254345 4.03007952 15.32298878 -0.00788678 -0.00819439 0.00205435
O 1.76456259 10.20325379 1.28481914 0.00338382 -0.01236227 -0.00351499
O 7.28941772 8.85915591 9.74987191 0.00131111 0.00271973 0.00957182
O 2.60235959 10.02069848 9.88437720 -0.00246390 -0.00328315 -0.00101849
O 5.36886638 9.27156499 1.85354577 0.00201712 -0.00304053 0.00097219
O 6.31562459 2.57411501 15.70000229 0.00790850 -0.00143229 -0.00334969
O 1.92972579 3.32527229 7.02562257 0.00126698 -0.00371387 0.00241684
O 5.70136294 1.03201051 17.55604969 -0.00427536 0.00599287 -0.00090894
O 2.23942172 5.15975787 9.01689085 -0.00331796 0.00329699 0.00492919
O 2.69699059 11.16756265 7.54441098 0.00114600 -0.00124497 0.00585581
O 6.19307167 7.89810101 32.53999631 0.00340253 0.00373931 0.00110012
O 1.87762789 11.79582626 32.29100018 0.00204412 0.00178444 -0.00156492
O 6.44223950 7.46571550 7.92334153 0.00520726 0.00088084 -0.00001495
O 6.70576642 1.54607808 9.38866950 0.00101373 0.00291299 -0.00112168
O 1.89724213 5.27801198 17.61493080 -0.00335746 -0.00396375 0.00476227
O 6.07890029 2.76536238 23.65946940 0.00336747 -0.00287065 0.00095594
O 2.63762220 3.92132102 31.89590932 0.00131345 0.00155129 -0.00679418
O 2.01172390 9.86100574 18.11252270 -0.00147890 -0.00262799 0.00906031
O 7.00251161 8.95386208 26.14185992 -0.00017136 0.00417538 0.00430532
O 3.08799937 10.28261045 26.31843587 -0.00960773 0.00272419 0.00729499
O 5.98939677 9.27848100 17.79037863 0.00287112 0.00070614 -0.00043206
O 6.79713778 2.82199200 31.69609268 -0.00014346 -0.00006519 0.00511830
O 1.98380337 3.66927009 23.75955760 0.00227755 -0.00305261 -0.00296739
O 6.10079800 1.39306804 0.93488130 -0.00330865 -0.00267780 -0.00209751
O 1.86617482 5.10676314 25.85295202 -0.00497877 0.00295299 -0.00073763
O 2.46975156 11.68604049 24.23364611 -0.00439892 -0.00445229 0.00440513
O 6.43824454 7.67290835 15.92668246 0.00032827 0.00101289 -0.00270630
O 1.80437865 11.49938602 16.15354032 -0.00226244 -0.00116597 0.00241279
O 6.40894872 7.71598531 23.95160042 -0.00698781 -0.00469548 -0.00205555
O 6.79255103 1.17314544 25.53672425 -0.00623543 -0.00133952 0.00184532
O 1.97186984 5.32664535 0.84989958 -0.00613346 -0.00298751 -0.00409250
O 6.16381034 15.69219290 7.34666986 -0.00559585 -0.00117310 -0.00288760
O 2.83942519 16.65413995 14.91747795 -0.00159255 0.00477068 0.00093506
O 1.51908570 23.09247824 1.45307515 -0.00417840 0.00154326 0.00498835
O 6.90969973 22.06678288 9.22522997 -0.00429345 -0.00351737 0.00168754
O 2.43517345 22.48011052 9.74156989 -0.00185891 -0.00402793 0.00185565
O 6.06800264 22.22614384 1.11112076 -0.00120433 -0.00388213 0.00674564
O 7.33315382 15.49198178 15.50050146 -0.00601041 -0.00265686 -0.00187369
O 1.75122402 16.02917253 6.74128210 0.00200118 -0.00018628 0.00491325
O 6.12098854 14.55499255 17.52071520 -0.00080649 0.00762389 0.00321029
O 2.16741629 17.92672649 8.78936574 -0.00047999 0.01143600 0.00448432
O 2.65620293 24.24365396 7.61208582 0.00492508 0.00066443 -0.00538840
O 6.58385533 20.74174657 32.01118355 0.00313138 0.00189695 0.00217187
O 2.12956517 24.79832219 32.38055217 -0.00582765 0.00242319 -0.00000218
O 6.21093325 20.76814673 7.20762540 -0.00701055 0.00166785 -0.00054166
O 6.65173297 14.11163328 9.42083933 -0.00547707 0.00593504 0.00518721
O 2.50957089 17.87270476 17.09016179 -0.00305995 0.00689179 -0.00197277
O 5.94889988 15.68795048 23.95560666 -0.00358212 -0.00215434 -0.00086538
O 2.72301523 17.02454907 31.55734083 0.00134112 0.00681081 0.00332361
O 2.03020757 23.13911620 17.59954300 0.00345158 -0.00067287 -0.00394708
O 6.84849959 22.05779228 25.62877739 -0.00394402 -0.00035746 -0.00452833
O 2.57578363 23.17204126 26.32731560 0.00028246 0.00289692 0.00353355
O 5.67282956 22.01406062 17.65803758 0.00084831 -0.00578978 0.00001074
O 7.15610968 15.39703678 31.94116463 -0.00880467 -0.00742654 0.00020284
O 1.47085544 16.46827070 23.24689794 -0.00637236 0.00103434 0.00132599
O 6.12708181 13.87921431 0.90123840 0.00317811 -0.00037427 0.00393321
O 1.71199554 18.19798655 25.24577575 0.00117554 0.00435231 0.00270738
O 2.49937551 24.33544119 24.01976250 0.00416893 -0.00571435 0.00349218
O 5.86835876 20.74729389 15.28767949 0.00245466 0.00211355 0.00625048
O 2.35333311 24.64777195 15.61229381 0.00712860 0.00196171 -0.00601264
O 5.85599759 20.67119290 23.69988467 -0.00207763 -0.00137585 0.00124571
O 6.34248630 14.10708591 25.85156728 0.00124795 0.00232333 0.00405151
O 2.07180434 18.36789364 0.56244232 -0.00316475 0.00122373 -0.00159372
O 14.27853780 2.69697619 6.95674451 0.00355793 -0.00116128 0.00141315
O 10.79343826 3.34983713 15.17370367 -0.00080765 0.00104896 0.00167240
O 10.01805181 9.91108344 1.45934792 0.00064003 -0.00683604 0.00218316
O 15.03433558 9.21227361 9.44071240 -0.00023561 -0.00142809 -0.00185343
O 11.52126894 10.38441725 9.77200233 0.00177406 0.00441857 0.00623858
O 14.01590912 9.11809236 1.37634053 -0.00188052 0.00907256 -0.00154600
O 15.37868820 3.19293759 15.02896720 -0.00102240 -0.00361890 0.00549657
O 10.41292331 3.80159245 7.12594650 0.00438402 -0.00601004 -0.00253753
O 15.16091639 1.62670385 17.17619343 0.00644355 -0.00911408 -0.00770365
O 11.10108989 5.31825145 8.99319377 0.00062066 0.00068334 -0.00511626
O 10.46502541 11.68743628 7.70849236 0.00202741 -0.00576903 -0.00495900
O 15.00426393 7.87682063 32.15359528 -0.00171089 0.00196135 -0.00528521
O 10.22793601 11.48299086 32.22472891 0.00194866 0.00274200 -0.00423007
O 14.91161240 7.53831590 7.31092145 -0.01154138 -0.00288345 0.00573989
O 14.99632621 1.34122942 8.95525831 -0.00138546 -0.00221782 0.00651749
O 10.44500540 4.92797954 17.18086322 -0.00679769 -0.00320999 -0.00355686
O 14.08120043 2.66680799 23.51816189 -0.00179729 0.00450425 -0.00239777
O 10.72855567 3.45954441 31.60382918 0.00262419 -0.00329686 -0.00700778
O 10.60293483 10.08040157 17.87250666 -0.00063525 -0.00004944 -0.00019764
O 15.14840094 9.32789232 25.88355329 -0.00486821 0.00340534 0.00342761
O 11.27690981 9.94631798 26.32277380 0.00354857 0.00579363 -0.00307023
O 14.22683023 9.32416782 17.52449882 0.00001263 -0.00347825 -0.00487199
O 15.72978025 2.91790830 31.67236707 0.01189754 -0.00150345 0.00134325
O 10.78282925 3.85737784 23.38260724 -0.00039235 0.00058930 -0.00381839
O 15.61038490 1.47933591 0.80437831 0.00449774 -0.00314956 -0.00612406
O 10.41936093 5.27192005 25.42529678 0.00412948 0.00587085 -0.00161501
O 11.27889559 11.42850034 24.39604959 0.00183989 0.00087898 -0.00637166
O 14.88041041 7.60828319 15.63595792 0.00272625 0.00667434 0.00454264
O 10.67575363 11.74688470 15.83491805 -0.00116662 0.00432044 0.00807912
O 15.20752859 8.10692221 23.68739096 0.00073271 0.00304399 0.00445393
O 14.69409761 1.11584228 25.76836938 -0.00115452 -0.00349812 -0.00173498
O 10.95131598 4.98044457 0.78007769 0.00139142 -0.00954404 -0.00370115
O 14.15879066 15.49184831 6.92008377 0.00079675 -0.00672047 -0.00162945
O 11.15789708 16.66468185 14.85925708 -0.00416651 -0.00018986 -0.00379109
O 10.09845924 23.16030001 1.47173432 -0.00255216 -0.00860363 -0.00282847
O 15.61970484 21.90379462 9.00659935 -0.00068114 0.00067810 -0.00215891
O 11.40108383 22.80294589 9.89620572 0.00574462 0.00359041 -0.00305832
O 14.40938646 22.09002806 0.61884254 0.00795437 0.00185700 -0.00386714
O 15.58025816 15.35316163 15.46143753 0.00668232 0.00313228 -0.00256591
O 9.56863846 16.72144700 6.86051067 0.00040063 -0.00112502 -0.00856268
O 14.79018022 14.20100894 17.65364620 -0.00212225 0.00142675 -0.00725421
O 10.62108426 18.29435185 8.85693311 -0.00517314 0.00203139 0.00551234
O 10.89233070 24.29160038 7.55907607 -0.00640134 -0.00073223 0.00900284
O 14.47747111 20.39438573 31.63904616 -0.00249316 -0.00138470 0.00030956
O 10.35597634 24.25453528 32.26211619 -0.00131225 -0.00318516 -0.00080412
O 15.07459644 20.70189691 6.80970263 0.00836505 0.00116032 0.00499433
O 14.80964855 14.19025441 9.29060552 -0.00139491 0.00038399 -0.00500860
O 10.69096506 18.24742658 17.13415882 0.00293359 -0.00416411 -0.00175422
O 14.26048451 16.04207340 23.38574210 0.00131641 -0.00448261 0.00064178
O 10.99884086 16.13982643 31.56718098 -0.00053293 0.00300710 0.00510578
O 10.02613923 23.32881714 17.70142628 0.00634405 -0.00345472 0.00474414
O 15.77834947 22.00782357 25.64323914 -0.00025923 -0.00846478 -0.00108231
O 11.39979036 23.01943384 26.11238260 0.00123917 0.00358832 0.00805613
O 14.08812653 22.08924728 17.14548561 -0.00265892 0.00213728 -0.00144523
O 15.50472082 15.07325463 31.94108090 0.00228877 0.00201773 0.00345387
O 10.18759290 16.56941945 23.16791384 0.00045988 0.00261391 -0.00253069
O 14.59610030 14.05942978 0.91961229 0.00153272 0.00263023 -0.00295561
O 10.55903812 17.91826233 25.33047256 -0.00174918 0.00047235 0.00169361
O 10.75904641 24.63378690 23.98570623 -0.00187566 0.01041973 0.00501007
O 14.04278942 20.43323500 15.15854636 -0.00375243 0.00019532 0.00453492
O 10.59350167 24.80077791 15.73924693 -0.00389323 -0.00643533 -0.00170405
O 15.25884488 21.00441311 23.39870864 -0.00241231 0.00512889 0.00317825
O 14.71011224 14.66993881 25.51260166 0.00092044 0.00680824 0.01263910
O 10.77682682 17.82303040 0.65800379 0.00570299 -0.00207551 -0.00261964
O 22.86549863 2.43178682 7.37617867 0.00574321 0.00382613 0.00463239
O 19.72321566 3.86752375 15.11889255 0.00376301 0.00382606 0.00587521
O 18.84829098 9.98237738 1.54288452 -0.00465874 0.00452971 -0.00387357
O 24.00686805 9.22611702 9.45480014 -0.00175505 -0.00493928 -0.00283676
O 19.18253258 9.73708791 10.01707256 0.00541127 -0.00220155 -0.00320716
O 22.95721831 8.89865728 1.09736675 -0.00296583 0.00534928 -0.00692573
O 23.29049611 2.91555284 15.23980447 -0.00120333 0.00363988 -0.00042058
O 18.65089037 3.31679872 6.48196747 -0.00413795 0.00094431 -0.00502637
O 23.66570131 1.39705669 17.50910656 -0.00232256 -0.00404069 0.00290116
O 19.19945371 4.88881470 8.60683461 -0.00439528 -0.00562496 -0.00693885
O 19.34969976 11.37464228 7.83710152 0.00958397 -0.00143200 0.00381899
O 23.51823825 7.59249320 32.19341641 0.00362021 -0.00120928 0.00130616
O 18.97277755 11.56083889 32.58601984 -0.00248896 0.00171937 0.00031353
O 23.47367647 7.76528105 7.35464777 0.00173627 -0.00378417 0.00228427
O 23.73306702 0.74193241 9.08829566 -0.00308912 0.00115617 -0.00040556
O 19.12813486 5.32930203 17.09336274 -0.00128645 0.00426703 -0.00296060
O 22.58954132 2.88367576 23.43001879 0.00648337 0.00074067 0.00039963
O 19.27231438 3.46997085 31.46142832 0.00281795 -0.00466720 0.00288120
O 18.67500350 9.76667739 18.27752251 0.00549718 -0.00207780 -0.00078215
O 24.07881479 8.97403494 26.24805863 0.00335521 -0.00340335 -0.00238588
O 19.75808087 10.44676714 26.29938959 -0.00300945 -0.00757330 0.00157730
O 22.74210603 9.12751230 17.75779382 0.00065606 -0.00019002 0.00908053
O 24.17879245 2.67102184 31.74856409 0.00161542 0.00349290 0.00637263
O 18.69465982 3.97096380 23.21264702 0.00347213 0.01133569 0.00184948
O 23.64948172 1.37525995 0.99529466 0.00236367 0.00054394 -0.00038693
O 18.96891194 5.44718730 25.45543689 0.00306491 0.00130796 -0.00462003
O 19.38807081 11.88876735 24.25444549 -0.00370481 0.00308137 0.00366679
O 23.29443008 7.92967943 15.67437772 0.00221388 0.00288283 0.00841691
O 18.52399060 11.38064336 16.07776073 0.00208025 0.00144407 0.00548838
O 23.38081971 7.77322803 23.89787840 -0.00200625 0.00132988 -0.00002153
O 22.96549986 1.70287426 25.68892218 -0.00371879 -0.00121160 0.00158607
O 19.52731206 5.24469312 0.49206195 -0.00210890 0.00520434 0.00501745
O 22.78590629 15.28461030 7.45790631 0.00017607 0.00455364 0.00523682
O 19.24407318 16.47583242 15.09391203 -0.00377069 0.00163974 -0.00127551
O 18.13930615 23.31449816 1.48589876 -0.00125891 -0.00232121 -0.00026418
O 24.15309149 21.35125792 9.33568726 0.00669455 -0.00348741 -0.00602469
O 19.67760759 22.56176526 9.49837258 -0.00385262 -0.00247699 -0.00409628
O 22.64064028 22.11677346 1.00654880 0.00120961 0.00041809 -0.00103210
O 23.81830739 15.47000006 15.58315864 -0.00057044 -0.00372948 0.00096030
O 18.50092714 16.15582361 6.64723163 -0.00408756 0.00587233 -0.00806780
O 23.05543609 14.41897445 17.80255349 0.00451124 -0.00175277 0.00219059
O 18.45238096 17.53165030 8.91241001 -0.00994167 -0.00246655 0.00833506
O 19.66105214 24.35500185 7.47794125 -0.00268388 -0.00166576 -0.00202784
O 23.32035737 20.53822689 31.98770522 0.00295363 0.00286591 -0.00931218
O 19.06837097 24.30994311 32.24153435 0.00676104 0.00511337 -0.00227978
O 23.52905358 20.33955378 7.12712825 -0.00235236 0.00581642 -0.00112508
O 23.35814579 13.96044264 9.51900866 0.00290943 0.00511207 0.00796557
O 19.36942065 18.35948186 17.09375839 -0.00068684 0.00002870 -0.00267171
O 23.04801584 15.92645678 23.92831861 0.00104585 -0.00952274 -0.00195431
O 19.74584216 16.25143182 31.40953230 0.00291015 -0.00161822 0.00519530
O 18.19575889 23.48107032 17.84254998 -0.00064771 0.00094732 0.00566516
O 23.81676165 22.42576221 25.83364533 0.00686826 0.00337459 0.00185987
O 19.55475321 23.16010037 25.90262210 0.00365038 0.00095640 -0.00368270
O 23.01525527 21.99860859 17.57292147 0.00046779 0.00119927 0.00703123
O 24.27683353 15.65156321 31.88201692 -0.00016033 -0.00365284 0.00193314
O 18.61825488 16.31556190 23.09125400 -0.00024018 0.00004475 -0.00101658
O 23.68961284 14.33578565 1.05973740 0.00633988 -0.00761902 -0.00387411
O 18.84604234 17.97907914 25.31369203 -0.00385440 0.00250993 -0.00307595
O 19.05658350 24.56917380 23.75563243 0.00421862 0.00405104 0.00570758
O 23.16732224 20.61762696 15.46712622 -0.00673338 0.00472978 -0.00495336
O 18.87784990 24.58057971 15.58703275 0.00297315 -0.00089341 -0.00375386
O 23.31212330 20.82761665 23.81798472 -0.00134469 -0.00594692 0.00692909
O 22.92974955 14.32187518 25.99098059 0.00398301 -0.00141463 -0.00172497
O 19.77550827 17.86608023 0.69033520 0.00397376 0.00673168 0.00058576
N 7.09831908 12.78050312 2.62219504 -0.00275690 0.00363503 0.00332402
N 1.18590926 6.45406810 10.67509465 0.00164875 0.00230526 -0.00588746
N 3.31431855 25.74349759 5.99655791 0.00242413 -0.00233543 0.01113111
N 5.19235603 6.63253877 14.30881983 -0.00304779 -0.00373673 0.01202504
N 0.84486331 25.54849964 14.13428148 -0.00413527 -0.00290809 -0.00571951
N 7.47743496 6.45331941 6.03371190 0.00326226 0.00206150 -0.00091923
N 5.27753870 13.13266231 10.94852769 0.00430539 0.00677195 -0.00460162
N 3.24623359 6.22338676 2.39340396 -0.00331995 0.00378575 -0.00549192
N 7.47338808 13.48100516 19.09245184 0.00517037 -0.00076308 0.00106810
N 0.86599956 6.41735831 27.35903534 -0.00067542 -0.00632634 -0.00409562
N 3.54327808 25.61656559 22.39478935 -0.00289764 0.00268420 -0.00025105
N 5.03699498 6.76900114 30.84442130 0.00006895 -0.00907757 -0.00187364
N 0.96151585 0.24089768 30.82903958 0.00479925 0.00085365 0.00239538
N 7.62465642 6.70495350 22.25518012 0.00130407 -0.00025326 -0.00237973
N 5.15224841 13.05414392 27.47236862 0.00351845 0.00839218 -0.01041661
N 3.21063836 6.41984096 19.06084334 0.00744030 -0.00397000 0.00104389
N 7.60143864 0.30694090 2.35484243 -0.00338100 -0.00087593 0.00234772
N 0.98972934 19.09925507 10.31408829 0.00485961 0.00360380 0.00393700
N 3.45669881 12.64346198 5.95264519 -0.00620641 0.00097217 0.00489053
N 5.14590701 19.24766956 13.67989992 0.00263680 -0.00377260 0.00069899
N 0.98191172 12.69299384 14.45181590 0.00213361 0.00193166 -0.00495362
N 7.33387474 19.48264446 5.73968904 0.00134913 0.00075056 -0.00359138
N 5.44162641 0.15187082 10.70239051 -0.00738576 -0.00258382 -0.00305641
N 3.39911364 19.04251648 2.37618995 0.00476326 0.00327849 -0.00203123
N 7.37175971 0.18372000 18.82821295 0.00243748 -0.00098945 -0.00625888
N 0.95535502 19.50373351 27.01758858 -0.00398275 -0.00094696 -0.00105949
N 3.08879458 12.99676644 22.55628429 -0.00240607 0.00377599 -0.00362500
N 5.36563665 19.55798289 30.42570784 -0.00196417 -0.00349652 -0.00119005
N 1.00071419 12.94559450 30.51294517 0.00272071 0.00130346 -0.00762401
N 7.47968382 19.76927745 22.33845174 0.00041926 0.00646206 0.00323845
N 5.57269352 25.76580863 27.09352142 -0.00240155 0.00556027 0.00018583
N 3.18778443 19.31075182 18.79887415 -0.00011727 -0.00038459 -0.00701421
N 16.01612024 12.83016922 2.28277767 -0.00781138 -0.00094587 -0.00091410
N 9.87368894 6.16382631 10.64840956 -0.00269664 -0.00249810 0.00434031
N 12.05009123 25.53569129 5.98769074 0.00358612 0.00188577 -0.00126246
N 13.91858331 6.21466107 14.13347031 0.00059081 0.00605813 0.00446493
N 9.11817239 25.54479744 14.15595931 -0.00474683 0.00056462 0.00229437
N 16.12552160 6.56816508 5.63345619 0.00745285 -0.00642129 -0.00495224
N 13.54878158 13.25431590 10.84316512 0.00102957 -0.00259981 -0.00594569
N 11.67619990 6.42402762 2.49156852 0.00558407 0.00093202 -0.00339525
N 15.98129425 12.94800016 19.15826682 -0.00531191 -0.00475715 -0.00015441
N 9.72394288 6.63376306 27.13700493 0.00176248 0.00770973 0.00237753
N 11.73850687 0.04769207 22.33116013 -0.00011189 0.00442561 0.00206713
N 13.45702057 6.97522052 30.68890151 0.00304296 -0.00066423 -0.00209767
N 9.45909781 25.60244934 30.60144764 0.00472921 -0.00034036 -0.00833124
N 15.94004184 6.77376849 22.07587201 0.00087682 -0.00313751 -0.00083199
N 13.61854638 13.33237844 27.07271017 0.00565568 -0.00054031 -0.00463444
N 11.48409318 6.37612936 18.54899669 0.00169159 0.00621035 -0.00604972
N 16.17109698 25.79504779 2.52289052 0.00647524 -0.00001329 0.00160246
N 9.50213282 19.46139507 10.48927376 0.00520363 -0.00041550 0.00139568
N 11.58936833 12.82218085 5.98972522 -0.00286702 -0.00085821 0.00090503
N 13.62575075 19.23007095 13.28211747 -0.00099510 -0.00101677 0.00794500
N 9.23458056 12.72207859 14.35152997 0.00071990 -0.00067258 -0.00229395
N 15.89004052 19.30396635 5.15157918 0.00050057 0.00272336 -0.00283265
N 13.92917529 0.12706478 10.67643794 0.00590844 -0.00946152 0.00210005
N 11.64024019 19.22776523 2.29895046 -0.00133849 0.00037969 -0.00275254
N 16.14058858 0.44470115 18.78271790 0.00063774 -0.00173710 -0.00057538
N 9.39398529 19.07587801 26.93780567 -0.00190981 0.00069574 -0.00569681
N 11.99701727 12.68646674 22.55789751 -0.00120983 0.00370281 0.00465526
N 13.51592950 19.28521233 29.85921438 0.00278573 0.00018480 -0.00083191
N 9.50618141 12.95787775 30.62469166 0.00071907 -0.00018686 0.00195513
N 15.99305345 19.70081913 21.76367656 -0.00452127 -0.00442973 0.00029581
N 13.90591884 25.77790720 27.60548694 0.00301562 -0.00374000 -0.00045591
N 11.78927058 19.48388906 18.73420475 0.00804195 0.00130580 0.00299537
N 24.39176391 12.94412278 2.76504929 -0.00808127 -0.00142846 0.00167461
N 18.22888905 6.20796277 10.25457070 0.00354857 -0.00287871 0.00274479
N 20.44940339 25.72906108 5.83864405 -0.00310709 -0.00211961 -0.01120584
N 22.19772453 6.71495711 13.98191639 0.00045314 0.00254545 0.00758421
N 17.97833938 25.68063459 13.75064679 -0.00739654 -0.00385455 0.00167048
N 24.16796224 6.30649189 5.72615180 0.00450309 -0.00547735 -0.00180388
N 22.17415885 12.77028530 11.03123973 -0.00289197 -0.00014395 0.01164345
N 19.74412610 6.77107532 2.19950286 -0.00619852 0.00650334 -0.00264743
N 24.46620681 13.36163471 19.25363401 0.00127536 -0.00022175 -0.00104729
N 17.92949972 6.68902110 27.05412108 -0.00266300 0.00220555 0.00655516
N 20.47991278 25.70509918 22.27085564 0.00089421 -0.00138160 -0.00128792
N 21.96011400 6.67952320 30.73970618 0.00199999 0.00360618 0.00121900
N 17.97337591 25.55817246 30.67732556 -0.00598792 0.00531515 0.00031430
N 24.52677361 6.56292534 22.31278170 0.00440815 0.00284338 -0.00172053
N 22.04164499 12.94170471 27.54416955 -0.00436558 0.00287379 0.00288145
N 20.41671254 6.45623136 18.66328964 -0.00842935 0.00564183 -0.00532424
N 24.54444657 0.08965156 2.64398594 -0.00335220 -0.00239220 -0.00576209
N 17.93839945 19.16052952 10.35667505 0.00331678 0.00149514 -0.00779507
N 20.12900351 12.77756526 6.19232586 -0.00267136 -0.00073776 0.00434560
N 21.92599518 19.39731082 13.97460505 -0.00032590 -0.00076053 -0.00477059
N 18.32165757 12.95547175 14.45858834 -0.00276695 -0.00166326 0.00218073
N 24.72011186 19.28752041 5.41926792 0.00282354 -0.00586444 -0.00364230
N 22.54039725 25.53497073 10.64075041 -0.00190184 -0.00101211 -0.00470293
N 20.07607547 19.34148199 2.38898367 -0.00306603 0.00124377 -0.00247152
N 24.79679396 0.36986397 19.15203654 -0.00020951 0.00581068 0.00431420
N 17.94663801 19.31084706 27.01778983 -0.00707016 0.00318400 -0.00710575
N 20.32474531 13.02631836 22.48829815 -0.00045181 -0.00241771 0.00370851
N 21.87733976 19.74034639 30.32973932 0.01035832 -0.00632049 0.00170931
N 17.93404532 12.86976848 31.07547034 -0.00000858 -0.00340002 0.00183110
N 24.66255821 19.70900552 22.38511539 -0.00162569 -0.00289756 -0.00024541
N 22.22803192 0.28161487 27.26085695 -0.00271870 -0.00071557 0.00119596
N 20.18711364 19.57864443 18.88269768 -0.00785732 -0.00075897 -0.00518013
C 7.76351502 0.42327370 4.81156772 -0.00583563 -0.00526044 0.00363565
C 0.79973617 6.11484368 13.04924331 0.00121395 0.00655902 -0.00299230
C 3.19951662 12.66741543 3.56661099 0.00105913 -0.00272459 0.00037386
C 5.40933201 6.81545473 11.99813032 -0.00129751 -0.00305808 0.00657034
C 0.83932300 12.26982214 12.11549727 -0.00405509 0.00124032 -0.00315073
C 7.43346388 6.92112281 3.67067441 -0.00065307 -0.00385309 -0.00196212
C 5.15525407 0.19570413 13.07446646 -0.00378542 -0.00010290 -0.00407780
C 3.23047480 5.77740738 4.67992264 -0.00015929 0.00316578 0.00213274
C 7.43106772 0.99121295 5.98442605 0.00739878 0.00024031 -0.00365740
C 1.33326394 5.64045522 14.24146947 0.00160902 0.00003269 -0.00246587
C 2.81939006 12.04302420 2.38507419 0.00442805 -0.00484162 -0.00268317
C 5.84308731 7.31746874 10.85165364 -0.00041498 0.00673738 -0.00374515
C 1.23054257 11.54791398 10.96570393 -0.00504775 0.00463732 0.00218514
C 6.97428760 7.71970958 2.64834439 0.00517163 -0.00646861 0.00457749
C 5.24774276 0.82168426 14.35389438 0.00287466 -0.00658503 0.00072238
C 3.07004486 5.16627247 5.88391716 -0.00418497 -0.00152087 -0.00278020
C 6.42922836 2.04660591 6.03073995 -0.00029433 -0.00175789 -0.00534518
C 2.16077012 4.48113756 14.22316688 0.00760997 0.00069411 -0.00649656
C 2.21217308 10.71166025 2.40116553 -0.00501055 -0.00303156 0.00095890
C 6.73070969 8.42214800 10.86240775 0.00093419 0.00127685 -0.00539719
C 2.08885662 10.50625211 11.03593237 -0.00626826 -0.01355192 0.00698957
C 6.08983450 8.77978734 2.88943970 -0.00286502 -0.00468468 0.00139007
C 5.98513830 2.01472928 14.52471021 -0.00210353 -0.00085807 -0.00722343
C 2.25731483 3.98617591 5.88975017 0.00271879 -0.00201797 -0.00217772
C 6.22062766 2.68134743 4.74943925 -0.00366270 0.00338024 -0.00171683
C 2.44600415 3.89845944 13.01364207 0.00118078 0.00815462 0.00491185
C 2.05022642 10.09106373 3.64169288 -0.00137432 -0.00129873 0.00178951
C 6.96064592 9.02798963 12.15946739 0.00034548 0.00045634 0.00360010
C 2.33167557 9.96751550 12.25262377 -0.00156745 -0.00410078 -0.00244383
C 5.84900841 9.16747843 4.20683546 0.00757470 0.00814002 -0.00313211
C 6.48703212 2.57233263 13.33417639 0.00655612 -0.00440821 -0.00504385
C 1.94461599 3.45479070 4.63470851 0.00452776 0.00151802 0.00400537
C 6.64071880 2.15616565 3.56611466 0.00106401 -0.00129676 -0.00653100
C 2.03904736 4.41777042 11.77628651 0.00397317 -0.00101884 -0.00317762
C 2.58758697 10.63934858 4.79169510 0.00421217 0.00483182 0.00228535
C 6.47940620 8.50325575 13.34424028 -0.00458268 0.00130007 -0.00031511
C 1.99343941 10.63189628 13.42903720 -0.00575514 0.00601727 -0.00119843
C 6.39293471 8.46067777 5.29909153 -0.00424002 0.00079913 -0.00991630
C 6.19810059 2.05534022 12.05781312 -0.00192902 0.00009032 -0.00087449
C 2.12373721 4.15501795 3.40898722 -0.00242914 -0.00279990 0.00108127
C 7.30435329 0.91591855 3.57756934 -0.00635072 -0.00477533 0.00588065
C 1.33923390 5.65742375 11.80580352 0.00069713 0.00269124 0.00008941
C 3.11184608 11.94938633 4.75054093 -0.00648416 -0.00166918 0.00030905
C 5.67679020 7.37985728 13.25911995 -0.00979544 0.00233979 0.00472606
C 1.32474846 11.91030852 13.33304165 0.00296896 0.00515934 0.00204424
C 7.15208806 7.30203596 4.97737863 -0.00424438 -0.01208899 -0.00596049
C 5.55974220 0.82835594 11.93188835 0.00179630 -0.00925029 0.00458624
C 2.80255246 5.36767939 3.42524819 -0.00675016 0.00366936 0.00145263
C 6.82659753 0.46016474 1.20613912 0.00348178 -0.00194250 0.00420600
C 1.81682395 6.21752076 9.43587447 0.00140384 0.00631984 0.00103771
C 3.01043992 12.32218598 7.16537434 -0.00335454 -0.00109339 0.00095912
C 5.77991437 6.72273061 15.55758005 0.00341769 -0.00407835 -0.00181458
C 1.51077958 12.58303521 15.72043207 -0.00434968 0.00459576 0.00781255
C 7.12021309 6.54761807 7.39252798 0.00383789 -0.00172686 0.00468221
C 6.15332320 0.43338537 9.57249685 0.00787937 0.00024634 -0.00075147
C 2.61225039 6.26758314 1.23752512 0.00534544 0.00312988 0.00192955
C 6.97211582 12.34110747 17.08734867 0.00145258 -0.00164734 -0.00642376
C 1.92814209 7.51495560 8.55127535 -0.00173077 0.00384667 0.00002737
C 2.89821642 0.77858396 8.17380249 0.00291269 0.00283643 0.00752339
C 5.71422933 5.55787709 32.81350289 -0.00477035 -0.00171729 0.00189007
C 1.29450587 1.07431129 0.07036087 0.00159919 0.01133038 -0.00329163
C 7.47931222 5.38565046 8.22095198 -0.00670644 0.00323170 0.00012603
C 5.98320913 11.76502029 9.13110634 0.00095435 -0.00418603 -0.00194285
C 2.84983553 7.29302815 16.91998156 0.00076021 0.00527980 0.00498472
C 7.55577918 0.44536897 21.19167901 0.00677703 0.00685319 -0.00014545
C 0.80515463 6.16845762 29.76645513 -0.00652986 0.00073423 0.00076786
C 3.30808291 12.54317036 20.23031661 -0.00352505 0.00176945 0.00899803
C 5.23103179 6.76045152 28.43382521 0.00255597 0.00873420 0.00276590
C 0.91092472 12.36090327 28.27379149 0.00292359 -0.00890718 -0.00027632
C 7.54810143 6.90153036 19.88097750 -0.00321695 0.00279396 -0.00975283
C 5.26119024 0.36592159 29.50216070 -0.00556329 0.00216867 0.00620656
C 3.46417618 6.14050543 21.46996283 -0.00446858 0.00339415 0.00522373
C 7.25299439 1.08768455 22.42174179 -0.00012040 -0.00230298 0.00416351
C 1.21800552 5.47665177 30.88958721 0.00142208 0.00446712 0.00088789
C 2.87431478 11.94102484 19.06965205 -0.01112800 -0.00495915 0.00304569
C 5.75757239 7.24435343 27.23944322 0.00002686 0.00359655 -0.00135120
C 1.33679241 11.60248499 27.18062365 -0.00386751 0.00041649 0.00446957
C 7.04285180 7.47380278 18.77234667 -0.01199710 0.00256611 -0.00625172
C 5.43652459 1.12667356 30.64284889 -0.00229118 -0.00106216 0.00068090
C 3.15488121 5.48963784 22.66665819 0.00386015 0.00030045 -0.00158240
C 6.37109233 2.20418378 22.46673013 -0.01131168 -0.00660748 -0.00404382
C 2.11205232 4.38239245 30.80561232 -0.00684317 -0.00423163 0.00168841
C 2.21594709 10.64592223 19.21256468 -0.00316720 -0.00653503 -0.00196305
C 6.36760260 8.51260852 27.23272118 0.00552023 0.00754621 -0.00042648
C 2.34714756 10.62364474 27.38235930 0.00444421 -0.00101012 -0.00343956
C 6.36271746 8.70868552 18.91240986 0.00447901 -0.00029778 -0.00271838
C 6.34460568 2.26308341 30.54126085 -0.00066302 0.00526267 -0.00414731
C 2.29731653 4.34358047 22.63883958 -0.00342352 0.00476200 -0.00212564
C 6.10978802 2.80315906 21.23470775 0.00531032 0.00209973 -0.00076681
C 2.30374929 3.81338497 29.53851455 -0.00457186 0.00337765 0.00025484
C 1.80312168 10.23371054 20.43417678 -0.00519348 -0.00027221 -0.00951414
C 6.56222118 9.15403928 28.42295720 -0.00996801 -0.00108493 0.00105142
C 2.42390671 10.11742665 28.67434770 0.00182665 -0.00284966 -0.00111539
C 6.20616418 9.40943745 20.17383014 0.00551493 -0.00059537 0.00718167
C 6.63740064 2.77010342 29.28779532 -0.00240077 0.00477688 -0.00154520
C 2.08799797 3.74332205 21.41263139 -0.00377830 0.00998021 -0.00800974
C 6.32206184 2.17543000 20.02141268 0.00263051 -0.00336545 0.00453939
C 1.94879940 4.50865084 28.42215722 0.00104469 0.00065653 0.00051809
C 1.98321503 11.03933986 21.52405040 -0.00697502 -0.00604873 -0.00416578
C 6.33753172 8.52869348 29.65437713 0.00053160 -0.00151083 0.00058967
C 1.94369059 10.80122376 29.75093763 -0.00401533 -0.00143701 0.00219849
C 6.64102520 8.69993742 21.30352363 -0.00146438 0.00297660 0.00497646
C 6.39719138 2.05253676 28.14363730 -0.00245550 0.00593352 -0.00487431
C 2.40347047 4.33810310 20.22135581 0.01042878 0.00110562 -0.00745016
C 7.13856215 0.95967858 19.93542069 0.00063058 -0.00020721 -0.00482417
C 1.23904618 5.71329066 28.50550182 -0.00419012 -0.00023024 0.00022440
C 2.79912451 12.21462606 21.46871768 -0.00589081 -0.00026275 -0.00548905
C 5.58551888 7.31106504 29.68660873 0.00038497 0.00569371 0.00184506
C 1.23314762 12.02024899 29.57398760 -0.00476876 0.00238123 -0.00265501
C 7.25325206 7.46501249 21.15938574 -0.00017572 -0.00336057 -0.00099031
C 5.66215069 0.81983900 28.20758990 -0.00335437 0.00134223 0.00501974
C 3.00382270 5.60691299 20.24514477 -0.00401086 -0.00287978 0.00372010
C 6.59713013 0.15959125 17.73405989 -0.00481439 -0.00207830 0.00512869
C 1.53351159 6.22101185 26.16792519 0.00273429 0.00037898 -0.00035614
C 2.72469433 12.79713780 23.87674145 0.00187812 0.00184529 -0.00219204
C 5.68969061 6.82574495 32.07991896 0.00066190 -0.00255279 -0.00039963
C 1.49482829 12.82105963 31.80107673 0.00094905 0.00047091 0.00617318
C 7.07569833 6.76167871 23.49841079 0.00554550 -0.00696553 -0.00910835
C 6.12782688 0.16728311 25.90200664 0.00232277 0.00160090 -0.00121738
C 2.64155379 6.23876991 17.93021868 -0.00269972 -0.00780532 0.00442130
C 7.10194230 11.77732640 0.39999395 0.00581822 -0.00325359 -0.00369448
C 1.61045042 7.49160427 25.35577520 0.00481319 0.00409656 -0.00571254
C 3.27342144 0.77679721 24.51520129 -0.00048804 -0.00586395 -0.01151519
C 5.43192095 5.48647782 16.35571095 -0.00672238 -0.01294858 -0.00115657
C 1.45312531 0.95528991 16.26984970 0.00866814 0.00644055 -0.00235018
C 7.06392651 5.47956330 24.35154367 0.00846099 0.00543910 -0.00273313
C 5.46920884 12.04869518 25.27151156 -0.00586839 0.00021637 0.00007844