1920
Time=51000.00000004 pbc="T T T" Lattice="25.47444964 0.00000000 0.00000000 0.00000000 25.48804441 0.00000000 0.00000000 0.00000000 32.83070396" energy=-12246.86881042 virial="-52.93076738 19.35302165 -4.05183744 19.35302165 -62.31730581 46.98491964 -4.05183744 46.98491964 -25.24826128" stress="-0.00014622 0.00096462 -0.00022434 0.00096462 -0.00046688 0.00219680 -0.00022434 0.00219680 0.00109241" Properties=species:S:1:pos:R:3:vel:R:3
O 5.85321781 3.04467189 6.56768377 -0.00673011 -0.00013737 0.00201120
O 2.95770268 3.52856388 14.77993591 0.00180758 -0.00132317 0.00057891
O 1.66533519 10.15698911 1.70393697 -0.00359065 -0.00311664 0.00278930
O 6.77756113 9.21797880 9.31176863 0.00391120 -0.00038444 -0.00101867
O 2.59546323 10.24255098 9.75450101 0.00494681 -0.00256351 -0.00522709
O 6.02845256 9.19618051 1.25817703 0.00018230 -0.00397234 0.00106250
O 6.82565416 2.59192927 14.81194657 0.00654582 -0.00089682 -0.00019848
O 2.02080042 4.03021313 6.69673863 0.00270111 -0.00443784 0.00289883
O 6.44179755 0.91607422 16.75085382 -0.00564098 -0.00262714 0.00319171
O 2.58623433 5.59335839 8.73455325 0.00385394 0.00126771 0.00371101
O 2.09590406 11.79010834 7.77243841 -0.00134364 -0.00287174 0.00409773
O 6.42142031 7.48383427 32.22130708 0.00026565 -0.00433401 0.00725637
O 2.23718074 11.59510056 32.43288043 0.00500323 0.00134135 -0.00201510
O 6.00732197 7.62509885 7.32747052 0.00085310 0.00586333 0.00015785
O 6.49420128 1.25188448 8.84189642 0.00112128 -0.00164865 0.00423514
O 2.71547649 5.05135111 16.81660189 0.00180555 -0.00717729 -0.00725873
O 6.05585724 2.72324665 22.91104588 0.00258033 -0.00013705 0.00247998
O 3.04740522 3.66700370 31.41269161 -0.00019606 0.00342318 -0.00250088
O 1.72450603 9.40780095 18.30279559 -0.00198732 0.00062431 -0.00033870
O 6.72097459 9.10340662 25.86256917 -0.00589664 0.00285505 -0.00069003
O 2.22556882 9.97134370 26.27925181 -0.00104934 -0.00292254 -0.00251841
O 5.74543582 8.60437270 17.67370040 -0.00420070 0.00391931 -0.00144039
O 6.86760632 2.78546509 31.30507047 -0.00758407 -0.00448995 -0.00234631
O 1.62341411 3.49975688 22.92615877 -0.00170053 0.00024187 0.00235637
O 6.57870459 1.33866010 0.34618790 -0.00018489 0.00352082 0.00028730
O 1.90764747 4.96728656 25.13757705 -0.00308261 0.00253432 0.00531123
O 2.28082297 11.67088862 24.29260788 -0.00303469 0.00102118 0.00419366
O 6.66952799 7.58562439 15.49735465 0.00909478 0.00154201 -0.00724911
O 1.59684395 11.08774447 16.17835956 -0.00233184 0.00169771 0.00381544
O 6.03592641 7.37835220 23.80527951 0.00032024 -0.00311438 -0.00068518
O 5.97903974 1.26983383 25.05435021 0.01107645 -0.00186139 -0.00171589
O 2.09627059 5.23609565 0.44603609 0.00167181 -0.00041635 -0.00472003
O 5.84040981 15.40527293 7.18323954 0.00193365 0.01068633 -0.00264528
O 3.20463036 16.59480582 15.06219577 -0.00299450 -0.00893462 -0.00001454
O 1.38745270 23.08676510 1.11300329 0.00377570 -0.00375644 0.00324799
O 6.77761711 22.30347719 9.26292630 -0.00366325 -0.00413629 -0.00089594
O 2.51482257 23.23320354 9.35135374 -0.00233468 0.00352042 -0.00499662
O 5.32855711 21.88617582 0.90787696 -0.00142246 0.00020040 -0.00009938
O 6.71211691 15.18713504 15.41388832 -0.00217886 0.00104524 -0.00688421
O 1.47282060 16.02101756 6.96301286 -0.00298128 -0.00582054 0.00386369
O 6.36570185 13.69321370 17.45014565 0.00311928 -0.00102264 0.00407280
O 1.94067641 17.92122726 8.73620577 0.00253781 0.00125825 -0.00210163
O 1.97088697 24.61815080 7.21803876 -0.00069997 -0.00533453 0.00781625
O 5.89634172 20.34062832 31.85757554 0.00741846 0.00241470 -0.00218298
O 2.21445001 24.41869073 31.82584308 0.00167736 0.00621019 -0.00149254
O 6.13397168 20.66232769 7.11865341 -0.00733780 -0.00072950 -0.00151739
O 6.82874217 14.02943551 9.14147711 0.00240518 0.00394978 0.00446187
O 2.23846080 17.96958417 17.14416972 -0.00099813 -0.00038410 -0.00016031
O 5.82808603 15.25081185 23.62644402 -0.00252864 -0.00178572 -0.00161577
O 1.92932357 16.33877236 31.75715970 -0.00070558 0.00217408 -0.00007893
O 1.96598669 22.72200151 17.52749189 -0.00422406 -0.00228220 0.00351359
O 7.02025374 21.63693581 25.63299016 0.00057456 -0.00194680 0.00342786
O 2.71108852 22.75201085 25.73991104 0.00371095 -0.00144573 0.00063694
O 6.17831934 21.58847014 17.39155363 0.00336826 -0.00566339 0.00089050
O 6.97373744 15.29820664 31.94167000 -0.00502666 -0.00128133 0.00125286
O 1.46834090 16.49301145 23.26217379 -0.00490129 0.00119088 -0.00183737
O 5.96751552 13.99987028 0.99455265 -0.00020901 -0.00331405 -0.00345892
O 2.07228749 17.67737882 25.55614384 -0.00301379 0.00848628 0.00112400
O 2.53049883 24.16951658 23.62540251 -0.00173546 -0.00047927 0.00539566
O 7.00661997 20.40393354 15.37586754 -0.00376657 -0.00751747 0.00144947
O 2.21412302 24.34289285 15.57938244 -0.00115866 -0.00077786 -0.00026105
O 6.49975320 20.11648359 23.55643890 0.00095527 0.00064136 -0.00265887
O 6.27956366 13.99128742 25.81575096 -0.00034800 0.00396275 -0.00603146
O 2.00356948 18.00149752 0.89437594 -0.00067058 -0.00064088 -0.00696216
O 14.49018451 2.82187501 6.89192544 0.00187808 -0.00292981 0.00016765
O 10.92146942 3.94387528 15.21041352 0.00080215 0.00292350 0.00111912
O 10.31032637 10.28077994 1.80669716 -0.00045608 -0.00300943 0.00464742
O 15.93926468 9.34867331 10.04447664 -0.00482217 0.00345123 -0.00168485
O 11.02234086 9.57143282 10.17905576 0.00063378 0.00039747 -0.00125413
O 14.17166806 8.87680823 1.72565972 0.00142790 0.00450367 0.00158614
O 15.08530232 2.66851638 15.26265215 0.01212624 -0.00900853 0.00255776
O 9.78693763 3.88669480 6.97033931 0.00360575 -0.00146950 -0.00137863
O 14.76554484 0.98561589 17.17360251 -0.00180682 0.00599443 -0.00265091
O 10.86957155 5.36949978 8.82247774 -0.00095546 -0.00486444 -0.00199551
O 11.24480271 11.55359991 8.14421643 -0.00500119 -0.00055898 0.00143075
O 14.75149767 7.51241922 32.42706174 0.00370331 -0.00752560 0.00363377
O 10.61863137 11.38605493 32.37424872 -0.00255424 0.00180881 0.00572137
O 14.96147172 7.81511693 8.00000452 0.00750467 0.00296605 0.00018203
O 14.85636346 1.28503002 8.96382387 -0.00028675 -0.00524794 -0.00323992
O 10.48990536 5.64783052 17.34926432 0.00096490 0.00537876 0.00682490
O 14.50625615 3.01127691 23.20361704 0.00382912 -0.00281419 -0.00217853
O 11.13332342 3.67722488 31.84393930 0.00603305 -0.00327085 0.00066900
O 10.56542851 9.83921051 18.10153185 -0.00196299 0.00080876 0.00470342
O 14.85887518 9.03661510 26.26732051 0.00354318 -0.00736259 0.00106692
O 10.65778850 9.47582545 26.40306299 -0.00430486 -0.00306796 0.00210400
O 14.74998478 9.23597481 17.83836646 0.00250933 0.00046822 -0.00434465
O 14.86271426 3.07950588 31.43386846 -0.00153758 -0.00250584 0.00367865
O 9.89813032 4.04643381 23.33927303 -0.00322903 -0.00631223 0.00145124
O 15.05481826 1.36703124 0.69458760 0.00172947 0.00253104 0.00237295
O 10.53887069 4.85895962 25.65969411 0.00076995 0.00288406 0.00322029
O 10.67482162 11.16769766 24.45495001 -0.00183317 -0.00097154 -0.00285940
O 15.27214358 7.47681502 16.07128188 -0.00196986 0.00261642 -0.00438613
O 10.66557446 11.61926932 16.21331477 0.00696976 -0.00061395 0.00757805
O 14.44263198 7.67629055 24.01006649 -0.00483380 -0.01188357 -0.00219096
O 14.67898581 1.29254361 25.25370757 0.00020538 -0.00130092 0.00550926
O 10.68780704 5.25340191 0.81403579 0.00522686 -0.00591850 0.00122037
O 14.33183830 15.40887048 6.98638701 0.00615832 0.00654999 -0.00682719
O 11.06866349 15.93878113 14.87552889 0.00061147 0.00915899 0.00005339
O 10.05225355 22.84537707 1.20244577 0.00288947 0.00257808 -0.00463517
O 15.55724089 21.59650444 9.25147781 0.00432714 -0.00095563 -0.00045560
O 11.35975765 22.49805499 9.41767712 -0.00837496 0.00165101 0.00020736
O 13.63661109 21.93297831 1.24708576 0.00498281 0.00170801 -0.00317760
O 15.37811869 15.49463155 15.01343827 -0.00104755 -0.00183142 0.00232716
O 10.40666159 16.10437946 6.65256199 0.00010437 0.00446010 0.00002111
O 14.83399422 14.02946451 17.38241616 -0.00344269 0.00071366 -0.00384126
O 10.25192653 17.74079110 8.70547976 -0.00198057 0.00498244 0.00151633
O 11.17439626 24.21351802 7.39420823 -0.00121293 -0.00280409 -0.00728822
O 13.81312220 20.33272787 32.00503314 -0.00069404 0.00132236 -0.00247460
O 10.50202095 23.99818513 31.62683687 -0.00541342 0.00253566 0.00060849
O 15.43214488 20.28818436 7.01358060 0.00576864 0.00254072 0.00508266
O 15.07378624 14.11173143 8.99921383 0.00040481 0.00284335 0.00093940
O 11.29019086 17.67730514 16.82304675 -0.00273056 -0.00002300 -0.00773661
O 14.09345118 15.33178089 23.58132567 -0.00196519 0.00647297 -0.00569265
O 10.95481162 16.39850273 31.42722178 -0.00684392 -0.00571545 -0.00468038
O 10.29413066 22.96786155 16.99248852 -0.00568988 0.00071182 0.00590045
O 15.34945095 21.58710440 25.78336326 0.00095239 -0.00313752 -0.00183687
O 11.06024721 22.64027400 25.44497746 -0.00102421 -0.00332845 0.00044350
O 13.84997188 22.00790202 17.68832499 -0.00328444 0.00087265 -0.00352933
O 15.45736153 15.05058053 31.79440137 0.00635122 0.00143741 0.00313038
O 10.43813219 16.12212313 23.14134529 -0.00643209 -0.00117311 0.00279511
O 14.52694899 13.80661846 1.00048015 -0.00721564 -0.00163050 -0.00199574
O 10.41858781 17.59974963 25.29237623 -0.00520186 -0.00330888 0.00430534
O 10.27522796 24.01152157 23.32434273 -0.00120512 -0.00552916 -0.00066080
O 14.69486587 20.52768149 15.54830652 0.00279527 0.00559353 -0.00084508
O 11.10649433 24.79660799 15.29789647 0.00580012 -0.00294667 -0.00448888
O 14.89572642 20.05984029 23.60981232 -0.00482766 0.00132726 -0.00099699
O 14.66762670 13.95719359 25.58160203 -0.00037272 -0.00154657 0.00371453
O 10.46938982 18.05795450 0.46537398 -0.00374478 0.00441898 -0.00115661
O 22.70207736 2.95294777 6.31998212 0.00161316 -0.00389474 0.00215387
O 19.88858688 3.96179462 15.77104705 -0.00247971 -0.00293618 0.00670764
O 18.32825653 10.34798957 1.54131170 0.00803144 0.00519723 0.00140594
O 23.77156063 8.99014390 9.27751420 0.00557888 -0.00048072 -0.00204722
O 19.80202297 9.83474046 10.20860211 -0.00089502 -0.00247645 -0.00061852
O 22.15404003 8.76616158 1.22337167 -0.00069891 -0.00231704 0.00636790
O 23.43819885 2.50151751 15.10033962 -0.00949623 0.00145745 -0.00222106
O 18.68372871 3.89946184 7.11330523 0.00276049 -0.00569651 -0.00294824
O 23.10848846 1.04771164 17.18844211 0.00463542 0.00420454 0.00197630
O 19.17160804 4.71121583 9.43501178 0.00137932 -0.00183353 0.00015383
O 19.14650980 11.10457428 7.79852527 -0.00276255 -0.00460333 -0.00211052
O 23.18129935 7.59059567 32.12376141 -0.00611332 0.00035233 0.00745956
O 19.00637100 11.64370006 32.36147976 -0.00106613 0.00362632 -0.00046674
O 23.08203279 7.74810747 7.18232602 -0.00477896 -0.00220508 -0.00147037
O 23.20039644 1.40944730 8.52916033 0.00278724 -0.00059266 -0.00802863
O 18.73769935 5.14059454 17.54116505 0.00308839 0.00407177 -0.00572333
O 22.69697110 2.68071052 23.15848207 0.00159874 0.00114496 -0.00423797
O 19.51294927 3.71699559 31.64896827 -0.00219029 -0.00588524 -0.00472898
O 18.42277515 10.17101908 17.92584650 0.00367374 0.00264842 -0.00431022
O 23.84682397 8.99811194 25.88958071 -0.01210057 0.00356511 -0.00110395
O 19.98010128 10.08745121 26.53415167 -0.00308833 -0.00612817 -0.00266601
O 22.67556795 8.87681271 17.46734462 -0.00074510 -0.00111666 -0.00102964
O 23.77751479 2.81676892 31.17447343 -0.00162567 -0.00326835 -0.00176629
O 18.06263257 3.71018037 23.56465212 0.00375251 0.00139228 0.00112345
O 23.11996937 1.28016801 0.27432928 -0.00197913 -0.00156051 -0.00013605
O 18.70536471 5.24574126 25.49953120 0.00268328 0.00004102 -0.00233004
O 19.58092142 11.00516530 24.34874896 -0.00186133 0.00760828 0.00532206
O 23.61352299 7.59608283 15.45823100 -0.00186356 0.00129629 0.00186987
O 19.44617697 11.83015942 16.11021279 0.00700576 0.00076817 -0.00549170
O 23.75421913 7.71800782 23.70684310 -0.00078356 -0.00815291 -0.00342704
O 23.78830010 1.20929739 25.18685004 0.00245308 -0.00109172 0.00191192
O 18.77432880 5.35140863 0.87733343 0.00146244 -0.00177858 0.00337385
O 23.24382049 15.21138854 7.31778945 -0.00268963 -0.00220351 -0.00829295
O 19.58955453 16.54474144 14.95891094 -0.00004412 -0.00550292 0.01235208
O 18.55433931 22.86811422 1.11150511 0.00096410 0.00161271 -0.00848999
O 23.60170615 21.91213499 9.48598685 -0.00118077 0.00185530 -0.00203272
O 19.76994377 22.76276465 9.28051629 -0.00801926 -0.00423430 -0.00658130
O 22.86995746 21.77094006 1.15935242 0.00567101 0.00229764 0.00688751
O 24.06775456 15.38205044 15.41662790 0.00183047 0.00016304 -0.00078367
O 19.24621929 16.29036465 6.53841358 -0.00219194 -0.00675754 0.00339615
O 23.33715489 13.91810298 17.42475984 0.00278579 0.00044128 0.00165359
O 19.22379439 17.76410959 8.61174236 -0.00238897 -0.00385982 -0.00056018
O 19.28351046 24.25116915 7.20571448 0.00780309 0.00298204 -0.00132302
O 23.45629303 20.37208642 31.89334231 0.00369582 0.00511846 -0.00315970
O 19.18763711 24.41707367 31.91469131 0.00876578 -0.00770849 -0.00225685
O 23.11431096 20.41090203 7.40020664 0.00540478 0.00148445 0.00218301
O 23.81696216 13.74517773 9.26009259 -0.01047476 -0.00041467 -0.00277170
O 19.15953154 17.76890948 17.14380670 0.00050251 -0.00202019 0.00211289
O 22.53685921 15.23650459 23.56591053 0.00135533 0.00182846 -0.00655236
O 19.65114258 16.11561474 31.23236438 -0.00069811 0.00461262 0.00034689
O 18.47182965 22.67172817 17.68260733 0.00246487 -0.00429064 0.00151867
O 23.73870391 21.66912390 25.59327143 -0.00024541 0.00201885 -0.00826903
O 19.66148851 23.03661263 25.87470676 0.00306084 -0.00030423 -0.00278289
O 23.10768298 21.83480104 17.52526126 -0.00124524 0.00309291 0.00367496
O 23.99268493 15.46151195 31.95259657 0.00193666 0.00510308 -0.00203587
O 18.76417477 16.12374785 23.30627442 0.00511857 0.00480365 -0.00222305
O 23.18190302 13.82485874 1.10395195 -0.00349913 -0.00690084 -0.00277326
O 19.07667277 17.88939551 25.26027478 0.00607675 -0.00420016 0.00097387
O 19.04515898 24.34549742 23.76284971 -0.00849480 -0.00940832 -0.00172282
O 23.27182560 20.24721792 15.64023173 0.00523669 -0.01006392 0.00256104
O 19.09019439 24.17518663 15.44403950 0.00292471 0.00291687 0.00439760
O 23.54750253 20.22451983 23.63615411 -0.00022721 0.00142453 -0.00124469
O 23.54125855 13.96228820 25.72070100 0.00469689 0.00473916 -0.00053426
O 19.23691079 17.72640768 0.38050890 0.00064489 -0.00186489 0.00364914
N 7.46838068 13.25963032 2.49734990 0.00693582 0.00004150 -0.00242959
N 1.05135493 6.17997252 10.45410865 -0.00795921 0.00724947 0.00330753
N 3.24703511 0.20181332 5.62026394 -0.00872540 -0.00700146 0.00052887
N 5.42004997 6.52008278 13.82575673 -0.00264160 0.00885404 -0.00191958
N 1.19897341 0.21184433 14.01611198 -0.00083901 -0.00395042 0.00380515
N 7.28842603 6.44122333 5.94536006 -0.00080842 0.00473965 0.00040822
N 5.40502977 12.81573485 10.56542340 -0.00327650 0.00144837 -0.00124393
N 2.95211081 6.69481296 1.91192804 -0.00018725 -0.00227650 0.00631333
N 7.52851226 12.58408066 19.16721374 -0.00659109 0.00111969 0.00204535
N 0.83332783 6.15309849 26.85954197 -0.00208542 0.00990507 -0.00576331
N 3.17106570 0.17503586 21.99495569 0.00144677 0.00298760 -0.00226757
N 5.38261253 6.34408437 30.50754651 -0.00035285 0.00250729 -0.00078173
N 1.08002100 25.48708269 30.19493023 -0.00312833 0.00001992 -0.00440183
N 7.47826496 6.25507775 22.43228209 -0.00701854 -0.00569304 0.00304653
N 4.78957904 13.02319139 27.33026188 -0.00222875 0.00020568 -0.00143111
N 3.11659827 6.42289920 18.53217443 0.00218965 0.00055522 0.00265471
N 7.72533445 0.29002902 2.10062268 0.00425852 0.00142332 0.00191179
N 0.91659518 18.82248632 10.52748742 0.00552446 -0.00247418 -0.00403291
N 3.19206025 12.94288909 6.19455398 -0.00191462 0.00024660 -0.00173769
N 5.84606242 19.22968171 13.69680392 0.00244335 -0.00162626 0.00586173
N 1.63648700 12.73239379 14.56993275 -0.00233304 0.00455060 0.00180030
N 7.18104898 19.48236679 5.41615348 -0.00009941 0.00691486 -0.00357787
N 5.64365689 25.22067451 10.25694073 -0.00266150 0.00176122 0.00428111
N 2.95593171 19.19942122 2.58263430 0.00079745 -0.00291795 -0.00285720
N 7.52499171 25.22660279 18.41606287 0.00364793 -0.00285116 0.00601507
N 0.81540914 18.86463961 26.96274965 0.00262702 -0.00352254 -0.00545546
N 3.04582519 12.79510830 22.43926598 -0.00388548 0.00041434 -0.00535165
N 4.92391155 19.16927674 30.14547621 -0.00094056 0.00687802 -0.00001344
N 0.82090759 12.70667275 31.00314714 -0.00410210 0.00069179 -0.00628099
N 7.59157824 18.86602764 21.97198063 0.00665294 0.00132105 0.00004364
N 5.37093457 0.00168185 26.91864037 0.00340561 0.00391738 0.00193341
N 3.26032870 19.06450014 18.81450538 0.00511178 -0.00090080 -0.00585667
N 15.66155486 12.50071898 2.54733872 0.00235983 0.00646815 -0.00148424
N 10.15687014 6.73782383 10.53317716 -0.00229231 0.00106637 -0.00356132
N 11.79482620 0.04404845 5.68558944 0.00372075 -0.00866202 0.00025050
N 13.80202022 6.75216686 14.51157164 0.00109277 0.00292518 0.00190780
N 9.58241073 25.44259359 13.69279290 -0.00015951 0.00010902 -0.00559644
N 15.65938021 6.39065423 6.35625334 -0.00118759 -0.00798534 0.00113948
N 13.99003246 12.70605825 10.50741820 0.00067903 0.00284790 -0.00758523
N 11.79641149 6.39458181 2.42282581 0.00751765 -0.00301019 -0.00491081
N 15.98558962 12.82373278 19.03344103 -0.00617356 0.00974148 -0.00596654
N 9.43614229 6.27343222 27.16259873 -0.00308197 0.00813939 -0.00361028
N 11.48825425 25.42808489 21.93973630 0.00220607 0.00361203 0.00478629
N 13.52264720 6.34566833 30.88380558 0.00146097 0.00345516 0.00193129
N 9.34721367 25.42417582 30.08246311 -0.00937115 0.00209196 0.00164190
N 15.99447132 6.64445470 22.69286525 -0.00109609 -0.00207226 -0.00316347
N 13.44662171 12.80693354 27.12240034 0.00567067 0.00430315 -0.00043069
N 11.98477951 6.47368354 18.79792975 -0.00028209 -0.00293409 0.00003345
N 16.13666674 0.18531048 2.36947727 -0.00412479 0.00417251 -0.00126026
N 9.46330999 18.91470337 10.48640339 -0.00578696 0.00134397 0.00071593
N 11.61759263 13.08618382 6.40420229 0.00168649 0.00739868 0.00612185
N 13.68865033 19.29618233 13.84892951 -0.00694665 0.00138871 -0.00095654
N 9.80936559 12.84870715 14.49900671 -0.00417927 -0.00703044 0.00461038
N 16.45338816 19.30437475 5.25075316 0.00258100 -0.00022066 0.00532137
N 13.85186898 25.46622834 10.53513765 -0.00645061 -0.00299397 0.00110002
N 11.40022573 19.37137562 2.12867789 -0.00251617 0.00369857 0.00014432
N 15.97829227 25.48013365 18.85179978 0.00209668 0.00073406 -0.00611474
N 9.22662788 18.77142541 26.82766973 0.00424917 -0.00061467 0.00477039
N 11.11612848 12.75617326 22.76489290 0.00164396 -0.00534723 -0.00143011
N 13.40091731 18.84399410 30.30878142 0.00012583 -0.00153818 0.00621642
N 9.48772830 12.61987419 30.82962251 -0.00055239 0.00183493 0.00747735
N 16.09605340 19.20468578 21.89901993 0.00211369 -0.00166911 -0.00372304
N 13.77785831 0.05890239 27.00854710 0.00650980 0.00211539 -0.00181041
N 11.55747447 19.05702839 18.66340712 0.00705233 -0.00272795 -0.00141673
N 24.41371684 12.49251745 2.54429030 0.00596758 -0.00004614 -0.00303226
N 18.10832651 6.12389607 11.02484983 0.00472842 -0.00082060 -0.00022290
N 20.47289639 25.37129335 5.64651875 -0.00567465 0.00174889 -0.00079794
N 22.11454783 6.61937413 14.10407681 -0.00612083 0.00811708 0.00108604
N 17.97665228 25.26993594 13.82091986 0.00163270 0.00020874 0.00040662
N 24.34037363 6.68101498 5.65012611 0.00193179 -0.00077436 0.00439202
N 22.52370105 12.72334970 10.84819123 -0.00284157 -0.00174938 0.00116838
N 19.94605750 6.53974505 2.46747215 0.00294278 0.00062959 -0.00130280
N 24.49570978 12.77516487 19.00193589 0.00621445 0.00993161 -0.00331636
N 18.03812303 6.51008801 27.28669716 -0.00563343 0.00529455 0.01131934
N 20.48402076 25.30740484 22.16109563 0.00423288 0.00299048 -0.00167762
N 22.13580228 6.43686818 30.43590204 0.00334644 0.00738041 0.00747499
N 17.97908150 0.07796982 30.31267683 -0.00457143 -0.00972826 0.00095557
N 24.57620524 6.37954516 21.98548820 0.00297530 0.00314974 0.00353561
N 22.25876343 13.04127069 27.33983088 0.00263779 0.00445191 0.00301178
N 20.24300586 6.05198875 19.02729696 -0.00432627 0.00666344 -0.00049571
N 24.56565372 0.34402956 1.74809419 0.00155611 -0.00580801 0.00691706
N 17.99521594 18.93546830 10.27979134 0.00868546 -0.00270011 0.00013562
N 19.98005034 12.52670310 6.27525967 0.00530656 0.00556704 -0.00319376
N 22.39679356 18.94428516 14.01987746 0.00601422 0.00527741 -0.00333306
N 18.24545147 12.99113652 14.41987828 0.00232358 -0.00696443 -0.00391634
N 24.48568745 19.26780102 5.85815238 -0.00322237 -0.00569734 0.00280619
N 22.25455846 0.13857271 10.22811615 -0.00041810 -0.00533950 -0.00179165
N 20.33584478 18.99417787 1.87613016 -0.00539914 0.00129935 0.00462791
N 24.58296370 0.04940384 18.69153932 -0.00580770 -0.00532784 -0.00160829
N 17.82363228 18.89707758 26.77513208 0.00396162 0.00161668 0.00599628
N 20.06154450 12.58168352 22.73753424 -0.00384357 -0.00112664 -0.01044880
N 22.10641491 19.34795310 30.29733938 -0.00020081 0.00132069 -0.00010462
N 17.73328882 12.66741550 30.73904963 -0.00237684 -0.01133238 0.00469026
N 24.66697291 19.07524862 22.11959873 0.00409409 -0.00637816 0.00085787
N 22.41335189 0.07557753 26.63471607 -0.00227950 -0.00133780 0.00180248
N 20.28655712 18.87271990 18.83923278 -0.00202756 0.00239763 -0.00343168
C 7.41667794 0.55765643 4.37130793 -0.00005757 -0.00184605 -0.00290254
C 0.96458874 5.85114390 12.78781237 0.00278091 -0.00069830 0.00134392
C 3.53239293 12.34761692 3.86526258 0.00161150 0.00371074 0.00134489
C 5.15060882 6.99260677 11.54113969 -0.00080433 0.00370528 -0.00305899
C 1.14878538 12.54318773 12.22052391 0.00390484 0.00659112 0.00380719
C 7.55364828 6.74354787 3.57589463 0.00045203 -0.00919505 0.00343986
C 5.52499148 25.44678409 12.64999502 -0.00228061 -0.00586341 0.01084675
C 3.40501442 6.27124530 4.18477636 -0.00010782 -0.00073648 0.00745870
C 7.05725954 1.26238628 5.50817343 0.00014216 -0.00467206 -0.00108964
C 1.43803567 5.18608483 13.93168042 -0.00172159 -0.00563969 -0.00113729
C 3.17984499 11.69655344 2.71807805 0.00267982 0.00349600 0.00532949
C 5.43288613 7.65675217 10.41591093 -0.00069002 0.00796592 -0.00639677
C 1.45587617 11.97445269 11.01446453 -0.00466546 0.00003863 -0.00260395
C 7.17606704 7.37707514 2.36176545 0.00772590 -0.00326572 0.00005915
C 5.74331117 0.69223038 13.77962883 0.00573530 0.00784707 0.00207644
C 3.19777155 5.68156758 5.46398941 0.01021065 0.00350852 0.00910512
C 6.26839170 2.41904888 5.43020476 -0.00810334 0.00618285 0.00269310
C 2.36856400 4.12928817 13.75729367 0.00227733 -0.00101370 -0.00170501
C 2.18339668 10.72322868 2.79833274 0.00070198 -0.00117581 0.00283891
C 6.34738150 8.74203783 10.44184997 -0.00594851 0.00207858 0.00097180
C 2.18901667 10.75402379 10.94245155 -0.00391962 -0.00283150 -0.00374205
C 6.46024943 8.61163684 2.41381577 0.00227450 0.00303328 -0.00409428
C 6.48040293 1.88469038 13.68065291 0.00378514 0.00587568 0.00191331
C 2.29489047 4.64534895 5.54042216 0.00823453 0.00219964 0.00622659
C 5.98171243 2.88083477 4.07693848 0.00243282 -0.00337723 0.00263627
C 2.74133529 3.67224267 12.45349675 -0.00155819 -0.00116295 0.00631469
C 1.92687178 10.14206884 4.06488029 0.00509219 0.00824998 -0.00090501
C 6.81800431 9.18530010 11.69938968 -0.00071566 -0.00171954 -0.00452367
C 2.41511417 10.06905928 12.13115002 0.00012540 -0.01272678 -0.00218857
C 6.27484816 9.21697581 3.62966153 -0.00291678 -0.00324761 0.00235985
C 6.63936901 2.58130647 12.44356817 0.00276712 -0.00548200 -0.00385180
C 1.66187983 4.22423117 4.31424180 0.00180616 0.00062379 0.00289716
C 6.50765530 2.31614104 2.95293185 0.00145445 0.00237913 -0.00186131
C 2.37085762 4.38987097 11.34332785 -0.00423040 -0.00880756 0.00641347
C 2.23689436 10.80959485 5.21354240 0.00046454 -0.00619266 -0.00724033
C 6.42855348 8.55680788 12.85065345 0.00329596 -0.00359322 0.00367978
C 2.09488224 10.62435138 13.35800814 0.00053077 -0.00186337 -0.00143881
C 6.58740285 8.54396119 4.83974823 0.00524406 0.00173507 0.00002614
C 6.33348570 1.88720727 11.28910445 0.00054530 0.00690959 -0.00305020
C 1.96845222 4.71949477 3.10789737 -0.00031878 0.00486459 -0.00149872
C 7.21503340 1.06541938 3.09095512 -0.00219392 -0.00319837 0.00576082
C 1.38399717 5.38934147 11.55246840 -0.00159750 -0.01023985 -0.00280679
C 2.97189144 12.05456526 5.15352030 0.00361103 0.00692961 -0.00431437
C 5.63904081 7.36031027 12.73797087 0.00217407 0.00474921 0.00569146
C 1.62768258 11.98669428 13.38283181 0.00110011 -0.00299259 0.00494989
C 7.11032286 7.25456749 4.75785943 -0.00553714 0.01021984 0.00508045
C 5.89434666 0.51453480 11.38950341 -0.00083446 -0.00202031 0.00789697
C 2.80942070 5.88866706 3.01334977 -0.00207145 -0.00079350 -0.00255876
C 7.10860528 0.33084584 0.86477189 0.00664571 -0.00000180 -0.00252097
C 1.70497317 6.30586682 9.25326185 0.00469123 0.00022336 0.00085299
C 2.71758807 12.81862795 7.42809721 -0.00494628 -0.00085286 0.00514713
C 6.03256767 6.61986724 15.06774878 -0.00158507 -0.00238096 0.00236858
C 1.56055687 12.26751814 15.88932225 -0.00224597 -0.00012353 0.00289072
C 6.69283417 6.56671358 7.12811317 -0.00356674 0.00051486 -0.00346894
C 5.89088596 0.20428721 9.00303052 0.00430487 -0.00997975 -0.00591107
C 2.52360855 6.34223536 0.64443862 -0.00944875 0.00632500 -0.00682646
C 7.17297193 11.47615626 17.02667771 0.00977133 0.00411789 -0.00382377
C 1.20568867 7.46985535 8.49099261 0.00141239 -0.00546567 -0.00365125
C 2.69364741 1.29136899 7.78451998 -0.00029745 0.00322963 0.00310162
C 5.69979541 5.28516612 32.68319299 0.00324861 0.01110656 0.00337493
C 1.65859109 1.29312289 32.19847354 -0.00047313 0.00697597 -0.00234337
C 6.83098022 5.46815900 8.13491804 -0.00457481 -0.00065954 -0.00311702
C 5.84439994 12.02295320 8.26485076 0.00537158 -0.00467227 -0.00106742
C 2.98597396 7.34277853 16.31192866 0.00358528 -0.00251891 0.00597174
C 7.48764594 0.25682066 20.78370077 0.00268131 0.00062824 0.00032986
C 0.97719876 5.86165080 29.25017227 -0.00202790 -0.00100752 0.00280398
C 3.26177363 12.15430127 20.12093592 0.00589206 0.00585793 -0.00061189
C 5.06559293 6.68119718 28.18006266 0.00808201 -0.00009807 0.00821815
C 0.60661696 12.32199358 28.61090632 -0.00186644 0.00517430 0.00147507
C 7.54557061 6.49168439 20.04181445 0.00212392 -0.00398641 0.00567239
C 5.10467206 0.43614180 29.20325061 0.00085165 -0.00273742 -0.00969578
C 3.42956644 5.93288736 20.88277873 0.00596790 0.00509562 -0.00676642
C 7.30086252 1.03984209 21.83986319 0.00382670 0.00621649 -0.00346362
C 1.55926395 5.26453741 30.35298923 -0.00427019 0.00303955 0.00116502
C 2.99845150 11.29564428 19.07122779 -0.00162261 -0.00348802 0.00436677
C 5.48698594 7.27555204 26.94740015 -0.00382032 0.00463199 0.00874569
C 0.87101540 11.65234267 27.44716053 0.00104537 0.00258902 -0.00116137
C 7.25708626 7.17444084 18.90513268 0.00380639 0.00542560 0.00205684
C 5.52622632 1.15126279 30.29470718 -0.00372590 -0.00008721 -0.00026277
C 3.01850973 5.15530514 21.93680803 -0.00360389 -0.00099645 -0.00021361
C 6.46556149 2.12946073 21.79303498 0.00159740 0.00001087 -0.00695217
C 2.37675265 4.15296125 30.27645681 0.00293158 -0.00411134 0.00077295
C 2.12952702 10.16771988 19.34397937 0.00106280 0.00048010 -0.00158783
C 6.30646806 8.44959154 26.99573127 -0.00334274 -0.00120571 0.00525720
C 1.74552072 10.49852588 27.47840346 0.00629714 0.00098454 0.00020207
C 6.35002292 8.23647028 18.84024141 -0.00257372 0.00200347 -0.00299731
C 6.40838040 2.28337235 30.17837041 -0.00434801 -0.00090064 -0.00505010
C 2.08983449 4.13078951 21.82034703 0.00121315 -0.00296553 -0.00914519
C 6.14250500 2.63563123 20.50320346 0.00725999 0.00249489 -0.00085232
C 2.47874132 3.57124638 29.00582020 -0.00198800 -0.00491923 -0.00193624
C 1.89213689 9.84837980 20.64070835 -0.01267932 0.00385578 -0.00093572
C 6.52840578 9.05863413 28.24767209 -0.00298720 -0.00185096 -0.01364792
C 2.03449172 9.93673345 28.75776733 0.00370731 -0.00061907 0.00755085
C 6.06419519 8.82233023 20.10089317 -0.00235692 -0.00218308 0.00201854
C 6.56755303 2.85888145 28.90690916 0.01069003 -0.00327419 0.00513157
C 1.78658005 3.63998453 20.57079044 -0.00085030 0.00513452 -0.00312001
C 6.56451302 1.93587657 19.40036273 -0.00143998 -0.00226736 0.00372331
C 2.04702015 4.20132567 27.85431122 -0.00388405 -0.00207752 0.00478009
C 2.24652040 10.60531719 21.70944658 -0.00985765 -0.00085473 0.00498542
C 6.29971283 8.33564482 29.36612172 -0.00010844 -0.00540308 0.00464766
C 1.79233967 10.69850937 29.84768011 -0.00267944 0.00377770 0.00699269
C 6.51425692 8.26331055 21.26120914 0.00141125 0.01259586 0.00583821
C 6.07887442 2.15573904 27.81907176 -0.00886708 -0.00546678 -0.00222033
C 2.17431350 4.41451413 19.44075705 -0.00548173 -0.00538273 0.00474813
C 7.21184738 0.59801011 19.46794568 0.00236420 -0.00312194 0.00235960
C 1.33423706 5.43545470 27.94481263 0.00805168 -0.00016652 -0.00668587
C 2.83047436 11.88537293 21.41900805 -0.00361842 -0.00740682 0.00118488
C 5.58422813 7.07004202 29.33845077 -0.00375846 -0.00265982 0.00031550
C 1.05903468 11.93455341 29.85852721 0.00450865 -0.00623303 0.00548534
C 7.19491685 7.00724772 21.31346468 -0.00785728 0.00145149 -0.01135983
C 5.50661972 0.86263579 27.92306050 0.00599844 -0.00365350 -0.00330050
C 2.92571877 5.57746329 19.58937601 -0.00202355 -0.00180064 0.00268949
C 7.15480415 25.47693097 17.13731078 -0.00304550 -0.00509881 -0.00700125
C 1.36341053 5.95661968 25.60311520 0.00004346 0.01134525 0.00376296
C 2.68548217 12.67851833 23.72825249 -0.00003904 -0.00641015 -0.00172719
C 5.90690618 6.46388150 31.76508103 -0.00573389 -0.00465939 -0.00398711
C 1.53483873 12.57599662 32.16859380 0.00598587 0.00833575 0.00987449
C 6.78860639 6.40561490 23.56052513 0.00445962 0.00310314 -0.00399337
C 5.70675918 0.18916160 25.55953519 -0.00044830 -0.00637631 0.00161883
C 2.89907114 6.13522215 17.25893705 -0.00834627 -0.00261811 -0.00905859
C 7.11121670 11.87104767 0.66117131 0.00407613 -0.00269869 -0.00021703
C 1.25371816 7.22085743 24.74050066 0.00100533 0.00288836 0.00062819
C 2.76515663 0.99788765 24.13679222 0.00257459 0.00421786 -0.00053889
C 5.82242643 5.44131525 15.95728922 -0.00116109 -0.00340733 0.00326908
C 1.27192127 0.98272355 16.21040410 0.00566837 0.00293152 -0.00133893
C 6.92695855 5.18111073 24.46496510 -0.00241321 -0.00004328 0.00298261
C 5.21674989 11.95552248 25.24190941 0.00674413 0.00420609 0.00896577