1920
Time=33000.00000001 pbc="T T T" Lattice="25.43431979 0.00000000 0.00000000 0.00000000 25.80727808 0.00000000 0.00000000 0.00000000 32.87895209" energy=-12244.49526238 virial="-49.68084907 -2.04410209 -32.92252612 -2.04410209 -82.89781147 18.05974499 -32.92252612 18.05974499 -55.87220943" stress="0.00006308 -0.00004530 -0.00148414 -0.00004530 -0.00163495 0.00083156 -0.00148414 0.00083156 -0.00030106" Properties=species:S:1:pos:R:3:vel:R:3
O 5.49527964 2.64732120 7.11008056 0.00238831 -0.00438057 0.00869067
O 2.39972064 3.84309141 15.44798864 -0.00050393 -0.00477778 0.00714495
O 1.96168698 10.29853160 1.38608819 0.00262514 -0.00285042 -0.00111496
O 6.73843064 9.55990584 9.97479430 -0.00837881 0.00066678 -0.00121486
O 2.51039959 10.16536790 9.74941664 -0.00233319 -0.00153975 -0.00281440
O 6.48101730 9.38834552 1.55025385 0.00365998 -0.00188452 -0.00390671
O 6.97311616 2.47867241 15.60897892 0.00301924 -0.00398491 0.00010224
O 1.18103687 3.72953286 7.07496312 0.00332536 0.00497054 0.00091533
O 5.98049235 0.86208128 17.38631959 0.00427091 0.00214662 0.00213152
O 1.52431947 5.29346988 9.27213316 0.00068986 -0.00308872 0.00301032
O 2.45532475 11.71374789 7.71213340 -0.00554443 0.00032607 -0.00231478
O 6.52570144 7.67788049 32.50676212 -0.00037198 0.00049906 0.00395584
O 2.31866806 11.87658845 32.14383720 -0.00290967 -0.00009643 -0.00295332
O 6.58678317 7.85774601 7.85518249 0.00228334 -0.00620699 0.00284612
O 6.19375660 1.53674658 9.26657253 -0.00069174 -0.00373729 -0.00053026
O 2.12924180 5.25926070 17.51317167 0.00141321 0.00145719 -0.00056941
O 5.70022604 2.51661556 23.60768658 0.00274937 -0.00099201 0.00664296
O 2.93625150 3.88982076 31.85815262 0.00090621 -0.00198162 -0.00487707
O 2.01218383 10.22355595 17.60228725 0.00499507 -0.00183852 -0.00226335
O 7.15613442 8.97428309 26.26582362 0.00022657 -0.00332693 0.00116649
O 2.47964530 9.81006734 25.96724028 -0.00688272 -0.00534670 0.00283913
O 6.33043407 8.93529018 17.86418984 -0.00540197 0.00148544 0.00217956
O 6.86189373 2.72007503 31.50894210 0.00974530 0.00093662 0.00327384
O 1.46758690 3.48836104 23.68505456 0.00902389 -0.00056035 0.00055740
O 6.41840227 1.39692816 0.96972511 -0.00455432 -0.00761006 0.00339189
O 2.08114888 4.82151959 25.90115654 -0.00563897 0.00574340 -0.00183010
O 2.23815110 11.34639619 23.94623994 0.00415442 0.00401595 0.00365629
O 7.14046076 7.22689808 15.87114901 0.00388286 0.00294384 0.00658186
O 2.55193370 11.75506538 15.82994128 0.00491003 0.00325512 -0.00564996
O 6.21988819 7.55961953 24.22282552 0.00579102 0.00079810 0.00360415
O 6.57757621 1.09385250 25.49910632 -0.00247578 -0.00103034 0.00187773
O 2.43311856 5.22877773 1.15204608 -0.00187882 -0.00951232 -0.00232027
O 5.64589947 16.09517648 6.81572800 -0.00364880 0.00507026 0.00855518
O 2.60385064 16.18106543 15.37505047 -0.00079871 0.00143717 0.00592783
O 1.84243241 22.93342235 1.35809788 -0.00169791 0.00302021 -0.00471920
O 7.05605649 22.09096665 9.35841307 0.00562816 0.00310531 -0.00633674
O 2.50367214 23.09716397 9.67946545 0.00129363 0.00089653 -0.00088652
O 5.99970191 22.19219366 1.19554702 0.00230946 -0.00040733 -0.00016182
O 7.27479698 15.48767731 15.28025753 -0.00229679 0.00118255 -0.00262973
O 2.20962628 16.71077325 7.06675635 0.00174310 0.00377124 0.00254133
O 6.24773382 14.01058248 17.34806815 -0.00518871 0.00656337 0.00526903
O 1.85846413 18.07847670 9.29593637 -0.00362929 0.00027045 -0.00271684
O 2.26302021 24.53352368 7.43151652 0.00284051 0.00475746 -0.00427916
O 6.61195916 20.62687483 32.06541298 0.00304318 0.00229744 -0.00099509
O 1.89368976 24.45267756 32.12759749 0.00110192 -0.00261018 -0.00183358
O 6.26429665 20.75109976 7.34974175 -0.00245361 -0.00184378 -0.00398670
O 5.99483373 14.04095411 9.22099114 -0.00507280 0.00357787 0.00042933
O 2.20944232 17.89751064 17.21215218 0.00522778 -0.00242088 0.00376494
O 5.36348956 15.30311836 23.53789498 -0.00678615 -0.00021824 0.00032839
O 2.90539294 17.08082127 31.51905837 -0.00011400 -0.00104186 -0.00036633
O 1.61020040 22.98281724 17.91432332 0.00383212 -0.00287572 -0.00550751
O 6.56652325 21.78636057 25.70491790 -0.00318453 0.00368892 0.00154997
O 2.62361022 22.75285170 25.90210371 0.01162268 0.00998699 0.00118075
O 5.64734192 21.78710126 17.53770332 -0.00527181 0.00121759 0.00485907
O 7.26688601 16.10526883 31.42777406 -0.00021815 -0.00091537 0.00118411
O 1.59469510 16.23634654 23.42939284 0.00020556 -0.01397927 -0.00258333
O 7.07515267 14.63602487 0.78916347 0.00343900 0.00511682 0.00220788
O 1.83617502 17.99220727 25.26659656 0.00127450 0.00472374 -0.00001058
O 2.06993428 24.53911210 24.04083742 -0.00671520 -0.00015520 -0.00180670
O 6.26880985 20.40370292 15.40289923 -0.00396129 0.00225346 0.00719180
O 1.82019170 24.51485962 16.00686913 0.00402651 -0.00757456 0.00613162
O 6.28136397 20.23992465 23.67043535 0.00591537 0.00160849 -0.00084344
O 6.30736799 14.01962965 25.59803825 -0.00327333 -0.00148236 -0.00298919
O 2.04908865 18.08173181 0.79977336 0.00047105 0.00003686 0.00204162
O 14.56825299 2.48913180 6.99934111 0.00845445 -0.00544049 -0.00410462
O 10.99321141 3.74208087 15.10940545 -0.00161961 0.00145906 0.00173048
O 10.36767589 10.40808208 1.00879376 0.00232747 -0.00488824 0.00378203
O 15.91570063 9.39612628 9.81925762 -0.00431381 -0.00080093 -0.00043883
O 11.26157131 10.34318724 9.37018883 -0.00263061 0.00135461 -0.00224869
O 14.13289607 9.55608213 1.29412272 -0.00153450 0.00342530 0.00163664
O 14.99647065 2.87919711 15.31088725 0.00127883 0.00342020 -0.00317015
O 9.68532143 3.76868064 6.79812054 -0.00394463 0.00080898 0.00635963
O 14.66948414 1.17497740 17.22540633 0.00083711 -0.00039477 -0.00247814
O 10.07249402 5.25630255 8.90719169 0.00550945 0.00953762 -0.00048829
O 10.81186986 11.62286253 7.28584250 0.00443632 0.00082306 -0.00479331
O 14.49718424 8.02328921 32.19407906 0.00782728 0.00383309 -0.00193537
O 10.57782692 12.05597616 31.92200534 -0.00599650 -0.00456060 -0.00300014
O 15.44105500 8.01538968 7.60244950 0.00407362 -0.00660772 0.00321766
O 14.98162622 1.12018949 9.23524623 -0.00527085 0.00625169 -0.00136655
O 10.49086318 4.95243671 17.40087046 -0.00153127 -0.00237012 0.00888148
O 13.98129869 2.41905953 23.35794547 0.00070244 0.00120557 0.00059853
O 11.10369692 3.72588628 31.83752986 0.00141649 0.00779916 0.00095056
O 10.29080033 9.96396575 17.56467252 0.00237640 0.00344073 0.00747688
O 15.52226407 8.85690417 25.84549003 -0.00262368 0.00460739 0.00056044
O 10.82826414 10.03983730 25.75526317 -0.00369716 0.00296128 -0.00399921
O 14.46923766 9.46998157 17.78364284 -0.00208996 0.00332940 -0.00500156
O 14.76906101 3.15235300 31.26565048 -0.00554831 -0.00344770 -0.00223701
O 9.94595402 3.50148654 23.64844787 -0.00123028 0.00021581 -0.00519012
O 14.93567861 1.54944381 0.54653516 -0.00641833 0.00244177 -0.00448359
O 10.75776231 4.89535868 25.63602265 0.00172489 -0.00157207 -0.00210528
O 10.59383685 11.75408240 23.71913271 -0.00744938 -0.00413349 -0.00049153
O 14.28887179 7.93622993 15.68586847 0.00291775 0.00365115 -0.00808367
O 10.25351902 11.63410435 15.55142402 0.00279283 -0.00138743 -0.00174363
O 14.81782585 7.39034502 23.88564209 0.00183333 0.00391539 0.00837603
O 14.58762756 0.82034539 25.15181950 0.00471710 0.00655243 -0.00463033
O 10.54044583 5.32803575 0.94751313 -0.00081650 -0.00127586 0.00119970
O 14.42110436 15.96246457 6.53144873 -0.00041932 -0.00260778 0.00167733
O 10.64560973 16.97579166 15.11124189 0.00605243 0.00298166 -0.00080717
O 9.91679664 22.39421904 1.42211729 -0.00212675 0.00233717 -0.00445316
O 15.80355868 22.10654893 9.39805440 0.00015055 0.00168324 -0.00031177
O 11.20349091 23.45967726 9.66603261 0.00196195 -0.00869028 0.00265519
O 14.75239577 22.27658742 1.00771843 0.00445881 0.00653964 0.00082506
O 15.31034830 16.14112147 14.79942908 -0.00454436 -0.00233244 -0.00254947
O 9.78297870 16.94263007 6.78241920 -0.00343995 0.00004753 0.00393129
O 14.93488119 14.44058790 16.90878486 0.00534117 -0.00324670 -0.00616972
O 10.60256619 18.31798496 8.73856440 0.00044163 0.01160100 0.00006998
O 10.77523003 24.51202612 7.30268071 0.00384345 -0.00653240 -0.00148516
O 14.90187097 20.76161550 31.85407907 0.00064567 0.00333318 -0.00136877
O 10.23383115 24.16248936 32.35267508 -0.00334301 0.00266795 0.00070650
O 14.78004369 21.02207942 7.30752349 -0.00318615 -0.00152244 0.00177480
O 14.44569076 14.32744659 8.51496365 -0.00034379 0.00632117 0.00088538
O 10.07933977 18.49835239 17.20403762 0.00207064 -0.00131125 0.00278707
O 14.61498491 15.50618604 23.11893584 0.00104904 0.00006697 -0.00601376
O 11.66298780 16.84229956 31.57711160 0.00172987 -0.00193182 0.00602881
O 9.93209877 23.07889976 18.06284412 -0.00405712 -0.00265737 -0.00169728
O 15.48235329 21.66560821 25.65223952 0.00099676 -0.00118257 -0.00225616
O 11.17228756 22.59563130 26.23963410 0.00438367 0.00779311 -0.00167991
O 14.10533587 22.19172698 17.46859384 -0.00159416 -0.00242548 -0.00330402
O 15.22189739 16.13917995 31.15130521 -0.00357903 0.00217941 0.00457109
O 10.67263317 16.43565163 23.11241276 0.00000430 0.00167204 -0.00030241
O 15.66072518 14.64021332 0.33633576 -0.00696286 0.00053929 -0.00110832
O 10.83263286 18.17774332 25.51597988 -0.00222889 0.00077599 0.00151867
O 10.94642459 24.34521674 24.26047399 -0.00445366 0.00028454 -0.00163141
O 14.55351092 20.54625057 15.44988052 0.00331799 0.00625560 -0.00128522
O 10.28114798 24.53547484 15.84020008 0.00359432 0.00339330 -0.00279640
O 15.16315667 20.35977120 23.53119945 0.00206809 0.00447167 -0.00570571
O 14.73306396 13.89294743 25.09208746 0.00586493 0.00539560 0.00168801
O 11.55326607 18.03314170 0.81487722 -0.00398020 0.00124097 0.00429225
O 23.04560314 3.13696145 6.81478594 -0.00071069 0.00042621 -0.00408522
O 19.80993511 3.71653043 15.09978903 -0.00090997 -0.00186223 -0.00093183
O 18.45708946 10.75948574 0.99040507 -0.00140251 0.00542825 0.00900512
O 24.03261423 9.51799720 9.55819688 -0.00055969 -0.00115906 -0.00241980
O 19.49830466 10.46468965 9.43173230 -0.00462872 -0.00205428 0.00389055
O 22.77174974 9.16059334 1.04667832 0.00215253 0.00529526 -0.00309719
O 23.75511330 2.59827970 15.50678889 0.00486264 -0.00343440 0.00674529
O 18.80687190 3.53950917 6.89454683 0.00647020 -0.00039136 -0.01016812
O 23.11450924 1.00850922 17.48282610 -0.00473662 0.00410563 0.00287706
O 19.28395505 5.24738764 8.81756079 0.00367068 -0.00800308 0.00535882
O 19.01115376 11.75934734 7.27311125 0.00160653 0.00208302 0.00074415
O 23.51407069 7.39754625 32.03762383 0.00102708 -0.00015439 -0.00010790
O 19.58026865 11.98017842 31.80477742 -0.00727595 -0.00215112 -0.00170404
O 23.21242985 8.06056625 7.39837576 0.00286671 -0.00200019 -0.00201561
O 23.13928581 1.41108022 9.08455816 -0.00193558 -0.00297519 -0.00113835
O 19.35114269 5.12551129 17.13413756 -0.00007780 0.00024072 -0.00427642
O 22.68104174 2.62312867 23.50912528 0.00008750 0.00269651 0.00164729
O 19.15352324 3.92883545 31.85817572 0.00361357 -0.00145805 0.00671576
O 17.92820658 10.09431495 17.99935857 -0.00019841 -0.00359620 -0.00562014
O 23.90287997 9.20923079 25.98510700 0.00463850 -0.00092992 0.00218565
O 19.45395000 9.80588639 25.89059321 0.00100429 -0.00620439 -0.00002373
O 22.62030699 9.09179992 17.85730291 0.00343163 -0.00171046 0.00552198
O 23.06410792 3.04203996 31.59507148 0.00085288 -0.00836919 0.00045197
O 18.26954792 3.27174391 23.08193276 0.00990671 -0.00333128 0.00097530
O 23.39136600 1.37816037 0.77310762 -0.00677422 0.00019293 0.00027403
O 18.24997333 4.29066627 25.47190046 0.00191968 -0.00153623 -0.00507323
O 19.19028802 11.30892698 23.92052082 -0.00025376 -0.00092287 0.00371609
O 23.31428896 7.69643579 15.71755321 0.00869698 -0.00230166 -0.00634735
O 17.89479960 11.54702957 15.86777246 -0.00289579 0.00801566 -0.00728854
O 23.60633462 7.63715529 23.91218895 -0.00062329 -0.00247837 -0.00271059
O 23.24807311 0.89226909 25.51235807 -0.00405766 -0.00056882 -0.00664760
O 18.98286485 5.62350350 0.78671093 0.00214109 -0.00293174 -0.00039913
O 22.66445157 16.15053674 6.80916958 0.00440295 -0.00320115 -0.00463214
O 19.69465003 16.84971183 14.86548825 0.00475434 -0.00085742 0.00342749
O 18.55962149 23.41912019 1.17324201 0.00011211 -0.00279957 0.00380139
O 23.98187070 22.44781451 9.70469756 0.00140766 0.00424084 0.00153084
O 19.39928976 22.82330857 9.36639391 -0.00110544 0.00021238 0.00355243
O 22.77302991 22.34468262 1.22128421 0.00784547 -0.00163826 0.00141551
O 24.10271473 15.34007317 15.20957287 -0.00360700 -0.00057829 0.00242100
O 18.65072697 16.36553785 6.36159566 -0.00027316 0.00250943 -0.00080103
O 23.23385373 13.87703918 17.20256426 -0.00838519 0.00243804 -0.00190156
O 18.64153671 17.74598690 8.55705615 0.00168535 -0.00272875 0.00860145
O 19.43431788 24.61344087 7.39003763 -0.00642253 -0.00570988 0.00737126
O 23.64236500 20.87044885 31.85958004 0.00161462 -0.00158454 -0.00805738
O 18.93894763 24.79272382 31.91092963 -0.00166348 -0.00401663 -0.00123581
O 23.82168076 20.88304753 7.41373208 -0.00198267 0.00287412 0.00241024
O 23.13495987 14.53676865 8.80398020 0.00686881 0.00752016 -0.00674933
O 18.75877887 17.90576641 17.07563963 -0.00531675 0.00105190 -0.00447859
O 22.84697739 15.12669576 23.57827406 0.00259718 -0.00328002 -0.00470997
O 19.50098475 16.74608449 31.50999978 -0.00083455 0.00243477 -0.00357412
O 18.65722172 22.78626457 17.68136647 -0.00137625 -0.00177111 0.00371267
O 23.32245143 21.72181535 25.61617616 -0.00485516 -0.00049500 -0.00338299
O 19.41378404 22.55530400 25.96125168 -0.00395560 0.00188688 -0.00279157
O 22.69859963 22.11051357 17.55746846 0.00314283 0.00250983 -0.00316151
O 23.49063613 16.18165117 31.74131825 0.00095729 0.00077721 -0.00104706
O 18.76236779 16.08404271 23.05285776 0.00107707 -0.00466346 -0.00100261
O 23.72106553 14.44801414 0.76659841 -0.00470804 -0.00398227 -0.00087292
O 19.25212525 17.76347567 24.98100159 -0.00289605 -0.00681783 0.00105649
O 19.38351024 24.25771153 24.09721494 -0.00704749 -0.00041964 -0.00774242
O 23.45282856 20.40246531 15.67040526 0.00420365 0.00006978 0.00587969
O 18.81302510 24.53337697 15.59839651 0.01336489 0.00172589 -0.00040311
O 23.14855214 19.98084429 23.60650695 -0.00070519 -0.00746144 0.00386694
O 23.71370636 14.03672450 25.70463536 0.00072480 -0.00142616 0.00043534
O 19.14530054 18.61664155 0.35998502 0.00106808 0.00058697 0.00330883
N 7.22629281 13.16383372 2.56099002 -0.00233823 -0.00288660 -0.00089337
N 0.98468855 6.78447302 10.90210822 -0.00003325 -0.00087502 -0.00095217
N 3.32137097 25.73026741 5.83918225 0.00548117 0.00003674 0.00265129
N 5.71616864 6.20767437 14.43783929 -0.00605992 -0.00011358 -0.00020390
N 0.82796701 25.68257939 14.29030992 -0.00290965 0.00219473 -0.00789202
N 7.58475885 6.60837945 6.23323953 -0.00051127 -0.00715757 -0.00477618
N 5.44640943 12.60923725 10.91511785 -0.00659252 -0.00491775 -0.00327019
N 3.44736998 6.50185683 2.88482714 0.00739440 -0.00182439 0.00296711
N 7.61095473 13.07160717 18.99395528 -0.00310976 -0.01119020 -0.00236062
N 0.95715170 6.14846702 27.33392860 -0.00370373 0.00096828 0.00495425
N 3.31871774 25.62965550 22.41309819 -0.00417052 -0.00400376 0.00185580
N 5.25246114 6.63136395 30.96402219 -0.00222954 -0.00116975 0.00313490
N 1.24386599 25.76126427 30.38846488 0.00290337 -0.00196895 -0.00020835
N 7.24693915 6.28500179 22.68504321 -0.00403048 0.00029992 -0.00436467
N 5.02404987 13.14942942 27.30642519 0.00328215 0.00067527 0.00671160
N 3.37843673 6.11196279 19.18509883 0.00311736 0.00124533 0.00130663
N 7.67714436 0.42018977 2.64068842 0.00710761 0.00701312 0.00687083
N 0.84346520 19.18409380 11.02430690 0.00132214 -0.00670184 0.00195226
N 3.19967190 13.09678176 6.04610556 0.00197889 -0.00824614 -0.00468633
N 4.90009109 19.51618812 13.75775137 0.00055638 0.00422269 0.00218937
N 1.11909142 12.87992872 14.37116575 0.00162274 -0.00025630 0.01131978
N 7.35967277 19.41369985 5.87395916 0.00074263 -0.00110791 0.00337146
N 5.00681958 0.46391149 10.82649312 0.00095044 -0.00080541 -0.00319522
N 3.07873569 19.43178153 2.42972152 0.00355003 0.00087350 -0.00200684
N 7.30801460 25.73460840 18.93242353 -0.00345958 -0.00134375 0.00419372
N 1.11660501 19.49743869 26.91449277 0.00653709 -0.00212965 -0.00565639
N 3.18697787 12.66005933 22.41735927 -0.00695483 0.00043185 -0.00190951
N 5.51798249 19.22229369 30.59194126 0.00129148 -0.00029810 -0.00244167
N 1.13406226 12.86263875 30.42771977 -0.00684389 -0.00034484 0.00214670
N 7.36101611 19.12972775 21.92207491 0.00037573 0.00322817 0.00115063
N 5.19785711 0.09200173 27.06271794 0.00199509 0.00069790 0.00381629
N 3.16405888 19.18075188 18.85454883 -0.00020101 0.00308256 0.00199274
N 15.79706915 13.12356856 2.04995292 0.00118792 -0.00810168 -0.00665279
N 9.48600226 6.62064991 10.78771317 0.00625528 0.00421609 -0.00085354
N 11.91148622 25.52146002 5.59612836 0.00414809 -0.00570527 -0.00156567
N 13.61114701 6.60834282 13.92930104 0.00337711 0.00293007 0.00073676
N 9.53096831 0.23353810 14.23698280 -0.00060377 -0.00630880 0.00462499
N 15.81357468 6.66676323 5.78652790 -0.00394692 -0.00495274 -0.00170225
N 14.02228221 13.09983988 10.39403555 0.00297208 -0.00428154 0.00480261
N 11.80170167 6.43525545 2.47615368 0.00002135 0.00132792 0.00053403
N 15.61422818 12.89405290 18.38350749 -0.00559453 0.00992918 0.00083630
N 9.47059583 6.19277042 27.09961868 -0.00148002 -0.00598812 0.00554313
N 11.30807140 0.08783526 22.59935686 -0.00075756 -0.00423499 -0.00140860
N 13.56495292 6.67615278 30.51885056 0.00817402 0.00171108 -0.00785356
N 9.20525756 25.27840291 30.59272146 -0.00080341 -0.00537084 0.00013442
N 16.04203017 6.45400847 22.19257243 -0.00140660 0.00528172 -0.00053305
N 13.95880649 12.76499538 26.88017641 -0.00146939 0.00417204 0.00659146
N 11.95557930 5.79899803 18.92211214 0.00688542 -0.00135231 -0.00958253
N 15.89574176 0.19778589 2.12185789 0.00413520 -0.00121857 0.00150793
N 9.37869251 19.47775283 10.32939084 0.00372295 0.00134369 -0.00104289
N 11.76169139 12.97125999 5.70944026 -0.00486182 -0.00115183 0.00273904
N 13.82336815 19.23993124 13.69515910 -0.00231229 0.00520565 0.00289699
N 9.48846844 12.97666581 13.78029867 0.00385157 -0.00408321 -0.00317501
N 15.67848211 19.60072847 5.70734710 0.00103617 0.00157017 -0.00309403
N 13.69343965 0.12834544 10.71999115 -0.00279505 -0.00957063 0.00202621
N 12.21857354 19.42710893 2.46513818 -0.00199225 0.00587203 0.00167915
N 15.74471382 25.72291344 18.91726232 0.00040926 -0.00264331 0.00670321
N 9.44456580 19.07354785 27.01815648 0.00056289 0.00307901 -0.00118197
N 11.65359153 13.02369305 22.11436475 -0.00413246 -0.01322125 0.00319115
N 14.21246324 19.27040210 30.26994983 0.00057443 0.00212749 0.00463424
N 9.60636119 13.22245467 30.20294789 0.00086230 0.00798456 0.00062651
N 16.22650635 19.29475250 21.84759587 -0.00042137 -0.00526626 0.00519905
N 13.55647236 25.66608816 26.90788066 0.00270853 -0.00649942 -0.00493962
N 11.83944961 19.23714852 18.40622207 0.00103998 -0.00216540 0.01097036
N 24.75613029 13.36865268 2.52940614 0.00338502 -0.00540299 -0.00050690
N 17.90202647 6.20670009 10.42633049 0.00116418 0.00113074 0.00674440
N 20.56510701 25.76131119 5.82489775 0.00777821 -0.00406752 -0.00326801
N 22.11180312 6.84181454 13.93170234 0.00329947 0.00950379 -0.00155440
N 18.02687232 0.03326975 13.89096835 0.00286643 -0.00439033 0.00457913
N 24.60292017 7.03532594 5.90433192 -0.00264936 0.00591987 0.00143891
N 22.20836822 13.16662153 10.42780180 -0.00551124 0.00158846 0.00442810
N 20.02298937 6.78594782 2.49083351 0.00029752 -0.00243830 -0.00096570
N 24.38894677 12.64843564 18.81055791 0.00123377 0.00341958 0.00618282
N 17.99086164 6.02845002 26.90806670 -0.00087778 0.00042590 -0.00959252
N 19.87865372 25.73250483 22.34761097 0.00294599 -0.00105811 -0.01124279
N 22.00665599 6.52000080 30.43825450 0.00297021 0.00247460 0.00558349
N 17.56390530 25.64456441 30.31480912 0.00355370 -0.00279537 -0.00963710
N 24.39237470 6.36949207 22.26772526 0.00277112 -0.00964317 0.00462078
N 22.35014100 13.11897520 27.30432687 0.00230926 0.00589821 0.00354334
N 20.30832647 6.23255895 18.94105633 0.00390929 -0.00293506 0.00916054
N 24.28813281 0.05843798 2.43178512 0.00517912 -0.00521727 0.00178060
N 18.11379026 19.37874536 10.11147243 0.00555376 -0.00354752 -0.00176469
N 19.98436636 13.10003264 5.71477599 -0.00347153 -0.00405538 0.00321809
N 22.23376499 19.31932786 14.07137025 -0.00793776 0.00520619 -0.00020012
N 17.77175766 12.90309376 13.92659834 -0.00437257 0.00383075 -0.00282128
N 24.55289670 19.52150396 5.68150856 0.00139540 0.00108253 -0.00309732
N 22.23736618 0.07258979 10.75568732 0.00285486 0.00680829 -0.00840450
N 20.28525193 19.59586878 2.06685085 0.00095013 0.00147981 0.00615789
N 24.43806825 25.72848310 18.91329263 0.00373054 0.00737079 0.00746719
N 18.05174705 18.94625083 26.60026437 -0.00307798 -0.00882415 -0.00105609
N 20.56035400 12.29141531 22.39173277 -0.00996159 0.00361206 -0.00093912
N 22.39728178 19.42622020 30.54604765 0.00898704 0.00265217 -0.00385165
N 18.03500791 12.84399547 30.29321985 0.00385179 0.00017747 -0.00056582
N 24.55023040 19.28884043 21.93797605 0.00148040 -0.00009456 0.00071001
N 21.92122171 25.79419428 27.10044579 -0.00097601 0.00199635 0.00039671
N 20.00546503 19.01549991 18.60774038 -0.00708689 -0.00197857 -0.00000170
C 7.58301745 0.52572298 5.09459490 -0.00107298 -0.00536271 0.00056707
C 1.00129357 6.49050096 13.25239168 0.00013627 -0.00378113 -0.01398957
C 3.41726387 12.69449020 3.76171651 0.00286926 0.00239293 0.00440376
C 5.30437010 6.75711612 11.97331675 -0.00588229 0.00248147 -0.00059055
C 0.91043292 12.61510189 11.94129518 -0.00481426 -0.00247952 -0.00519143
C 7.60358925 6.71766854 3.80182285 -0.00274258 -0.00272978 -0.00827573
C 5.05203050 0.55515194 13.20890437 0.00208444 -0.00069908 0.01015942
C 3.28516680 6.04816528 5.21541846 0.00390176 -0.00203868 -0.00290550
C 7.12366384 1.12180835 6.19977151 -0.00422753 0.00318129 -0.00093537
C 1.28038918 5.77721166 14.44202684 0.00829305 0.00555778 0.00462189
C 3.08847156 12.00448840 2.58518286 -0.01248794 0.00201491 0.00012007
C 5.62310248 7.60134052 10.86566816 0.00395582 -0.00011171 -0.00015967
C 1.32216037 11.97770373 10.78756314 -0.00195123 0.00179168 0.00885865
C 7.51658963 7.51519599 2.67399944 -0.00683476 -0.00255922 -0.00227775
C 5.48633908 1.15398557 14.44634493 0.00168652 0.00014221 -0.00606492
C 2.65159977 5.49383221 6.27758235 -0.00231947 0.00601657 -0.00352206
C 6.16118275 2.21296021 6.03382273 -0.00015871 0.00395471 -0.00227379
C 1.98431579 4.53687821 14.36886689 0.00031086 -0.01290862 0.00342287
C 2.26076623 10.91238938 2.57186415 -0.00382456 -0.00508138 0.00111928
C 6.25106866 8.82257396 11.00999661 -0.01066430 -0.00408806 0.00189387
C 2.10445057 10.75185115 10.84280897 -0.00211026 0.00218972 -0.00452774
C 6.77218182 8.69347277 2.70347048 0.00123591 -0.00516490 0.00314500
C 6.35595808 2.21644703 14.41803562 -0.00158044 0.00499334 -0.00134097
C 1.80773726 4.33559100 6.03190387 -0.00045847 -0.00646925 0.00261670
C 5.95449534 2.80372472 4.75564719 -0.00590002 -0.00713159 -0.00378792
C 2.41754549 4.12360508 13.03039601 -0.00202352 0.00118016 -0.00511696
C 1.82559802 10.39574924 3.84369408 -0.00202858 -0.00567799 -0.00227633
C 6.54141283 9.24329754 12.31047003 0.00012589 -0.00008289 -0.00395684
C 2.40073934 10.27459333 12.11006126 0.00082705 -0.00750039 -0.00336156
C 6.33475068 9.18807914 3.95443276 -0.00255372 0.00636998 -0.00581893
C 6.58574005 2.87502987 13.23163740 -0.00313795 -0.00041556 -0.00202171
C 1.71423339 3.81158646 4.74181764 0.00392944 -0.00000481 0.00269136
C 6.46533517 2.17687594 3.65596930 0.00507198 0.00191520 -0.00247618
C 2.14080278 4.78254212 11.89653347 0.00531009 0.00203850 -0.00090266
C 2.08785955 11.15010678 5.00073384 -0.00323208 0.00071915 -0.00173874
C 6.19187423 8.40563357 13.39719306 -0.00506042 0.01038991 -0.00749827
C 1.84963444 10.85868855 13.22204647 0.00131524 -0.00040486 0.00625755
C 6.57526156 8.49133128 5.12768805 0.00217840 0.00741316 0.01107253
C 6.04696507 2.40036307 12.02788704 0.00324531 -0.00555948 0.00108674
C 2.36607196 4.45663368 3.74639952 0.00139743 -0.00381487 -0.00011627
C 7.27863468 1.00698367 3.79862536 -0.00313068 0.00274947 -0.00419959
C 1.39081781 6.05437392 11.97347458 0.00019301 -0.00446829 -0.00414964
C 2.90143199 12.27916631 4.99494051 0.00541293 -0.00284530 -0.00527687
C 5.74682086 7.07783464 13.30694708 -0.00046383 0.00537604 -0.00232357
C 1.36679193 12.13085106 13.16661906 -0.00134260 0.00107556 -0.00671300
C 7.21058812 7.23324203 5.07738570 -0.00548288 0.00044282 -0.00178291
C 5.37346247 1.13102851 11.98594053 0.00315099 0.00527012 -0.00020410
C 3.06083542 5.64991231 3.92578151 -0.00563800 -0.00614113 -0.00046403
C 6.89777699 0.39859887 1.48499801 -0.00287733 -0.00030107 0.00463040
C 1.34715721 6.45406955 9.59271681 -0.00449177 0.00141091 0.00462772
C 2.84545297 12.81547176 7.32589090 0.00023531 -0.00363728 -0.00403833
C 6.34811156 6.34660819 15.62367631 -0.00146615 -0.00003789 -0.00174526
C 1.78627628 12.71715224 15.53467466 -0.00971831 0.00180613 0.00246087
C 7.05831374 6.78896795 7.49115482 0.00044835 -0.00417921 0.00572887
C 5.56700216 0.54993671 9.62053168 -0.00280191 -0.00527432 0.00604902
C 2.97512214 6.27846813 1.61989860 0.00699086 -0.00824140 0.00285291
C 7.28293088 11.93170063 16.81974710 -0.00309292 0.00702135 0.00382367
C 1.44933640 7.55290270 8.55620267 -0.00154002 -0.00511628 0.00807408
C 2.63009219 1.00930749 7.94818242 -0.00064845 0.00754801 -0.00090247
C 6.10412065 5.29679763 32.70943815 -0.00038721 -0.00359963 0.00599565
C 1.13880319 0.77668386 32.70600366 -0.00494766 -0.00218372 -0.00697083
C 6.85707680 5.52647601 8.36319839 0.00368011 0.00795290 -0.00250105
C 5.65708274 11.74543262 8.70444943 -0.00130501 -0.00074881 -0.00323672
C 3.30160965 7.28182849 17.01050939 0.00523571 -0.00218232 -0.00564941
C 7.30000901 0.20982153 21.38123507 -0.00049202 -0.00696741 0.00291560
C 0.90672258 5.93027719 29.64784276 -0.00351234 0.00023531 -0.00576493
C 3.35386887 12.52070826 19.97026640 -0.00241951 0.00011665 0.00739701
C 5.33080776 6.75933892 28.58551148 0.01150124 0.00285524 0.00232659
C 1.35519001 12.58811402 28.08923415 -0.00018144 -0.00101839 -0.00684814
C 7.48366838 6.45390693 20.33338541 -0.00673880 0.00369300 -0.00282680
C 5.11432538 0.34924071 29.42553522 0.00513488 0.00287720 0.00779081
C 3.13368552 5.93473611 21.53442840 -0.00335535 -0.00739176 0.00122616
C 7.03075887 0.89569312 22.56157305 0.00726381 0.00627514 -0.00284879
C 1.23164816 5.32209280 30.85357722 -0.00473260 0.00246885 0.00388869
C 3.10239356 11.93079892 18.76382869 0.00267093 -0.00214628 0.00198827
C 5.73034612 7.37268131 27.40560142 -0.00049811 -0.00241698 0.00608379
C 1.50842745 11.79842688 26.97333645 -0.00353461 -0.00324542 -0.00873151
C 7.42192921 7.16131371 19.10352321 -0.00263211 -0.00181432 -0.00917866
C 5.47229443 1.04986873 30.55002131 -0.00021703 -0.00353486 0.01182131
C 2.66532288 5.19532038 22.67191379 -0.00471832 -0.00262622 0.00395349
C 6.16225211 2.02748093 22.49512067 0.00534778 0.00308351 -0.00582207
C 2.20816764 4.31216404 30.81045098 0.00447086 0.00076133 -0.00217687
C 2.36476658 10.72384382 18.77141049 0.00206244 0.00188508 -0.01591040
C 6.58799435 8.47512889 27.39166910 0.00795967 0.00644188 -0.00133762
C 2.12877267 10.51442133 27.08582329 0.00369490 -0.00032532 0.00231418
C 6.54012222 8.32566566 19.08775957 0.00078009 0.00011013 0.00367435
C 6.32674343 2.18842109 30.40352617 0.00732096 0.00008191 -0.00940208
C 1.86087901 4.00840891 22.52961872 0.00063501 0.00513556 0.00104998
C 5.90835545 2.59375178 21.22328160 0.00290491 0.00291572 -0.00497227
C 2.66342450 3.75291018 29.58029492 0.00060481 0.00203847 0.00012915
C 2.10079027 10.06978148 19.98189714 0.00539807 0.00417757 0.00504546
C 6.73407281 9.18273723 28.68544290 -0.01065983 0.00550100 0.00404521
C 2.37783595 9.98425518 28.37067284 0.00242514 0.01337956 0.00372785
C 6.16711360 8.90774739 20.33939265 0.00447181 -0.00111497 -0.00269353
C 6.67242286 2.65062244 29.10423096 0.00134526 0.00351613 0.00011271
C 1.66954328 3.57954972 21.22929583 0.00321129 0.00167395 -0.00551320
C 6.18976007 1.88246806 20.00982419 -0.01345524 -0.00466395 -0.00246783
C 2.21074314 4.27431515 28.41666221 -0.00364883 0.00123154 -0.00224249
C 2.40397518 10.70188257 21.23200467 0.00293011 -0.00280948 -0.00602176
C 6.10315008 8.62401119 29.83843387 -0.00050913 0.00075810 0.00224711
C 2.02315836 10.68544449 29.53279974 0.00179301 0.00103973 -0.00187498
C 6.27458644 8.26211959 21.53079656 0.00005235 0.00058472 -0.00352778
C 6.30918029 1.93800404 28.00610678 0.00790951 -0.00422933 -0.00604596
C 2.12992924 4.28163634 20.13437720 0.00595426 0.00179984 0.00126964
C 6.98393390 0.72733579 20.13766849 -0.00190250 0.00229183 0.00160708
C 1.40973316 5.44797957 28.45229448 -0.00013744 -0.00139197 -0.00142303
C 2.99203386 11.96774425 21.21558324 -0.00436485 -0.00434692 -0.00136614
C 5.59252856 7.30066011 29.81090631 -0.00475032 0.00054596 0.00421199
C 1.51857544 12.03751947 29.37352931 0.00010854 -0.00849159 -0.00307721
C 6.95041358 7.02842578 21.51941204 -0.00424181 -0.00693874 -0.00023998
C 5.56560836 0.77534437 28.13592968 -0.00008982 -0.00181568 -0.00037196
C 2.95018717 5.46450058 20.28238191 0.00526803 0.00546229 0.00342572
C 6.64711644 25.70295800 17.77438112 -0.00462190 -0.00144614 0.01063683
C 1.52557578 5.90394775 26.16909724 -0.00831157 0.00154187 0.00029806
C 2.73698515 12.39502435 23.63193320 0.00534933 -0.00540532 0.00149948
C 5.95268329 6.70477799 32.07749413 0.00606858 -0.00474290 0.00246734
C 1.66554208 12.82648764 31.66346927 -0.00834218 0.00151903 -0.00050293
C 6.68441750 6.45675095 23.92262716 -0.00041253 -0.00340125 -0.00213186
C 5.79400792 0.18495895 25.82876157 0.00087822 0.00331096 -0.00017417
C 2.88730903 6.16463482 17.91668157 -0.00158429 0.00489860 -0.00230687
C 7.11793348 12.21584027 0.39945561 0.00039062 -0.00051416 0.00239354
C 1.60958124 7.09512528 25.16298103 0.00036942 0.00476913 0.00846175
C 2.66364112 0.98156518 24.42510393 -0.00244612 -0.00423851 -0.00075580
C 5.97068069 5.17855668 16.56343778 0.00308420 0.00099192 -0.00085784
C 1.25612129 1.04049714 16.33194930 0.00515922 0.00282725 0.00963031
C 6.70617414 5.16229691 24.73768211 0.00464514 -0.00381876 -0.00539264
C 5.56204149 11.84132192 25.19353597 -0.00178305 -0.00983141 0.00111333