1920
Time=39000.00000002 pbc="T T T" Lattice="25.59890232 0.00000000 0.00000000 0.00000000 25.60527269 0.00000000 0.00000000 0.00000000 32.96003751" energy=-12247.42983478 virial="-47.71541013 2.38543640 5.56054977 2.38543640 -36.63141970 22.20363641 5.56054977 22.20363641 -34.98263705" stress="0.00004614 0.00009884 0.00033215 0.00009884 0.00057098 0.00107491 0.00033215 0.00107491 0.00068614" Properties=species:S:1:pos:R:3:vel:R:3
O 5.97059594 2.81643682 7.09704619 -0.00036202 0.00012917 -0.00415551
O 3.05045209 3.72813102 15.40718918 0.00099131 0.00337720 -0.00060833
O 1.32334999 10.65798045 0.95423884 0.00732624 0.00225726 -0.00521157
O 6.59160264 9.41180151 9.94697888 -0.00218271 -0.00553549 0.00052456
O 2.89863728 10.16730999 9.25785490 0.00382673 -0.00516193 0.00640356
O 5.78438463 9.40086060 1.21527757 0.00559237 0.00183779 -0.00114811
O 7.04706193 2.80533811 15.35876668 0.00362284 -0.00475587 0.00008339
O 1.33336438 4.08019182 7.50751831 0.00321566 -0.00397459 0.00217495
O 6.74650831 1.26748272 17.45047297 0.00039194 -0.00415980 0.00772124
O 2.00144552 5.46501612 9.49237280 0.00288588 0.00532183 0.00074292
O 2.15659387 11.73058080 7.28206098 -0.00915466 -0.00050935 -0.00274163
O 6.29861026 7.73376480 32.22256305 -0.00118859 -0.00566052 -0.00719805
O 2.05873852 11.85049793 31.68456975 0.00696433 -0.00630052 0.00105785
O 6.66836079 7.94151477 7.71843634 -0.00073765 -0.00217636 0.00746868
O 6.23461982 1.29694939 9.10999779 -0.00131622 0.00354424 -0.00102444
O 2.20016048 5.05255039 17.43454813 0.00000885 0.00126102 0.00212904
O 5.37064561 2.68102109 23.48785073 -0.00472170 0.00006015 -0.00175407
O 2.63865240 3.79016783 32.11776025 -0.00130083 -0.00136346 0.00126769
O 1.49813619 10.00797965 17.42387060 0.00510850 0.00362618 -0.00158368
O 6.98673137 8.79083981 26.00902347 -0.00949259 0.00139349 0.00208285
O 2.82918825 9.76581306 25.86443275 -0.00203647 -0.00604780 0.00102250
O 5.60967839 9.19280158 17.93080639 0.00176959 -0.00640424 -0.00165230
O 7.17125294 2.76546090 31.67268476 0.00343309 -0.00338988 0.00250817
O 1.74925975 3.73931330 23.62211155 -0.00612889 -0.00260866 -0.00028337
O 6.44378673 1.51010373 0.81079048 0.00487959 -0.00072457 0.00500856
O 2.45286973 4.93736258 25.96725216 0.00208821 0.00485735 -0.00074078
O 2.45648142 11.14198120 23.63133897 0.00146519 0.00068280 -0.00017615
O 6.32081425 7.58898786 15.95750942 -0.00861520 -0.00187474 0.00216855
O 1.68195032 11.78763778 15.43765384 0.00216062 -0.00045542 -0.00503874
O 6.51481887 7.48736338 23.95173996 -0.00234220 0.00296615 0.00039298
O 6.40162471 1.30264451 25.53518648 -0.00098186 -0.00019060 -0.00701842
O 2.17306147 5.34853488 1.06819905 -0.00388902 0.00394644 -0.01109096
O 5.69351927 15.49514430 6.64508724 -0.00233416 0.00313324 -0.00136978
O 2.94953027 16.64712755 14.95354135 -0.00048837 0.00170153 -0.00000515
O 1.44187973 22.83488213 1.92607410 -0.00158544 -0.00580775 0.00244152
O 6.87702245 22.03270289 9.16370808 -0.00492102 0.00267610 0.00713378
O 2.69754252 22.53940567 9.70844738 0.00082678 -0.00056726 0.00114049
O 6.70012100 22.18679331 1.12295886 0.00264836 -0.00202317 0.00510893
O 6.76557727 15.45896157 15.30849634 0.00070551 -0.00090661 -0.00241583
O 1.35312944 16.89272380 6.87826118 0.00621463 0.00147337 0.00560838
O 6.26072641 13.92486058 17.14367583 -0.00632597 0.00436652 -0.00311501
O 2.33475612 18.25198221 8.98983596 0.00143888 0.00031014 -0.00599613
O 2.34808058 24.54337875 7.82821135 0.00075441 0.00267993 -0.00823703
O 6.23113611 20.50863229 32.12757193 0.00686613 -0.00284637 -0.00193822
O 2.16075926 24.03469913 32.61430657 -0.00369021 -0.00391701 0.00048762
O 6.31821793 20.42005336 7.22709498 0.00142191 0.00143307 0.00150168
O 5.99499494 14.38327125 9.00413109 -0.00233032 -0.00044689 0.00046762
O 2.74931783 17.94586341 17.05738602 -0.00005726 -0.00586638 -0.00413037
O 6.24362415 15.24051633 23.35407720 -0.00022985 0.00390499 0.00114282
O 2.72329234 16.92114021 31.50421749 -0.00358932 0.00462658 -0.01224951
O 1.69511746 22.85733264 17.87758893 -0.00343572 0.00759937 -0.00335688
O 6.96483696 21.98134393 25.94487854 0.00049075 -0.00114822 -0.00219510
O 2.74742603 22.74799872 26.29634140 -0.00811045 -0.00186019 -0.00482746
O 5.82767735 21.89492571 17.63604461 -0.00724587 -0.00175502 -0.00658399
O 7.15256413 15.75174927 31.54999391 0.00178967 0.00228225 0.00598631
O 2.05091238 16.03608631 23.28390957 0.00594171 0.00592596 0.00223149
O 6.69745589 14.21510778 0.57406664 0.00444046 -0.00476431 0.00047027
O 1.82746265 17.81923613 25.31922878 0.00010475 0.00237308 -0.00458162
O 2.30308756 24.33414909 24.35601914 0.00004886 0.00004829 -0.00702318
O 6.51457990 20.67302001 15.44466707 0.00237891 -0.00052313 0.00447811
O 2.18908463 24.30940668 15.82891168 0.00041316 0.00192331 0.00117790
O 6.73012345 20.65176069 23.87977964 -0.00214741 -0.00087655 -0.00276042
O 6.64027060 13.92714850 25.53824399 -0.00793718 -0.00770172 -0.00208451
O 2.48643658 18.17381713 0.80644699 0.00130044 -0.00284548 -0.00767276
O 14.23135315 2.36909904 7.34927617 0.00327483 0.00109737 -0.01026915
O 11.41031707 3.48015967 14.95052786 -0.00002787 -0.00110173 0.00027151
O 10.26260748 10.37949250 0.73493008 0.00030241 0.00137297 0.00628223
O 15.41306789 9.02792606 9.25172009 0.00584357 -0.00794487 -0.00218003
O 11.34104386 10.16006802 9.32447089 0.00165882 -0.00096653 -0.00088466
O 14.60321385 9.23962369 1.38751028 0.00045867 -0.00373962 0.00078034
O 15.81249968 2.23791415 15.44473875 -0.00485516 -0.00469684 0.00333667
O 10.01015374 3.46138005 6.76409819 0.00004898 0.00401784 0.00047311
O 15.02048895 0.89769334 17.50124724 -0.00171944 -0.00173201 -0.00088815
O 10.13414561 4.95461274 8.77076858 0.00024515 -0.00228248 -0.00007529
O 10.76775110 11.38705525 7.03861471 -0.00021301 0.00531613 0.00661700
O 14.80297890 7.94214306 32.04192635 -0.00175749 0.00286132 0.00741118
O 10.84273022 11.84355813 31.63380165 -0.00476869 0.00281980 -0.00616690
O 15.41176483 7.32049473 7.34616922 0.00127832 0.00463497 -0.00283930
O 14.90774372 0.94658322 9.29836562 0.00037500 0.00220431 -0.00146035
O 10.92940909 5.17633954 17.15606210 -0.00122907 0.00078710 -0.00041247
O 14.46136551 2.41557829 23.67837339 0.00136758 -0.00684235 0.00068155
O 11.14826643 3.67193237 31.72191453 -0.00404632 0.00531025 0.00677474
O 10.31984901 9.83478024 17.55917571 0.00080591 -0.00239766 0.00744841
O 14.89083752 9.20705294 25.85041391 0.00196549 -0.00186580 0.00112956
O 11.57970330 9.89341461 25.74680145 0.00379417 -0.00301881 -0.00641246
O 14.88484180 8.67111973 17.44529070 -0.00205833 -0.00849717 -0.00919019
O 15.02734209 3.11629741 31.70725390 -0.00571417 -0.00427978 0.00187526
O 10.02735344 3.71408190 23.31465306 -0.00793975 0.00115305 -0.00370405
O 14.83826566 1.88870704 1.03601297 0.00147710 -0.00031335 0.00691855
O 10.95863475 5.18083491 25.38909840 -0.00333589 0.00506444 0.00515614
O 10.94136165 11.41713988 23.75001657 0.00319139 0.00323354 -0.00485808
O 15.36636761 7.05826457 15.42493176 0.00381088 0.00576830 0.00058410
O 10.53003659 11.46706576 15.50095751 0.00582174 -0.00238938 -0.00027697
O 15.13532252 7.55496814 23.83765468 0.00115415 0.00183398 -0.00144637
O 15.05759785 1.08513521 25.76654174 0.00062255 0.00310090 -0.00358468
O 10.81955422 5.48356559 0.68508544 -0.00068906 0.00086565 0.00353891
O 14.03063377 15.57148817 6.55298138 0.00208360 -0.00007371 -0.00815604
O 11.16059769 16.41818656 15.10077540 -0.00168517 -0.00373419 -0.00177148
O 10.48205152 22.72446662 1.41177275 -0.00394977 -0.00159497 -0.00252042
O 15.71554728 21.61418352 9.64158472 -0.00065579 0.00088316 -0.00289789
O 11.21478778 22.82993279 9.73716458 0.00020073 0.00695780 -0.00741104
O 14.22927054 21.97449762 1.36403848 0.00015829 0.00237761 0.00385066
O 15.48407437 15.19130178 15.12845348 0.00244301 -0.00382463 0.00221710
O 9.83201205 16.37086136 6.86160799 -0.00015497 -0.00008455 -0.00537899
O 14.73235997 13.55385298 17.03589496 0.00229693 -0.00402853 -0.00429436
O 10.45012482 17.84181275 8.94797052 0.00166926 0.00011852 -0.00249574
O 10.74987230 24.28935499 7.73125517 0.00692443 0.00395022 0.00591299
O 14.98198158 20.50663064 32.18859861 0.00380974 -0.00591133 0.00015464
O 10.60534578 24.34037682 32.36639968 0.00884794 -0.00119695 -0.00367841
O 14.89246988 20.37879614 7.57076939 -0.00307513 -0.00873056 -0.00596341
O 14.42677754 14.37811486 8.81563232 0.00210840 -0.00196922 0.00194045
O 10.69236349 17.85740079 17.21941506 -0.00526629 -0.00070369 0.00352553
O 14.74428299 15.63986449 23.11237109 -0.00293624 -0.00112458 -0.00131191
O 11.34176892 16.56053708 31.56134454 0.00161560 0.00348337 0.00031704
O 10.03589460 22.74765938 17.97803621 0.00039333 0.00104253 -0.00286192
O 15.84924733 21.72829030 26.03854397 0.00001087 -0.00306461 0.00126160
O 11.12464778 22.89074186 26.28916272 0.00128497 0.00204536 0.00176842
O 13.97780403 21.97133725 17.80350890 0.00372713 0.00635317 0.00620042
O 15.28753821 15.32491315 31.31940039 -0.00292208 0.00538320 -0.00044470
O 9.71914448 16.41835072 23.35228704 0.00439734 0.00615881 0.00393066
O 14.96956231 14.01593105 0.56690676 0.00291627 0.00567679 0.00814372
O 10.52574903 17.65943415 25.41793833 0.00558620 0.00295503 -0.00249244
O 10.73926559 24.24564367 24.08421953 0.00547242 0.00060477 -0.00333993
O 14.41012101 20.55759297 15.65574658 0.00402811 0.00059064 -0.00295302
O 10.44267082 24.22382848 15.92149942 -0.00179387 0.00591262 0.00322631
O 15.46464837 20.61608193 23.79237430 0.00436828 0.00498330 0.00211302
O 15.66586486 13.94831659 25.21170300 0.00279082 -0.00095388 0.00011519
O 11.12781155 17.84909101 0.82610749 0.00245918 0.00689895 0.00197480
O 23.02027500 2.72491753 7.20003451 -0.00164102 0.00005541 -0.00409493
O 19.68275011 3.65891416 15.15204042 -0.00007898 0.00116037 -0.00208869
O 19.36057143 10.10073470 0.49578314 -0.00253533 -0.00035594 0.00102738
O 23.57732042 9.42778369 9.73881966 0.00491942 0.00053067 -0.00149124
O 19.80703916 9.79208067 9.44066724 -0.00654870 0.00070112 -0.00134580
O 22.82309736 9.05522088 1.17730313 0.01196494 0.00031818 -0.00215531
O 24.39082096 2.51002727 15.74244599 0.00040458 0.00464517 -0.00059666
O 18.55740807 3.58853202 6.74563126 0.00034674 0.00182922 0.00249765
O 23.50188934 1.28409384 17.97822783 0.00302898 -0.00339795 -0.00244938
O 18.75028871 4.98398962 9.01989151 -0.00622034 -0.00180586 -0.00315172
O 19.93070904 10.89433644 6.93027384 0.00620934 0.00085677 0.00024177
O 23.69606912 7.51036602 32.03915263 -0.00300915 0.00067773 0.00008953
O 19.47394329 11.83244184 31.54416027 -0.00092679 -0.00190272 0.00279680
O 23.40937969 7.94288294 7.49831961 -0.00115800 0.00023747 -0.00124063
O 23.06614649 1.40337579 9.54188856 0.00053414 0.00839526 -0.00327728
O 19.12733919 4.98784304 17.31836913 -0.00346474 -0.00639347 0.00387589
O 22.61874276 2.14497548 24.13892778 0.00125422 0.00000245 0.00456593
O 19.96386635 3.56543787 31.69918197 0.00099893 -0.00034446 0.00269668
O 18.84861257 10.00578263 17.17603181 -0.01062577 0.00084439 -0.00518768
O 23.75303934 9.18306503 25.80375485 -0.00150224 -0.00419248 -0.00314791
O 19.88990838 10.14355081 25.64045553 0.00059031 -0.00192693 0.00349345
O 23.22209901 9.15205326 17.85609911 -0.00108530 -0.00523015 -0.00391100
O 24.15610971 2.48582477 31.94679747 -0.00088043 -0.01152513 -0.00705979
O 18.74999810 3.76870357 23.51528045 -0.00695460 0.00253984 0.00642067
O 23.60714317 1.13319378 0.99894054 0.00445651 -0.00713642 0.00101289
O 19.07682520 5.42547718 25.68743618 -0.00599579 -0.00481666 0.00210045
O 19.12580581 11.61211287 23.56976382 0.00224964 -0.00190704 -0.00666122
O 23.28302529 7.71201228 15.81732890 0.00564377 -0.00138289 -0.00250104
O 19.64988147 11.85101498 15.49022317 -0.00351078 -0.00216812 -0.00098103
O 23.66475560 7.32477122 23.95155396 -0.00072959 0.00445896 -0.00662242
O 23.59043778 0.64187101 26.08533092 0.00055697 -0.00010204 -0.00028513
O 19.23435734 4.99329074 0.72202144 -0.00493011 0.00529544 0.00297510
O 22.84969499 15.78987901 6.49356869 0.00360820 0.00468568 0.00098742
O 19.56824664 16.29217172 15.00607442 -0.00326741 -0.00023679 0.00368542
O 18.04711270 23.29529440 1.91676387 0.00550855 -0.01096336 0.00662484
O 24.02094923 22.00977876 9.75319073 0.00316214 0.00324796 0.00016224
O 19.25609013 23.21972345 9.95685685 0.00486935 0.00674636 0.00444912
O 22.66864221 21.99016278 1.53817796 0.00357658 -0.00013027 -0.00112315
O 23.94289790 15.73749721 14.81541214 -0.00574519 -0.00091550 0.00717635
O 18.81229187 16.49617594 7.05736644 0.00802949 0.00107440 0.00061870
O 23.29717681 14.05664057 17.11298513 -0.01366116 -0.00245935 0.00057014
O 19.21852405 18.11751064 8.92546954 0.00450706 -0.00283995 0.00921304
O 19.47585829 24.76500911 7.89582748 0.00079811 0.00418211 0.00109019
O 23.29101667 20.52912618 32.25273228 -0.00667087 0.00197438 0.00644799
O 18.94942349 24.27421464 32.75935673 -0.00099891 -0.00283034 -0.00662526
O 23.61451355 20.55799968 7.71453660 0.00572720 -0.00227563 -0.00328523
O 23.57800000 14.28571339 8.57734083 0.00327223 -0.00520689 0.00780369
O 19.13899910 18.15899616 17.19438953 0.00102485 0.00210404 -0.00578994
O 22.87406946 15.63614095 23.17753913 0.00183901 -0.00479392 0.00268145
O 18.88939608 17.20036123 31.75974579 0.00367579 -0.00507215 -0.00432039
O 18.79459275 22.63175669 18.25042393 -0.00202879 0.01026790 -0.00452380
O 24.21253295 21.61216867 26.10703292 0.00048264 0.00622799 0.00481509
O 19.49480634 22.93685035 26.46392436 -0.00438192 0.00984090 0.00520133
O 23.37984929 21.96003727 17.63326128 0.00019940 -0.00518249 0.00075903
O 23.08948873 15.73253249 31.20793953 0.00210071 0.00135778 -0.00270621
O 19.10109448 16.55049783 23.52978817 -0.00089828 -0.00427654 -0.00188434
O 22.71084374 13.99826266 0.41970974 -0.00431806 -0.00200616 -0.00613378
O 19.51064049 18.26569596 25.47756950 0.00158758 0.00053735 0.00027770
O 18.78164500 24.38348890 24.34171911 0.00081285 -0.00320278 0.00272560
O 23.65200973 20.35276339 15.69174653 0.00290255 0.00490881 0.00034104
O 19.26823827 24.29590319 16.24322536 -0.00509778 -0.00753165 -0.00777378
O 23.32736975 20.43633811 24.06053876 -0.00135304 -0.00048687 -0.00042910
O 23.75923554 13.95351884 25.30948001 0.00086118 0.00088257 0.00331743
O 18.88865488 18.53188807 1.07554688 -0.00280422 -0.00419055 -0.00945655
N 7.34323298 12.68885767 2.21059963 0.00389737 -0.00189317 -0.00109297
N 1.04155553 6.49144606 11.20086803 -0.00133077 0.00046841 -0.00135342
N 3.37920002 0.03918456 6.14807867 0.00173344 0.00239040 0.00017735
N 5.16322347 6.46336402 14.42816783 0.00313548 -0.00466438 0.01115748
N 1.11732146 25.40725364 14.10523853 0.00388916 -0.00787439 -0.00951382
N 7.43717521 6.77118094 5.93902142 0.00490624 -0.00183378 -0.00106190
N 5.11877008 12.96869340 10.53797535 -0.00065074 0.00702678 -0.00111293
N 3.27724055 6.42620790 2.77355245 0.00659817 -0.00325983 0.00282774
N 7.69646839 12.86615336 18.56226168 0.00002410 0.00482307 -0.00037419
N 0.88468632 5.93572699 27.34641147 -0.00034319 0.00318753 0.00218644
N 3.13348659 25.56183119 22.53073730 -0.00309612 0.00922580 -0.00340520
N 5.49984879 6.21303706 30.66660188 -0.00243207 -0.00376934 -0.01004706
N 0.95776104 25.10854982 30.93189226 -0.00129453 0.00048007 0.00025844
N 7.73859318 6.45723635 22.29591416 0.00364038 0.00115295 -0.00019856
N 5.37800147 12.95529385 27.21617620 -0.00559326 0.00248213 -0.00611463
N 3.40365862 6.27083364 18.92549660 -0.00506641 -0.00294807 0.00415968
N 7.68227500 0.36431257 2.42817701 -0.00133330 -0.00797070 0.00207157
N 1.26108550 19.38475900 10.61127137 -0.00690848 -0.00768231 -0.00030991
N 2.89358211 12.97670156 5.60295742 0.00392995 0.00468946 0.00065052
N 5.30321820 19.48275304 13.95812330 -0.00469206 0.00003379 0.00242753
N 0.83988173 12.79825303 13.52453968 -0.00177875 -0.00295007 0.00045107
N 7.52675298 19.18612130 5.64978074 -0.00441425 -0.00115577 -0.00196495
N 5.11540704 0.14120355 10.83330819 0.00064015 -0.00392759 0.00111611
N 3.12221952 19.58151775 2.41827329 -0.00261231 -0.00786750 0.00119975
N 7.57043698 0.11752943 19.22725887 0.01035947 -0.00188527 0.00695182
N 0.90343013 19.19767675 26.98942823 0.00586759 -0.00141019 -0.00150454
N 3.37968841 12.42697825 21.99329258 -0.00787242 0.00328928 -0.00540573
N 5.24238777 19.27707948 30.44975028 0.00028546 -0.00398026 -0.00509603
N 0.91386761 12.82115527 30.00039464 0.00072338 0.00683733 -0.00212661
N 7.58161314 19.29052691 22.25696433 0.00037675 -0.00021580 0.00517509
N 5.18967131 0.17301214 27.19612502 -0.00289921 -0.00549817 0.00538764
N 3.05124513 19.32614803 18.84596924 -0.00273919 0.00214953 -0.00324688
N 16.18091678 12.99129023 2.15021032 0.00365066 -0.00366378 -0.00051106
N 9.24998642 6.16891382 10.58561374 0.00040552 0.00633145 0.00283422
N 11.92763574 25.43904136 6.16198176 0.00383911 -0.00213885 -0.00040483
N 14.04144132 6.12997031 13.69250610 0.00300891 0.00037875 -0.00193453
N 9.49835235 25.47331001 14.27602035 0.00848001 -0.00437911 -0.00719886
N 15.92794620 6.01774738 5.58176253 0.00271607 0.00724888 0.00032200
N 13.80296775 12.94456954 10.41099446 0.00464747 -0.00630438 0.00481108
N 11.59204592 6.58296200 2.47638979 -0.00209657 0.00305376 0.00318845
N 16.18361723 12.65652339 18.60959026 -0.00054486 0.00634485 0.00041018
N 9.73207497 6.27047741 27.03709604 0.00344343 0.00374933 0.00112184
N 11.74588952 25.53264071 22.56822219 -0.00669495 0.00360758 0.00075570
N 13.83936805 6.48163635 30.55915235 -0.00203963 0.00597426 -0.00828017
N 9.64574101 0.02870385 30.78620207 0.00559726 -0.00515432 -0.00316760
N 16.24066903 6.25016611 22.29245775 0.00151671 -0.00143877 0.00095079
N 14.07971962 13.01872739 26.51344747 0.00202866 -0.00662399 0.00328440
N 11.95508858 6.38614316 18.81115734 0.00168440 -0.00143168 0.00377187
N 15.83774097 0.40171015 2.40563436 -0.00062136 -0.00047353 -0.00209468
N 9.24991524 18.88537720 10.56338618 -0.00445491 0.00251276 -0.01005320
N 11.83899360 12.73195816 5.49699351 0.00347157 0.00080372 0.00384991
N 13.66889663 19.07962095 14.08712563 -0.00006743 0.00330480 -0.00101335
N 9.30294677 12.46504162 13.89922461 -0.00158935 -0.00000087 -0.00088494
N 15.84679042 19.27989874 5.79958135 0.00074759 -0.00353996 -0.00393417
N 13.66678756 25.54398833 10.91263999 -0.00305350 0.00154875 0.00586206
N 11.76405846 19.24942401 2.47202873 -0.00025664 0.00006927 0.00677264
N 16.05120014 25.31848025 19.13675990 -0.00247251 -0.00272739 -0.00445102
N 9.62650022 19.12582946 27.00878517 0.01003862 0.00349192 -0.00310874
N 12.01839691 12.65728083 22.08803262 0.00645872 -0.00291903 -0.00100312
N 13.73499671 19.45049225 30.54634647 0.00682547 -0.00201657 -0.00244115
N 9.36341170 12.55091984 30.05671701 -0.00540800 0.00218222 0.00267556
N 16.34497323 19.47740286 22.09345411 0.00218599 -0.00716631 0.00015161
N 13.76061716 0.07012498 27.30671857 0.00002104 -0.00250926 0.00081407
N 11.90388954 18.87632507 18.95664348 -0.00271399 -0.00048539 0.00309107
N 24.15732113 12.93988219 1.88791583 0.00731883 0.00383945 -0.00064343
N 18.13122813 6.47103277 10.71228983 -0.00346523 -0.00231100 0.00577238
N 20.38455695 0.34056513 6.23343184 0.00352294 0.00514076 -0.00025455
N 22.22737646 6.42270004 14.29704931 -0.00049295 -0.00519696 -0.00099330
N 18.08896924 0.03204935 14.82069420 0.00265676 0.00022647 -0.00558298
N 24.50220908 6.59564917 5.96499966 0.00098792 -0.00377408 -0.00046841
N 22.34555288 13.14245240 10.12729612 -0.00691473 -0.00005477 0.00940215
N 20.25099677 6.28132037 2.25663742 0.00121067 0.00025936 -0.00521341
N 24.41876113 12.94759787 18.66849018 0.00441497 -0.00192664 -0.00319584
N 17.87466073 6.29657507 27.40917737 -0.00021293 -0.00260119 -0.00224126
N 20.28808487 25.27675910 22.81406266 0.00497903 0.00085606 0.00134873
N 22.52774824 6.31636675 30.40240019 0.00222264 0.00005863 -0.00010833
N 18.04607277 25.55305049 31.08133062 -0.00313507 -0.00040085 0.00434700
N 24.57958616 6.17757810 22.24651643 -0.00140924 0.00671737 -0.00043642
N 22.48928031 12.66476909 26.72970291 -0.00353025 -0.00282067 0.00584559
N 20.41441802 6.18439252 18.88006496 0.00237897 0.00522603 -0.00266555
N 24.51849311 25.46671059 2.70364218 0.00009827 0.00265524 -0.00573516
N 18.49517071 19.46467695 10.67260234 0.00200899 0.00181429 0.00045664
N 20.34776706 12.53283781 5.36550585 -0.00213697 0.00065011 0.00252510
N 22.29638945 19.34659747 14.12426611 0.00080295 0.00071422 -0.00341401
N 18.13533569 12.56126682 13.91552796 -0.00087785 -0.00106922 0.00150242
N 24.25966107 19.17501235 6.04288452 0.00123608 0.00191675 -0.00110597
N 22.11295590 0.25014860 11.23894120 0.00113883 0.00036776 -0.00076603
N 20.12898045 19.58462588 2.65369688 0.00254868 -0.00016142 0.00488882
N 24.90690155 0.27773421 19.45608144 0.00475775 0.00196961 -0.00062366
N 18.10916671 19.57207647 26.87907019 0.00339712 -0.00672833 0.00814500
N 20.50230420 12.43150499 21.94816286 -0.00499486 -0.00539697 0.00066297
N 22.21960221 19.23610532 30.64708738 0.00152799 0.00316945 0.00824334
N 17.99437891 12.84822435 30.04124086 0.00205878 -0.00422560 -0.00506574
N 24.48287523 19.29719799 22.42407800 0.00784974 0.00503760 0.00504446
N 22.21214083 25.45151695 27.63645920 0.00598169 0.00590401 -0.00263078
N 20.26495008 19.27669621 18.78904578 0.00237520 0.00333073 0.00101698
C 7.60340048 0.40288144 4.85301132 0.00193045 0.00061768 -0.00654271
C 1.14954937 6.01699033 13.51913047 0.00099097 0.00541392 0.00004738
C 3.11084052 12.76749998 3.32895602 0.00165738 0.00128667 0.00493723
C 5.01397503 6.82424864 12.00624401 -0.00686829 0.00136571 -0.00701371
C 0.91500665 12.42053265 11.24278793 0.00265497 0.00272764 -0.00096121
C 7.58729433 7.13720914 3.59894710 -0.00539218 -0.00198429 0.00028559
C 5.34727771 0.33298336 13.19326642 -0.00042339 0.00316224 0.00307488
C 3.24378618 6.18753585 5.18946152 -0.00074508 0.00348453 -0.00714422
C 7.24995204 1.08142192 6.03019923 0.00370394 -0.00193396 -0.00098868
C 1.49200820 5.16482686 14.53441219 -0.00049342 -0.00601996 -0.00085133
C 2.83437432 12.10348714 2.15237674 -0.00503620 -0.00178992 -0.00370785
C 5.35145863 7.57148040 10.86579204 0.00272908 -0.00198693 -0.00172385
C 1.45505010 11.78028396 10.16160636 -0.00539314 0.00005665 -0.00308320
C 7.20160356 7.82188540 2.43967267 0.00140843 -0.00036260 -0.00199973
C 5.68386999 1.02516323 14.36062604 -0.00223725 -0.00118251 -0.00500219
C 2.87509118 5.63040281 6.38176675 0.00577601 0.00245686 -0.00087384
C 6.46324182 2.25706100 5.98224300 0.00045684 -0.00357461 0.00110733
C 2.38069456 4.10827044 14.34755282 -0.00081732 0.00200341 -0.00291756
C 1.91490680 10.98285319 2.12662057 0.00171106 0.00077228 -0.00395882
C 6.16756003 8.69650218 11.02636387 0.00664555 -0.00199124 0.00167720
C 2.30148609 10.65492092 10.33794245 0.00200676 -0.00607003 -0.00041515
C 6.35702536 8.94733690 2.46020296 -0.00065562 0.00286497 0.00009736
C 6.46831430 2.21659088 14.28542701 0.00064380 -0.00053048 -0.01210492
C 1.95627786 4.46192015 6.35405911 0.00188651 -0.00513344 0.00019539
C 6.12597322 2.80235543 4.68340432 0.00163026 0.00231142 -0.00241559
C 2.44017444 3.65691264 12.98547269 0.00095944 -0.00224289 0.00192111
C 1.64560299 10.33534195 3.29900421 0.00528072 -0.00610871 0.00230760
C 6.61148829 9.14714297 12.28067274 -0.00284009 0.00189250 -0.00903487
C 2.42306672 10.07110593 11.65828637 -0.00622419 -0.00764739 -0.00041531
C 5.91461918 9.32011846 3.76800826 -0.00247062 -0.00348915 -0.00803850
C 6.62105666 2.76695975 13.05667957 -0.00456552 0.00238750 -0.00112000
C 1.80593611 3.90629433 5.11804182 -0.00442346 -0.00284339 0.00543049
C 6.48272784 2.15471835 3.54391161 -0.00206903 0.00035715 0.00330523
C 2.07693342 4.41237006 11.94970781 0.01093911 -0.00558879 -0.00291668
C 1.97164044 10.86392411 4.57690417 0.00092231 0.00531638 0.00789584
C 6.23632653 8.44624797 13.41980592 0.00594960 -0.00417718 -0.00248600
C 1.86233098 10.67664251 12.71591488 -0.00243631 0.00821924 0.00239487
C 6.35128403 8.74722478 4.90449920 -0.00171875 0.00572771 -0.00545764
C 6.14182677 2.17864066 11.86717464 -0.00003849 0.00055316 -0.00223436
C 2.28399127 4.40752298 3.87787800 0.00020473 0.00388540 -0.00242350
C 7.20926454 0.93099192 3.63643147 -0.00342598 0.00134616 -0.00300935
C 1.44487905 5.66300587 12.19849493 -0.00253439 -0.00438019 -0.00351354
C 2.65083771 12.18722822 4.53621354 -0.00906315 -0.00319954 -0.00332923
C 5.53363162 7.23381346 13.29678035 -0.00049248 0.00698029 -0.00597989
C 1.26554367 11.96661601 12.51859499 0.00207163 0.00643334 0.00326573
C 7.10470623 7.52252056 4.84293268 -0.00303152 -0.00201303 0.00865570
C 5.56457857 0.86598681 11.92496043 0.00240445 0.00334680 0.00844530
C 2.92230616 5.66935865 3.93185201 0.00006083 -0.00329312 -0.00950486
C 7.06642238 0.50967462 1.21840247 -0.00636848 -0.00615848 0.00044627
C 1.35091635 6.40471012 9.86305091 -0.00503965 -0.01011129 0.00925030
C 2.49190467 12.78726836 6.86267484 -0.00573090 -0.00141169 0.01109664
C 5.77396179 6.57559239 15.58769587 0.00603174 0.00409960 0.00672921
C 1.28517020 12.77590474 14.83996690 -0.00235787 -0.00578712 -0.00093126
C 7.01812218 6.88340030 7.20140130 -0.00203548 0.00956005 -0.00656071
C 5.63015023 0.24972409 9.53287171 -0.01208177 -0.00110388 -0.00081931
C 2.68109247 6.37311066 1.53710732 -0.00452831 0.00053570 0.00767636
C 7.09893035 11.73401149 16.54312282 -0.00577805 -0.00262346 0.00921978
C 1.04900345 7.62872961 9.01762736 0.00608799 -0.00411323 -0.00105087
C 2.88186966 1.18540403 8.20366911 0.00198881 0.00143583 0.00447727
C 5.65477775 5.47784233 32.90600393 0.00516010 -0.00260877 0.00340792
C 1.38237210 0.66023222 0.09360670 0.00209514 0.00122044 0.00955353
C 6.84913148 5.62815804 7.95763485 0.00176246 -0.01003166 0.00303402
C 5.57710123 12.07498666 8.30271266 -0.00704468 0.00147859 0.00096721
C 2.81368367 7.23733527 16.82893113 0.00872773 0.00617642 0.00029205
C 7.50935390 0.54223449 21.62381787 0.00057911 0.00291764 -0.00600807
C 0.91686762 5.91259315 29.75321360 -0.00845542 -0.00201565 0.00605621
C 3.35517194 12.12231661 19.68812811 0.00170262 0.00047403 -0.00371543
C 5.28382198 6.38096477 28.23094697 -0.00316671 0.00888826 -0.01073543
C 0.89050498 12.32620534 27.64926207 -0.00382086 -0.00117995 -0.00394191
C 7.77527367 6.97330085 19.98102269 0.00035067 -0.01049794 -0.00702551
C 5.26142502 0.48670130 29.63798740 -0.00533251 0.00221970 0.00573980
C 3.40350796 5.97278284 21.38393914 0.00182786 0.00591050 -0.00289743
C 7.19042539 1.28788856 22.74343164 0.00123968 0.00119467 -0.00656926
C 1.27671584 5.38870505 30.98734109 0.00608794 0.00306695 -0.00126421
C 2.88824106 11.61282302 18.54325635 -0.00706693 -0.00653917 0.00359694
C 5.74159845 7.04673000 27.08617782 0.00008018 -0.00306052 -0.00415340
C 1.45088879 11.60544340 26.63341304 0.00538044 -0.00355065 0.00065913
C 7.19119425 7.55582533 18.87656144 -0.00814087 0.00200985 -0.00053064
C 5.72196497 1.15515804 30.73709139 -0.00351691 -0.00323395 0.00792271
C 3.07930361 5.31275434 22.49031595 -0.00216873 -0.00544261 0.00001113
C 6.16508513 2.29607128 22.50827848 0.00414624 -0.00244795 -0.00266115
C 2.07172814 4.18608561 30.99021261 0.00348175 0.00508775 0.00734767
C 2.01522101 10.50878545 18.54724803 -0.00269321 0.00480352 0.00358151
C 6.49386462 8.22061722 27.09812548 -0.00751821 -0.00274404 -0.01154630
C 2.30118111 10.49346432 26.87315199 -0.00177666 0.00026919 -0.00110006
C 6.37874568 8.72591244 18.97904969 0.00488714 0.00910436 0.00035571
C 6.61064919 2.29419951 30.56350590 0.00698934 -0.00035236 -0.00319718
C 2.19540462 4.18018197 22.42829322 -0.00506149 -0.00317627 -0.00876037
C 6.07115624 2.90033900 21.18481454 -0.00242558 0.00249063 -0.00245079
C 2.28110542 3.53418434 29.73301549 -0.00414905 -0.00230184 0.00440218
C 1.77315474 9.90481907 19.84027657 -0.00252474 0.00031792 0.00230439
C 6.62638465 8.81471305 28.36391351 0.00188679 0.00762066 -0.00071967
C 2.61606350 10.04789651 28.15891992 -0.00403256 0.00188622 0.00456692
C 6.28878631 9.27984260 20.29734815 0.00908681 -0.00079955 -0.00062112
C 6.75533207 2.86567852 29.27416122 -0.00714529 -0.01008275 0.00210045
C 1.97911245 3.66059521 21.14258877 -0.00724813 0.00227666 -0.00034550
C 6.73044853 2.28331918 20.14492704 -0.00169504 -0.00325134 -0.00277199
C 1.87397632 4.05598486 28.55901666 -0.00849227 -0.00891071 0.00882500
C 2.19901988 10.41621409 21.05376207 -0.00387486 -0.00073739 -0.00383370
C 6.29062500 8.15510789 29.56542141 0.00006889 -0.00084785 0.00293959
C 2.10405743 10.81415478 29.22117145 0.00321946 -0.00473656 0.00073233
C 6.70885934 8.57468637 21.40356918 -0.00179873 0.00110399 -0.00305505
C 6.35075850 2.16308981 28.17355923 0.00243763 -0.00126719 -0.00406414
C 2.47345233 4.25317977 19.97458370 -0.00136646 -0.00891433 -0.00670431
C 7.23760016 0.94786672 20.29164129 -0.00283253 -0.00032275 -0.00623987
C 1.25492062 5.29531032 28.55773473 0.00321127 0.00444396 -0.00053932
C 2.99101643 11.61831852 20.95360903 0.00696544 -0.00002567 0.00687776
C 5.71482900 6.89942331 29.47150271 0.00258092 -0.00261149 -0.00609104
C 1.23780609 11.94559112 28.95640609 0.01080275 -0.00003656 -0.00298702
C 7.45819363 7.37730436 21.25464294 -0.00192325 0.00004622 -0.00619426
C 5.66130380 0.92868781 28.33222291 -0.00079383 -0.00260420 -0.00559786
C 3.14740450 5.49207338 20.05835751 -0.00039450 0.00501211 0.00274319
C 7.15750299 0.25300706 17.91905594 -0.00381829 0.00607631 -0.00023260
C 1.58558769 5.77302290 26.19321432 0.00361014 0.00062717 -0.00794618
C 3.01900245 12.24054382 23.30605346 -0.00474130 -0.00218650 -0.00484155
C 5.92552821 6.56420688 31.91826952 -0.00409456 -0.00023607 0.00731999
C 1.40365725 12.78083355 31.29877702 -0.00115548 0.00266762 -0.00075436
C 7.13976713 6.50556756 23.49937422 0.00164224 0.00464643 -0.00281585
C 5.83610862 0.30473062 26.00140936 0.00035643 0.00662318 0.00014765
C 2.71944233 6.10116855 17.77677549 -0.00729632 0.00717801 -0.00125532
C 6.94509518 11.94973254 32.89385707 0.00277885 -0.00762499 -0.00195100
C 1.24790745 6.89863554 25.24166845 0.00261618 0.00165523 0.00264378
C 2.77063878 1.03935745 24.62528778 -0.00376979 0.00726361 -0.00498248
C 5.86950055 5.34964534 16.48545232 0.00045269 -0.00432670 0.00290219
C 1.53856217 1.04229630 16.15400119 0.00325949 0.00170622 -0.00763091
C 7.17457177 5.20630844 24.25845785 -0.00513908 0.00152167 -0.00296812
C 5.89905816 11.71671745 25.22340844 0.00209197 0.00869728 0.00633147