1920
Time=50000.00000004 pbc="T T T" Lattice="25.44838543 0.00000000 0.00000000 0.00000000 25.80002411 0.00000000 0.00000000 0.00000000 32.97710327" energy=-12246.96599209 virial="-52.61206339 6.22301263 8.60638768 6.22301263 -86.33762825 45.37048977 8.60638768 45.37048977 -66.76062579" stress="-0.00008168 0.00029456 0.00035787 0.00029456 -0.00167982 0.00214772 0.00035787 0.00214772 -0.00085127" Properties=species:S:1:pos:R:3:vel:R:3
O 5.93934830 2.79538064 6.62306326 0.00068613 -0.00490330 -0.00050914
O 2.59660767 3.87533747 15.52364339 0.00770498 0.00220775 0.00352180
O 1.77527992 9.93389837 1.38940706 0.00179720 -0.00669550 -0.00162750
O 7.11151371 8.64597336 9.41932753 -0.00144379 0.00094535 -0.00145416
O 2.66570329 9.86011938 9.43535827 0.00539041 -0.00514494 -0.00277084
O 6.01310278 9.35691720 1.21332786 -0.00214997 -0.00006335 0.00055085
O 6.70788672 3.18591374 14.92372365 -0.00237096 -0.00416605 -0.00594976
O 1.09396097 4.01193934 7.16977205 -0.00080810 -0.00112006 -0.00538168
O 6.24673823 1.40314620 16.90938086 -0.00596363 -0.00340349 -0.00155734
O 2.30554345 5.06410752 9.26696039 -0.00228682 0.00006722 0.00273140
O 2.16612878 11.51599059 7.60640229 0.00012033 0.00163014 -0.00297319
O 6.23874084 7.71354806 32.14898724 -0.00110557 -0.00240367 0.00580813
O 1.78322125 11.62825003 32.30779190 0.00157102 -0.00711656 0.00317068
O 6.38777151 7.44567802 7.27012565 -0.00244536 0.00356209 0.00116381
O 5.65402137 1.46048132 8.84512168 0.00220121 0.00574693 -0.00367133
O 1.60906581 5.17757928 17.47892993 -0.00523162 -0.00199314 0.00158624
O 5.94977791 2.52285334 23.22325898 -0.00084140 0.00295455 0.00178646
O 2.66187313 3.66058550 31.68431643 0.00715023 -0.00379969 -0.00277827
O 1.57162572 10.26978486 17.79179411 0.00371235 0.00048093 -0.00062921
O 6.37371834 8.84207083 25.89486196 0.01123462 0.00150119 0.00364594
O 3.28378107 10.53712388 26.30763505 -0.00221854 -0.00032027 -0.00200554
O 6.39370142 8.98402074 17.61935311 -0.00033338 0.00092814 0.00071131
O 6.56843143 2.92652388 31.44929240 -0.00037218 0.00227851 -0.00294436
O 1.94979123 3.66752246 23.63456483 0.00180397 -0.00514779 -0.00395523
O 6.90999779 1.40111220 0.60865202 0.00404059 0.00524891 -0.00202066
O 2.29633502 5.84528528 25.67038642 -0.00373485 0.00569023 0.00524911
O 2.45447551 11.48091335 24.04105230 0.00288745 -0.00298487 0.00240285
O 6.13267933 7.70733792 15.61782036 0.00206571 -0.00252571 0.00426733
O 2.32133981 11.65493306 15.59976643 0.00284567 0.00417356 0.00045259
O 6.06071691 7.60787825 23.69154687 -0.00020859 0.00247172 -0.00241489
O 6.23108172 0.74626823 25.13411829 0.00168804 0.00195292 0.00234116
O 2.17475892 5.08039431 0.90996594 0.00339359 0.00229411 0.00173967
O 6.00858238 15.83815570 6.90450800 0.00030775 -0.00076897 -0.00095313
O 2.58837972 16.20389392 15.37953364 0.00332080 -0.00254340 0.01200297
O 1.57026111 23.39708345 1.48950452 0.00060270 0.00360115 0.00494971
O 6.45167461 22.30988937 9.88517427 0.00030823 0.00187029 -0.00052513
O 2.97761375 23.21239571 9.50000359 -0.00261583 0.00963563 -0.00163101
O 5.80531626 22.26141250 1.66059097 0.00534511 -0.00303632 -0.00127312
O 7.12323788 15.50580480 15.13950427 0.00028810 -0.00179278 0.00048819
O 1.69716312 16.56100861 7.10509120 0.00474844 -0.00391106 -0.00530940
O 6.61014096 14.00770767 17.29492291 -0.00571137 -0.00166537 0.00454537
O 1.83329650 18.03057142 9.22876297 -0.00004547 -0.00147442 -0.00615025
O 2.46506863 24.94308943 7.52511325 -0.00333121 -0.00542059 0.00395200
O 5.73384180 20.50262614 32.55826301 -0.00226056 -0.00546636 -0.00198709
O 2.08992286 24.57936738 32.35338195 -0.00578378 0.00180830 -0.00015726
O 6.55255475 20.62608804 7.84558108 -0.00284107 0.00317629 0.00001188
O 6.11149893 14.27455507 8.96504149 -0.00176528 0.00232755 -0.00063232
O 2.79823517 17.63047398 17.62377134 0.00998059 0.00014841 0.00171886
O 5.95429530 15.79573847 23.25681057 -0.00384202 0.00139395 -0.00234187
O 2.37052461 16.32933391 31.89889222 -0.00383547 -0.00678872 -0.00162631
O 1.76781698 23.01462953 17.62374633 0.00279131 0.00304643 -0.00811961
O 6.95287885 21.98575157 26.42280962 0.00357199 -0.00256034 0.00231003
O 2.40622881 23.21472962 26.03501435 -0.00015686 -0.00136912 -0.00371025
O 6.02351212 22.13738253 17.79622588 0.01153451 0.00701431 0.00154228
O 7.32236917 15.78069972 31.49736929 -0.00146171 0.00565790 0.00141999
O 1.48980120 16.64846093 23.81405019 0.00017840 0.00155338 -0.00220418
O 7.03512741 14.20358001 0.74204704 -0.00181045 0.00242430 -0.00029586
O 2.20234293 18.15320514 25.86566531 0.00350006 -0.00028462 -0.00580930
O 2.58269696 24.39180124 23.74662095 -0.00013061 0.00211924 -0.01182858
O 6.08476951 20.42150671 15.88071407 0.00196052 0.00043929 0.00157724
O 2.12897493 24.48781788 15.51130718 -0.00254839 0.00761417 -0.00295960
O 6.61213275 20.88962415 23.97353866 -0.00785763 -0.00394797 0.00299822
O 6.62223299 14.28103367 25.51976144 0.00600043 0.00094640 0.00155657
O 2.28894605 18.08171698 0.81629006 0.00320619 0.00213231 0.00131860
O 13.92074421 2.15058378 6.95762530 0.00333668 0.00469529 0.00010576
O 10.79744078 3.91943449 14.91649060 -0.00373386 0.00364482 -0.00176913
O 9.88611317 10.10556906 1.31600778 0.00069131 -0.00431013 -0.00022723
O 14.92200350 9.31619031 9.04242945 0.00153792 0.00828372 -0.00019911
O 11.26878793 10.24409273 9.65110794 0.00185897 0.00381973 -0.00169464
O 14.12646729 9.19417874 0.94235690 0.00295465 0.00395343 -0.00034924
O 15.29057829 2.56555632 15.27861233 0.00030285 -0.00012958 -0.00861446
O 10.45738658 3.80939841 6.81886856 -0.00033652 -0.00178536 -0.00161846
O 14.63291409 1.10635331 17.25249912 -0.00374830 -0.00029204 0.00088501
O 11.02119524 5.49176837 8.75813916 0.00059516 -0.00343510 0.00596411
O 10.62087302 11.71806217 7.52877830 -0.00314859 -0.00561100 -0.00590500
O 14.61582645 7.56858210 31.74529426 -0.00288856 -0.00643860 -0.00361014
O 10.51045917 11.45151954 32.19774069 0.00636940 -0.00521774 -0.00333857
O 15.25979965 7.70847679 7.03037022 0.00516881 -0.00059399 -0.00004438
O 14.71444947 1.18121891 9.31167824 -0.00214002 0.00259486 0.00154792
O 10.70774200 5.38789125 17.13829544 -0.00159219 -0.00351752 0.00804018
O 14.46000871 2.80497678 23.25963030 -0.00587262 0.00786811 0.00237328
O 11.23868511 3.56138018 31.26034226 -0.00720169 0.00067408 0.00341263
O 10.06460701 10.32788496 17.90796237 0.00861448 -0.00095584 -0.00458889
O 15.63460918 9.20438810 25.77760738 0.00275328 -0.00299811 0.00243279
O 10.51902901 10.00198343 26.06703776 -0.00455475 0.00022961 -0.00904264
O 13.99600256 9.20591861 17.47174290 -0.00488954 -0.00090614 0.00187272
O 15.57835128 2.57676302 31.49599776 -0.00372966 -0.00192609 -0.00072597
O 10.39133245 3.73710893 23.04738954 0.00331873 -0.00286178 -0.00326541
O 14.65786912 1.24782473 0.79596358 0.00238973 0.00053206 0.00001797
O 10.44032195 5.36467725 25.03882197 -0.00312620 0.00684246 0.00115741
O 10.42895871 11.70024550 24.30016606 -0.00192678 0.00750870 -0.00026341
O 14.64331737 8.05453859 15.31644368 -0.00416780 0.00024674 0.00050772
O 10.63943764 11.92010506 15.49511457 -0.00318862 0.00245206 0.00106804
O 14.90200355 8.02043030 23.54125524 -0.00717692 0.00559918 0.00045946
O 14.90297493 1.27032286 25.38525914 0.00176684 -0.00011967 0.00028322
O 11.03599922 5.08943698 0.38494823 -0.00111500 0.00822308 0.00239162
O 14.63715882 15.75945083 7.01588522 0.00060503 -0.00267134 0.00027930
O 11.38995012 16.79143024 15.39580545 -0.00703475 0.00514541 0.00300285
O 10.01111495 23.13279575 0.99367607 -0.00158243 0.00045554 0.00228138
O 15.45114124 22.13359620 9.62674908 -0.00135439 0.00051764 -0.00075912
O 11.04210947 23.37514036 8.82146601 -0.00036652 0.00053988 0.00144064
O 14.49077670 21.77302056 1.40346282 -0.00968996 0.00548838 -0.00292953
O 15.50431390 15.75793048 15.47638318 0.00188939 -0.00955179 0.00202231
O 9.78836442 17.17114275 7.51122551 0.00112301 0.01206235 0.00217836
O 14.74198045 14.12662792 17.25883948 -0.00010740 -0.00227768 -0.00478071
O 10.74361512 18.35447593 9.45987460 0.00670552 0.00662314 0.00159008
O 10.21265575 24.72719938 6.92086489 0.00073434 0.00008141 0.00636778
O 14.82080548 20.61504874 32.20322164 -0.00232982 0.00035337 0.00351865
O 10.76085010 24.30084819 31.81928688 0.00174809 -0.00351104 -0.00033543
O 15.29647558 20.71014461 7.57413126 0.00226475 -0.00101065 0.00192141
O 14.63085314 14.44398693 9.34044475 0.00078576 0.00185132 -0.00048745
O 10.96156316 18.19054781 17.48803493 0.00478729 0.00399009 -0.00037708
O 14.35900704 15.35324306 23.76271385 -0.00383759 -0.00255914 -0.00203603
O 11.00113966 17.03623625 32.17006739 0.00378198 0.00170113 0.00240150
O 10.27888049 23.08849118 17.38664013 0.00418821 -0.00394127 0.00276247
O 15.50707183 22.22500927 26.10691293 0.00118112 -0.00607030 -0.00081847
O 11.18454311 23.08061663 25.69821926 -0.00724443 -0.00008632 0.00107215
O 14.53609910 22.33414764 18.18591906 0.00400847 -0.00504043 -0.00248720
O 15.31237084 15.95384415 31.80559100 -0.00343031 -0.00200500 0.00203325
O 9.97942615 16.75631991 23.80020281 0.00017917 -0.00473591 -0.00342206
O 15.24524111 14.31440098 0.74781655 0.00029695 0.00054034 0.00257166
O 10.73817517 18.09363363 25.99204409 -0.00054857 -0.00077787 -0.00094042
O 10.59680483 24.45445886 23.63309967 0.00003676 -0.00190737 0.00738456
O 13.99374262 20.98115685 16.04433256 -0.00041850 0.00972500 -0.00001148
O 10.32739163 24.52524534 15.01826625 -0.00181790 0.00697328 0.00185776
O 14.94450722 20.54310634 24.31140252 0.00689379 0.00141513 0.00215218
O 14.66261802 13.89471432 25.94797507 0.00254384 -0.00008065 -0.00188495
O 10.59654032 18.19013169 1.54728022 -0.00546315 0.00631636 -0.00096156
O 22.60654973 2.98552367 6.70663195 0.00536893 -0.00007539 -0.00230611
O 19.67890190 3.93871734 15.17908407 -0.00426278 0.00291697 0.00179406
O 18.36156059 10.01924317 1.53961177 0.00525595 -0.00004947 0.00288738
O 23.99892135 9.04298884 9.62052994 -0.00730230 0.00167901 -0.00274713
O 19.32729190 9.98110896 9.54029968 0.00084799 0.00480990 -0.00113438
O 23.06751069 9.07968154 1.22952642 -0.00467991 0.00435145 0.00202400
O 23.85976198 3.13381630 14.63274433 0.00075619 -0.00567191 0.00258888
O 18.59217963 3.51792036 6.67553580 0.00563105 -0.00236826 0.00138808
O 23.84040505 1.19157703 16.88690602 -0.00001973 -0.00219083 0.00602090
O 19.08585601 4.84658669 8.88266424 -0.00182427 0.00292227 -0.00263185
O 19.11371251 11.52808082 7.49274410 0.00424347 0.00114004 0.00211224
O 23.27689925 7.46698503 32.21101793 -0.00015438 -0.00914430 -0.00435321
O 18.96645057 11.24933949 32.00009506 -0.00264651 0.00220513 -0.00153694
O 23.44240962 8.05228423 7.35715867 0.00138959 0.00534916 0.00191283
O 23.16566268 1.24394686 8.61216413 0.00571372 0.00200522 0.00161869
O 18.86349035 5.51228953 17.29284966 0.00179233 -0.00438708 0.00324512
O 22.74164703 2.33820955 23.34141991 -0.00176492 0.00068922 -0.00075764
O 19.49596326 4.02251197 31.63631534 -0.00464788 0.00049119 0.00108631
O 18.64063893 10.43097565 17.62716781 0.00010690 0.00018006 -0.00042325
O 23.61638453 9.24124952 26.05842515 0.00530655 0.00071803 -0.00257652
O 19.74046556 10.12071188 25.88321459 -0.00521158 -0.00179708 0.00393573
O 22.85940147 9.29671089 18.00409839 0.00560707 -0.00006532 -0.00485228
O 24.04496972 2.73218770 31.51328583 -0.00393293 0.00760237 0.00790533
O 18.69647776 3.45948153 23.31310267 -0.00556306 -0.00039566 -0.00040862
O 23.37690119 1.33285721 0.65476898 -0.00378743 0.00472371 -0.00112653
O 19.12886491 5.25352717 25.32902377 -0.00179728 -0.00332553 0.00137632
O 19.15506358 11.59849614 23.91985220 0.00369989 0.00282900 0.00292448
O 23.16683027 7.72394370 15.78819171 -0.00029017 0.00366915 0.00242784
O 19.10738067 12.04065755 15.68291357 0.00160211 0.00212866 -0.00115957
O 23.56147219 7.54941334 24.07845236 0.00185013 -0.00392123 -0.00700182
O 23.48884091 0.97507328 25.38922606 -0.00031850 -0.00444350 -0.00139584
O 19.29506878 5.59641105 0.69681639 0.00275701 -0.00134923 0.00331481
O 23.17577016 15.47296141 7.15177157 -0.00130063 -0.00238688 0.00651761
O 19.51111799 17.03113906 15.85130626 -0.00377405 0.00345094 -0.00482903
O 18.65836373 23.24818469 1.12147552 0.00122894 0.00450140 0.00072744
O 23.62701908 22.18866827 9.76127373 0.00384368 -0.00119751 -0.00071900
O 19.78999799 23.22627283 9.33292433 -0.00135247 -0.00105239 0.00197648
O 23.18688297 22.02038138 1.40319834 -0.00159470 0.00368884 -0.00763944
O 23.50988569 15.65319726 15.43588094 -0.00319460 0.00313076 0.00190198
O 18.78622221 16.53109710 7.13397699 0.00193680 0.00173318 0.00633350
O 23.30518131 14.19634773 17.45993532 -0.00074288 0.00212868 0.00042466
O 19.18024662 17.91529128 9.38102017 0.00393423 -0.00360202 -0.00081873
O 19.51302957 24.38008162 7.09947221 0.00654612 0.00338839 0.00137891
O 22.82466524 20.35172039 32.54163785 -0.00507301 0.00584779 -0.00032700
O 19.34703572 24.71213436 32.01533400 0.00415552 -0.00144714 -0.00834440
O 22.95597937 20.56485679 7.74792462 -0.00166254 -0.00120248 0.00419490
O 23.12485443 13.99531692 9.27172888 -0.00149265 0.00113853 0.00260840
O 19.18824119 18.67391235 17.66787274 0.00069361 -0.00261271 0.00070863
O 23.01579856 15.92283731 23.49939772 -0.00170935 0.00146232 -0.00795370
O 19.46648394 16.55357396 31.77734951 0.00257943 -0.00042383 0.00833079
O 18.30501335 23.07518058 17.48589778 0.00446066 -0.00414069 0.00901813
O 23.88945502 22.35534709 26.60714008 0.00865295 0.00445222 0.00262915
O 19.18358206 22.95625278 25.80907847 -0.00237312 0.00875845 0.00763017
O 22.81551827 22.31875564 18.41488501 -0.00288169 -0.00314521 0.00010491
O 23.58495856 15.25436773 31.86146067 0.00417623 -0.00236777 0.00148676
O 18.30191837 16.42675568 23.43790706 -0.00012804 0.00459966 -0.00294739
O 23.00397770 14.02115368 1.11426778 -0.00478003 0.00088510 -0.00341751
O 18.78541827 17.80706138 25.42000604 -0.00420077 -0.00101482 0.00056927
O 19.06124101 24.32030204 23.60826515 0.00473573 -0.00408869 0.00092662
O 23.25518209 20.91411742 16.11848915 -0.00153548 -0.00241129 0.00721353
O 18.77923006 24.60899264 15.42486364 0.00353349 0.00055998 -0.00094001
O 23.75659343 20.67107426 24.48163886 -0.00260916 -0.00391722 -0.00549228
O 23.29566603 14.03986463 25.33714905 -0.00079395 -0.00113550 0.00590809
O 18.97220977 18.20659196 0.89230995 -0.00196370 -0.00217243 0.00200788
N 7.81215975 12.90317363 2.50064905 -0.00000024 -0.00205375 0.00552355
N 1.07666514 6.27095865 10.72053861 0.00260302 -0.00712491 0.00328961
N 3.32303939 0.41854437 5.78438856 -0.00395672 -0.00409828 0.00522874
N 5.17606642 6.36031665 14.03463380 -0.00643541 -0.00237357 0.00314609
N 0.83190853 25.59738654 13.95689612 0.00232056 0.00427279 -0.00650843
N 7.57357466 6.37867218 5.63681303 -0.00071949 0.00062186 -0.00049266
N 5.11553455 13.04182122 10.54796805 0.00246304 0.00835400 0.00624097
N 3.12626841 6.28541468 2.60598298 -0.00339844 -0.00106108 0.00072765
N 7.80199872 12.95028984 18.89025387 -0.00122489 0.00045797 0.00326360
N 0.81779262 6.47715146 27.15757573 0.00206846 -0.00423347 -0.00171003
N 3.67442665 25.68613923 22.14895209 0.00590758 0.00558616 0.00168025
N 5.31514054 6.25841237 30.69263532 0.00006981 -0.00552374 -0.00034436
N 0.93597986 25.76988543 30.79896993 0.00061004 0.00163783 -0.00490229
N 7.23194429 6.25937421 22.34734624 -0.00237448 0.00246362 -0.00348019
N 5.52505103 12.90340543 27.05263631 0.00407382 0.00025638 0.01078021
N 3.02869153 6.23914924 18.89873955 0.00294102 -0.00137763 0.00356017
N 7.65771332 0.01196888 2.26316124 -0.00678177 0.00423358 -0.00359793
N 0.62227386 18.89699533 10.95238443 -0.00173461 -0.00263759 0.01513692
N 3.25585044 12.73363199 5.90019054 -0.00081109 -0.00430823 -0.00397482
N 5.14104862 19.12355720 14.25004060 0.00177793 -0.00124754 -0.00445898
N 1.01478373 12.58003491 14.00912598 0.00584223 -0.00249246 0.00793689
N 7.28336393 19.37563953 6.15178633 -0.00523898 -0.00264855 0.00016158
N 4.72023166 0.39074308 10.61466824 -0.00785998 -0.00361877 -0.00143996
N 3.06509988 19.40810054 2.46454421 0.00597339 0.00267207 -0.00032349
N 7.45818474 0.17631470 18.47210898 0.00235713 -0.00271812 0.00122710
N 0.82446176 19.16930261 27.39714195 0.00725576 -0.00363476 -0.00015264
N 3.44494030 12.77641550 22.29210180 -0.00117144 0.00358239 -0.00366460
N 4.90982137 19.35638992 30.69816397 0.00164432 0.00372835 -0.00144704
N 0.88512581 12.88806156 30.62941638 0.00800841 -0.00121983 0.00392385
N 7.60443900 19.56442072 22.43031591 0.00346723 0.00041068 -0.00692701
N 5.17677060 25.68530206 27.02874466 0.00552083 0.00176876 -0.00044027
N 3.65476907 19.00543309 19.22927786 -0.00324503 0.00269942 -0.00235106
N 15.88603950 12.89170376 2.45462687 0.00160986 0.00765541 0.00297953
N 9.49929521 6.51517163 10.16410936 -0.00967237 -0.00258463 -0.00388036
N 11.97789613 25.39197896 5.63455145 -0.00218049 -0.00084180 -0.00493504
N 13.73457501 6.67875397 13.79582277 0.00150939 -0.00314804 0.00270181
N 9.13975231 25.57747072 13.42944817 0.00205196 0.00005523 -0.00422931
N 16.17644364 6.51637546 5.28492110 -0.00154408 0.00280326 0.00570633
N 13.92143166 13.05122435 10.97459260 0.00438319 0.00335413 0.00340833
N 11.83691475 6.34869033 2.00205859 -0.00110318 0.00745066 0.00382849
N 15.97808893 13.14295507 18.87540933 -0.00068044 0.00277349 0.00323250
N 9.28800835 6.15898858 26.78136630 0.00227664 -0.00701034 -0.00387230
N 11.58936889 25.71948501 22.06014394 -0.00087878 0.00125008 -0.00495084
N 13.45398075 6.64978652 30.09649259 -0.00034121 0.00318504 -0.00333441
N 9.59448109 25.55573140 30.32831016 -0.00463631 -0.00759513 -0.00412509
N 16.04994714 6.78372737 21.91056486 -0.00055220 0.00374041 -0.00376168
N 13.47517343 12.85162180 27.61052079 0.00196418 0.00087319 -0.00202832
N 11.77678557 6.64425855 18.64972475 -0.00228936 0.00212395 -0.00174343
N 16.07637901 0.20591115 2.23561013 -0.00012909 0.00500119 -0.00405235
N 9.46164302 19.41011841 11.02921640 0.00586464 -0.00560977 0.00399050
N 11.67493117 12.88673216 5.84881622 -0.00124766 -0.00392845 0.00222125
N 13.72086331 19.63177787 14.20454584 0.00199209 0.00035917 -0.00589681
N 9.41609112 13.09378735 13.95012776 0.00359497 0.00400064 -0.00797482
N 16.31185553 19.39036207 6.02309672 0.00560975 0.00684588 -0.00542450
N 13.13618778 0.26171533 10.70012919 0.00249147 -0.01241610 0.00503238
N 11.93417286 19.23833311 2.88881506 -0.00027847 -0.00569581 0.00133158
N 16.16341023 0.21208481 18.66155195 0.00534428 -0.00213526 0.00383764
N 9.45077507 19.21790527 27.47350052 -0.00433787 -0.00161739 0.00402859
N 11.60037378 12.82029729 22.68500941 0.00443766 0.00906338 0.00073419
N 13.82763647 19.46398475 30.58257210 0.00259950 -0.00069965 -0.00361633
N 9.67732197 12.91035874 30.69008970 -0.00634397 -0.00426143 0.00035851
N 15.65957502 19.25314660 22.57332345 -0.00274371 -0.01074640 -0.00522840
N 13.93628560 0.00887169 26.99325641 0.00324293 -0.00279369 -0.00566315
N 12.18240451 19.05633703 19.19515173 0.00355323 -0.00445933 -0.00592715
N 24.57314253 12.96844230 2.45920804 0.00199207 0.00282021 -0.00567670
N 17.58774337 5.73899940 10.35894729 -0.00232442 -0.00036187 -0.00098698
N 20.36168711 0.04754066 5.61891561 0.00327794 -0.00180715 -0.00203229
N 22.02140181 6.50560981 14.23346402 -0.00251655 -0.00079958 -0.00654347
N 17.89484246 0.20663474 13.74604418 -0.00602169 -0.00691346 -0.00000460
N 24.18752255 6.44666641 5.94200868 -0.00097221 0.00775806 0.00410388
N 22.07541198 12.81085403 10.94455026 -0.00252234 0.00046406 -0.00566087
N 20.12150474 6.83697176 2.46504175 -0.00414412 0.00363240 -0.00637247
N 24.37799490 12.95317615 19.00130476 -0.00141530 -0.00374523 0.00439563
N 17.68046318 6.24059743 26.88575283 0.00272691 0.00094104 0.00275148
N 20.37016403 25.26962981 22.10673575 -0.00365256 -0.00170143 -0.00522985
N 22.12356551 6.37987950 30.51700884 -0.00303381 -0.00180332 -0.00223432
N 18.15447802 0.08573579 30.47010416 0.00416671 -0.00273524 0.00405605
N 24.51360989 6.26379434 22.43661820 -0.00390322 0.00890748 -0.00009148
N 21.93108765 13.08277826 26.90981679 -0.00121084 -0.00562023 0.00606990
N 20.42275916 6.35861375 18.83930436 0.00062357 0.00527570 -0.00673190
N 24.47720947 0.06542392 2.27359510 0.00314938 -0.00754876 0.00452824
N 18.18570015 19.27695016 10.92924501 0.00310321 -0.00304376 -0.00500663
N 20.49002937 12.58962820 5.92695354 0.00250440 -0.00253594 -0.00063131
N 22.55025019 19.56933665 14.38108803 0.00539863 0.00301002 -0.00506028
N 17.96778924 13.07700990 14.05586070 0.00228737 0.00375647 0.00453056
N 24.49352210 19.73480204 6.25084783 -0.01069468 0.00022633 -0.00379328
N 22.29951461 0.01196989 10.31908729 -0.00215847 0.00763807 -0.00246469
N 20.43365564 19.08970277 2.52326638 0.00668971 0.00231640 0.00705180
N 24.54022784 25.69938305 18.65671126 0.00827817 0.00432124 0.00435465
N 18.12097162 19.28808348 27.06155569 0.00000490 0.00130194 0.00031966
N 20.09229779 12.92026172 22.29027799 -0.00090957 0.00352687 0.00630892
N 21.94558630 19.17969070 30.84704518 0.00341224 0.00057280 -0.00296497
N 17.83231265 12.46327500 30.41202884 -0.00328039 -0.00194107 0.00445883
N 24.55098298 19.39070798 22.67259032 0.00803228 -0.00305315 0.00137217
N 22.17880144 25.79139147 26.97383115 0.00034130 -0.00355206 -0.00541793
N 20.34514999 19.56945872 19.36594457 0.00258192 0.00119332 0.00236336
C 7.74771812 0.39344605 4.69296248 -0.00758741 0.00674846 0.00001371
C 0.96691478 6.08953514 13.18387220 -0.00114333 -0.00046962 -0.00440192
C 3.34419510 12.41794287 3.50555748 -0.00008626 -0.00109877 -0.00588439
C 5.08720721 6.56355756 11.62921910 -0.00115792 -0.00541257 -0.00164389
C 0.84631447 12.09400405 11.63147857 -0.00269199 -0.00326260 0.00338266
C 7.59511219 6.86882790 3.32179931 -0.00954874 -0.00373808 -0.00241285
C 4.92771015 0.77996733 12.91902185 0.00189056 0.00166995 0.00173314
C 3.30019936 5.90792604 4.89164515 0.00348924 -0.00272226 0.00141129
C 7.18908755 1.02997359 5.75485407 0.00273225 0.00601668 0.00032618
C 1.20383490 5.36825843 14.31912585 -0.00400363 0.00733470 0.00077062
C 3.06826079 11.66687911 2.33793990 -0.00443499 0.00109759 -0.00372818
C 5.56034975 7.18369405 10.48296454 0.00194244 0.00061988 -0.00014400
C 1.18898686 11.48275987 10.40168974 -0.00730638 0.00272157 -0.00117161
C 7.08419208 7.44884802 2.19670033 -0.00215935 0.00033714 -0.00286408
C 5.36958314 1.55499906 13.95530580 0.00144681 -0.00041438 0.00100634
C 2.95573270 5.26345574 6.06234684 -0.00415393 -0.00228444 0.00165018
C 6.45879487 2.19858903 5.56945773 0.00139206 0.00711008 0.00570776
C 2.11761098 4.34110939 14.34057734 -0.00125852 0.00249980 0.00013517
C 2.24144662 10.51529126 2.46063321 0.00540524 0.01068658 0.00664727
C 6.48371893 8.28756623 10.53751688 -0.00501224 0.00276648 0.00470919
C 2.15340704 10.45616702 10.50122690 -0.00743468 0.00688829 0.00614706
C 6.38780945 8.63611147 2.33310309 0.00335212 -0.00612919 0.00827718
C 6.31181227 2.55500488 13.87066864 -0.00013535 -0.00566311 0.00092800
C 1.81924370 4.36911133 6.07342795 -0.00316838 0.00566114 -0.00482394
C 6.41713294 2.79818162 4.30276205 -0.00061529 0.00073799 0.00127749
C 2.49117389 3.72680464 13.09225584 0.00746606 -0.00433964 -0.00395672
C 1.85893662 10.13167029 3.76223871 0.00052273 0.00375723 0.00806573
C 6.68943915 8.91701982 11.78317069 0.00104092 -0.00071273 -0.00434917
C 2.53314103 9.99041255 11.78260426 -0.00139041 -0.00687735 -0.00248674
C 6.10320844 9.16348994 3.57502652 -0.00324140 -0.00879133 -0.01026352
C 6.64530744 2.91188807 12.56619845 0.00028753 -0.00343786 0.00227420
C 1.55193251 3.77788363 4.82948680 0.00410777 0.00388474 -0.00185768
C 6.83816043 2.08654225 3.19223500 -0.00364121 -0.00370871 0.00428600
C 2.07379027 4.33737709 11.92815459 -0.00313872 0.00333820 -0.00231230
C 2.15733005 10.84085628 4.89934898 0.00893896 -0.00126309 0.00035844
C 6.18553854 8.35575901 12.92993169 0.00495703 0.00619268 -0.00107385
C 2.19179362 10.65241823 12.97355806 -0.00405001 -0.00255818 -0.00139544
C 6.52299580 8.50680850 4.72486469 0.00083203 0.00947348 -0.00617172
C 6.13841512 2.24774550 11.47752439 -0.00473111 -0.00337585 -0.00838322
C 1.99272896 4.39016006 3.64949097 -0.00498191 0.00217698 0.00486421
C 7.41830006 0.80109307 3.37916352 -0.00649090 0.00027808 -0.00587666
C 1.37930074 5.58758196 11.86871494 -0.00219184 0.00023451 -0.00290349
C 2.91560443 12.03341684 4.77906791 0.00232434 -0.00111249 -0.00105001
C 5.51656177 7.06054230 12.90551830 -0.00153511 0.00259496 -0.00110180
C 1.31962611 11.77372972 12.92178517 -0.00262621 -0.00457217 0.01164266
C 7.18691932 7.24800517 4.60747266 -0.00576359 0.00453650 0.00582343
C 5.22715039 1.16011624 11.60781070 -0.00139975 -0.00441279 0.00226420
C 2.78648562 5.55629893 3.67802365 -0.00024774 -0.00305541 0.00061835
C 7.18510663 0.23327247 1.03431000 0.00512933 0.00592991 -0.00673119
C 1.68962906 6.10420047 9.51252495 0.00186627 0.00064324 0.00552072
C 2.70427588 12.54205592 7.13858208 -0.00549845 0.00364446 0.00715804
C 5.50597603 6.69279288 15.30390639 -0.00513879 -0.00047879 -0.00335287
C 1.52809868 12.52466613 15.22523380 0.00172671 -0.00161816 0.00442181
C 7.11463425 6.49468173 6.94145417 0.00323742 0.00095638 -0.00150420
C 5.27320071 0.42715618 9.34339537 -0.00568434 -0.00543233 0.00441560
C 2.71632817 6.12006282 1.29865182 -0.00309725 0.00010856 -0.00171442
C 7.37539190 11.83180794 16.69113111 -0.00520697 0.00478269 -0.00054205
C 1.33668600 7.10061523 8.43430171 -0.00539914 0.00576137 -0.00615278
C 2.74121815 1.47746559 7.93411660 -0.00524803 0.00156440 -0.00177729
C 5.94019782 5.44855923 32.91230228 0.00202979 0.00147489 0.00989833
C 1.50799131 1.09702428 32.80153286 0.00087450 0.00073639 -0.00169068
C 7.35333240 5.31098786 7.83287596 0.00202586 -0.00618167 -0.00471678
C 5.79874244 11.92492625 8.41925554 0.00304024 0.00602679 -0.00048037
C 2.50676244 7.38235716 16.87681066 0.00868511 0.00119193 -0.00663688
C 7.44508029 0.27061723 20.88467556 -0.00348605 0.00343481 0.00007008
C 1.00436916 6.06131179 29.52523315 -0.00730856 -0.01402605 -0.00144037
C 3.34559070 12.49528969 19.98663866 -0.00209720 -0.00170090 -0.00543484
C 4.84454154 6.63950283 28.28219131 -0.00395841 -0.01217961 0.01340629
C 0.92568461 12.52392259 28.22776121 0.00196880 0.00466303 0.00505948
C 7.68764125 6.63380114 20.04806453 0.01278994 0.00102006 -0.00219073
C 5.08207931 0.30784608 29.48474412 -0.00277096 -0.00335563 0.00274737
C 3.10886628 6.10037970 21.24663624 -0.00643621 0.00446179 -0.00234037
C 7.16504021 0.97287314 22.00593068 0.00504956 0.00271344 -0.00183572
C 1.44958513 5.39595637 30.65655828 -0.00487317 0.00466375 -0.00202081
C 2.99381532 11.89269856 18.81951307 -0.00016859 0.00017579 -0.00073079
C 5.13715328 7.26298810 27.07497941 -0.00136380 0.00123607 -0.00439818
C 1.47396325 11.87538286 27.15374561 0.00381973 -0.01366082 -0.00489112
C 7.29603341 7.13364131 18.79394856 0.00196074 0.00567585 0.00252770
C 5.53964725 1.04043091 30.52836089 -0.00212022 -0.00246210 0.00286642
C 2.87745384 5.49029800 22.48025314 -0.00154999 0.00154105 -0.00237954
C 6.44532524 2.14603645 22.07759260 -0.00013435 0.00460411 0.00132463
C 2.29811296 4.29803231 30.53231573 -0.00512714 -0.00533758 0.00325341
C 2.09308627 10.79201151 18.86275924 0.00374195 -0.00221510 -0.00234081
C 6.06122521 8.34113202 27.06132296 0.00113041 -0.00399724 -0.00514516
C 2.46550745 10.89097638 27.32175619 -0.00712663 0.00272706 -0.00027856
C 6.53127741 8.38810375 18.79445480 0.00221964 -0.00212954 0.00045338
C 6.26827968 2.18591681 30.35298845 -0.00644729 0.00123524 -0.00559126
C 2.23743802 4.27491211 22.43383695 -0.00086842 0.00775025 0.00391926
C 6.27719984 2.79104599 20.78231695 -0.00230683 0.00152595 0.00009261
C 2.50573780 3.76990197 29.24632413 -0.00397833 -0.00088128 0.00227337
C 1.81446225 10.20801869 20.17275301 0.00357843 0.00133376 0.00176155
C 6.61979433 8.79706053 28.34222430 0.00017440 -0.00020802 0.00438989
C 2.50922566 10.27426680 28.64154573 0.00383378 -0.00580607 0.00115564
C 5.96477286 8.95728371 19.94744150 0.00374711 -0.00111397 -0.00270143
C 6.65177131 2.56318304 29.03421851 -0.00362817 0.00393785 0.00296727
C 1.89862263 3.63962797 21.19578361 -0.00542287 -0.00383175 0.00367286
C 6.66692089 2.21149299 19.62579561 -0.00441306 0.00116370 0.00509633
C 1.97745968 4.43798214 28.14434314 -0.00942123 0.00309081 0.00087664
C 2.20189944 10.77418439 21.38229093 -0.00819939 0.00191951 0.00026619
C 6.36618396 8.16819055 29.46048474 0.00628265 0.00424321 -0.00855985
C 1.91902241 10.84049076 29.72486329 0.00048083 -0.00356537 -0.00021074
C 6.26406258 8.30080035 21.16895748 -0.00127549 0.00074760 -0.00259702
C 6.16948435 1.82954910 27.96125664 0.00293018 -0.00278228 0.00236899
C 2.14828804 4.23366401 19.96448344 -0.00097987 0.00193220 0.00397641
C 7.17510032 0.88087929 19.64763902 0.00052897 -0.00780550 -0.00559423
C 1.24920381 5.65091829 28.24900658 0.00729030 0.00173470 -0.00032501
C 2.97856555 12.01945895 21.22686186 -0.00341103 0.00259115 -0.00282690
C 5.46653761 7.02387134 29.55830962 -0.00055889 -0.00014800 0.00489831
C 1.20313619 12.10591971 29.55787821 -0.00815579 -0.00051068 0.00512930
C 7.06445615 7.07929364 21.23440110 0.00375527 0.00233219 -0.00278870
C 5.47289406 0.64735428 28.08379557 0.00171885 0.00615405 -0.00966466
C 2.72305157 5.51900966 20.01796700 -0.00450178 0.01143671 0.00895296
C 6.74725160 0.34720179 17.28088266 0.01067128 -0.00479096 -0.00703424
C 1.52155977 6.72979297 26.06194511 -0.00130659 -0.00291565 -0.00414448
C 2.95084941 12.55482370 23.63600527 0.00125736 -0.00166443 0.00225448
C 5.81694047 6.58159363 31.89690000 -0.00615857 -0.00119361 0.00299597
C 1.26896404 12.66767053 31.93602401 -0.00143456 -0.00167533 -0.00138638
C 6.60593787 6.53000435 23.48581681 -0.00030790 -0.00014673 0.00042869
C 5.64848483 25.65376433 25.71543579 -0.00696846 -0.00512900 -0.00867425
C 2.35138453 6.12231530 17.78488956 0.00942649 -0.00674867 -0.00011467
C 7.39865444 11.91707277 0.29409889 -0.00298931 -0.00039907 -0.00015222
C 1.44208276 8.04716156 25.43004519 0.00612955 0.00728204 0.00286464
C 2.95018949 0.92668376 24.31532708 -0.00861423 -0.00311290 -0.00130926
C 5.29363552 5.61614247 16.33927762 0.00597680 0.00640888 0.00184447
C 1.66908025 0.97556789 16.09757173 0.00656016 -0.00538404 -0.00625336
C 6.60142601 5.37870115 24.41620638 -0.00290545 0.00037330 0.00249735
C 5.95484409 12.03162425 24.79557878 -0.00246336 -0.00140766 -0.00102952