1920
Time=68000.00000006 pbc="T T T" Lattice="25.60886211 0.00000000 0.00000000 0.00000000 25.53561600 0.00000000 0.00000000 0.00000000 33.07227773" energy=-12248.68781793 virial="-78.63523098 -7.48328965 17.78641351 -7.48328965 -58.00048868 -1.54280747 17.78641351 -1.54280747 -90.34181950" stress="-0.00141553 -0.00037728 0.00080290 -0.00037728 -0.00031135 -0.00011825 0.00080290 -0.00011825 -0.00183181" Properties=species:S:1:pos:R:3:vel:R:3
O 5.54128813 2.91466474 6.82639478 0.00251536 0.00287105 0.00258183
O 2.89034266 3.99201649 15.56405160 -0.00000674 0.00831373 0.00531779
O 1.57876088 10.27636309 1.56112543 0.00088143 -0.00125643 0.00243914
O 6.93898613 9.43799263 10.18667454 -0.00379368 0.00355983 -0.00710037
O 2.98699132 10.15664568 9.88691499 -0.00045516 0.00007373 0.00456438
O 5.98039845 9.36641724 1.65445686 -0.00136425 -0.00597586 0.00341384
O 7.07034382 3.21485746 15.28042816 -0.00275038 0.00203872 0.00668433
O 1.37078423 3.82636729 7.78738607 0.00012820 -0.00351635 0.00103170
O 7.14340168 1.68113033 17.31516146 0.00008914 0.00198732 0.00546058
O 2.08109179 5.47356791 9.55671018 0.00769953 0.00039146 -0.00297366
O 2.64770056 11.65040462 7.60660962 -0.00086377 -0.00308222 -0.00692556
O 6.62372524 7.48952512 32.70330783 -0.00503289 0.00397521 0.00135994
O 2.46363097 11.39176557 32.48835472 0.00014776 -0.00279737 -0.00124371
O 6.38888274 7.54276373 7.92905790 0.00109379 -0.00046054 -0.00042389
O 5.89158930 1.30979227 9.18016824 -0.00124781 -0.00270879 0.00318163
O 2.02820058 5.04989064 17.49750844 -0.00644711 0.00265751 0.00252960
O 5.56647739 2.83195175 23.50608636 -0.00268117 0.00389709 0.00069930
O 2.78361198 3.89123796 32.15095966 -0.00311196 -0.00256750 0.00044490
O 1.77096372 10.05475845 18.06796673 0.00123433 0.00005332 -0.00193737
O 6.63295187 9.21202547 26.70904631 -0.00294885 0.00653771 -0.00250822
O 2.49946536 9.86170730 26.27735927 0.00079871 0.00425454 -0.00446446
O 5.55292586 8.96169563 18.32567700 0.00231152 -0.00418603 -0.00406038
O 7.10856637 2.67291406 32.05437768 0.00111946 0.00135543 -0.00561148
O 1.46848338 3.62977391 23.89361318 0.00341292 0.00352129 0.00163544
O 6.58524711 1.15460253 0.89724270 0.00524160 0.00997440 0.00373897
O 2.46127198 5.09793109 25.82425997 -0.00047429 0.00402357 -0.00114759
O 2.39476187 11.58163956 24.42656663 -0.00094766 -0.00280430 0.00524608
O 6.53251849 7.69635062 16.40944595 -0.00159435 0.00267923 0.00396999
O 1.86165114 11.57601894 16.01456401 0.00472573 -0.00087383 -0.00025379
O 6.26130793 7.44351342 24.44992048 -0.00307560 0.00159811 -0.00172634
O 6.11850234 1.50937383 25.78236030 0.00540932 -0.00149395 0.00024792
O 2.06665151 5.17208464 1.38205010 -0.00094648 -0.00547203 0.00281327
O 6.06720166 15.68294809 6.58848971 -0.00332274 -0.00528332 -0.00447612
O 2.41389205 16.20098855 14.72093341 0.00273977 0.00162489 -0.00377599
O 1.71500298 22.51680590 1.48418833 -0.00324377 0.00469379 0.00240955
O 6.92353502 22.02026133 9.12878873 -0.00506844 -0.00265334 -0.00162609
O 2.52946734 22.52505573 9.82049571 -0.00351778 -0.00316439 -0.01243295
O 5.70845963 21.94230621 1.00538706 0.00509490 -0.00201960 -0.00325137
O 6.72103418 15.40563819 14.95524679 0.00411371 -0.00540059 -0.00040145
O 1.77795442 16.20206111 6.27507956 0.00024548 0.00021297 -0.00041248
O 6.35394833 13.99470394 17.21754360 -0.00205770 -0.00003804 0.00255849
O 1.85374229 17.71355700 8.41313065 0.00004928 -0.00142923 0.00192238
O 2.27507026 24.24559611 7.53312929 0.00059630 0.00032024 0.00301906
O 6.51385883 20.33551271 32.06117478 0.00056612 0.00313306 0.00129832
O 1.86057675 24.34548501 32.51242227 -0.00672197 0.00107062 -0.00278747
O 6.13235722 20.29617052 6.98892466 -0.00315406 -0.00327215 -0.00395676
O 6.05185177 14.09718302 8.77124534 0.00133471 0.00329553 0.00215282
O 2.08548966 18.03180404 16.79042339 0.00208186 -0.00274146 -0.00375287
O 6.14576521 15.60375162 23.34945829 -0.00031950 -0.00371511 0.00563999
O 2.46190724 16.14804622 31.17854581 -0.00154060 -0.00051325 -0.00130682
O 1.35513810 22.91218521 17.97326169 -0.00137027 0.00666000 0.00275934
O 7.28109733 21.67607289 26.07314367 0.00076907 -0.00538548 -0.00364830
O 2.83980317 22.64725505 26.38957873 0.00405757 -0.00805271 0.00443429
O 5.68077886 21.86834360 17.62291681 0.00054033 0.00223680 -0.01041111
O 6.85413675 15.42942585 31.49357698 -0.00591726 0.00567322 -0.00291440
O 1.75905619 16.16766190 22.89649799 0.00058684 0.00492997 -0.00315408
O 6.27225015 13.88565788 0.33873613 0.00222296 -0.00405309 0.00571271
O 1.81881302 17.95983190 25.08559265 -0.00619482 -0.00033844 -0.00314522
O 2.46272718 23.98146169 24.25671354 0.00638811 0.00184216 -0.00019362
O 6.17757906 20.45752956 15.47393285 0.00172215 -0.00174679 0.00413311
O 1.43951390 24.57667581 15.86289551 0.00015593 0.00233046 -0.00465587
O 6.73185150 20.58574830 23.85404626 0.00404163 -0.00022235 -0.00693960
O 6.31834025 13.97714655 25.37270149 -0.00214371 0.00219495 0.00660311
O 2.55383547 17.80472943 0.18262786 -0.00194830 0.00223696 -0.00089246
O 13.92405018 2.66846344 7.14625780 -0.00147025 -0.00359149 0.00072102
O 11.69713458 3.83450856 15.77106263 0.00136077 -0.00568492 0.00240710
O 10.14457703 9.94051494 1.17703659 0.00317392 -0.00009199 -0.00293839
O 15.30846404 8.79603180 9.53536315 -0.00426290 -0.00876358 -0.00147695
O 11.50687852 10.26867505 9.35426059 0.00343247 0.00016321 0.00030422
O 14.66998040 9.70522334 1.51099688 -0.00393019 0.00174827 0.00007918
O 15.27108876 2.82238190 15.74185223 0.00016823 -0.00434100 -0.00037858
O 9.81538360 3.77983199 7.60914374 -0.00378703 0.00390512 -0.00361290
O 15.09091316 1.18538496 17.65888926 -0.00601968 0.01234044 0.00326912
O 10.40515965 5.12946414 9.70897323 -0.00333973 0.00862171 -0.00390889
O 10.80451234 11.52930687 7.28696600 0.00117494 -0.00163367 0.00514216
O 14.63369467 7.86028878 32.55235084 0.00030558 0.00093119 0.00494825
O 10.66083302 11.40865326 32.22564284 0.00195120 -0.00087502 0.00453233
O 14.46107134 7.55387573 7.46850673 0.00403330 0.00248092 0.00609805
O 14.61211805 1.34564039 9.43118231 0.00603653 0.00064476 -0.00085186
O 11.13950859 4.71522278 18.13356998 0.00834278 -0.00007571 -0.00441845
O 14.26000559 3.11291448 23.52710723 -0.00364736 -0.00279801 -0.00005879
O 11.39703593 3.63972867 32.26432925 0.00359885 -0.00377371 0.00460249
O 10.28814990 9.81939038 17.71871592 0.00649588 0.00762749 0.00552999
O 15.33993834 9.78474191 26.41740468 0.00089941 0.00054524 -0.00403129
O 11.48016738 9.73037495 26.08148583 0.00448317 -0.00196608 -0.00724082
O 14.38833931 9.34508955 18.39523892 0.00200533 0.00137809 0.00388996
O 15.21828147 2.51370296 31.98594493 0.00271670 0.00061365 0.00615122
O 9.66741515 3.53019025 24.17237339 -0.00111133 -0.00439537 0.00236716
O 14.90038014 1.06695102 1.11384989 0.00236975 0.00238890 -0.00021054
O 10.21319614 5.14895580 26.26270334 -0.00126414 0.00269297 0.00089426
O 11.23967675 11.46645737 24.07067839 -0.00240924 0.00527855 0.00472693
O 14.70549074 7.82569554 16.20995431 0.00481449 -0.00365217 0.00239049
O 10.11576036 11.43996058 15.66882120 -0.00007072 -0.00209147 -0.00203568
O 15.16909728 7.65534269 24.47009464 -0.00373033 -0.00042130 0.00014482
O 14.35490065 1.47905777 25.59512288 -0.00307933 -0.00016531 0.00098804
O 10.88317193 4.98658502 1.33718518 -0.00259267 -0.00280562 -0.00041636
O 14.50506709 15.67001846 6.71580000 -0.00145831 0.00025446 -0.00264598
O 11.32867893 16.83645599 14.65675601 0.00768990 -0.00036992 0.00145432
O 10.35085033 22.79920687 1.53989245 -0.00229521 -0.00178856 0.00170832
O 15.79551692 21.88541056 9.50903223 0.00400392 0.00459301 -0.00621379
O 11.61574944 22.96675268 10.02116822 0.00516042 0.00756163 0.00599585
O 14.91817791 21.75441951 0.88667348 -0.00277956 0.00414564 0.00321103
O 15.32760204 15.58118434 14.98914782 0.00887223 -0.00389171 -0.00115510
O 9.83118137 16.59609404 6.56224847 0.00550613 0.00066520 0.00199253
O 14.93500071 13.78474198 16.98072171 0.00306269 0.00571072 0.00163599
O 10.52813180 18.24439018 8.67159446 0.00354621 -0.00059070 0.00353489
O 11.11912135 24.29715384 7.60106139 -0.00385487 0.00451075 0.00393251
O 15.02751360 20.41060664 31.67762108 0.00155993 0.00009569 -0.00463851
O 10.99472571 24.30083225 32.54760332 0.00016557 0.01078739 -0.00051200
O 15.06163730 20.65509429 7.17984980 0.00210490 -0.00234541 -0.00029591
O 15.01650022 14.02681316 8.71878810 0.00643822 -0.00075500 0.00366888
O 10.55627313 17.88313535 16.88567360 -0.00418879 0.00078935 0.00243732
O 14.76533660 15.29180043 23.17759613 0.00347168 -0.00096354 0.00482038
O 10.99020782 16.58774205 31.51106629 -0.00749391 0.00666975 0.00734320
O 9.93426235 22.72731398 18.00396457 0.00113407 -0.00415576 0.00594965
O 15.65783738 21.93702389 25.55071206 0.00001389 -0.00121276 -0.00377917
O 11.12431868 22.37025517 26.23994892 0.00146853 -0.00725288 0.00055901
O 14.43310963 21.66464330 17.37745738 0.00494583 0.00221517 0.00325228
O 15.00554736 15.41313314 31.54635346 -0.00407892 0.00209334 0.00477673
O 10.20211564 16.31074309 23.07700779 0.00119879 -0.00148025 0.00195812
O 14.63607761 14.09020300 0.63661990 0.00414668 0.00254441 0.00559670
O 10.74201670 17.69055008 25.20169025 -0.00481972 0.00079629 0.00356959
O 10.73107748 24.00505551 24.10052263 0.00019751 0.00765645 -0.01038499
O 15.17822039 20.18167670 15.46002331 0.00074547 0.00324037 -0.00740405
O 10.31300833 24.34037518 16.06048537 0.00067126 -0.00307712 0.00219528
O 15.07293402 20.18141414 23.61094462 0.00074615 0.00327118 0.00929654
O 15.24497119 14.19151846 25.34409589 -0.00274036 0.00482604 0.00471589
O 10.79425688 18.09883748 0.52232702 0.00402585 -0.00205600 -0.00696895
O 22.93517801 2.88412529 6.91957250 -0.00451172 -0.00123054 -0.00398384
O 20.03193197 3.95526739 15.17077689 0.00335771 0.00367012 -0.00154320
O 18.70022352 10.25390755 1.33517038 0.00297355 -0.00219731 -0.01076130
O 23.44562891 9.18907525 9.78071487 0.00176974 0.00106646 -0.00515599
O 19.78811676 10.43428380 9.63379537 0.00118833 -0.00171891 0.00302212
O 22.57958282 9.00606745 1.66653833 0.00672014 -0.00323073 0.00087027
O 23.71397173 2.62534900 15.42390528 -0.00331257 0.00482005 0.00232281
O 18.99720572 3.88656324 7.19739900 0.00051864 -0.00023856 -0.00641929
O 23.20278483 1.10276969 17.49712267 -0.00021282 -0.00243355 -0.00029469
O 19.24589852 5.44832019 9.21542899 0.00092199 -0.00201095 0.00198039
O 19.29218062 11.73930535 7.52501135 0.00327412 -0.00260547 -0.01170715
O 23.08994199 7.53461687 32.64364072 0.00040669 0.00458935 0.00146118
O 18.99990216 12.09393902 32.67898174 -0.00259056 -0.00154502 -0.00569424
O 23.03378497 7.59319638 7.64801818 -0.00715954 -0.00264063 -0.00222275
O 23.22116315 1.54646512 9.04709403 -0.00609630 0.00460168 0.00359148
O 19.22003308 5.02359753 17.38297700 -0.00429840 0.00507585 -0.00176383
O 23.11851469 2.78813545 23.58781375 -0.00547005 0.00158664 -0.00383916
O 19.93517992 3.43830249 31.86597007 -0.00142086 0.00402050 0.00074609
O 18.84334058 9.84442965 18.17454767 0.00133575 -0.00482049 0.00006814
O 24.37525975 8.83175791 26.57855754 0.00073384 0.00097010 0.00299227
O 20.07121242 9.81970500 26.69829332 0.00107340 0.00903424 -0.00281392
O 23.26647001 9.36241910 17.95444430 0.00491216 0.00374975 0.00704299
O 24.03032156 2.72212230 31.75998999 -0.00460087 0.00451174 0.00480356
O 18.67382100 4.12260007 23.72533263 0.00991394 0.00285985 0.01367069
O 23.31505331 1.21819562 0.87793977 -0.00218531 0.00379379 -0.00001618
O 19.11647140 5.37687958 25.96525538 0.00236656 0.00033170 -0.00720113
O 19.59907572 11.12876599 24.44307055 -0.00428701 0.00115442 -0.00250315
O 23.33375108 7.67205318 15.94514392 -0.00464569 -0.00392568 0.00053584
O 19.10807452 11.43559887 15.97320055 0.00078118 -0.00553148 -0.00194115
O 23.87024607 7.63220364 24.21669050 0.00198320 -0.00321520 -0.00346751
O 23.41355306 1.31599231 25.56259624 0.00138897 -0.00008696 -0.00547682
O 19.42046963 4.94083866 0.90444487 -0.00433863 -0.00187724 0.00452567
O 23.18699142 15.38276553 6.79235556 -0.00189439 0.00225390 -0.00502798
O 19.24581907 15.98622578 14.87682988 -0.00928367 -0.00523292 0.00063932
O 18.80751089 22.75952301 1.37015482 0.00032648 -0.00161341 -0.00269344
O 24.19136244 21.49738184 9.12361466 -0.00627090 -0.00019465 0.00057486
O 19.74955153 22.49127369 9.55411787 -0.00563053 -0.00036695 0.00282025
O 23.36681807 22.08038879 0.41031568 -0.00737878 0.00248522 0.00010016
O 23.98511369 15.50397889 15.18858807 0.00099380 -0.00300581 -0.00596438
O 18.92782374 16.01476489 6.45239380 -0.00519010 0.00739957 0.00285667
O 23.18233832 14.01375059 17.24663270 0.00787597 -0.00419454 0.00461742
O 18.90646653 17.68522684 8.63727314 -0.00100932 0.00215444 -0.00739850
O 19.40157673 24.21537454 7.59563311 -0.00737090 0.00222705 0.00474066
O 23.93635657 20.33589181 31.66493684 -0.00012519 -0.00474500 0.00254214
O 19.07806126 24.03386209 32.12996076 0.00000162 0.00312101 -0.00463443
O 24.09332201 20.66443656 6.74661778 0.00051041 -0.00662532 -0.00047623
O 23.41112239 13.94810971 8.89872851 -0.00417723 -0.00526748 -0.00079424
O 19.20665066 17.65584259 16.83544190 -0.00075245 -0.00525269 0.00264995
O 22.88384041 15.11937357 23.51323702 0.00691910 -0.00292070 -0.00682487
O 20.12279121 16.19212172 31.25566681 0.00205988 -0.00294708 -0.00384695
O 18.96854483 22.61746280 17.96337721 0.00383581 -0.00447078 -0.00195417
O 23.84823261 21.72860385 25.32969829 0.00290412 -0.00380564 -0.00871031
O 19.95467503 23.07056920 26.01491984 -0.00091855 -0.00413685 0.00011309
O 22.78330285 21.55075966 17.45550231 -0.00078058 0.00065245 0.00302619
O 23.89851276 15.49932767 31.51537854 -0.00471956 0.00283305 -0.00079042
O 18.63460173 16.13155280 23.00002558 -0.00144547 0.00289697 -0.00478758
O 24.09445767 13.99786336 0.70503837 -0.00217018 0.00022092 -0.00627656
O 19.21533859 17.78654173 25.06934995 0.00200519 0.00446164 -0.00144002
O 19.39151933 24.61659927 24.04403618 -0.00418903 -0.00179300 0.00209341
O 23.25320109 20.30515390 15.21688560 0.00278368 -0.00451432 0.00492631
O 18.85606719 24.02606405 15.81246854 -0.00594355 -0.00086111 0.00260851
O 22.98990836 20.05819070 23.56326517 -0.00330058 -0.00194538 0.00394228
O 23.56003163 13.56604668 25.49593739 -0.00229856 -0.00073661 -0.00000745
O 19.89582866 17.68895225 0.29718437 0.00591983 -0.00270589 0.00309875
N 7.50493267 12.71018441 1.99144548 0.00566150 -0.00592881 -0.00686977
N 0.84767370 6.50768175 11.13897339 -0.00320576 0.00029986 0.00138836
N 3.38366640 25.53079258 5.83497522 -0.00006126 -0.00339693 0.00039283
N 5.45077984 6.56356852 14.71263378 -0.00787098 0.00203145 -0.00637160
N 1.25294124 0.40649110 14.05520114 -0.00117208 0.00536507 0.00095074
N 7.44032850 6.46680771 6.19418909 0.00709102 -0.00260033 0.00466260
N 5.14091834 12.69866688 10.35743223 -0.00095966 -0.00309626 -0.00060876
N 3.29125324 6.08539803 3.15221721 -0.00788900 0.00182906 -0.00026207
N 7.36796735 12.83750181 18.74531512 0.00253586 -0.00086704 0.00941228
N 1.15245746 6.16970319 27.34402932 0.00016953 -0.00342521 -0.00568732
N 3.08839961 25.44615752 22.55999741 0.00378693 -0.00556112 0.00260002
N 5.28100874 6.37899907 31.32311890 0.00372784 0.00162731 0.00073632
N 1.34728173 0.09351712 30.72218920 -0.00111503 -0.00155198 -0.00308710
N 7.58382858 6.48010093 22.76582904 -0.00003033 -0.00149550 -0.00188063
N 5.37858648 12.63945787 26.96780246 -0.00224719 -0.00280334 0.00005486
N 3.11784376 6.07902597 19.19350923 0.00969789 0.00634527 0.00290755
N 7.75325158 0.13270237 2.52496793 0.00054558 -0.00088441 0.00405099
N 1.10080366 19.12939607 10.00325627 -0.00689978 -0.00333473 -0.00291947
N 3.58080646 12.96724782 6.02444516 -0.00210245 0.00260517 0.00924331
N 5.29732668 19.25081795 13.69289211 0.00089277 0.00373832 0.00399890
N 0.64147579 12.58885031 14.33743933 0.00284228 -0.00536387 -0.00084305
N 7.60386007 19.27710376 5.52187236 -0.00610768 -0.00221949 0.00148880
N 5.20847307 0.26731741 11.07740443 0.00688213 0.00289392 -0.00315473
N 3.32104655 19.19460975 1.91143308 -0.00047601 0.00138317 -0.00777434
N 7.49750984 0.17167110 18.93116794 0.00308614 0.00209997 -0.00604547
N 1.18291408 19.33087244 26.86612815 -0.00134597 0.00315329 -0.00424078
N 3.23512532 12.80306362 22.62122474 -0.00056611 -0.00412891 0.00250137
N 5.66317763 18.99543481 30.51650956 0.00875859 -0.00377555 0.00613482
N 1.14319993 12.50216988 30.90476490 -0.00040763 0.00396103 0.00350292
N 7.21015663 19.15790022 22.18477445 0.00382991 0.00572242 -0.00488068
N 5.23718956 0.23070388 27.46130902 -0.00838807 -0.00203823 0.00455071
N 3.03097747 19.32607809 18.42868744 -0.00218415 0.00235889 -0.00330688
N 15.74013284 12.69945957 2.12948247 0.00462436 -0.00086732 0.00335967
N 9.38266088 6.22885350 11.44158466 0.00364250 -0.00306229 -0.00212291
N 11.79296150 0.25088003 5.99057808 -0.00316135 -0.00712499 -0.00025619
N 13.66187568 6.64830242 14.49020517 -0.00181590 0.00485915 0.00018644
N 9.48922882 0.09152699 14.35461635 0.00023597 -0.00047727 -0.00253259
N 15.67016667 6.40748515 5.98000483 -0.00472777 0.00015965 -0.00904118
N 13.89586693 12.79784932 10.36804602 -0.00260272 -0.00463519 -0.00214140
N 11.97124218 6.25952303 2.98926827 0.00028953 0.00200317 0.00693937
N 15.91511060 12.56928694 18.63087165 0.00139358 -0.00581121 0.00830943
N 9.60109961 6.69294040 27.86057293 0.00272388 0.00014763 0.00391446
N 11.72614207 25.33812082 22.63642408 0.00001634 -0.00006333 -0.00097053
N 13.62816586 6.81364616 30.84275398 0.00494742 -0.01155054 0.00495566
N 9.61222915 25.14560925 30.84985268 0.00164305 0.00338215 0.00212717
N 16.01875143 6.36820482 22.77740171 -0.00051641 -0.00092038 0.00192760
N 14.23637423 12.71089877 26.73966010 -0.00105910 -0.00848760 0.00003561
N 11.85650928 6.10753437 19.78329172 -0.00331403 0.00128131 0.00156585
N 16.17632749 0.17739617 2.86551642 -0.00342196 0.00522449 0.00568056
N 9.58794757 19.56080647 10.37612002 0.00103057 -0.00261017 -0.00176343
N 11.56669203 12.91659757 5.61643308 0.00359109 -0.00231897 0.00400209
N 13.80910204 19.11285634 13.83757329 0.00126787 0.00499308 -0.00725589
N 9.46104964 12.74266050 13.92510077 -0.01115761 0.00091921 0.00311186
N 16.16204958 19.31252345 5.67085422 -0.00245164 0.00719899 0.00035207
N 14.02849311 25.44212012 11.10096832 -0.00046086 -0.00262907 -0.00196020
N 11.94715242 19.13636576 2.13644317 -0.00073074 -0.00188201 -0.00107254
N 16.23184250 0.14346401 19.39801130 0.00398056 0.00250848 0.00767033
N 9.93356300 19.19328558 26.69401513 0.00471974 -0.00243525 0.00640562
N 11.77520439 12.69171109 22.17872403 -0.00623685 0.00992911 0.00338640
N 13.77589024 19.31606368 30.19481005 0.00308384 0.00281664 -0.00589408
N 9.53903746 12.42303442 30.46453614 -0.00486863 -0.00630499 0.00174931
N 16.40610245 19.22998477 22.00099036 0.00156531 -0.00203171 -0.00395824
N 13.51106120 0.17306871 27.27735982 -0.00260175 -0.01099216 -0.00076194
N 11.51821271 19.18963462 18.54415010 -0.00775798 -0.00737478 -0.00389890
N 24.63268856 12.54148103 2.31958421 0.00155535 -0.00148335 -0.00237412
N 17.78424930 6.38925155 10.73647028 0.00318213 0.00045150 0.00434469
N 20.09899123 25.50901278 5.93068766 0.00114272 -0.00479818 0.00576694
N 22.31830195 6.34195285 14.47219445 0.00406488 0.00116089 0.00491174
N 18.11391902 25.25268945 14.08914685 -0.00175764 0.00609847 0.00301445
N 24.45654460 6.55755538 6.26289956 -0.00238085 0.00417367 -0.00116248
N 22.40153890 12.75771126 10.57593466 -0.00403757 -0.00353515 0.00021751
N 20.19671704 6.51398992 2.39674537 0.00580352 -0.00507106 0.01081139
N 24.37973133 12.80849371 18.77891880 0.00206303 -0.00238985 -0.00421835
N 18.02003496 6.38731932 27.63995841 -0.00391069 -0.00208017 0.00502411
N 20.14540092 0.32627048 22.35006674 -0.00420882 0.00607702 0.00686037
N 22.39978051 6.36433490 30.87829575 0.00088600 -0.00322111 0.00142915
N 17.85542703 25.22996538 30.56281673 0.00342453 0.00042699 -0.00535135
N 24.61219221 6.25195483 22.49241923 0.00213113 0.00226599 0.00044822
N 22.39342550 12.46865522 27.19677650 -0.00282353 0.00340795 0.00086806
N 20.35356714 6.18414793 18.89958363 -0.00725208 -0.00067845 -0.00140066
N 24.63770689 0.18709824 2.40756753 0.01103710 -0.00504505 -0.00168680
N 17.86115266 18.88278432 10.31427626 0.00585864 0.00323261 -0.00519747
N 20.37621362 12.97625677 5.89849403 0.00367908 0.00568952 0.00670598
N 22.47421743 18.81761105 13.68395336 0.00056112 -0.00823479 0.00248231
N 18.23263100 12.76422930 14.28789128 -0.00288642 0.00605480 0.00016050
N 24.58582537 19.24702033 5.08531794 0.00274382 -0.00118825 0.00020721
N 22.56406202 0.10416802 10.66102666 0.00105834 0.00594680 -0.00346365
N 20.46405673 19.07789428 1.99738021 -0.00260389 -0.00329221 -0.00549874
N 24.66108067 0.03914801 18.96466893 -0.00128263 0.00273739 -0.00859340
N 18.28966404 19.07921036 26.80342631 -0.00221082 0.00086423 -0.00220037
N 20.18390888 12.46347534 22.70998451 0.00417120 -0.00909080 -0.00257968
N 22.57288325 19.35119520 30.17403258 -0.00108085 0.00037864 0.00312361
N 18.10474515 13.02786379 30.75757977 -0.00569453 -0.00409629 0.00133517
N 24.58271463 19.20584638 22.13173670 0.00538902 -0.00400975 0.00285807
N 22.16860978 0.20526666 27.14378792 -0.00335630 0.00647944 0.00010450
N 20.35393625 18.78412606 18.45724797 0.00562777 -0.00138680 -0.01019784
C 7.51952885 0.42527536 4.85614633 0.00368179 -0.00357637 0.00324555
C 0.77731202 6.08414943 13.52259128 0.00630701 -0.00190055 -0.00200772
C 3.57480790 12.62991417 3.56424779 -0.00203698 0.00045568 0.00364785
C 5.26854215 6.90579995 12.25391509 -0.00335318 0.00087535 -0.00563565
C 0.80077951 12.25814766 11.91103940 -0.00038456 0.00187457 0.00451469
C 7.58692470 6.87064773 3.86492570 0.00050544 -0.00823313 0.00503855
C 5.24349863 0.79340917 13.36749641 0.01058351 0.00168650 0.00448391
C 3.17986044 6.05429952 5.45099901 -0.00148994 0.00440614 -0.00060465
C 6.89974043 1.09427518 5.90172690 0.00284626 0.00273241 0.00789227
C 1.31193055 5.44631809 14.65951578 -0.00175322 -0.00844903 0.00622482
C 3.10697880 11.88740746 2.48651499 -0.00411096 -0.00314399 0.00254010
C 5.53852170 7.67316959 11.16622389 0.00323520 -0.00173975 -0.00067658
C 1.25438945 11.57686724 10.80629351 -0.00608835 -0.00162463 -0.01026385
C 7.10090199 7.45449532 2.74623330 -0.00039108 -0.00590225 0.00783522
C 5.64763961 1.56401002 14.38987374 0.00089866 0.00130052 0.00310777
C 2.64507507 5.56463801 6.62002241 -0.00673740 0.00468609 -0.00543444
C 6.16229663 2.30527493 5.75838995 0.00002223 -0.00037457 -0.00062215
C 2.35081108 4.51624206 14.48937376 -0.00641966 0.00744408 -0.01289839
C 2.21114453 10.82320224 2.59089642 0.00414500 0.00995583 -0.00029156
C 6.41458723 8.79787753 11.28931843 0.00260180 -0.00309915 0.00003523
C 2.19131418 10.51725218 10.93912136 0.00383445 0.00338599 0.00986853
C 6.44869004 8.73116504 2.76804401 -0.00675557 0.00081422 0.00547078
C 6.50391424 2.64592199 14.19293018 -0.00296438 -0.00242738 -0.00062625
C 1.86828657 4.35846788 6.67715539 -0.00578876 -0.00609392 0.00043884
C 5.99625873 2.73849547 4.38947734 0.00076658 -0.00131079 -0.00624036
C 2.73506237 4.11819502 13.18476421 0.00228154 -0.00252223 -0.00187422
C 2.09480657 10.27351861 3.90955761 -0.00907853 -0.00658517 -0.00091379
C 6.79061298 9.23943255 12.58413467 0.00280934 -0.00775716 -0.00818478
C 2.29765385 9.98549421 12.20499364 -0.00312182 -0.00381575 0.00254728
C 6.23958402 9.25046905 4.09254916 -0.00211998 -0.00219661 -0.00131346
C 6.79816963 3.01704544 12.84325090 0.00167323 0.00645143 0.00060425
C 1.69013916 3.69576686 5.49250806 0.00078412 0.00503394 -0.00223360
C 6.52897998 2.05300450 3.33309767 -0.00380086 0.00051998 0.00395745
C 2.18761314 4.77183556 12.12808434 -0.00458598 0.00174480 -0.00652554
C 2.69900036 10.89887215 5.03519842 0.00516146 0.00665326 -0.00169010
C 6.42910573 8.46955091 13.70652645 0.00405775 0.00128129 -0.00130877
C 1.71900031 10.57302035 13.33275627 -0.00443829 -0.00035334 -0.00082232
C 6.61891222 8.58428637 5.26252966 0.00335052 0.00827415 0.00101143
C 6.23657060 2.41756516 11.80725557 -0.00062622 -0.00187713 -0.00711046
C 2.02739099 4.25680510 4.25548857 0.00105649 0.00163982 -0.00173007
C 7.27171025 0.88928445 3.56241361 -0.00596439 0.00529963 -0.00830603
C 1.25868690 5.81558051 12.25444094 0.00301203 -0.01028891 0.00042253
C 3.24858610 12.17586184 4.86783460 0.00318029 -0.00307425 0.01178407
C 5.69452315 7.34786114 13.57070569 0.00365833 -0.00556865 -0.00868266
C 1.07465550 11.81954049 13.21173099 0.00788563 -0.00227958 -0.00099135
C 7.22585681 7.33869919 5.17662550 0.00114997 0.00097739 0.00157283
C 5.52476297 1.16009883 12.03809253 -0.00159315 0.00823940 0.00572064
C 2.84039496 5.48090615 4.25319417 -0.00476595 0.00609133 0.00590135
C 7.16431667 0.16821672 1.27796436 -0.00220126 0.00484251 -0.00717002
C 1.41503703 6.46332940 9.87035065 -0.00058641 -0.00018936 0.00058206
C 3.04165163 12.75990203 7.24905238 0.00156314 -0.00122581 -0.00230500
C 6.00993806 6.68288509 15.93556862 -0.00737317 -0.00005356 0.00455343
C 1.27667093 12.56869740 15.55158763 -0.00536449 0.00364822 -0.00222459
C 6.83322381 6.53313454 7.46736814 -0.00587399 -0.00228740 0.00340378
C 5.56427796 0.30098801 9.74251544 -0.00337550 -0.00114964 0.00257664
C 2.75430920 6.04272721 1.90928046 -0.00584648 -0.00092352 0.00012501
C 6.62142096 11.63512058 16.82983310 0.00436139 -0.00048778 0.00345576
C 1.19031527 7.67201151 9.03154458 -0.00245628 0.00150384 0.00279115
C 2.84621735 0.94725880 8.05216909 0.00006987 0.00344772 0.00212316
C 5.75011993 5.39932297 0.43691937 -0.00538969 -0.00250165 0.00493905
C 1.45681342 1.05456352 33.05791596 0.00546121 -0.00381901 0.00337857
C 6.79705279 5.27350931 8.35616884 -0.00682739 -0.00141333 -0.00391204
C 5.81814353 11.73253667 8.22647802 0.01111058 -0.00679760 0.00551770
C 2.84326530 7.27011960 17.14006229 0.00195589 -0.00481052 -0.00651592
C 7.36973990 0.50129973 21.32033595 -0.00104725 0.00155129 -0.00228752
C 1.05325106 6.03856127 29.69818905 -0.00282225 -0.00561549 -0.00155900
C 3.27682471 12.54624581 20.27665071 0.00483961 -0.00324946 -0.00175517
C 5.25699730 6.66873354 28.89102627 -0.00694377 0.00511600 -0.00749923
C 1.09431688 12.39340468 28.50554842 -0.00272460 0.00134891 0.00709275
C 7.63058742 6.84416855 20.47979230 -0.00345533 0.00091235 -0.00548318
C 5.25387169 0.58572922 29.82858484 0.00566882 -0.00237932 -0.00600893
C 3.36662131 5.68066202 21.54267872 -0.00381692 -0.00317422 0.00286433
C 6.85697735 1.13260491 22.50846604 -0.00399508 0.00311419 0.00229404
C 1.46221776 5.48646848 30.92760757 0.00622014 0.00285110 -0.00736730
C 2.92838296 11.87055450 19.11947143 -0.00387890 0.00025623 -0.00782658
C 5.70124114 7.31402024 27.78114914 0.00214821 -0.00594825 -0.00439252
C 1.36527325 11.70282149 27.31096139 -0.00784378 0.00491822 -0.00187440
C 7.07520538 7.36347773 19.30343464 0.00607804 0.00692657 -0.00284632
C 5.64136562 1.21733875 30.98790155 -0.00480165 -0.00204908 0.00428826
C 2.90520201 5.11338948 22.72471925 0.00017077 0.00250115 0.00271756
C 6.16746692 2.31294006 22.40038912 -0.01040803 0.00416396 -0.00188050
C 2.34377294 4.38884108 30.97282202 0.00057326 -0.00545448 0.00197579
C 2.24534013 10.67222512 19.18246999 0.00630979 0.00482910 0.00108049
C 6.31838821 8.58716826 27.85647308 0.00359035 0.00270560 -0.00124973
C 2.06844687 10.47817138 27.34307951 0.00082502 0.01075412 -0.00623674
C 6.16183379 8.44810516 19.40636957 0.00281465 -0.00438495 0.00454345
C 6.54303776 2.26937716 30.90426708 -0.00038349 0.00237962 -0.00253436
C 1.92754518 4.04905775 22.70419642 0.00528264 0.00654435 -0.00378632
C 6.07591698 2.91724406 21.14019967 0.00018375 0.00108075 0.00135245
C 2.74610490 3.84813579 29.75939218 -0.00456923 -0.00254047 -0.01209083
C 1.89776791 10.07563947 20.46812744 0.00023821 0.00320923 0.00462049
C 6.50175483 9.14281994 29.10867983 0.01065753 -0.00727658 -0.00354021
C 2.38125705 9.95899231 28.66951866 -0.00421151 -0.00053844 -0.00380452
C 6.04046838 9.04332782 20.67710343 0.00284839 0.00255558 0.00608524
C 6.92798289 2.76132434 29.62821611 0.00103226 -0.00334523 0.00219544
C 1.52974282 3.58454810 21.37723976 -0.00909794 -0.00581085 0.00362321
C 6.58700779 2.25440933 19.98134911 -0.00542923 0.00233330 0.00173097
C 2.41818051 4.44945718 28.55915718 0.00109684 -0.00199389 -0.00396997
C 2.08063791 10.86339716 21.60727459 0.00945751 -0.00107904 0.00069497
C 6.22047145 8.38076191 30.31582679 -0.00085487 0.00332573 0.00255336
C 2.09438086 10.58742430 29.82435201 0.00527772 0.00286389 -0.00376389
C 6.36439234 8.38203434 21.87652046 0.00048927 0.01041058 -0.00413383
C 6.49601494 2.10300354 28.48417137 -0.00527864 -0.00031116 -0.00371396
C 1.92100117 4.21525258 20.24362770 -0.00627202 -0.00145406 0.00481781
C 7.12962674 0.94560640 20.03861460 0.00554409 0.00415622 -0.00411622
C 1.48230838 5.47441371 28.50420791 0.00185829 0.00583661 0.00524133
C 2.86796085 12.04653723 21.49661187 -0.00396990 -0.00220856 -0.00114968
C 5.59396222 7.13818660 30.25131540 -0.00421413 -0.00649446 0.00615450
C 1.40900295 11.82765730 29.76950642 0.00510401 -0.00922141 -0.00778622
C 7.05387288 7.25467516 21.67260127 0.00355870 -0.00088051 0.00073767
C 5.65047630 0.97086826 28.56189747 0.00659296 0.00914442 0.00399523
C 2.78926623 5.29303688 20.29789272 -0.00453262 -0.00254510 0.01024796
C 7.16077910 0.52923431 17.69171282 -0.00856725 -0.00075194 0.00849653
C 1.64569247 5.97534896 26.11181257 -0.00249910 -0.00125062 -0.00304879
C 2.82846793 12.62222267 23.89081847 0.00917515 -0.00270018 -0.00550048
C 5.90864832 6.49709717 32.51864462 -0.00148668 -0.00287584 -0.00510060
C 1.72383154 12.33684434 32.09742121 -0.00628208 -0.00104950 0.00133444
C 6.94316935 6.52347859 23.98783769 0.00113473 0.00163213 -0.00418020
C 5.69063718 0.41275559 26.15609197 -0.00361656 -0.00531069 0.00144483
C 2.68706144 6.00760561 17.91060059 0.00278036 0.00406487 -0.00075559
C 7.14340903 11.67407938 32.92612007 0.00429590 0.00133458 -0.00660476
C 1.31595591 7.09995354 25.16680278 0.00320499 -0.00652439 -0.00073583
C 2.90138125 0.78454797 24.65126889 0.00247758 -0.00248020 -0.00450781
C 5.88512224 5.46590759 16.83936482 -0.00017414 -0.00107988 -0.00347138
C 1.21243894 1.34310701 16.15893475 0.00459841 -0.00828940 0.00734645
C 7.18635442 5.29117064 24.79023979 -0.00052693 -0.00848721 0.00803169
C 5.62683755 11.80894010 24.70532519 -0.00312877 0.00460066 0.00497128