1920
Time=84000.00000008 pbc="T T T" Lattice="25.57915709 0.00000000 0.00000000 0.00000000 25.62635214 0.00000000 0.00000000 0.00000000 32.80042903" energy=-12248.90679729 virial="-41.78282141 23.59958613 29.74962105 23.59958613 -50.25673151 2.82249484 29.74962105 2.82249484 -63.95678497" stress="0.00027300 0.00107679 0.00143338 0.00107679 -0.00016158 0.00011959 0.00143338 0.00011959 -0.00068918" Properties=species:S:1:pos:R:3:vel:R:3
O 6.06781902 2.89580182 7.16172913 0.00037129 -0.00365354 -0.00202942
O 2.61657563 3.20677396 15.12618874 0.00013030 0.00487193 0.00312167
O 1.57465702 10.10841049 0.89474280 -0.00041827 0.00253917 0.00001729
O 6.98490709 9.44792131 9.47964422 -0.00224624 0.00167556 0.00317109
O 2.80841092 10.39508308 9.21243640 -0.00158497 -0.00384310 -0.00435465
O 5.89777009 8.94912537 1.42038609 -0.00353854 0.00052117 -0.00370831
O 6.97407453 2.82888873 15.23040019 0.00589161 0.00729900 0.00164795
O 1.83306987 3.73526153 6.88417252 0.00184717 0.00656630 -0.00855003
O 6.29448758 1.36539415 17.31200618 -0.00387276 -0.00473272 0.00055156
O 2.06882097 5.28758200 9.09650203 0.00225198 -0.00083728 0.00125575
O 2.46373421 11.76344161 6.93684506 0.00308593 0.00343678 -0.00562390
O 6.44365855 7.48093896 32.00458230 -0.00237396 0.00452137 0.00256797
O 2.20894033 11.49786962 31.68815458 -0.00589418 -0.00354261 -0.00503671
O 6.67581640 7.87946995 7.47664844 0.00508679 0.00233930 0.01093086
O 6.45024924 1.25344898 9.08670130 0.00087023 0.00406884 -0.00103485
O 2.30528709 5.08545682 17.01100080 -0.00399927 -0.00316050 -0.00426658
O 5.73982780 2.54662389 23.60098946 0.00012947 -0.00045057 -0.00151524
O 3.01143939 3.61116655 31.52619410 0.00169910 0.00477613 0.00619561
O 0.91707228 10.25859761 17.61679163 0.00267019 0.00880234 0.00080621
O 6.98447333 9.12811366 25.93594060 -0.00664068 0.00276812 0.00218582
O 2.26798651 9.94307623 25.39032128 -0.00155421 0.00183348 0.00100561
O 5.55719631 9.18880240 17.73743279 0.00117556 -0.00177345 -0.00493233
O 7.09598691 2.48416266 31.83247694 -0.00901529 -0.00215159 -0.00072585
O 1.88836390 3.37487207 23.26567391 0.00095004 -0.00234762 -0.00182756
O 6.40997562 1.16370350 1.10757401 0.00099354 -0.00117636 0.00151136
O 1.88960238 4.84828239 25.39202698 0.00128641 -0.00191208 0.00144714
O 2.17837166 11.63595104 23.58202068 -0.00117776 0.00434952 0.00328411
O 6.14822254 7.81917936 15.55432131 0.00367716 -0.00739477 0.00910633
O 1.83993690 11.39980800 15.33215467 0.00136138 0.00566217 0.00731878
O 6.68072260 7.51385843 23.77110718 0.00187272 -0.00333556 0.00060315
O 6.41769496 1.12315800 25.63889502 0.00030008 0.00157199 0.00531822
O 2.39785760 5.20548537 0.67553838 -0.00061108 0.00423871 -0.00399749
O 5.87678426 15.92194122 6.56972314 -0.00033578 -0.00087182 -0.00039032
O 2.92368669 16.38697895 15.04464217 0.00122738 -0.00228089 -0.00025684
O 2.12670431 22.60964012 1.82268955 0.00278500 -0.00111500 0.00110287
O 6.73569981 21.99289423 9.31644541 0.00244701 0.00302257 -0.00414191
O 2.84900215 23.21787350 9.53049940 0.00072818 0.00277991 -0.00637995
O 6.04819162 21.90832487 1.02153227 0.00618940 0.00495105 -0.00178366
O 7.14139661 15.73573451 14.69557035 0.00135723 -0.00333331 0.00190285
O 1.41548675 16.58664419 7.07152258 0.00397768 0.00042006 -0.00299310
O 6.44143725 14.29691671 16.76257525 -0.00061374 -0.00310054 0.00469145
O 1.90107025 18.23174226 8.99290299 0.00261757 0.00409476 -0.00017661
O 2.16081432 24.96703655 7.73411491 0.00242537 -0.00040411 0.00262128
O 6.71088483 20.14018592 32.07561814 -0.00246479 -0.00777304 0.00202509
O 1.97393592 24.22910142 32.45472165 0.00062690 -0.00296872 -0.00277090
O 6.73904614 20.27961285 7.16943477 0.00646467 0.00250871 -0.00841839
O 6.33240800 14.31678286 8.62862449 -0.00138091 -0.00247302 0.01010682
O 2.03981534 17.88216116 17.22892078 -0.00149945 0.00221373 -0.00002509
O 5.93149603 15.57350697 22.94256529 0.00101447 0.00329457 -0.00137560
O 2.70752615 16.41149877 31.46839501 0.00120454 0.00265539 -0.00174903
O 1.74509350 22.91367017 17.74333744 -0.00496541 -0.00326737 -0.00648212
O 6.96908677 21.92551348 25.99798728 0.00002404 0.00119326 0.00640001
O 2.80105961 23.25831324 26.18847480 0.00615135 0.00208361 0.00424425
O 5.31323879 21.76346385 17.66188941 -0.00141661 -0.00964384 -0.00070372
O 6.96674671 15.66427360 31.29500744 -0.00191545 -0.00540810 0.00000546
O 1.48403718 16.58181423 23.42375547 0.00671316 -0.00316167 -0.00283787
O 6.71758018 13.98732879 0.43948931 0.00376927 0.00779054 0.00420393
O 2.35840795 18.38973336 25.48825226 -0.00314755 0.00024298 0.00098284
O 1.94588737 24.23943271 23.99467229 -0.00134632 0.00134235 -0.00225918
O 6.09750928 20.58771153 15.48894281 0.00161584 0.00289695 0.00767247
O 1.86410439 24.42978701 15.71628728 0.00351284 -0.00067467 -0.00186446
O 6.74730918 20.42671170 23.79488949 -0.00140965 -0.00519184 -0.00013326
O 6.22807186 13.95402586 24.83792856 -0.00010854 0.00222438 0.00217935
O 2.35742436 17.89174190 0.97899875 -0.00267984 -0.00353874 0.00086686
O 14.56944457 2.59806122 7.19826463 -0.00198962 0.00229635 0.00111917
O 10.89626502 3.59905516 15.25846877 -0.00817398 0.00428657 -0.00287390
O 10.30161713 9.94650447 0.79813390 0.00158424 0.00390779 0.00423049
O 15.35199002 9.44424543 9.67375104 -0.00643759 0.00438988 0.00047374
O 11.16840743 10.40444435 8.76302032 -0.00332995 -0.00587628 0.00160344
O 14.67010722 9.21312512 1.63306121 -0.00250182 0.00948556 -0.00606272
O 15.50469948 2.83620186 15.46865813 -0.00312907 -0.00145632 -0.00021933
O 10.05796974 3.92234129 7.27501746 0.00195167 0.00161790 -0.00320635
O 15.06477393 1.22300461 17.55265987 0.00324841 -0.00454453 0.00496085
O 10.58161757 5.50688421 9.13815368 0.00155466 -0.00132295 -0.00422623
O 10.34689425 11.68385244 6.88415313 -0.00177714 -0.00778739 0.00220336
O 14.06513050 7.72582819 32.31616336 0.00232384 -0.00335477 -0.00151191
O 10.45183991 11.37012859 31.55671342 -0.00144139 0.00657643 -0.00051712
O 15.06909746 7.75334109 7.69832074 0.00182577 -0.00355073 -0.00592670
O 14.83576562 1.05425442 9.30607150 0.00619487 -0.00285432 0.00015859
O 10.66105874 5.37514433 17.28387572 -0.00047036 0.00271362 0.00086284
O 14.22126821 2.57299495 23.86030431 -0.00207388 -0.00251896 -0.00352581
O 11.53833691 3.64294180 31.80365609 0.00675581 -0.00125294 -0.00409537
O 10.30229323 10.02146881 17.05442465 0.00403589 -0.00144543 -0.00750977
O 15.08295788 9.57376637 26.13699439 -0.00210261 0.00015447 -0.00268476
O 10.92807451 9.86267093 25.31246204 0.00147847 -0.00397984 -0.00090500
O 14.81244442 9.31062649 18.00725075 -0.00102591 0.00349836 -0.00251354
O 15.60828367 2.69365795 31.92530723 0.00199123 0.00585505 0.00254930
O 10.08969824 3.20998827 23.34197916 -0.00320824 0.00492446 -0.00225603
O 14.89234353 0.82533235 0.96060717 -0.00285310 0.00445050 0.00145197
O 10.33250466 4.71171805 25.59422902 -0.00359243 0.00390459 0.00132438
O 10.43892981 11.52020202 23.28438389 -0.00339424 -0.00682388 -0.00155525
O 14.83125769 7.77447230 15.68891377 0.00202428 -0.00085805 -0.00437682
O 10.21025591 11.44071854 14.97824196 -0.00056816 0.00181038 -0.00518627
O 15.13136662 7.74507005 24.12907579 0.00229954 0.00598831 -0.00745044
O 14.93105241 1.08131798 25.72995993 -0.00058013 -0.00677124 -0.00011186
O 10.82265585 4.99687426 1.14122423 -0.00240243 -0.00399740 0.00383804
O 14.44433156 15.46663535 6.46785847 0.00045147 -0.00442410 -0.00096540
O 11.18277884 16.87125545 15.16851781 0.00015998 -0.00438155 0.00395951
O 10.57134948 22.58803369 1.72941921 0.00052839 -0.00348592 0.00115580
O 15.49366336 21.66382564 9.41323560 -0.00100410 0.00545134 0.00078859
O 10.88666708 22.83541000 9.91956049 -0.00237697 -0.00395053 0.00042123
O 14.38930426 21.78115968 0.98328535 -0.00440713 0.00415475 0.00465919
O 15.47626153 15.64356091 14.61442519 0.00421587 0.00038057 0.00168301
O 10.56823726 16.69906929 6.67369444 0.00506748 -0.00012290 0.00446049
O 15.03040466 14.22922073 16.70362160 -0.00098427 -0.00019984 0.00689059
O 10.98969649 18.34431456 8.95279962 -0.00147986 -0.00220301 0.00132962
O 11.03802126 24.34722956 7.72121891 -0.00106693 0.00042692 -0.00057049
O 15.17138307 19.99867456 31.92758399 0.00328376 0.00163382 -0.00012024
O 10.31135294 23.99564096 32.27089108 -0.00111479 -0.00065963 0.00205179
O 14.61660747 20.55620410 7.30131029 0.00149682 0.00537739 0.00297182
O 14.96323475 13.90297661 8.49535562 0.00742036 0.00478969 0.00534222
O 10.53229380 18.32332844 17.14358122 0.00706988 -0.00792952 -0.00044469
O 14.66609639 15.76598553 22.96459300 0.00399485 -0.00688660 0.00026885
O 11.47515000 16.62389213 31.06898703 -0.00014250 0.00304039 -0.00121387
O 9.82604825 23.02755141 18.00772731 -0.00502552 0.00657017 -0.00045865
O 15.93342799 21.44600910 25.97258006 0.00048435 -0.00205230 -0.00347585
O 11.18441622 22.62822202 25.96798122 -0.00104710 0.00278707 0.00136727
O 14.16484079 21.98769756 17.78180817 0.00888620 -0.00328685 0.00068568
O 15.77411085 15.04203798 31.11775786 -0.00052979 -0.00746022 -0.00028380
O 9.93761929 16.39838442 23.03529234 -0.00157364 -0.00395688 0.00499535
O 14.79645857 13.77503939 0.42002547 0.00182861 -0.00224177 -0.00164171
O 10.45383206 17.92344368 25.07204990 0.00305495 -0.00498646 0.00590213
O 10.84017362 24.40019560 24.20041787 -0.00388519 -0.00135524 -0.00896138
O 14.78091672 20.57047732 15.74910170 0.00435656 0.00154436 0.00005388
O 10.32354121 24.59683089 16.05221019 0.00543676 0.00248159 -0.00394435
O 14.97734781 20.34227797 23.73404377 0.00306747 0.00546878 0.00509164
O 14.64813286 14.12152979 24.99291561 0.00590425 0.00268211 0.00123656
O 11.04964198 17.89761493 0.48546010 -0.00042323 0.00583040 -0.00083235
O 22.45068272 2.77964368 7.49174370 0.00001594 -0.00089582 -0.00400783
O 19.50095758 3.49776446 15.11374235 -0.00581367 0.00108480 -0.00258482
O 18.58502809 10.35329313 0.95812337 -0.00165009 -0.00585184 0.00041298
O 23.62677327 9.57731738 9.50872054 -0.00725702 -0.00784186 -0.00474404
O 20.13500168 10.54845439 9.23499439 -0.00518022 -0.00065417 0.00377301
O 22.82292447 8.84692346 1.29575233 -0.00388851 -0.00409987 0.00047579
O 23.73665339 2.55949553 15.52288713 -0.00412335 0.00567863 -0.00297554
O 18.86588119 3.65894322 6.97143549 0.00169076 -0.00348749 -0.00943407
O 22.99087360 1.03009789 17.33713253 -0.00290809 -0.00946534 0.00420427
O 18.89520580 5.33724228 9.16257365 -0.00334257 -0.00223286 -0.00526225
O 19.52771439 11.78363519 7.05853115 0.00087403 0.00109060 0.00670447
O 23.36032722 7.49824402 32.02408233 -0.00152765 0.00051011 0.00257763
O 19.39913322 11.55171735 31.62251381 -0.00740352 -0.00326793 0.00672494
O 23.67628712 7.70158731 7.39378724 -0.00247053 -0.00241282 0.00249286
O 23.51741702 1.35451750 9.34000735 -0.00116885 -0.00336688 -0.00010932
O 19.49342326 5.05806677 17.41455979 -0.00135141 0.00360345 0.00146063
O 22.81678350 2.55501404 23.63843615 -0.00244076 -0.00208959 0.00494625
O 19.85857151 3.60025486 31.66801388 0.00229174 -0.00103736 -0.00089422
O 18.57399232 10.30436278 17.19092490 -0.00298258 -0.00487496 -0.00348520
O 23.62752336 9.37427138 25.87175097 -0.00077617 -0.00229521 0.00151238
O 19.39170042 10.18586027 25.45980482 0.00247214 0.00116934 -0.00324307
O 22.71829261 9.28478206 17.84177003 -0.00339921 0.00011679 -0.00200651
O 24.47552712 2.25050264 31.84038352 0.00327554 0.00150114 0.00036926
O 18.35414092 3.54105355 23.56260133 0.00699778 -0.00163048 0.00120423
O 23.89261899 1.17795604 1.35619342 0.00514340 0.00018174 -0.00325797
O 18.64056124 5.09349035 25.59199093 0.00054131 0.00173686 0.00118145
O 18.67247352 11.67247625 23.36479870 0.00474890 -0.00504792 -0.00052646
O 22.91824152 7.84414865 15.66627642 0.00767618 -0.00574536 -0.00266501
O 19.23998194 12.01321861 15.25359392 -0.00468814 -0.00103607 0.00164153
O 23.63176926 7.52701488 23.93754207 -0.00153061 -0.00116058 -0.00017311
O 23.50120977 1.02441170 25.70390195 -0.00015200 -0.00119343 0.00284001
O 19.37887165 5.24837366 0.74777917 -0.00911414 -0.00505258 -0.00314426
O 22.93292700 15.94591807 6.41786803 -0.00246453 0.00074761 -0.00342343
O 19.81695443 16.87321166 15.33449727 0.00525991 0.00337915 0.00361640
O 19.28060678 22.76596137 1.19708199 0.00312804 0.00583267 0.00227381
O 23.59622114 21.97217716 9.81496992 -0.00574852 -0.00621500 0.00356603
O 19.61570373 22.72091863 9.43442282 0.00420780 0.00055901 0.00404146
O 23.25341469 21.67206716 1.30053835 -0.00432445 0.00091755 -0.00318803
O 23.86927254 15.82419408 14.87711742 0.00611013 -0.00801465 0.00393616
O 18.41131131 16.64698420 6.59261920 0.00611126 0.00179777 -0.00355268
O 23.34326802 14.20896593 16.78237651 0.00109436 -0.00084369 -0.00653778
O 18.58074733 17.59705399 9.16579682 -0.00207392 -0.00239970 0.00000536
O 18.97541842 24.23754687 7.44971420 -0.00457118 0.00498016 0.00051370
O 23.80569177 19.87396391 32.25926654 0.00274682 0.00654855 -0.00629746
O 19.55590391 24.29817497 31.94817842 -0.00217288 0.00219542 -0.00222890
O 23.38346589 20.55313250 7.63478843 -0.00297893 0.01244549 0.00084590
O 23.36335956 14.55235726 8.71728624 0.00038958 0.00462035 0.00594166
O 19.19248387 18.10340545 17.34820309 0.00111354 -0.00474323 -0.00204828
O 23.05042958 15.95265583 22.96976074 -0.00511123 -0.00608452 -0.00580369
O 19.72072305 16.40125736 31.32164657 -0.00563030 0.00258803 -0.00066215
O 18.59664451 22.75769614 17.92018038 0.00137915 0.00039040 0.00121488
O 24.03762274 21.98221757 26.32504305 -0.00511968 0.00042655 -0.00446028
O 19.68668993 22.68197483 25.82848726 -0.00268827 0.00305988 -0.00693185
O 22.97045932 21.89017157 18.04892134 -0.01041030 -0.00459115 0.00346091
O 23.72125049 15.17418764 31.39432547 -0.00186725 -0.00100297 0.00457984
O 18.56328594 16.45662586 23.58523555 -0.00178393 -0.00776965 -0.00422621
O 23.39275993 13.54675075 0.73303424 0.00042000 0.00157854 0.00386666
O 19.43412832 18.11657595 25.40505289 0.00152908 -0.00421572 0.00656580
O 19.35637586 24.28819346 23.93827544 -0.00521821 0.00100386 -0.00415868
O 23.54502624 20.42367064 16.06395592 0.00858941 0.00272920 -0.00327176
O 18.94498027 24.18669044 15.72913637 0.00258164 0.00061343 0.00552868
O 23.17643986 20.47910484 24.30010127 0.00299548 -0.00379477 -0.00609885
O 23.37514672 14.08788926 25.12197526 0.00203464 -0.00072418 -0.00170528
O 19.55551376 18.05395183 0.56476234 0.00442799 -0.00073997 0.00393465
N 7.86968982 13.04780151 2.13682338 0.00027180 0.00280228 0.00025940
N 0.76795107 6.28380274 10.75822321 -0.00147762 -0.00047711 -0.00365839
N 3.38693092 0.39426774 6.04090969 0.00261828 0.00606039 0.00575205
N 4.93883950 6.79455325 13.94992383 -0.00587397 -0.00076611 -0.00254436
N 0.84845060 0.08976992 14.05095488 0.00419182 -0.00020075 0.00355182
N 7.49684808 6.30916130 5.95786231 -0.00416143 0.00252506 0.00718395
N 5.18552599 13.21640931 10.26319583 -0.00275444 0.00220928 -0.00157258
N 3.58207715 6.26537818 2.30424646 0.00670930 -0.00689388 -0.00196431
N 7.47847786 13.03147979 18.29425965 -0.00714127 -0.00224684 -0.00087098
N 0.84479882 6.00702909 26.97576073 -0.00007463 -0.00624312 0.00706654
N 2.90585901 25.59179953 22.35515990 0.00045648 -0.00152740 0.00036868
N 5.36177637 6.35553784 30.32279028 -0.00280447 -0.00186925 0.00234682
N 1.03983591 25.47755627 30.83244975 -0.00885898 -0.00109106 -0.00630903
N 7.34218722 6.14027018 21.99619865 0.00082686 -0.00300505 0.00108140
N 4.85927267 13.30073628 26.55103433 -0.00102777 -0.00310700 -0.00093475
N 3.07271353 6.43857007 18.77409358 0.00745489 0.00290883 -0.00213551
N 7.69943249 0.01306440 2.64637047 0.00426663 0.00303688 -0.00259378
N 1.00220039 19.46382401 10.67152127 0.00359375 -0.00046925 0.00236100
N 3.59746068 12.82552885 5.19826201 -0.00246862 -0.00255795 -0.00982826
N 5.02499452 19.37535903 13.90893370 -0.00508954 -0.00081443 0.00389751
N 0.64518683 12.67866659 13.86249855 -0.00075014 -0.00012981 -0.00581832
N 7.82933353 19.18256402 5.46950219 -0.00356331 -0.00010690 -0.00030894
N 5.43754837 0.04170100 10.80653914 0.01077418 0.00314340 -0.00716743
N 3.37340287 19.11761781 2.58311620 -0.00267535 -0.00465472 0.00604829
N 6.99100392 25.53143019 18.95323628 -0.00556392 0.00118450 0.00240665
N 1.12515759 19.44135576 27.11626966 -0.00727331 -0.00330018 -0.00471012
N 3.16213871 12.83562336 21.80647056 -0.00508485 -0.00144136 0.00495313
N 5.51352460 18.95968054 30.52223595 0.00292328 0.00387930 -0.00043192
N 0.85998207 12.45914612 30.15599642 0.00082668 0.00276263 0.00483740
N 7.69174403 19.36713472 21.95584072 -0.00421392 -0.00545920 0.00326002
N 5.28526421 0.03219694 27.34696861 0.00412863 0.00020283 -0.00278913
N 3.00544672 19.22094284 18.86639334 -0.00688849 -0.00487118 0.00093912
N 15.98922328 12.52520114 1.95438646 0.00689778 -0.00927750 -0.00512774
N 9.63866910 6.70993115 10.84744670 0.00369045 -0.00258852 0.00438417
N 12.06500550 25.60506545 6.10645469 0.00477389 -0.00174543 -0.00321708
N 13.62766467 6.62083635 14.12541525 0.00225593 -0.00322433 0.00017425
N 9.56346499 0.19191659 14.37581375 0.00403930 -0.00290476 0.00143054
N 16.35362879 6.63468712 6.19943186 -0.00306136 -0.00243106 0.00125523
N 13.75943497 12.86010654 10.13253340 0.00228117 0.00632008 0.00241965
N 12.04763771 6.13178314 2.70790828 0.00557616 -0.00195606 0.00324408
N 15.90040845 12.86131694 18.36256897 0.00405995 -0.00489523 -0.00062001
N 9.35626375 5.86442630 27.33545462 0.00329112 0.00057073 0.00285225
N 11.97114157 25.52697695 22.55855735 0.00268543 0.01034353 -0.00422446
N 13.70207442 6.38690054 30.59783779 -0.00084977 0.00540765 -0.00130454
N 9.29744756 25.21640320 30.60213134 -0.00166790 0.00192179 -0.00289774
N 15.83729121 6.31518046 22.51677340 -0.00185627 -0.00523155 -0.00092900
N 13.79658924 12.78921689 26.56400394 -0.00445208 -0.00100503 0.00417330
N 11.77853675 6.38238759 19.05498373 0.00096574 0.00922894 0.00030418
N 16.48673336 0.31226683 2.45053004 -0.00748730 -0.00072485 0.00149069
N 9.56780866 19.26797118 10.41362485 0.00917467 -0.00383324 -0.00576871
N 11.83027139 12.55948447 5.40937001 -0.00066151 0.00916618 0.00158251
N 13.52849827 19.44866907 14.18481706 0.00431505 0.00848543 0.00444828
N 9.38081397 12.80931431 13.36273384 0.00155963 0.00049839 0.00097397
N 16.24289276 19.74898320 5.72537721 -0.00093353 0.00155678 0.00261811
N 13.57966235 0.15639266 10.92910273 0.00296355 0.00964677 0.00140134
N 11.91834335 19.29578273 2.04620934 -0.00461459 0.00138725 -0.00480268
N 15.99499959 0.07948215 19.26516251 0.00392534 0.00411453 0.00023771
N 9.30960227 19.13564945 26.56177244 -0.00587210 -0.00250673 0.00199084
N 11.71721954 12.52085895 21.76471662 0.00254220 -0.00025475 0.00817091
N 13.89534590 18.98141536 30.31635980 0.00027758 0.00751729 -0.00847464
N 9.41656877 12.49804379 29.85541175 0.00368683 0.00056854 0.00863476
N 15.92738754 19.03120299 22.13522122 0.00304216 0.00509993 -0.00576322
N 13.70414868 25.58655920 27.42213548 0.00021557 0.00027769 0.00235114
N 11.92446321 19.20581347 18.70999843 -0.00190585 -0.00964855 0.00691216
N 24.54309949 12.48113268 2.41426017 0.00971511 -0.00138331 0.00578271
N 17.94386457 6.61534067 10.73058185 0.00148422 0.00420163 0.00227240
N 20.29779611 25.41874419 5.99779009 0.00165956 -0.00215602 -0.00280615
N 22.24429286 6.47653432 13.97345966 -0.00166421 -0.00092395 -0.00442646
N 17.78982348 25.33730565 14.08145332 -0.00226381 -0.00436845 0.00137679
N 24.83429262 6.52700477 5.82360021 0.00518236 0.00179675 -0.00150220
N 22.26001770 13.28162714 10.18287208 0.00861872 -0.00310939 0.00081470
N 20.53654253 6.34339068 2.35395388 0.01006174 0.00245104 0.00422532
N 24.45410003 13.01598916 18.36493490 -0.00120605 -0.00096772 0.00487898
N 17.77875400 6.32891237 27.33357171 -0.00138442 0.00367192 0.00173787
N 20.49241695 25.56117845 22.38875493 -0.00346331 -0.00320586 0.00876445
N 22.36798712 6.27773179 30.35152241 0.00348828 -0.00443198 -0.00315180
N 18.14984675 25.27603545 30.45836000 -0.00210502 -0.01051385 0.00196502
N 24.62049347 6.40872630 22.17303883 -0.00756916 0.00335564 -0.00701034
N 22.07784340 12.84630987 26.56960792 0.00256426 -0.00335116 0.00349886
N 20.27140905 6.29459003 19.08503852 -0.00473012 -0.01144500 0.00036132
N 24.84735124 0.07723685 3.15776850 0.00363168 0.00180473 -0.00550450
N 17.67158981 19.05343504 10.64244073 -0.00310802 -0.00103606 0.00083830
N 20.25418431 13.20222188 5.43844032 0.00497579 -0.00176087 -0.00278897
N 22.63243361 19.14526447 14.42173292 -0.00218799 0.00157949 -0.00363806
N 17.76860950 12.80580511 13.68968771 0.00208854 0.00358430 0.00253202
N 24.35403866 19.13545949 6.14782039 0.00322600 0.00159158 -0.00121927
N 22.37527697 0.01164479 10.77633791 0.00306547 -0.00633612 0.00015339
N 20.49077473 19.30878340 2.21778096 -0.00150244 -0.00212297 -0.00083207
N 24.57496504 0.45162534 18.83540582 0.00590567 -0.00659217 0.00343714
N 17.98577304 19.12975319 26.82760375 -0.00554657 0.00187948 0.00561822
N 20.25835434 12.44209466 22.02677673 -0.00327626 0.00448849 0.00164127
N 22.53704066 18.92974675 30.57915374 0.00417399 0.00341406 -0.00320536
N 18.15936809 12.77779763 30.21184987 0.00200060 -0.00617970 -0.00425389
N 24.25992600 19.16187382 22.70714239 -0.00163656 0.00210420 0.00176056
N 22.01821704 0.21740260 27.27517168 0.00054988 -0.00211912 -0.00446780
N 20.29937900 19.17613874 19.04397633 0.00154341 0.00174653 0.00314699
C 7.58671154 0.19920132 5.06203456 0.00292742 0.00777546 -0.00459152
C 0.87304610 5.78368070 13.17126940 0.00203534 0.00443841 0.00292298
C 3.67400332 12.35101655 2.86051328 0.00055325 0.00002710 -0.01005596
C 5.00668845 7.22556145 11.54714990 -0.00234615 -0.00002680 0.00135900
C 0.87613595 12.53117142 11.46407255 0.00278746 -0.00146264 -0.00142251
C 7.64236300 6.64285991 3.56203897 0.00647255 0.00956532 -0.00178759
C 5.16001147 0.56145648 13.10575780 -0.00392341 -0.00153362 -0.01175194
C 3.44604033 6.19131584 4.75090942 -0.00050171 0.00178241 0.00385425
C 7.20558430 0.94689656 6.16430942 -0.00800367 -0.00408293 -0.00794942
C 1.31604575 5.00076658 14.20138053 0.00677311 -0.00571313 0.00057762
C 3.15968705 11.64623818 1.74183451 0.00601643 -0.00724043 0.00243269
C 5.49028886 7.90366720 10.45098300 -0.00108440 0.00402019 0.00598174
C 1.38115769 12.00749098 10.25826826 -0.00347376 -0.00579999 -0.00136813
C 7.27028911 7.33663226 2.42578540 0.00703367 0.00754581 0.00579483
C 5.42954839 1.27337214 14.27944132 -0.00469685 -0.00025985 0.01021279
C 3.12384028 5.49385189 5.88224983 0.00598846 0.00453905 0.00403533
C 6.51962240 2.16465559 6.06215536 -0.00512643 0.00465934 0.00962823
C 2.04245014 3.83456581 13.99881027 0.00062671 -0.00969742 -0.00496115
C 2.21601447 10.61250516 1.93090902 0.00033738 -0.00190948 0.00612225
C 6.36932864 8.96728983 10.58408203 -0.00336563 0.00809558 0.00458947
C 2.15942815 10.86877377 10.29680088 0.00018218 0.00279670 0.00117178
C 6.59356885 8.52018177 2.48939291 -0.00824848 -0.00358221 -0.00215938
C 6.35627028 2.38837509 14.18002858 0.00022340 -0.00685063 -0.00153479
C 2.33214098 4.33557688 5.76408269 -0.01034590 0.00462975 0.00025024
C 6.40006443 2.71409759 4.73116539 -0.00185066 -0.00486309 0.00461775
C 2.29336602 3.45238398 12.71964710 0.00377769 -0.00503652 0.00175017
C 1.90875061 10.17272119 3.23454150 -0.00630004 -0.00335980 0.00033904
C 6.63823630 9.48301077 11.90472765 0.00575683 -0.00086935 -0.00100560
C 2.21530478 10.19518531 11.50973646 -0.00563211 -0.00408519 0.00214467
C 6.54771688 9.14725624 3.73968462 0.00483361 -0.00665214 -0.00962604
C 6.62644152 2.84020638 12.86232307 0.00134284 -0.00657975 0.00013853
C 1.85541070 3.89804523 4.53635920 0.00062278 -0.00925363 0.00084606
C 6.68768164 1.95305344 3.65640900 -0.00170619 -0.00033240 0.00486474
C 1.80862743 4.16609034 11.63766744 -0.00067701 -0.00280546 0.00116062
C 2.56891395 10.68005506 4.35380818 0.00138007 -0.00675277 0.00243747
C 6.12318347 8.74459959 13.02867084 0.00064262 0.00344125 0.00295471
C 1.71145837 10.73589786 12.69864882 -0.00195357 0.00053074 0.00347100
C 6.86987301 8.49497234 4.89933407 0.00109180 0.00075984 -0.00151293
C 6.26112827 2.20180986 11.72482440 -0.00663870 0.00440735 0.00352934
C 2.27460770 4.54100991 3.39327492 0.00811471 0.00429036 -0.00473664
C 7.34283141 0.71036491 3.78094896 0.00313303 0.00862159 0.00304546
C 1.25686415 5.45075888 11.80556521 0.00080569 -0.00090067 -0.00217425
C 3.30185495 11.90677217 4.18622204 0.00195765 0.00741157 -0.00332916
C 5.32352512 7.62731920 12.82905277 -0.00340203 -0.00412752 -0.00197554
C 1.14639119 12.01120293 12.70016225 -0.00393693 0.00845694 -0.00754853
C 7.29673056 7.10861073 4.84782328 -0.00540120 -0.00349868 0.00806519
C 5.64753030 0.94223341 11.84718621 -0.00843194 0.00284371 -0.00272218
C 3.10651142 5.69159042 3.48262763 -0.00401646 0.00165557 0.00571753
C 7.03104250 0.16638876 1.44968140 0.00939203 -0.00200879 0.00201840
C 1.50114541 6.23304236 9.61582169 -0.00374116 0.00101306 0.00107026
C 3.11346244 12.69927137 6.48117357 0.00108077 -0.00070752 -0.00079453
C 5.51776617 6.85353532 15.10361972 -0.00705488 -0.00162468 -0.00071765
C 1.45681145 12.49504069 14.93217438 -0.00123837 0.00065257 -0.00013163
C 7.13004131 6.74589805 7.25543162 -0.00389609 0.00542635 -0.00641598
C 5.93024737 0.20389569 9.54300392 -0.00295735 0.00450921 0.00173630
C 3.00872946 6.13308034 1.10395964 -0.00019395 -0.00259759 -0.00137747
C 6.95530640 11.89610495 16.37564880 -0.00420463 0.00586809 0.00204712
C 1.35426536 7.55363063 8.86721789 -0.00169282 0.00462249 -0.00191332
C 3.14097416 1.46178087 8.32853503 0.00031450 -0.00116488 -0.00020311
C 5.80689490 5.20629288 32.48043530 0.00374674 -0.00294380 0.00292306
C 1.75442436 0.90489003 0.12916995 0.00232102 -0.00260260 -0.00110424
C 7.14315622 5.71150589 8.38244613 0.00526349 0.00705330 0.00130807
C 6.03945524 11.93042267 8.36144041 0.00063731 -0.00582849 -0.00686336
C 2.54070056 7.46078666 16.75838428 0.00054920 0.00658708 -0.00121210
C 7.42497767 0.30007802 21.22072340 -0.00571638 -0.00103397 0.00368417
C 1.06208643 5.83769000 29.38940692 -0.00447211 0.00337530 0.00210759
C 3.18233207 12.36579597 19.53490314 0.00688360 0.00329430 -0.00797830
C 5.25100124 6.90023014 28.00377867 0.01126652 0.00156321 0.00543619
C 0.78049691 12.15626031 27.78165994 0.00141550 -0.00109689 0.00681891
C 7.46363699 6.76467404 19.63291409 -0.00337987 0.00116969 0.00207212
C 5.35791184 0.27474067 29.68489728 -0.00015510 0.00185099 0.00019260
C 3.19337555 6.02388988 21.16892124 0.00324178 -0.00513334 -0.00379828
C 7.06711067 0.90354621 22.43161963 0.00512631 0.00542338 0.00018867
C 1.64146752 5.27739642 30.54261634 -0.00539743 -0.00193167 0.00062089
C 2.72775924 11.65249814 18.43412667 -0.00299502 -0.00369557 0.00054641
C 5.54452031 7.59731969 26.89959083 -0.00014308 -0.00003761 0.00884529
C 1.10935643 11.56196650 26.57115060 0.00521797 -0.00018732 0.00477194
C 7.13175251 7.58080472 18.57162973 0.00196215 -0.00548069 -0.01250740
C 5.69402212 0.90314887 30.80578345 -0.00436886 0.00955284 -0.01096719
C 2.92093743 5.20414944 22.25402771 0.00257521 0.00487139 -0.00158667
C 6.24619644 2.07832648 22.41993561 0.00393960 0.00681210 0.00894574
C 2.38921894 4.10943649 30.47042015 -0.00647826 0.01119790 0.00174748
C 1.65528703 10.72064164 18.68931075 -0.00599523 0.00174901 0.00410147
C 6.43646390 8.69695417 27.06687911 -0.00118924 0.00151854 0.00123833
C 1.88220910 10.45552221 26.55408092 -0.00141058 -0.00353325 -0.00712123
C 6.20098548 8.61188471 18.78438702 -0.00320326 0.00082660 0.00080974
C 6.59900941 2.01593913 30.70845020 0.00411033 0.00016359 -0.01037675
C 2.15001753 4.08569888 22.17390357 -0.00758988 -0.00064096 -0.00562577
C 5.96820171 2.70755198 21.19773510 0.00831363 -0.00890900 0.00460335
C 2.35902149 3.48650042 29.19153549 0.00309454 0.00138899 0.00278077
C 1.45521187 10.19423796 19.94860803 0.00080818 0.00143967 0.00353720
C 6.61139196 9.25533008 28.35009591 0.00360975 0.00013445 0.00260623
C 2.23887979 9.88711625 27.80573703 -0.00081798 -0.00351892 0.00483875
C 5.99472925 9.09511667 20.12559058 0.00202559 0.00743183 -0.00333126
C 6.75011662 2.68897076 29.48234254 -0.00735899 0.00912424 -0.00226416
C 1.84493815 3.57784636 20.80794069 0.00541885 0.00238904 -0.00165143
C 6.10094657 1.98104084 20.02442318 0.00112424 0.00123984 0.00417831
C 1.82660918 4.06441386 28.02985026 0.00441375 -0.00187930 0.00159244
C 1.93338614 10.91459103 21.04599829 0.00670145 -0.00381384 0.00135359
C 6.25024347 8.53820109 29.48203801 0.00238429 0.00146405 -0.00531344
C 1.91492927 10.52882732 29.00927661 -0.00158086 -0.00512077 0.00441309
C 6.34080418 8.27182416 21.20460960 0.00366713 -0.00554998 0.00964481
C 6.33848624 2.04607295 28.32113227 -0.00113834 -0.00676285 -0.00142698
C 2.28082246 4.28935687 19.71310998 0.00264513 -0.00495890 0.00012965
C 6.82700886 0.73044478 20.06932146 -0.00425864 -0.00047063 -0.01038067
C 1.20997222 5.31606980 28.11010859 -0.00619020 -0.00864431 -0.00652674
C 2.72140383 12.05906302 20.83130615 -0.00673987 -0.00546443 0.00199597
C 5.65511095 7.26212544 29.29655618 -0.00133235 0.00038606 0.00256915
C 1.21428509 11.70589642 29.03162189 -0.00382970 0.00845116 -0.00149732
C 6.99228175 7.04339254 20.94062840 0.00067561 0.00371808 0.00426806
C 5.66386675 0.83281636 28.43870439 0.00036383 -0.00402064 -0.00012772
C 2.82549955 5.57476248 19.83791333 0.00079172 0.00177118 -0.00226016
C 6.79871506 0.28299518 17.63116302 0.00063992 -0.00169276 0.00699626
C 1.46813293 5.91752945 25.74699993 -0.00927524 0.00620622 -0.00526381
C 2.67520539 12.67944374 23.10627214 0.00419764 0.00492110 -0.00110006
C 5.91024250 6.43803046 31.62090332 0.00317525 -0.00053717 0.00203060
C 1.48145688 12.43536935 31.33932483 0.01083478 -0.00023405 -0.00266136
C 6.96509479 6.42159182 23.30420007 0.00423495 0.00316146 -0.00438455
C 5.77628789 0.15185498 26.06359764 0.00418623 -0.00390092 0.00181787
C 2.65560596 6.19810407 17.51704958 0.00488801 0.00655673 0.00481278
C 7.52996767 11.77557296 32.78773629 -0.00438056 -0.00368689 0.00082939
C 1.57558467 7.22449909 25.00017704 -0.01084304 0.01046083 0.00270422
C 2.62964557 0.82069383 24.56408393 0.00613242 -0.00061813 0.00259209
C 5.35920020 5.69940897 16.04477837 -0.00302834 -0.00319855 -0.00239825
C 1.13908632 0.99603853 16.36455338 0.00111181 0.00880144 -0.00246137
C 6.92844870 5.18151459 24.10614312 -0.01010259 -0.00259500 0.00159030
C 5.53430074 11.69223964 24.77856431 0.00050496 -0.00282455 0.00366086