1920
Time=63000.00000006 pbc="T T T" Lattice="25.36810760 0.00000000 0.00000000 0.00000000 25.85934594 0.00000000 0.00000000 0.00000000 32.93254278" energy=-12246.10082436 virial="-43.41688902 4.36284491 15.22766694 4.36284491 -41.50362366 14.29588460 15.22766694 14.29588460 -19.42475136" stress="0.00023774 0.00016008 0.00066392 0.00016008 0.00035516 0.00070935 0.00066392 0.00070935 0.00129458" Properties=species:S:1:pos:R:3:vel:R:3
O 5.81020593 3.08553662 7.08602172 -0.00443619 0.00733193 0.00096528
O 2.92457945 3.88633209 15.07049825 0.00439219 -0.00294138 -0.00188549
O 1.67282512 9.67248916 1.63328399 0.00041232 -0.00866226 0.00851587
O 7.10145733 9.25087333 9.65591755 0.00295575 -0.00128720 -0.00366477
O 2.94065245 10.41580724 9.69088328 -0.00340013 0.00278474 0.00377980
O 5.99180116 9.43446806 1.40717165 -0.00177842 -0.00014475 0.00016548
O 7.09527809 2.63637152 15.14486477 0.00153170 -0.00136033 0.00153371
O 1.29242110 4.29186381 7.00115066 0.00199814 0.00420964 0.00066448
O 6.48181020 1.14074340 17.35735849 -0.00452375 0.00135490 -0.00338519
O 2.26639823 5.50240977 8.93025048 -0.00382511 0.00292605 0.00309457
O 2.22139144 11.62132444 7.55697303 -0.00658920 0.00306889 0.00242448
O 6.45380566 7.99117879 32.11006033 -0.00205166 0.00260845 0.00074522
O 2.03960151 11.40947738 32.53262269 0.00253675 -0.00870723 -0.00053518
O 6.22709881 7.86505489 7.60203379 0.00049486 0.00441271 -0.00798176
O 6.47492667 1.46856707 9.07019121 0.00252137 -0.00110703 0.00040058
O 2.09037004 5.31476520 17.12655247 -0.00666923 0.00035127 0.00262990
O 5.70384017 3.01549680 23.47464667 -0.00182821 -0.00168320 0.00191884
O 2.77279088 3.47132354 31.45040097 -0.00369335 0.00035005 0.00415237
O 1.78170079 10.18692162 17.73355669 -0.00009177 0.00290159 0.00000401
O 6.58374088 9.38906602 25.84712010 -0.00137210 -0.00121284 -0.00022807
O 2.39522671 10.32460399 26.25067088 0.00088881 0.00010288 -0.00628099
O 5.85311643 9.18471098 17.61974375 -0.00006524 -0.00102194 0.00006632
O 7.08107583 2.70310037 31.68747454 0.00302767 -0.00301780 -0.00216154
O 1.72132677 3.55120810 23.34061902 0.00255647 -0.00166796 -0.00314069
O 6.42163094 1.28389871 0.78588402 0.00296857 0.00205038 -0.00762180
O 2.02066909 5.10442466 25.39622744 -0.00136135 0.00700406 0.00968087
O 2.16022640 11.73466607 23.86381556 -0.00083127 -0.00240342 -0.00113257
O 6.50771065 7.71745303 15.67319034 0.00019075 0.00918821 -0.00053405
O 2.14535722 11.78597035 15.73686704 0.00757540 0.00161727 -0.00014848
O 6.11325892 7.90917156 23.79450755 -0.00617455 -0.00266495 0.00107673
O 6.31710275 1.45219510 25.63129057 -0.00222634 0.00246188 -0.00133443
O 2.07963353 4.82672447 0.75003184 -0.00147443 0.00411098 0.00143667
O 6.19583232 16.08574789 7.05841723 0.00521852 -0.00157477 0.00150971
O 2.24179506 16.45216888 15.19748514 -0.00000872 -0.00542312 0.00443719
O 1.42222056 23.18009404 1.20337951 -0.00021605 0.00161686 -0.00246496
O 6.86927952 22.21631556 9.55490520 0.00295129 -0.00085855 0.00701351
O 3.11460122 23.41409513 9.60861909 0.00200944 0.00564560 0.00143751
O 5.77234869 21.98154247 1.24938850 0.00360255 -0.00230881 0.00549754
O 6.90399109 15.80328710 15.17860809 -0.00147014 -0.00291320 0.00388254
O 1.75946026 16.44469699 6.90787364 -0.00272654 0.00174899 0.00143344
O 5.91851509 14.17648124 17.24661190 -0.00130813 -0.00168534 0.00022846
O 1.74676510 17.92707066 8.98026515 -0.00144115 0.00097971 0.00606224
O 1.93948676 24.54945648 7.40433617 -0.00045886 -0.00033516 -0.00035519
O 6.53221497 20.66102332 31.94777676 -0.00055942 -0.00887635 0.00462473
O 1.83265311 24.55085691 31.99851349 -0.00554703 0.00200882 -0.00094841
O 6.63275993 20.75197708 7.60568147 -0.00206117 -0.00847633 -0.00114725
O 6.18190093 14.18280993 8.94738309 0.00345723 -0.00027851 0.00191529
O 2.02281078 18.24090260 17.00591761 0.00148340 0.00360690 -0.00011868
O 5.89016084 15.76210193 23.42897311 0.00585956 -0.00340763 -0.00396212
O 2.64625644 16.20925242 31.32419578 -0.00687466 -0.00349920 0.00720099
O 1.79894251 22.97371360 17.64884733 -0.00140035 -0.00775221 0.00320473
O 7.09276668 22.35426359 25.84955197 -0.00061564 -0.00123613 0.00332441
O 2.89798694 22.70747836 25.88386515 -0.00559694 0.00186994 0.00346866
O 5.43224886 21.92672584 17.70703563 -0.00108795 -0.00009883 0.00268742
O 7.33730862 15.77476149 31.44146139 0.00306940 0.00243224 -0.00466807
O 1.56781700 16.95236590 23.35708544 -0.00028449 -0.00486129 0.00556721
O 7.15231962 14.58764548 0.87952939 0.00232884 0.00386439 0.00175704
O 2.44543870 18.32327541 25.41650761 -0.00035333 -0.00487726 -0.00073182
O 3.00797658 24.41532758 23.67720091 0.00215663 -0.00246685 -0.00234703
O 6.19050844 20.66818116 15.70617027 0.00877823 -0.00304164 0.00155936
O 1.62166224 24.67636759 15.84717242 -0.00081368 -0.00002799 0.00048564
O 6.43898005 20.58287806 24.03808506 0.00081681 -0.00318644 0.00000034
O 6.21832970 14.28586827 25.48151636 -0.00052179 0.00680974 0.00420565
O 2.57639591 17.99714602 0.53432039 -0.00834341 -0.01392158 -0.00548423
O 14.40118721 2.62889969 6.95339567 -0.00695796 0.00068082 -0.00100879
O 10.99969033 3.61950066 15.03463702 0.00409204 -0.00735568 -0.00682600
O 10.01826563 10.26542788 1.45193620 0.00486946 0.00511411 -0.00142237
O 15.06618669 9.21436747 9.45873328 0.00333512 0.00050175 -0.00616920
O 11.40697038 10.21309687 9.54185918 -0.00074564 -0.00321578 0.00092131
O 14.44177589 9.15448023 1.19745853 0.00496210 0.00087316 -0.00342657
O 15.08995964 2.71570309 15.43880273 0.00969126 -0.00418417 -0.00838118
O 9.75090794 3.62681786 6.59836873 0.00339737 0.00642729 0.00077614
O 14.49549803 1.27986043 17.60527146 0.00550929 -0.00489034 0.00204641
O 10.41075432 5.17160589 8.73286983 -0.00431628 0.00468623 -0.00535207
O 10.45187565 11.71097592 7.61940212 -0.00465780 -0.00227791 0.00384834
O 15.01213471 7.74575198 32.17148963 0.00088250 0.00002230 0.00215691
O 10.82942676 12.00570522 32.58416718 -0.00297220 -0.00010444 -0.00064938
O 14.62883027 7.47488036 7.45490650 0.00794408 -0.00170594 0.00240398
O 14.43890243 1.40225909 9.24474236 -0.00403149 0.00017585 -0.00728777
O 9.97778149 5.25552773 17.09405727 -0.00120381 -0.00046580 0.00116816
O 14.21992196 2.81725564 23.66465232 0.00092361 0.00592425 -0.00279269
O 11.26030989 3.85696437 31.53266252 0.00144448 0.00619952 0.00201762
O 10.13950557 9.94134083 17.57248147 0.00533258 -0.00272709 -0.00120950
O 15.84947169 9.03906482 25.94697166 0.00007303 -0.00726709 -0.00800926
O 10.82015411 10.04186735 26.36031122 -0.00205235 0.00111978 -0.00351118
O 14.22522582 9.26715002 17.53302851 -0.00469533 0.00382670 0.00033478
O 15.66678846 3.02780384 31.50627126 -0.00127082 -0.00465987 0.00265145
O 10.38667631 3.82291459 23.37261922 0.00187177 -0.00430225 -0.00200712
O 15.64967593 1.30743524 0.77203105 0.00104314 0.00166045 0.00659701
O 10.76454589 5.59734372 25.29129169 -0.00639855 0.00498938 -0.00446257
O 10.62520143 11.20509725 24.04209153 -0.00202586 0.00504508 0.00074626
O 14.69974607 7.58467828 15.75121238 -0.00059357 0.00146447 0.00782413
O 10.10755878 11.69776164 15.61970937 -0.00001695 -0.00049126 -0.00532677
O 14.72081014 8.14549825 23.81080036 -0.00134497 0.00009057 -0.00441137
O 14.87055954 1.14659512 25.51082499 -0.00378109 -0.00574036 -0.00263627
O 10.76523282 5.40187696 0.76451498 0.00183234 0.00038793 0.00563180
O 14.26075924 15.67503926 7.39010966 -0.00197262 0.00551960 -0.00083142
O 10.97703682 16.62799229 14.93272362 -0.00307030 -0.00202013 0.00218795
O 10.10519441 23.53317694 1.09251216 0.00330613 -0.00172365 -0.00503215
O 15.37176018 21.62425479 9.22995064 -0.00212861 0.00537178 0.00231532
O 11.43879323 22.90546274 10.01545790 0.00785388 0.00168594 -0.00215915
O 13.82305047 21.81973209 1.07141751 -0.00214851 0.00181864 -0.00045849
O 14.91863108 15.66004373 15.21763197 -0.00613750 0.00179067 0.00372708
O 10.58711840 16.80186428 7.06001369 -0.00382205 -0.00308093 0.00262434
O 14.65106729 14.33721619 17.39470151 0.00367612 0.00127839 -0.00017619
O 10.89815764 18.56711010 9.01236488 -0.00164674 -0.00352447 0.00304745
O 10.86590542 24.43607575 7.58817182 0.00342849 -0.00260177 -0.00317046
O 14.89192054 20.50879948 32.10234763 -0.00174732 -0.01154410 0.00998136
O 11.03248662 25.14108328 32.10994934 0.00368239 0.00809886 0.00011562
O 15.05782603 20.73745156 6.96372652 -0.00084919 -0.00500198 -0.00359775
O 15.06081297 14.17500071 9.16451049 0.00787568 0.00186174 0.00332093
O 11.02763802 18.11811093 17.14290237 -0.00086810 0.00095193 -0.00133369
O 14.65289291 15.46901147 23.66961857 -0.00170109 -0.00208134 -0.00199418
O 11.13825988 17.10457999 31.85853203 -0.00367781 -0.00117758 -0.00552215
O 9.83171396 23.08924160 18.04166624 -0.00203087 0.00308198 -0.00456730
O 15.24976762 22.14862998 26.06937755 -0.00451371 -0.00449200 0.00188133
O 10.81976772 22.87883728 26.24585019 0.00042635 0.00104093 -0.00233314
O 14.52328175 21.98288749 17.72029827 -0.00568413 -0.00456005 -0.00281783
O 15.67092767 15.46299450 31.77945884 0.00369844 0.00185332 -0.00024245
O 9.78144956 16.23716040 23.19252771 0.00300416 -0.00876238 -0.00338722
O 14.82521961 14.11832934 1.09872776 -0.00084510 0.00272539 0.00197940
O 10.45126982 17.73501440 25.30983046 0.00420110 0.00142667 -0.00536937
O 10.36654163 24.71244904 24.17408264 -0.00349608 -0.00770887 -0.00528989
O 14.72950851 20.76756787 15.64135781 0.00296804 0.00121482 -0.00056910
O 10.50181457 24.77696455 16.02756945 -0.00026063 0.00134848 0.00014947
O 14.64537656 20.63143791 24.03167011 -0.00103888 0.00474032 0.00381630
O 14.79004217 14.02380325 25.67554955 -0.00667875 -0.00709448 -0.00503659
O 10.17123997 18.40162038 0.95718983 -0.00276238 -0.00008648 -0.00219732
O 22.54130821 2.62557974 6.97362064 0.00394706 0.00372647 -0.00074171
O 19.09581966 3.83705570 15.12839798 -0.00290490 0.00092289 0.00370358
O 18.54425292 9.97550975 1.29143634 0.00012587 -0.00028623 -0.00243941
O 23.56608640 9.33643529 9.70862012 0.00441667 -0.00175111 0.00398290
O 19.13360907 9.84188885 9.54235577 0.00092326 -0.00020624 -0.00022785
O 23.05152073 9.34436161 1.18671858 -0.00150999 0.00324874 -0.00090859
O 23.93592887 2.79354304 15.22612242 -0.00392160 -0.00329802 -0.00145533
O 18.37278111 3.72245135 6.71449177 -0.00825020 0.00003316 -0.00553517
O 22.80480205 1.29544148 17.12058121 -0.00160475 0.00191716 0.00029591
O 19.04065178 5.13228194 8.79277585 0.00965080 -0.01108665 -0.00228440
O 19.16262694 11.63149589 7.49839636 -0.00076140 0.00241644 0.00737705
O 23.57666760 7.91099090 32.23694417 0.00777219 0.00178204 -0.00087633
O 18.80155084 11.50419656 32.27934553 -0.00339903 0.00074583 -0.00388942
O 23.43044808 7.71624980 7.48290300 0.00247843 0.00186881 -0.00115730
O 23.48188531 1.47007085 9.07541042 -0.00051452 0.00214436 -0.00575533
O 18.86140544 5.26569235 17.30344495 0.00061076 0.00167581 -0.00282519
O 22.69508267 2.70768008 23.29047292 -0.00265736 -0.00068621 -0.00692983
O 19.82895027 3.73102182 31.56067559 -0.00089742 0.00399353 0.00000529
O 17.97999144 10.61776906 17.85964159 -0.00054989 0.00029231 -0.00275019
O 23.63831793 9.07189848 25.90284923 -0.00443420 0.00369976 -0.00002687
O 19.93665087 10.03129164 26.17475425 0.00207105 -0.00378717 -0.00576547
O 22.26671836 8.82021876 17.69612056 -0.00515852 -0.00026471 -0.00012543
O 23.27063974 2.76620781 31.78563872 -0.00458967 0.00727291 -0.00141717
O 18.96722770 3.74996667 23.55606724 -0.00128666 0.00408568 0.00240486
O 23.30508647 0.96287721 0.90009747 0.00026558 -0.00150732 -0.00782917
O 19.07167578 5.34163040 25.54160049 0.00301561 -0.00214546 0.00613786
O 19.47802950 11.40627459 23.94755110 0.00632413 0.00765581 0.01097289
O 23.02468629 7.51273371 15.67006734 -0.00241665 -0.00354351 0.00442339
O 18.85404869 11.73802423 15.66071675 -0.00932450 0.00181318 -0.00357586
O 23.12675247 7.61478312 23.86295905 0.00435843 0.00248550 0.00260891
O 22.98518815 1.50615041 25.53720694 -0.00112628 -0.00083599 -0.00192273
O 19.50261597 5.17269980 0.65405536 0.00097542 -0.00131196 0.00054817
O 22.66200068 15.52221862 7.25518961 -0.00637277 -0.00584880 0.00616015
O 19.21981712 16.31988744 15.11927731 0.00837464 -0.00087560 -0.00099245
O 18.91368500 22.82234497 1.28767834 0.00627558 0.00385046 -0.00021037
O 23.48829917 22.31394175 9.16744402 -0.00445216 0.00179983 0.00168000
O 19.60331816 23.36278870 9.60265090 -0.00195377 -0.00342382 0.00590660
O 22.47544022 21.82117481 1.15843396 0.00146682 0.00231483 0.00051771
O 23.52847615 15.67229484 15.21091189 -0.00715679 -0.00098134 0.00640327
O 18.97101792 16.54347244 6.95077850 0.00463410 0.00444159 -0.00506495
O 23.46256663 13.98681922 17.07865465 -0.00614999 0.00199290 -0.00055026
O 19.17701652 18.12867755 8.95627212 -0.00024472 -0.00321761 0.00102030
O 18.74700732 24.53436590 7.52785809 -0.00576151 -0.00237665 0.00177102
O 23.04621086 20.52449436 32.09335261 0.00443160 0.00178634 0.00437050
O 19.39975603 24.38766564 32.32965863 0.00549877 0.00057310 -0.00918811
O 23.60863698 20.63474818 7.31651138 0.00554775 0.00122899 0.00344458
O 23.40402263 13.87178570 9.10598299 0.00022955 0.00010186 -0.00087175
O 18.81312108 17.98936320 17.29095570 -0.00743296 -0.00042321 0.00233999
O 22.81826422 15.49525164 23.38669972 0.00119194 -0.00321989 0.00120761
O 19.67795565 16.52853659 31.42759168 0.00122936 0.00027567 -0.00189366
O 18.15217224 23.20412769 17.84735879 -0.00555941 0.00016929 -0.00404459
O 23.97293082 22.35927252 25.98910102 0.00473085 -0.00248600 0.00485014
O 19.36365455 22.81338393 26.09330877 -0.00252416 0.00014495 0.00254455
O 22.58126630 22.06791841 17.57520455 -0.00235669 0.00658744 -0.00446017
O 23.94506237 15.23369768 31.70951798 0.00467995 0.00565734 -0.00383919
O 18.13404960 16.73111415 23.55392846 0.00118321 0.00253140 0.00270056
O 22.93705658 14.10374082 1.11624522 0.00082404 0.00532953 -0.00005019
O 19.09074952 18.07024322 25.39626506 -0.00116782 -0.00077840 0.00462492
O 19.58564203 24.50532414 23.99216576 0.00288559 -0.00899216 -0.00308628
O 22.95543565 20.72386116 15.44908286 0.00455279 -0.00109202 -0.00083975
O 19.13404373 24.52120952 15.86219850 0.00629866 0.00474055 0.00367070
O 23.36327590 20.62268252 23.74353663 -0.00452353 -0.00493822 0.00855663
O 23.22678946 14.20144426 25.51889498 0.00460843 -0.00049447 -0.00143370
O 19.21260932 17.76180764 0.65363174 -0.00372133 -0.00083831 -0.00178955
N 7.75101069 13.21330258 2.53053971 0.00330759 0.00393365 -0.00072798
N 0.89500919 6.38763162 10.56260119 -0.00197562 -0.00064426 0.00205754
N 3.22381412 25.65005742 5.88322066 0.00188215 -0.00581567 0.00270140
N 5.28068492 6.63586139 14.07212827 0.00304001 0.00467895 -0.00380994
N 0.41961438 25.52735914 14.12419302 0.00056050 -0.00305982 -0.00400091
N 7.24861655 6.52219099 5.93542861 0.00113868 -0.00315624 -0.00564096
N 5.06869233 13.13795287 10.71273829 0.00159064 -0.00018037 0.00807722
N 3.11576618 6.17375679 2.26307174 -0.00532009 0.00909767 -0.00589134
N 7.07415287 13.02141477 18.77864521 -0.00504499 0.00272476 -0.00440049
N 1.18116439 6.37814241 27.06473649 0.00434379 -0.00150241 0.00123577
N 3.07530199 0.15897822 21.98835745 0.00093468 0.00413821 -0.00591313
N 5.22996227 6.84327244 30.57218074 0.00259752 -0.00236565 0.00174669
N 1.23527986 25.77781530 30.17279443 -0.00115995 -0.00631619 0.00491177
N 7.41550086 6.71678740 22.33102793 0.00153717 -0.00426635 -0.00298019
N 5.21010963 13.14736651 27.18297713 0.00405725 -0.00299809 0.00912933
N 3.23767115 6.45872929 18.77089325 0.00426821 0.00083753 0.00492133
N 7.26092408 0.11471165 2.56416867 -0.00227908 0.00518505 -0.00443258
N 1.04547135 19.44588968 10.64983251 0.00117541 -0.00665456 0.00200100
N 3.31587329 12.79535820 5.91177579 -0.00729606 0.00418006 0.00058566
N 5.02279771 19.50166977 14.13534728 -0.00060645 0.00524683 0.00639358
N 0.81729522 12.77434439 14.21189040 -0.00651840 -0.00054101 0.00255847
N 7.74021129 19.68965567 5.86765893 -0.00197790 -0.00568321 0.00048972
N 5.15259030 0.34338676 10.59551269 -0.00442795 -0.00126873 0.00554078
N 3.45819242 19.08473837 2.37532962 -0.00090669 -0.00327901 0.00043982
N 7.28279472 25.76230109 19.15704483 -0.00292372 0.00130925 -0.00434699
N 1.27146824 19.52416916 26.93265907 0.00139037 -0.00617615 -0.00254010
N 3.13961620 13.01742621 22.24701289 -0.00341288 -0.00668302 0.00402584
N 5.24371320 19.67060143 30.34763069 0.00589612 -0.00880085 -0.00059698
N 1.26241484 12.87825676 30.94918352 -0.00149822 0.00099148 -0.00077300
N 7.58507351 19.54601005 22.21656108 -0.01162139 -0.00106758 0.00046240
N 5.43769496 0.08173068 27.20307134 -0.00969933 0.00391236 -0.00391844
N 2.95551451 19.62291399 18.61621566 0.00297487 -0.00061168 0.00004760
N 16.01609517 13.15342905 2.79099813 -0.00211172 0.00720521 -0.00055821
N 9.59629399 6.35285897 10.43770230 0.00274113 0.00206963 0.00508944
N 11.65980514 0.01526886 5.98708263 -0.00315229 0.00626120 -0.00479045
N 13.58352327 6.46463629 14.07765242 -0.00269253 -0.00213472 -0.00070843
N 9.19254595 25.68613994 14.33966854 0.00120410 0.00251028 0.00573097
N 15.75570295 6.34374536 5.78440278 0.00396227 0.00041929 -0.00270938
N 13.79091214 12.90617150 10.55026249 -0.00422506 -0.01033753 -0.00047217
N 11.64256836 6.62914144 2.44796562 0.00208824 -0.00446994 -0.00120925
N 15.68039358 12.79551675 18.86441093 -0.00274139 -0.00067708 -0.00115345
N 9.42987242 6.27241874 26.97021775 -0.00330646 0.00344214 -0.00457759
N 11.62519448 0.00472724 22.62664592 0.00344355 -0.00165411 0.00122219
N 13.59780714 6.92707279 30.58508802 0.00301485 -0.00902279 0.00845267
N 9.83565884 0.33920080 30.58165606 0.00490038 -0.01014061 -0.00726480
N 15.87704776 6.95472591 22.24184565 0.00353163 -0.00298515 0.00245573
N 13.57439123 12.96717158 27.28774769 -0.00595050 0.00251583 0.00295289
N 11.35759239 6.38975339 18.47423112 0.00331328 0.00463724 -0.00360349
N 15.89615310 25.69712372 2.43700792 -0.00312762 -0.00594360 0.00335503
N 9.49175373 19.54510355 10.53869988 0.00701270 -0.00534137 -0.00024888
N 11.67020137 12.89996721 6.07126520 -0.00023472 -0.00478435 -0.00642507
N 13.62668459 19.59368774 14.04937547 0.00250932 0.00046658 0.00189905
N 9.17944775 12.83837123 13.86974951 -0.00169807 0.00536083 0.00405280
N 15.83643070 19.28968947 5.44952191 -0.00108768 -0.00513170 0.00016208
N 13.45333071 0.06177529 10.75030970 0.00700689 0.00086660 -0.00671001
N 11.42564264 19.68070628 2.35485950 -0.00654653 0.00506071 -0.00322439
N 15.78707598 0.13083243 19.12828670 0.00059389 -0.00299852 0.00228117
N 9.68587582 19.13361071 26.97351975 -0.00212929 -0.00010539 0.00758479
N 11.57911908 12.53951530 22.34247440 0.00184527 0.00182917 0.00425344
N 13.73751333 19.25276191 30.54268285 -0.00446746 0.00118651 -0.00181184
N 9.65161202 13.09739674 30.95272756 0.00233770 0.00993533 0.00752255
N 15.84249191 19.40974876 22.47517161 -0.00313494 -0.00844607 0.00143898
N 13.76075991 0.08425189 27.22438297 -0.00390629 -0.00133388 -0.00174505
N 11.60599967 19.38189292 18.93410065 0.00144889 0.00246786 0.00030485
N 24.59709157 13.30104006 2.47999710 -0.00126579 -0.00009822 0.00134106
N 17.77027432 6.30053546 10.26910270 -0.00125371 0.00831000 -0.00547452
N 19.86362063 25.70882871 5.89784176 -0.00484423 0.00691462 -0.00495107
N 21.91606755 6.30863201 14.02745223 0.00116443 -0.00069332 0.00020098
N 17.66649732 25.42774626 14.30964044 -0.00246016 -0.00389788 0.00208488
N 24.20740824 6.37743116 5.75593695 -0.00250815 0.00199205 0.00020779
N 21.96782168 12.87862629 10.61328093 0.00260272 0.00063432 -0.00307545
N 20.34992964 6.49423005 2.35652228 0.00539010 -0.00739006 0.00233386
N 24.29420593 12.78887312 18.84188651 0.00036681 0.00030495 0.00811973
N 18.19337900 6.64094987 27.20415871 0.00015977 -0.00244180 0.00793173
N 20.04420239 0.01416257 22.21767816 -0.00262516 -0.00141629 -0.00573057
N 22.63741392 6.59961176 30.69274870 0.00838722 -0.00621509 0.00422989
N 18.29518290 25.59367924 30.77313027 -0.00272792 0.00449198 0.00425820
N 24.72141251 6.95331875 22.30580870 -0.00475168 -0.00095830 0.00211775
N 22.12341134 13.02245514 27.12770977 0.00211277 0.00031842 -0.00070156
N 19.95975410 6.59081102 18.82409268 0.00409336 -0.00017394 0.00115269
N 24.29049754 25.78135860 2.55763456 -0.00002875 -0.00080148 -0.00287774
N 18.08813933 19.36339179 10.56559974 0.00445651 -0.00422589 -0.00418288
N 20.34480788 12.69839594 5.80152304 -0.00420103 0.00763300 0.00072980
N 21.80324141 19.60693659 13.75214357 -0.00132707 -0.00526144 -0.00105128
N 17.62336739 12.64887536 14.05272455 0.00093836 -0.00037430 0.00230410
N 24.64975434 19.51479381 5.63654041 0.00263634 -0.00312623 -0.00448851
N 21.97246250 0.61150884 10.49835197 -0.00444234 0.00105181 0.00021110
N 19.92481128 19.28025166 2.14807576 -0.00213677 0.00052399 0.00169242
N 24.23492244 0.30689251 18.61583275 -0.00502327 0.00005410 -0.00463656
N 18.07192866 19.37905487 26.98169921 -0.00070814 -0.00209430 0.00451789
N 20.59657479 12.62025395 22.32850046 0.00822906 -0.00350679 0.00567666
N 22.17431372 19.37696447 30.33025631 -0.00918110 -0.00183154 0.00774444
N 18.07020758 12.87187481 30.60119719 -0.00123100 -0.00668997 -0.00057990
N 24.57170422 19.46369280 22.12550388 -0.00054398 0.00896241 0.00654257
N 22.15463995 0.05960354 27.14362618 -0.00137100 0.00371705 0.00203896
N 20.22169371 18.77871143 18.90541228 -0.00093774 0.01184814 0.00164658
C 7.42954625 0.59328620 4.90246329 -0.00117964 -0.00337556 0.00021956
C 0.95208226 6.14685009 12.92680991 0.01370519 -0.00140834 -0.00143365
C 3.46200645 12.15587531 3.59998062 0.00001379 0.00349879 -0.00765890
C 5.25556238 7.02087057 11.74945717 -0.00128370 0.00060064 0.00522497
C 0.87220635 12.49054960 11.75420177 0.00070462 0.00112715 0.00156181
C 7.35818949 6.95078051 3.63487362 0.00465893 -0.00617311 0.00752149
C 5.14172204 0.52578649 12.97129004 -0.00528346 -0.00083242 0.00216412
C 3.10251443 6.16710449 4.57023860 -0.00207619 0.00361269 -0.00270522
C 7.12997732 1.42692440 5.98536602 -0.00279696 -0.00238015 0.00407529
C 1.43890086 5.54092688 14.08585396 -0.00549932 -0.00085447 -0.00167734
C 3.09370195 11.36404657 2.48859631 -0.00396022 0.00077397 -0.00298125
C 5.58282407 7.73612613 10.67373392 -0.00251808 0.01298644 0.00433875
C 1.22713638 11.74552775 10.61007806 0.00602914 0.00384081 -0.01255356
C 7.08687776 7.60650703 2.44869111 -0.00448234 -0.00023803 0.00551790
C 5.63871279 1.12475447 14.13285363 -0.00720518 -0.00404606 0.00465755
C 2.73292422 5.71254020 5.78540685 0.00524369 0.00799206 0.00218678
C 6.24881454 2.53382221 5.91947794 0.00377580 -0.00348559 -0.00415413
C 2.29647353 4.44607335 14.01412635 0.00021230 -0.00031321 0.00483031
C 2.05342048 10.43165512 2.72722041 -0.00044807 0.00293177 0.00249555
C 6.44441140 8.84776130 10.73000871 0.00334622 0.00270162 0.00628177
C 2.19854863 10.80182132 10.72794746 0.00291050 -0.00378629 -0.00105656
C 6.48460565 8.84159557 2.47336191 -0.00578794 -0.00312011 -0.00529395
C 6.47128056 2.24693572 14.02308718 -0.00346591 -0.00020982 0.00199912
C 1.88552726 4.60560232 5.85881660 -0.00313574 -0.00699236 -0.00077429
C 5.91142073 2.91894597 4.62262646 -0.00785589 -0.00207201 0.00373535
C 2.46744613 3.90612819 12.65789397 -0.00025342 0.00570941 0.00006082
C 1.64437306 10.07726302 3.97750978 -0.00774727 -0.01771416 -0.00146348
C 6.59799294 9.37437727 12.02352620 0.00027834 -0.01163955 0.00594913
C 2.31618367 10.17249630 12.01600988 -0.00620157 -0.00163246 -0.00060246
C 6.34302358 9.38584889 3.79876694 0.00353123 -0.01174768 -0.00117688
C 6.65996267 2.92432557 12.84461447 -0.00618765 0.00453890 0.00080586
C 1.55112644 3.84577814 4.66148318 -0.00491756 0.00874382 -0.01226560
C 6.32268413 2.19887854 3.46874359 -0.00446066 -0.00419594 -0.00103486
C 2.07223559 4.53927654 11.54205119 -0.00575126 -0.00251968 -0.00567865
C 2.19474315 10.76769373 5.09275068 -0.00200625 0.00074929 -0.00145187
C 6.29903960 8.66130346 13.20733295 0.00403801 -0.00353406 0.00171066
C 1.93562002 10.83857595 13.15077159 -0.00066898 -0.00715059 -0.00861324
C 6.59760620 8.75328381 4.97221193 0.00015235 0.00304888 0.00201709
C 6.29047133 2.32924060 11.67612796 0.00208896 0.00049734 0.00065123
C 1.88959097 4.37703131 3.43368924 0.00314567 -0.00164009 0.00009303
C 6.97880311 0.97313675 3.63617518 -0.00127490 0.00632410 -0.00428989
C 1.32335504 5.71924727 11.67606143 0.00487093 0.00001618 0.00214829
C 2.97508809 11.89775518 4.93364369 -0.00121116 -0.00186673 0.00329693
C 5.63026668 7.43548887 13.04031048 -0.00525531 0.00371822 0.00097741
C 1.17599330 12.00697876 13.04944756 0.00568217 -0.00521459 0.00438783
C 7.03691899 7.39436874 4.91843512 -0.00234470 -0.00141495 0.00050131
C 5.55615576 1.04313772 11.78344778 -0.00667951 0.00616677 -0.00163948
C 2.67372674 5.55252958 3.39960647 -0.00262280 0.00084064 -0.00585372
C 6.84257025 0.20951791 1.26254907 -0.00365574 -0.00256042 -0.00315418
C 1.53386576 6.39779103 9.34182856 -0.00454806 -0.00258627 -0.00486102
C 2.81214417 12.64217287 7.16847537 0.00077753 -0.00259142 -0.00153930
C 5.70067934 6.79034993 15.33667017 0.00669158 -0.00552787 0.00179377
C 1.38890088 12.68931667 15.41085599 -0.00125451 0.00708483 0.00236309
C 6.69548832 6.78902966 7.25508108 -0.00157531 -0.00366096 0.00537681
C 5.94473154 0.42850086 9.48991166 0.00178051 -0.01065168 0.00476402
C 2.52283566 5.89123644 1.06125821 -0.00346102 -0.00538043 0.00148164
C 6.63465160 11.95072197 16.76876101 0.00034152 -0.00009278 0.00473889
C 1.17653987 7.61824387 8.58915681 -0.00071514 -0.00377525 -0.00126359
C 2.64442895 0.91432551 7.90051442 -0.00177515 -0.00976299 -0.00502452
C 5.40348138 5.83830924 32.69937870 0.00348303 -0.00402770 -0.00220851
C 1.39265628 0.99513469 32.31846005 -0.00299665 0.00287252 -0.00024240
C 6.74373016 5.64577549 8.13534325 0.00680945 0.00304311 -0.00080149
C 5.48363993 11.90440464 8.63974991 -0.00059973 -0.00795332 0.00254243
C 2.77010658 7.48254331 16.61078971 -0.00342998 -0.00680768 0.00225015
C 7.15783472 0.20283661 21.50303047 0.00085472 0.00075952 -0.00140734
C 1.08498678 5.88078308 29.33330851 -0.00167938 -0.00037041 -0.00505632
C 3.27361662 12.69216695 19.89202236 -0.00424532 -0.00136652 -0.00255156
C 5.35033924 6.88035635 28.13594741 0.00013618 -0.00198744 0.00147130
C 1.31908844 12.79837939 28.61367855 0.00175184 -0.00339229 0.00464669
C 7.32000950 6.70056423 19.89938249 0.00401004 0.00678180 0.00075618
C 5.28089560 0.33936616 29.60320176 0.00634208 -0.00074509 -0.00088968
C 3.26617761 6.04869752 21.10845968 0.00722037 -0.00478091 0.00128848
C 6.85343187 1.05907806 22.55096579 0.00689519 -0.00039364 -0.00192939
C 1.37115961 5.18428032 30.49637388 -0.00060860 -0.00075772 0.00206624
C 3.03713736 11.98696881 18.78236368 0.00680738 0.00626220 0.00136036
C 5.60757062 7.53044497 26.99118899 0.00420632 0.00180458 0.00327926
C 1.54024722 12.19532054 27.42143738 -0.00921745 0.00610864 -0.00452459
C 6.94497018 7.34194167 18.70990153 0.00107636 -0.00005453 0.00485272
C 5.60839071 1.02193028 30.79949016 0.00370004 -0.00128164 0.00114413
C 2.92121675 5.31846438 22.25287053 0.00623143 -0.00176324 -0.00278892
C 6.13795467 2.26808591 22.41948087 0.00090179 0.00447585 0.00426384
C 2.31993920 4.13004546 30.34552369 0.01098396 0.00254129 -0.00048416
C 2.22594373 10.80554682 18.81932544 0.00336803 -0.00548355 0.00176353
C 6.32123547 8.75996844 27.00305855 0.00114395 0.00604907 0.00059681
C 2.13393178 10.91056303 27.42602997 -0.00583662 0.00600092 -0.00020965
C 6.26604876 8.58100426 18.70541941 -0.00013969 -0.00347546 0.00190671
C 6.41194468 2.20934753 30.63215648 -0.00444355 -0.00217767 -0.00859393
C 2.06147125 4.20649702 22.20991462 0.00320371 -0.00452611 0.00202430
C 5.84369694 2.63570961 21.14287832 0.00061006 0.00779649 -0.00474197
C 2.58264637 3.61715681 29.09076451 0.00041037 -0.00598457 0.00184072
C 1.89479734 10.28191993 20.08526029 0.00124277 0.00936627 0.00915812
C 6.68900694 9.30215878 28.22862104 -0.00288264 0.00047280 0.00427257
C 2.56788278 10.30860757 28.65013778 -0.00232256 -0.00590823 0.00225857
C 5.96301879 9.13415873 19.99553818 -0.00289326 0.00795231 0.00343012
C 6.56218183 2.83546221 29.40819482 -0.00050531 0.01015847 -0.00005184
C 1.65870624 3.75801631 20.88330999 -0.00245600 0.00872040 0.00509010
C 6.17835864 1.89837310 19.99168199 0.00511999 0.00254868 -0.00140692
C 2.30967723 4.36031670 27.90217800 0.00370041 0.00279119 -0.00821714
C 2.20115566 11.02012740 21.21879315 0.00149338 0.00184786 0.00008300
C 6.38830012 8.61929398 29.41115739 0.00123423 -0.00000082 -0.00069667
C 2.26643885 10.88276807 29.82874460 0.00245692 -0.00051949 0.00722678
C 6.33254980 8.56308712 21.14436805 0.00004134 -0.00359151 0.00036841
C 6.28825359 2.12463223 28.27765446 0.00436391 -0.00364784 -0.00274764
C 1.99371657 4.44725097 19.77175020 0.00133555 0.00286378 -0.00313798
C 6.82790035 0.66454896 20.20610026 0.00478330 -0.00380251 -0.00362496
C 1.56244532 5.51751500 28.05766213 -0.00213079 -0.00240432 -0.00101839
C 2.86688299 12.24893302 21.14096874 -0.00028304 0.00131507 0.00283795
C 5.63188529 7.45606786 29.38607941 -0.00677474 0.00362859 -0.00647506
C 1.55602753 12.09460584 29.88142798 0.00215394 -0.00042644 -0.00346532
C 6.96814085 7.25428631 21.20250014 0.00247681 0.00001354 0.00107474
C 5.68287611 0.80636258 28.36335291 -0.00849441 -0.00501959 0.00099465
C 2.86092806 5.70457763 19.85783584 -0.00468270 0.00278094 0.00416887
C 6.89794529 0.05197154 17.86672093 0.00472870 0.00291409 -0.00486962
C 1.65356013 6.18369539 25.79882867 0.00347425 0.00123312 0.00713271
C 2.51721284 12.83298430 23.43918362 0.00179117 -0.00116913 0.00412962
C 5.80897879 7.01461789 31.79932041 0.00149708 -0.00359995 0.00046763
C 1.73348566 12.54715432 32.18831467 0.00757088 0.00188019 -0.00185858
C 6.75827586 6.90753380 23.51171316 -0.00733106 -0.00623393 0.01114728
C 5.91637677 0.33288618 25.98833643 -0.00276734 0.00246113 -0.00218811
C 2.63101577 6.31509710 17.56810049 -0.00096093 0.00691707 0.00061727
C 7.23442491 12.20764777 0.39893961 0.00250827 -0.00659554 -0.00105855
C 1.76081188 7.45051211 24.97481096 -0.00357254 0.00163112 -0.00070633
C 2.56560265 0.87608510 24.15863801 0.00966363 -0.00083633 -0.00620805
C 5.56134771 5.48280510 16.08782940 -0.00078078 -0.00349472 0.00596166
C 1.45791792 1.16065113 15.69425719 0.00112188 -0.00333859 0.00169961
C 6.91255147 5.67567609 24.35793086 -0.00535318 0.00921999 -0.00177588
C 5.29237637 12.21218449 24.91084038 0.00162234 0.00231983 -0.00197497