1920
Time=57000.00000005 pbc="T T T" Lattice="25.75545865 0.00000000 0.00000000 0.00000000 25.98480584 0.00000000 0.00000000 0.00000000 31.55691743" energy=-12208.80979055 virial="-31.64407655 -4.01574449 7.03635331 -4.01574449 -35.65426204 -0.61536489 7.03635331 -0.61536489 31.62807538" stress="0.00160557 -0.00010316 0.00030662 -0.00010316 0.00146751 -0.00003055 0.00030662 -0.00003055 0.00466252" Properties=species:S:1:pos:R:3:vel:R:3
O 4.82514425 20.37955638 14.87287344 -0.00162073 -0.01078361 -0.00272222
O 4.04273967 24.50462929 11.74616422 -0.00114744 0.00269560 -0.00836662
O 5.54356753 16.83301936 30.94068332 0.00288960 -0.00631843 0.00314173
O 25.31899591 12.49891040 19.07385894 -0.00885250 0.00428393 -0.00173158
O 0.65923562 8.16401088 12.96538417 -0.00358644 -0.00384962 0.00358873
O 3.13134194 9.81588756 2.49841413 -0.00759133 -0.00637921 0.00284381
O 9.72206508 16.38683299 15.89162337 0.00110954 0.00772601 -0.00412162
O 25.12740563 4.36588641 9.44330743 -0.00533793 -0.00311496 0.00589809
O 10.17236483 1.04406557 19.76273579 -0.00572649 -0.00225862 0.00044129
O 2.19962951 2.78679200 7.32964242 0.00018196 0.00602554 0.00661616
O 24.47947545 13.34929196 30.71155168 0.00343942 0.00214606 0.00046902
O 11.00382916 4.91923076 26.77684282 -0.00103971 -0.01122862 -0.00561874
O 19.70986848 10.83379300 4.11701528 0.00055057 -0.00095084 0.01042795
O 5.70777826 12.22435398 28.83277670 0.00062293 -0.00395821 -0.00032239
O 11.75167688 17.38111004 10.04053298 0.00432790 -0.00410975 -0.00299946
O 6.30473155 4.78847277 11.48619103 0.00237841 0.00031634 -0.00271409
O 9.56081581 0.56061798 12.32642165 0.00411224 0.00803332 -0.00341452
O 4.36651917 7.95036603 25.98143654 -0.00462359 -0.00019742 -0.00602043
O 4.58280127 14.96466570 24.21353006 -0.01272071 0.00148483 -0.01007828
O 13.08348707 3.53339539 20.74905134 0.00239707 0.00216399 -0.00503681
O 21.84558729 13.59815081 30.55318807 -0.00188392 -0.00340864 0.00125397
O 7.53156617 9.85198337 10.54511054 0.00137103 0.00171359 -0.00206510
O 14.93135810 20.18734220 23.08707319 -0.00218160 -0.00044041 -0.00010518
O 6.32786439 5.76056325 19.06169440 0.00006863 -0.00753896 0.00065302
O 7.75273095 24.93435472 11.35215346 0.00313111 0.00183939 0.00540583
O 25.16260467 9.23447148 29.62155010 -0.00051823 0.00360446 -0.00112801
O 22.98515516 16.03603262 23.08039149 0.00724015 -0.00208842 0.00335824
O 4.23811005 10.58400796 22.87969481 -0.00313790 0.00041869 0.00255859
O 3.33865292 13.21624606 15.80461417 -0.00031815 -0.00291152 0.00246486
O 8.65266745 9.41632257 16.75711073 0.00627488 0.00001824 -0.00262327
O 10.16185937 22.11413599 26.55129426 -0.00387572 -0.00298495 0.00025104
O 0.58536408 3.80238917 3.30079975 -0.00489343 0.00521919 -0.00416416
O 17.75031326 19.07133807 8.57032371 0.00698271 0.01267297 -0.00279807
O 4.65344199 18.57376213 8.85527895 -0.00106056 -0.00164950 0.00560986
O 6.88328083 23.11457228 3.34545044 0.00425084 -0.00271106 -0.00282286
O 5.58228898 18.84875891 16.73840185 -0.00052086 -0.00243374 0.00375835
O 6.53457155 25.80731490 20.93655188 -0.00145594 -0.00255176 -0.00497050
O 5.39954203 1.63982624 3.90427869 -0.00411088 -0.00815309 0.00424538
O 8.34308931 18.33634747 5.01148267 0.00314037 -0.00269758 -0.00063302
O 23.40235237 0.39718314 25.91156973 0.00118697 -0.00883876 0.00410457
O 1.33267610 16.36633340 26.44489705 -0.00429630 0.00112918 -0.00253309
O 0.47641107 13.59464995 9.19260358 0.00107640 0.00010406 0.00059348
O 3.26400641 20.79392741 7.89887137 0.00092635 -0.00302046 -0.00374834
O 25.08051933 24.51251655 28.30458190 0.00279164 0.00292886 -0.00168097
O 6.24263828 2.21189872 1.52682756 -0.00134134 0.00062885 0.00789438
O 25.12126779 25.00763610 4.88326285 0.00436169 -0.00001703 -0.00155929
O 1.79017474 15.17468506 2.65948529 0.00342534 0.00253915 -0.00336000
O 23.23956812 19.11036301 19.62123798 0.00553761 0.00382879 0.00104803
O 22.10052522 16.12542869 30.33723734 -0.00006122 -0.00664555 -0.00481964
O 24.33527282 20.22019677 3.00782731 0.00155760 0.00519282 0.00192958
O 20.51881851 1.73441611 28.73557687 0.00349272 -0.00045350 -0.00246559
O 6.68975407 23.84915122 30.11349661 0.00593482 0.00789644 -0.00814895
O 6.22573634 3.27882073 26.83538427 -0.00440498 0.00595403 -0.00704311
O 0.96485797 22.56271457 21.66597996 0.00670513 -0.00006080 -0.00431896
O 6.12136259 11.94206512 23.80161649 0.00266177 0.00593924 -0.00161009
O 17.44134017 21.08591925 21.89089411 -0.00386176 -0.01113068 0.00597636
O 15.40492908 21.09726752 14.04659432 0.00231364 0.00163808 0.00727983
O 5.76585784 22.17829436 0.96576917 -0.00238483 -0.00176402 0.00608118
O 18.62015956 3.99475794 23.13023749 0.00260164 0.00901320 -0.00073218
O 5.37255245 16.69430972 22.60387109 0.00280789 -0.00176760 -0.00088092
O 4.53723156 2.28432340 15.34727165 -0.00212928 0.00006226 0.00426079
O 7.10621499 23.28440733 21.31210198 0.00345010 0.00219602 -0.00138250
O 8.90187697 18.23448360 20.37708798 -0.00390654 0.00017522 -0.00562308
O 5.32478407 0.90394629 26.42716509 -0.00416897 -0.01013413 0.00132899
O 3.30088930 3.98413186 3.05849741 -0.00616253 0.00540025 0.00391464
O 6.52962693 4.46043007 9.05362257 -0.00129715 -0.00722342 0.00496615
O 16.74285350 11.88751370 26.59427484 0.00721671 -0.00508132 -0.00221640
O 11.99110802 9.39099552 13.32574857 0.00257672 0.00373316 -0.00275292
O 9.54091581 6.84530465 8.72249360 0.00092907 0.00664481 -0.00273359
O 14.82137425 9.81150767 7.23577758 0.00389244 0.00164749 0.00864089
O 19.86726509 3.07446657 8.07095009 -0.00548956 0.00649629 0.00662203
O 20.27454984 11.57962733 14.16181899 0.00516467 -0.01232560 0.00721031
O 24.56782024 24.89159846 16.07344210 0.00380362 0.00414735 -0.00351332
O 12.57666853 0.63811666 6.63369200 0.00703674 0.00812249 0.00495176
O 19.58039459 8.90113780 0.11256683 0.00323921 0.00572852 -0.00818653
O 1.69323886 7.77356717 2.66857357 -0.00109999 0.00180814 -0.00048826
O 7.81092806 15.63412741 29.97790911 -0.00733422 0.00008130 -0.00225341
O 20.46104462 9.58028417 9.94480416 0.00119042 0.00016136 0.00728836
O 15.30148680 7.24046461 6.69909203 0.00594327 0.00166055 0.01308867
O 18.95241255 6.77827416 25.23477413 0.00130183 0.00034460 0.00869553
O 23.64483997 3.74121669 21.90059879 0.00085203 -0.00011884 0.00826533
O 8.98100705 10.77596828 24.77261139 0.00932954 -0.00115516 0.00225253
O 9.23237306 11.82293316 16.91118042 -0.00783454 -0.00952876 -0.00767388
O 22.06672701 8.35921176 31.34485096 0.00447939 0.00727192 -0.00147483
O 9.19057492 10.18187815 1.35590626 -0.00192686 0.00657008 -0.00352655
O 20.68563222 5.29504707 13.38609015 0.00198955 -0.00327855 -0.00006887
O 13.77089056 4.79163950 18.55283769 -0.00408295 0.00511024 0.00190000
O 18.28884069 4.80205943 31.47325038 0.00238101 0.00520279 -0.00208873
O 4.60300214 6.24781595 28.96419146 0.00071930 -0.00095543 0.00097055
O 8.58493247 6.18234423 20.51734210 0.00115509 0.00157991 -0.00069104
O 10.66656017 13.46128377 22.92257262 0.00308170 0.00914569 -0.00658993
O 17.48202664 10.23655576 16.31685700 -0.00231274 0.00091854 -0.00501883
O 8.93928052 10.85492132 3.82322579 -0.00449882 0.00310334 -0.00583584
O 16.04363302 4.79611480 17.54330303 0.00425941 -0.00493962 0.00524474
O 11.68888197 6.99125242 12.93203718 0.00946524 -0.00011688 -0.00137971
O 14.57834076 11.91351193 11.31784256 0.00965034 -0.00522338 -0.00420334
O 12.10765410 8.08467893 30.49694283 -0.00094468 0.00075387 0.01171507
O 6.12863547 14.81753093 5.85724560 -0.00413829 -0.00552354 0.00240575
O 12.11728409 3.35709445 3.54928558 0.00203979 0.00142516 -0.01250181
O 24.93433832 15.88225361 12.86947048 0.00417247 0.00135181 -0.00385653
O 12.17292496 23.24589038 9.93694738 0.00042120 -0.00498023 0.00803616
O 15.46309359 25.82230216 16.37558805 -0.00198469 0.00236180 0.00560697
O 8.40953668 13.19254814 11.75853983 0.00192281 -0.00663504 -0.00090758
O 9.25313597 17.78187573 9.75052560 0.00552862 0.00546043 -0.00387066
O 12.60259660 8.73645321 19.99508229 0.00419401 -0.00090672 -0.00437996
O 5.53873599 9.15448154 9.11230487 0.00755909 -0.00195497 0.00433859
O 12.00848944 6.63133348 8.71542740 -0.01205117 0.00069825 -0.00008373
O 12.57753261 1.23198526 2.14620220 -0.00094951 0.00634836 0.00192715
O 8.78192141 0.65838973 28.55489722 0.00577852 0.00467850 -0.00123383
O 19.29329734 3.07927318 10.52366302 -0.00157558 -0.00389870 0.00053185
O 13.98172746 14.28213971 8.85113493 -0.00065950 -0.00040250 0.00840817
O 10.06826909 19.97164866 19.13941759 -0.00488442 -0.00080248 0.01025016
O 14.53193076 11.67632120 25.37281403 0.00444318 0.00148548 -0.00511519
O 11.53625721 11.93294496 25.01863764 0.00296820 -0.00104698 0.00223558
O 16.41442968 24.56721586 4.70877525 0.00452151 0.00195640 -0.00408969
O 7.26065982 0.18702217 30.65413674 0.00245573 0.00314818 -0.00276202
O 11.38654267 25.71945858 21.55995168 0.00843201 0.00517437 0.00022856
O 17.69675663 14.85828270 20.25257989 0.00433648 0.00459231 -0.00035179
O 6.98281595 17.03430120 15.79257197 0.00208262 -0.00720412 -0.00090391
O 17.55951801 19.70780112 18.93750476 0.00650097 0.00563285 0.00321995
O 13.88992103 11.36004420 4.00626690 -0.00191467 -0.00639049 -0.00478944
O 13.85797626 12.44480842 30.69661414 0.00143828 0.00899302 0.00464028
O 12.76745849 25.66847527 9.79187304 0.00162648 0.00276322 -0.00101720
O 22.36170789 13.85496143 18.22005744 0.00728761 -0.00057016 -0.00132757
O 10.55111146 21.35893182 15.34495952 0.00641737 -0.00269055 -0.00348794
O 14.27201234 16.58182958 25.33134113 -0.00123986 -0.00237707 -0.00316470
O 5.93831735 13.21466671 11.10631794 0.00203047 -0.00583199 0.00053401
O 10.06028016 23.36452694 4.68994974 0.00947592 -0.00644561 -0.00070209
O 20.50570897 21.69533543 29.95796350 0.00517162 -0.00532469 -0.00418243
O 24.47561692 5.11606883 16.84980581 0.00075716 -0.00167695 0.00311628
O 10.20502654 19.99579993 4.09279871 -0.00207213 0.00002503 -0.00816653
O 19.88203391 8.54409014 5.62080763 0.00380063 0.00258450 0.00780486
O 16.09975580 15.52523403 9.71727290 0.00057623 0.00328122 0.00569207
O 24.61296679 11.27084621 0.68420101 0.00916686 -0.00082423 -0.00398605
O 20.58659043 0.91862565 6.45540195 0.00553937 0.00352700 0.00185935
O 21.23872108 4.77932224 3.04894229 0.00169271 -0.00255243 0.00141826
O 13.06081019 25.54064509 17.05204563 0.00033639 0.00050260 0.00180860
O 24.14185647 11.88148574 13.79947960 0.00188883 0.00257639 0.00167798
O 13.00819567 23.05304797 30.90397457 -0.00504650 0.00863505 0.00001838
O 18.21128044 16.75209694 28.74621162 0.00055789 0.00398355 0.00263251
O 15.52084855 8.70377017 20.84191555 -0.00278394 0.00293154 0.00109311
O 0.00483161 11.22325260 6.87658981 -0.00452123 -0.00901601 0.00152632
O 25.30628711 21.69744633 9.34509434 -0.00566809 -0.00642605 0.00280110
O 0.98274606 4.60774213 17.81846832 -0.00032070 0.00455680 -0.00302580
O 11.04303768 21.84801853 21.82272231 -0.00421634 -0.00246341 0.00544906
O 13.57459812 18.80343589 26.18113294 0.00586476 0.00165582 0.00275094
O 16.31913253 3.64482047 24.15291852 -0.00300276 0.00341055 0.00009658
O 22.15373720 14.11043312 24.52477695 -0.00143505 -0.00331670 0.00044569
O 18.87828009 11.47913040 25.22490901 -0.00353105 0.00087887 0.00076017
O 5.76667287 2.19416793 22.57031446 0.00205399 -0.00476442 -0.00584502
O 22.52968428 20.27760304 29.09042425 -0.00140522 0.00669904 0.00097039
O 24.84047534 8.39158362 22.46933330 -0.00386767 -0.00480419 0.00410883
O 18.75906439 24.71077923 3.85012312 -0.00171571 0.00042465 -0.00107628
O 8.24534901 18.70411800 31.43524529 -0.00287531 -0.00080266 -0.00439811
O 14.05711009 9.06972119 29.13471256 -0.00206336 0.00235210 -0.01081744
O 24.77528722 6.88492048 9.28380336 0.00041593 -0.00098917 -0.00976196
O 13.58626113 15.66499643 15.80961146 -0.00270747 0.00490510 -0.00461267
O 25.33232826 3.44193653 24.14361852 -0.00500100 -0.00478739 -0.00430512
O 25.16038036 21.86794538 23.42338964 -0.00658216 0.00642248 -0.00559150
O 22.63149308 0.80711535 29.97253513 -0.00319269 -0.00553477 0.00749801
O 0.15906388 18.10243514 11.54732332 0.00062707 -0.00261013 0.00098208
O 18.37610461 17.05657653 18.98530559 -0.00450759 0.00108505 0.00622462
O 13.13717513 0.51639231 26.85478315 0.00335121 -0.00111481 0.00493562
O 24.82695291 21.16640145 19.01080465 0.00379518 0.00390613 0.00548568
O 23.71440804 22.80285919 15.10902202 0.00080269 0.00427610 0.00608551
O 18.58457596 19.22505630 6.22093826 -0.00485402 -0.00424430 -0.00654921
O 10.40849613 15.92699660 30.71922517 0.00340128 -0.00247478 0.00153782
O 17.62670561 21.06984865 4.68402480 0.00370950 0.00116389 0.00504820
O 25.13151993 6.03681120 13.87502900 0.00169591 -0.00028430 -0.00747814
O 20.30904964 14.37021203 13.62835131 -0.01257135 0.00530620 -0.00470977
O 15.62153421 4.54945319 31.34828062 -0.00636829 0.00384807 -0.00178349
O 25.23976648 15.94161905 3.14268424 0.00369774 0.00506413 -0.00135612
O 16.71559185 21.61161486 24.29564739 -0.00127954 0.00243418 -0.00792694
O 24.92178188 18.83238037 5.50995492 -0.00439417 0.00052448 0.00316178
O 12.05025087 18.56922683 4.88278517 0.00173968 -0.00795855 0.00326275
O 22.62649726 9.58920992 21.87601357 0.00207075 0.00718400 -0.00565521
O 20.44288815 7.05204328 9.82132553 -0.00375309 0.00351868 0.01157849
O 18.27778208 2.49112910 1.81491285 -0.00462121 -0.00222562 -0.00657413
O 21.68213028 21.55611822 16.76048433 -0.00188771 -0.00139421 0.00617499
O 23.49298195 12.88411632 8.42276554 -0.00158629 0.00020017 -0.00444109
O 21.44585283 25.78404382 24.04425562 0.00152529 -0.00287202 0.00011333
O 2.85988389 15.40991681 14.62408941 -0.00441786 -0.00424206 -0.00335586
O 16.03298207 24.26939537 18.33853705 -0.00637920 0.00141235 0.00308904
O 19.56580969 8.40189689 16.66669056 0.00744181 -0.00561837 0.00059190
O 19.78341122 18.13982105 9.74053139 0.00286738 0.00185882 -0.00508269
O 15.52428464 23.46233057 30.56881826 -0.00838770 -0.00729191 -0.00063723
O 21.11537203 0.21850505 21.00162002 0.00129864 -0.00453654 0.00103879
O 2.40671355 22.79091018 12.36641398 0.00441652 0.00379903 -0.00012306
O 19.44612606 24.91283026 10.96446732 -0.00427812 0.00891948 -0.00012132
O 1.89046793 17.52679512 20.48464601 -0.00056962 0.00414569 -0.00843408
O 14.76851057 1.23381900 25.19016171 0.00312565 -0.00256196 -0.00186731
O 16.40479937 18.64853161 29.39826989 -0.00518192 -0.00351421 0.00498890
N 14.80611943 22.23395593 12.16569824 -0.00460457 -0.00207006 0.00082726
N 4.23639816 2.84397295 8.33132918 -0.00835358 -0.00455492 -0.00381386
N 4.46629194 22.68002376 8.38479401 -0.00836919 -0.00589777 -0.00044925
N 3.72965895 9.39709507 20.94577895 0.00989090 -0.00214820 -0.00423678
N 4.52772746 0.01536984 15.83037502 -0.00041765 -0.00105859 -0.00303094
N 3.96605497 10.75997791 28.57091490 -0.00105577 -0.00324318 -0.00545709
N 3.72046447 16.32509501 2.87564217 -0.00205044 0.00211983 0.00827196
N 25.67567195 1.94363847 4.52771086 -0.01008470 -0.00187629 -0.00720137
N 1.16965317 17.70346759 28.31154400 -0.00090237 -0.00065694 0.00089560
N 25.12964063 9.79157687 27.38935485 -0.00392904 -0.00878304 0.00878187
N 20.77270794 3.71342595 23.56706924 0.00486267 -0.00287519 0.00995269
N 11.29370597 6.50165238 25.10911718 0.00228853 -0.01230319 0.00147790
N 7.95047560 3.39205296 0.39006314 0.00466021 -0.01089547 0.00142226
N 6.78684540 8.56564640 15.78763567 0.00817786 0.00523079 -0.00094610
N 8.81884395 16.31466306 21.54522478 -0.00638205 -0.00116782 0.00591970
N 6.64487633 4.25364483 13.71968953 0.00597580 -0.00273203 0.00428622
N 7.90724659 22.66889139 10.84489436 0.00142483 -0.00256962 -0.00539033
N 1.27226865 14.78327690 11.06156671 -0.00355415 -0.00388563 -0.00308272
N 0.38112185 14.91826197 30.94253137 0.00226426 -0.00362404 0.00003255
N 6.15403938 18.81580384 22.07116323 0.00077436 0.00362260 0.00391525
N 3.27816886 11.13221938 16.79576854 0.00021894 -0.00843081 0.00766803
N 1.20461716 24.05761052 3.92612826 0.00522595 -0.00122728 -0.00018410
N 12.68515456 18.51725398 11.76377405 0.00346222 -0.00212354 -0.00428785
N 3.17440363 1.27788900 25.77788706 -0.00025234 0.00597172 0.01587259
N 9.38315589 1.20614987 17.69370333 0.00053469 0.00178198 0.00294600
N 3.54715240 21.71616623 0.88557675 0.00126835 0.00618100 -0.00552079
N 24.81076098 15.06779643 24.02562915 0.00006020 0.00087638 -0.00833220
N 1.31126636 23.64927505 28.82181890 0.00108632 0.00249194 0.00046315
N 18.62956688 12.62880917 3.34168792 -0.00437102 -0.00500785 -0.00400609
N 6.18919586 22.75733996 23.36198347 -0.00680025 0.00613598 -0.00002273
N 9.89728187 20.28287984 25.16632736 0.01216520 -0.00507820 -0.01202200
N 22.12818605 18.00356842 21.24734022 0.00730154 -0.00208310 0.00093128
N 12.10156711 10.01626854 4.13273564 0.00551914 0.00130420 -0.00127538
N 11.21308265 1.67389411 8.13920775 0.00129260 0.00052945 0.00653204
N 13.54121564 4.90735380 8.68130050 -0.00402107 -0.00313736 -0.00168892
N 15.97323813 11.99613114 16.16681208 -0.00125978 0.00140613 0.00079835
N 9.56623312 20.15262249 13.73768981 0.00299223 0.01242215 -0.00689768
N 19.34849639 11.57519988 10.02213951 -0.00105575 0.00210070 0.00860867
N 12.03296594 14.68336587 7.80580318 0.00595648 -0.00061153 0.00149731
N 15.94824724 10.06981020 11.10320752 -0.00351167 0.00200977 0.00473711
N 13.10475818 10.96621346 20.03415570 0.00550261 0.00429176 -0.00337787
N 8.49614063 5.63816028 22.70051686 -0.00970352 0.00227807 0.00161622
N 14.96615453 0.22811823 9.74785828 -0.00585471 0.00144304 -0.00484945
N 25.59759151 8.00449026 3.87803039 0.00618527 0.00510626 0.00148179
N 8.66525088 0.67979943 26.27386526 0.00051375 0.00156878 0.00369428
N 18.17977813 4.12769168 18.22947976 0.00086505 0.00141815 -0.00296361
N 5.76130005 12.26839353 13.17964468 0.00693065 0.00600441 0.00448786
N 20.69856000 6.84512620 26.86319548 -0.00787768 -0.00197909 -0.00694456
N 5.12733283 7.55247559 30.76019068 0.01189869 -0.00650150 0.00283240
N 5.73338589 9.26889668 6.76289314 0.00532699 -0.00133291 -0.00352055
N 17.82801643 10.39472609 0.25645633 -0.00254421 0.00144425 0.00679516
N 22.55250372 16.13170557 17.98795013 0.00262930 -0.00018092 -0.00231982
N 8.84290687 11.71015606 5.98152978 0.00313470 0.00599657 -0.00714191
N 18.32786356 1.61694473 11.92649173 -0.00612762 0.00556594 0.00041371
N 16.47268982 6.23227042 4.99223403 0.00685386 -0.00516442 0.00496867
N 9.08755318 21.84205387 5.98964257 0.00277179 0.00036874 0.00472775
N 23.56806587 0.40732597 17.39205234 -0.00016303 -0.00004809 0.00223445
N 11.70850686 13.14915857 30.43848121 -0.00117661 -0.00515086 0.00126569
N 11.91927115 14.40506804 21.22817906 0.00202304 0.00527535 -0.00561512
N 11.30183900 25.39587613 2.65144944 -0.00096489 0.00016545 -0.00000726
N 8.05999844 13.65878314 28.76043092 -0.00279913 -0.00447612 -0.00026242
N 16.20678020 15.41985661 25.62554218 0.00199634 0.00628029 0.00099931
N 10.26538326 6.30997569 14.53281663 0.00179680 0.00570096 0.00055891
N 12.12990606 20.61895283 18.51099833 0.00067347 0.00051502 0.00566899
N 21.39028937 17.40491723 8.41415344 0.00233541 0.00171244 0.00335717
N 23.26822514 9.83039171 14.42924707 0.00483898 0.00460495 0.00591015
N 13.33161447 4.22212337 30.96671047 0.00804419 -0.00619977 0.00313286
N 24.64599549 9.02947403 8.43345215 -0.00361239 0.00188877 -0.00389069
N 19.89360348 22.72043077 11.04921843 -0.00532382 0.00467970 -0.00564382
N 1.65347474 11.80871592 5.44523890 0.00303680 0.00379407 -0.00164116
N 13.57321748 18.22282341 3.20855468 0.00136023 -0.00283781 -0.00324762
N 22.03665480 25.91563899 0.45460526 -0.00285298 0.00272794 -0.00018732
N 24.57064933 4.31846771 12.38037637 0.00376483 -0.00842822 -0.00043687
N 10.21004889 19.44464329 30.47592513 -0.00220787 -0.00280206 -0.00055473
N 19.36409507 25.45064743 19.90107608 0.01023208 0.00523690 -0.00334077
N 19.01242227 14.66466843 29.04543604 0.00641271 -0.00986834 -0.00252605
N 18.37624411 21.59594027 25.79854114 0.00247043 0.00317950 -0.00259782
N 1.30064918 4.90540042 24.36466727 -0.00015015 0.00775849 0.00325326
N 14.95205071 0.56281999 23.20928926 0.00493114 -0.00505650 0.00119010
N 2.26121206 4.83578163 19.66221084 -0.00311071 0.00528098 -0.00386857
N 20.23009419 22.93604838 3.78700786 0.00483653 -0.00485076 0.00564302
N 21.22558042 16.36462355 14.33289588 -0.00195551 -0.00495788 0.00244480
N 10.74005716 23.22466446 31.10621676 -0.00616980 -0.00379504 -0.00119615
N 1.55331910 21.67752582 14.10827464 0.00140787 0.00409431 -0.00004133
N 15.79752883 15.89134663 15.20651883 0.00387138 0.00170892 0.00484109
N 24.12531444 19.83199973 7.25335925 0.00478764 0.00079370 -0.00358313
N 23.87337176 23.39557996 9.36483838 0.00938784 0.00024371 -0.01186910
N 16.29260165 20.16895341 31.00265964 -0.00460599 -0.00485531 -0.00798582
N 11.35698333 24.03130910 16.72069133 0.00356382 -0.00730631 0.00952542
N 16.30525502 25.26037977 29.42218277 0.00853837 0.00351599 -0.00208932
N 15.24662539 8.00781118 27.54210869 0.00028595 0.00554362 0.00108136
N 23.07374069 15.13496850 3.39095603 -0.00117452 -0.00145156 -0.00696484
N 17.84109674 9.03281450 20.39836732 -0.00094250 -0.00545382 -0.00118304
N 2.02055009 19.00989917 18.72902042 -0.00176847 -0.00366223 -0.00425508
N 22.91437530 21.29166849 23.81508514 -0.00128525 -0.00491247 -0.00965718
N 22.57413069 11.15348514 20.28730528 0.00629378 0.00120316 0.00150900
C 6.48855078 22.92789397 12.87479812 0.00328758 0.00177121 0.00377702
C 5.22895288 1.63462001 10.16150073 -0.00472736 -0.00279644 -0.00144125
C 2.71586370 14.58599673 30.42168366 0.00626099 0.00642047 0.00315741
C 2.20377562 11.33338747 21.31651652 -0.00296723 0.00503422 0.00309498
C 2.58017583 10.86427505 14.53518981 -0.00181826 0.00271850 -0.00506049
C 4.72991942 10.92186922 30.92039767 0.00466938 0.00535232 -0.00534316
C 12.19058526 18.47439412 14.09231221 -0.00364607 -0.00000273 0.00145889
C 25.22804308 1.86313188 6.91962434 0.00030557 -0.01085082 -0.00349658
C 5.82601354 22.38089311 13.91949547 0.00649948 0.00986341 0.00260774
C 5.11804333 0.55668891 11.01171500 0.00182615 -0.00046053 -0.00623552
C 4.03280035 15.05107848 30.45453946 0.00909529 0.01205023 0.00051356
C 1.17336125 12.08635993 20.86581393 0.01070084 0.00228470 0.00076436
C 1.90429022 10.07106261 13.64649100 0.00449145 0.00268572 0.00279235
C 4.48656773 10.70382736 0.68227185 -0.00118823 0.00329387 0.00110621
C 11.46728558 17.98064300 15.10509409 -0.00446530 0.00865967 0.00097159
C 25.01834083 2.45569815 8.12566357 -0.00456119 -0.00684492 0.00823662
C 5.63845399 20.98104673 13.99065643 -0.00107232 -0.00374857 -0.00346896
C 4.00644476 25.58927081 10.92647274 -0.00930954 -0.00324419 0.00124099
C 4.28324175 16.38086895 30.81352820 0.00362486 0.00159565 -0.00491038
C 0.41379945 11.59145473 19.81734878 0.00911611 -0.00035248 0.00412467
C 1.50367627 8.73362093 13.86435096 0.00430510 0.00384776 0.00756352
C 3.41134127 9.98521973 1.15330543 -0.00549100 0.00361634 -0.00250307
C 10.45168943 16.94343049 14.89267725 0.00278039 0.00253066 -0.00147103
C 25.11924308 3.88254646 8.19445589 -0.00000621 -0.00683515 0.00603625
C 6.27553678 20.16469680 12.98888048 0.00851824 -0.00080180 0.00061343
C 2.93664347 25.85184758 10.05137121 -0.00313610 -0.00007033 -0.00210785
C 3.16255769 17.21838297 31.16098359 0.00122008 -0.00737349 -0.00204537
C 0.46954890 10.28032595 19.45668538 0.00906518 0.00403715 0.00366047
C 1.98447062 8.08609055 14.97437241 -0.00161651 0.00080543 -0.00521306
C 2.50258702 9.48624511 0.21886908 -0.00390688 -0.00132431 0.00791874
C 10.10169958 16.62059641 13.56006499 0.00150337 0.00583228 0.00205952
C 25.19220891 4.69999352 7.07368417 0.01225207 0.00661664 0.00213519
C 6.94127398 20.74046249 11.92893666 0.00096077 -0.00944852 -0.00721283
C 3.04856769 1.00170602 9.24072786 0.00080945 0.00250392 -0.01289515
C 1.85786651 16.68631861 31.31190621 -0.00465027 0.01016399 -0.00158326
C 1.54802756 9.54255366 19.89559559 -0.00095183 0.00186160 0.00293080
C 2.58175683 8.86877838 15.99621034 -0.00722839 -0.00127068 -0.00609887
C 2.64952416 9.80373547 30.33762805 -0.00200412 0.00230853 0.00197454
C 10.92282512 17.02673505 12.59059562 -0.00281164 -0.00641112 -0.00032043
C 25.19827141 4.02463365 5.87004566 -0.00791377 0.00711931 -0.00264700
C 7.14043843 22.15201144 11.88196718 0.00543122 -0.00160050 0.00357350
C 4.18630567 1.78820941 9.21369060 -0.00275361 0.00312769 -0.00143660
C 1.63937243 15.37409746 30.86685228 0.00063956 -0.00199903 0.00562836
C 2.52700564 10.08007297 20.74136945 -0.00448551 0.00237669 -0.01166749
C 2.81938183 10.30829348 15.76545833 -0.00797164 0.00194814 -0.00184335
C 3.80379737 10.52062025 29.90737286 -0.00327035 0.00048412 -0.00824859
C 11.90183502 18.01318683 12.82253946 -0.00428569 -0.00250331 0.00020820
C 25.33375877 2.63623828 5.69424352 0.00101047 0.00511915 0.00141995
C 8.12580969 24.00917598 10.63120618 -0.00006253 0.00239644 -0.01609829
C 3.31526319 3.35265374 7.41103646 -0.00426824 0.00465183 -0.00089237
C 25.52924263 13.74246715 30.27801356 -0.00208167 -0.00410436 -0.00693924
C 4.50619054 9.58712385 22.07187008 -0.00012557 -0.00165869 0.00107618
C 3.60025672 12.47144804 16.79690320 0.00154066 0.00161621 0.00906275
C 5.03403913 11.51904629 28.10064798 0.00188873 0.00165677 -0.00363651
C 12.59614758 18.15631592 10.51206315 -0.00884799 -0.00203286 0.00167424
C 0.10653231 2.63330458 3.35659374 0.00117048 -0.00515011 0.00421473
C 3.29143024 17.38892412 27.01686996 -0.00289915 0.00203769 0.00937216
C 3.63369519 4.63498306 6.63992169 0.00257673 0.00216214 -0.00141956
C 3.14160293 21.57004379 10.09938898 -0.00435632 -0.00263347 0.00238434
C 10.65729277 7.26801064 27.26582997 0.00032281 -0.00793615 0.00307104
C 8.02047993 3.22852980 2.85289542 0.00264452 -0.00585370 0.00245161
C 5.37979034 11.46740452 26.61016838 -0.00709552 0.00443227 -0.00076527
C 2.24828408 16.24993782 4.71324242 0.00487974 0.00900114 0.00061438
C 4.30618128 4.63586662 12.78071844 -0.00434805 -0.00584371 -0.00080293
C 8.44580435 0.35230689 15.69726196 -0.00516835 0.00882938 0.00328196
C 1.20808947 9.76912037 25.96261647 0.00360949 -0.01608759 -0.01917083
C 1.15706146 13.98142287 24.50601197 0.00323424 0.00393115 -0.00563269
C 12.02452183 6.28496478 22.89994633 -0.00296041 -0.00345801 0.00010076
C 20.27260895 11.94929736 1.69696793 -0.00126744 0.00249744 0.00898638
C 6.23366507 8.42320426 13.52730111 -0.00508804 -0.00103971 0.00916702
C 11.60431526 19.27476412 23.79324746 -0.00345279 -0.00072623 -0.00408910
C 5.32227816 5.18276476 15.56812493 0.00060574 0.00286084 -0.00443894
C 8.46580944 0.17664964 14.36741359 -0.00438318 0.00709601 -0.00756672
C 2.45811009 9.28657196 25.54566820 -0.00286981 0.00458129 -0.00375064
C 2.52584648 13.94712411 24.52173613 -0.00145383 0.00289420 -0.00146093
C 12.61090753 5.57715118 21.84972056 0.00639187 0.00364917 0.00096978
C 21.00387760 12.10594230 0.53664754 0.00077874 -0.00518134 -0.00013935
C 6.47362961 8.50961927 12.22041318 0.00505417 0.00280948 -0.00269886
C 12.70494990 19.40932126 23.03366432 0.00413964 -0.00018902 0.00705481
C 5.27107549 5.47745343 16.85841350 0.00380285 0.00444088 -0.00116909
C 9.31535735 0.88719481 13.57010945 0.00188042 0.00900268 -0.00529548
C 3.04097217 8.20818726 26.23457101 -0.00446246 -0.00144012 0.00190617
C 3.28156501 14.94703227 23.95657593 0.00342889 0.00093194 -0.00402112
C 12.55909101 4.19368600 21.84235314 -0.01096800 0.00323704 0.00265763
C 20.98908493 13.37663000 0.00381608 -0.00484127 -0.00239200 0.00480116
C 7.35759873 9.52816246 11.80579892 -0.00551826 -0.00671687 0.00388093
C 13.66486067 20.34696694 23.47691031 0.00288064 0.00436273 -0.00278706
C 6.32149763 5.19189775 17.82254511 -0.00043486 -0.00900197 0.00051049
C 10.07568084 1.96666019 14.12070914 -0.00034328 0.00773680 -0.00524649
C 2.32320374 7.57823404 27.27966830 -0.00633581 -0.00077729 -0.00205807
C 2.57243513 16.03630461 23.31495373 0.00590812 -0.00121707 0.00099840
C 12.03635453 3.59341723 22.98879128 0.00073105 0.00255197 0.00631307
C 20.14046096 14.40922217 0.45236829 -0.00125090 -0.00370687 -0.00172315
C 8.25770459 10.18694257 12.74335821 0.00425347 -0.00351563 -0.00466868
C 13.34120981 21.24349949 24.41944301 -0.00175834 0.00434132 -0.00281212
C 7.36561094 4.47211709 17.31102768 0.01162833 0.00618962 -0.00828368
C 10.11239991 2.05498278 15.54056803 0.00671669 0.00390347 -0.00957810
C 1.08057041 7.97381522 27.58764418 0.00398562 0.01132943 0.00608920
C 1.22815495 16.08395236 23.29549981 -0.00426760 0.00572357 -0.00492871
C 11.68219146 4.32642634 24.09844081 0.00154551 -0.00151932 0.00936343
C 19.38093653 14.17062322 1.55566113 -0.00052613 -0.00425858 -0.00536749
C 8.13246139 9.82455321 14.09729435 -0.00159264 -0.00033944 0.00170020
C 12.06723255 21.35352534 24.91578841 -0.00152264 0.00477493 -0.00012894
C 7.42527904 4.08011061 16.00090017 0.00227399 -0.00418429 0.00155326
C 9.35334548 1.19607986 16.32695838 -0.00311183 0.00038952 -0.00841804
C 0.56706275 9.18696480 27.00560454 -0.01052417 0.00225661 -0.00066120
C 0.45811045 15.05174417 23.90606888 -0.00317838 0.00116717 -0.00015866
C 11.60697585 5.72680997 24.02689642 -0.00250414 -0.00645624 0.00003200
C 19.46173080 12.91490766 2.22260480 -0.00208974 0.00049064 0.00638179
C 7.15085119 8.90685948 14.49506600 0.00143126 -0.00220921 0.00457212
C 11.12760431 20.32383916 24.64182287 -0.00181404 -0.00160964 0.00238214
C 6.52050513 4.56362280 15.11478496 -0.00228525 0.00314679 0.00388094
C 10.31159423 1.53408211 18.58689218 -0.00216537 0.00102741 0.00249420
C 24.56088139 9.59781902 28.64096655 0.00258223 0.00844275 0.00711018
C 24.01980548 16.09687705 23.81229226 0.00600397 0.00106034 0.00709346
C 11.07378366 6.09305239 26.41485153 -0.00824540 0.00902833 -0.00081553
C 18.65082265 11.46819543 4.03350579 -0.00564764 -0.00586434 -0.00253492
C 7.55176014 8.92020911 16.83444855 -0.00403051 -0.00208876 0.00445313
C 9.45179421 21.22819052 26.05171724 -0.00527651 0.01022632 0.00852889
C 5.85092428 4.63868879 12.59365616 0.00600004 -0.00208752 -0.00399244
C 13.45923560 22.50635897 14.11666429 -0.00553400 -0.00306618 -0.00018903
C 23.04034686 9.97030445 28.68315593 0.00132221 0.00850799 -0.00612046
C 20.00621591 5.56958154 22.12447879 0.00162831 -0.00335133 -0.00114221
C 5.62972129 8.63874118 22.32705924 -0.00137977 -0.00627469 -0.00530167
C 3.73817288 0.79991781 13.75102420 0.00090776 0.00020039 0.00875357
C 6.83468559 8.64563026 18.15850201 -0.00202492 -0.00521641 -0.00136761