1920
Time=70000.00000007 pbc="T T T" Lattice="26.03615914 0.00000000 0.00000000 0.00000000 25.34679637 0.00000000 0.00000000 0.00000000 31.70320128" energy=-12205.63504285 virial="-67.44615669 32.72882235 -22.87084166 32.72882235 -4.48708378 -38.87852855 -22.87084166 -38.87852855 -69.17455567" stress="-0.00002087 0.00162768 -0.00111327 0.00162768 0.00288174 -0.00188048 -0.00111327 -0.00188048 0.00000749" Properties=species:S:1:pos:R:3:vel:R:3
O 4.94872983 19.90067980 14.75816111 -0.01134501 -0.00069382 0.00190675
O 4.51395990 24.09687161 11.48004455 -0.00280033 -0.00337059 -0.00104816
O 5.71178064 16.64812241 30.58985217 0.00053823 0.00968049 -0.00415948
O 25.64557742 14.07879298 19.32070037 0.01447227 -0.00540651 -0.00102787
O 1.51181393 7.25184420 13.20870409 0.00014698 0.00952135 0.00729813
O 3.38113554 9.67096978 2.55670053 0.00133455 -0.00506217 -0.00637790
O 10.06240839 15.98652745 16.25324885 -0.00268993 0.00150371 -0.00154527
O 25.20451317 2.88318963 8.22785399 -0.00785140 -0.00198594 -0.00230108
O 9.74560966 0.86852754 19.51869334 0.00063921 -0.00188937 -0.01027142
O 2.86748913 4.60183970 6.72271204 -0.00252695 0.00450695 0.00497379
O 24.84204796 13.64721629 31.36077515 0.00630759 0.00451459 0.00040750
O 10.34564337 4.09756535 25.56185207 -0.00193360 -0.00314938 -0.00188671
O 19.76557230 9.96345532 4.24422680 -0.00187888 0.00142022 -0.00322596
O 5.67135785 12.21670274 29.06898376 -0.00133715 -0.00705093 0.00583336
O 11.81408266 16.52191091 10.02236851 -0.00457546 0.00280233 -0.00301985
O 6.45504225 4.17386884 11.45753972 0.01045457 0.00724146 -0.01200003
O 8.96638400 1.42959491 12.01194411 -0.00009582 0.00314875 0.00277225
O 5.39627014 7.56181406 27.49789042 -0.00130949 -0.00201124 0.00142234
O 4.55184702 15.16500346 24.09659429 -0.00474773 -0.00079593 0.00661623
O 13.62046937 3.51156388 19.97455056 -0.00238929 0.00534157 0.00045812
O 22.35672571 13.44589439 31.18518537 0.00044958 -0.00379602 -0.00559425
O 7.89015990 8.93989102 10.25618315 0.00279368 0.00158131 0.00769043
O 14.84547839 19.88263390 23.16634982 0.00283712 0.00381233 0.00200032
O 5.08895012 6.40266285 18.71997990 -0.00245616 -0.00934322 0.00073178
O 7.51178352 24.43772782 11.01001362 -0.00366375 0.00736211 -0.00540999
O 24.27775560 8.49331080 26.86915646 0.00205249 -0.00315908 -0.00196925
O 22.88738912 15.87161731 24.23346108 -0.00124253 0.00474785 -0.01011399
O 4.26070986 10.82036295 22.10627039 -0.00183423 0.00071707 0.00221845
O 2.91176601 12.57156627 16.44761122 0.01003258 0.00096483 0.00143140
O 8.98473283 10.61787244 16.24784208 0.00063837 0.00279422 -0.00008540
O 10.27220892 22.36263855 26.78582060 0.00255453 0.00070911 0.00497143
O 25.88324610 4.18680064 2.12037791 0.00332579 -0.00698699 -0.00309996
O 17.55771518 18.48117431 8.56083125 0.00635077 -0.00349867 0.00204503
O 3.69594778 17.85955125 9.88006930 -0.00062551 -0.00072888 -0.00584639
O 6.28150721 22.69774164 3.56791454 -0.00017378 -0.00713687 -0.00630151
O 6.27003023 18.63003878 16.40425864 -0.00201569 -0.00182125 -0.00552276
O 5.83531294 0.41353703 21.66469544 0.00392098 0.00090307 0.00085111
O 4.21319427 2.26360782 3.31479788 0.00288304 -0.00068116 -0.00538151
O 9.14989018 17.10073209 3.99185756 -0.00859192 -0.00248163 0.00620541
O 23.64716188 25.27927230 25.55546361 0.00113750 0.00280661 -0.00435860
O 1.80736958 16.19581293 26.84360866 -0.00010577 0.00259490 0.00091734
O 0.84600859 12.37597910 10.96105918 0.00732924 0.00022564 -0.00193060
O 3.64050434 19.90462490 8.55783414 -0.00638184 0.00320847 0.00427483
O 24.95017481 23.86143874 28.70724084 0.00302097 0.00665554 0.00475962
O 6.17840046 2.30464395 1.58709836 -0.00142154 -0.00540469 0.00071072
O 1.38728384 22.63031561 5.93032841 -0.00106355 -0.00101917 -0.00318333
O 1.76666102 15.30587473 3.15050261 -0.00374957 -0.00291836 -0.00315444
O 23.74449427 18.73077708 19.63655744 -0.00546692 -0.00364828 0.00493186
O 22.32649887 15.54919723 29.58152386 0.00599276 -0.00331654 -0.00686227
O 25.43301087 18.85156507 2.16156328 -0.00799614 0.00645931 -0.00654347
O 20.38082272 0.82738517 28.66624776 -0.00117609 -0.00777868 -0.00006096
O 6.27047735 23.32902807 30.35223995 -0.00107245 -0.00159251 0.00240927
O 5.43791700 4.42638427 27.38893273 0.00511968 -0.00398375 -0.00736293
O 25.91365955 22.38232204 22.49469068 -0.00557813 -0.00072051 -0.00633368
O 5.66933854 11.76764428 24.31425220 0.00274560 -0.00150295 0.00182190
O 17.61033166 19.27941539 21.37965059 -0.00121954 -0.00493006 0.00593895
O 14.75000794 20.05285247 13.87674875 -0.01203646 -0.00269181 0.00138784
O 6.42239457 21.25182224 1.43207292 -0.00054000 0.00119453 -0.00541986
O 19.18654065 3.40264379 23.02753331 0.00006785 -0.00548207 -0.00087800
O 5.64787644 16.79997149 22.36202280 -0.00178710 -0.00149411 -0.00373697
O 3.75077327 2.25974404 15.99845153 0.00009926 -0.00670678 -0.00571887
O 6.17819485 23.52338939 22.94536507 -0.00041318 0.00129233 -0.00404420
O 8.86423792 17.65216697 21.02880688 -0.00424274 -0.00300823 -0.00651770
O 4.93092271 1.79103657 26.46694343 -0.00072239 -0.00368217 -0.00345172
O 2.28868887 4.50433292 2.94048797 -0.00601737 -0.00709466 -0.00724920
O 6.73247382 4.20708200 8.81445523 -0.00208212 0.00399932 0.00588345
O 16.77414107 11.99337183 26.95396903 -0.00086933 0.00181085 0.00274820
O 12.46282660 8.67236934 13.09263234 0.00717723 0.00500131 -0.00432331
O 9.86083625 5.95260052 7.50358443 -0.01090834 -0.00607745 0.00100065
O 15.32972247 8.78738685 7.24241802 -0.00737847 -0.00533213 0.00668650
O 19.87050832 3.24717964 9.46708994 0.00133539 0.00482783 -0.00620648
O 20.13068484 11.45663790 14.62583038 -0.00518914 0.00314450 -0.00090582
O 23.17685756 24.24008387 17.27187472 0.00363657 0.01177193 0.00584403
O 13.06856645 0.26593591 7.11863988 -0.00014879 0.00700996 0.00808783
O 19.88772149 8.30381020 31.05879554 -0.00405341 -0.00310122 -0.00050549
O 1.58154253 7.51913997 2.45410806 -0.00075134 0.00178650 -0.00404030
O 7.81932610 15.40209808 30.14421981 -0.00166965 0.00006444 -0.00783445
O 21.43876997 9.24472130 9.22503414 -0.00280228 0.00150204 -0.00325298
O 15.33169278 6.27744640 6.09596100 0.00486301 -0.00648008 -0.00491010
O 19.94112391 7.42611388 24.53707167 -0.00277719 -0.00095493 0.00370293
O 23.69710983 4.36358615 22.37204354 -0.00229002 -0.00192951 0.00641701
O 8.82931079 10.31210288 25.16561766 -0.00649400 0.00224822 0.00526387
O 10.10314300 12.96571587 16.74136531 -0.00218046 -0.00818534 0.00366567
O 22.48365377 7.90541279 30.95054306 0.00131349 0.00352652 -0.00236397
O 9.83826270 10.11604405 1.17529253 0.00285794 -0.00129763 0.00047078
O 20.34828261 6.27496990 13.60719497 0.00407822 0.00648680 0.00335395
O 14.26347987 5.66000108 18.75596277 0.00319635 0.00512504 0.00585844
O 18.68992378 4.73341176 30.14573564 -0.00244664 0.00243103 -0.00303124
O 5.29638821 7.77186783 30.23417763 -0.00377670 0.00446867 -0.00275081
O 7.55213407 6.47103483 19.78925247 0.00236660 0.00186340 0.00106001
O 10.77264252 13.17536419 22.82524855 0.00677939 0.00709373 0.00351779
O 17.42480794 9.99247875 16.66148489 -0.00740000 -0.00812439 0.00360003
O 8.45246444 10.84658678 3.50824774 -0.00818737 -0.00408370 0.00753649
O 16.27816018 4.44819828 17.99590065 -0.00287592 0.00547819 -0.00310897
O 12.02297664 6.18535500 12.92549250 -0.00261667 0.00595687 0.00330351
O 14.62343326 10.38520914 11.61660333 -0.00069546 -0.00619109 0.00096212
O 12.06113903 7.06103190 29.78156313 0.00473094 0.00094839 0.00225577
O 6.16386337 14.18325348 5.54616463 -0.00399897 0.00591208 0.00041327
O 14.12696672 3.01459099 2.65691583 -0.00125818 -0.00557858 0.01127311
O 25.82180488 18.06681114 14.22166470 0.00388697 0.00977805 0.00260084
O 11.99583455 22.51052594 9.66134058 -0.00526402 -0.00145307 -0.00026760
O 15.09196819 24.51749890 15.02918656 -0.00095496 0.00273263 0.01374076
O 8.77169933 12.60401062 11.56890007 -0.00467902 0.00769829 0.00204687
O 9.41398648 16.35130940 8.87609929 -0.00576066 -0.00164472 -0.00409570
O 12.53550942 8.72681235 20.33345342 0.00439231 0.00437109 0.00067175
O 5.70393478 8.92079836 8.86050391 -0.00378694 0.00433620 -0.00711414
O 12.11256797 4.95153765 8.44589862 -0.00720077 0.00688675 0.00125535
O 13.30627197 0.60963196 1.93103200 -0.00270915 -0.00661365 -0.00218526
O 8.39685147 1.21828436 28.85835634 0.00261753 -0.00108182 -0.00135427
O 19.78967530 4.16953490 11.81962468 0.00611931 0.00115166 0.00061845
O 13.92292646 12.60139883 7.98730581 0.00052846 0.00450726 -0.00023697
O 10.00618463 19.53226651 19.67771833 0.00968065 0.00018431 -0.00684821
O 14.50845543 10.85859627 25.91245156 0.00120285 0.00231131 0.00783892
O 10.93455594 11.66238771 24.92249702 -0.00451978 -0.00256912 0.00054232
O 16.86649926 23.47512243 5.29088892 0.00205440 -0.00029340 0.00046882
O 7.47404487 0.33180707 30.92878241 0.00903376 0.00173302 -0.00076908
O 10.86497672 0.08536175 21.67449896 0.00494366 -0.00460194 -0.00604615
O 17.13773664 15.88080595 19.65958854 -0.00491824 -0.00068620 0.00282931
O 7.56209697 16.71533061 15.49192852 0.00273110 -0.00183113 -0.00262938
O 17.29819439 20.87001203 17.70542612 -0.00289708 -0.00149831 0.00153954
O 12.43676454 10.24245642 3.39601854 -0.00441758 -0.00512803 0.00216524
O 13.22578678 11.26487339 30.79533645 0.00837519 -0.00087888 0.00172294
O 13.01417726 24.94393140 9.90048906 0.01059573 -0.00398306 0.00084368
O 22.98893492 14.20790122 18.59092634 -0.00112992 0.00777385 -0.00227682
O 9.39715402 21.98662863 15.51133068 -0.00642046 -0.00907995 -0.00409622
O 14.34452833 15.95660845 25.49317440 0.00142990 0.00152842 0.00193238
O 6.41035170 13.14361132 10.39528260 -0.00129129 -0.00431785 0.00782222
O 9.58484495 22.93760696 4.98235639 0.00193327 0.00377525 -0.00217158
O 19.88999869 20.94930631 30.01469589 0.00716956 0.00188909 0.00302103
O 24.61868475 5.41871033 17.72751587 -0.00485266 -0.00174697 -0.00679188
O 10.60383854 19.16720326 3.72402375 0.00027760 0.00696638 0.00901702
O 20.14543901 7.83910143 5.53927710 -0.00289621 -0.00357662 0.00589874
O 15.87372022 13.68323344 9.21389784 -0.00149582 -0.00003869 -0.00604131
O 25.04190098 11.63221160 1.19146798 0.00713332 -0.00257851 -0.00015064
O 20.71306540 1.14106661 8.27533611 -0.00537458 -0.00075834 -0.00211039
O 22.71526568 3.98329860 3.98944587 0.00334512 -0.00488996 -0.00092268
O 13.42949177 23.89899926 17.26049217 -0.00478007 0.00666781 0.00198120
O 25.57802613 11.30733058 16.01135600 0.00012235 -0.00587098 0.00306027
O 13.69419717 22.88037271 31.46296484 0.00777324 -0.00211364 0.00609019
O 19.02496768 15.17322257 30.33323959 0.00116713 0.00059273 -0.00077649
O 16.55564261 8.33913920 21.79515402 -0.00290278 -0.00153207 -0.00360113
O 0.40408081 9.59498303 6.98931752 0.00110356 0.00639202 0.00141553
O 25.70248867 21.32588462 10.59761987 -0.00054393 0.00318431 0.00995195
O 0.82657667 4.42416983 18.20569483 -0.00253735 0.00023546 -0.01143240
O 10.68860997 21.49128538 22.37389247 0.00200185 -0.00345760 0.00419880
O 13.94077833 18.48255919 26.19454224 0.00052380 -0.00110159 0.00516171
O 16.38383376 3.48458158 23.07361460 -0.00951162 0.00682164 -0.00168058
O 22.49516305 13.69599194 25.52079335 -0.00620919 -0.00374288 0.00249196
O 18.97628113 12.29147923 25.91135624 -0.00565321 -0.00183423 0.01173567
O 5.43579438 2.36054951 23.22950742 -0.00108525 0.00035859 0.00587824
O 22.15625581 19.50038388 29.06388946 -0.00264282 0.00020849 -0.00013171
O 26.01103912 8.92029467 22.67571545 0.00302895 0.00371936 -0.00268803
O 19.97475700 23.65342113 4.41962663 -0.00054617 0.00430598 0.00160374
O 9.26156235 18.22423814 0.46834535 0.00024109 0.00064424 0.00195820
O 13.44408858 8.33351369 28.00864790 -0.00205868 -0.00283069 -0.00468946
O 24.87966324 5.34987748 8.68276509 -0.00397996 0.00099497 -0.00249875
O 14.26853688 14.87984832 15.20387287 0.00656610 0.00386381 0.00556533
O 25.52808310 4.29345466 24.00635431 0.00116015 0.00832279 0.00432249
O 24.05206000 22.64645715 24.11771553 0.00093288 -0.00586732 0.01056856
O 22.40759211 0.75564848 30.16909787 0.00953376 0.00092024 -0.00022672
O 24.58491771 19.12329742 12.05097262 0.00735934 0.00007781 0.00230938
O 17.58281627 18.04276605 17.87066306 -0.00257925 0.00174127 -0.00741252
O 12.35590622 1.11854240 26.08395949 0.00203367 -0.00125590 0.00674196
O 25.09062560 20.80029232 19.20365984 0.00114061 0.00675258 -0.00149772
O 24.38809031 22.39982657 15.76572286 0.00089702 0.00740960 0.00226547
O 18.86791333 18.69167385 6.10453135 0.00138611 -0.00180335 -0.00221280
O 10.62897139 15.61796932 30.77911051 -0.00029073 0.00220277 0.00130250
O 16.97215664 20.80324528 4.69663453 -0.00521750 0.00097533 -0.00142990
O 25.95486820 5.51145324 14.10886906 -0.00324630 -0.00668249 0.00154575
O 20.57382344 13.86897728 13.96445548 -0.00451501 -0.00339357 -0.00739096
O 16.16299209 4.12794495 30.00521028 0.00088557 -0.00685488 -0.00341283
O 25.49045845 15.31500407 4.38876554 0.00307722 -0.00030582 0.00757240
O 17.30714293 20.31716778 23.88468762 -0.00255256 0.00371637 0.00719067
O 25.20300599 17.70970522 4.54326269 0.00658243 -0.00244255 -0.00112192
O 12.51403730 17.82494117 4.76185233 0.00307400 0.00085529 0.00454038
O 23.55125158 9.36970126 21.50954744 0.00332198 0.00247824 0.00146882
O 21.14625132 6.78367245 10.16516715 0.00528219 -0.00025473 0.00316805
O 18.45221421 3.28257156 2.92849257 -0.00409103 0.01146134 0.00073354
O 19.96754480 22.21964707 14.90286809 -0.00169058 -0.00268361 -0.00226427
O 24.36573504 12.05316366 9.69699837 -0.00600314 -0.01589688 -0.00084788
O 21.73965737 24.74964531 23.40655465 -0.00563934 0.00421504 -0.00301130
O 3.13985317 14.75042216 14.99055663 -0.00022586 0.00567379 -0.00111497
O 17.72415240 23.35857871 18.03659179 0.00001547 0.00025419 0.00270883
O 19.54782685 8.71005308 16.84683948 0.00158310 -0.00299011 -0.00798398
O 19.30243225 16.64036525 9.13415602 0.00324103 -0.00173124 0.01500060
O 15.99907202 24.02152591 30.93343671 -0.00569970 -0.00924469 -0.00138693
O 21.50078312 24.54468301 20.90368446 -0.00281555 0.00371791 0.00029214
O 3.36340425 23.90803659 13.92528434 -0.00133321 0.00024329 0.00221891
O 19.47269290 23.28850211 12.73737712 0.00235554 -0.00249443 -0.00521461
O 2.03312425 17.79314401 20.48998236 0.00253123 -0.00878328 0.00003144
O 13.97002002 0.14028212 24.24964797 0.00560316 0.00059040 -0.00385213
O 17.86686601 17.11796122 31.30507051 -0.00240851 -0.00689901 -0.00497738
N 14.43811147 21.52036236 12.02088952 0.00949453 -0.00296385 0.00246511
N 2.64412719 2.80814741 8.12959588 -0.00130549 0.00306375 0.00090376
N 4.26011619 22.16661934 8.79492119 0.00866436 -0.00199516 0.00228134
N 2.63140821 9.64930095 20.94501989 -0.00129591 0.00966069 0.00256302
N 4.64994597 0.17841096 16.30996386 -0.01040922 0.00158594 0.00135019
N 3.71337414 11.00026215 28.84866600 0.00102479 0.00232467 0.00351061
N 4.02323270 15.34143806 2.91275007 -0.01003136 0.00087014 0.00904309
N 25.72440215 1.99725458 2.82901568 0.00638463 -0.00048877 0.00329895
N 1.17942601 17.77254448 28.34778674 0.00248135 0.00665186 -0.00527520
N 0.20618016 9.20668600 26.06790196 -0.00449560 -0.00053013 0.00470684
N 21.15970618 3.71090073 24.07230101 0.00287502 0.00812883 0.00022883
N 11.09731703 5.88605996 24.37146825 -0.00808987 -0.00450045 -0.00026189
N 7.83587128 3.40693678 0.50977088 -0.00169627 0.00016744 0.00938573
N 7.48133398 9.02697907 15.71295746 0.00608246 -0.00411146 -0.00104001
N 8.86512660 15.81514935 22.33453380 -0.00311925 -0.00286307 -0.00194815
N 6.21434625 4.24975809 13.70932597 -0.00336284 0.01091578 0.00402530
N 7.85689425 22.18086489 10.55068074 -0.00300996 -0.00326641 -0.00129795
N 1.10880894 14.02380049 12.54135100 -0.00289010 -0.00000786 -0.00001236
N 0.36433687 15.17319864 31.09917316 -0.00180350 -0.00548391 0.00186985
N 5.98110788 19.03133515 21.94798710 -0.00046012 0.00858286 -0.00200794
N 3.74187544 10.59993350 17.16371043 0.00245226 0.00392973 0.00831743
N 1.48800060 22.80728912 3.63458099 0.00269416 0.00023969 -0.00928199
N 13.15567189 17.27975166 11.84983162 0.01051243 -0.00023397 -0.00054749
N 2.73233786 1.59436596 26.23849311 0.00653377 -0.00293184 -0.00111458
N 8.86753566 1.37656070 17.55191783 -0.00696836 -0.00368626 0.00685273
N 4.41798023 20.69739323 0.56422428 -0.00213787 0.00012073 -0.00482809
N 24.92002544 14.95538250 24.27867243 0.01016271 0.00156319 0.00454623
N 1.06962189 23.15054753 28.65388407 0.00159940 -0.01101154 -0.00575608
N 18.87524109 11.83534258 3.36634017 0.00084182 -0.00425485 0.00052131
N 5.18061046 21.96063750 24.30948157 0.00382218 -0.00606858 0.00091486
N 9.94956055 20.22022928 25.73887791 -0.00072020 0.00415970 -0.00653036
N 22.89953674 17.43590786 21.30876048 -0.00116788 0.00874758 -0.00505243
N 12.02964877 8.09851239 3.66653605 0.00332739 -0.00330177 -0.00784056
N 11.63400336 1.64544326 8.03024212 0.00055753 0.00137737 0.00169642
N 14.03362868 3.77348545 8.23621574 0.00131737 -0.00040390 0.00005464
N 15.69451178 11.60059780 16.26535176 -0.00633713 0.00104762 0.00256743
N 9.03266829 20.44624432 13.85110781 0.00868726 -0.00064649 -0.00045099
N 19.73936871 10.70336626 9.96461287 -0.00174063 0.00082646 0.00747188
N 12.25730591 14.02238822 7.39809033 0.00178645 0.00549630 0.00291464
N 16.28331350 8.83811731 11.57118813 -0.00302465 -0.00704454 -0.00039202
N 13.75250129 10.57874643 20.44505574 -0.00609880 0.00124928 0.00385747
N 7.97154591 5.79439793 21.95440197 0.00556694 -0.00246470 0.00322651
N 15.12525565 0.38034563 10.03084300 0.00909696 0.00739688 -0.00163215
N 25.69302335 7.37997914 3.65917949 0.00469761 -0.01188682 -0.00572957
N 8.32989623 1.19585706 26.56191940 0.00170814 -0.00808421 0.00368044
N 18.59252183 4.37613946 18.41819364 -0.00007745 -0.00156133 -0.00151443
N 5.35190038 12.83390796 12.43054734 0.00605431 -0.00312284 0.00061726
N 21.16938828 7.70894837 26.35406999 -0.00858319 -0.00378659 -0.00122944
N 6.36866085 7.26567611 0.52372281 -0.00140359 0.00073382 0.00294855
N 5.83850182 8.63794100 6.66268936 -0.00074029 -0.00479658 0.01337632
N 17.90450309 9.16162683 0.01173520 -0.00563992 0.00108610 -0.00002762
N 22.14025116 16.23236483 17.85443514 0.00589776 0.00365011 -0.00695304
N 8.97993369 11.16802796 5.71707960 0.00223992 0.00053757 0.00915588
N 18.99706545 2.39382743 12.83032961 -0.00186270 0.00175895 -0.00005486
N 17.08644482 5.18597416 5.07827141 0.00208461 0.00493678 0.00272010
N 8.96217447 21.08182856 5.98158894 -0.00152954 0.00354587 -0.00649522
N 23.64454010 0.08333254 19.06750188 -0.00001360 -0.00193299 0.00062184
N 11.86155575 12.92236818 30.24291249 0.00132553 0.00386146 0.00325170
N 12.50108105 14.11711107 21.62499267 0.00029379 -0.00109791 0.00619829
N 11.57559033 24.76087172 2.99353032 -0.00122180 -0.00204992 0.00361249
N 8.25716646 13.60497259 28.82878538 -0.00445235 -0.01050300 -0.00419738
N 16.58742939 15.34131387 25.25610504 0.00410211 -0.00183564 -0.00209761
N 10.56261808 6.66319071 14.70367004 0.00444243 -0.00600811 -0.00459826
N 11.86975978 20.33020849 18.79366346 -0.00472353 -0.00211202 -0.00589455
N 21.40901477 15.84146131 8.69534340 0.00331270 0.00418873 -0.01370973
N 23.64581191 10.15370834 15.35866846 0.00316897 -0.00307166 -0.00158910
N 13.97505952 3.90973521 30.66777979 0.00191880 -0.00469286 -0.00118685
N 24.83047769 7.57613707 8.44134550 -0.00004423 -0.00000542 -0.00557868
N 21.03677175 22.34978468 11.44373652 0.00256932 -0.00689511 0.00663011
N 1.64908670 11.24127547 6.04398003 -0.00017861 0.00364378 -0.00135825
N 14.03991586 17.20198754 3.15006931 0.00818962 -0.00034500 0.00039622
N 22.75299851 25.01019187 0.49428940 -0.00310319 -0.00919364 -0.00251380
N 24.63043129 3.79439020 13.43341795 -0.00049938 -0.00099319 0.00147661
N 10.91888112 18.95419146 30.81016619 0.00913043 0.00278111 -0.00302284
N 20.47845548 0.32854039 19.16511856 0.01045114 0.00370521 -0.00207668
N 19.10725232 12.94338655 29.86175948 -0.00749664 0.00513358 -0.00333690
N 18.78844170 20.71125069 25.58546220 0.00002524 0.00344617 -0.00345240
N 1.10600758 5.03351948 25.49924937 0.01205217 -0.00756406 -0.00412368
N 14.78714228 0.28303786 22.13749057 -0.00246716 0.00020173 -0.00614696
N 2.05518576 4.31534861 20.17026848 -0.00309278 0.00055237 0.00376133
N 21.01913791 21.71345366 3.73691613 -0.00335214 -0.00103437 -0.00577246
N 21.46456960 16.00100922 14.31805310 0.00282931 -0.00290270 -0.00423319
N 11.49163120 23.16544311 31.67657785 0.00172481 0.00061049 -0.00168613
N 2.61916782 22.50615734 15.34815624 0.00299247 -0.00590720 -0.00516960
N 16.11239685 15.88385222 14.29462620 -0.00067017 0.00367269 0.00444029
N 24.38438079 18.12415806 6.59757147 0.00313990 -0.00580819 0.00287383
N 24.59992373 23.20308762 10.34717739 -0.00244514 -0.00425331 -0.00017171
N 16.61186631 18.97152812 31.04702497 0.00520623 -0.01091110 0.00103205
N 11.11562389 23.79359719 17.39149267 -0.00019896 0.00309294 -0.01009723
N 17.55983843 0.27508894 30.17712687 0.00469686 -0.00327043 -0.00255476
N 14.86227858 7.72725667 26.36936825 -0.00347056 0.00700268 -0.00196903
N 23.64945790 13.91959615 4.67188697 -0.00090153 0.00420018 -0.00244576
N 18.49708369 9.42266737 21.35616647 -0.00051373 -0.00015941 0.01031073
N 3.23434458 18.82530541 18.78912922 -0.00481063 -0.00501378 -0.00071004
N 22.51713797 20.90242664 23.86197320 -0.00158952 -0.00200611 0.00399083
N 23.00283221 11.26465373 20.35902430 0.00571224 -0.00148472 0.00222056
C 6.62197256 22.38277656 12.70438551 -0.00175939 -0.00435713 -0.00358972
C 4.27004974 2.04996981 9.81633970 -0.00227350 0.00134411 0.00477968
C 2.81558260 14.61483534 30.86150880 0.00346723 -0.00767769 -0.00025667
C 2.01565381 12.06020705 21.20665169 -0.00084614 0.00390023 0.00409025
C 2.68529928 10.31049892 14.90844748 -0.00609743 -0.00040136 -0.00291665
C 4.74024479 10.64882703 31.05121684 0.00507016 -0.00230810 -0.00003918
C 12.59499175 17.70180360 14.06473432 0.00498595 0.00172431 -0.00654651
C 25.42464419 1.26275179 5.06062589 0.00736675 0.01061021 -0.00177031
C 6.05544923 21.76036873 13.80968625 -0.00519495 0.00154452 0.00004969
C 4.77492809 0.91192320 10.54181599 0.00021763 -0.00056208 0.00023907
C 4.11888239 14.95281718 30.58757325 -0.00519075 0.00386586 -0.00467389
C 1.22481293 13.11139093 20.80605423 0.00572185 0.00176952 0.00160905
C 2.11482243 9.52608330 13.96223435 -0.01009097 0.00163858 0.00345469
C 4.70291638 10.28903397 0.66091600 0.00071677 0.00196386 -0.01078814
C 11.79305817 17.40957807 15.17616837 0.01280295 0.00251146 -0.00257196
C 25.45082643 1.40174225 6.45527230 0.00428664 0.00152190 -0.00121521
C 5.62288590 20.45014360 13.71084796 0.00376538 -0.01208668 -0.00156633
C 4.06422644 25.14949580 10.71374144 -0.00684172 -0.00282513 -0.01304999
C 4.46659925 16.41631376 30.72228371 0.00478571 0.00746869 -0.00504800
C 0.17536810 13.01298017 19.84864811 0.00015321 -0.00696679 -0.00098440
C 2.03963212 8.12784085 14.08069157 -0.00314700 -0.00882098 0.00919156
C 3.47186696 9.94574496 1.20841760 0.00047116 -0.00332847 0.00509130
C 10.85083640 16.36733705 15.12377710 -0.00180969 -0.00020761 0.00049814
C 25.40678379 2.68355832 6.97085624 -0.00436860 -0.00189887 0.00132453
C 5.97555571 19.74655569 12.55367120 0.01391165 0.00908719 0.00285001
C 2.70845062 25.09125544 10.17008004 -0.00221508 0.00532790 -0.00685601
C 3.40538883 17.36909998 30.94821674 0.01119759 0.00051029 -0.00469768
C 25.90111895 11.66751225 19.49956721 0.00945484 0.01105443 -0.00002536
C 2.29463877 7.64386165 15.40640135 -0.00252458 -0.00461439 -0.00860967
C 2.40507461 9.74792339 0.35186957 0.00166946 0.00092190 0.01262266
C 10.59213592 15.67784779 13.88599645 -0.00343966 0.00037996 0.00122135
C 25.79052573 3.78464464 6.07495650 -0.00496057 -0.00155578 -0.00330427
C 6.79808287 20.27054816 11.57316411 0.00052894 0.00748271 0.00399764
C 2.29633137 0.68544831 9.25711279 0.00521313 0.00021787 -0.00121831
C 2.05726863 16.86153177 31.29238089 -0.00641807 -0.00736012 0.00222240
C 0.64144154 10.56515855 19.89995246 0.00347059 -0.00131066 -0.00654556
C 2.86159896 8.43514894 16.35133490 0.00039375 -0.00087532 -0.01417035
C 2.47749416 9.96585816 30.62152490 0.00469684 0.00195212 -0.00335720
C 11.35207850 15.92053698 12.79524584 -0.00185313 -0.00044604 -0.00099902
C 25.85058296 3.55489102 4.69109398 0.00455469 -0.01052944 0.00106276
C 7.13969847 21.66967406 11.60475540 0.00760316 -0.00114386 0.00960632
C 3.13674488 1.80471943 8.99765776 -0.00299656 -0.00014386 0.00406809
C 1.74034645 15.52094488 31.10490086 -0.00055273 0.00037103 0.00775876
C 1.80234693 10.77275176 20.65093124 0.00217171 -0.00295006 0.00237507
C 3.06553127 9.82421261 16.12999569 -0.00174947 0.00461392 -0.00150646
C 3.62830981 10.51446233 30.18368803 -0.00135082 -0.00083383 0.00540820
C 12.32658834 16.95153033 12.93328094 0.00282694 0.00384375 0.00347960
C 25.63289515 2.29018596 4.17901628 0.00102027 0.00832924 -0.01008213
C 7.90811007 23.51472880 10.28286644 0.00359949 -0.00525854 0.00232752
C 3.33083213 3.59059025 7.25245539 0.00498192 -0.00061587 -0.00387981
C 25.89573271 13.95725652 30.82124906 0.00155091 0.00573647 0.00454210
C 3.88304354 9.72707353 21.60305331 -0.00139001 -0.00263932 -0.00378183
C 3.60820544 11.90138853 17.22948670 0.00004828 0.00328039 0.00692693
C 4.66118526 11.92723544 28.47786429 0.00122664 -0.00147845 -0.00303930
C 12.80848296 17.04265950 10.53030047 -0.00107989 0.00466167 -0.00282813
C 25.90418096 2.95418970 1.92326315 -0.00527014 -0.00405177 -0.00308258
C 3.42639142 17.86667534 27.24784291 -0.00422077 -0.01143331 -0.00047283
C 4.68858348 2.99173062 6.85588753 -0.00621853 -0.00429648 -0.00111811
C 2.96851456 21.07567482 10.53178515 0.00418697 0.00427675 -0.01043084
C 10.75626537 6.07919703 26.78776981 0.00726971 -0.01111901 -0.00134915
C 7.77499259 3.43888988 2.87721386 -0.00691069 -0.00310624 -0.00387643
C 4.37575838 12.59186081 27.16733993 -0.00842683 -0.00119354 0.00024328
C 3.29775810 15.35397133 5.21034975 0.00316168 -0.00451698 0.00223102
C 4.38955460 4.96198862 12.04951425 0.00459668 -0.00329495 0.00312890
C 8.24972268 0.41087272 15.38135981 -0.00040962 0.00259187 0.00022322
C 2.64447904 9.45788108 25.81577236 -0.01130806 0.00146654 0.00183727
C 1.08705089 13.95302188 24.52993934 -0.00119156 0.00124302 -0.00317783
C 12.08703757 6.03664768 22.20414556 -0.00619689 -0.00767059 0.00903076
C 20.79576145 11.36270897 2.04683039 0.00268436 0.00473347 0.00312391
C 6.52469652 8.71367738 13.67220202 0.00214592 -0.00142811 -0.00435671
C 11.30457092 19.21174182 24.07142526 0.00272657 0.00707157 0.00167940
C 4.51996840 5.13913157 15.27992986 -0.00082356 -0.00493304 -0.00213571
C 8.22852537 0.36341629 14.01214108 0.00572768 -0.00455832 0.00055347
C 3.84794191 8.92395126 26.14434532 -0.00013635 0.00024681 0.00383556
C 2.45159527 13.97299044 24.39300486 0.00365077 -0.00093917 -0.00937247
C 12.80685693 5.50069105 21.14571192 -0.01008973 0.01257939 0.00296036
C 21.62896672 11.82221834 1.04632195 -0.00747620 -0.00011614 -0.00418575
C 6.59387691 8.70362268 12.30196772 0.00130246 -0.00944851 0.00469981
C 12.51700766 19.18275377 23.39653246 0.00147851 0.00334839 -0.00185349
C 4.19627412 5.49622074 16.58239969 0.00531543 -0.00025279 -0.00277686
C 8.86212787 1.42413147 13.36573916 0.00264488 0.00520466 -0.00203876
C 4.12974851 8.05918910 27.23018600 -0.00440580 -0.01414386 -0.00874313
C 3.10807088 15.07928577 24.04245978 -0.00330679 -0.00022967 -0.00010928
C 13.02511407 4.01583582 21.07389677 -0.00386279 -0.00193681 0.00232183
C 21.52745556 13.11614309 0.47290271 -0.00245799 0.00175390 0.00014863
C 7.81439190 9.08516481 11.60024624 0.00195376 0.00058603 0.00176212
C 13.61683218 20.04358828 23.78928384 -0.00091341 -0.00140211 0.00290427
C 5.22285311 5.87900850 17.51582346 0.00089742 -0.00969332 -0.00091669
C 9.75494693 2.30478965 14.04371675 -0.00137344 0.00656716 0.00095671
C 3.05100884 7.73061632 28.04234360 -0.00104308 0.00460273 0.00391866
C 2.29631434 16.23938475 23.62405588 0.00965861 0.00457907 0.00651642
C 12.62039887 3.21789448 22.14072965 0.00722718 -0.00317613 -0.01184659
C 20.48863682 14.05184537 1.01596901 -0.00320584 0.00061046 -0.00063645
C 8.89335221 9.50847778 12.38928651 0.00140178 0.00487614 -0.00244585
C 13.46869867 20.96691840 24.78101530 -0.00167442 -0.01085864 0.00362768
C 6.51372369 5.45135470 17.10537716 0.00597016 0.00025431 0.00522624
C 9.67950590 2.30855748 15.41333080 0.00636976 0.00503055 -0.00754334
C 1.79628144 8.27281331 27.77346167 -0.00770607 0.00115735 -0.01583191
C 0.90914195 16.20722668 23.75118004 0.00479283 0.00165367 0.00468556
C 11.92687701 3.77742708 23.20199488 -0.00704674 0.00164359 -0.00513625
C 19.68919828 13.58185216 1.99591561 -0.00131258 -0.00355387 0.00559898
C 8.77234332 9.76142429 13.72498236 0.00118167 0.00294324 -0.00079027
C 12.22979021 21.07237271 25.44509093 0.00561610 0.00393041 0.00305775
C 6.78926575 4.89914027 15.86562423 -0.00297922 -0.00635129 0.00197251
C 8.98657970 1.42198773 16.13798589 0.00262584 -0.00471062 0.00284164
C 1.49560189 9.05473408 26.60659355 -0.00343161 -0.00278465 -0.00498819
C 0.30892547 15.03640881 24.21309444 -0.00982514 -0.00293925 0.00457759
C 11.67973128 5.18914162 23.29331828 -0.00796289 0.01190569 -0.00272853
C 19.82036193 12.26068454 2.44195888 0.00225210 -0.00499582 -0.00110747
C 7.61546401 9.20114409 14.38890980 -0.00080684 0.00574680 0.00361540
C 11.12857236 20.16063835 25.08486833 0.00112966 0.01091572 0.00281351
C 5.76513579 4.68586271 14.90159205 0.00387700 0.00470449 0.00553033
C 9.92009158 1.43435462 18.44569686 0.01363418 -0.00886198 0.00334029
C 25.25522856 9.18019235 27.04737691 -0.00033730 0.00435711 -0.00069690
C 24.11709279 16.03342409 24.45811384 -0.00085246 0.00731527 -0.00769170
C 10.77639649 5.22234982 25.56303679 0.00784506 0.01051871 -0.00088492
C 18.78499047 10.67280135 4.06291130 -0.00214329 -0.00009925 -0.00501179
C 8.17612355 9.82063944 16.57702329 -0.00207377 -0.00257447 -0.00240681
C 9.72340294 21.29921506 26.63344777 0.01079045 -0.00273251 -0.00112745
C 5.75037395 4.49809062 12.39968483 -0.00116520 0.00201118 0.00036624
C 13.55156338 21.97951641 14.24198806 -0.00048618 -0.00332182 -0.01563844
C 25.31736397 10.01063721 28.30835348 -0.00172387 0.00909629 -0.00757664
C 20.56443871 5.27706082 22.40043438 0.00346358 0.00554171 0.00760082
C 4.71200655 8.53283254 21.56611983 -0.00678714 -0.00279660 -0.00193247
C 4.83234999 1.26689709 14.15132910 -0.00119885 -0.00212100 -0.00953146