1920
Time=86000.00000007 pbc="T T T" Lattice="25.69382460 0.00000000 0.00000000 0.00000000 25.97814176 0.00000000 0.00000000 0.00000000 31.71396583" energy=-12208.21564186 virial="-86.62445539 -32.93650107 11.23891793 -32.93650107 -90.52244664 -0.34214292 11.23891793 -0.34214292 8.68884505" stress="-0.00112011 -0.00165882 0.00044696 -0.00165882 -0.00112746 0.00011849 0.00044696 0.00011849 0.00349790" Properties=species:S:1:pos:R:3:vel:R:3
O 4.87151517 20.82189036 14.76445850 -0.01157473 -0.00337727 -0.00733805
O 4.41104307 24.86886817 11.25369643 -0.00809242 -0.00405156 -0.00419146
O 5.77444199 16.71124112 30.66413626 0.00457905 -0.00498369 -0.00107076
O 24.16639475 13.23683404 19.11639070 0.00563565 0.00271382 0.00808095
O 1.26521209 7.56048767 12.72272005 0.00280412 0.00246575 -0.00190245
O 3.61340257 9.82378421 2.47285501 -0.00611944 0.00330500 -0.00427051
O 9.82133432 16.67951330 15.91848302 -0.00185951 0.00007946 0.00071805
O 24.68136533 3.83495458 8.48098564 0.00475139 -0.00189151 -0.00858253
O 10.69333929 3.20474760 19.85536439 0.00702401 -0.00059832 -0.01084945
O 2.91218234 4.47623104 6.68554255 0.00232437 0.00270998 -0.00438896
O 24.58204211 13.67225324 29.75633964 0.00404128 -0.00273079 -0.00472223
O 11.61548926 5.30055343 27.23252847 -0.00081057 -0.00077797 0.00089164
O 19.23215629 10.58704388 3.15333890 -0.00471743 -0.00014452 0.00498784
O 6.33459815 10.80446101 28.48522193 -0.00984915 0.00531795 0.00382424
O 11.23408671 17.32911436 10.12424160 0.00480300 0.00740649 0.00095673
O 6.82880510 3.95954616 12.59984783 0.00049664 -0.00527412 0.00158729
O 8.72786269 1.30068918 12.72652078 0.00030781 -0.00002434 0.00501164
O 4.57424125 6.73162594 28.18964077 0.00085162 -0.00594040 -0.00703699
O 4.56069001 15.89961616 23.63096527 -0.00388224 0.00814913 0.00869426
O 12.55527981 3.12261855 21.65309704 -0.00787615 -0.00091304 0.00133659
O 22.56586025 12.30660138 29.67832785 -0.00808644 -0.00146210 0.00026931
O 7.72779414 9.96020325 10.33900601 0.00020001 0.00381676 -0.00553809
O 15.39718319 22.90985139 24.66454371 -0.00374059 0.00496247 -0.00555719
O 5.42561652 5.83331470 20.01569284 0.00586825 -0.00202015 -0.00542446
O 8.02059511 24.92640266 11.34446814 0.00550311 -0.00460524 -0.00100801
O 23.03428021 9.30973202 26.66285774 -0.00626923 0.00231011 -0.00136090
O 22.62224960 15.33723664 23.80274788 -0.00262545 0.00196301 0.00223945
O 3.80043398 11.81332846 22.18795023 -0.00933647 0.00065206 -0.00388455
O 3.04266213 12.66929768 15.97787158 -0.00545969 -0.00014838 -0.00421144
O 8.78887821 10.82544300 16.49463570 0.00409879 -0.00053172 0.00277904
O 9.32660454 22.86721917 25.77269079 -0.00045665 -0.00202489 -0.00041992
O 25.01368468 4.03933192 2.21445127 0.00249877 0.00655251 0.00748166
O 17.42154977 18.87903462 8.74679404 -0.00024390 -0.00926221 0.00369553
O 4.57795576 19.20764951 8.36197467 0.00093545 -0.00334935 -0.00399553
O 6.28507748 24.10247327 3.01120096 -0.00276205 -0.00000018 0.00753358
O 5.91990420 19.25925131 16.31263928 0.00413873 -0.00856263 0.00402901
O 5.21686965 25.86818132 21.40022474 0.00268156 -0.00005467 0.00393993
O 4.30069658 3.07297348 2.43966226 -0.00122371 0.00074265 -0.00972317
O 8.24428235 18.21960627 4.97358926 -0.00171637 -0.00077403 -0.00619312
O 23.23585902 25.54496100 25.95276803 -0.01035501 -0.00223131 0.00652250
O 1.97214634 15.63347719 26.13858243 0.00615277 0.00446286 -0.00034938
O 0.32926674 15.21297397 10.49669501 -0.00204648 0.00543942 -0.00491078
O 3.01197391 21.02538368 7.53703637 0.00171363 -0.00509510 -0.00074918
O 24.52611208 23.98447045 28.40732317 0.00297356 -0.00049368 0.00933654
O 6.62377844 2.91541344 1.15716149 -0.00874306 -0.00230884 0.00254367
O 1.29533402 24.44628083 5.73023460 -0.00111304 -0.00174396 0.00241640
O 1.30707884 15.84896148 2.57697678 -0.00096206 -0.00198561 0.00574495
O 23.29333322 19.96121890 19.82290670 0.00807043 -0.00156251 -0.00100522
O 22.14289531 16.34304956 29.32121429 -0.00369178 0.00697816 0.00548273
O 24.84347492 19.87645957 2.95464404 0.00390103 -0.00478211 0.00501075
O 20.42941408 1.24661490 28.61338960 -0.00036849 0.00385836 0.00663937
O 5.83317769 22.57367516 30.22618729 0.00185328 0.00032354 -0.00202435
O 6.45722459 3.80563736 26.82858085 0.00258203 0.00232323 -0.00880704
O 25.63334559 20.40526337 24.31549581 -0.00042584 -0.00028106 0.00447001
O 6.16020358 12.00801905 23.30098760 -0.00064812 -0.00037734 -0.00116044
O 17.71694136 18.97564965 22.71504624 0.00385003 -0.00337856 -0.00453967
O 15.66218004 21.78825526 14.22541456 -0.00325182 0.00530098 0.00031416
O 5.94917726 22.33940982 1.02370772 0.00382313 0.00329652 -0.00486151
O 18.68229296 3.48619745 22.81156934 -0.00236111 0.00624907 -0.00148473
O 4.99560147 18.24062870 22.55803938 0.00735007 0.00140044 -0.00126515
O 4.43714586 2.55300752 15.50339507 -0.00586945 -0.00260793 -0.00804804
O 5.14397033 23.38888818 22.26358838 -0.00127927 -0.00532209 -0.00157469
O 8.83977595 18.68835305 20.74289612 -0.00334356 0.00391765 0.01198035
O 5.03738956 1.75622317 26.17001205 -0.00323451 0.00695089 0.00010454
O 3.10804579 4.75518650 4.20764644 0.00240214 0.00193175 0.00556504
O 7.36544079 5.02338361 10.21629999 -0.00117180 -0.00119834 -0.00126267
O 16.94021609 11.99867357 27.88583916 -0.00488151 0.00872855 -0.00365661
O 12.31927896 9.86327838 13.02622682 -0.00022395 0.00300805 0.00065800
O 9.91980531 7.08032327 7.92932280 -0.00337830 -0.00184601 -0.00574325
O 16.33403166 9.87246072 7.53731391 0.00282110 -0.00255347 0.00169587
O 20.13335725 3.20651941 8.88394434 -0.00278412 -0.00667343 0.00242977
O 20.54674912 11.74311564 14.66896051 0.00214275 -0.00330230 0.00490993
O 23.04152087 24.14601628 17.22465515 0.00041417 -0.00159114 0.00641570
O 12.29342585 1.40465743 5.81394669 0.00130321 0.00120512 -0.00097420
O 19.71138868 7.77693797 31.51530485 -0.00115197 -0.00324153 0.00276603
O 1.88111440 7.90717136 3.08753446 -0.00944345 -0.00195991 0.00320055
O 7.99664914 15.48881179 30.60262681 0.00538332 -0.00148823 -0.00633473
O 22.18556405 9.62443089 10.27757029 -0.00642383 -0.00055658 -0.00226547
O 15.83193197 7.33587060 6.79644743 -0.00092303 -0.00387081 -0.00084628
O 18.90825790 6.90286368 25.22208779 0.00614326 0.00225987 -0.00097065
O 23.13472408 4.01259533 22.08331135 0.00611135 -0.00171386 -0.00026118
O 7.83196752 10.70129683 26.34839831 -0.00527693 -0.00741290 0.00173365
O 9.58620976 13.18715580 17.10213708 -0.00448156 0.00425988 0.00222714
O 22.37131125 7.91638112 30.99735835 0.00253285 0.00619510 0.00965661
O 10.69319107 10.37725217 1.12754846 -0.00143196 -0.00165869 0.00225250
O 20.11863384 6.08274139 13.13806019 -0.00102071 -0.00479872 -0.00384092
O 13.57468948 5.29576346 18.17089236 -0.00237302 -0.00324847 0.00610562
O 18.54363643 3.98181096 30.74922793 -0.00636132 -0.00338389 -0.00075033
O 5.17728527 7.33282842 30.53422108 0.00007308 0.00672698 0.00039777
O 7.31338288 6.33243188 21.74811011 0.00459396 -0.00018768 0.00392533
O 11.15016426 12.86292936 23.18703939 0.00012250 -0.00210205 -0.00261308
O 17.79546968 10.47169840 16.11917487 0.00565464 -0.00397872 -0.00411272
O 9.67462012 11.28320488 3.54762005 0.00144062 0.00009745 0.00143275
O 16.04682170 4.50200307 17.68181539 -0.00619799 -0.00358792 -0.00357796
O 12.06327940 7.37810230 12.23770310 0.00713409 0.00037421 0.00607953
O 15.10959452 11.79880335 11.25029918 -0.00473258 -0.00191924 -0.00001689
O 12.47280131 6.41946209 30.48125474 -0.00274361 0.00823052 -0.00470635
O 6.14970637 14.39265594 5.33677141 -0.00041899 -0.01290361 0.00400118
O 14.39667228 1.95577535 2.60089171 -0.01084371 -0.00402374 -0.00249334
O 24.56012661 19.70696651 14.42188290 -0.00287641 -0.00019158 -0.00056926
O 11.95769226 23.08367470 9.09857632 0.00727352 -0.00657915 0.00642865
O 15.63830411 24.56007632 15.98212547 -0.00243605 0.00344887 0.00379896
O 8.49964424 13.56253957 11.44794870 -0.00081355 0.00710529 0.00323166
O 8.95926185 18.30685212 9.05863417 0.00582596 -0.00071431 -0.00193085
O 11.73215825 8.66777395 18.91253161 0.00136775 -0.00100901 0.00059332
O 6.67676247 8.36370858 8.43232996 -0.00045058 0.00354542 0.00343434
O 11.92280843 6.30213114 6.66384403 0.00326599 0.00549861 0.00670813
O 12.78288060 0.46652736 1.31453195 0.00685219 0.00195906 0.00047110
O 7.29666866 1.13417870 28.05911925 -0.00175446 0.00418397 0.00450709
O 19.43247946 3.61391036 11.54517638 0.00387828 -0.00074543 0.00000624
O 14.28807000 13.37526976 8.84737647 0.00305657 0.00065814 0.00243363
O 9.99223947 19.62349564 18.70531070 -0.00300048 -0.00552099 -0.01010162
O 13.54735458 10.89226709 24.43609568 -0.00730230 0.00167481 0.00323029
O 11.12554464 11.63427340 25.34097709 -0.00516062 0.00146268 0.00644101
O 16.07433976 24.31868665 4.52955989 0.00234739 -0.00043364 0.00660927
O 6.93355820 0.63859772 30.59799835 -0.00187268 -0.00499316 -0.00105621
O 10.22745087 25.46342010 20.97260233 0.00770512 0.00047643 -0.00268885
O 16.05778950 16.24165947 20.01629414 0.00497803 -0.00109077 -0.00530087
O 7.13402038 16.92185034 16.02030040 0.00135815 0.00493109 -0.00225951
O 17.59140876 20.97212108 19.36961683 0.00190303 0.00475028 -0.00966958
O 13.80503325 10.58930093 3.45748688 0.00095838 -0.00502232 -0.00508457
O 13.86005399 11.04969960 31.25192828 -0.00475589 0.00251259 -0.00082435
O 13.12925536 25.32252139 9.88345412 -0.00723199 -0.00755508 -0.00363309
O 24.12082399 15.71851941 19.19044334 -0.00933267 0.00909680 -0.00182894
O 9.32293192 22.72184213 14.92086639 0.00302946 0.00115628 0.00232240
O 14.07049164 16.29552272 25.89676925 -0.00056973 -0.00011170 -0.00293481
O 6.06045921 13.13515815 10.90834437 0.00884447 -0.00002736 -0.00355302
O 9.75858063 24.15581426 4.40724521 -0.00619922 -0.00413732 0.00497717
O 20.76600861 21.24381438 30.27678054 -0.00027792 0.00754915 0.00501663
O 23.64140076 4.84536917 17.46913484 0.00262088 -0.00043268 -0.00044822
O 9.72902193 19.75206970 3.45328641 -0.00076985 -0.00174546 -0.00626849
O 19.71659557 8.10127255 4.68342489 0.00028758 0.00358864 0.00069526
O 15.88760662 15.04763541 9.73308631 0.00401984 -0.00287295 0.00062127
O 24.31582903 11.72825746 0.89356849 0.00809163 -0.00413986 -0.00336649
O 20.45238565 0.70112972 7.95720707 0.00358269 -0.00754197 0.00729215
O 21.82484191 3.89632422 4.78028939 0.00401331 0.00225817 0.00145776
O 13.49941438 25.32141553 17.36704795 -0.00658682 0.00322932 -0.00449925
O 25.57039001 10.99446895 16.27651672 -0.00048711 -0.00501072 -0.00159614
O 12.30463494 23.98963194 31.09716314 -0.00029181 -0.00325739 -0.00234244
O 18.13657680 15.68774489 29.30724077 0.00188352 -0.00174127 -0.00105805
O 15.30150314 8.16289222 21.34079303 0.00157638 -0.00110079 0.00090680
O 25.23984130 11.62561904 7.21274194 -0.00297433 0.00151203 -0.00377501
O 25.54401207 21.47700626 9.97910812 -0.00225838 -0.00497467 0.00487958
O 0.00736450 3.47128310 18.59066380 0.00748950 -0.00160056 0.00330395
O 10.76829431 21.60908141 22.01308765 0.00469638 0.00678807 0.00041828
O 13.79338805 18.56450951 26.96835338 0.00427183 0.00028172 0.00056140
O 16.08564510 3.33225144 23.44051325 0.00768517 0.00477817 -0.00123277
O 22.28641667 13.39250905 25.24814937 -0.00433747 -0.00793075 0.00442866
O 18.63065602 11.53529282 25.71976545 0.00110584 -0.00024227 0.00058335
O 5.17082100 2.35338746 22.54451287 -0.00866955 0.00064964 0.00027021
O 21.73309698 19.06150199 29.32072405 -0.00014713 -0.00874286 -0.00183943
O 24.78117849 8.06385371 22.88831760 0.00003760 0.00457236 -0.00388059
O 18.76200225 24.39507362 3.97601798 -0.00186339 0.00075890 -0.00493829
O 8.31213993 18.16395957 0.29090133 -0.00178379 0.00331282 0.00552031
O 13.78043078 7.89143303 28.99943686 0.00045843 0.00811964 -0.00189101
O 24.38811940 6.41884344 8.79207365 0.00433539 -0.00288806 0.00043350
O 13.24394641 15.63551549 15.31147988 0.00201392 -0.00622746 0.00065524
O 24.63531076 3.44606112 24.12358887 -0.00052711 -0.00290914 -0.00324818
O 24.08337668 22.44822474 24.60305759 0.00133297 -0.00073272 0.00180939
O 21.90706866 1.44334654 30.63941629 -0.00202947 -0.00223700 0.00088358
O 24.96019999 19.68733547 11.82371912 -0.00343719 -0.00287729 -0.00239628
O 17.20361758 18.27522717 18.69085011 0.00164561 0.00184491 -0.00337416
O 12.38810321 0.67311176 26.57158968 -0.00406342 0.00588353 0.00093157
O 24.44656520 22.20006357 19.06670706 -0.00694820 -0.00549231 0.00370767
O 23.71179530 23.14672462 14.88496135 0.00148690 0.00467963 -0.01387668
O 18.28683827 18.93450624 6.37231785 -0.00032600 -0.00058194 -0.00300328
O 10.75348544 15.73682451 31.14440623 -0.00407971 0.00009412 0.00437770
O 16.53880171 20.20627574 4.99334482 0.00925704 0.00458666 0.00170123
O 0.65431918 5.15859781 13.88834494 0.00081184 0.00153920 -0.00618182
O 20.95441039 14.52840525 15.09925143 0.00808240 -0.00057968 0.00398086
O 15.91286545 3.14448423 31.18323158 -0.00528553 -0.00738031 -0.00723822
O 24.70806292 16.37989678 3.65406966 -0.00744264 0.00072240 -0.00660784
O 17.17769845 20.71423596 24.63100338 -0.00564956 0.00272938 0.00293496
O 24.50474907 18.93308998 5.34817082 -0.00632234 -0.00329241 0.00145851
O 11.91065139 18.88411166 4.90509634 0.00812906 -0.00001121 -0.00068612
O 22.52991275 9.09805227 22.35894756 0.00749061 0.00257693 0.01234221
O 21.58806027 6.95643033 10.00641879 -0.00012552 0.00065304 0.00016022
O 18.90530992 1.43057702 2.43264502 0.00311595 0.00111828 0.00734124
O 19.78932943 22.03824897 15.77498970 -0.00447641 -0.00253780 0.00497477
O 24.20102456 13.80935002 9.33066289 -0.00639981 -0.00576570 -0.00153564
O 21.37707817 25.14264194 23.95519682 -0.00437529 -0.00980104 -0.00057836
O 2.71315223 14.98557309 14.90714917 0.00386921 0.00362345 -0.00305587
O 17.30035884 24.54382216 18.34252207 0.00117462 0.00459780 -0.00004150
O 19.43313397 8.73988744 17.02776909 -0.00597380 0.00293655 -0.00021333
O 19.45453902 17.45797299 9.77332084 0.00279089 0.00016996 0.00912746
O 14.67467173 24.27289972 30.38381676 -0.00176548 -0.01132656 0.00164731
O 20.97928621 24.82792103 21.50476627 -0.00086016 0.00094023 0.00251287
O 3.45184346 23.87680595 13.39522818 0.00204430 -0.00211259 -0.00660365
O 19.65791405 25.09690875 10.55436750 -0.00059898 0.00555651 0.01358305
O 2.14431718 18.25008282 20.25962982 0.00403171 -0.00374517 0.00163655
O 14.12820661 0.52692064 24.82958138 0.00335885 -0.00614981 -0.00365901
O 16.84225331 17.91246912 29.72024024 -0.00298402 -0.00418023 0.00785418
N 14.68820449 22.23434388 12.31615923 -0.00777649 -0.00092450 -0.00172602
N 2.53603632 2.63918077 7.83134008 -0.00032335 -0.00370652 -0.00848229
N 3.79851833 23.16574496 7.88991301 -0.00378409 -0.00033732 -0.00814020
N 2.73705797 10.26143270 20.91497970 -0.00009670 0.00139114 -0.00707889
N 4.83782082 0.35508069 15.76573470 0.00273949 0.01192005 0.00337373
N 4.11397741 10.34269568 28.62406529 0.00448581 0.00223476 -0.00429154
N 3.49995310 15.98935810 3.06450582 -0.00951182 0.00198076 -0.00234929
N 24.85589145 2.01950334 3.22339813 0.00738868 -0.00012655 -0.00991060
N 1.78955161 17.26232716 27.63571123 0.00445530 -0.00749299 0.00293946
N 25.18367241 8.56510783 26.50333616 -0.00287561 0.00004274 0.00026811
N 20.60928199 4.09625144 23.92455296 0.00492103 -0.00336339 0.00350129
N 10.57351632 6.45161062 25.62735013 0.00176991 0.00548056 0.00431128
N 8.48985992 3.89475703 0.18472565 -0.00001325 -0.00317449 0.00354032
N 7.35795179 9.19804991 15.75836784 -0.00486921 -0.00821404 0.00103883
N 8.82519976 16.67702440 21.80906511 -0.00052032 0.00300936 0.01097967
N 6.80617257 4.51325855 14.75946702 -0.00579381 -0.00126702 -0.00682859
N 7.44049934 22.87386900 10.45096752 -0.00202825 0.00147769 -0.00361060
N 2.48444843 14.89571535 11.13125743 0.00621909 -0.00204582 0.00428789
N 0.49908084 14.92871933 30.62277518 -0.00414871 -0.00414975 0.00187752
N 6.01944892 20.00796081 21.79532515 0.00156445 -0.00837516 0.00279109
N 3.70606402 10.56084057 16.67077457 -0.00531601 -0.00150200 -0.00140616
N 1.25188856 24.40360966 3.46642114 0.00174353 0.00257396 -0.00126555
N 12.97733062 17.89417799 11.60301654 0.00275172 0.00043982 -0.00485067
N 2.76538460 1.42823160 26.28932487 0.01022633 0.00075856 0.00911660
N 9.79122312 2.06119904 18.15366251 0.01075405 -0.00249235 -0.00406267
N 3.88916270 21.47206644 0.56444675 0.00393107 0.01295102 0.00593576
N 24.76392467 15.11574452 23.44826808 0.00351014 -0.00824341 -0.00475722
N 1.04817125 23.94332792 27.99069456 -0.00210517 0.00673803 0.00476025
N 19.36711190 12.78404416 2.54737103 -0.00331120 0.01107023 0.00030070
N 5.19176861 22.11707721 24.09740230 0.00297316 -0.00422597 0.00484160
N 10.39743280 20.87409686 25.60810225 -0.00702430 0.00377034 0.00416715
N 22.93136174 18.06460992 21.12907749 0.00320585 0.00889758 -0.00349285
N 12.29841692 8.96774801 3.86417537 0.00119686 -0.00385944 -0.00262395
N 11.27433021 1.94148577 7.83033201 -0.00491601 -0.00211991 -0.00356916
N 13.63708028 4.93483503 7.20673162 0.00174944 0.00350104 0.00137915
N 16.12530637 12.03159046 16.26748823 0.00598596 0.00122038 -0.00115294
N 9.04003062 21.06959884 13.46156518 0.00086984 0.01173966 -0.00088848
N 20.68786537 11.29836367 10.64851046 -0.00361675 -0.00608928 0.00662005
N 12.42412629 14.09550137 7.65438417 -0.00051929 -0.00147425 0.00064160
N 16.46876354 9.92640550 11.14370918 0.00481702 -0.00024107 0.00332745
N 13.53834452 10.01157770 19.01337969 -0.00191487 -0.00394865 -0.00711185
N 7.16096669 5.67618822 23.93276887 0.00231658 -0.00059161 0.00813836
N 15.30800085 0.09690998 9.65474518 -0.00370294 0.00595612 0.00511559
N 25.38073702 7.88810957 3.91716815 -0.00399355 0.00328105 0.00004885
N 8.05642578 0.94468824 25.97217291 0.00737314 -0.00400693 0.00196947
N 18.39495383 4.22628149 18.04973051 -0.00878325 0.00957857 -0.00670117
N 6.07359973 12.25955793 13.03395527 0.00597731 0.00423291 0.00293114
N 20.61523667 7.32570910 26.64482076 0.00618844 0.00198125 -0.00516610
N 6.20054789 7.88743009 0.67389993 -0.00845110 0.00334002 0.00132916
N 4.96321591 9.14848796 6.99403581 0.00282178 0.00302187 0.00894535
N 17.75005334 8.53224016 0.53199200 -0.01318539 0.00635169 -0.00911290
N 22.24079230 16.82107959 18.49088281 -0.00146761 0.00377892 0.00397747
N 9.44047045 11.99969968 5.71890549 0.00062194 -0.00139358 0.00640292
N 18.69734194 2.19962056 13.03861378 -0.00222802 0.00282429 -0.00152399
N 16.61259262 5.72417072 5.41505431 -0.00408797 0.00244410 -0.00724446
N 8.83462502 22.66868319 5.74374592 0.00792947 0.00235669 0.00372337
N 23.69717063 25.49534957 18.84185806 0.00620170 0.00201132 0.00077612
N 12.46372839 12.74786889 30.62411837 0.00814748 -0.00213540 0.00738869
N 12.32646768 14.17612741 21.79085953 0.00458173 0.00433357 0.00240025
N 11.04011542 25.31666310 2.30271376 -0.00017470 0.00153847 0.00208058
N 8.31579608 13.67584919 29.18281197 -0.00366980 0.00043400 0.00051134
N 15.97003541 15.14525682 25.37316414 0.00891192 -0.00369704 0.00609093
N 10.53755302 6.87885968 13.80742569 0.00691750 -0.00262472 0.00213142
N 12.08615877 20.55301925 18.55062693 0.00172748 -0.00054815 0.00007634
N 21.40869268 16.32196941 9.10443878 0.00143572 -0.00009213 -0.00471562
N 23.59689975 10.11660688 15.57117582 0.00777342 0.00518793 -0.00788736
N 13.59838946 3.58581485 31.17041280 0.00180679 -0.00815403 0.00089387
N 24.06289811 8.55814869 8.13828331 -0.00346037 -0.00001251 -0.00079815
N 19.71106919 22.88332547 11.09851905 0.00022353 -0.00401991 0.00283584
N 1.12332605 12.49198503 5.78480312 -0.00457670 -0.00297607 0.00575880
N 13.60651081 17.99422503 3.61889968 -0.00768288 0.00284517 0.00104730
N 22.03061340 0.05923856 0.73114278 -0.00802626 0.01111818 -0.00222338
N 24.69414353 3.73615370 13.17060888 0.00155037 -0.00706917 0.00141448
N 10.10420492 19.22130959 31.04216287 -0.00302115 -0.00115956 -0.00724693
N 20.31145376 0.00427216 19.60949511 0.00064671 -0.00516864 0.00056405
N 18.82236650 13.50433089 29.57009158 0.00024622 -0.00069089 0.00104282
N 18.40732461 21.13951409 26.43167079 0.00849312 -0.00765516 0.00073782
N 0.70994148 4.41985821 25.26632805 0.00019186 -0.00503494 -0.00432019
N 14.60372636 0.68817340 22.68060820 -0.00071429 -0.00682081 -0.00411112
N 1.77616506 4.21844699 19.81041093 -0.00185776 -0.00128342 -0.00988616
N 20.04496261 22.52892613 3.92371655 0.00453684 -0.00149266 -0.00115741
N 20.61612466 16.67472104 14.46717494 -0.00269318 0.00447468 -0.00357228
N 10.01719164 23.35741699 30.93888430 0.00188359 -0.00421382 0.00529867
N 2.53786564 22.63014533 15.04678104 0.00876147 -0.00337557 -0.00439663
N 15.42178391 16.19289501 15.09595220 -0.00479533 0.00877209 0.00389501
N 23.57354941 20.10049955 7.14718935 0.00922129 -0.00038382 0.01301258
N 24.46410407 23.42870379 10.06049765 -0.00234351 0.00517561 0.00080498
N 16.65375649 19.57567578 31.13637764 0.00387419 0.00216323 0.00121177
N 11.53901480 24.11585790 17.16028719 -0.00105569 -0.00458119 0.00154187
N 16.57851519 25.24835945 29.50003007 0.00105123 0.00759765 0.00264465
N 14.42927966 7.27821660 26.95581528 -0.00306778 -0.00021575 0.00489099
N 22.91951464 14.94554604 4.08687680 -0.00140011 -0.00376560 -0.00593322
N 17.31269306 9.33442581 20.87089225 -0.00397423 0.00661263 -0.00080265
N 2.92322957 19.31820954 18.33189485 -0.00106626 0.00326007 0.00367136
N 22.14977921 21.18410849 24.26401553 0.00172000 0.00199102 0.00720212
N 22.65876379 10.82435529 20.98008435 -0.00422377 0.00023961 0.00356838
C 6.73074008 23.05476446 12.75159877 0.00473589 -0.00822754 -0.00501640
C 4.11047809 2.10439937 9.67372029 -0.00640450 -0.00310007 -0.00193123
C 2.89704392 14.45482129 30.91653320 0.00385531 0.00727024 0.00621988
C 1.73278756 12.48522469 20.51386738 -0.00386997 0.00395857 0.00593324
C 2.37639423 10.54782996 14.55493693 -0.00353702 -0.00011545 0.00266498
C 4.89906674 10.86695780 30.84655696 0.00146523 -0.00127622 0.00113659
C 12.27673170 18.33853713 13.79493405 0.00540726 -0.01022925 0.00377211
C 24.74998969 1.69339662 5.65837982 0.00150165 0.00588870 -0.00971865
C 6.05333317 22.47967430 13.85363779 -0.00301986 0.00452964 0.00235131
C 4.68936664 1.10169402 10.44273106 -0.00635409 0.00454392 0.00564011
C 4.18464807 14.88083668 30.89301859 -0.00227039 0.00140132 0.00575609
C 0.68492869 13.22915053 19.92671270 0.00269797 0.00526534 -0.00492951
C 1.91588049 9.76118545 13.57490530 0.00597481 -0.00485009 -0.00097607
C 4.78230149 10.80682451 0.50304503 -0.00236966 -0.00889453 -0.00281471
C 11.37787932 18.08461592 14.82159135 -0.00228231 0.00675027 -0.00532809
C 24.57545233 2.06395118 6.90999432 -0.00515083 -0.00284960 0.00787499
C 5.51830613 21.26869222 13.74757479 -0.00285008 -0.00359601 0.00062960
C 3.91470534 25.89672935 10.61676249 -0.01001147 -0.00467954 0.00147259
C 4.50629983 16.25416166 30.87494233 0.00494665 0.00758054 0.00948909
C 25.30813759 12.56466768 19.39550787 0.00823994 0.00221387 0.00018638
C 1.75946008 8.34889877 13.69900488 -0.00146413 0.00005276 -0.00350414
C 3.74379670 9.98280276 1.11532296 0.00401925 0.00131519 -0.00054108
C 10.62796475 16.96289030 14.92322239 0.00578738 0.00005054 0.00392369
C 24.81594135 3.48523765 7.18584035 0.00439005 0.00241134 -0.00021989
C 5.60552227 20.47263907 12.55951518 0.00193009 0.00029550 -0.00103647
C 2.49730838 25.81421179 10.27462624 -0.00337304 0.00351162 0.00300271
C 3.38423768 17.15879131 31.20816396 0.00489423 0.00404263 0.00147357
C 25.35466232 11.18157534 19.19214318 0.00605703 -0.00131640 0.00828984
C 2.07940461 7.84564049 14.91080184 0.00038682 0.00374706 0.01316837
C 2.86374692 9.42343248 0.23349989 0.00487149 -0.00454752 -0.00162493
C 10.70273025 16.07648401 13.80656514 0.00192058 0.00185831 -0.01174534
C 25.34928983 4.30992584 6.17403129 0.00013541 -0.00222836 -0.00198775
C 6.32082227 20.96302922 11.53653420 0.00276193 0.00315745 0.00184046
C 2.04661654 0.75454033 9.35757550 -0.00594073 0.00391027 0.00505656
C 2.08621804 16.69915931 31.29013497 -0.00314252 0.01001382 -0.00193140
C 0.70577958 10.39938215 19.66418075 -0.00481359 -0.00013329 -0.00137385
C 2.65113874 8.54786819 15.94813693 0.00066608 -0.01359635 -0.00672075
C 3.02601576 9.42319143 30.59136405 0.00472927 -0.00483412 0.00559680
C 11.45511198 16.42009111 12.70276183 -0.00249242 0.00499881 0.00442055
C 25.50539576 3.82919455 4.85320891 -0.00784611 0.00365375 -0.00727341
C 6.80534708 22.31718770 11.55894532 -0.00335412 0.01296062 -0.00906751
C 2.92479793 1.78609985 8.88772507 0.00906956 -0.00048978 -0.00585421
C 1.83242745 15.34869855 30.90596004 0.00173204 0.00398990 0.00176859
C 1.75328200 11.08117966 20.41864156 -0.00244649 -0.01100235 -0.01187284
C 2.83504952 9.93931868 15.73893436 -0.00191514 0.00241313 -0.00766615
C 4.03961935 10.17680220 29.96441664 -0.00693882 0.00513304 0.01152201
C 12.19828374 17.55904679 12.70955280 0.00163319 -0.00498076 -0.00243974
C 25.04078123 2.55334077 4.51357286 -0.00127405 -0.00318040 0.00914470
C 7.94308277 24.16999569 10.37401182 -0.00963075 0.00233803 0.00604476
C 3.41020697 3.48976056 7.16933524 0.00081262 0.00846166 -0.00391759
C 0.12238859 13.89591590 29.85901941 0.00100386 0.00387944 -0.00559964
C 3.73769038 10.65698852 21.77485326 0.00573819 -0.00076064 0.00142899
C 3.66841358 11.91645737 16.73515490 -0.00285250 -0.00053911 -0.00725476
C 5.16162372 10.87764076 28.02915667 0.00211167 -0.00018248 0.00696277
C 12.44349135 17.51715370 10.38460206 0.00548393 0.00797520 -0.00703719
C 25.22451322 2.84726511 2.14330621 -0.00533863 -0.00295692 -0.00422434
C 4.06976210 16.55673521 26.90552738 0.00147817 -0.00400194 0.00325596
C 4.89241781 3.00275560 6.87080056 -0.00021244 0.00626468 0.00188990
C 3.23342172 21.71633562 9.82999893 -0.00276542 -0.00223758 -0.00565348
C 11.06669223 7.50967219 27.72505453 -0.00643474 0.01026622 -0.00169129
C 8.42878297 3.64162937 2.57578241 0.00091587 -0.01113692 -0.00237033
C 4.98310844 11.73835474 26.86721419 -0.00071211 -0.00693692 -0.00589423
C 1.88520297 16.04148771 5.00179940 -0.00701065 -0.00416669 0.00003745
C 4.88609554 5.26226416 13.33466366 0.00602110 0.00370784 0.00531321
C 8.72439189 0.88586193 16.36425640 -0.00750565 0.00140908 0.00044652
C 1.98366766 8.29683314 26.17661237 -0.00167332 0.00163286 -0.00738667
C 1.36398981 14.17241603 23.59956596 -0.00114794 -0.00014278 -0.00206283
C 10.84842066 5.84699595 23.27313483 -0.00281077 0.00461282 0.00054241
C 20.60113863 11.37471172 0.94487256 -0.00722201 -0.00643992 -0.00013192
C 6.62974785 8.71420631 13.58851618 0.00933485 -0.00351900 -0.00490001
C 12.59124473 20.56795978 24.62906756 0.00219556 -0.00343632 0.00379039
C 5.14620773 5.45244961 16.32998957 0.01095229 0.00444123 -0.00662404
C 8.47049157 0.73629564 15.01678835 0.00869703 -0.00269179 -0.00453312
C 3.15748896 7.72119694 26.56045437 -0.00341138 -0.00285108 0.00233395
C 2.69902953 14.37370419 23.59710603 0.00247141 0.00889587 0.00152245
C 11.55354448 5.05786412 22.31905739 0.00205771 -0.00287301 0.00609636
C 21.39458932 11.20199406 31.53938292 -0.00493206 0.01193011 -0.00716306
C 6.61174646 8.91802958 12.20453377 0.00058368 -0.00479367 -0.00202050
C 13.86343385 21.08171084 24.47034559 0.00552404 -0.00360433 0.00843510
C 4.80694987 5.90502534 17.58750325 0.01214640 0.00112938 -0.00158661
C 9.09042938 1.48898886 14.08760846 0.00105286 0.00256022 0.00104926
C 3.36297781 7.12138753 27.82093117 -0.00233004 0.00017028 0.01236805
C 3.24219272 15.63882439 23.48090012 -0.00244928 -0.00403131 -0.01087192
C 11.84357551 3.75837325 22.56638647 0.00481661 -0.00729620 -0.00051654
C 21.89961051 12.35210883 30.85600145 -0.00571061 -0.00320773 -0.00755290
C 7.59274795 9.80776624 11.68034679 0.00645889 0.00278635 0.00135619
C 14.17638406 22.43802110 24.78289613 -0.00243249 -0.00080689 0.00893820
C 5.69177767 5.73772037 18.62722582 0.00139641 0.00349329 0.00645783
C 9.98129478 2.51548654 14.40784952 -0.01366786 -0.00069077 -0.00049663
C 2.15239154 6.96361025 28.54860355 -0.00608711 -0.00627230 0.00455690
C 2.31857869 16.74173784 23.26462202 -0.00425497 0.00348439 0.00017652
C 11.57163809 3.25125013 23.88141913 -0.00227711 0.00386603 -0.00440089
C 21.54324002 13.64853309 31.32147974 0.00163377 0.00856511 -0.00265673
C 8.59174708 10.44510978 12.50082825 0.00492581 0.00211606 0.00022204
C 13.13256301 23.33685733 25.18547976 -0.00009120 0.00169820 0.00391160
C 7.00590628 5.48099218 18.24834600 0.00252756 -0.00247397 -0.00360935
C 10.25114436 2.63562922 15.76324441 -0.00501326 0.00121192 -0.00497482
C 0.95041314 7.45315349 28.16263480 -0.00111004 0.00088601 -0.00069288
C 0.96263928 16.52923062 23.32300753 -0.00537027 0.00106123 -0.00177780
C 11.09886220 4.12702549 24.80347979 -0.00413823 -0.00182953 0.00559605
C 20.71838405 13.82279688 0.72532546 -0.00166542 0.00155929 0.00156543
C 8.51130373 10.27100455 13.87221953 0.00402923 0.00664929 0.00219351
C 11.90741311 22.80965592 25.32704954 -0.00380687 0.00061508 -0.00289375
C 7.36021452 5.05699385 16.96780032 -0.00123926 -0.00436522 -0.00155822
C 9.54854814 1.94035456 16.78814702 -0.00695444 -0.00546375 -0.00387437
C 0.79543335 8.11484256 26.89785444 -0.00385859 -0.00274240 -0.00764755
C 0.45467369 15.21214600 23.49509372 -0.00169972 -0.01148740 -0.00497433
C 10.86824606 5.49917512 24.60458772 0.00245819 0.00116524 0.01227869
C 20.17061696 12.67083755 1.40825563 0.00901827 -0.00146478 0.00360943
C 7.48731247 9.37145011 14.37337096 0.00347431 0.00420554 -0.00918629
C 11.61861512 21.44376367 25.27295393 0.00067273 -0.00721194 0.00030326
C 6.42463043 5.06538568 15.99387465 -0.00033717 -0.00176761 0.00192026
C 10.88391310 2.53506557 18.81699646 0.00332540 -0.01096933 0.00507664
C 24.24820520 9.28974012 27.07392364 -0.00532789 -0.00057853 -0.01062978
C 23.75732665 15.76896758 23.98004152 0.00179782 0.01045543 -0.00056597
C 11.08895795 6.26969809 26.81911043 0.00967779 -0.00019641 -0.01014805
C 18.68012762 11.67326106 3.06810647 -0.00064882 -0.00575205 -0.01550154
C 7.92664255 9.95949852 16.70282885 0.00009094 -0.00551792 -0.00452359
C 9.47884313 21.66926098 26.13715994 0.00091281 -0.00237700 -0.00158964
C 6.19759231 4.53004594 13.54708886 -0.00328704 -0.00291306 0.00287628
C 13.48713379 22.92746953 14.33760192 0.00721729 -0.00323643 0.00354527
C 24.66770365 10.19272801 28.27451950 -0.00073650 -0.00487698 0.00718470
C 19.60359663 5.65197220 22.26112936 -0.00373990 -0.00594728 -0.00491544
C 4.70776580 9.57691919 22.26088850 0.00163627 -0.00548888 0.00512605
C 4.84308151 1.36485613 13.50080967 -0.00171611 0.00263124 0.00442217