1920
Time=61000.00000005 pbc="T T T" Lattice="26.14604315 0.00000000 0.00000000 0.00000000 25.34092248 0.00000000 0.00000000 0.00000000 31.67114548" energy=-12208.01853788 virial="-102.97616269 27.17418386 -16.39860655 27.17418386 -78.76674208 -18.83568887 -16.39860655 -18.83568887 -107.64864983" stress="-0.00162915 0.00124859 -0.00066777 0.00124859 -0.00053499 -0.00084856 -0.00066777 -0.00084856 -0.00174397" Properties=species:S:1:pos:R:3:vel:R:3
O 5.25962563 19.33999866 14.15103361 -0.00364040 -0.00542591 -0.00158668
O 3.22434400 23.63532592 11.43131820 0.00534414 -0.00773768 0.00222433
O 6.48792664 16.62475638 30.04289091 -0.01073158 0.00104518 0.00723959
O 25.98804547 12.30446176 17.85119962 -0.00985313 -0.00286744 -0.00316052
O 0.84660140 7.06781250 11.97448146 0.00081020 -0.00185829 -0.00729899
O 3.49370041 9.55786661 2.63369668 -0.00640496 -0.00307723 -0.00769705
O 9.70828348 16.37900240 15.91528819 -0.00007511 0.00133442 -0.00071809
O 25.37032996 3.28890919 8.48995079 0.00458968 -0.00350293 0.00183680
O 9.68521516 1.20444950 19.48090961 0.00223865 0.00387526 -0.01046556
O 2.03137343 4.21299752 8.77930680 -0.00649064 -0.00258979 -0.00019551
O 25.54731927 13.68352043 30.53235359 -0.00315130 -0.00373393 0.00942011
O 10.56130636 5.55620091 26.78026967 -0.00817958 0.00984863 -0.00703465
O 20.18930559 10.02542131 3.41935503 0.00302108 0.00803078 0.00259112
O 6.63644516 10.99541208 28.74642236 -0.00724342 0.00508938 0.00852617
O 11.79232574 16.36748592 9.93239263 0.00687066 -0.00315371 -0.00302887
O 6.18150894 3.98233138 11.75304749 0.00283103 0.00064682 -0.00083186
O 9.08342675 1.05481058 11.90354002 0.00602890 -0.00528771 -0.00504654
O 5.79451463 7.69944726 27.99447257 -0.00793865 0.00629687 0.00605430
O 4.99953488 14.86932304 23.55694257 0.00163239 0.00250135 -0.00598581
O 13.35297323 3.78203663 21.20317927 0.00477099 0.00470705 -0.00400824
O 22.75148316 14.06710114 30.72470582 -0.00896139 -0.00172596 0.00761542
O 7.84224303 8.92555832 10.44871363 -0.00691612 0.00057956 0.00052710
O 15.43176073 19.19140482 23.90568255 -0.00617586 0.00218822 0.00193136
O 5.85086438 5.53887383 19.23050327 0.00017264 0.00706891 0.00036702
O 7.76122010 24.45204677 10.83954721 0.01080168 0.00886225 -0.00295165
O 0.20664239 9.82792245 28.50418513 0.00392754 -0.01344905 -0.00176611
O 23.53347190 15.08855950 23.87359256 0.00262905 -0.00485939 0.00419080
O 4.15734462 10.40616578 22.32741362 0.00478094 0.00243149 0.00413356
O 3.02492995 12.55434506 14.63326110 0.00827270 -0.00417930 -0.00320644
O 8.58981390 9.82761652 16.77468682 0.00204661 0.00454212 0.00186488
O 10.86235921 22.54778428 26.55939174 0.00024979 -0.00155610 -0.00326175
O 1.86711974 3.61311154 2.85870403 -0.00501725 -0.00340240 0.00314935
O 18.88453784 17.11415349 9.70239963 0.00598026 -0.00586495 0.00419655
O 4.53062736 17.63007683 9.11816700 0.00858407 -0.00019479 -0.00033585
O 6.80039178 23.03830091 3.20883931 -0.00862245 -0.00075869 -0.00452648
O 5.94258847 18.65840805 16.43264834 0.00552639 -0.00025054 -0.00114896
O 5.74459559 25.29773310 21.29283362 0.00054048 0.00170644 0.00621529
O 4.32472089 2.03323219 4.08202347 -0.00068051 0.00258556 -0.00252155
O 8.89385438 17.14949951 5.23494050 -0.00293061 0.00501734 -0.00071288
O 23.38667363 0.36392815 25.84234398 -0.00838439 0.00293643 0.00628381
O 1.48424701 15.74590271 26.54472927 0.00015715 -0.00217014 0.00374966
O 26.13185692 13.30341091 9.91013198 0.00156939 -0.00234560 -0.00333099
O 4.65497096 19.94154581 8.13332011 -0.00418929 0.00021697 -0.00682621
O 24.57253655 24.56088468 28.97017653 0.00044427 -0.00592721 -0.00183242
O 5.59403954 2.65972228 1.76205864 -0.00265893 -0.00049952 0.00279199
O 25.72144564 23.30580606 5.56090230 0.00012066 0.00122379 0.00122834
O 1.79157421 15.66938055 2.50527825 -0.00462981 0.00582360 0.00418847
O 22.66557428 18.70112643 18.97156107 -0.00676998 0.00694005 0.00335748
O 22.54647065 16.62426911 30.46542469 -0.00832364 0.00177474 0.00591382
O 25.33722488 19.24822307 2.27584262 0.00044975 0.00112785 0.00249661
O 20.17838587 1.64818829 28.86432334 0.00333559 0.00320656 0.00425845
O 5.94348560 23.40389177 29.50392415 0.00216035 0.00272039 0.00052204
O 6.79857832 5.21021267 27.86928806 0.00796143 0.00089745 0.00293562
O 26.05994608 21.99138304 23.48379172 -0.00180305 -0.00580835 0.00219839
O 5.80512462 11.75955162 23.73166766 0.00423520 0.00238168 -0.00062061
O 17.46491385 20.62297889 22.13272001 0.00382960 -0.00025201 -0.00759047
O 14.89700489 20.02537181 13.73788168 -0.00701879 -0.00444381 -0.01094635
O 6.08554022 21.91832961 0.90238107 -0.00168587 -0.00255933 0.00722428
O 18.59681059 3.31789096 22.89190492 0.00263576 0.00625574 -0.00160797
O 5.92612921 16.91319119 22.41128264 -0.00270938 0.00452099 0.00241792
O 3.14547904 2.03451683 15.94267238 -0.00081301 0.00159210 0.00448375
O 5.91303459 22.99806339 22.15643659 0.00111798 -0.00253432 0.00265148
O 9.25964331 17.95665980 21.10229580 -0.00216866 0.00408263 0.00293135
O 4.66790656 2.48363481 27.05409371 0.00447172 0.00321465 0.00298083
O 4.01157660 4.78402741 4.12029693 -0.00143467 -0.00887847 -0.00611466
O 6.69547582 4.69932959 9.04523716 -0.00138707 0.00059040 -0.00235696
O 17.09322100 12.27048609 27.28029535 -0.00045078 -0.00582216 -0.00163562
O 12.04841579 9.15415681 12.58209196 -0.00022599 -0.00033613 -0.00024972
O 9.94116086 6.29088154 8.48543965 0.00454594 -0.00663250 -0.01138519
O 15.91331439 9.81926333 6.60580522 -0.00408351 0.00070317 -0.00018106
O 19.77130186 2.99023600 8.57383397 -0.00363090 -0.00328574 -0.00774166
O 20.65240055 10.73779826 13.94446045 -0.00534924 -0.00455067 -0.00765886
O 22.74074368 24.37527325 17.56571085 0.00198557 -0.00376691 -0.00248792
O 12.96412779 1.19903498 6.45172502 -0.00562564 0.00115887 -0.00538024
O 20.61182986 8.39556487 31.10323319 -0.00799337 0.00433157 0.00216934
O 1.91260618 7.49760217 2.60200432 0.00273801 -0.00039828 0.00517958
O 8.65853263 15.22493909 30.04282244 0.00151347 -0.00347112 -0.00500770
O 20.98136481 9.18608566 10.19422643 0.01180302 0.00125583 -0.00619109
O 16.99315507 7.73700489 5.31409930 -0.00979570 -0.00563538 -0.00233693
O 19.41600776 6.74694251 25.05982617 0.00688610 0.00127634 0.00061449
O 23.34303286 4.42406675 22.69938824 0.00317923 0.00000504 -0.00799082
O 8.87569599 10.29020655 25.53190948 -0.00088311 0.00374554 0.00110158
O 9.31025622 12.39688003 16.26144714 0.00290669 -0.00501100 0.00583869
O 23.09347957 8.26190033 30.54879596 -0.00528076 0.00037288 -0.00040921
O 9.26182285 9.70201299 1.79681124 -0.00373162 0.01067633 -0.00580013
O 20.19620778 5.59838833 13.08075779 0.00491223 -0.00400360 -0.00535291
O 13.62251919 4.86874742 18.61985587 0.00799062 -0.00051958 0.00747495
O 19.33471293 4.14704541 30.85707956 -0.00065108 -0.00196977 -0.00065042
O 5.87039498 7.81327683 30.54765223 0.00285988 0.00555152 -0.00473363
O 8.17163482 6.49928278 20.22293257 0.00411110 -0.00544768 0.00477379
O 11.32141991 13.19955306 22.30870139 0.00715770 0.00167081 -0.00112853
O 17.36041925 9.81015689 16.12504865 -0.00574901 0.00596045 -0.00055685
O 8.75014624 10.64567822 4.08125886 -0.00098855 -0.00571104 -0.00125307
O 16.15005628 5.06437459 18.00510773 0.00352169 -0.00600244 0.00272367
O 11.31949625 6.69787946 12.99228387 0.00317515 -0.00005415 -0.00779817
O 15.02653958 11.35776356 10.82719301 -0.00228656 -0.00175087 -0.00087108
O 12.42683779 5.99823970 30.60445740 -0.00627520 0.00113509 -0.00049125
O 6.19654130 14.09659296 5.10440048 0.00702842 0.00237697 -0.00475459
O 13.95273577 2.58552324 2.70767623 -0.00213394 0.00595846 0.00619226
O 25.75703745 16.84186558 13.68968627 -0.00473509 -0.00566868 0.00043817
O 12.00849686 22.79741434 9.40808683 -0.00096639 0.00030756 -0.00332293
O 15.89814268 24.89651527 16.45852977 -0.00065342 -0.00408023 -0.00677930
O 8.15262595 13.36661958 11.29532847 0.00349810 0.00357036 -0.00488537
O 9.53304156 17.50563868 9.39624262 -0.00169528 -0.00470660 -0.00524406
O 12.49655656 8.75235005 19.09443262 0.00009108 -0.00437522 0.00590726
O 5.48719067 9.63383516 9.53723534 0.00181958 0.01283637 -0.00010871
O 11.73019767 4.69441752 7.98101683 0.00880606 -0.00029503 0.00417610
O 12.75471467 0.77890181 1.32644831 0.00134118 -0.00748312 0.00514352
O 8.04460132 1.62311235 28.38787589 -0.00472258 0.00454192 -0.00328440
O 19.40270355 3.63341854 11.16445182 0.00925889 0.00943939 -0.00369677
O 13.73436579 13.06433454 8.33336875 -0.00071094 0.00007341 -0.00443779
O 10.18582949 19.47164502 19.30175919 0.00261314 0.00308266 0.00181287
O 15.03724298 12.44129744 23.66941829 0.00479550 -0.00619169 0.00516603
O 10.47864839 12.29170362 24.52042452 -0.00089025 -0.00305180 0.00219873
O 16.83029271 23.51841762 5.31646410 0.00036910 -0.00491648 0.00483223
O 6.99676757 0.32239847 30.33804723 0.00641370 0.00121500 0.00782531
O 11.08282414 0.13525290 21.47106045 0.00162715 0.00000806 0.00412589
O 17.19687371 16.09989309 19.83203540 0.00413269 0.00703744 0.00259600
O 7.23121382 16.58152725 16.32430604 0.00079190 -0.00206190 -0.00375853
O 17.70617837 20.02384013 18.04341974 -0.00226394 0.00609331 -0.00287123
O 12.44069679 10.56007825 3.40208442 0.00907911 0.00139660 0.01316373
O 12.68901374 10.03668343 30.05494286 -0.00535447 -0.00198895 -0.00707454
O 13.43250773 25.04454037 10.31631070 -0.00106723 -0.00765784 0.00389367
O 23.63238669 13.14019806 18.67904232 0.00415823 -0.00132641 0.00003435
O 10.14574644 21.81904304 15.33705829 0.00481713 0.00358472 0.00147171
O 15.13456347 16.79518789 25.65756036 0.00546568 0.00216117 0.00422864
O 5.69425164 13.54450595 10.92763003 -0.00160989 0.00401108 0.00123097
O 10.95398917 22.54969097 4.03710214 0.00142908 -0.00431927 -0.00108418
O 21.00331756 21.54903434 30.98004794 -0.00503489 -0.00373413 0.00357975
O 23.96687252 4.89074584 18.08434061 0.00066687 0.00023459 0.00071544
O 10.51937190 18.74176537 3.70636823 0.00066484 0.00196127 0.00464620
O 20.33856737 8.03379983 4.97780982 -0.00402249 -0.00857757 -0.00027210
O 16.08793974 13.75973829 9.27706459 0.00518767 -0.00551101 -0.00072683
O 25.55977277 11.64542016 0.43126566 -0.00635104 -0.00506131 0.00690569
O 21.23576705 1.38005103 7.19192139 -0.00042152 -0.00003281 -0.00293493
O 22.16332323 4.70588043 4.54649372 -0.00500631 0.00544092 -0.00513396
O 13.61683473 23.65181296 16.50288624 0.00293379 0.00141431 0.00664823
O 24.38159533 10.27791289 12.94790083 -0.00071716 0.00130672 0.00107111
O 13.13195392 22.38398134 30.91254621 -0.00754801 0.00195575 -0.00018343
O 17.52452639 15.45687895 30.00783904 -0.00150400 -0.00038629 -0.00689889
O 16.45606503 7.86400510 22.26803601 -0.00038402 0.00147313 -0.00522255
O 25.90880843 10.58943680 6.36582176 0.00455420 -0.00084707 0.00842856
O 25.98499210 21.61660409 10.34850028 0.00401535 -0.00824857 0.00813081
O 26.12041607 3.64845706 18.53586702 -0.01410630 0.00055432 0.00697593
O 11.38858672 21.80291312 21.76744114 0.00405694 0.00516891 -0.00793889
O 13.92431725 18.66331693 26.72257850 0.00986839 0.00686406 -0.00380776
O 16.27287818 2.94519664 23.85138076 -0.00370186 0.00448503 0.00616734
O 21.50198108 14.99395274 25.20559468 0.00173721 -0.00016658 -0.00110127
O 18.95147830 12.59212763 25.42603521 0.00614412 -0.00297932 -0.00531228
O 5.27671697 2.22449159 22.40537380 -0.00245044 0.00248702 0.00179115
O 22.82132312 19.76318524 30.49284024 0.00458797 -0.00178888 -0.01064072
O 26.03801254 8.55626660 22.57217798 0.00011049 -0.00449436 0.00005351
O 19.29532562 23.88413614 5.05328036 0.01103148 -0.00198265 -0.00206297
O 9.67585077 16.97734031 0.98814010 -0.00228922 0.00715444 0.00084781
O 14.16953971 7.70366422 29.07138955 -0.00163329 0.00682293 -0.00105482
O 25.43910302 5.81826642 8.25381666 -0.00074900 -0.00723158 0.00352026
O 14.47809926 14.99755312 15.29526372 -0.00022567 -0.00554144 0.00335575
O 25.62590655 4.09485331 24.05809151 0.00399489 0.00145629 0.00342921
O 24.29578808 22.66034736 24.95632329 0.00262605 -0.00056862 0.00401193
O 22.03753035 1.70680851 30.79635702 0.00525552 -0.00072946 -0.00077985
O 25.22166232 20.28903986 12.54828695 0.00054004 -0.01431071 -0.00404806
O 18.13877494 17.61377246 18.09168691 -0.00637582 0.00154460 0.00022199
O 12.78121485 0.33870316 27.11429848 0.00342770 -0.00467359 0.00558850
O 24.14288382 20.72126943 18.68000183 0.00248544 0.00473105 0.00101428
O 24.00385474 23.85783851 15.33883122 -0.00166248 -0.00694831 0.00568899
O 19.49880062 18.16841907 7.33386289 0.00376605 0.00359634 0.00531608
O 11.27776942 14.88248875 30.60286003 -0.00867083 0.00015164 -0.00428235
O 17.75330345 19.94153880 6.24167145 -0.00686083 0.00406094 0.00055213
O 26.13668017 5.19125207 13.32712214 -0.00094691 0.00612289 -0.00186203
O 20.96879325 13.51627025 14.25842250 -0.00239362 -0.00092931 0.00687988
O 16.68395957 3.47651590 30.68207355 0.00235538 0.00100253 -0.00127380
O 25.69220606 14.55354284 3.08759405 0.00290397 -0.00247144 0.00507550
O 17.25206570 20.32239653 25.10937214 -0.00032546 -0.00780566 0.00062605
O 25.58423154 18.59045338 5.01311484 -0.00478268 -0.00856807 -0.00125633
O 12.62749841 17.42356671 4.49038753 -0.00964950 -0.00325136 0.00544101
O 23.71163613 9.00430966 21.52538708 -0.00126360 -0.00539865 0.00304170
O 21.23550445 6.75387459 9.37861315 0.00191283 0.00198182 -0.00336641
O 18.76285672 1.66768426 3.06047430 -0.00236694 0.00373923 -0.00280547
O 21.00386079 20.90782616 16.03820959 0.00210444 -0.00189918 -0.00054327
O 24.05631248 12.99309332 8.85258149 -0.00052306 0.00634145 -0.00355492
O 21.70288156 24.60339452 23.98587891 0.00332688 0.00203264 0.00370847
O 2.64501151 15.38946401 14.85889509 0.00599870 0.01101420 -0.00108017
O 16.73297351 24.15804559 18.82350325 0.00359037 -0.00095650 0.00261697
O 18.72336939 8.30113677 17.61544742 -0.00127961 0.00201445 -0.00577348
O 20.96425431 15.91040397 10.43798000 -0.00095535 0.00094389 -0.00193248
O 14.79055605 24.12091271 30.38886305 0.00559383 -0.00376953 -0.00901092
O 21.25106058 24.51095491 21.38127159 -0.00221268 0.00882550 0.00427281
O 3.39070324 23.16591564 13.86137621 0.00257223 -0.00612214 0.00350207
O 19.44325285 24.57986682 11.04351136 0.00233965 -0.00875243 0.00113246
O 1.12230639 17.82135008 20.45609978 0.01025121 0.00366537 -0.00405347
O 14.93774582 24.83065637 26.14400700 0.00133905 0.00240199 0.00426509
O 16.50242540 17.62046454 30.91936120 0.00099390 -0.00599951 0.00293546
N 15.16772121 20.80621100 11.52463630 -0.00143247 -0.00552413 -0.00029837
N 4.01093314 3.18520879 8.88149719 -0.00115778 0.00561026 0.00163926
N 4.45931582 22.24133220 8.27639332 -0.00434671 0.00695963 -0.00039531
N 3.13021563 9.00920354 20.77666680 0.00160871 0.00484975 -0.00032571
N 4.03727000 25.28387236 15.83649007 0.00722621 0.00271777 -0.00039010
N 4.39090067 10.64903391 28.87091294 -0.00582751 0.00777988 -0.01284746
N 4.08124611 15.73354887 2.65821017 0.00579139 -0.00505853 0.00702611
N 0.45778759 1.77247237 3.21782585 -0.00647289 0.00374912 0.00018083
N 1.45526970 17.41612763 28.13331977 -0.00122763 -0.00388958 0.00002173
N 0.80850332 9.41087969 26.27167922 0.00148353 0.00158416 0.00169518
N 20.41372047 4.00066320 24.08640256 -0.00523125 -0.00174500 -0.00374489
N 11.10242579 6.94791579 25.10105571 0.00337912 0.00389533 -0.00251113
N 7.78215460 2.63418415 0.90518938 0.00325029 0.00271334 0.00503860
N 6.85605303 8.64111514 15.82798371 -0.00088310 0.00358561 0.00382295
N 8.77553244 15.93683985 21.85790087 0.00607743 -0.00447770 0.00103543
N 5.65775348 3.57080167 13.96901243 0.00677968 -0.01049432 -0.00030608
N 8.12076243 22.24153293 10.26497270 0.00654559 -0.00533290 0.00686538
N 0.63320326 14.63947694 11.63191513 -0.00903805 0.00901771 -0.00353688
N 1.18696727 15.06921999 30.95782513 -0.00054249 -0.00142570 0.00048630
N 6.13322686 19.18511877 21.91419832 -0.00238067 -0.00194325 -0.00226111
N 3.00561575 10.53900570 15.64807401 -0.00233725 0.00440183 0.00340904
N 0.84853226 23.16343452 3.57199548 -0.00196763 -0.00632592 0.00771136
N 13.06623758 17.26028728 11.59781332 -0.00358672 0.00172403 0.00021805
N 2.56670465 2.01081506 26.80736052 0.00655595 -0.00398019 -0.00466768
N 8.88052047 0.97562814 17.38468124 0.00395774 -0.00383768 -0.00300331
N 4.02029795 21.21006010 0.23918992 0.00649422 -0.01004681 0.00253896
N 25.69953307 14.46288577 24.09889308 0.00400429 0.00578191 0.00926740
N 0.46459410 23.66596775 28.95571984 -0.00079096 0.00000742 0.00139386
N 19.24910660 12.03947102 2.90322237 0.00188143 -0.00307199 0.00349786
N 5.48455806 22.17310416 24.24384362 0.00415482 -0.01173818 0.00381336
N 10.32804483 20.98930350 25.05966126 0.00482701 -0.00332954 0.01223802
N 22.48259582 18.35747355 21.34452929 -0.00030378 -0.00204920 0.00106732
N 11.78411411 8.41551478 3.93320306 0.00269510 -0.00165167 -0.00100647
N 11.12658328 1.52793992 7.74777281 0.00595358 -0.00412921 -0.00457951
N 14.00379424 4.36185822 7.87623818 -0.00348436 -0.00532084 0.00184253
N 16.05418427 11.64738669 15.50599245 0.00308375 0.00477135 0.00016938
N 9.34606443 20.40070003 13.77283707 -0.00098780 0.00083110 -0.00337081
N 20.02682987 11.26305041 10.15647419 -0.00393388 -0.00613100 -0.00147316
N 11.92895520 13.94447561 7.34832535 0.00576935 -0.00151068 -0.00700728
N 16.38495258 9.48221589 10.53468755 -0.00346854 -0.00576097 -0.00319825
N 13.91027472 10.56641363 18.59556801 -0.00223795 0.00579641 0.00313246
N 8.50580044 5.66017951 22.37650269 -0.00231052 -0.01001086 -0.00152625
N 15.21917009 0.90927011 9.77364193 0.00294198 0.00204807 0.00433381
N 25.94528884 7.54588591 3.57195521 -0.00035679 -0.00733561 0.00075983
N 8.45149855 1.61227527 26.13494827 0.00284456 -0.00261763 -0.00597047
N 17.98645986 3.75065468 17.78257844 -0.00196459 -0.00050135 0.00497121
N 5.66042058 12.43588212 12.92460681 -0.00608888 -0.00509965 0.01314432
N 21.21631028 7.06521010 26.48609634 -0.00246545 0.00494297 -0.00046475
N 7.31478234 7.51116458 0.62523356 0.00065177 0.00372322 0.00401905
N 5.47512677 9.00581301 7.35075291 0.00129629 0.00515898 0.00582116
N 18.37040805 8.78957771 31.47911880 -0.00281618 0.00083302 -0.00723164
N 23.14482494 15.35460226 18.33886505 -0.00066366 0.00731525 -0.00135622
N 8.79147447 11.16050961 6.26470641 -0.00669414 0.00023583 -0.00062146
N 18.09664441 2.20550088 12.18564381 -0.00227889 -0.00345632 0.00003566
N 16.84736895 5.64418544 4.51626470 -0.00950907 0.00051074 -0.00505868
N 9.46802542 21.27999507 5.27019306 -0.00321552 0.00616916 -0.00033577
N 23.35753113 0.08184544 19.46386404 -0.00062776 0.00744738 0.00621224
N 12.54273277 12.29672435 29.67751915 0.00409306 0.00244167 0.00385892
N 12.67152155 13.66097208 20.42461717 0.00173036 -0.00109451 0.00013883
N 11.30196056 24.40685920 1.97892965 0.00422567 0.00336116 0.00025631
N 8.82589588 13.14316268 29.02457871 0.00067837 0.00047492 0.00205777
N 16.79723904 15.38083256 25.27950867 -0.00693759 0.00737430 -0.00434392
N 9.95999809 6.61563354 14.78261308 0.01013987 0.00542894 -0.00683829
N 12.09955080 20.19055308 18.48398093 0.00631691 -0.00252493 -0.00751041
N 22.68012520 16.70073187 9.14850541 -0.00256915 -0.00243377 -0.00010467
N 23.34306051 9.03101681 14.43855178 0.00169577 -0.00295225 0.00791744
N 14.49862651 3.33305124 31.32394305 0.00716824 0.00861135 0.00497603
N 25.03935471 8.09384819 8.19059697 -0.00045614 0.00579227 0.00181748
N 20.14898292 22.41179567 11.56601654 -0.00437659 0.00526648 -0.00217833
N 1.40112787 11.95639671 5.59193237 -0.00248416 0.00375341 0.00041222
N 14.36680908 16.44566257 3.31051864 0.00066808 -0.00151436 0.00106761
N 22.29725984 0.34708863 0.95407106 -0.00307711 -0.00272069 0.00856668
N 24.29450902 3.85898642 13.02838934 -0.00280795 -0.00220548 -0.00109464
N 11.14165663 18.37733035 31.57718728 -0.00959832 0.00406452 -0.00065950
N 19.51935164 24.58079026 19.93397091 -0.00037769 0.00125140 0.00240846
N 19.12220406 13.68476801 29.99282477 -0.00194631 -0.00029517 -0.00477252
N 18.85279869 20.71452920 26.65145291 -0.00102389 0.00580974 -0.00508458
N 1.19292071 4.98147655 25.25987775 0.00529637 0.00300720 -0.00259316
N 15.35871818 0.17600890 23.97816502 0.00275996 -0.00411622 0.00485070
N 1.76487939 4.04115970 19.85938743 0.00067264 -0.00394397 0.00506649
N 20.74060506 22.11752317 4.90641522 -0.01203157 0.00792571 -0.01380823
N 21.46000694 15.80371626 14.10603794 0.00201401 -0.00423916 0.00105155
N 10.91078655 22.31776706 31.11690375 0.00512119 0.00228996 0.00431083
N 1.98959865 21.87073832 14.92293166 -0.00537779 -0.00537198 0.00328045
N 16.59118194 15.38369556 14.56297499 0.00093418 0.00071015 0.00401436
N 24.96904890 19.23543791 7.14307025 -0.00400940 -0.00547114 -0.00117701
N 24.65795709 23.32818963 9.94160479 0.00302310 0.00782519 0.01195265
N 16.84069190 19.13315986 0.80599809 -0.00108597 0.00310818 0.00626201
N 11.32934981 23.88167183 16.58259441 0.00513520 -0.00211135 0.00331238
N 17.00083263 24.46915483 30.04244616 -0.00519445 0.00144839 0.00159380
N 15.30076569 7.47042574 27.08080412 -0.00016529 0.00455660 -0.00374074
N 23.46456611 14.62690476 3.61277538 0.00258124 -0.00305254 -0.00730639
N 17.61659082 9.46345508 21.14693041 -0.00650212 -0.00344544 0.01011705
N 2.72585605 18.81927185 19.18394684 -0.00699433 -0.00657650 -0.00205805
N 22.61142768 21.04896450 25.08927985 0.00204519 -0.00207935 -0.00588017
N 23.15076106 10.64160289 20.04241878 -0.00060545 -0.00901898 -0.00085169
C 6.79297941 22.22311411 12.35760152 -0.00073532 0.00678147 -0.00061207
C 4.99250728 1.23017344 10.26794892 -0.00265889 -0.00136470 0.00247349
C 3.50890825 14.52615929 30.53123667 0.00502289 -0.00499924 -0.00366714
C 2.27995185 11.25440758 20.43183424 0.00431404 -0.00316306 -0.00678832
C 1.84670367 10.26221695 13.58575476 0.00989050 -0.00155119 0.00619124
C 5.28007003 10.53301210 31.23998180 0.00337473 0.00263437 -0.00288193
C 12.57016684 17.43745546 13.98253269 0.00520811 0.00436713 0.00477320
C 25.48405529 1.21260910 5.40509078 -0.00693287 0.00621261 -0.00001922
C 6.04253297 21.52535796 13.29127923 0.00175862 -0.00851441 -0.00932838
C 4.71630530 0.01554047 10.73757947 -0.00833800 0.00599817 0.00546737
C 4.82312966 14.90676094 30.27091105 0.00760585 0.00140164 -0.01184351
C 1.41986585 12.13375000 19.79380377 0.00932338 0.00276583 -0.00793841
C 1.32023680 9.39071015 12.59099898 -0.00692325 0.00855922 -0.00022190
C 5.02432136 10.10418827 0.89334018 -0.00573283 -0.01014736 0.00371531
C 11.71224541 17.28538709 15.03174364 -0.00446384 0.00938269 -0.00046230
C 25.23197717 1.58852858 6.75585910 -0.00313427 -0.00357161 -0.00133331
C 5.91777714 20.09676853 13.25996906 -0.00405587 -0.00396659 -0.00485044
C 3.43344879 24.77982444 10.84849349 0.00312980 0.00491090 -0.00447447
C 5.21976201 16.23295286 30.23697878 -0.00020736 -0.00390216 0.00874787
C 0.55808468 11.60596365 18.82113791 0.00008905 -0.01096146 -0.00666240
C 1.26378035 8.00356089 12.88798843 0.00780147 0.01103903 0.00094943
C 3.77129413 9.71531606 1.36075258 0.00421352 0.00541684 0.00094591
C 10.59931627 16.51631895 14.93432126 -0.00595851 -0.00548555 -0.00436912
C 25.52031210 2.90418042 7.21660858 -0.00047178 -0.00938511 0.00361892
C 6.69055575 19.49354281 12.18029537 0.00108021 0.00481932 -0.00188464
C 2.37733079 0.16733401 10.23213896 -0.00031876 -0.00408857 -0.00209408
C 4.13971539 17.22479946 30.36265123 -0.00518251 0.00050700 0.00084783
C 0.29468381 10.19922244 18.72083472 0.00137242 -0.00380300 -0.00557247
C 1.48701282 7.63001346 14.25579142 0.00109256 0.00464250 0.00225847
C 2.82422145 9.50708618 0.35757017 0.00316009 -0.00168615 -0.00354617
C 10.20307814 15.98023008 13.68674452 0.00566287 0.01093467 0.00996587
C 26.10490405 3.80120805 6.29390720 0.00866736 -0.00415709 -0.01282482
C 7.18583319 20.20470159 11.15317836 0.01121328 0.00148087 0.00335521
C 2.59394521 1.43372773 9.76806696 -0.00066542 0.00857845 -0.00165668
C 2.88497325 16.81625066 30.62188765 0.00967589 0.01191951 0.00254800
C 1.22014093 9.33425681 19.26373652 -0.01315662 0.00721963 0.00140491
C 2.11280254 8.48041388 15.16745354 0.00746343 0.00222634 0.01078615
C 3.07444039 9.66868325 30.69525668 0.00072966 -0.00203255 -0.00953099
C 11.03103695 16.21318778 12.61136186 0.00508240 -0.00026560 -0.01335801
C 0.25761565 3.40571071 5.06379509 -0.00010343 0.00202301 -0.00036803
C 7.38041199 21.60737243 11.25302566 0.00461491 -0.00448436 0.00037705
C 3.89362522 2.03925087 9.67207338 0.00570417 0.00231272 0.00133479
C 2.51076273 15.46191121 30.83521133 -0.00684749 0.00280447 -0.00007066
C 2.22746572 9.88549139 20.18877099 0.00712049 0.00974500 -0.00179803
C 2.31161520 9.77584444 14.83279398 0.00302673 0.00649751 -0.00897208
C 4.26655089 10.27918616 30.25805139 -0.00532466 0.00366483 -0.00508768
C 12.16779834 17.04108317 12.64562809 0.00371951 0.00361886 0.00655969
C 26.05118503 2.14504816 4.53967836 -0.01138145 -0.00377948 -0.00548023
C 8.21455679 23.58153138 10.05391690 -0.00055856 -0.00034433 -0.00189915
C 3.10519874 3.99155621 8.25872729 -0.00069295 0.00500761 0.00012563
C 0.53739512 14.07273946 30.20231752 0.01156570 0.00107822 0.00230990
C 4.19480920 9.40089841 21.57275068 -0.00609655 0.00547930 0.00166198
C 3.37272319 11.84062283 15.55566652 -0.00212682 -0.00643547 -0.00155366
C 5.54010239 11.12298942 28.32465194 -0.00217692 -0.00292327 -0.00379801
C 12.90085611 16.88886652 10.32649801 -0.00577006 -0.00146798 -0.00419357
C 1.06310264 2.74783949 2.47358860 -0.00288216 -0.00152193 -0.00807918
C 3.49259402 16.90980502 27.00442297 0.00286005 0.00150057 -0.00226490
C 3.51779884 4.46013915 6.85408384 -0.00106441 0.00184750 0.00250149
C 3.23878754 20.85763935 9.81680122 0.00432665 -0.01323701 -0.00519604
C 11.10310653 7.69421446 27.33592601 -0.00276569 0.00557627 -0.01114805
C 7.44063999 2.12855218 3.10601434 -0.00820025 0.00783124 -0.00168713
C 5.30368948 12.01699396 27.03175897 -0.00374353 -0.00144592 -0.00464914
C 2.64703623 15.34160422 4.63812482 -0.00034175 -0.00677391 -0.00565280
C 4.20864464 5.07537681 12.64583312 0.00764128 -0.00002320 0.00735785
C 8.05512097 0.26336584 15.24237620 -0.00078495 -0.00532190 -0.00276189
C 3.08873390 9.06115356 25.86880401 0.00627340 0.00775906 -0.01047197
C 1.69609281 13.48329170 24.29866634 -0.00204482 -0.00165746 -0.00274114
C 12.37061554 6.70173153 23.07974013 0.00613638 0.00277705 -0.00988908
C 21.12138791 11.69734036 1.29968265 -0.00258597 0.00334984 0.00191961
C 6.14788590 8.70815723 13.61426943 0.00173744 0.00102969 0.00683378
C 11.81449787 19.71995473 23.54562078 -0.00046509 -0.00623785 -0.00209772
C 4.51384048 4.70616751 15.90078707 -0.01588226 -0.00693564 -0.00357370
C 8.15010097 0.25781675 13.84940687 0.00562060 -0.01051057 -0.00251640
C 4.36045563 8.63357110 26.33537919 -0.00052013 -0.00827111 0.00105950
C 3.03139939 13.46632407 24.04721361 -0.00364962 -0.00650775 0.00399427
C 12.85338717 5.97183997 22.04985644 -0.00065799 0.00543200 -0.00219497
C 21.89935469 12.24785482 0.26351518 0.01069540 0.00605246 -0.00216274
C 6.29678961 8.75628186 12.23812846 -0.00270080 -0.00076203 -0.00372865
C 13.11349545 19.37980050 23.15751181 -0.00086820 0.00042483 -0.00369089
C 4.58934279 5.17099319 17.19603275 -0.00047079 0.00251049 -0.00044237
C 9.05509267 1.07123508 13.23079473 -0.00995043 -0.00146077 -0.00069545
C 4.50155373 7.91701510 27.47453559 0.00653745 0.00619589 0.00347872
C 3.71136299 14.61143654 23.51857076 0.00273812 0.00237689 -0.00338035
C 12.76921479 4.55495755 22.13620593 0.00246187 -0.00350773 -0.01018940
C 22.00195898 13.65831500 0.03199179 -0.00052967 -0.01159800 -0.00149627
C 7.61826547 8.91931607 11.79499412 0.00306667 -0.00183870 0.00784761
C 14.27160492 19.84692400 23.90548860 0.00490352 -0.01187861 -0.00274269
C 5.77062093 5.27607649 17.90751399 -0.00058872 -0.00427048 -0.00582463
C 9.76615019 2.07373633 13.87910254 0.00325565 -0.00706089 -0.00433677
C 3.33988538 7.40834706 28.14517288 -0.00163898 0.00264727 -0.00094031
C 2.88755031 15.69436716 23.11249466 0.00337237 0.00115851 0.00616998
C 12.12680775 3.92907491 23.21174889 0.00366742 -0.00752681 -0.00566088
C 21.09968578 14.45360534 0.79903148 -0.00577545 0.00197776 -0.00187132
C 8.67444920 9.20936731 12.63088329 -0.00717716 0.00348603 -0.00034501
C 14.02697742 20.95823256 24.79720301 -0.00434946 -0.00234573 -0.00305483
C 6.93777776 4.82294434 17.20675731 -0.00349734 -0.00449346 0.00059943
C 9.78447362 1.94376237 15.26291880 -0.00874614 0.00191585 0.00632912
C 2.08894028 7.82015176 27.73349549 0.00272221 0.00992359 -0.00076917
C 1.46425422 15.57845251 23.10273351 -0.00403566 0.00063154 -0.00770709
C 11.60387027 4.65778609 24.27130370 -0.00076524 -0.00839805 0.00528071
C 20.24192955 13.87607851 1.70495759 0.00252147 0.00448088 0.00238556
C 8.48306450 9.31182982 13.99742730 -0.00478601 0.00364876 -0.00811589
C 12.77381352 21.23090894 25.24653187 0.00785889 -0.00015404 0.00460211
C 6.86191854 4.32912440 15.94869211 -0.00218694 -0.00796070 -0.00373636
C 8.92477909 1.07865245 15.95753437 0.00572013 0.00017045 -0.00270468
C 1.96945414 8.72692379 26.61565795 0.00736889 -0.00885730 0.00008121
C 0.83802173 14.48361657 23.77617200 -0.00495421 0.00407196 -0.00595228
C 11.73417026 6.09644650 24.15114741 0.00261398 -0.00187884 -0.00912342
C 20.21946659 12.45794137 1.95785388 0.00251677 -0.00972964 -0.00637803
C 7.19893918 8.88713649 14.47830942 -0.00083409 -0.00097862 -0.00002877
C 11.57818090 20.68106922 24.58839214 0.00426238 0.00746952 -0.00485391
C 5.65294091 4.21553651 15.18869096 0.00259370 0.00269718 -0.00101844
C 9.84355011 1.46295587 18.25827613 -0.00027278 -0.00138438 -0.00317667
C 26.12980473 9.94085177 27.27761206 -0.00103847 -0.00139555 -0.00676583
C 24.74535815 15.40873793 24.02067553 -0.00486106 -0.00295882 -0.00007116
C 10.93059108 6.59936322 26.40104939 0.00429193 0.00998360 0.00079059
C 19.29688510 10.84984449 3.52718063 0.00187493 0.00740483 -0.00463682
C 7.61970389 9.09317575 16.88337758 -0.00815081 0.00055290 -0.00445178
C 10.18135050 21.53474114 26.30206897 -0.00442107 -0.00669875 -0.00779809
C 5.39573624 4.10596109 12.73145683 0.00132166 0.00681336 -0.00834371
C 14.05708004 22.16311966 13.23977002 0.00372514 0.00248483 -0.00128134
C 24.93175150 10.77717148 26.73191272 -0.00209259 0.00735790 0.00186578
C 19.50837152 5.43271214 22.26148717 0.00612987 -0.00371464 0.00232858
C 5.30535101 8.40155573 21.81934707 0.00507481 -0.00101267 0.00043627
C 3.69055234 1.12666258 13.79214876 0.00201790 0.00121551 0.00082285
C 7.19781974 8.71303539 18.27054464 -0.00092136 0.00174960 0.00465696