1920
Time=58000.00000005 pbc="T T T" Lattice="26.15894902 0.00000000 0.00000000 0.00000000 24.88582367 0.00000000 0.00000000 0.00000000 32.02322718" energy=-12204.97303963 virial="-41.87923158 -1.43326940 32.37056566 -1.43326940 -32.47576407 -15.62070310 32.37056566 -15.62070310 -102.58718301" stress="0.00115929 -0.00005805 0.00142898 -0.00005805 0.00152895 -0.00068420 0.00142898 -0.00068420 -0.00178342" Properties=species:S:1:pos:R:3:vel:R:3
O 4.87347842 20.75376829 15.56974400 -0.00262829 -0.00440263 -0.00621474
O 5.04218529 23.16513814 11.61941315 0.00157600 0.00648929 -0.00869958
O 5.90284106 16.41542599 31.32111569 0.00664088 -0.00486480 0.00026253
O 26.10207447 12.17429928 18.43607306 0.00103533 -0.00634060 0.00436895
O 1.52228234 6.67297331 13.09751428 -0.00298300 -0.00174581 0.00070834
O 2.98543103 9.12356666 2.59236308 0.00043010 0.00551711 -0.00056887
O 9.86151705 15.60134570 16.13891295 0.00621312 0.00275137 -0.00312139
O 24.47330224 3.68241973 9.45520329 0.00030702 -0.00311561 -0.00090253
O 9.48578946 1.69516785 19.84946952 0.00062844 0.00184970 -0.00194413
O 2.49024150 3.56281213 9.14043032 -0.00175087 -0.00408434 0.00293474
O 25.16410089 13.23857060 31.59629833 -0.00261569 -0.00170431 0.00545743
O 9.79529193 4.24570610 26.01771322 0.00489777 0.00526524 -0.00592270
O 20.12958069 9.98717155 3.83792889 0.00483613 -0.00703802 -0.00188174
O 6.10376027 11.93137197 29.71276028 0.00485232 0.00068622 -0.00116830
O 12.11807668 16.86198783 10.37701577 0.00271743 0.00500622 -0.00537282
O 6.32840129 5.08625096 11.89520905 0.00103069 0.00346112 0.00341026
O 9.41458174 0.97941570 12.24675650 0.00573077 -0.00503839 -0.00261939
O 4.49675216 7.71160013 26.85807459 -0.00238858 -0.00288252 0.00209897
O 4.49311380 14.17847021 24.18809093 -0.00234170 -0.00382181 0.00178671
O 13.67824793 3.50767325 20.98656174 0.00043371 0.00600817 -0.00008512
O 22.40700531 12.95768784 31.04915781 -0.00232260 0.00812237 -0.00170542
O 7.97817772 9.53551596 11.03889937 -0.00305191 0.00383006 -0.00925238
O 14.76246119 19.83965094 23.59178542 0.00852244 0.00756079 -0.00302253
O 5.81791892 5.16346755 19.45360485 -0.00884592 -0.00081200 -0.00130177
O 8.67296142 23.53839543 11.43158248 0.00533360 0.00287948 -0.00252966
O 25.08103083 7.56897662 29.76738195 -0.00144834 0.00125898 0.01134440
O 23.17461021 15.36840039 23.66860333 0.00569198 -0.00917644 0.00235853
O 3.89887421 10.45870391 23.15381266 -0.00031976 0.00203417 -0.00879152
O 3.77139646 11.96302028 15.68975292 0.00359179 -0.00926719 0.00224710
O 8.73704274 10.53636998 17.15638091 0.00239701 0.00621331 0.00380984
O 10.16064494 20.26478187 27.56883078 -0.00004119 0.00135576 0.00360833
O 1.01349461 3.69615250 3.83074022 -0.00341966 -0.00343635 -0.00220573
O 18.30395092 18.50980316 8.48214820 0.00242108 0.00329912 0.00456394
O 4.61171446 17.80914894 8.81451637 -0.00028197 -0.00333839 -0.00839923
O 6.31012311 22.70891070 3.05534559 -0.00134887 0.00480242 0.00291459
O 5.67853305 18.53257877 16.86322697 0.00571309 -0.00131324 0.00394654
O 5.83984936 0.02792314 21.21401900 0.00134846 -0.00037081 0.00181330
O 5.35622524 1.34958128 4.43666434 -0.00218420 0.00095576 0.00859585
O 8.21437953 17.73209990 5.14295957 -0.00582161 0.00149818 0.00232148
O 24.37225689 23.86192028 26.44865191 -0.00634698 0.00228944 0.00126473
O 1.37065264 15.22615228 27.25426866 0.00412664 0.00688374 0.00159447
O 1.18410415 12.53111372 9.75163937 -0.00356392 -0.00895250 0.00995631
O 3.65751179 19.99289617 7.87608417 0.00941731 0.00274015 0.00137931
O 25.15849903 22.27757396 30.08184518 -0.00621041 0.00172869 0.01050757
O 6.57126589 2.43003623 2.06747902 -0.00353474 -0.00269107 0.00304430
O 0.45087351 22.50261199 6.06405483 0.00147152 0.00317149 0.00519059
O 1.62635798 14.86097527 2.74488426 0.00311629 -0.00712279 0.00647894
O 23.20275377 18.78637717 19.52473924 -0.00165600 0.00140112 -0.00633335
O 22.53304716 15.58067302 31.07079449 0.00281211 0.00219602 0.00271146
O 24.61856777 18.50347734 2.48283620 0.00349547 -0.00103851 0.00476159
O 21.34210441 0.97122365 28.78844405 -0.00300743 -0.00049688 0.00105499
O 6.43824459 22.58563663 30.26785494 0.00009849 -0.00623723 0.00433644
O 6.33048250 4.88681844 28.45973416 0.00115746 -0.00075797 -0.00623323
O 26.12651607 22.14271547 22.97311487 0.00902797 0.00731142 0.00589355
O 6.08717630 11.46730632 24.18320477 0.00591311 -0.00637192 -0.00183584
O 17.44587589 19.74818353 21.92383507 0.00372989 0.01178380 -0.00221944
O 14.89380364 19.58980883 13.53663680 -0.00270956 -0.00347319 0.00980670
O 5.76419267 20.58565395 1.32360749 -0.00510658 -0.00541035 -0.00462849
O 19.12996600 3.93548619 23.64706684 0.00121423 0.00389564 0.00320577
O 5.14479429 16.25053290 22.61311666 0.00217888 -0.00083247 -0.00223218
O 4.13578344 2.41875416 15.53755683 0.00021850 -0.00061842 -0.00696831
O 6.05419717 22.46333180 21.85536286 -0.00194710 0.00172009 -0.00524265
O 9.39739552 17.55178164 20.85484093 -0.00634351 0.00100649 -0.00342382
O 4.87712923 2.92471831 27.28041873 -0.00463028 -0.01031407 0.00429304
O 3.33402253 3.81858647 3.21401442 -0.00542231 -0.00067542 0.00561847
O 7.92498504 5.02641448 9.93992809 0.00037592 -0.00315526 0.00666086
O 17.55743854 11.77492993 27.58802783 0.00669619 -0.00335333 0.00568059
O 12.63608645 9.33519329 13.11747344 0.00492549 0.00132454 0.00746820
O 10.45987636 6.43432225 8.01760679 -0.00538125 0.00138749 -0.00340499
O 15.57119358 9.65299956 6.95808084 -0.00728330 0.00030409 -0.00309677
O 19.56674651 2.66200252 8.66523886 -0.00081375 0.00006844 0.00404951
O 20.49912548 11.43085511 14.65913251 -0.00408948 -0.00143902 -0.01325881
O 24.20991553 24.30540053 16.96542670 -0.00523464 0.00045389 -0.00071884
O 12.93033341 0.44885226 6.34708405 -0.00305221 0.00324502 0.00535071
O 19.59354174 7.76385392 31.91796238 -0.00329045 -0.00221232 -0.00347801
O 1.63289404 7.24804162 3.01978285 0.00823560 0.00439260 0.00199836
O 8.06953769 15.31419675 30.56986858 -0.00483731 0.01030650 0.00377996
O 21.08661485 9.44225921 9.55006293 0.00200201 0.00111623 -0.00679229
O 15.67729876 6.94535217 6.14459836 0.01069730 0.00277117 -0.00401272
O 19.67905595 7.01596201 25.43682220 -0.00031485 -0.00506293 -0.00110251
O 24.36864524 4.11390243 22.64465692 0.00205708 -0.00176828 -0.00014692
O 8.90170379 9.79518164 26.22134634 -0.00543441 -0.00499331 0.00251201
O 10.75212558 12.17629724 16.57614119 -0.00416872 0.00178749 -0.00034676
O 22.20894989 7.46462070 0.12045756 -0.00049607 -0.00146376 -0.00564211
O 9.37388641 10.05993412 1.83335064 0.00631783 -0.00553487 -0.00613621
O 20.06641073 5.59573058 13.81682025 0.00288687 0.00346876 0.00578000
O 13.82507822 5.06045577 18.92541916 -0.00027548 0.00010676 0.00170637
O 18.60375643 4.55774061 31.42082554 0.00020422 -0.00195775 0.00353910
O 5.24945368 6.76473670 29.95644123 -0.01351498 0.00501941 -0.00179856
O 7.71127583 6.48288761 20.88721351 0.00174070 -0.00061702 0.01146715
O 11.16801954 13.07362124 22.80722183 -0.00392703 -0.00679690 -0.00033140
O 18.12681236 9.78892687 16.14305724 -0.00273755 -0.00428741 0.01157948
O 8.59107578 10.96713239 4.21265777 -0.00482140 0.00476359 0.00445091
O 16.01339305 3.62551872 18.58136175 0.00349870 -0.00005980 -0.00015015
O 12.25771716 6.86538201 12.80923771 -0.00603696 0.00117624 -0.00290655
O 15.17351873 11.63450618 10.95475839 0.00269240 0.00275465 0.00337758
O 11.93249048 6.83920246 31.06456277 -0.00315781 0.00124570 -0.00016853
O 5.53445712 14.14422769 6.40471987 0.00626707 -0.00029525 -0.01116676
O 12.78567107 2.52856595 1.49460548 0.00037832 -0.00119727 0.00437927
O 25.54460932 16.13892914 12.49505999 0.00555682 0.00462318 0.00957935
O 12.52819969 22.00433122 9.48234809 0.00375642 0.00411729 -0.00182030
O 15.90292173 23.40293888 16.83378632 0.00113467 -0.00249598 0.00532323
O 8.45598005 13.04443960 11.80568517 0.00171420 0.00122488 0.00366836
O 9.71906822 16.98557654 9.56997861 0.00271823 -0.00275692 -0.00136240
O 12.23393128 8.62346538 20.05966698 0.01251829 0.00909347 0.00083997
O 7.02163123 8.39673607 8.95197892 0.00301730 0.00586940 0.00180454
O 12.72025061 5.79757880 6.80118054 0.00961639 0.00097072 -0.01021224
O 13.18846009 0.03374038 1.23483373 0.00260533 -0.00598311 0.00146981
O 8.18794728 1.00474818 28.73030294 0.00065814 0.00586520 -0.00555795
O 17.70912599 2.46703784 10.60502188 0.00111537 -0.00470298 -0.00282794
O 14.21565316 13.30197000 8.84660024 0.00110954 -0.00104341 -0.01371608
O 10.21883675 19.00222465 18.96174674 0.00043044 0.00299540 -0.00202289
O 14.55200809 12.17765564 24.75383687 0.00191666 0.00348259 0.00112698
O 11.01868674 11.41288404 25.17034184 0.00102280 -0.00028812 -0.00173438
O 17.53714447 22.67896526 5.26137371 0.00293661 -0.00290712 0.00386595
O 7.46873118 24.76581793 30.79746731 -0.00234864 0.00256287 -0.00707765
O 10.34563951 24.68540963 21.36077895 0.00367408 0.00163429 0.00157382
O 17.66500495 15.37058937 19.82209344 0.00179987 0.00561064 0.00590736
O 7.35632277 16.45046615 16.19879829 -0.00669079 -0.00597563 0.00189348
O 17.95748605 19.24065476 17.70980496 -0.00385023 0.00205731 -0.00809147
O 12.58492111 10.97423997 3.63332517 0.01096307 0.00177013 0.00756356
O 13.20782079 10.56184121 30.92164137 -0.00674417 -0.00459173 0.00066770
O 13.04885220 24.48542843 9.48839778 -0.01183855 -0.00461987 -0.00002840
O 24.54853149 14.25262326 18.44327230 0.00201051 0.00432781 -0.00093945
O 10.03533496 20.93379304 15.38669988 -0.00549653 0.00210618 0.00155429
O 14.91632096 16.50527138 25.41816865 0.00026195 0.00697856 -0.00638436
O 5.85915051 13.21889719 11.04465073 -0.00207318 -0.00176081 -0.00515491
O 9.92169026 22.84190041 4.69573583 -0.00389047 0.00906229 -0.00719852
O 20.82415925 20.91864943 30.24476991 -0.00905361 -0.00416069 -0.00029482
O 24.35152347 4.60909404 17.59754214 0.00202532 -0.00457682 0.00275358
O 10.48636766 18.45458636 3.77357957 0.00254825 -0.00056362 0.00319562
O 19.77349992 8.59305385 5.83315577 -0.00038654 0.00448799 -0.00176365
O 16.13333396 14.91701342 9.54141318 -0.00580049 0.00494857 -0.00257280
O 24.97290141 11.06225426 1.12954152 -0.00192742 0.00235634 -0.00057844
O 21.26293305 1.31719638 7.42919087 0.00274798 -0.00160040 -0.00069853
O 22.52730759 4.30990039 4.04396487 -0.00336027 -0.00361706 -0.00894960
O 13.76650576 24.76170767 17.51391239 0.00347194 -0.00179314 -0.00256781
O 23.94865684 11.14945780 13.75457289 -0.00156276 0.00127380 -0.00067957
O 13.37390717 21.83418802 31.19221356 0.00690181 0.00310756 -0.00268019
O 18.17521503 14.86534032 28.84151471 0.00400422 0.00879292 0.00427922
O 15.42682992 8.15958084 21.77459561 -0.00132791 -0.00148425 0.00256500
O 0.03479190 10.05997894 7.28657975 0.00384518 0.00163665 -0.00014038
O 25.56599453 20.87547660 10.73753237 0.00410672 -0.00457903 -0.00215226
O 0.77779938 4.23195243 18.47101570 0.00068469 0.00934506 -0.00157108
O 10.45523733 21.34468737 21.95534025 0.00142550 -0.00706963 -0.00690798
O 12.59283187 17.59696229 26.15017614 -0.00541935 -0.00419018 0.00344201
O 16.22796635 3.64591312 23.97792782 -0.00310025 -0.00198884 0.01186131
O 22.43160641 13.01492289 24.36109075 0.00338998 0.00267909 0.00187459
O 19.27622555 11.95220868 25.47239377 -0.00160640 0.00249141 0.00713289
O 5.42107378 2.09562168 22.85506410 0.00425599 -0.00399212 0.00142147
O 22.37314743 18.78964588 29.46435646 0.00014029 -0.00256377 -0.00078183
O 25.45864065 7.41509599 23.83119003 0.00189787 0.00744598 0.00671156
O 19.60310179 23.56214213 3.85789888 -0.00323056 0.00297344 0.00200163
O 8.65716972 17.32565018 0.53053135 -0.00405986 -0.00786660 0.00357127
O 13.50985012 8.07116572 29.30518454 0.00338446 0.00884251 0.00467537
O 24.15726974 6.09617362 9.66089249 0.00898031 -0.00092703 0.00566881
O 14.54925239 14.96365539 15.52136170 0.00139854 0.00212945 0.00636874
O 25.58036161 3.67719926 24.67676939 0.00477982 -0.00150605 0.00235603
O 24.15742326 22.16075457 24.54214227 -0.00087035 0.00527633 -0.00840402
O 23.23449871 1.07575685 30.49016209 -0.00004729 0.00553914 0.00737736
O 0.01070246 18.40183167 10.51256866 -0.00251901 0.00041814 0.00188861
O 18.98956224 17.28883776 18.77900526 -0.00409652 0.00849201 -0.00335635
O 12.25495402 0.10898592 27.49734715 -0.00203502 -0.00061492 -0.00280702
O 25.27991520 20.20352085 19.49076253 -0.00723949 0.00165361 -0.00155001
O 24.24611804 22.10385330 15.52139410 0.00005582 0.00162263 -0.00848278
O 19.23072732 18.48352408 5.80378718 0.00866868 -0.00111466 -0.00106930
O 11.09539063 15.27082492 30.86324500 0.00192217 -0.00339441 -0.00232765
O 17.66845929 20.19733723 4.55214296 0.00183724 -0.00120080 0.00480180
O 25.76583917 5.61040568 14.23269129 -0.00517419 0.00024746 0.00048380
O 21.62985954 13.69126844 13.89157586 -0.00552720 0.00084012 0.00328045
O 16.14602055 4.26784943 30.87414564 -0.00496439 -0.00191120 0.00552840
O 25.37573534 15.27850811 3.65154264 0.00148921 -0.00484494 -0.00069518
O 16.79293668 20.81967616 25.10263808 -0.00118665 -0.00997735 -0.00105253
O 25.44509664 18.50273719 5.21716487 0.00335937 -0.00121990 0.00401038
O 12.78804874 18.02070303 4.56705425 -0.00046617 -0.00931285 0.00276169
O 23.23464620 8.06950833 22.30765453 -0.00690910 0.00284599 0.00053936
O 20.57803310 7.25967150 10.76890730 -0.01231358 0.00151706 0.00051863
O 18.79843055 2.65757568 1.63786425 -0.00857285 -0.00680504 0.00187121
O 21.86031652 20.93582074 16.87526349 0.00017079 0.00261144 -0.00015052
O 24.87861972 12.38498164 9.26716127 -0.00157895 -0.00933149 0.00366691
O 21.69774113 24.69188204 24.10048285 -0.00215085 0.00097263 0.00070421
O 2.53414745 14.38990790 14.95106719 -0.00502566 -0.00951043 -0.00792259
O 17.31086013 22.91934175 18.98858494 -0.00147462 0.00394219 0.00080121
O 19.44432549 7.83074434 17.26398619 -0.00256868 0.00200602 -0.00649597
O 20.04375370 17.07695295 9.30579321 -0.00454524 0.00370400 0.00040186
O 15.42052448 22.99590032 30.50631390 -0.00368058 -0.00323766 -0.00697997
O 21.52231697 0.65869851 21.58688781 -0.00766341 -0.00210102 -0.00435995
O 2.86222596 22.81779350 13.17625348 -0.00221777 -0.00219010 0.00385988
O 19.72156013 24.40377658 11.63143381 -0.00395248 -0.00381844 -0.00700821
O 1.89794569 16.90853527 20.64310730 -0.00034104 -0.00649316 -0.00515060
O 13.86063771 24.41213565 25.42792858 -0.00244298 0.00289149 -0.00334443
O 17.44392477 17.20589567 29.58320009 -0.00456450 0.00032153 -0.00397597
N 14.92741187 21.33368011 12.03149424 0.00120056 -0.00161111 -0.00039726
N 4.62693802 2.90320006 8.62977727 0.00349909 0.00061437 -0.00415225
N 4.15253180 22.15221252 8.19184351 0.00263116 0.00444471 -0.00339061
N 3.32105453 9.05350969 21.43238125 -0.01059832 0.00513783 -0.00738654
N 4.46170551 0.15194659 15.87346480 0.00148785 0.00140959 0.00218085
N 4.51233871 10.32218310 29.53542448 -0.00421378 -0.00035907 0.00479080
N 3.87175476 15.16467067 2.82504897 -0.00263610 0.00648673 0.00101368
N 0.36024520 1.66630082 4.71223871 -0.00638887 0.00503535 0.00643770
N 0.90750338 17.21589967 28.27997857 -0.00098988 0.00328786 0.00237281
N 25.48985067 9.14773472 28.23978991 0.00461594 0.00354549 0.00145696
N 21.28945264 4.03381607 24.21033398 0.00371761 -0.00274002 0.01053038
N 10.94989450 6.01667296 25.11818408 -0.00225911 -0.00422983 -0.00895180
N 8.48072383 3.10327836 0.90695829 0.00715459 0.00363968 -0.00047345
N 7.56095058 8.76665154 16.60522580 0.00291503 -0.00071681 -0.00782643
N 8.79901221 15.88552304 22.16244749 -0.00149940 -0.00399129 -0.00004100
N 6.48780345 4.35935441 13.94410487 -0.00079763 0.00344274 0.00275083
N 8.03364577 21.38392059 11.05307652 -0.00522027 0.00159702 -0.00120294
N 1.41417035 14.11154478 11.36380753 -0.00519552 0.00174877 -0.00489958
N 0.61197265 14.81332286 31.45896512 0.00534710 -0.00717327 -0.00381590
N 6.19836592 18.25837412 22.36219538 0.00414629 -0.00475036 -0.00472165
N 3.88378764 10.09785093 16.84202151 -0.00810359 -0.00536252 0.00088390
N 1.13143444 22.58210222 3.87400108 -0.00718375 0.00375267 -0.00142793
N 13.28620755 17.54806073 12.21778438 -0.00126901 0.00550081 0.00222021
N 2.74569058 2.09792986 27.66619991 0.00224487 -0.00186049 0.00475015
N 9.18817826 1.22207933 17.71776429 0.00090977 0.00166375 -0.00160318
N 3.56754162 20.11467595 0.82832765 0.00027022 -0.01545355 -0.00050568
N 25.02667382 14.44625458 24.57556090 0.00887714 0.00460151 -0.00080495
N 1.01294242 23.28063789 29.44072164 0.00080584 -0.00288391 -0.00733559
N 19.11605049 11.92109389 3.31707174 0.00024629 -0.00461840 0.00048847
N 5.37165281 22.47244731 24.00630088 -0.00217166 0.00108974 0.00414317
N 9.54276411 20.08401323 25.30205651 -0.00075021 -0.00264071 -0.00538323
N 22.61329577 17.61931504 21.38012845 0.00965217 -0.00721244 0.00728755
N 12.02861267 8.83204137 4.22633968 -0.00417810 -0.00403499 0.00072221
N 11.66735772 1.42548226 7.95452435 -0.00781843 0.00340349 0.00342436
N 14.02929980 3.85061013 6.81269406 -0.00235637 -0.00557820 -0.00635801
N 16.32248343 11.03576714 16.64368700 0.00509073 -0.00219139 0.00979180
N 9.72254074 19.47436159 13.60609365 -0.00417056 -0.00871962 -0.00280165
N 19.79354705 11.11469646 10.22564436 -0.00854561 0.00002399 -0.00617970
N 12.29149081 13.92906077 7.73947377 0.00079814 0.00100567 0.00521164
N 16.43349197 9.74711662 11.18261848 -0.00342072 0.00170781 0.00186903
N 13.47793661 10.52808350 19.58574140 -0.00319553 0.00539848 -0.00094332
N 8.45225529 5.35003709 22.76371811 0.00222631 0.00885315 -0.00287796
N 15.22649117 0.45689424 9.58470673 -0.00492222 -0.00013086 -0.00164686
N 25.90421382 7.37816620 4.28347459 -0.00035001 0.00230135 -0.00586749
N 8.67201282 1.16398132 26.47527652 -0.00424071 0.00424884 -0.00081759
N 18.13183079 4.09476548 18.90072030 0.00326760 0.00547186 0.00440052
N 5.24558074 12.38162070 13.11085595 0.00105599 -0.00301195 0.00116042
N 21.13341222 7.11835171 27.11721526 -0.00024738 0.00945780 0.00560454
N 5.85280808 7.49938179 0.01335746 -0.00116392 -0.00227046 0.00637465
N 5.60081356 8.67443302 7.20740765 -0.00196605 0.00436867 -0.00809344
N 17.62289629 8.86719384 0.16775198 0.00379869 0.00519633 -0.00490186
N 23.14524482 15.82070977 17.60615015 -0.00136181 -0.00354138 0.00051504
N 8.62207754 11.53985876 6.46507713 0.00004081 -0.00557201 -0.00140477
N 17.93802712 1.30041685 12.52813416 0.00136012 0.01202643 -0.00537507
N 16.37595682 5.24734717 4.83972214 0.00665962 -0.00203479 -0.00159375
N 9.24837789 21.18184311 6.03743776 -0.01026299 0.00209215 0.00562118
N 24.64188149 24.76061539 19.08117265 -0.00087634 -0.00715297 0.00669148
N 12.20896519 12.57355284 30.48571881 -0.00787040 -0.00159539 0.00163223
N 12.75301220 14.02900047 21.42094471 0.00723760 -0.00108127 0.00304428
N 11.49108730 23.75234997 2.28885694 -0.00373021 -0.00339047 0.00765248
N 8.49666566 13.43488282 29.45169797 0.00394241 -0.00197815 -0.00767706
N 16.75702347 15.02801697 25.24666339 -0.00249703 -0.00288772 0.00267875
N 10.71435618 6.28894573 14.41552327 -0.00802819 0.01029662 0.00067695
N 12.37505706 19.67929519 18.74117529 0.00386743 0.00208895 0.00822542
N 21.65832552 16.25677792 7.97154265 0.00051621 0.00028146 0.00131981
N 23.41146145 9.45417005 15.10756656 -0.00222337 0.00143869 -0.00084480
N 13.77287446 4.25174284 30.90106165 0.00406355 -0.00630333 -0.00339105
N 24.65068180 7.97334692 8.49223323 -0.00082214 -0.00047228 0.00750459
N 20.31915635 22.12976230 11.62718997 -0.00050460 -0.00573475 0.01200851
N 1.63361798 10.77945209 5.90954864 -0.00745983 0.00055944 -0.00854425
N 14.22394270 17.20264687 3.04684982 -0.00146148 0.00708693 0.00021426
N 22.60561854 0.03599491 0.46484225 0.00187531 0.00149215 -0.00191217
N 24.24223897 4.13832465 13.48325513 0.00483875 0.00697338 -0.00124126
N 10.14999375 18.37255598 31.17392661 -0.00201514 -0.00474759 -0.00767318
N 19.90419615 0.11940579 20.21852714 0.00629460 -0.00269650 0.00381311
N 19.83288061 13.28138406 29.22771421 -0.00263724 0.00507931 -0.00134278
N 18.71477573 20.47459298 26.20336268 0.00111197 0.00157271 -0.00448662
N 1.19292075 4.87219887 25.33857530 -0.01055217 -0.00338034 0.00533845
N 15.11724558 0.17151050 23.67779229 0.00276303 -0.00083269 0.00124435
N 2.26832975 4.43096957 20.07624288 -0.00263589 -0.01055707 -0.00229890
N 20.90762361 21.64962172 3.77749488 -0.00161989 -0.00449105 -0.00283776
N 21.76574173 15.92887582 14.08096783 0.00428449 -0.00081643 0.00338085
N 11.03103393 22.02986750 31.60350898 -0.00071774 0.00632430 -0.00303423
N 1.96789172 21.54456145 14.76116222 0.00468669 -0.00248600 0.00456099
N 16.34250392 16.24412488 14.82271749 0.00155862 -0.00171875 -0.00103886
N 24.56248234 18.99404837 7.28914579 -0.00301150 0.00641887 0.00411768
N 24.24062567 22.76533640 10.67364165 0.00797166 0.00131151 -0.00445804
N 17.14499266 18.78730545 31.19811401 -0.00031218 -0.00434751 0.00033935
N 11.68872193 23.76637043 16.95510056 -0.00361564 0.00106672 0.00081215
N 17.36822755 23.87867073 29.70072985 -0.00675683 -0.00425108 -0.00217561
N 14.43543642 7.77241553 27.30210261 0.00351483 -0.00290972 0.00501539
N 23.55428789 14.01461323 4.06868239 0.00847526 -0.00243562 0.00079810
N 17.68818917 8.62140639 21.30884294 0.00176115 0.00683751 -0.00066270
N 2.31564464 18.28493319 18.84438428 0.00248260 -0.00600700 0.00276078
N 22.44827626 20.76759568 24.33020741 -0.00403957 -0.00344151 0.00419657
N 23.53820406 9.60391308 20.65922986 -0.00126869 0.00161939 0.00266829
C 7.47211754 21.94600669 13.35814706 -0.00267073 -0.00018514 0.00131621
C 5.88329704 1.35837571 9.90390338 0.00102792 -0.00455596 0.00384967
C 2.96475387 14.31928909 31.05342490 -0.00087467 -0.00202271 -0.00392546
C 2.15929542 11.23515855 21.19796192 0.00453282 -0.01554313 -0.00371081
C 3.17481027 9.57132351 14.53788105 0.00162463 -0.00480562 -0.01000681
C 4.98540790 10.53169435 31.98797862 0.00917794 -0.00004391 -0.00371499
C 12.02003090 17.80262622 14.38481157 0.00625040 -0.00020099 -0.00743009
C 26.12942867 1.41947611 7.04744758 -0.00444181 0.00031820 0.00230042
C 6.60525889 21.81620396 14.40746797 -0.00399017 -0.00639852 -0.00340829
C 6.03516622 0.28672941 10.67858345 0.00825683 -0.00169225 -0.00140933
C 4.29086317 14.70218367 30.98062093 0.00929293 -0.00803089 -0.00756751
C 1.40253299 12.00955247 20.34837242 0.00315121 0.00330912 0.00020312
C 2.71586767 8.63850824 13.62971492 0.00614374 -0.00273773 -0.00671298
C 4.56640356 10.18920385 1.22175269 0.00367035 -0.00225626 0.00575464
C 11.34645612 17.27396717 15.37999106 -0.01137184 0.01107066 -0.00230748
C 25.70729708 1.94938621 8.24302082 0.00158253 0.00488918 -0.00600541
C 5.57929787 20.87556329 14.45411777 0.00348656 -0.00417621 0.00971062
C 4.94795075 24.30854911 10.96977690 0.00442492 -0.00556690 0.00108646
C 4.66100494 16.05577370 31.11164570 0.01153830 0.00633267 -0.00657765
C 0.63099522 11.43430198 19.33528644 -0.00178870 -0.01240352 -0.00441768
C 2.13156307 7.42280255 13.98041418 -0.00033878 0.00643804 -0.00537339
C 3.29591436 9.57163638 1.42333191 -0.00324772 -0.00304752 -0.00540208
C 10.51712162 16.21070747 15.11555841 -0.00713972 0.00618108 -0.00182949
C 25.08552819 3.17483855 8.30009559 -0.00189290 0.00189792 0.00220989
C 5.42881545 20.04181204 13.37198115 -0.00575828 0.00329891 0.00013140
C 3.63229031 0.01397021 10.71676553 -0.00944936 0.00512082 -0.00519302
C 3.62565490 16.94750721 30.92459723 0.00280755 -0.00876282 -0.00785714
C 0.55176636 9.99180657 19.33678257 -0.00835681 0.00449367 0.00708620
C 2.11275387 7.07344341 15.37816254 0.00843578 -0.00689317 -0.00140519
C 2.37797139 9.43414139 0.30716843 0.00151579 -0.00423743 -0.00674318
C 10.50465991 15.62739696 13.84707587 0.00397839 0.00067106 -0.00889362
C 25.14892303 4.02951256 7.14102457 0.01061920 0.00477000 0.00540418
C 6.20262971 20.20092795 12.20932815 -0.00706469 0.00144997 0.00308883
C 3.49467597 1.10526612 9.89297523 -0.00031308 0.00072915 0.00373679
C 2.29359666 16.58210293 31.04620909 -0.00573029 0.00015532 -0.00062674
C 1.57257754 9.27974038 19.93640079 0.00000763 -0.00112003 0.00403070
C 2.73107769 7.99260444 16.27586946 -0.00356571 0.00371708 0.00183115
C 2.88543882 9.60354376 31.11391275 -0.00083283 0.00208343 -0.00312659
C 11.31770609 16.14157846 12.85219381 -0.00796976 -0.00297196 -0.00420068
C 25.56454512 3.59051540 5.95394837 0.00098926 -0.00132820 0.00053833
C 7.23693152 21.14517049 12.19847021 -0.00418128 0.00009788 -0.00463986
C 4.62912469 1.81360033 9.49833600 0.00206176 -0.00120875 -0.00165124
C 1.94801735 15.20286150 31.28261709 -0.01065593 0.01067621 -0.00556666
C 2.40037155 9.91830878 20.84642390 0.00171371 -0.00345264 0.00263784
C 3.35107857 9.25190528 15.90966958 -0.00288344 0.00258229 -0.00143497
C 4.15678808 10.16892163 30.87601370 0.00799234 0.00586116 -0.01362303
C 12.20592418 17.14692040 13.13274779 -0.00230833 -0.00469472 0.00275759
C 26.07692390 2.19155699 5.90815719 0.00021184 0.00212851 0.01092060
C 8.46014730 22.60848035 10.58443177 0.00506373 0.01090644 -0.00036205
C 3.42314261 3.53122047 8.39759870 0.01021588 0.00253340 0.00397727
C 26.15035175 13.67940282 30.99900475 -0.00928474 0.00044160 0.00225122
C 4.10612516 9.37154678 22.50617103 0.00211489 -0.01363280 0.00393094
C 4.15754192 11.42111302 16.70057337 0.00025377 -0.00680657 0.00235394
C 5.34349267 11.24219573 29.01753697 -0.00307136 -0.00220941 -0.00074343
C 13.12055720 17.29986282 10.87680788 -0.00563798 -0.00060021 0.00076597
C 0.74463246 2.45153321 3.67470648 0.00110849 -0.00429635 0.00059280
C 3.06971017 16.87226649 27.14411694 -0.00360062 -0.00206779 0.00068531
C 3.33447114 4.11285531 7.05442871 0.00253088 -0.00209023 -0.00396609
C 3.37361373 20.76165367 10.13961692 0.00396964 0.00219514 0.00594326
C 10.50079761 6.10381582 27.54797699 -0.00741136 0.00274058 0.00077680
C 8.65869228 2.50660122 3.20802812 -0.00764872 -0.00223281 -0.01048900
C 5.36327872 11.52711043 27.49097085 0.00502806 -0.00506182 0.00985160
C 2.53834474 14.69014241 4.96993678 0.00707513 0.00795916 -0.00397282
C 4.23723419 4.73517211 12.86568418 0.00407260 -0.00607479 0.00142565
C 8.46670685 0.49214244 15.57529566 -0.00250995 -0.00434768 -0.00277125
C 1.12259265 9.06029462 26.64707341 0.01564148 -0.00158534 0.00653035
C 0.92211393 13.28570595 25.06559437 0.00636325 0.00388323 -0.00350961
C 11.94026869 6.00221492 22.88511527 -0.00358443 0.00241016 -0.00847398
C 20.66035961 11.15891332 1.60425212 0.00191765 0.00339720 -0.00047120
C 6.90324367 8.28242425 14.34631842 -0.00628279 0.00199692 -0.00101064
C 11.27543446 19.09745191 23.93814063 -0.00965545 0.00557063 -0.00146351
C 5.01535105 5.13186713 15.86713480 0.00289413 0.00891151 -0.00048546
C 8.45281636 0.47042040 14.20017476 0.00674842 -0.01360840 -0.00378558
C 2.30577942 8.62515389 26.19129105 0.00348359 0.00760360 -0.00506433
C 2.38383389 13.12507472 24.96763010 -0.00058836 0.00513789 -0.00248863
C 12.73778171 5.47354479 21.92555670 -0.01192136 0.00078256 -0.00428346
C 21.60583762 11.38456650 0.62675904 -0.00040259 0.00501437 0.00958890
C 6.95005325 8.48411981 12.97824745 -0.00359552 0.00324366 0.01341556
C 12.53515252 19.15736873 23.37108525 0.00909101 -0.00325708 -0.00351628
C 4.97391785 5.39912025 17.22370851 -0.00795038 0.00449363 0.00659183
C 9.46048133 1.19098964 13.49070606 -0.01087770 0.00508751 0.00216032
C 3.13393451 7.97298177 27.05601812 -0.00479519 -0.00568700 0.00010621
C 3.12955102 14.09924757 24.17910116 0.00272329 0.00031539 -0.01231573
C 12.83131211 4.03680711 21.85890096 0.00134132 0.01142404 0.00200371
C 21.68965066 12.70354633 0.17988299 0.00207347 -0.00312761 -0.00867388
C 7.87484672 9.30918472 12.45508978 -0.00343389 -0.00578529 0.00094908
C 13.47516832 19.98200404 23.99603366 -0.00476312 -0.01129220 0.00017056
C 6.03750643 5.15674730 18.08086205 0.00648919 0.01056247 0.00163313
C 10.37284548 2.03200075 14.22848243 -0.00052095 0.00416521 -0.00341826
C 2.47858979 7.31288648 28.11757117 0.00199560 -0.00681580 0.00361520
C 2.39804131 15.11607275 23.53287320 0.00174603 0.00586203 0.00123011
C 12.09414046 3.23411624 22.77741792 -0.00306070 0.00833187 -0.01365108
C 20.79568567 13.71831102 0.64036925 0.00877156 -0.00557323 -0.00200513
C 8.82227545 9.93880339 13.32965482 0.00308045 -0.00291672 0.00330872
C 13.04661639 20.94713420 24.99191453 0.00663803 -0.00067007 -0.01690509
C 7.28428281 4.80619600 17.52629026 0.00180718 0.00340768 -0.00485485
C 10.33265825 2.07655540 15.64983593 -0.01147715 0.00774159 -0.00377747
C 1.20485641 7.68263796 28.62225543 -0.01160245 -0.00647268 0.00411995
C 1.01321079 15.17113164 23.59546704 0.00575745 0.00333544 -0.00157245
C 11.50936697 3.87026390 23.87603284 -0.00672261 -0.00169147 0.00337745
C 20.10358720 13.49790677 1.79575291 0.00281362 -0.00231402 -0.00517127
C 8.65015216 9.90484248 14.69684777 0.00075733 0.00096192 0.00097590
C 11.76502221 20.99563604 25.31831468 0.00073596 0.00492266 0.00637848
C 7.33362298 4.56885278 16.18015926 0.00899769 -0.00373100 0.00364210
C 9.32922926 1.30918127 16.29670558 0.00241712 -0.00831373 0.00204742
C 0.53110851 8.62332600 27.89465984 -0.00403062 0.00030917 -0.00268854
C 0.24881246 14.26227418 24.38428245 -0.01282949 0.00421775 -0.00303319
C 11.41922183 5.27043432 23.98180605 0.00107284 -0.00129983 0.00486900
C 19.96161044 12.18859733 2.27447462 -0.00135188 -0.00008107 0.00265849
C 7.73891921 9.01560428 15.20696858 -0.00377254 0.00053127 0.00144292
C 10.85208671 20.00631586 24.91360618 0.00165915 0.01163853 -0.00063735
C 6.23310917 4.65635945 15.32099606 0.00164937 0.00863803 -0.00880976
C 9.93189702 1.66068325 18.70598193 0.00608273 0.00418043 -0.00082774
C 24.69843801 8.58410033 29.21404439 0.01073986 0.00326209 0.00213752
C 24.21774291 15.54099082 24.29287872 0.00286651 0.00359293 0.00150700
C 10.37759184 5.37201924 26.18773645 -0.01351559 0.00195423 -0.00105763
C 19.16260200 10.74965919 3.96876417 -0.00102496 0.00293608 0.00061898
C 8.16926124 9.51614067 17.49581492 -0.00037537 -0.00516667 0.00459206
C 9.28998086 20.18216404 26.69273473 0.00338672 0.00565111 0.00139591
C 5.71842568 4.75144560 12.88873865 0.00085553 0.00012730 -0.00470769
C 13.70911447 21.68814538 13.98961053 -0.00380642 -0.00231441 0.00111023
C 23.49501300 9.27101030 29.58197829 0.00226997 0.00446347 0.00113613
C 20.44159370 5.61324932 22.52513653 -0.00475438 0.00020615 0.00312553
C 5.28366831 8.48554928 22.78029495 -0.00688751 -0.00352774 -0.00350317
C 4.25194029 1.11777452 13.58964562 0.00501512 -0.00227596 0.00420164
C 8.24263099 8.99991074 18.94684255 -0.00000501 0.00255879 -0.00384889