1920
Time=91000.00000003 pbc="T T T" Lattice="26.22368324 0.00000000 0.00000000 0.00000000 26.01551668 0.00000000 0.00000000 0.00000000 30.98728357" energy=-12205.04979056 virial="-80.60479668 -12.40977157 29.40189781 -12.40977157 -70.56966465 32.37829839 29.40189781 32.37829839 -53.77372291" stress="-0.00096659 -0.00062171 0.00125796 -0.00062171 -0.00002816 0.00150286 0.00125796 0.00150286 0.00061408" Properties=species:S:1:pos:R:3:vel:R:3
O 4.63440778 20.15890595 14.20109987 -0.00286280 0.00194151 0.00386166
O 4.33484554 24.28339229 11.56022483 0.00104566 0.00071149 0.00017157
O 6.59567701 17.14951225 29.45559906 -0.00046974 -0.00505063 -0.00319977
O 24.15012257 12.30870999 18.14141067 0.00309437 0.00474490 0.00751743
O 2.24219389 6.22874909 13.13684335 0.00129327 -0.00193057 0.00207660
O 3.90287124 9.66542784 2.80671124 -0.00483853 0.00965009 0.00788403
O 9.93374584 17.07770346 15.81217124 0.00343961 0.00205891 -0.00637216
O 26.14570085 2.67654575 7.21763070 -0.00259034 -0.00178785 0.00821299
O 10.62071784 2.45823004 19.55796461 -0.00029653 -0.00395004 -0.00305923
O 3.45498423 3.55257797 5.92669644 0.00325003 0.00355397 -0.00077799
O 26.03139940 14.05499718 0.20630446 -0.00111268 0.00007597 -0.00817293
O 11.24580271 5.55996756 27.10105021 0.00301016 -0.00620227 0.00000066
O 21.11407565 11.45937057 4.51105475 -0.00333349 -0.00277450 0.00135847
O 6.28626395 11.45108423 28.03640169 0.00334031 -0.00228799 0.00204891
O 12.11878021 17.91002762 10.19645214 0.00462150 -0.00569136 -0.00001139
O 6.46920228 3.44098302 12.63287416 0.00099125 0.00107780 0.00524138
O 8.59018655 0.80571340 12.25728301 -0.00481684 -0.00074779 -0.00377425
O 4.66071812 7.30750817 27.33837232 -0.00061049 0.00466738 0.00462485
O 3.83465484 15.21137780 23.07666341 -0.00151065 0.00040137 -0.00002332
O 12.45279888 2.64148643 21.46800309 -0.00086349 0.00206693 0.00275114
O 23.06162217 14.27306546 30.34189677 -0.00027855 0.00257890 0.00090234
O 8.31560148 9.67593365 10.48863808 0.00125906 0.00199643 0.00199201
O 15.16334822 23.01755782 24.36496270 -0.00528491 0.00357073 -0.00295971
O 5.79526116 6.44006765 19.71393871 0.00163023 0.00377614 -0.00547409
O 7.88933090 24.70857762 11.05070932 0.00503689 0.00340924 0.00408936
O 24.01947723 10.58561273 25.95613901 0.00420594 0.00384957 -0.00207491
O 22.75012730 15.94814813 23.07813292 0.00115082 -0.00208731 -0.00030554
O 3.33975850 11.40306321 22.03161772 -0.00799541 -0.00343131 -0.00321430
O 1.78409375 12.26050404 15.26671243 0.00493729 0.00045555 0.00268865
O 7.25207049 11.39851102 16.57953019 0.00044801 -0.00011907 0.00417010
O 9.28157608 21.50417296 26.76118448 0.00382929 0.00000765 0.00413651
O 0.21974779 4.57585405 1.26575738 0.00223434 -0.00942769 0.00438013
O 17.70177492 19.28829133 8.07393593 0.00123076 -0.00081755 0.00040539
O 4.65285714 18.22224583 8.82750292 0.00251799 0.00583260 -0.00536460
O 6.23459768 23.52520811 2.91779807 0.00156612 0.00442218 0.00021631
O 5.24700673 18.52608375 15.81698757 -0.00421932 -0.00244130 -0.01266680
O 4.53961077 0.16479830 20.89594904 -0.00262899 0.00614174 0.00279187
O 4.59654951 2.63569035 1.68369506 -0.00731486 -0.00432208 -0.00146802
O 8.99738360 17.37025487 4.55188305 -0.00962097 -0.00648274 0.00361770
O 24.41859303 24.77142570 24.60835695 0.00304276 -0.00222570 0.00326062
O 2.40227813 14.57637874 26.68888637 0.00363897 0.00240859 0.00665786
O 0.00940532 14.15788565 11.01047395 -0.00318777 -0.00043034 -0.00936274
O 3.84886656 20.62951305 7.97263954 -0.00271061 0.00282918 -0.00421715
O 0.09575871 24.14247813 27.87568550 -0.00037947 0.00253108 0.00326817
O 7.18176540 3.05787550 1.51595395 -0.00390044 -0.00286186 0.00858876
O 2.02348963 23.57987357 5.12513051 -0.00090324 0.00286101 0.00578574
O 1.86911575 14.78813305 3.38089942 -0.00028234 0.00459322 0.00722293
O 23.34211431 20.10779241 20.14514677 0.00345183 -0.00150540 -0.00386681
O 22.79803971 16.60832581 28.81870602 -0.00510087 0.00646002 0.00525266
O 25.20785638 19.56453155 2.01313541 -0.00498775 0.00012769 -0.00379220
O 21.35971119 0.42937321 28.09546853 -0.00620295 0.00730175 0.00074146
O 7.68787813 22.93220487 28.31776937 -0.00295527 -0.00145916 -0.00190850
O 6.57211753 4.02164625 26.22898376 -0.00059828 0.00580173 0.00331233
O 25.72655161 19.99233198 22.66025526 -0.00085685 -0.00501528 0.00272848
O 5.56587611 12.71360517 23.20402728 -0.00299321 0.00054645 -0.00512913
O 17.43577758 20.02171357 22.30578485 0.00023769 -0.00289520 -0.00129884
O 15.18935165 20.78740805 13.69399082 -0.00376552 -0.00258600 -0.00163158
O 6.14275642 21.51734583 1.10506422 0.00076200 -0.00739308 0.00067814
O 18.85912873 4.58753801 23.82647756 0.00282243 0.00324259 0.00968549
O 4.79706376 17.19724442 21.88497779 -0.00395966 -0.00771429 -0.00194139
O 3.76106351 2.25575710 14.96092964 -0.00100334 -0.00295877 0.00262421
O 4.25401734 24.02378906 22.31721045 -0.00327524 0.00797964 0.00433671
O 9.79283593 18.49743714 20.24013359 -0.00026559 -0.00219115 0.00126269
O 5.05737326 2.05818626 25.58879942 -0.00373735 -0.00492731 0.00018355
O 2.85082138 5.16820528 4.06182882 0.00468924 0.00245551 0.00692086
O 7.21212364 4.79261500 10.35773214 0.00197149 -0.00042631 -0.00878941
O 17.53367389 12.82344241 26.92938794 0.00344518 0.01054127 -0.00747693
O 11.87104684 9.33485699 13.19672519 -0.00022983 0.00300429 0.00655918
O 10.39259681 6.26409955 7.29755980 -0.00297774 -0.00401295 0.00732599
O 15.56861464 9.32663283 7.36435821 -0.00039748 -0.00501458 0.00306665
O 19.75163509 2.79256295 8.14892940 0.00053879 -0.00227731 0.00663366
O 20.79540586 11.81961363 13.79125617 -0.00096725 -0.00568351 -0.00237893
O 23.07400631 25.04569719 16.56377333 0.00084708 0.00201542 -0.00388043
O 12.83361395 1.26323743 6.90571375 -0.00459600 -0.00248577 0.00349986
O 20.56223358 9.27092602 0.06721043 -0.00452371 -0.00177269 -0.00065692
O 2.06127591 7.69707257 3.15031919 -0.00099573 -0.00022121 0.00201688
O 8.69035030 15.76605346 29.46744982 0.00201684 0.00953698 -0.00235545
O 21.42204445 9.34137834 9.47145976 0.00212409 0.00143431 0.00150596
O 15.55993934 7.02683720 6.37685717 -0.00516054 -0.00161294 0.00671610
O 19.59021307 7.40568149 25.20950662 -0.00015065 -0.00437444 -0.00701664
O 24.17579248 3.63175312 22.43870375 0.00061197 -0.00520037 0.00272618
O 7.84025727 10.80240912 26.27188695 0.01142043 -0.00595530 -0.00022564
O 9.61900339 12.68857380 16.32015416 -0.00088265 -0.00095058 0.01154490
O 22.68061069 8.06219227 30.64806776 0.00429266 0.00178841 0.00118081
O 9.52152023 10.36802167 1.49041425 -0.00514439 0.00205704 0.00105888
O 20.01726480 6.04176765 13.48413884 -0.00223022 0.00311283 -0.00767026
O 12.88667546 5.69974606 18.54098974 0.00559762 0.00893124 0.00455453
O 19.45647991 4.39433095 30.84109319 -0.00015405 0.00889960 0.00153104
O 5.25426470 7.56446479 29.78002158 0.00096167 0.00394851 -0.00223565
O 7.90267956 6.97174329 21.24264465 0.00050720 0.00914559 -0.00049363
O 10.99540106 13.91544634 22.57267414 -0.00221199 -0.01092402 0.00040071
O 17.56214672 11.30835495 15.49254608 -0.00411223 -0.00476466 -0.00300293
O 9.50203340 11.35052808 4.04438658 -0.00613252 -0.00432340 -0.00509966
O 15.38407628 5.53327396 17.78851227 -0.00338733 -0.00044979 -0.00133924
O 12.12373872 6.79462067 12.27889557 -0.00725510 0.00280352 0.00605448
O 15.29900024 11.89126347 10.57413530 0.00016506 0.00011832 -0.00409581
O 13.04979134 7.37434796 29.14350549 0.00108762 0.00138994 -0.00031832
O 6.88133488 13.86252541 5.68370610 -0.00823448 -0.00320704 -0.00489654
O 13.07856859 4.02656612 2.33417034 -0.00348754 0.00189839 0.00677940
O 25.29155837 17.16936381 11.78667207 -0.00105450 0.00566229 -0.00885719
O 11.90426596 22.77214299 9.38394788 0.00791371 -0.00039713 0.00128185
O 15.59784380 24.42455715 15.75253786 -0.00135334 0.00342193 0.00135872
O 9.08775372 13.27571474 10.78314003 0.00379582 -0.00574672 0.00360734
O 9.72287305 17.72457908 9.20171759 -0.00230203 -0.00527612 -0.00382846
O 11.07301053 10.04453579 19.15288589 0.00062889 -0.00184956 0.00479891
O 6.83979471 8.37932579 8.98839535 -0.01312082 -0.00068767 0.00475055
O 12.34329480 5.42636891 8.57328388 -0.00534815 0.00271664 0.00277474
O 13.38981878 1.31342360 1.36102047 0.00010152 0.00648972 -0.00268899
O 8.27730239 1.38826682 27.36218037 0.00182611 -0.00505071 -0.00895646
O 19.21580939 2.93308325 10.64609366 -0.00117918 -0.00664448 -0.00732579
O 15.01747703 13.99947754 7.98419764 0.00161024 0.00229498 0.00419748
O 10.76744634 19.86126219 18.42309642 -0.00376574 -0.00191783 -0.00153571
O 14.36274123 11.51833611 24.23934915 -0.00615665 -0.00089813 0.00262518
O 10.65783933 11.71323726 24.16132171 0.00282451 0.00655291 -0.00117051
O 16.97742279 25.02138947 4.14503286 -0.00565449 -0.00646665 0.00008585
O 7.75605072 0.12687767 29.46169614 0.00174127 -0.00693523 0.00289879
O 9.86342240 25.69102524 20.02332762 -0.00792482 -0.00025304 -0.00188946
O 18.14712670 16.42148922 19.26833938 -0.00555212 -0.00041333 -0.00076197
O 6.97411829 16.76196422 15.43863277 -0.00394251 -0.00211714 -0.00158088
O 18.31167002 20.63719098 18.41059370 -0.00017841 0.00207883 0.00089560
O 14.31061386 10.65501041 3.60446859 -0.00424960 0.00604733 0.00811402
O 14.12029278 11.21860914 29.69775328 -0.00281476 -0.00777563 0.00964520
O 13.20801359 25.11245702 9.29641513 0.00319244 0.00355991 -0.00759737
O 24.68777218 15.11963938 18.03922373 0.00168253 0.00446173 -0.00862544
O 8.74512825 22.71263357 14.92726462 0.00280877 0.00305474 -0.00117679
O 14.70026763 16.53800833 24.86839493 -0.00765229 -0.00073813 -0.00240443
O 6.49482524 12.80647611 10.49728609 0.00098666 0.00289564 0.00642630
O 10.06760245 23.52069957 4.24065441 0.00649698 -0.00084102 0.00141893
O 21.32662051 21.15580236 30.05822445 -0.00318092 -0.00592187 -0.00176796
O 24.74611104 3.93240833 17.09882199 0.00032544 0.00036342 0.01019021
O 10.65175647 19.52564923 3.75470096 -0.00186060 0.00423942 0.00237819
O 20.88529959 8.90527804 5.44862424 0.00523472 -0.00261744 0.00188560
O 17.16307992 14.47352346 9.26298802 0.00300940 -0.00069506 0.00017355
O 25.35948027 11.63641339 1.09928012 -0.00683220 -0.00675813 0.00739051
O 22.40126121 2.71775794 7.74016083 0.00914668 -0.00599690 -0.00827662
O 21.95192806 4.70233690 3.08018243 0.00286627 -0.00464276 -0.00812042
O 13.62511160 25.15682664 17.10861420 -0.00200548 -0.00207255 -0.00334991
O 25.94713774 9.81343381 15.27262410 0.00225767 -0.00234698 -0.00135496
O 12.33704142 24.25411169 30.52160746 -0.00343388 0.00428303 -0.01004521
O 17.89500147 16.03743958 28.70984023 -0.00460248 0.00690865 0.00436029
O 15.83302309 8.31620858 21.19108748 -0.00230574 -0.00848647 0.00612369
O 26.09066305 10.91658451 7.29696530 0.00119168 -0.00307958 0.00093227
O 26.10629886 22.27942622 9.85843336 0.00037445 0.00606031 0.00445386
O 0.09368065 3.01831340 19.04674743 -0.00097656 -0.00594208 0.00145422
O 10.40875250 21.95292419 21.48817169 -0.00424079 0.00183008 -0.00215421
O 14.38511158 18.80197667 25.81140011 0.00512961 0.00061119 -0.00328495
O 16.49715709 3.32285013 23.04749089 0.00029048 -0.00255139 0.00160791
O 21.97714803 13.81494540 24.68516906 0.00002752 0.00455853 0.00284028
O 19.22261047 12.05865510 25.10671375 -0.00227908 0.00173277 -0.00030222
O 4.89843169 2.55282205 21.68866754 -0.00369693 -0.00547881 -0.00656195
O 22.27549292 19.08781432 28.77373887 0.00128948 0.00366607 -0.00067131
O 24.10832180 7.83746323 22.32750866 -0.01394975 -0.00243841 0.00218915
O 19.55850822 24.93933049 3.95524448 0.00070074 0.00186603 0.00754828
O 9.27271060 18.85335956 0.64512236 0.00333014 -0.00020982 0.00339430
O 14.71729409 9.05327437 27.70289898 -0.00218825 0.00182810 0.00033478
O 25.13731907 4.85396351 8.22162340 -0.00631947 0.00581375 0.00146281
O 14.73269117 15.39352123 15.44249959 -0.00821298 -0.00353010 0.00373950
O 25.46932655 3.42342212 24.58103666 0.00006998 0.00334371 -0.00289781
O 24.45885594 22.48119747 23.68677952 0.00595875 -0.00152997 -0.00898540
O 23.30044016 0.32341428 29.80280522 0.00110744 -0.00149475 0.00229776
O 25.25045678 19.57815709 10.52824153 0.00037985 -0.00493845 0.00386908
O 19.23500289 18.37044830 17.92981817 0.00804871 -0.00101332 0.00197428
O 12.97121140 0.86596392 27.05297251 -0.00038679 -0.00278662 -0.00224328
O 24.53694741 22.45768893 19.48296407 -0.00804000 0.00004490 0.00091439
O 23.93932271 24.11442829 14.26792292 -0.00002721 0.00176860 0.00509126
O 19.35537940 20.33181210 6.29417888 0.00105480 -0.00434609 -0.00289672
O 11.19512442 15.28969676 30.23484611 0.00505909 0.00009703 0.00163110
O 17.24652623 21.89187760 5.13063900 0.00270776 0.00446346 0.00003971
O 26.03585484 5.11727022 13.16654216 0.00675949 0.00305800 0.00081370
O 21.37826579 14.34796328 13.63254957 0.00813043 -0.00343714 -0.00306380
O 16.78010200 4.35406174 30.56362107 0.00573373 -0.00027658 0.00157341
O 25.99123664 16.06278045 3.76860059 -0.00003157 0.00347684 0.00587229
O 17.07331422 21.29843000 24.78864554 0.00172646 -0.00351867 -0.00183944
O 25.12924292 18.54154936 4.49068902 0.00681654 -0.00002751 -0.00537704
O 13.20502407 18.79237134 4.20663256 0.00013523 0.00298770 -0.00196046
O 22.17439520 8.85743870 21.13362794 -0.00279838 0.00327834 -0.00351375
O 20.75203848 7.03472252 10.49695804 -0.00309961 -0.00600234 -0.00160429
O 19.69126853 2.49767124 1.79796824 0.00479435 0.00167246 0.00005091
O 20.58380008 22.34186677 15.29930159 -0.00062173 -0.00132974 0.00005405
O 24.36987628 13.43491185 9.35208602 -0.00394607 -0.00340759 0.00747377
O 21.82595238 25.72337233 23.19178598 0.00110159 0.00316966 -0.00073126
O 3.06834905 14.24812462 14.26963446 0.00440446 -0.00947634 0.00079787
O 16.92247772 24.25163201 18.21494315 -0.00312632 0.00089128 -0.00131405
O 18.59706958 8.95401652 15.95833561 0.00862899 0.00242036 -0.00367773
O 19.33827669 17.62450762 8.87079925 -0.00761104 0.00214755 -0.00268710
O 14.84498355 25.05434403 30.36894909 -0.00179798 -0.00585426 -0.00198444
O 20.93018276 25.56024375 20.78547823 0.00448572 -0.00001430 0.01098700
O 2.12368206 23.87367906 12.99459989 0.00239118 -0.00778087 -0.00007221
O 19.63946187 25.62510835 9.62654484 0.00508100 -0.00099993 0.01045301
O 1.42882930 18.31452552 18.54033941 0.00559066 -0.00936379 0.00718107
O 13.68159013 0.46763195 24.52430354 -0.00204507 -0.00574511 0.00084091
O 16.98456524 18.29041816 29.50054224 0.00553540 0.00209412 0.00073218
N 14.71149732 21.93036073 11.81964332 0.00346406 -0.00081428 -0.00212791
N 3.15765103 1.99223933 7.49630298 -0.00144468 0.00101729 0.00321965
N 4.35166049 22.84324292 8.06990969 0.00162031 -0.00587319 -0.00710239
N 2.32688596 9.88535518 20.55413958 -0.00224216 0.00342883 0.00837119
N 4.01169589 25.98458213 15.37567943 -0.00269497 0.00369084 -0.00608697
N 4.07493821 10.77351556 28.20327589 -0.00532118 0.00034774 -0.00586868
N 3.99143768 15.56716253 3.12431369 -0.00496039 0.00394157 0.00308515
N 0.36923372 2.35806531 1.76691087 -0.00435033 0.00673489 -0.00261276
N 1.97301070 16.79520817 27.10259954 -0.00442287 -0.00392621 0.00160254
N 25.95279927 9.57911668 25.93332489 -0.00473296 -0.00461571 -0.00215733
N 21.14954201 4.38173489 24.02880597 0.00660205 -0.00258886 -0.00675338
N 11.28691568 6.76457221 25.17689440 0.00559798 -0.00300050 -0.00363389
N 8.93233050 3.76898160 0.21183902 -0.00345171 -0.00279420 0.00445475
N 7.16736949 9.21268692 15.93844083 0.00194547 -0.00331962 0.00270458
N 8.94346931 16.63158394 21.28144280 -0.00034853 -0.00442539 0.00302871
N 6.56558171 4.13429386 14.69309881 0.00086632 0.00651169 -0.00444242
N 7.88788458 22.51065345 10.41808408 0.00288014 -0.00254230 -0.00479258
N 2.28212933 13.63699877 10.87302445 0.00306599 0.00146947 0.00209706
N 1.42707347 15.47709744 30.60882489 0.00679934 0.00703721 0.00317707
N 5.81805705 19.15925183 21.19076450 0.00132519 -0.00470213 -0.00172036
N 3.01956185 10.60836025 16.34646710 0.00354348 -0.00180978 0.00191887
N 2.22716254 23.75458013 2.81641843 0.00469753 0.00284811 0.00236982
N 13.46646655 18.41946389 11.88322017 0.00168464 0.00444275 0.00206289
N 3.00070749 1.34373917 25.70383259 0.00553762 -0.00026878 -0.00005272
N 9.73305198 1.60928732 17.61065810 0.00653861 0.00443121 0.00546208
N 4.11848216 20.92916151 0.35903205 -0.00128179 -0.00426784 -0.00124185
N 24.62195088 14.87688718 23.50286580 0.00064911 -0.00371229 -0.00900619
N 2.14309733 23.43413307 27.50918145 -0.00382207 0.00778602 0.00196074
N 19.59178774 12.77740672 3.42227300 -0.00963418 -0.00163582 -0.00527544
N 4.54326075 22.10017637 23.40072739 -0.00223025 -0.00164727 -0.00530164
N 10.32668125 20.37776053 25.00189945 -0.00178585 -0.00445411 -0.00107072
N 22.56433577 18.21511191 21.16752936 -0.00002607 -0.00330333 0.00175685
N 12.41286075 9.54757823 3.35733332 -0.00307159 0.01180087 -0.00223884
N 11.28642486 1.60247977 8.38228528 -0.00117341 -0.00420610 0.00520733
N 14.18788722 4.31379534 7.81594690 0.00283049 -0.00888269 0.00403718
N 15.68070065 12.64250421 15.56484839 -0.00330991 0.00414969 0.00338650
N 8.94598680 20.81194335 13.71322182 -0.00405189 0.00382657 0.00708420
N 19.98856318 11.06115820 10.04181421 0.00361043 -0.00132446 -0.00147701
N 13.11496831 15.00560323 7.26714319 0.00234749 -0.00183362 -0.00454948
N 16.42801814 9.92982722 10.94307052 -0.00091108 0.00106456 -0.00308760
N 13.06585809 11.16250873 18.87352292 0.00059321 0.00594890 0.00569895
N 7.46904911 6.10440385 23.29793124 -0.00242273 -0.00073538 0.01787722
N 15.16664662 0.38229390 9.06470174 -0.00067568 0.00047814 0.00121944
N 26.15570737 8.12783850 3.91139215 0.00033443 0.00451701 0.00054612
N 8.46621090 1.62604179 25.16744012 0.00306184 -0.00203614 0.00085106
N 17.09670738 4.12920814 17.73839624 0.00805709 -0.00029501 0.00903900
N 5.78090234 12.12568018 12.60285212 0.00066177 -0.00375221 -0.00938500
N 21.35572302 7.45177778 26.62568351 -0.00868321 -0.00993707 0.00970827
N 6.55583806 7.36543438 0.65225155 -0.00172106 -0.01127508 0.00064399
N 5.69394829 8.62001592 6.97037328 -0.00496725 -0.00844719 0.00166778
N 18.53112555 10.19951851 0.64291012 0.00284770 -0.00683597 -0.00284161
N 23.34389141 16.69087779 16.95573242 -0.00119368 0.00772153 0.00990263
N 9.84060469 11.65593509 6.31393214 -0.00177182 -0.00823556 -0.00383246
N 18.28302556 1.10339287 11.68737647 -0.00563491 -0.00361813 0.00257801
N 16.96264063 6.23935563 4.70981973 -0.00263177 -0.00233381 0.00210596
N 9.27163423 21.76967927 5.49237293 0.00034308 -0.00443979 0.00226634
N 23.79711722 25.67698365 18.61977489 -0.00038094 -0.00917021 0.00633524
N 12.59486600 12.92078956 29.26324585 0.00158164 -0.00009760 -0.00290856
N 12.29183141 14.44367993 20.83636242 0.00243271 -0.00667188 -0.00785816
N 11.77306830 25.88687896 2.33754273 -0.00493571 -0.00506095 -0.00045923
N 8.62505605 13.86379266 28.18967780 -0.00298878 -0.00616299 0.00034358
N 16.35189464 15.21273695 24.39761950 -0.00657053 0.00074387 -0.00114407
N 10.34369183 6.31927423 13.65457639 0.00462466 -0.01270038 -0.00360908
N 12.74415762 21.00074848 18.10436760 -0.00871086 -0.00178049 0.00289928
N 21.18819208 16.65264760 7.94967476 0.00037916 -0.00014591 0.00552369
N 23.76426473 9.08487274 15.39037961 0.00124838 0.00759736 -0.00731144
N 14.61143762 4.89648037 30.35809030 -0.00277301 -0.00060426 -0.01148326
N 25.38872963 7.08679828 8.46080708 -0.00031929 0.00052833 0.00440404
N 20.22797311 23.49216451 10.16709491 -0.00295852 -0.00488022 -0.00561206
N 1.67588341 11.36804986 5.89527561 0.00150081 0.00444230 -0.00038434
N 14.71087869 17.95297974 2.62495386 -0.00137194 0.00371240 -0.00127744
N 23.56785252 25.85119735 1.06063118 0.00084030 -0.00191716 0.01226449
N 24.46035841 3.48835303 12.92317136 0.00021108 -0.00323456 -0.00057658
N 11.10102306 19.46123930 30.36836875 0.00210495 -0.00367915 0.00041901
N 19.55805623 0.18454975 19.15059765 0.00529079 0.00619612 -0.00596482
N 19.19960637 14.29487230 29.45304852 -0.00518701 0.00325986 0.00443741
N 18.71837912 22.00851677 26.25425942 0.00025923 0.00414430 0.00571286
N 0.98566514 4.83558885 25.05656297 -0.00662628 -0.00704107 0.00221347
N 14.66200237 0.89079832 22.57817762 -0.00332529 -0.00336351 -0.00781251
N 1.63513602 4.25953879 20.18387454 0.00091364 0.00225776 0.00066945
N 21.24356830 23.30930510 4.18549128 -0.00574829 0.00537095 -0.00365128
N 21.62943572 16.57270186 13.22136490 -0.00295530 0.00096140 0.00014938
N 10.15359077 23.49977412 30.68565246 -0.00278680 -0.00091909 0.00415449
N 0.84380547 22.91542412 14.54981091 -0.00199069 0.00717400 0.00507781
N 16.34743766 16.63100502 14.40578764 -0.00126798 0.00552155 0.00156742
N 24.75503283 19.48767873 6.55068266 -0.00406161 0.00005138 -0.00718988
N 25.31536130 24.37406373 9.69274989 -0.00102561 -0.00307323 0.00698083
N 17.10821486 20.20884728 30.72963520 0.00642404 0.00277879 -0.01098378
N 11.55173856 24.52285449 16.69793508 0.00346262 0.00152580 0.00400200
N 17.11408212 24.75053586 29.60003982 0.00209693 -0.00343160 -0.00551507
N 15.24520912 7.84501758 25.91279416 -0.00506505 0.00491353 0.00359738
N 23.89017554 15.03951327 4.14497401 -0.00441605 0.00919389 0.00487114
N 17.52213716 9.76942513 20.32015504 -0.00488396 0.00017154 0.00426572
N 1.68450133 19.16667790 16.37517960 0.01137938 0.00071515 0.00153564
N 22.25769757 21.92648473 24.05166433 0.00642305 -0.00352356 -0.00111857
N 22.27797325 10.68074201 19.77234865 -0.00548984 0.00343415 0.00534686
C 6.69915710 22.74940223 12.56634890 0.00160696 0.00192697 -0.00012159
C 4.79769606 1.21481404 9.26785859 -0.00347056 -0.00195923 0.00030457
C 3.76055115 14.92857441 30.10455536 -0.00129823 0.00386758 0.00262403
C 0.99661293 11.92709095 20.07308945 -0.00584403 -0.00282331 0.00479158
C 2.49955617 9.78783654 14.03782184 -0.00963163 0.01022332 -0.00837745
C 5.00620716 11.04634530 30.52322323 0.01101734 0.01205581 -0.00094218
C 12.79556082 18.46325704 14.20823248 -0.00239881 0.00432860 -0.00622899
C 0.27310284 1.26129397 3.88157048 -0.00177760 -0.00129707 -0.00342200
C 5.87666647 22.24435581 13.49706828 -0.00100621 -0.00558297 0.00530184
C 5.06057737 0.20881712 10.18440230 0.01195173 0.00082841 -0.00536042
C 4.99120586 15.35995815 29.74878495 0.00154632 0.00382942 0.00365675
C 26.06141999 12.45654122 19.52807568 -0.00441641 -0.00048888 0.00728502
C 2.42034039 8.62410276 13.20505999 -0.00120715 -0.00077478 0.00720862
C 5.02519147 10.73384127 0.90703517 0.00437138 -0.00504540 0.00433728
C 12.00565536 18.08552748 15.30939975 -0.00385727 -0.00327578 -0.00117788
C 26.19166468 1.33763383 5.19011839 -0.00600755 0.00590091 -0.00173957
C 5.42066328 20.91735787 13.31975144 0.00344917 0.00084338 -0.00508955
C 4.13392539 25.22761878 10.51907307 -0.00210941 0.00824677 0.00759039
C 5.30974912 16.74511894 29.74987394 0.00439453 -0.00564390 0.00302020
C 25.28238531 11.75858268 18.68296055 0.00045425 0.00745798 -0.00534606
C 2.35920268 7.32940609 13.79972096 -0.01061775 -0.00374501 -0.00072358
C 3.84527005 10.12582303 1.51021647 0.00589086 0.00550145 -0.00050897
C 10.96893294 17.19195996 14.92924337 0.00107582 -0.01334017 0.00535725
C 26.03684356 2.66243836 5.83725056 -0.00433789 -0.00935527 0.00448777
C 5.86452340 20.13736089 12.25967811 0.00648994 0.01249273 0.00505572
C 2.84686420 25.34816725 9.96678640 0.00157840 0.00406469 -0.00726320
C 4.27003790 17.64203637 29.92441038 -0.00440319 0.00062457 0.00660517
C 25.63321002 10.37679216 18.50573113 0.00050894 0.00608543 0.00384451
C 2.34060453 7.25030110 15.22813498 -0.00053786 0.00884338 0.00891363
C 2.84439791 9.75413016 0.64056955 -0.00519773 0.00708976 0.00391901
C 10.97535185 16.39881415 13.69723142 0.00211170 0.00811773 0.00551081
C 26.17320509 3.83143358 5.16655643 -0.00401084 0.00011781 -0.00477141
C 6.75237456 20.71830725 11.37947938 0.00060297 -0.00406783 0.00430477
C 2.57528594 0.24251172 8.92189504 0.00267082 0.00281570 0.00014361
C 3.01431591 17.22644245 30.22118578 0.00881353 0.00329770 0.00206327
C 0.47021828 9.80749131 19.17406310 -0.00429279 0.00283005 -0.00952915
C 2.78463441 8.24013226 16.00358991 0.00422869 0.00763244 0.00757810
C 2.89588025 10.07323476 30.27946934 0.00989682 -0.00863758 0.00251474
C 11.84208547 16.83059151 12.78422917 -0.00388261 -0.00001274 -0.00512179
C 0.10666038 3.73358797 3.73338997 0.00283789 0.00121373 0.00097596
C 7.14651549 22.01229480 11.43882585 -0.00948285 -0.00446669 0.00623040
C 3.61215185 1.15478020 8.51757298 0.00544957 -0.00060154 0.00382831
C 2.72169918 15.88133309 30.33490517 -0.00651620 -0.00266692 0.00564632
C 1.33365876 10.53483942 19.95802116 -0.00092337 -0.00420255 0.00224284
C 2.77450787 9.58623581 15.46536491 0.00353139 -0.00221985 -0.00154142
C 4.04522600 10.57942043 29.56367454 -0.00018887 -0.00646361 0.00674368
C 12.67361878 17.89639220 12.95586381 -0.00324797 -0.00273887 0.00389312
C 0.27821432 2.48842327 3.11966797 -0.00449814 0.00415327 0.00253543
C 8.10474898 23.82838157 10.17922794 -0.00413940 -0.00348649 0.00285325
C 3.94993794 2.77511972 6.72664288 0.00331253 0.00168219 -0.00655040
C 0.81703783 14.20368229 30.46762286 -0.00059250 0.00768854 -0.00218360
C 3.37004581 10.41230450 21.32162604 -0.00168262 0.01625774 -0.00409591
C 2.51398911 11.88058024 16.17699205 -0.00097804 -0.00913723 0.00826576
C 5.12441111 11.45857982 27.61074747 -0.00574574 -0.00258592 -0.00279156
C 13.25148532 18.13318487 10.59746925 0.00014713 -0.00119480 -0.00280430
C 0.28245452 3.37551697 0.88869852 0.00525748 -0.00179830 -0.00542579
C 4.07240915 16.15120804 26.02115338 0.00795343 -0.00238034 0.00008048
C 5.49455729 2.57300568 6.76606210 0.00176921 -0.00186029 0.00526394
C 3.30575951 21.80208883 10.04964605 0.00267669 -0.00257303 0.00287309
C 10.61825421 7.81737477 27.27231525 -0.00176361 0.00575525 0.00165825
C 9.08852464 3.85527458 2.62584058 -0.00480987 -0.00073485 -0.00142878
C 4.85077362 12.12757796 26.32123970 -0.00507820 -0.00571223 0.00459573
C 2.80238448 15.69635955 5.35308677 -0.00319280 0.00720885 -0.01018300
C 4.52776661 4.61393972 13.22458459 -0.00235700 -0.01286575 -0.00269241
C 8.44398058 0.61104302 15.85863909 -0.00567973 -0.00162063 -0.00340183
C 2.05395119 9.18136471 25.46911688 0.00228089 -0.00252330 -0.00464362
C 0.54785654 13.65522001 23.47000348 -0.00476094 -0.00858754 0.00445240
C 11.79980794 6.04874016 22.91640573 0.00057331 0.00259830 0.00533664
C 21.21215044 12.20739481 1.78389721 0.00466126 0.00434801 0.00141791
C 6.78585385 8.48108071 13.65837034 0.00581032 0.00378301 0.00695848
C 12.53666498 20.55391282 24.07000984 0.01311599 0.00496406 0.00165097
C 5.01511244 5.22115678 16.35751709 -0.00289698 -0.00066311 0.00288266
C 8.14909735 0.39307938 14.51261626 0.00061082 -0.00094310 -0.00517142
C 3.22920776 8.47725677 25.78436706 -0.00494455 -0.00287614 -0.00661399
C 1.89677831 13.73237347 23.46780758 -0.00261954 0.00413492 0.00742885
C 11.97010729 4.97146945 21.93867548 -0.00248422 -0.00846715 0.00514925
C 22.10201155 12.62497334 0.81966877 0.00234215 -0.01789415 0.00141861
C 7.03918121 8.65234559 12.29136311 0.00439911 -0.00982206 0.00774697
C 13.74622934 21.23284163 23.80632703 0.00379515 -0.00503244 -0.00614200
C 4.91225565 5.72320207 17.61043312 0.00039918 0.00036826 -0.01294626
C 8.89968424 1.02245060 13.54451677 -0.00512951 0.00308599 -0.00824627
C 3.46960643 7.69215444 26.93566224 -0.00036657 -0.00689311 -0.00096804
C 2.53308088 14.98065685 23.06871380 0.00400427 0.00251485 -0.00046221
C 12.03556677 3.63762488 22.34861913 0.00131247 0.00266690 0.00532938
C 22.09850885 13.86704989 0.28198526 -0.00008083 -0.00053585 -0.00217875
C 7.91889930 9.60813071 11.72691535 -0.00111638 0.00064637 -0.00037632
C 13.90997098 22.49296003 24.33842690 0.00003021 0.00825927 -0.00049437
C 6.07117945 5.97705825 18.43140490 0.00297416 -0.00679011 -0.00318917
C 9.80405792 1.97968641 13.93748498 0.00323078 0.00333107 -0.00198878
C 2.27535996 7.45870756 27.70618720 0.00450429 -0.00766619 -0.00878851
C 1.74039595 15.88218943 22.38982369 0.00126194 -0.00015890 0.00065399
C 11.96366140 3.38364439 23.71959505 0.00789959 -0.00626109 0.01022539
C 21.18115485 14.75382996 0.81558146 -0.00251806 -0.00108856 0.00322650
C 8.38516624 10.49710805 12.68842762 -0.00410543 -0.00190371 0.00359483
C 12.84106081 23.14517538 25.06781520 -0.00055939 0.01079220 0.00228640
C 7.29752020 5.51919739 18.00930052 0.00284720 -0.00050515 -0.00018086
C 10.11673582 2.22227882 15.27240725 0.00318644 0.00114770 -0.00786797
C 1.10868574 8.14037460 27.43857271 0.00687835 -0.00807263 0.00484317
C 0.37052961 15.92876495 22.72354330 0.00278648 0.00741430 0.00817220
C 11.76541864 4.38625063 24.62484855 -0.00317098 0.00633186 -0.00285083
C 20.29847482 14.43070314 1.92724906 -0.00204959 0.00361644 -0.00219040
C 8.10014607 10.42270613 14.03279475 -0.00137289 0.00785244 -0.00057173
C 11.66756772 22.45744512 25.30587595 0.00882192 -0.00150336 -0.00527978
C 7.40588462 4.88507225 16.76781873 -0.00408488 0.01038777 -0.00331719
C 9.53456371 1.39967960 16.22943316 0.00048022 -0.00374816 -0.00986692
C 0.91763576 9.09726494 26.29659788 -0.00301228 0.01028854 0.00272883
C 25.93468487 14.83921644 23.21664134 -0.00241230 -0.00836735 0.00178068
C 11.60851392 5.73614282 24.31095177 0.00676198 0.00586373 0.00280157
C 20.42228921 13.16571960 2.37048835 -0.00143038 -0.00240853 0.00018581
C 7.34223572 9.42859709 14.57365914 -0.00075706 0.01103198 -0.00660717
C 11.43298717 21.17191633 24.70992272 -0.00089270 -0.00362525 0.00196822
C 6.30371876 4.83393100 15.88284765 0.00435135 -0.00919364 0.00062501
C 10.73154712 2.22029466 18.32061838 -0.00814263 -0.00199798 0.00060220
C 25.06303552 10.28308172 26.59449803 0.00154501 -0.00858439 0.00488902
C 23.87592081 16.03211123 23.55828628 -0.00337523 -0.00262746 0.00062689
C 11.12004241 6.58446761 26.53387748 0.00022140 -0.00371454 -0.00811743
C 19.91998400 11.90557754 4.41985701 0.00467639 -0.00168302 0.00653993
C 7.20597308 10.19285934 16.87345371 -0.00343665 0.00236646 -0.00718660
C 9.23128890 20.76243618 25.82150908 0.00521918 -0.00024897 -0.00067770
C 5.88980138 4.04036331 13.50138195 -0.00382565 -0.00271466 0.00133171
C 13.69892806 22.56626723 14.01931110 0.00330744 0.00262438 -0.00381901
C 25.27924904 10.76220654 28.03655029 -0.00138601 -0.00745858 0.00559180
C 20.17188509 5.82384261 22.20720860 -0.00952061 0.00098035 -0.00079785
C 4.58651744 9.45506166 21.35671056 0.00422891 -0.00146261 -0.00857709
C 4.04228147 0.87761254 13.10685652 0.00886755 0.00693045 0.00358617
C 7.40321390 9.84447912 18.30628017 -0.00573131 -0.00377366 -0.00773030