1920
Time=47000.00000003 pbc="T T T" Lattice="26.14730690 0.00000000 0.00000000 0.00000000 25.39805107 0.00000000 0.00000000 0.00000000 31.16319844" energy=-12208.31884003 virial="-40.97143910 -3.47074132 2.65759636 -3.47074132 -51.50115746 5.40710507 2.65759636 5.40710507 21.52968392" stress="0.00134567 -0.00018063 0.00010538 -0.00018063 0.00068552 0.00019406 0.00010538 0.00019406 0.00432575" Properties=species:S:1:pos:R:3:vel:R:3
O 5.31790626 20.50470026 15.10304888 -0.00404055 0.00257226 -0.00135910
O 3.08105118 22.93533006 11.06828118 -0.00162880 -0.00089108 0.00484378
O 5.80300766 17.13128268 30.25764464 -0.00242313 0.00451496 0.00001134
O 25.37193188 13.17372456 18.77651897 0.00433909 -0.00452742 -0.00375067
O 1.24907887 8.41242417 12.16360742 -0.00469159 -0.00039524 -0.00348019
O 3.43010125 9.56245215 2.43329569 -0.00200850 -0.00132557 0.00029422
O 10.48019732 16.62860211 16.01634340 0.00157832 0.00407176 0.00167164
O 25.34019574 3.79044566 8.97871518 -0.00956513 -0.00017067 0.00061119
O 10.08158368 0.68427646 18.80452451 0.00400401 0.00537501 0.00362153
O 2.46834093 2.62193007 7.49145138 -0.00611357 0.00193397 -0.00162457
O 25.32884659 13.37996738 30.06055371 0.00186434 -0.00311244 -0.00071164
O 10.54658756 4.73725677 26.07747764 0.00409863 -0.00027298 0.00055994
O 19.47773141 9.61804991 3.49470917 0.00072580 -0.00041079 -0.00183129
O 6.15705646 11.77497910 28.40044289 0.00204084 0.00428964 -0.00533794
O 12.21871813 16.53845781 10.05093294 -0.00219329 0.00363299 0.00414865
O 6.90086891 3.86790213 11.89653902 -0.00524288 -0.00024052 0.00299322
O 9.51170700 0.95064196 11.50210584 0.00432483 0.00034565 -0.00179635
O 4.43372766 7.68029433 25.89605860 0.00144160 -0.00342544 0.00524658
O 5.17675502 14.15009012 24.09835591 0.00080941 0.00443539 -0.00242373
O 13.34722965 3.83038138 20.43661516 0.00187812 0.00417255 0.00603204
O 22.47533545 13.35271214 30.14588803 -0.00468592 -0.00208585 -0.00176688
O 8.08519625 9.21907737 10.16902910 0.00162018 0.00153230 -0.00709921
O 14.44294197 21.25869836 23.15943190 -0.00372396 -0.00656163 -0.00686774
O 6.16613938 5.79129679 19.24861850 -0.00051789 0.00128085 -0.00479582
O 7.57709367 24.57797984 11.07194664 0.00660978 -0.00376748 -0.00017290
O 24.30726051 7.26967630 27.73614117 0.00026937 -0.00007744 -0.00034735
O 23.95273161 15.74512500 23.41584866 -0.00783054 0.00316353 -0.00183601
O 3.87740020 10.29925821 21.76146310 0.00499332 -0.00397435 0.00249835
O 3.83005066 13.08353272 15.46322276 0.00276531 0.00111286 -0.00040798
O 9.08128295 10.87888104 16.04396595 -0.00322731 -0.00130024 0.00135968
O 9.67378636 22.01098462 27.11047213 -0.00468581 0.00259974 -0.00040136
O 1.00538231 3.95707428 3.01947894 0.00122841 -0.00111395 0.00037939
O 18.22114410 18.68042120 9.02073133 0.00720922 0.00692985 0.00015995
O 5.06460140 17.00092507 8.11321960 -0.00093808 -0.00123307 0.00079509
O 6.59720024 23.10274698 3.39231175 -0.01012474 0.00068460 0.00405261
O 6.49714944 18.67391853 16.37428243 -0.00153102 0.00410823 -0.00665797
O 5.97291119 25.03330647 20.63783623 0.00719253 -0.00528416 0.00563945
O 5.35284264 2.30696641 3.78439158 0.00501969 -0.00057592 -0.00041277
O 8.26903977 17.78840966 5.14460369 -0.00983441 -0.00006443 0.00954161
O 24.11901420 23.79240288 23.78639555 -0.00406782 0.00490259 0.00509770
O 1.74879102 15.80826901 26.38522758 0.00101691 0.00057727 0.00277993
O 25.61949737 14.62401540 10.26867164 -0.00366597 -0.00077248 0.00054652
O 3.92137272 19.33782099 7.59116253 0.00225703 -0.00429217 0.00411125
O 24.20081398 24.60587966 28.39992880 0.00462845 0.00494814 0.00119233
O 6.28110750 2.63262287 1.43752347 0.00105181 0.00312593 -0.00144029
O 0.71910501 23.61564042 5.69484145 -0.00201221 -0.00433149 -0.00040448
O 1.50576281 15.17459192 2.43736199 -0.00253332 0.00131002 0.00995701
O 23.66216672 17.97581065 19.01318395 0.00749093 -0.00111408 0.00185995
O 22.60871313 15.82531767 29.91175614 0.00660674 -0.00117120 -0.00455319
O 24.91247981 19.39110994 1.87783421 -0.00165101 0.00105119 0.00516183
O 21.04013649 1.66747278 28.51844138 0.00156246 0.00165750 0.00311981
O 5.52463763 23.73023813 29.16557506 -0.00238092 -0.00833320 -0.00080679
O 5.03334042 4.75303430 26.70201775 -0.01239561 -0.00181252 0.00587242
O 0.30385003 21.70077524 21.37474533 0.00936504 -0.00371067 0.00321445
O 6.20873365 10.74476446 23.46131248 0.00623076 -0.00595245 -0.00036376
O 18.02287118 19.23109080 21.72395665 0.00247353 -0.00579896 0.00383752
O 15.79992527 20.77236126 14.25487764 -0.00694383 0.00354564 -0.00074493
O 5.93277633 21.79409479 1.31582357 -0.00300655 0.00482789 0.00274016
O 18.62679865 3.82791154 22.91507121 0.00444810 0.00770507 -0.00554412
O 6.00543594 16.32557780 22.41118490 0.00801775 -0.00344822 -0.00205262
O 4.30423320 2.32923796 15.10408877 0.00183144 0.00307732 0.00543977
O 6.35763123 22.65992721 21.33711855 0.00307641 -0.00442230 -0.00808852
O 9.28357404 17.18797099 20.74245263 0.00046820 -0.00263953 -0.01060312
O 4.01440898 2.82348495 25.42504297 0.00068901 -0.00759423 -0.00037768
O 3.43076604 4.58034329 3.76635032 -0.00548894 -0.00671361 -0.00315938
O 6.98701698 3.95240612 9.24249489 0.00062839 -0.00555417 0.00654323
O 17.68971276 12.25635842 26.30920594 -0.00008762 0.00185188 0.00844336
O 12.63358594 9.48197253 12.60723221 -0.00252226 -0.00151445 -0.00426568
O 9.68803475 5.89456078 7.57058555 -0.01114898 0.00685371 -0.00020228
O 15.54604626 9.56512177 6.44716956 0.00701148 0.00325219 -0.00245897
O 19.88961174 3.31786629 8.68379558 0.00512196 0.00402354 -0.00061626
O 20.24312971 11.81387839 14.04957665 0.00077209 -0.00294281 0.00054712
O 24.77128369 23.72715905 16.93019642 -0.00908963 -0.00013487 0.00339916
O 12.84471680 0.09164188 5.97464466 -0.00336356 -0.00010297 0.00048982
O 20.19021610 8.02729075 30.50118325 0.00460487 -0.00358113 -0.00483927
O 1.93024877 7.52772373 2.98103046 0.00294090 -0.00421908 -0.00073619
O 7.87975709 15.50498131 30.31453527 -0.00096984 -0.00327170 -0.00031179
O 20.74779307 9.06147285 10.15128889 0.00425135 0.00524383 0.00568942
O 15.22227012 6.89587258 6.16264622 0.00999698 -0.00090090 -0.00153023
O 20.01350052 8.20933332 24.82180717 0.00446964 0.00265806 0.00663073
O 23.72439197 3.91323965 22.07833712 0.00162124 -0.00496062 -0.00041696
O 9.33694104 10.17444355 25.67134354 -0.00852386 0.00091561 0.00260217
O 11.31725870 12.18437467 16.06184119 0.00388009 -0.00342036 0.00412750
O 22.47080214 6.90201934 0.21798763 -0.00049860 0.00239249 0.01118126
O 9.50743219 9.53764841 1.26957773 0.00561605 0.00052548 0.00602745
O 21.27909491 4.05953263 13.12185196 -0.00473985 0.00318622 0.00660696
O 14.11308687 5.61945772 18.34371042 0.00804266 0.00361244 -0.00534605
O 18.89713563 4.35950567 30.00878427 -0.00463703 0.00427576 -0.00453757
O 4.44055991 7.45595882 29.35862555 -0.00200004 0.00276862 -0.00327140
O 8.33426872 6.53360220 20.50867462 0.00259107 -0.00171485 -0.00240803
O 11.17767109 12.72359816 22.56940274 -0.00282142 -0.00015953 -0.00047366
O 17.98530047 10.44540157 15.54134101 -0.00252881 -0.00177058 0.00736178
O 8.43235059 10.44513782 3.52523856 -0.00653764 -0.00038259 0.00000509
O 16.54361703 4.43749349 17.22080589 -0.00163648 0.01001243 0.00591457
O 12.67518811 6.77154648 12.25659373 0.00052024 0.00894849 -0.00316198
O 15.02828960 11.50770327 10.46750386 -0.00033688 0.01169888 -0.00315615
O 12.45252718 7.43918311 30.21350302 -0.00144671 -0.00004073 -0.00868630
O 6.27881073 14.22717015 5.09647775 -0.00228471 0.00422852 -0.00571081
O 12.76658848 3.25397028 2.26348861 -0.00751937 -0.00055328 0.00613849
O 25.92585935 17.04836502 13.68008471 -0.00211331 -0.00370870 0.00407002
O 11.59793738 23.03173117 9.67521786 -0.00186876 -0.00356596 0.00551752
O 15.34142623 25.14193057 16.38881233 0.00288888 0.00365366 0.00096898
O 7.11100986 14.52136614 9.46245455 -0.00092032 0.00294034 0.00321155
O 9.75075574 17.25472136 9.46474542 -0.00313920 -0.00708546 0.00108422
O 12.48006375 8.90478303 19.65020830 -0.00785361 0.00393535 0.00464872
O 5.74607497 9.17239197 9.03273085 0.00186430 0.00704086 -0.00416173
O 12.06892109 5.51726502 8.47376488 0.00020464 -0.00488171 -0.00507109
O 12.46040429 0.78997108 1.68379671 -0.00626675 0.01120808 -0.00138793
O 7.67315265 1.49829057 28.15330600 -0.00772252 -0.00559403 -0.00739374
O 19.46210471 3.56883898 11.35118644 -0.00536873 0.00136656 0.00266016
O 13.14116771 13.17878178 7.71938912 0.00048468 -0.01023069 -0.00469553
O 10.12577282 19.30806544 19.46309503 0.00042507 -0.00254761 -0.00711176
O 14.64462147 11.85740611 24.67773599 0.00146023 -0.00020365 -0.00976288
O 11.08930192 11.83481293 24.97127830 -0.00399377 -0.00975287 -0.00252213
O 17.39810841 24.25331582 4.25380882 0.01038310 -0.00948416 0.00085217
O 6.68943802 0.51730007 30.19917937 0.00267714 -0.00140967 0.00812715
O 11.18070586 0.14407489 21.38046637 -0.00793805 -0.00514978 0.00406927
O 18.24110812 15.39159280 19.73277703 -0.00333841 0.00268736 0.00007667
O 7.99401249 16.73364905 15.58527822 -0.00476609 0.00608133 0.00290435
O 17.61630667 19.88504645 18.13978633 -0.00404626 -0.00382195 0.00955278
O 13.64542917 10.53795699 4.46376161 -0.00013207 -0.00300666 0.00154212
O 14.01429543 11.85889508 30.47492925 -0.00362659 -0.00049981 -0.00214596
O 13.71072346 24.79123183 9.41401796 -0.00009540 0.00596892 -0.00033318
O 23.07461551 13.55896135 18.19995452 0.00108727 -0.00758267 0.00542201
O 10.08110233 21.94849658 15.78288656 0.00254490 0.00368589 0.00840246
O 14.28583735 16.34840181 24.77034463 0.00025405 -0.00391273 -0.00005016
O 6.37869726 12.52525716 10.75005041 0.00037382 0.00164873 0.00053621
O 10.28072304 22.83126242 4.55866829 0.00233047 -0.00434392 0.00760212
O 20.61341522 20.92367645 29.94869814 -0.00032817 -0.00352276 0.00046813
O 26.12021108 3.11314167 16.79108533 -0.00034346 0.00286055 -0.01012598
O 10.67351167 18.74998997 4.31821375 0.00594547 -0.00268865 0.00034465
O 19.78698067 7.81730311 5.57609450 0.00021504 0.00044719 -0.00104501
O 15.13515877 14.49669567 8.72407128 -0.00141902 0.00079075 0.00562403
O 25.02840057 11.40447813 0.39775685 -0.00469168 0.00360080 0.00314740
O 21.30919793 1.46226998 7.25754426 0.00029312 -0.00326496 -0.00808009
O 22.98901060 4.34775667 4.20581540 0.00635090 -0.00025867 0.00411841
O 13.05803556 25.20820707 17.52266440 -0.00173701 -0.00204617 -0.00006434
O 25.96404490 9.25698067 15.10136828 -0.00137881 0.00254013 -0.00436042
O 13.45121355 22.78017091 0.05185731 -0.00247798 0.00943934 -0.00027270
O 18.19479266 15.57517875 27.91364859 -0.00111997 0.00265985 -0.00280101
O 15.73100137 8.57878466 21.31603811 0.00883701 0.00427132 -0.00208643
O 26.02022187 10.68448033 6.69596462 -0.00307854 0.00096187 -0.00234475
O 25.41919056 21.05589193 10.41661268 -0.00767695 0.01035278 -0.00312700
O 0.45874108 2.94520299 19.44178734 -0.00631181 0.00055297 -0.00230880
O 10.22186292 21.77767806 21.91990540 -0.00645912 -0.00563994 -0.00310319
O 13.19139890 18.64450721 26.02052025 -0.00620286 0.00082668 0.00048239
O 16.05360932 3.36557793 23.47795570 -0.00379051 0.00095725 0.00397462
O 23.03206656 13.42906614 24.27403661 0.00739361 0.00408971 -0.01170236
O 19.72770393 12.17257303 24.83039067 0.00279412 -0.00457349 -0.00763499
O 4.99151251 1.66486498 21.89047416 0.00872513 -0.00220981 -0.00324699
O 22.65941755 19.77060027 28.94920377 0.00528528 0.00240674 0.00346260
O 25.52895669 8.84712598 21.82565916 -0.00203113 -0.00227492 -0.00149142
O 20.04488543 24.46801490 4.22474510 0.00217160 -0.00456608 0.00041016
O 8.45798510 17.83171508 0.55743656 0.00808914 0.00599825 -0.00090441
O 13.99557179 8.75676926 28.19535460 -0.00523173 0.00184415 -0.00596230
O 25.08173746 6.41263092 9.01317648 -0.01022293 0.00769384 0.00065671
O 14.08944125 15.13401868 15.09764168 0.00358899 0.00253118 -0.00397183
O 25.55526503 3.62725575 24.19071434 -0.00014604 -0.00135715 0.00476778
O 25.02778350 20.50286463 23.11227356 0.00308423 0.00159137 -0.00275696
O 22.93217140 1.11716442 30.01658371 -0.00033331 0.00088091 -0.00245166
O 25.06040228 18.96661746 11.66411999 -0.00149816 -0.00765338 0.00685418
O 17.89684511 17.37423800 17.96077335 0.00351577 0.00130729 -0.00256930
O 12.38053504 0.49677965 27.29449584 -0.00691204 -0.00155132 0.00122912
O 25.28645410 19.74986412 19.06114544 -0.00099039 0.00529758 -0.01166783
O 24.14873436 21.42003439 15.26747900 0.00217796 0.00233753 0.00377262
O 18.90192189 19.06293456 6.47016154 -0.00114045 0.00924347 -0.00265074
O 10.41018043 15.52603942 30.38347858 -0.00965452 -0.00711684 -0.00141619
O 17.83436735 20.74951909 4.48458857 0.00182773 0.00370409 -0.00005652
O 0.15368312 6.23543545 13.00638802 0.00674958 -0.00074456 0.00288160
O 21.54096310 14.27405539 13.78759129 0.00831276 -0.01005872 0.00428285
O 16.40495417 4.20262596 30.40234219 -0.00504324 0.00662988 0.00083182
O 25.20727773 15.50724083 3.25342532 -0.00757534 -0.00213358 0.00358469
O 16.98542940 20.60505059 23.73635429 -0.00180857 -0.00121788 0.00424485
O 24.80739337 18.39448174 4.24638763 -0.00637833 -0.00087193 -0.00274934
O 12.79760136 17.09999669 4.69603232 -0.00161498 0.00865236 0.00496620
O 23.13841176 9.43596425 21.53625422 0.00300947 0.00094539 -0.00513181
O 20.40231025 6.59664341 10.28685115 0.00617989 0.00401475 -0.00414978
O 18.60233547 2.47238662 2.87944822 0.00381841 -0.00251951 0.00161138
O 20.83333079 20.87530893 16.30595944 0.00791043 0.00203374 0.00317856
O 23.65591146 13.38851139 8.94150264 0.00043500 0.00035567 0.00127637
O 21.73507264 24.93496409 23.56343985 0.00279319 -0.00085650 -0.00298150
O 3.18146779 15.23077048 14.12785990 -0.00145190 0.00725684 0.00328304
O 16.25224185 24.00470463 18.56690410 -0.00785897 -0.00787159 -0.00043395
O 19.04638648 8.04919181 16.67078038 0.00650693 0.00101555 -0.00720091
O 19.80367032 16.63675067 9.41613112 0.00371886 0.00418429 -0.00483464
O 15.30267082 24.09271571 29.86750956 0.00390061 0.00153422 -0.00468144
O 21.23434087 24.95657177 20.79671395 0.00090390 -0.00004001 -0.00503505
O 2.71803746 22.98208345 13.76447992 -0.01031327 0.00556120 0.00307225
O 20.05526543 24.79008705 11.75466420 0.00118815 0.00550302 -0.00996479
O 2.89504669 16.62448406 20.27119519 0.00616174 0.00064607 -0.00252292
O 13.83957620 24.69592558 25.40123687 -0.00279969 0.00448407 -0.00660390
O 17.24625008 17.75023235 28.63895025 -0.00951754 0.00334365 0.00686507
N 15.11694430 21.78655939 12.30345817 -0.00854735 -0.00104014 -0.00286244
N 4.25137914 2.63676538 8.89286220 0.00344313 -0.01168167 -0.00230002
N 4.31339336 21.64555430 8.17306551 -0.00611638 0.00862800 0.00725744
N 3.26439160 9.47273316 19.65512533 0.01405738 -0.00799138 0.00476899
N 3.83629851 0.12464740 15.56440142 0.00541373 0.00736650 0.00027672
N 4.23407293 10.62445283 28.26466833 -0.00197760 0.00125822 -0.00304335
N 3.69144182 15.99089700 2.53676512 0.00120946 -0.00071562 0.01005043
N 25.77400161 2.19468431 3.78596973 -0.00962727 0.00132682 0.00068556
N 1.02774607 17.83580068 27.36605981 0.00164701 0.00258780 0.00643396
N 25.58974484 9.15653714 27.61803619 -0.00812297 0.00189723 -0.00914045
N 20.80765276 3.66773036 23.26448185 -0.00237759 0.00332652 0.00697026
N 11.23838533 6.53690855 24.75405529 0.00369279 -0.00447400 -0.00128711
N 7.77167402 3.70327237 0.12119452 0.00453228 -0.00255319 -0.00637107
N 7.84556202 9.05010282 15.60349393 0.00066183 -0.00726646 -0.00043744
N 8.95346919 15.22283190 21.84097143 -0.00051879 -0.00459169 -0.00591996
N 7.08126548 4.18113634 14.04252325 -0.00546289 0.00007552 -0.00025934
N 7.67145576 22.25672338 10.51766576 -0.00053409 0.00988118 0.00882962
N 1.25433537 14.94871792 11.48164139 0.01557173 -0.00251116 -0.01254608
N 0.59541529 15.11685127 30.20441711 -0.00083132 -0.00529794 -0.00209027
N 6.76418524 18.40441762 21.86130937 -0.00296583 -0.00498437 -0.00163410
N 4.06065924 10.97744640 16.19894603 0.00062086 -0.00162400 -0.00713834
N 1.81311461 23.62176079 3.54071091 -0.00399061 -0.00055541 0.00012537
N 13.69469825 17.30524862 11.56882794 -0.00334106 -0.00346897 -0.00091238
N 2.15112726 1.64124173 25.60928394 0.00488695 -0.00453305 -0.00236715
N 9.20960936 2.05546713 17.08212881 0.00015478 -0.00401630 0.00435296
N 3.95631508 21.10342939 0.54175598 -0.00079103 0.00379842 0.00704231
N 25.78206037 14.57594669 23.63437022 -0.00194316 0.00387758 -0.00016092
N 0.14614848 24.34370976 28.21209635 -0.00019140 0.00889665 0.00540810
N 18.88682332 11.85679335 2.94429611 0.00177715 -0.00258882 0.00030757
N 5.47497400 22.20442569 23.27146524 -0.00290556 0.00034804 -0.00561841
N 9.41245552 20.38442254 25.59090226 -0.00804087 0.00005382 -0.00173801
N 23.06289917 17.21100144 21.06902261 -0.00131078 0.00120625 0.00149260
N 11.86644065 9.11116091 4.34493199 0.00002611 -0.00352008 -0.00565190
N 11.39756067 1.06913870 7.47616499 0.00418797 0.00395844 0.00119592
N 13.68442901 4.01735688 7.68443264 -0.00072631 0.00037783 0.00465850
N 16.21207392 11.88201311 16.14182053 -0.01530988 0.00097245 -0.00345375
N 9.21268983 20.66209601 14.04340858 0.00408412 0.00892668 -0.00315299
N 19.99001387 11.13705174 9.55662991 -0.01155475 0.00665332 -0.00374394
N 11.73273278 14.57232442 6.53519910 0.00261403 -0.00185970 -0.00025818
N 16.53608310 9.80388306 10.30617774 -0.00351478 0.00006865 -0.00084996
N 14.00297518 10.63428410 19.31583558 -0.00417104 -0.00390149 0.00087080
N 8.29183518 5.66391217 22.56646167 -0.00591659 -0.00396325 0.00013376
N 15.77135731 0.49828701 9.28954084 0.00549283 -0.00475238 -0.00542376
N 0.05583199 7.78503568 4.25045038 0.00132710 -0.00871638 0.00071213
N 8.24298613 1.52278731 25.90696327 -0.00387490 -0.00118286 -0.00533661
N 18.51757387 3.34462632 17.86144590 -0.00017879 -0.00184404 0.00236002
N 5.84910990 12.33779593 13.04087232 0.00888662 -0.01061394 0.00297138
N 21.59973813 7.54069732 26.25453992 -0.00189759 0.00392988 0.00478469
N 5.92639969 7.76799619 31.15900432 -0.01015428 -0.00505359 -0.00615502
N 5.94378695 8.88985738 6.78231143 -0.00622610 -0.00134932 0.00034349
N 18.40351917 9.35679800 31.06348094 -0.00618485 -0.00865693 -0.00010064
N 22.39095070 15.70334934 17.74652056 -0.00232820 -0.00407072 0.00072344
N 8.66365021 11.03864351 5.79173779 0.00551053 0.00057000 0.00708071
N 17.99896178 1.95672203 12.05756898 0.00083855 -0.00737143 -0.00767539
N 16.92713731 6.09694205 4.74407706 -0.00314122 -0.00236349 0.00580163
N 9.42294279 21.42870702 6.02552624 0.00479225 -0.00166149 0.00361359
N 23.82277214 0.06060787 18.03170847 -0.00437892 -0.00139649 -0.00372067
N 12.06692676 13.00214778 30.17602666 -0.00195137 0.00363618 0.00200944
N 12.80788958 13.84175724 21.25849521 -0.00575955 -0.00973204 -0.00280506
N 10.92416331 24.59161079 2.32950510 0.00839573 0.00581988 0.00365144
N 8.39535531 13.84910214 28.83141972 0.00622284 -0.00228224 0.00060217
N 16.49329207 15.59321874 25.04617231 -0.00194998 0.00247466 -0.00070888
N 11.08156016 6.65194840 13.86045301 -0.00062072 0.00887188 0.00281893
N 12.16771414 20.23622337 18.92608532 0.00089998 0.00269518 -0.00473669
N 21.56615026 16.91938927 7.93316566 -0.00406434 0.00323184 -0.00206891
N 24.07098105 8.04865145 15.35959374 -0.00039083 -0.00071714 -0.00651233
N 14.17351402 4.55447572 30.64605715 -0.00352909 -0.00011140 0.00601954
N 24.88109948 8.50080464 8.04385863 -0.00209757 0.00226395 0.00038024
N 20.07080457 22.44666346 11.56653069 0.00296240 -0.00447287 0.00433580
N 1.47159877 11.54757969 5.31020516 -0.00647661 -0.00233236 0.00107363
N 14.00065034 17.55071197 2.75351101 0.00256324 -0.00192341 -0.00414885
N 22.32457706 0.05505789 0.84486344 -0.00296229 0.00077370 -0.00374468
N 25.28241288 4.51467947 11.96310678 -0.00441755 0.00978509 -0.00711359
N 10.34189761 18.72414844 30.71527220 0.00023743 0.01019882 0.00059303
N 19.47574525 25.19553963 19.43263721 0.00182369 0.00552777 -0.00145016
N 19.57230607 13.95297455 28.49765486 -0.00592848 0.00345613 0.00391974
N 17.98687463 21.23393191 25.75092126 -0.00231305 -0.00192957 0.00163490
N 1.02401281 5.17437830 23.66035109 -0.00266228 -0.00381317 -0.00224058
N 14.73910023 0.15256281 23.64626382 0.00441618 -0.00392103 -0.00295824
N 2.17732412 4.30765649 19.99514477 0.00025689 0.00736686 0.01061426
N 21.40531279 22.73027081 3.91091135 0.00840725 -0.00652664 0.00515250
N 20.81682922 16.38945506 13.39243969 0.00472275 -0.00107466 -0.00408310
N 11.09263186 22.41245294 0.07864833 -0.00499708 -0.00936468 0.00389769
N 1.53068553 21.12531322 14.20388332 -0.00707523 0.01155292 0.00095285
N 16.13778439 15.78530908 14.16650097 0.01642108 0.00521282 -0.00406362
N 24.51275277 19.16662230 6.37300047 -0.00358630 0.00526919 -0.00412516
N 24.11513535 22.84784927 10.05612817 0.00619619 -0.00860435 0.00307626
N 16.86280629 19.06763429 30.49840695 0.00186737 0.00103651 0.00003350
N 11.18719782 23.98814503 16.99285432 0.01017213 -0.00107654 -0.00434535
N 17.50412182 24.59418266 29.63580897 0.00123060 0.00680251 0.01043193
N 15.22472592 7.86094298 26.55522628 -0.00331404 -0.00446752 -0.00152264
N 23.09152000 14.62098624 3.56491018 -0.00489065 -0.00850433 0.00224993
N 17.78389756 9.14509574 20.55582111 0.00371660 0.00101903 -0.00919237
N 3.05444319 18.31209883 18.74683180 0.00628894 -0.00197297 0.00377645
N 22.79518930 20.58630824 23.46709789 -0.00045271 0.00761399 0.00316383
N 22.92814739 10.86178950 19.68755603 0.00289494 -0.00455496 -0.00364699
C 7.03257721 22.68636574 12.85313051 -0.00322400 -0.00023160 -0.00314866
C 4.89126989 0.77575969 10.39626016 0.00228400 -0.00680731 0.01048207
C 2.92881151 14.69884989 30.22434719 0.00633701 0.00209424 0.00593812
C 1.93449413 11.56309493 20.49915666 -0.00172741 -0.00659280 0.00430387
C 2.69202999 11.09107233 14.16643529 0.00078487 -0.01022294 -0.00051170
C 5.03612325 10.95947419 30.62157309 0.00152738 -0.00112606 0.00208003
C 13.27218366 17.81252863 13.96446120 -0.00112931 -0.00652903 -0.00375384
C 25.73383409 1.58382817 6.11256248 -0.00038681 -0.00318691 0.00499060
C 6.57861452 22.15080760 14.04929820 0.00085503 0.00156759 -0.00330787
C 4.52693143 24.97550653 10.99596934 0.00621564 0.00018613 -0.00861916
C 4.27235011 15.24517617 30.17328150 0.00385382 -0.00366317 0.00275619
C 0.87172873 12.36759383 20.25781064 0.00094854 0.00320671 0.00509559
C 1.90217541 10.49561615 13.22811852 -0.00333132 -0.00363498 -0.00198468
C 4.75490418 10.76437498 0.78216140 0.00309049 -0.00129916 -0.00725175
C 12.46326637 17.65484986 15.02615995 0.00088218 -0.00215501 -0.00217981
C 25.61473948 1.96204632 7.42318375 -0.00050928 0.00285831 0.00142920
C 5.91619504 20.93299695 14.03914112 0.00029717 0.00733364 -0.00022279
C 3.41826419 24.14134209 10.52782461 0.00243059 -0.00145398 -0.00282135
C 4.51378582 16.64726018 30.21038943 -0.00313300 -0.00065986 0.00313618
C 0.09033114 12.23553057 19.06570113 -0.00386791 0.00064634 -0.00236589
C 1.91306635 9.03035687 13.17669662 0.01020243 0.00589338 -0.00236248
C 3.71229862 9.88003164 1.18574722 -0.00144937 -0.00206869 0.00228543
C 11.37148611 16.71736929 15.00214060 0.00801160 -0.00474695 0.00320405
C 25.53443566 3.36012780 7.75871285 -0.00150421 0.01076765 -0.00605645
C 5.91417401 20.08394155 12.93714931 -0.00307900 0.00519151 -0.00327159
C 2.64494223 24.70372576 9.55457853 -0.00735898 0.00134089 0.00716701
C 3.38142999 17.52911270 30.25977121 -0.00076351 -0.00621264 -0.00393473
C 0.28149313 11.11427309 18.30301506 -0.00808439 -0.00503054 0.00948088
C 2.44760129 8.30567649 14.20761263 -0.00162809 -0.00547674 -0.00647155
C 2.85119075 9.36603556 0.24122780 0.00210042 -0.00770626 -0.01406382
C 11.11332149 16.03741971 13.80448898 -0.00727512 -0.00026750 -0.00168319
C 25.81245976 4.31872404 6.76745986 0.00494102 0.00746426 -0.00781398
C 6.56652926 20.50272416 11.80842413 -0.00518982 -0.00424159 -0.00674609
C 2.96124288 0.52822732 9.01944853 0.00243635 0.00079981 -0.00275580
C 2.13503094 16.99616748 30.44947498 0.00133810 0.00064556 -0.00161512
C 1.24580437 10.16556211 18.59253333 -0.01119379 -0.00081601 0.00916073
C 3.11812117 8.95189737 15.22750206 -0.00149363 0.00130671 -0.00639844
C 3.03789374 9.73911309 30.07063454 0.00158912 -0.01337278 -0.00292015
C 11.99208449 16.09283372 12.71457299 -0.00204361 0.00060880 -0.00140339
C 25.90958292 3.85312728 5.42087072 -0.01221626 0.00134251 0.00226640
C 7.09890585 21.87528899 11.73316370 -0.00709659 -0.00600390 -0.00163091
C 4.05882089 1.34482549 9.41631994 -0.00492350 0.00813047 0.00142605
C 1.90031882 15.56081474 30.36070910 -0.00395839 -0.00743538 0.00620278
C 2.21572103 10.36888710 19.62179392 -0.00025676 -0.00892187 -0.00782458
C 3.20746684 10.37012661 15.28410991 -0.00051562 -0.00259291 -0.00037462
C 4.12687493 10.51032686 29.62856092 0.00540553 0.00021025 0.00102326
C 12.96266644 17.12229513 12.71497115 0.00219164 0.00611216 -0.00045513
C 25.81101844 2.49583823 5.05808760 0.00696168 0.00180331 0.00018082
C 7.91748495 23.69193535 10.28665488 -0.00033007 0.00642118 0.00589148
C 3.48326909 3.13182559 7.91563888 0.00047834 -0.00143068 0.00821176
C 0.22829320 13.92306129 29.59369383 -0.00474746 0.00548576 0.00050296
C 4.01190200 9.52082916 20.84938725 0.01330600 0.00015945 0.00038630
C 4.21812741 12.27767781 16.31633254 0.00446541 -0.00639618 0.00513451
C 5.32980251 11.21231234 27.72336668 0.00569982 0.00408080 0.00242889
C 13.21874129 17.21409232 10.36065151 -0.00460436 -0.00091407 0.00154083
C 0.33049085 2.92988533 2.84384054 0.00351553 0.00408114 0.00101433
C 3.27331138 17.62682439 26.46221958 -0.00718783 0.00485359 -0.00066687
C 3.99588304 4.44799111 7.34082968 0.01593248 0.00006434 -0.00486360
C 3.41837382 20.15289319 9.78143475 -0.00581032 -0.00594925 0.00595288
C 11.18158142 6.71233622 27.21520515 0.00502916 -0.00498536 0.01441442
C 8.43182014 3.08505849 2.41940506 -0.00992486 -0.00070851 0.00647269
C 5.50869838 11.10593541 26.23806668 -0.00079146 0.00535081 0.00230360
C 2.45629580 15.61637314 4.67526766 -0.00126868 0.00061716 0.01909996
C 4.84314666 4.74608039 12.83868287 0.00574043 -0.00267873 0.00216499
C 8.38976643 1.12751412 15.02195454 -0.00093056 -0.00203661 0.00371964
C 1.15242894 9.37396390 26.09112744 0.00052260 -0.00650828 -0.00338295
C 1.58313547 13.39762571 24.29305397 0.00121445 0.00024834 0.00039064
C 12.48329528 6.45652563 22.68618373 0.00527547 0.00076286 0.00916510
C 20.89563446 11.23775940 1.63073956 0.00019848 0.00151826 -0.00470005
C 7.03421909 8.24959901 13.39377904 -0.00934521 0.00001459 0.00150374
C 11.14613525 19.74637050 24.00108772 0.00087015 0.00118407 0.00089291
C 5.43000293 5.12584188 15.67461323 0.00138702 -0.00367025 -0.00538957
C 8.36586012 0.97357416 13.67414131 0.00054415 0.00904188 -0.00247966
C 2.39742935 8.85747886 25.53963588 0.00741743 -0.00238441 0.00145262
C 2.93377814 13.33780496 24.61209068 0.00063146 0.00839921 0.00444067
C 13.05417664 5.79468973 21.66384492 -0.00075344 -0.00194607 0.00413160
C 21.76144600 11.57129699 0.53429682 -0.00387823 -0.00458873 0.00514677
C 7.06883447 8.26343863 12.03987562 -0.00705881 0.00018948 0.00447220
C 12.39352734 19.92205518 23.43938075 -0.00763688 0.00514504 0.00392554
C 5.19231691 5.31653194 17.05065368 0.00903058 -0.00507332 0.00381331
C 9.50886735 1.34353800 12.85063246 0.00366838 0.00134859 -0.00152244
C 3.11458377 7.87517266 26.14686901 -0.00147353 0.00398121 0.00014773
C 3.86885017 14.24640310 24.00989963 -0.00285997 0.00745688 -0.00146993
C 12.83373075 4.46904358 21.46212979 -0.01134525 -0.00247440 0.00093518
C 21.62053854 12.85260700 0.04237456 0.00465580 0.00257187 0.00103322
C 8.08860695 9.09512065 11.51970327 -0.00989532 0.00014573 0.00581084
C 13.11363089 21.08898602 23.68813389 0.00416424 0.00603977 -0.00105820
C 6.33689836 5.50433112 17.98214369 0.00067699 0.00922463 -0.00146740
C 10.52782535 2.04822744 13.51323873 0.00179777 -0.00608090 0.00320945
C 2.42253592 7.15169456 27.17178148 0.00562100 0.00059681 -0.00392921
C 3.27971290 15.04043783 22.92156758 0.00211909 -0.00218892 -0.00647168
C 12.11814936 3.70687251 22.47191416 -0.00233217 0.00671094 -0.00023540
C 20.70953531 13.79409081 0.57019720 -0.00456921 -0.00175538 0.00444383
C 8.95840645 9.87619744 12.23011744 -0.00777475 0.00032558 0.00390556
C 12.58919647 22.11426102 24.44789164 0.00538638 0.00788711 0.00120250
C 7.60085309 5.24806949 17.48318313 0.00349441 -0.00400815 -0.00106259
C 10.49599004 2.32740422 14.95282244 -0.01156628 -0.00168139 -0.00045189
C 1.16038470 7.47845985 27.58777304 -0.00439201 -0.00198490 -0.00001362
C 1.95890334 15.34094540 22.93305803 0.00229313 -0.00424767 -0.00186950
C 11.56244371 4.37306366 23.57091422 -0.01159045 0.00332052 -0.00163238
C 19.90225956 13.48615305 1.58718986 -0.00003719 0.00097693 -0.00239109
C 8.85801088 9.82037069 13.56286456 -0.00475032 0.00412591 -0.00295045
C 11.30279507 21.89343410 25.00038104 0.00289626 -0.00072198 -0.00549441
C 7.81311936 4.81866810 16.13735060 0.00376866 0.00004196 -0.00496949
C 9.41896191 1.83037581 15.69710245 -0.00194085 0.00026356 0.00332912
C 0.53796113 8.66334527 27.04799602 -0.00836889 0.00007151 -0.00573884
C 1.04958956 14.45292761 23.67110578 0.00418525 -0.00097737 -0.00539721
C 11.74727381 5.79958123 23.69659120 -0.00933338 0.00104122 -0.00949402
C 19.94672808 12.16552199 2.07959604 -0.00045864 0.00316767 -0.00294986
C 7.95834450 9.02061340 14.24262568 0.00337004 -0.00189478 -0.00262657
C 10.59183509 20.68393261 24.90631045 0.00595324 0.00349272 -0.00282494
C 6.74005180 4.74922384 15.27939129 -0.00612624 -0.00057949 0.00007474
C 10.24543306 1.57889918 18.02570763 0.01119500 -0.00516404 0.00083477
C 24.53179205 8.38043384 28.09187167 -0.00189720 -0.00892120 -0.00503032
C 25.17940040 15.74772508 23.48833916 0.00486387 0.00755910 0.00573086
C 10.98706078 5.93557394 25.94090262 -0.00245097 -0.00205695 -0.00167933
C 18.74792509 10.58820320 3.45156858 0.00338480 -0.00125687 0.00543146
C 8.51612177 9.86054868 16.42118723 -0.00000618 -0.00588478 0.00115644
C 8.92592123 21.19348444 26.53761737 -0.00976985 -0.00298294 -0.00839452
C 6.35638773 4.29877663 12.91925908 0.00126512 0.00378140 -0.00189781
C 13.66069503 21.95011039 14.19023891 0.00348156 0.00298897 0.00125606
C 23.58906754 9.28088137 28.88388868 -0.00561229 0.00313135 0.00065427
C 19.82931028 5.57284568 21.94103179 0.00166902 -0.00692759 0.00156510
C 5.09009993 8.50638668 20.70579279 0.00863990 0.00931191 0.00194332
C 2.44340810 1.25411902 14.02530808 0.00258824 -0.00761495 0.00375763
C 8.58327407 9.27651830 17.81798736 0.00990324 -0.00068880 -0.00117244