1920
Time=87000.00000006 pbc="T T T" Lattice="25.99133629 0.00000000 0.00000000 0.00000000 26.02040285 0.00000000 0.00000000 0.00000000 31.07967705" energy=-12205.79836303 virial="-94.13444652 -10.89872085 -5.87486463 -10.89872085 -81.95787146 10.88451242 -5.87486463 10.88451242 -20.15417251" stress="-0.00145992 -0.00065604 -0.00028005 -0.00065604 -0.00065164 0.00045945 -0.00028005 0.00045945 0.00228683" Properties=species:S:1:pos:R:3:vel:R:3
O 4.94946447 20.41495782 14.41247953 0.00185655 0.00419304 -0.00828987
O 4.39023996 24.53420543 11.17107007 -0.00335057 -0.00151253 -0.00401527
O 6.18295786 16.95777683 29.96014554 -0.00264771 -0.00059676 0.00217925
O 25.07432257 12.26631909 17.66919155 0.00493586 -0.00098104 0.00420153
O 1.91065344 7.57194687 13.01880412 0.00797822 -0.00239208 -0.00392630
O 3.27448041 9.79365588 2.60341845 0.00443160 -0.00295946 0.00648570
O 10.56348541 16.71814527 16.08171316 0.00737112 -0.00300439 0.00665947
O 25.22976564 2.83651864 8.44400769 -0.00214692 0.00321430 -0.00343699
O 10.20374753 2.93429798 19.77235150 -0.00298340 0.00779360 0.00629762
O 3.32259644 4.86673004 7.23636825 -0.00289793 0.00325124 0.00366781
O 25.10173487 14.17739814 30.70623467 -0.00302087 -0.00330191 -0.00171421
O 12.16180972 5.93181952 27.36337026 0.00907385 -0.00107493 -0.00080325
O 21.12004307 10.33467427 3.69624477 0.00117018 0.00873012 0.00238642
O 5.66099994 11.54366782 28.07526854 0.00142806 0.00631609 -0.00853365
O 11.70173398 16.82389663 9.72760510 -0.00318851 -0.00462276 -0.00245676
O 5.73225007 4.02201904 12.89937208 0.00688483 -0.00098041 0.00211671
O 7.90546219 1.04500086 12.90819782 -0.00382009 0.00284665 0.00410661
O 4.29360313 7.24455359 27.35074726 -0.00107580 -0.00135767 -0.00004976
O 4.86789187 15.84563958 22.19638887 -0.00487370 -0.00113229 -0.00321446
O 12.16904248 3.19577116 21.52784288 0.00333829 -0.00833515 0.00002422
O 22.55473124 13.97598498 29.57440570 -0.00382214 0.00160260 0.00127489
O 8.16680100 9.11208109 10.19362168 -0.00486563 0.00099459 0.00707197
O 15.71733741 22.49850813 23.36357857 0.00353765 -0.00547090 0.00298398
O 5.88804114 6.34966258 20.29875947 0.00908617 -0.00385602 -0.00649890
O 7.75923117 25.17552060 11.39725668 -0.00200034 -0.00341527 0.00160726
O 23.16797867 9.82592933 26.12133908 0.00981040 -0.00555044 -0.00079193
O 23.38688193 15.42038944 23.51209543 -0.00189124 -0.00211273 0.00312448
O 4.34882584 11.22282966 21.21095643 -0.00849288 0.00155634 0.01003415
O 3.14263349 13.13071173 15.96236106 -0.00023788 -0.00183164 -0.00615854
O 8.61101217 9.92028113 16.64686553 -0.00218928 0.00237589 -0.00003911
O 10.01706125 23.22512068 25.79493227 0.00122824 0.00132477 -0.00389720
O 25.41974384 4.43494001 2.21217596 0.00088168 -0.00509969 -0.00283619
O 17.43342002 18.78180626 8.23023020 0.00107739 0.00451150 -0.00264883
O 5.28699615 19.05851651 8.28073354 0.00851617 -0.00118870 -0.00117135
O 6.78581234 23.96500981 3.30009689 0.00464756 -0.00075370 -0.00516249
O 6.31805758 19.35267873 16.17549774 0.00340823 -0.00554687 0.00655701
O 5.53835783 25.97272610 20.70773422 -0.00391337 0.00931774 0.00391035
O 4.36517257 2.64470025 3.29925857 0.00722313 -0.00126794 -0.00206155
O 8.61318387 18.40523501 5.02077033 -0.00173609 0.00313328 -0.00230333
O 24.23165989 24.54447096 25.06680306 -0.00310689 -0.00174689 -0.00116869
O 2.56677258 14.91594074 25.60109603 -0.00143353 -0.00658780 0.00219043
O 0.62739768 15.03312700 9.77144817 0.00170205 -0.00612945 -0.00042766
O 3.31281935 20.79236574 7.77851472 -0.00164461 0.00460213 0.00370660
O 25.24342558 23.79593821 28.07173188 0.00024045 -0.00049445 -0.00270915
O 6.42976823 2.62707785 1.64604259 -0.00631624 0.00785616 0.00481705
O 1.03050864 23.45361081 4.96579135 0.00394126 0.00385565 -0.00225349
O 1.79559315 15.47667081 2.70869343 0.00204228 -0.00669504 0.00145168
O 23.22301485 19.60848048 18.85018656 -0.00899684 0.00322718 0.00563682
O 22.74451847 16.64513105 28.70801255 -0.00096352 -0.00136795 0.00102383
O 25.27701810 19.36473073 2.09786889 -0.00234525 -0.00268817 -0.00180103
O 20.39324803 1.35118898 28.51715395 0.00919857 -0.00577189 0.00089086
O 6.34123012 22.71377597 29.77980205 0.00574548 -0.00252713 0.00029902
O 6.37552503 4.22632336 26.35978059 -0.00149367 -0.00076107 -0.00199648
O 0.95087695 19.68606810 22.52269599 0.00585236 0.00540454 -0.00007113
O 6.36377823 11.58843416 22.72352159 0.00564230 -0.00550147 0.00045224
O 18.04208765 19.00264444 22.12586275 0.00195631 0.00881950 0.00020645
O 15.08083741 21.24586871 13.73455500 -0.00305232 -0.00063623 -0.00190595
O 6.22359693 22.16569525 1.18049973 -0.00028074 -0.00371583 -0.00989752
O 18.93127930 3.78411607 22.87779147 -0.00904485 0.00495331 0.00197899
O 5.55930001 18.47942146 22.46781714 -0.00473209 0.00010007 0.00454557
O 3.54817869 2.65827731 15.39083115 0.00277818 0.00105857 0.00276935
O 5.68827805 23.47017179 21.68335539 0.00213270 0.00392293 -0.00248759
O 9.35910887 18.47159991 20.66952905 -0.00097847 -0.00150960 -0.00276251
O 5.01967725 1.95961075 26.45751698 0.00285018 0.00385462 0.00555222
O 2.52584893 5.18176353 4.53465258 0.00073933 -0.00728844 -0.00468052
O 6.65908166 5.07690529 10.59625118 0.00359368 0.00532259 -0.00679730
O 16.49241341 12.69360578 26.64042122 0.00106498 -0.00490834 0.00118350
O 12.10998267 9.28452088 12.23896279 -0.00129215 -0.00048053 -0.00109367
O 10.12993418 6.63237446 7.37126358 -0.00118425 0.00171186 0.00720488
O 15.77466854 10.22745898 6.57288236 -0.00123773 0.00778425 0.00083716
O 19.55354641 3.22451930 8.71644217 0.00021537 -0.00131410 0.00168158
O 20.89317859 11.90259942 13.52509287 0.00346758 0.00051217 -0.00573485
O 23.23861692 25.44902470 16.55206901 0.00498576 0.00115109 -0.00812886
O 12.33438394 1.01995159 7.40098189 0.00621741 -0.00594091 0.01009889
O 19.66017133 8.79857212 30.46208104 -0.00160082 -0.00744253 -0.00672912
O 1.36511547 7.93199108 3.05198016 -0.00008588 -0.00149848 0.00179740
O 8.17733549 15.52775987 29.07220520 -0.00253183 0.00570147 -0.00313806
O 21.05145370 9.53133637 9.80536662 -0.00833869 0.00093328 0.00913553
O 16.10115202 7.77451633 5.93472036 0.00182631 0.00385406 0.00157884
O 19.31007948 7.31427165 24.79090258 -0.00104745 -0.00490869 -0.00411795
O 23.73414361 4.20050872 22.61979605 -0.00188675 -0.01090790 0.00512445
O 7.45607809 10.82238614 26.31028524 0.00261031 0.00525896 -0.00860168
O 10.25110176 11.92616781 16.08214080 -0.00071877 -0.00007362 0.00307583
O 22.21897825 8.14624811 30.52421935 0.00052146 0.00656843 0.00257316
O 9.30684583 10.34975817 1.60471780 0.00251160 0.00090737 0.00047572
O 20.05160542 5.68459842 12.63095897 -0.00145449 -0.01391482 0.00003237
O 13.69460177 5.14795101 18.01081324 -0.00181457 -0.00179169 -0.00084084
O 19.30205957 4.08544274 30.13549128 -0.00955876 0.00266645 0.00371178
O 4.52421690 7.16455504 29.90933730 0.00729953 -0.00233089 -0.00074297
O 8.22175701 6.61690004 21.77909243 0.00526360 0.00613477 0.00365278
O 11.12193023 13.55386250 22.11615969 0.00175795 0.00212096 0.00040419
O 16.75609346 10.07837423 16.07434014 0.00082777 -0.00426034 -0.00063199
O 8.21687790 11.59006798 3.64074849 -0.00717112 0.00602480 0.00439311
O 15.96810667 4.41612324 17.25217497 -0.00885093 -0.00764222 0.00324415
O 12.30501763 6.61463491 12.19091074 0.00465191 0.01239601 -0.00214108
O 15.04711442 11.66828750 10.72726579 -0.00086358 0.00118917 0.00380247
O 12.67356617 6.69723855 30.19317026 0.00060279 -0.00014977 0.00786934
O 5.42319325 14.61561685 5.97199751 0.00368360 -0.00312504 -0.00083432
O 12.58444331 3.06344021 2.11517744 0.00545564 0.00042875 0.00571524
O 24.72022933 19.61098916 13.48950832 0.00332747 0.00219768 0.00227654
O 11.64075572 24.86685484 9.89920314 0.00386933 -0.00262261 -0.00552455
O 15.82953056 24.25324584 16.18423598 -0.00511294 0.00181891 -0.00001270
O 8.53083882 13.55085541 11.65384404 0.00288975 0.00420619 0.00234437
O 9.51609812 18.12857342 9.66974269 0.00661568 -0.00584711 -0.00033819
O 12.10675298 8.39564187 18.52746288 -0.00272969 0.00255513 -0.00095568
O 5.64353206 9.00202863 9.13977950 -0.00582488 0.00148450 0.00677961
O 12.63819568 6.29975020 7.68637009 0.00054642 0.00523794 -0.00850672
O 13.31776388 0.62494323 2.03125456 0.00100038 0.00210301 0.00884184
O 8.08014050 1.38458084 28.18574690 0.00365372 -0.00025530 -0.00937492
O 18.35933038 3.33256228 11.04174815 -0.00539728 0.00214469 -0.00237355
O 13.60266528 13.28200701 8.00399317 0.00107131 -0.00143500 0.00044614
O 10.28468299 20.11362826 18.96258360 -0.00664434 0.00262575 -0.00217925
O 13.99236337 12.43361305 22.95932422 -0.00145826 -0.00061886 0.00175041
O 11.85258473 11.77912701 24.33920365 0.00129419 -0.00305307 -0.00998196
O 17.26764351 25.39746670 4.34266583 -0.00694271 -0.00906852 0.00659865
O 7.20571268 0.89408646 30.58052803 0.00705632 -0.00158927 -0.00232196
O 11.24594986 0.38244528 21.51229284 -0.00403501 0.00513883 -0.00311401
O 17.36202394 16.37536746 19.38932225 -0.00356455 0.00437256 -0.00102854
O 7.95543765 16.91346339 16.12035205 0.00439707 -0.00471313 0.00500548
O 18.04315701 20.85886348 18.00204350 0.01056245 -0.00297883 0.01226347
O 14.07561847 10.21024180 4.17954287 0.00330694 -0.00531426 0.00154149
O 13.40274740 11.07623098 30.50067264 -0.00224221 -0.00175798 -0.00256816
O 14.31513998 24.93271280 10.09799907 0.00934936 0.00304363 0.00273215
O 25.12932185 14.97241774 17.64190444 0.01067763 0.00255094 -0.00189625
O 10.97923091 21.80182092 15.49278844 0.00192476 0.00566045 -0.00560954
O 14.19174464 16.49007289 24.82573238 -0.00160555 -0.00504993 -0.00646965
O 5.91749151 13.13657828 11.28048874 0.00500306 0.00025493 0.00515278
O 10.41891101 24.15654168 4.99061508 0.00676506 -0.00278347 -0.00151802
O 20.52161192 21.05075131 29.69685930 0.00484491 -0.01267855 -0.00311783
O 23.70540969 4.69936526 17.12297757 -0.00186001 -0.00047446 -0.00459337
O 10.65413742 19.67125007 3.65553881 0.00083968 -0.00484232 -0.00607137
O 20.66481270 8.14269703 5.06889205 0.00734363 -0.00831863 -0.00061974
O 15.67482156 14.67882069 8.80295890 0.00800579 -0.00116224 -0.00222622
O 24.54132831 12.34066913 1.33298914 0.00123689 -0.00197764 0.00354754
O 21.24104542 1.54547103 7.68877767 0.00449363 -0.00191512 -0.00050674
O 22.24969148 3.46204593 4.56424540 -0.00549791 0.00039227 0.01718307
O 13.84657800 25.26207236 17.10404993 0.00460151 -0.00790871 0.00274128
O 0.03547615 10.21361449 14.95233554 -0.00459792 0.01163236 0.00038399
O 13.21628601 23.21650645 30.72065243 -0.00065710 0.00037149 -0.00000773
O 17.64385269 15.66350769 28.95574391 0.00513727 -0.00155240 -0.00168198
O 15.48021210 7.90288966 21.58957391 0.00149381 -0.00798201 0.00122008
O 25.87759462 10.85731773 7.26466089 -0.00726584 -0.00429655 0.00497788
O 25.49874779 21.51397282 9.33651664 -0.00174253 -0.00277471 -0.00042258
O 0.01033906 3.99727739 17.73998241 0.00001850 0.00212910 -0.00067692
O 11.11190831 22.23259069 21.79277636 -0.00636814 -0.00126359 -0.00512345
O 13.74508652 18.73257167 26.19944738 0.00071869 -0.01000421 0.00232450
O 16.51190982 3.23122407 23.51030466 -0.00246961 0.01207270 -0.00138833
O 21.20217231 13.94163432 23.95112488 0.00391894 0.00105193 -0.00169014
O 18.73338995 12.63969832 24.92852186 -0.00064121 0.00461470 -0.00393963
O 5.10899917 2.53294707 21.58619910 0.00491124 -0.00795535 0.00393557
O 22.55464201 19.36897421 28.89406914 0.00413074 0.00671980 0.00023146
O 24.73023468 8.10353993 22.40823182 0.00213477 0.00352567 0.00260959
O 19.66338421 24.60618710 3.66073475 0.00092657 -0.00260213 -0.00192968
O 8.65458214 18.95694869 0.75223311 -0.00048164 0.00047727 0.00102630
O 14.03217897 8.19160069 28.68889205 0.00381599 0.00300443 0.00452753
O 24.74596355 5.30537741 9.01951622 0.00556975 0.00449276 0.00244629
O 14.62490221 15.57283927 14.84817097 -0.00166778 0.00655635 0.00072573
O 25.23619977 3.45265429 24.35444116 0.00513206 0.00045715 0.00156294
O 25.01774410 21.28796519 23.29601665 0.00804203 0.00282420 0.00224455
O 22.95503411 1.09210004 29.76262700 -0.00334328 0.00706548 -0.00309167
O 23.98732416 20.13525981 10.95010549 -0.00666535 -0.00401260 -0.01616281
O 18.67757619 18.40768569 18.70796900 -0.01153922 0.00897774 0.00613223
O 12.48133094 1.40292250 26.08352802 0.00872501 -0.00521022 -0.00805359
O 24.08572168 22.05969927 18.78800250 0.00813729 0.00007083 0.00187871
O 23.81906885 23.69368335 14.62203709 -0.00020532 -0.00260828 0.00850055
O 19.01118785 19.63806507 6.36948863 -0.00582371 -0.00782092 -0.00292185
O 10.72360529 15.46368662 30.07902911 -0.00404807 -0.00600880 -0.00579836
O 17.22619788 21.51778646 4.98380826 0.00710352 -0.00478274 0.00188113
O 0.00391880 5.92982618 12.81146665 -0.00338553 0.00774578 -0.00580302
O 20.60865087 14.30422977 14.00637245 -0.00588339 0.00721569 -0.00077636
O 16.82152803 3.39425831 30.25047928 -0.00221216 -0.00360604 0.00370841
O 25.31584039 16.31786832 3.16076756 -0.00255280 -0.01070079 -0.00003611
O 17.62822264 20.99203691 23.68729235 -0.00336066 0.00226071 -0.00341847
O 25.00844494 18.87647924 4.47586590 0.00064326 0.00645020 0.00558613
O 12.33163342 18.01423381 4.59155042 -0.00333600 -0.01028250 0.00470830
O 22.21224240 8.99761348 21.48256778 0.00093652 0.00341269 -0.00005388
O 21.26532825 6.94538300 9.19707541 -0.00149193 -0.00446924 0.00303679
O 17.76239372 1.50783546 2.43344705 -0.00042523 0.00351970 -0.00211902
O 20.63341567 22.02146157 15.33325315 0.00328936 -0.00476566 0.00389638
O 24.48119275 13.60486552 8.93761618 -0.00009016 0.00215731 0.00450808
O 22.17585192 25.29156080 23.64098774 -0.00056052 -0.00534950 -0.00175844
O 2.43061979 14.71828341 13.89119486 0.00290800 -0.00456845 0.00450395
O 17.37069758 23.76697886 18.21034304 -0.00065591 -0.00053436 -0.00519927
O 18.82802531 8.44370709 16.14233606 -0.00411961 -0.00138156 0.00356713
O 19.25159210 17.19271080 8.51544720 -0.00894374 0.00278173 0.00488854
O 15.64778713 22.96086175 29.80935631 0.00030955 -0.00364953 -0.00528201
O 21.08850081 25.32325866 20.96523604 -0.00612034 0.00526863 0.00115057
O 2.93469043 24.15301593 13.25996727 0.00090128 -0.00126025 -0.00460819
O 19.68214557 25.26422924 9.89809275 0.00360172 -0.00365340 -0.00140129
O 2.12393545 18.67019185 18.88656519 -0.00202653 -0.00257129 -0.00612935
O 13.87531384 0.86991653 24.01326192 0.00141860 0.00166772 -0.00016020
O 16.30495027 17.14805635 30.64235498 0.00495545 0.00515238 0.00047342
N 14.86550425 22.33985300 11.65549528 0.00481367 -0.00364055 -0.00254307
N 2.70748569 2.73073019 7.87239939 0.00717421 -0.00377280 -0.00197807
N 3.97644290 23.01219661 8.10946598 -0.00147429 -0.00999302 -0.00331985
N 2.87429253 9.53444397 20.76293257 -0.00363802 -0.00289934 -0.00568412
N 4.02281905 0.36677123 15.28692670 0.00758281 0.00381014 -0.00072053
N 3.42177606 10.98448715 28.23144695 -0.00029081 0.00514450 -0.00507265
N 4.11467464 15.70283731 3.02372226 -0.00467684 -0.00092688 -0.00623512
N 25.36440791 2.26439377 2.95364527 0.00983459 -0.00100851 0.00499233
N 2.05854251 16.86478334 26.78549237 0.00345202 -0.00036493 0.00900447
N 25.34268747 9.35744581 25.79877169 -0.00148910 0.00095788 0.00690451
N 20.95453197 4.07102271 23.74562114 -0.00171827 -0.00039836 0.00508404
N 11.60176396 7.20430069 25.52709535 -0.00209926 0.00760065 0.00297310
N 8.15238650 3.94428093 0.67261868 -0.00062510 0.00486746 -0.00239901
N 6.88900744 8.81748779 15.58412874 0.00423412 0.00016675 0.00065328
N 8.81832759 16.43872240 21.57036635 -0.00084287 0.00288942 0.00494008
N 6.21651921 4.49891416 14.98934335 -0.00759508 -0.00660332 -0.00385289
N 7.91467109 23.03166697 10.60849943 0.00430762 0.01246881 0.00208623
N 2.76258031 14.58797247 10.42241500 -0.01637767 0.00534310 -0.01012739
N 0.86755236 15.44334736 30.41843218 -0.00251419 0.00335608 0.00244216
N 6.79244932 20.22654901 21.46780216 0.00333250 0.00555434 -0.00143572
N 3.81875794 11.08530485 16.89661647 -0.00431751 -0.00569010 -0.00296379
N 1.41855647 24.03466970 2.72177048 -0.00410292 0.00544294 0.00163039
N 13.05232119 17.91354967 11.25794900 -0.00183675 0.00919785 0.00298141
N 2.99324884 1.16920545 26.38836870 -0.00440696 -0.00318835 -0.00342251
N 9.23699343 1.64244866 18.23796331 0.00631770 -0.00710969 0.00644290
N 4.14427315 21.29394722 0.55172409 -0.00131372 -0.00610691 0.00145623
N 25.47661200 14.95248013 22.98503742 0.00135423 -0.00772583 0.00811114
N 1.43382040 24.25701239 27.71139321 -0.00181973 -0.00504930 0.00208960
N 20.00623350 12.15876315 3.07773092 -0.00315756 -0.00186731 -0.00039568
N 5.66882253 22.35878568 23.71827001 0.00405328 0.00744365 -0.00057830
N 10.69160730 21.08923025 25.18354012 0.00928899 -0.00155519 -0.00223368
N 23.21677005 17.95522029 20.44793072 0.00852200 -0.00782233 -0.00231627
N 11.87515942 9.58459646 3.91643864 0.00031197 -0.00559361 0.01023823
N 10.82338311 1.58714377 8.98472600 -0.00308657 -0.00055623 0.00068578
N 13.71244189 4.32686181 7.36158135 0.00033809 0.00932522 0.00864626
N 15.89603173 11.95465469 15.19823914 0.00097931 0.00569415 -0.00203837
N 10.12840900 20.91914473 13.54041276 -0.00592277 -0.00838941 -0.00532701
N 20.19315414 11.63744586 9.62833196 -0.00500056 -0.00517801 0.00603812
N 11.62378776 14.23401072 7.24493160 -0.00459972 0.00002377 0.00587992
N 16.58815151 9.88024133 10.64348547 0.00131596 0.00327982 0.01069979
N 13.26317007 10.36660524 18.00088035 -0.00946688 0.00755415 -0.00823226
N 7.86328178 5.77171967 23.80890538 0.00659485 0.00237088 -0.00064522
N 15.30207500 0.79978842 9.22128791 0.00135799 -0.01023450 -0.01297083
N 25.23536817 7.83391249 4.01406245 0.00215841 -0.00346523 -0.00389294
N 8.08417156 1.28403481 25.94683068 0.00440999 -0.00044103 -0.00338706
N 18.12563868 4.02718490 17.63517647 -0.00354660 -0.00716330 0.00418778
N 6.05370828 12.32692222 13.42883601 -0.00469297 0.00739193 0.00559497
N 20.80999063 7.90550826 26.43129505 0.00376272 0.01020367 -0.00504258
N 6.04347451 7.32094772 0.49139709 0.01292223 -0.00003872 -0.00678141
N 5.65096891 9.08252721 6.89251121 0.00225032 -0.00237202 0.00464491
N 17.74788977 9.94671079 0.17225976 0.00674512 -0.00188974 0.00333181
N 23.17835513 16.18757544 17.45808027 -0.00956011 0.00227109 0.00325503
N 8.26147260 11.68149030 5.97661648 0.00478010 0.00063796 0.00369760
N 17.81216551 1.55756511 12.25247969 -0.00317939 0.00154085 -0.00099052
N 16.74902638 5.94888701 4.81033139 -0.00443188 -0.00542164 -0.01090750
N 9.58146386 22.14513569 5.64908765 0.00358031 0.00483175 -0.00653581
N 23.68447872 0.26580145 18.59166573 0.00666244 0.00379594 -0.00726143
N 11.72550433 12.44584538 29.83470453 0.00139690 0.00592624 0.00236093
N 12.21309437 14.63637048 20.43298523 -0.00392635 0.00327174 0.01116212
N 11.39153391 25.39248187 2.63799792 0.00259606 -0.00192592 0.00398427
N 8.38923992 13.42931964 28.13104962 -0.00180520 -0.00172704 -0.00406435
N 15.91543397 15.00594648 24.51168351 0.00335597 -0.00097800 -0.00138817
N 10.72356212 5.77225355 13.50563574 -0.00842639 -0.00975157 0.00122363
N 12.39634680 20.62762639 18.25532053 -0.00584949 -0.00017376 -0.00316925
N 21.17001446 16.11577585 8.45227186 -0.00094981 0.00045340 0.00310375
N 23.83546686 9.62470142 14.51434972 0.00216204 0.00088663 0.00379222
N 14.54862014 3.85448909 30.57040163 0.00255537 -0.00041278 -0.00148589
N 24.92709032 7.50246474 8.61039505 0.00082701 -0.00080219 0.00479047
N 19.94239015 23.23211128 10.77869883 0.00231984 -0.00175698 0.00200704
N 1.73099591 11.62934692 5.89609779 0.00089071 -0.00261468 0.00439671
N 13.96600963 17.56729900 3.00345972 0.00116483 0.00427084 0.00168600
N 22.54042814 25.75582302 0.53197081 -0.00833532 0.00460698 0.00761730
N 24.38736642 4.30227360 12.75731784 0.00147541 -0.00318800 -0.00715660
N 10.55882907 19.04066574 30.71565634 -0.00073735 -0.00141368 0.00050404
N 19.86456536 0.02692551 19.16096794 0.00185347 -0.00327811 0.00033943
N 19.01132351 13.81459333 28.96303574 -0.00411926 -0.00479472 -0.00022626
N 18.59667868 21.38834633 25.72645001 0.00452784 0.00219039 -0.00500207
N 1.20183958 4.53911443 25.01433854 -0.00241744 0.00312044 0.00192808
N 14.85815818 1.02053710 21.94157589 0.00275339 -0.00398676 -0.00286408
N 1.33870721 4.09759658 19.49189289 0.00029621 -0.01228111 0.00186082
N 20.87740949 22.65074805 3.91882246 0.00248211 -0.00047234 -0.00141621
N 20.93405482 16.64373594 13.93004439 0.00250201 0.00222692 -0.00621896
N 10.85474022 23.45933883 30.82726793 0.00518893 0.00127852 0.00069408
N 1.48264346 22.81891103 14.30724807 -0.00235211 0.00396303 0.00152321
N 16.46549128 16.49268747 14.02850117 -0.00289554 0.00299841 -0.00434209
N 24.58603016 19.67181129 6.58758445 -0.00278049 0.00640668 0.01165465
N 24.85370955 23.77667503 9.54849224 -0.00709649 0.00529239 -0.00516834
N 16.58244408 19.41565086 30.99985532 -0.00410345 0.00136740 -0.00591777
N 11.62013818 24.76646544 16.86934305 -0.00110992 0.00274311 -0.00484873
N 17.29069304 24.32646120 28.87088119 0.00071777 0.00264589 0.00184200
N 15.22478297 7.62523239 26.84245163 0.00267835 0.00667997 0.00213582
N 23.60256260 14.93937367 3.61422561 0.00142801 0.01060464 -0.00325116
N 17.07783437 9.29670611 20.70939116 0.00569254 -0.00210133 0.00727003
N 2.25710015 19.41951849 16.65441435 -0.00262503 -0.00095137 0.00068804
N 22.68291264 21.45658384 23.79880465 -0.00590960 0.00487296 -0.00357737
N 22.62354818 10.45663276 19.67852665 -0.00409700 -0.00165783 0.00152374
C 6.55919044 23.05477787 12.54166265 -0.01023982 0.00448463 -0.00346468
C 4.30261999 1.75969681 9.43014780 0.00135595 0.00851768 0.00176474
C 3.21845971 14.80956504 30.01019163 0.00145973 -0.00162103 -0.00200009
C 1.72995993 11.58508710 20.26765370 0.00793416 -0.00456405 -0.00027705
C 3.21881111 10.63621163 14.47254432 0.00515923 -0.00171705 0.00099623
C 4.68074340 10.88389551 30.43906323 0.00573935 -0.00502567 0.00525121
C 13.04613687 17.99630864 13.69656825 0.00824078 0.00106239 0.00280872
C 25.07963128 1.44179042 5.13187935 -0.00050214 -0.00176619 -0.01610210
C 5.92837027 22.42308773 13.53663601 -0.00046063 -0.00526402 0.00020148
C 4.71031501 0.73306065 10.26792717 -0.00823476 -0.00653906 -0.01129277
C 4.50659818 15.21785964 29.88210416 -0.00122314 -0.00468521 -0.00338046
C 0.69728235 12.24412726 19.62255145 -0.00487098 0.00500600 -0.00413504
C 2.70917598 9.75309324 13.59735569 -0.00834483 -0.00672577 0.00614350
C 4.48644626 10.76089614 0.76607518 0.01106347 0.00420586 -0.00435649
C 12.39205805 17.79768747 14.85465182 0.00062867 0.00201315 0.00686375
C 25.12032941 1.53838153 6.50499370 -0.00512392 -0.00254421 -0.00965621
C 5.62038333 20.97338093 13.43028763 -0.00780557 -0.00455335 0.00471062
C 3.92503504 25.62286136 10.51496871 0.00422996 -0.00288482 0.00145014
C 4.91698184 16.57641073 29.96281890 -0.00232902 -0.00219134 0.00086019
C 25.98663492 11.67943499 18.50139031 -0.00148945 0.01545037 0.00896671
C 2.26375221 8.46407678 13.97651894 -0.00015154 0.01334691 -0.00205305
C 3.36324141 10.13940282 1.30387638 -0.00585547 -0.00775794 -0.00524598
C 11.10975319 17.02243243 14.93267819 -0.00314135 0.00790288 -0.00073329
C 25.41033746 2.75374234 7.12479004 0.00373436 0.00193299 -0.00450021
C 6.15301917 20.23961565 12.30517955 -0.00389682 -0.00268591 -0.00274764
C 2.64906826 25.60629881 9.99491419 -0.00011114 -0.00666484 -0.00066050
C 3.89641978 17.50743447 30.19051514 0.00433857 -0.00555653 0.00206414
C 0.37547276 10.33648117 18.24641441 -0.00172182 0.00463187 -0.00051738
C 2.29710725 8.10098531 15.32039199 -0.00113755 -0.00049703 0.00463137
C 2.29764322 9.84606284 0.45855812 0.00340947 -0.00064565 -0.00769726
C 10.52875641 16.72235902 13.68350831 0.00379519 0.00809982 -0.00469462
C 25.62973810 3.82647593 6.25318189 0.00062272 0.00033411 -0.00004208
C 6.95354966 20.97354197 11.43857308 0.00011566 -0.00303390 0.00515694
C 2.10908746 0.65953482 9.23558383 -0.00466613 0.00296178 -0.00305253
C 2.59869366 17.15384754 30.46754510 -0.00864902 -0.00139342 -0.00517679
C 1.21434162 9.60515165 19.09518864 -0.00085981 -0.00265990 -0.00527275
C 3.03411983 8.86712455 16.18263661 0.00129143 -0.00371168 0.00488276
C 2.34117493 10.20171486 30.16948871 0.00359222 0.01009815 0.00017128
C 11.05797938 17.09429045 12.52269082 -0.00322877 -0.00630707 0.00075532
C 25.72989933 3.72805962 4.91822248 0.00705472 0.00718894 0.00484521
C 7.13833034 22.32024815 11.51806115 -0.00133151 -0.00173877 0.00602661
C 2.99697769 1.67989258 8.79229101 -0.00233227 0.00835131 -0.00600925
C 2.26682162 15.81330138 30.30763564 0.00216934 0.00156179 -0.00254397
C 1.88664257 10.21704317 20.08334644 -0.00667642 0.00575881 0.00420293
C 3.34109004 10.21435999 15.90062335 0.00020836 -0.00565496 -0.00127699
C 3.49778008 10.73228430 29.56402229 0.00447946 0.00166223 -0.00995722
C 12.34917968 17.70802348 12.44407835 -0.00142970 -0.00134096 -0.01007751
C 25.46304513 2.53314161 4.29685934 0.00345013 0.00023369 0.00067065
C 7.88498839 24.42841450 10.47739756 0.00362895 -0.00103879 -0.00092695
C 3.60101300 3.65056181 7.36822001 -0.00539217 0.00155444 0.00852524
C 0.20706422 14.34046656 30.12555072 -0.00562169 -0.00346603 -0.00001373
C 3.95550009 10.06359645 21.37094044 -0.00163956 -0.00444356 0.00684713
C 3.68239602 12.48462204 16.86699921 0.00023822 -0.00187750 -0.00306004
C 4.47543361 11.45652886 27.53627426 0.00217403 -0.00580521 0.00344867
C 12.72855852 17.54155135 9.91978478 -0.00391384 0.00475682 -0.00042512
C 25.60093846 3.25225997 2.05230391 0.00149950 0.00735900 0.00962839
C 4.28785174 16.51770672 25.84021458 0.00985404 -0.00962828 0.00565562
C 4.86251207 3.15416686 6.83464379 0.00443252 -0.00309116 0.00216396
C 3.45738991 21.56187746 9.97991577 0.00024757 0.00215525 0.00782421
C 10.99335946 7.90829679 27.75860887 -0.00577407 0.00422238 -0.00493454
C 7.77865546 3.76272653 3.10387220 -0.00224451 -0.00706761 0.00310720
C 4.12031523 12.08476519 26.22711265 -0.00435691 0.00081628 0.00383660
C 2.68389224 15.46812477 4.95819183 0.00213843 -0.00143744 0.00000597
C 4.20184024 5.48688597 14.02534678 -0.00497801 0.00279438 0.00312938
C 7.99302674 0.66100012 16.56869872 0.00014823 -0.00354390 -0.00812659
C 1.73624153 9.05846632 25.43840255 -0.00579361 -0.00407845 -0.01038986
C 1.72086366 14.04775221 22.95220014 -0.00428072 0.00041869 -0.00327714
C 11.97106864 6.51814957 23.23365406 0.00665559 -0.00182270 -0.00437181
C 21.51138055 11.67322199 1.26834462 0.00357866 0.00194112 0.00622499
C 6.55926299 8.16270464 13.33278976 0.00589982 0.00289119 0.00157389
C 12.64660851 20.60159306 23.88546507 0.00918029 0.00142992 0.00027182
C 4.77813887 5.27689678 16.98500089 -0.00322618 -0.00314675 0.00793142
C 7.60597828 0.57683124 15.23604212 0.00126976 -0.00484580 0.00351011
C 2.98154886 8.66359961 25.90246770 -0.00074924 -0.00048903 -0.00448182
C 3.05324114 14.36106379 22.75799897 0.00502258 0.00561716 -0.00132321
C 12.00718215 5.51299665 22.21277263 -0.00132297 -0.00279199 -0.00475631
C 22.11030562 12.19257952 0.08982134 -0.00006174 0.00503976 -0.00333193
C 6.84701490 8.16686187 11.96291013 0.00500493 -0.00495559 0.00323739
C 13.83769235 21.01957982 23.39692798 -0.00238806 0.00543007 0.00002014
C 4.68694030 5.64918173 18.28361096 0.00011226 -0.00070391 0.01278072
C 8.35862192 1.19785681 14.23438193 0.00907723 -0.00880044 0.00303108
C 3.14029979 7.92514332 27.01598971 -0.00291350 -0.00628619 -0.00555653
C 3.51505264 15.58897912 22.23542572 -0.00414866 -0.00357768 -0.00063948
C 12.03227973 4.16233170 22.51377603 0.00581453 0.00923429 -0.00203885
C 22.00184208 13.50471623 30.71188824 0.00368278 0.00281039 0.00376015
C 7.86307983 8.99043010 11.54136851 -0.00035295 0.00720262 0.00628672
C 14.56133394 22.22486250 23.90458275 -0.00084421 -0.00406989 -0.00037859
C 5.87631597 5.87938190 19.06937246 0.00153560 -0.00271430 -0.00668170
C 9.51006444 2.00009741 14.55693219 -0.00074906 0.00496611 0.00807559
C 1.99455916 7.84775289 27.90133877 -0.00988212 0.00412139 -0.00075247
C 2.51503603 16.49376215 21.69040323 0.00556032 0.00681390 -0.00120451
C 11.96860831 3.78243412 23.91516122 0.00060537 -0.00537942 -0.00008268
C 21.03503341 14.24643547 0.36941951 -0.00209666 -0.00344415 0.00676959
C 8.68091857 9.69960049 12.45174153 -0.00336650 -0.00911816 -0.00607267
C 13.79282347 23.06381690 24.70827083 0.00080948 -0.00013544 -0.00645866
C 7.03439344 5.27884051 18.54924948 0.00897724 -0.01040292 -0.00549151
C 9.74625368 2.25627035 15.91771581 0.00147920 -0.00064685 0.00292781
C 0.72967770 8.15238979 27.46439733 -0.00302793 0.00780815 0.00775704
C 1.19073895 16.29818602 21.95557980 0.00737589 0.00543190 0.00440043
C 11.90542640 4.72057917 24.86308232 0.00528596 0.00116060 0.00643624
C 20.46088903 13.75772054 1.49214958 -0.00092921 -0.00197655 0.00242168
C 8.40360038 9.51388072 13.83779335 -0.00537354 0.00227844 0.00020603
C 12.52167245 22.73544013 25.02587451 0.00001432 0.00128237 0.00258440
C 7.09565959 5.00537088 17.21756968 -0.00571487 0.00179077 0.00349884
C 9.00354513 1.55285280 16.88974978 0.00343837 -0.00160286 0.00533690
C 0.61405375 8.91333176 26.24050394 -0.00364267 -0.00726844 0.00684534
C 0.81491780 15.14649800 22.68161284 0.00267257 0.00137280 -0.00791514
C 11.80315392 6.17222934 24.53910565 -0.00438314 0.00530969 0.00114985
C 20.59205641 12.48332677 1.91730565 -0.00014034 0.00319983 0.00056398
C 7.30642683 8.86838184 14.29992733 -0.00245162 0.00384212 0.00834308
C 11.98801361 21.46972856 24.71319451 0.00792164 -0.00090501 -0.00282040
C 5.96614531 4.96094205 16.37083494 -0.00300505 -0.00548693 0.00628446
C 10.36474912 2.25356542 18.77209873 0.00403726 -0.00555843 0.00174906
C 24.30412068 9.91769935 26.50191586 -0.00440064 -0.00335834 0.00286831
C 24.54379806 15.84008655 23.38352248 0.00027179 -0.00526530 0.00832061
C 11.68046437 6.93477831 26.84114923 0.00067490 0.01152365 -0.00139978
C 20.05407047 10.98279244 3.63764116 0.00671089 0.00379791 -0.00895970
C 7.48195316 9.45494602 16.62347408 0.00586839 -0.00161354 0.00056023
C 9.97518794 21.93051697 25.88670606 -0.00434955 -0.00174823 -0.00494964
C 5.41600648 4.61483897 13.92919612 -0.00283061 -0.00327223 0.00061912
C 13.91549278 23.25634775 13.73991020 0.00299415 -0.00038781 -0.00029270
C 24.68881007 10.60096911 27.78616943 0.00591550 0.00201451 0.00202544
C 20.06440450 5.70985671 22.08346207 -0.00347820 0.00349808 0.00883814
C 4.78865303 9.08565981 22.20122315 0.00250910 -0.00618535 0.00722531
C 3.40896228 1.53839709 13.25698621 -0.00744919 0.00160912 -0.01118849
C 6.63016930 9.67865195 17.78322973 0.00079957 0.00239369 0.00307334