1920
Time=19999.99999999 pbc="T T T" Lattice="25.48461627 0.00000000 0.00000000 0.00000000 25.85556931 0.00000000 0.00000000 0.00000000 32.09332718" energy=-12207.29576379 virial="-31.73117334 7.59880921 15.06914925 7.59880921 -61.30798901 -21.42801297 15.06914925 -21.42801297 -23.69918680" stress="0.00153852 0.00040596 0.00065176 0.00040596 0.00042067 -0.00099142 0.00065176 -0.00099142 0.00182424" Properties=species:S:1:pos:R:3:vel:R:3
O 4.34732126 20.98162216 15.94247330 -0.00361534 -0.00469823 0.00735331
O 1.86673480 24.62148156 10.43794117 -0.00826112 -0.00495639 -0.00224317
O 5.98459632 16.79210124 31.12879644 -0.00174671 0.00788304 0.00069909
O 0.04455550 13.98595718 19.87737097 -0.00417298 -0.00169649 0.00364214
O 1.13432159 7.53775704 14.02251731 -0.00012824 -0.00795567 0.00153600
O 3.31156474 10.08865228 2.25888613 0.00811864 0.00042343 0.00891194
O 9.80275622 17.11149479 15.99617395 -0.00062114 -0.00140346 0.00054832
O 24.69965177 1.90063262 7.40237728 0.00432070 -0.00411632 0.00637276
O 8.71055778 1.19535964 20.39401112 -0.00052087 -0.00065356 -0.00221257
O 3.20146793 3.66436882 6.23197467 0.00032310 0.00724373 -0.00590506
O 24.26108989 13.96275523 31.82176649 0.00024672 0.00131801 -0.00285573
O 10.14202771 5.69099783 26.70984240 -0.00176096 -0.00419804 -0.00246824
O 20.26683090 9.64519549 3.92648725 -0.00226310 0.00617820 0.00415559
O 5.34302559 12.53596510 29.19146481 0.00068065 -0.00571755 -0.00562871
O 11.82025553 17.53172396 10.03520815 0.00198478 0.00231784 -0.00111720
O 6.75817669 4.41158713 12.82315497 -0.00731916 0.00314311 0.00073940
O 8.84763038 0.63987158 12.63680518 -0.00887371 -0.00571359 -0.00336830
O 4.71260255 7.10739749 27.93156482 0.00372707 0.00001493 0.00003336
O 3.69743944 14.66374906 23.74585777 0.00196823 -0.00568796 0.00469559
O 12.04634433 4.00870132 20.78717076 -0.00401027 -0.00484066 -0.00181095
O 21.79031629 13.37648121 31.19060335 0.00560668 -0.00324685 0.00218865
O 8.33010685 9.87111798 11.10967553 -0.00627083 -0.00048527 -0.00046860
O 14.92582410 20.95292817 23.45204322 0.00773456 0.00501104 -0.00095442
O 5.43092135 4.99733660 20.36080047 0.00029437 -0.00397366 -0.00502179
O 6.66211149 25.26948974 11.92647449 0.00022239 0.00062563 0.00049364
O 23.79954069 7.61485463 28.40995739 0.00253657 0.00492143 0.00158637
O 21.96758789 17.07265364 24.75016161 0.00327706 0.01136535 -0.00591610
O 4.24848706 10.34790096 22.82795252 0.00327183 -0.00305265 0.00316207
O 3.60373243 13.24399128 15.51251830 -0.00005144 -0.00448945 -0.00299520
O 7.98715626 10.34036078 17.39370487 -0.00061076 0.00229581 0.00275929
O 9.70692775 23.78355134 25.74499928 -0.00272066 -0.00784888 0.00437887
O 24.57541907 4.60621279 1.88411849 -0.00794354 -0.00331175 0.00491710
O 18.05325395 18.19746327 9.06559290 -0.00162407 -0.00665780 0.00451768
O 4.27533331 18.70576679 9.67021924 0.00051835 0.00318195 -0.00524244
O 5.99133275 23.76485416 3.10766537 -0.00029844 0.01329132 0.00124823
O 5.60728145 18.67840660 16.86789807 -0.00252985 0.00898008 -0.00104397
O 5.58816483 0.12915160 22.08448792 -0.00041408 -0.00088482 0.00373878
O 4.43681991 2.77080226 3.36270416 -0.00281310 -0.00896662 0.00501739
O 8.65961906 17.72133919 4.88673727 -0.00481727 0.00279170 -0.00253241
O 23.90206289 25.35600041 25.54031795 -0.00167347 -0.00786282 0.00385442
O 0.70894854 13.85406228 27.04068035 -0.00532765 0.00034209 0.00437687
O 25.42605618 13.12983631 12.62649784 0.00315212 0.00455789 -0.00033258
O 3.37262021 20.51602737 8.08586143 0.00067069 0.00192112 0.00128835
O 24.17421886 24.97773094 28.39249319 0.00298511 -0.00561696 -0.00157661
O 6.10030980 4.14491302 1.79000852 0.01063436 0.00074679 -0.00372253
O 0.84545561 23.74688108 5.41449125 -0.00527337 0.00181892 0.00513514
O 1.15949605 16.08175504 3.28858241 -0.00195421 0.00463236 0.00649717
O 23.20938479 19.95576022 19.70349541 0.00352777 0.00118168 -0.00482526
O 22.11853865 17.57110342 30.04685232 0.00047942 0.00579956 -0.00612862
O 24.36256672 19.41555205 2.27849077 0.00194743 0.00560144 0.00792199
O 19.36489989 1.55052179 29.36433592 0.00171744 -0.00136793 0.00855761
O 5.95477091 23.36635895 29.92520430 -0.00385305 -0.00388084 -0.00603629
O 6.88967989 4.30949471 27.44609723 0.00856624 -0.00529472 0.00781235
O 25.32845764 20.76525931 25.18639442 -0.00006289 0.00251064 -0.00086143
O 6.87745001 10.78244846 22.80168872 -0.00096835 -0.00282291 0.00142300
O 17.58104314 20.59201453 22.34938308 -0.00280991 -0.00606324 0.00546857
O 15.78311986 21.84986220 13.86902655 0.00176763 -0.00264590 0.00769612
O 5.81885756 22.01717375 1.32104195 -0.00397917 -0.00148163 -0.00180894
O 17.73009190 3.53280899 23.43890871 -0.00384549 0.00182574 -0.00221468
O 5.34369217 16.04525286 22.65474826 0.00189467 -0.00000775 -0.00145999
O 4.32373161 2.26068546 16.31588593 -0.00170178 -0.00259145 0.00554309
O 5.11925419 23.51572337 22.96372532 -0.00128203 0.00365582 0.00139908
O 8.60328419 17.98367182 21.53308787 -0.00435586 -0.00006346 0.00283653
O 5.54255502 2.04043121 27.09515489 0.00417213 -0.01039077 0.00376527
O 2.78814244 4.87886808 4.05161899 -0.00202070 0.00188005 -0.00018245
O 6.76503825 4.62216860 10.17836345 0.00025065 0.00304951 0.00246312
O 17.12537199 12.40507039 27.23804100 0.00520566 -0.00288436 0.00019194
O 11.86675483 9.02408877 14.03680787 -0.00200225 0.00657134 -0.00631918
O 9.49687753 6.42389453 6.75802773 -0.00009940 0.01066871 0.00219919
O 16.11280791 9.49991455 7.06897830 0.00185934 0.00371059 0.00120259
O 19.00918376 3.66397243 9.87236041 -0.00111255 0.00274228 -0.00266654
O 21.01510109 11.74327469 14.98021217 0.00874348 -0.00623700 0.00151448
O 24.19491826 24.67223437 17.34907806 -0.01072863 0.00051018 -0.00276734
O 11.93689882 0.30981821 6.61865254 0.00278243 -0.00335750 -0.00857571
O 19.47661656 8.67253200 31.83824472 0.01299416 0.01173982 -0.00568474
O 1.84458096 7.82756872 2.79247359 -0.00567392 -0.00027092 0.00012990
O 7.94110758 15.81372518 29.62663473 0.00142480 0.00323851 0.00177129
O 21.55209367 9.78483660 10.12216572 -0.00441854 0.00703662 -0.00710338
O 14.72690911 7.38510004 7.16081681 0.00509721 -0.00250002 -0.00448087
O 19.05431282 7.04118270 25.75013003 0.00323050 0.00049780 0.00233656
O 22.76258818 3.48160760 23.47011313 -0.00293895 -0.00041210 0.00239534
O 9.32151137 10.76197337 25.54091895 0.00254784 0.00604896 0.00055353
O 9.37239802 12.30207672 16.54984712 -0.00517772 0.00685174 -0.00172075
O 21.79356835 7.81415358 31.78033625 0.00460826 -0.00171158 0.00346990
O 9.36500928 10.90688210 1.38960737 0.00302426 -0.00151314 -0.00083521
O 19.79762023 5.13748319 14.01264964 -0.00756678 -0.00106826 -0.00241724
O 12.76995618 5.02270710 18.44789748 0.00213132 0.00798963 0.00445985
O 18.02058259 4.30808067 31.60591044 0.00283256 -0.00506340 -0.00297059
O 4.92781072 6.55102536 30.46800952 0.00326324 0.00223923 0.00592045
O 7.14355157 5.88792896 22.03956319 0.00642904 -0.01225575 0.00469832
O 10.98941555 13.54561671 22.33698776 0.01017614 0.00935015 -0.00597055
O 17.62604423 9.90441534 16.29676953 0.00522904 0.00527402 0.00144177
O 7.54857319 11.74967490 3.42566522 0.00403866 -0.00960101 -0.00543501
O 15.30525546 5.70687952 18.30063204 -0.00633480 0.00259825 -0.00467712
O 11.67146394 6.82306579 12.54143319 0.00144442 0.00015848 0.00374339
O 15.83437564 11.57094395 11.20604591 0.00129425 -0.00466178 -0.00043067
O 11.75061316 8.02751617 31.11224414 0.00459688 -0.00069274 0.00445810
O 5.76191705 14.54928448 5.96655530 0.00228742 -0.00370330 0.00120603
O 11.94974447 2.58015713 2.71611118 0.00131721 0.00418641 -0.00730863
O 25.11396830 17.38859782 13.27462642 -0.00005847 0.00596712 -0.00002167
O 11.96205869 23.51533208 9.65909405 0.00173619 -0.00500706 -0.00752787
O 15.79446799 24.26817937 16.05299296 0.00014411 -0.00114711 -0.00298648
O 8.42399883 13.73643518 11.56425204 0.00148678 0.00036959 -0.00217319
O 9.33816311 17.41939148 9.54135639 -0.00302858 -0.00198276 -0.00326701
O 11.54725955 9.40172354 19.84839731 -0.00658361 -0.00566367 -0.00676486
O 6.45952142 9.28230474 9.43349933 -0.00068199 -0.00042887 -0.00306267
O 11.85465078 6.48417742 7.99834568 -0.01270532 -0.00199458 0.00247784
O 12.42301978 25.76728256 2.37694308 0.00418711 0.00057436 -0.00436859
O 8.32685764 1.64900278 29.38706190 -0.00133380 -0.00583847 -0.00143295
O 17.92752682 4.46340782 11.98930442 0.00155661 0.00488470 -0.00045083
O 13.75391298 13.37022101 8.96433812 -0.00216099 0.00430642 0.00142842
O 9.80036049 19.80335751 20.21319199 0.00428746 -0.00750786 0.00787308
O 15.67888109 13.71444020 22.74152303 -0.00384685 0.00141859 -0.00279283
O 11.87252335 12.38321190 24.49424718 -0.00002607 -0.01433959 -0.00370070
O 17.35669416 25.55126660 5.53263248 0.00336430 0.00189602 -0.00017561
O 7.20354367 25.71313361 30.75382745 -0.00413542 -0.00009278 -0.00310563
O 10.78132569 0.00985777 22.18787381 0.00330322 -0.00386945 0.00109364
O 18.93087895 16.24794943 20.81624355 -0.00157511 -0.00376894 -0.00920140
O 7.34459101 16.79822130 16.04642545 0.00890519 -0.00060519 0.00154149
O 17.22287485 20.43184533 18.59133636 -0.00509546 -0.00026092 -0.00109629
O 13.79625056 11.19114360 3.97934535 -0.00371143 -0.00479833 -0.00256172
O 13.28178143 11.35097099 30.46249642 0.00489137 0.00304892 -0.00189529
O 13.55415770 25.37945302 10.70952618 -0.00303707 0.00305861 -0.00188808
O 23.39909807 14.23603037 18.26646380 0.00119211 -0.00379497 -0.00217950
O 9.13169232 22.57313787 15.16235913 -0.00679638 -0.00296340 0.00238509
O 14.36070333 16.65386823 25.16140453 0.00366849 -0.00022271 -0.00085971
O 5.90718708 13.61963956 11.03861271 -0.00156073 -0.01216247 -0.00084608
O 8.91063826 23.45545361 5.06961514 0.00456735 0.00236532 -0.00173370
O 19.69706983 21.24112792 30.62041294 0.00131144 0.00275009 0.00161761
O 23.71141802 4.32846476 17.60406865 -0.00290141 0.00256219 0.00282985
O 10.51772270 19.08654563 3.67398294 -0.00499977 -0.00317258 0.00092936
O 20.62364594 8.70744325 6.22797119 -0.00362339 0.00427806 -0.00736234
O 16.08534995 13.97946322 9.63904956 0.00258120 -0.00075130 -0.00795275
O 24.78616563 11.86531493 1.17167541 0.00229893 -0.00563319 0.00332614
O 21.13253053 2.50848078 8.92327159 0.00198991 0.00007826 -0.00284104
O 21.46896328 4.31704557 4.69631711 0.00085231 -0.00705268 -0.00092824
O 13.79301451 24.94200279 17.40070138 -0.00167336 -0.00060880 -0.00337008
O 0.35631221 10.11641144 17.06981506 0.00228724 -0.00362340 0.00427844
O 12.61970922 23.40819935 31.71505330 0.00066210 0.00059712 0.00026883
O 16.76551753 15.37991798 29.47629814 -0.00556905 -0.00091797 -0.00180671
O 15.80470833 8.56447637 21.65858645 0.00183311 0.00352311 0.00175912
O 25.27173072 10.90689835 7.46014900 -0.00202665 0.00104695 0.00797288
O 24.46418547 21.55781184 9.32384912 0.00390765 -0.00279585 -0.00202500
O 0.24548064 3.35565286 19.00621130 -0.00268793 0.00114382 0.00245391
O 9.94769589 22.47382822 21.99412934 -0.00564648 -0.00189084 0.00440124
O 14.42916522 18.84753816 26.48006727 -0.00095809 -0.00287030 0.00762256
O 15.34461302 3.77609604 24.40169477 -0.00117846 0.00180038 -0.00185368
O 21.17444082 14.82287737 25.22154885 0.00021061 -0.00380527 -0.00277619
O 19.07080589 12.31664823 25.55181969 0.00543578 0.00333390 0.00244531
O 5.27370191 2.39156731 23.33091940 0.00863728 0.00337434 -0.00027495
O 21.80093706 20.22649208 29.81442163 0.00299445 -0.00956777 -0.00527095
O 25.23603133 7.60885200 23.33143980 -0.00658965 0.00150399 0.00026760
O 18.15274901 23.49971161 4.19071677 0.00045291 -0.00672613 0.00408292
O 8.25269179 19.20565138 27.47360160 0.00409433 0.00645308 0.00307047
O 13.52136904 8.96192727 29.53512767 0.00237747 -0.00563557 -0.00609855
O 24.06608249 4.06291572 8.63286238 -0.00231307 0.00216430 0.00352497
O 14.26764329 15.40541905 15.39830415 0.00036026 0.00562381 -0.00568643
O 24.74632348 3.12031449 24.87135502 -0.00030392 0.00145185 0.00418358
O 24.02224259 23.07103005 24.71592099 -0.00585168 0.00490704 0.00360447
O 21.15435266 1.82594753 31.03120784 -0.00382745 -0.00003858 -0.00421346
O 0.01761352 20.19118698 11.29645458 0.00180066 0.00840458 -0.00466604
O 18.31552707 18.10547226 19.13776000 0.00365538 -0.00284922 -0.00886310
O 13.50170219 1.65070970 27.25528302 -0.00220962 -0.00236801 0.00538590
O 25.41696207 21.14037412 19.14426466 -0.00082280 0.00238617 -0.00425127
O 23.72840875 24.71480152 14.82900416 -0.00132499 0.00243577 0.00045338
O 18.43755769 18.27621752 6.38477195 -0.00416044 0.00582851 -0.00298663
O 10.65803102 16.39672332 30.09854934 -0.00303368 0.00023037 -0.00918938
O 17.19971957 20.39162006 5.33554674 -0.00725152 0.00163403 0.00114070
O 0.88069345 5.06716522 13.54042100 -0.00076698 0.00769340 0.00260830
O 21.08634076 14.35697680 14.78635172 -0.00383387 -0.00348667 0.00510181
O 15.47375001 5.18287236 31.90711341 0.00086857 0.01087652 0.00137904
O 23.93134676 16.04514061 3.86177528 -0.00410524 0.00179757 0.00013994
O 17.02006448 21.02319505 24.78358315 0.00652154 -0.00295423 0.00271254
O 24.51956269 19.16450965 4.94786453 0.00417393 -0.00024409 -0.00366610
O 12.17391285 17.02885880 4.23530162 0.00251365 0.00584220 -0.00506112
O 22.76015509 8.32521906 22.65154814 0.00968458 -0.00132527 0.00458003
O 21.07052296 7.15220577 10.66662162 0.00233522 -0.00259218 0.00101300
O 17.28213561 1.73271676 3.75854091 0.00061203 -0.00159001 -0.00178823
O 21.37899392 21.11972898 16.04380717 -0.00724772 -0.00392739 -0.00175546
O 23.00603598 11.74060505 8.34333885 0.00368770 0.00548994 -0.00742169
O 21.46648467 25.54229867 23.45233532 -0.00436698 0.00407814 -0.00066763
O 2.55959252 15.50512686 15.03638900 0.00430185 0.00579577 0.00699087
O 16.48172256 23.29692995 19.32973117 -0.00625419 0.01128207 0.00129898
O 19.35618749 8.61244241 17.26061192 0.00744632 0.00555997 -0.00417825
O 20.08801832 16.98503235 9.78843868 0.00192704 -0.00123392 -0.00129159
O 14.70901789 24.45946366 31.02650329 0.00115987 0.00635250 0.00244029
O 20.58428425 24.98468680 20.89344858 -0.00155541 0.00502680 0.00169644
O 2.72765289 24.08348852 12.74530989 0.00209914 0.00091500 -0.00046670
O 19.28044063 25.32460989 10.62020509 -0.00227791 0.00388216 -0.00177197
O 2.03413632 17.80510237 20.96629948 -0.00594587 0.00149501 0.00858613
O 15.23109025 0.21303273 26.05649239 0.00517755 0.00716369 -0.00728157
O 15.90791282 17.66870887 30.40918663 0.00043633 0.01292590 -0.00721974
N 14.62701726 21.57825950 11.89673553 0.00210007 0.00031461 0.00597532
N 4.63898874 2.99903149 7.92724190 -0.00279495 0.00278299 0.00582887
N 3.50197123 22.88777661 8.04351119 -0.00205000 -0.00412872 0.00600699
N 2.95041228 9.32165248 21.24510974 -0.00414277 -0.00442140 -0.00700138
N 5.32990876 0.17796419 16.55555094 -0.00634169 -0.00096459 0.00714959
N 4.15074342 10.61969524 28.95453152 -0.00380272 0.00105879 0.00191890
N 3.45705681 16.17110055 3.29125957 0.00014701 -0.00298616 0.00373295
N 24.95706602 2.36186781 1.94100073 -0.00339581 0.00051192 0.00268141
N 1.42041056 15.79308366 27.93596703 -0.00259655 0.00400001 -0.00597145
N 25.09235513 9.20887224 27.52035390 0.01017287 -0.00290370 0.00049015
N 19.85389697 3.63396863 24.17988509 0.00152042 0.00610649 0.00668169
N 10.95399930 7.25220010 25.22685648 0.00905169 -0.00083591 -0.00022992
N 8.10037295 3.73610430 0.81354958 -0.00440185 -0.00255560 0.00461895
N 7.01195848 8.57915905 16.31357939 -0.00085504 0.00152317 -0.00586818
N 8.47628566 15.91023155 22.39287221 -0.00345853 0.00261069 0.00279452
N 6.61453006 4.12988527 14.92689830 0.00507303 -0.00279747 0.00177021
N 6.17677206 23.11891805 11.19891646 0.00672319 0.00103570 0.00873899
N 1.59738777 14.12259823 11.41751448 0.00178115 -0.00492452 -0.00008148
N 0.62837893 15.29431671 31.35194319 0.00407485 -0.00974584 -0.00465949
N 5.25312842 18.36106869 22.45304976 0.00863381 -0.00045050 -0.00349120
N 3.92727219 11.27038326 16.78015645 0.00116754 0.00074340 0.00515023
N 1.28957548 24.02052200 3.11917385 0.00053116 0.00197140 -0.00207261
N 13.38751172 17.75628600 11.66537884 -0.00611661 0.00214575 0.00708654
N 3.37889273 1.55084135 27.02369659 -0.00850618 -0.00810978 -0.00839987
N 8.73575801 0.48407687 18.27419882 0.00116691 -0.00108252 0.00397620
N 3.69578494 21.61084179 0.53725671 -0.00458888 -0.00328060 -0.00286231
N 23.86442536 15.82286241 24.41910107 0.00074270 0.00107419 -0.00078131
N 0.83114813 24.35183889 28.48836008 0.00512693 0.00146711 0.00352572
N 18.67329961 11.00472383 2.93742336 0.00007322 -0.00146530 0.00010898
N 5.29741672 21.74133056 24.40466810 -0.00228620 -0.00087403 0.00188818
N 9.81099714 21.54633977 25.49165995 -0.00036182 0.00734781 -0.00663211
N 22.57287674 18.47262491 21.36123899 0.00283468 0.00253409 -0.00033073
N 11.95040308 9.89829581 4.08700394 -0.00964642 0.00641079 0.00826415
N 10.73770804 1.23597700 8.16344892 -0.00758516 -0.00905316 0.00124120
N 13.14078535 4.64009580 7.74648369 0.00094498 -0.00549909 -0.00070330
N 16.28105977 11.75692658 16.05155205 0.00196819 -0.00495232 -0.00055703
N 9.06010581 20.87722615 13.63945549 0.00537130 0.01137943 -0.00626852
N 19.92151931 11.24744578 10.65537984 -0.00344740 0.00585969 0.00629505
N 12.15775549 14.23441825 7.62008449 0.00237720 -0.00861197 0.00616563
N 16.84515703 9.67785288 11.77405302 0.00321395 -0.00717516 -0.00087398
N 12.78913212 11.01651617 18.68678283 -0.00235967 0.00087850 -0.00412168
N 7.81027797 5.60308743 24.20729067 -0.00347555 -0.00678065 0.00912381
N 14.52365690 1.39608308 9.97603552 -0.00638244 0.00488103 0.00430608
N 25.29756710 7.59213745 3.87808764 0.00224964 0.00285092 -0.00508669
N 8.90003454 1.93708984 27.26227405 -0.00196393 0.00363455 -0.00424701
N 17.32473021 4.88072544 18.91355107 -0.00536196 0.00795315 -0.00165343
N 5.75553249 12.44250663 12.98949905 0.00133575 -0.00584294 0.00131878
N 20.59157741 7.22344479 27.46299687 0.00177815 0.00273162 0.00532471
N 5.45527609 7.84030499 0.22006837 0.00217878 -0.01109963 0.00485006
N 6.02524553 9.10076119 7.18989123 -0.00030147 0.00294737 0.00082244
N 17.49501005 9.68339007 31.96132737 -0.00538119 -0.00232093 -0.00450759
N 22.81092204 16.46078187 18.11817808 0.01291824 0.00275430 0.00308599
N 8.34458344 11.72439610 5.67360860 0.00366224 -0.00558594 -0.00423334
N 17.38021743 2.35262908 12.56194597 -0.00481380 0.00585884 -0.00382626
N 15.87898347 5.85885770 5.78350441 -0.00142712 0.00422704 -0.00103483
N 8.53666046 21.70984630 6.30881944 -0.00442586 -0.00095435 -0.00665979
N 23.74909135 25.62245640 19.31070100 0.00300409 -0.00344022 -0.00705908
N 12.16769606 13.23522786 29.90078847 0.00045169 -0.00062172 -0.00026980
N 12.29315647 14.40413976 20.64649549 -0.00189700 0.00745055 -0.00163955
N 10.58925214 24.42562293 2.78834323 0.00128115 0.00292311 0.00459450
N 8.49219107 13.71923340 28.73750181 0.00326015 -0.00855610 -0.01012356
N 16.29172173 15.34277361 25.51050561 -0.00641026 -0.00341818 0.00380256
N 9.87429976 6.09226368 13.83813928 0.00246783 -0.00136973 0.00380740
N 11.71562342 20.17007639 19.11043787 0.00510511 -0.00920450 -0.00238532
N 21.82549353 16.98243780 8.31313712 -0.00396192 -0.00136935 0.00423879
N 24.46193596 9.30239066 15.45257744 0.00938169 -0.00720882 -0.00597622
N 13.76216605 3.69356844 0.31721806 -0.00663589 -0.00598045 -0.00143421
N 24.83251468 6.17363587 8.82812582 0.00050278 -0.00399922 0.00359326
N 20.12835936 23.26270266 11.00289557 0.00861455 -0.00705950 0.00004430
N 1.67921767 11.33156180 6.17798860 0.00071565 0.00556936 0.00017900
N 13.79725681 16.97840206 2.63617658 0.00014426 -0.00204854 -0.00120382
N 21.37364601 0.43300310 0.68045274 0.00017384 0.00945816 0.00732549
N 24.28871146 4.09901222 13.99765484 0.00066380 0.00674241 -0.00293561
N 9.66226162 19.59339326 29.25768470 -0.00063725 -0.00738802 0.00678304
N 18.95701076 25.00759252 19.22304888 -0.00050244 0.00091992 0.00498279
N 18.57282921 14.28442129 30.12574100 -0.00074123 -0.00393206 -0.00156310
N 18.45875774 21.87256842 26.29398804 -0.00641147 0.00770599 -0.00147584
N 0.76668876 4.46182417 25.92028724 0.00261652 0.00702604 -0.00895451
N 15.17332927 0.43168471 23.77932039 -0.00146916 -0.00614198 0.00680213
N 1.84031623 3.34320830 20.55606813 0.00334129 -0.00186062 0.00942402
N 20.03387186 22.30672798 3.79129251 0.00629756 -0.00919497 -0.00189739
N 21.13662027 16.66807311 14.59594534 0.01072112 -0.01194918 0.00444583
N 10.49525590 22.66134044 31.35985236 -0.00723706 0.00376935 0.00800433
N 1.62656449 23.00011025 14.38573807 -0.00081972 -0.00139199 0.00335402
N 16.37145637 15.91166178 14.81556177 0.00557978 -0.00210183 0.00348614
N 23.77346071 19.84264207 6.99494445 0.00012673 -0.00527316 -0.00002741
N 23.79494335 23.64679855 9.70956052 0.00109516 -0.00055856 0.00954699
N 15.98769014 19.19780571 32.08696336 0.00283479 0.00871079 0.00330773
N 11.69588418 24.23254184 16.93466357 -0.00261780 0.00094554 -0.00989458
N 16.73394159 25.51388822 30.74681792 0.00516564 0.00505891 -0.00499052
N 14.62741426 7.90672667 27.91774783 0.00068063 -0.00438984 0.00380876
N 22.14654634 14.54445366 3.76982395 -0.00817590 0.00835215 0.00203029
N 17.88592604 9.37067885 21.07476715 0.00674391 -0.00013263 -0.00067709
N 2.21182471 19.09300464 19.16130673 -0.00414941 -0.00687626 -0.00245588
N 22.18616999 21.75453952 24.48282944 -0.00267913 -0.00700557 -0.00378375
N 23.30341594 9.92359786 21.00328213 0.00059806 -0.00445381 -0.00639541
C 5.22067727 23.52883717 13.40096085 -0.00226202 0.00714590 0.00462950
C 4.40797045 1.41411426 9.79557442 -0.00400397 -0.00397186 -0.00373463
C 3.07383798 14.62939155 31.30384225 0.00253833 -0.00441015 0.00958768
C 2.30733660 11.74612076 21.53498864 0.00260611 0.00080555 0.00453308
C 2.61697567 10.77813550 14.77176642 -0.00126693 -0.00452003 0.00104379
C 4.88369542 11.02732420 31.22685401 0.00025659 -0.00263549 -0.00111792
C 12.69729354 18.00339747 13.99303375 0.00943151 0.00840824 -0.00449193
C 24.47900856 1.05445757 3.88671828 0.00017302 -0.00570496 -0.00338361
C 4.78249925 23.00428889 14.66162376 -0.00713873 -0.00673447 0.00150990
C 3.80158611 0.23420421 10.23864335 0.00049459 -0.00319000 -0.00536921
C 4.35530524 14.99823624 31.29996400 -0.01082479 0.00058475 -0.00042814
C 1.80813868 12.93903663 21.08601727 0.00558947 0.00271188 -0.00663824
C 2.07498706 9.74558519 14.09704148 0.00613833 0.00558115 -0.01041281
C 4.74505893 10.89238710 0.48999256 0.00174903 -0.00411414 -0.00417816
C 11.76977489 17.88078620 15.07601610 -0.00002373 0.00999731 -0.00389363
C 24.47020459 1.01175462 5.24491733 -0.00165959 0.00857823 0.00046188
C 4.60861705 21.60055470 14.77991100 -0.00597353 0.00972376 -0.00534359
C 2.50505963 25.74008339 9.89089565 -0.00068894 0.00491621 0.00884287
C 4.68739081 16.46399593 31.16571622 0.00657503 -0.00166719 0.00237183
C 0.85207502 12.87048507 20.07778747 0.00251318 -0.00795848 -0.00732179
C 1.87036800 8.46171440 14.64889328 0.00072037 0.00194699 0.00298323
C 3.62179561 10.18223005 0.91715942 -0.00059677 0.00488079 0.00274875
C 10.56266553 17.27592452 14.90626485 -0.01581345 0.00253596 -0.00601615
C 24.80383922 2.08039634 6.04797100 0.00362257 -0.00449518 0.00088715
C 4.78674668 20.76242935 13.65562259 -0.00446841 0.00307296 0.00502331
C 1.89141056 0.56507605 8.79122024 0.00329781 -0.00101864 -0.00008134
C 3.59903479 17.36881888 31.16742803 0.00016651 0.00311446 -0.00228648
C 0.72092065 11.63671604 19.33605308 -0.00397036 -0.00526118 0.00281974
C 2.42394955 8.11652752 15.89613806 -0.00442207 0.00488639 0.01500772
C 2.72800547 9.59339115 0.01788990 0.00346885 0.00094051 0.00327131
C 10.30517687 16.84804382 13.64236927 -0.01326687 -0.00220656 -0.00642506
C 25.27327985 3.25558080 5.48589608 -0.00425485 0.00017621 -0.00041582
C 5.27822237 21.33378784 12.53542839 0.00264582 -0.00240674 0.00295809
C 2.56095139 1.62755450 8.17283105 0.00747941 -0.00430972 0.00272192
C 2.33071286 16.89897597 31.42582797 0.00141109 -0.00204597 -0.00285054
C 1.48737933 10.55194143 19.71533379 -0.00303739 0.00628408 -0.00268055
C 3.15975544 9.11592404 16.49068122 0.00063357 0.00166371 0.00734768
C 2.88345848 9.81128303 30.72355791 0.00389291 -0.00203980 0.00164381
C 11.21518016 16.86838536 12.55207556 -0.00934805 -0.00480731 -0.00326660
C 25.31017119 3.28084926 4.13029471 -0.00849984 0.00651902 0.00140292
C 5.51909708 22.68353705 12.34389700 -0.00200441 0.00752705 0.00360616
C 3.81639301 2.03130274 8.62892221 -0.00181905 0.00390164 -0.01559483
C 2.01277407 15.52911132 31.31241365 0.00785540 0.00323355 -0.00114804
C 2.29830052 10.48873046 20.87371313 0.00012691 -0.00030644 0.00016695
C 3.26139933 10.41662075 16.01020391 0.00645447 0.00653170 0.00260318
C 4.00737668 10.51583664 30.30320265 -0.00506618 -0.00632807 -0.00603557
C 12.45056960 17.56214784 12.70902317 0.00837731 -0.00563069 0.00073539
C 24.89488242 2.25844039 3.32272983 0.00728776 -0.00199421 -0.00069029
C 6.68371792 24.41387788 11.04074079 -0.00410600 0.00326189 -0.00482104
C 4.31819798 3.62161416 6.75923973 0.00668359 -0.01064848 -0.00173716
C 25.42638384 14.08330353 31.37225737 -0.00341014 0.00190629 -0.00234901
C 4.07746422 9.39723754 22.06160956 -0.00286012 0.00200845 0.00307652
C 3.81998837 12.64738413 16.61391373 -0.00899905 -0.00077800 0.00561171
C 5.03516208 11.54067016 28.50263068 -0.00993775 0.00032563 -0.00663729
C 13.01663951 17.56483419 10.39389926 -0.00301178 -0.00167117 -0.00558011
C 24.89620623 3.53241100 1.30735967 0.00019939 -0.00788085 0.00338658
C 3.08532847 14.21485555 27.05225151 -0.00715740 -0.00429680 -0.00031912
C 5.60389208 4.16957453 6.22813209 -0.00137530 0.00146452 0.00470603
C 2.41570774 21.61806876 9.84724907 -0.00329945 -0.00297964 -0.00334311
C 10.69653696 7.87323393 27.54931822 0.00236844 0.00573723 0.00421462
C 7.69819580 2.71928136 2.95259321 -0.00262218 -0.00174077 0.00251239
C 5.59988317 11.30751247 27.12886132 -0.00435105 0.00465066 0.00753911
C 2.35279628 16.20702440 5.42005194 -0.00474398 0.01190581 -0.01170743
C 4.79344910 5.26451113 13.73862489 0.00184508 0.00667608 0.00012641
C 8.46937579 25.39765618 16.09256172 0.00828389 0.00111476 0.00315622
C 1.73538374 8.60646324 26.40710383 0.00142656 0.00305872 0.00039505
C 0.16350541 14.17029731 24.33693373 -0.00166960 -0.00048977 0.00177224
C 11.85145203 6.85941212 22.98139299 0.01384147 -0.00010952 -0.00262892
C 20.72641781 11.06059302 1.64367573 0.01601495 0.00493756 0.00993183
C 6.43702614 8.70716330 13.96257788 -0.00519842 -0.00173951 -0.00563734
C 11.36923966 20.44400015 24.11552004 -0.00006848 0.01385300 -0.00613930
C 5.10032925 5.00578188 16.66129245 -0.01012083 0.00236670 0.00300332
C 8.42147418 25.34755691 14.71964033 0.00129456 -0.00396207 -0.00637193
C 3.02455227 8.12795184 26.51550457 0.00835921 -0.00205522 0.00784566
C 1.50238955 13.92933669 24.24813215 -0.00521022 -0.00059971 0.00255799
C 11.87380689 6.13147056 21.79502987 -0.00430400 -0.00689458 0.00215609
C 21.39861197 11.62094135 0.61861038 0.00147215 -0.00696522 0.00282553
C 6.79392358 9.03706480 12.69930134 -0.00201747 0.00570829 0.00193604
C 12.60887264 20.28444538 23.59131173 -0.00322421 0.00295755 -0.00084203
C 4.73881881 5.13364400 18.02657276 0.00165386 0.00894815 0.01024537
C 8.86313790 0.65039592 14.01570691 -0.00147312 -0.00531816 0.00667914
C 3.39611246 7.41085780 27.65901953 0.00206630 0.00337917 0.00260994
C 2.41130801 14.84196546 23.74622589 0.00235034 -0.00097822 0.00330318
C 11.80987287 4.78264066 21.83288519 0.00622160 0.00037847 -0.00268807
C 21.10969281 12.88316609 0.11750808 0.00706937 -0.00726963 0.00544210
C 7.94393870 9.65824845 12.39231234 -0.00125322 0.00251907 0.00341203
C 13.64155356 21.21360234 23.93779300 -0.00169298 0.00357673 -0.00279600
C 5.65202048 4.88607751 19.00247961 -0.00687165 -0.00006246 -0.00064740
C 9.41972288 1.64720936 14.74362507 -0.00178215 0.00437015 0.00020727
C 2.36555641 6.89843004 28.48122145 -0.00162132 0.01325785 0.00214539
C 1.82405122 16.11889109 23.34880467 -0.00390735 -0.00229746 0.01066795
C 11.56007020 4.17709324 23.18384264 -0.00021308 0.00041805 -0.00291950
C 19.94445099 13.54081856 0.69459566 -0.00594131 0.00546051 0.00460270
C 8.89620263 9.90354940 13.45077520 0.00180302 -0.00745991 -0.00092756
C 13.28459466 22.42703331 24.57576693 -0.00216429 0.00874507 0.00095729
C 6.97270926 4.47152515 18.64947514 0.00606010 -0.00453307 -0.00871191
C 9.51968176 1.62680624 16.11096963 -0.00870152 0.00324040 -0.00366542
C 1.04554145 7.32490136 28.28595876 0.00469660 -0.00472569 -0.00186852
C 0.48645977 16.39986505 23.59268876 -0.00391619 0.00369397 -0.00845836
C 11.09972399 4.95714223 24.22000591 0.00223732 0.00313615 -0.00204801
C 19.12773711 12.92153041 1.60792260 -0.00012440 -0.00411300 0.00328024
C 8.43809148 9.70757282 14.70485870 -0.00792515 0.00034070 -0.00151524
C 12.00103865 22.60285616 25.04094814 0.00234591 0.01103589 0.00743686
C 7.26470905 4.33539440 17.29088689 0.00245661 0.00098334 0.00002283
C 8.89376808 0.56318879 16.87341271 -0.00157162 -0.00084139 -0.00377920
C 0.74332385 8.34230347 27.44814284 0.00383006 0.00165248 0.00265028
C 25.12464149 15.49159208 24.15297253 -0.00354666 -0.00198113 0.00523421
C 11.19705599 6.34872009 24.10968561 0.00307394 0.00783067 -0.00403433
C 19.53343524 11.62591933 2.06788680 0.00339515 0.00348318 -0.00284828
C 7.26054789 9.00699553 15.04629481 0.00163438 0.00393906 -0.00160496
C 11.02591078 21.51554663 24.87827979 -0.00132962 0.00819293 -0.00095847
C 6.35198470 4.51559723 16.23852844 -0.00027316 0.00411014 0.00379028
C 9.24976071 1.20247994 19.27425693 0.00316269 -0.00147760 0.00403747
C 23.90183912 8.78944493 28.07441927 -0.00203646 -0.00840865 -0.00394139
C 23.16150813 16.98475071 24.84169445 -0.00023855 0.00721121 -0.01125285
C 10.60033101 6.81372690 26.50562015 -0.00551029 -0.00952095 -0.00089109
C 19.12687856 10.13350995 3.90276894 -0.00040605 -0.00327147 -0.00117617
C 7.45271801 9.24467661 17.47726960 -0.00642280 -0.00762180 -0.00026270
C 9.20390241 22.69162299 25.93932362 0.00633862 0.00094035 -0.00132134
C 6.07636657 4.56237895 13.78867120 -0.00191774 0.00252636 -0.00055074
C 13.41484062 22.18015914 13.83744475 -0.00187387 0.00408099 0.00511066
C 22.94612214 9.89623900 28.36004328 0.00247957 -0.00967198 0.00740392
C 18.92895410 5.45085462 22.67518918 -0.00061362 -0.00484010 -0.00056386
C 5.05809479 8.22360322 21.95560601 0.01105229 0.00352004 0.00586930
C 5.13041373 1.32639261 14.33847950 -0.00308007 0.00439316 -0.00397223
C 7.24701966 8.64398257 18.83588501 -0.00509693 -0.00647864 0.00263094