1920
Time=42000.00000002 pbc="T T T" Lattice="25.75071067 0.00000000 0.00000000 0.00000000 25.93952871 0.00000000 0.00000000 0.00000000 31.45648442" energy=-12206.34645981 virial="4.01778845 12.73529638 24.46383015 12.73529638 -26.91978812 -10.48407233 24.46383015 -10.48407233 -46.61448955" stress="0.00352234 0.00071660 0.00111808 0.00071660 0.00211865 -0.00042007 0.00111808 -0.00042007 0.00083705" Properties=species:S:1:pos:R:3:vel:R:3
O 5.90363023 21.28104226 15.83977605 -0.00176021 -0.00603700 -0.00217156
O 3.38310200 24.18089229 11.52435554 0.00203813 0.00131068 0.00827689
O 4.92352290 17.24341487 29.96885774 0.00352055 0.00471543 0.00300821
O 25.71520777 14.34424704 19.34057322 -0.00654306 0.00515171 0.00783430
O 0.62618541 7.50980955 12.79241558 0.00010573 -0.00361292 0.00682588
O 2.87737770 10.02623827 2.56184436 0.00868573 -0.00056060 0.00637650
O 10.36262275 16.49962958 15.71665371 -0.00886843 -0.00047483 0.00312470
O 0.69076121 3.58452274 9.65406511 -0.00532528 0.00606403 0.00481359
O 10.84691864 0.40114765 19.51913504 -0.00095128 -0.00007323 0.00288455
O 4.60710325 3.96843583 8.59443930 -0.00254391 -0.00326384 0.00055962
O 24.12538367 13.62513079 0.08926554 -0.01031578 -0.00524719 0.00168345
O 9.97466349 4.96451132 25.89995353 0.00215646 -0.00547647 0.00276317
O 20.05026417 9.95632050 2.35815750 0.00225419 0.00404464 -0.00188935
O 5.26115140 12.07103222 28.54117687 -0.00383584 0.00616209 -0.00445544
O 11.78083645 16.49679892 9.57907208 0.00283435 -0.00376477 -0.00436705
O 6.03277233 3.54972076 11.76399325 -0.00275783 -0.00199253 0.00504399
O 9.54617454 1.10363660 12.05324231 -0.00114074 0.00493722 -0.00649570
O 3.99897226 5.85691362 26.52325137 0.00365851 0.00102596 -0.00343813
O 3.84895371 14.37477814 24.15460310 0.00362173 0.00344642 0.00220221
O 13.53071966 4.41180434 20.70435062 -0.00857473 0.00101747 -0.00105184
O 21.90103930 14.57266758 30.22855346 0.00134946 -0.00649817 0.00687698
O 7.21806864 10.35155159 10.34392136 -0.00133522 -0.00241506 -0.00083990
O 14.49588028 19.28289387 22.66809247 -0.00278032 0.00335223 -0.00216745
O 5.88403505 5.77390451 18.99163708 -0.00573887 0.00170540 0.00116399
O 8.36004651 24.97972122 11.50718269 -0.00035616 -0.00292664 -0.00711965
O 24.11350117 7.55675745 28.95565745 -0.00158921 -0.00284965 0.00748150
O 22.36676013 17.24677580 23.87753808 -0.00383187 0.00232840 0.00356428
O 3.80696602 10.26152034 22.38696302 0.00029744 -0.00286580 -0.01119392
O 2.60784407 13.01586002 15.67288166 0.00358018 0.00548168 0.00996370
O 9.58922068 10.14080075 16.43666569 0.00258244 0.00401853 0.00152335
O 10.69280894 22.54084037 26.39097290 -0.00342343 0.00091484 0.00045995
O 1.06150688 4.31932808 3.23781463 -0.00231266 -0.00659617 0.00335342
O 18.33408417 17.62427404 8.73414644 0.00017995 -0.00681592 -0.00280123
O 4.43467581 18.85470690 9.89441357 -0.00610921 -0.00094464 -0.00848881
O 6.37491667 23.73382608 3.10837901 -0.00673113 0.00414879 -0.00302883
O 6.22485030 18.66348990 16.70918514 0.00489038 0.00286118 0.00198032
O 6.52399868 25.73687590 20.75383849 -0.00120240 0.00199679 -0.00049432
O 5.21117505 1.85971145 4.41224092 0.00317924 0.00192202 0.00150621
O 8.34052786 17.90350822 5.93221337 -0.00173903 0.00414809 -0.00232327
O 23.91837720 24.50383199 24.56267081 0.00001725 0.00036008 0.00192516
O 1.42756641 16.21236544 26.54478510 -0.00267114 0.00357714 -0.00164070
O 0.39464559 12.44298787 11.18522877 -0.00186135 -0.00057640 -0.00403832
O 3.78595027 20.41169359 7.89994776 -0.00034874 -0.00282445 0.00128078
O 24.43396902 24.18390432 29.59140585 -0.01025658 -0.00675361 0.00049243
O 6.00685414 3.11989738 2.32012625 -0.00897832 -0.00194105 -0.00219126
O 25.27470976 25.20277075 5.02916125 -0.00585138 -0.00034122 -0.00086131
O 1.52706768 16.49502203 2.43795638 0.00298513 -0.00626317 0.00255963
O 22.65687452 18.87532982 18.80281515 0.00098800 -0.00392682 -0.00544642
O 21.69936331 17.27212641 29.46051817 -0.00991223 0.00494272 0.00958015
O 24.57242246 20.20032270 2.81970707 0.00542892 0.00721848 -0.00283436
O 20.17947619 1.54224826 28.72792708 0.00227411 -0.00476122 0.00946574
O 6.22799120 23.92817523 29.67897418 -0.00509332 -0.00619155 -0.00335461
O 5.77197872 4.33021791 27.55200111 0.00379871 0.00631804 -0.00732891
O 0.39684331 23.25636039 22.45365928 -0.00233264 0.00389768 0.00161485
O 6.02025745 11.20908773 22.71232945 -0.00353674 0.00224784 0.00663788
O 17.48844719 21.06916170 21.85505394 0.00002008 0.01003630 0.00497657
O 15.74415100 21.08570246 13.37723513 -0.00143058 -0.00103934 -0.01075274
O 5.62766714 21.61246735 1.55591852 0.00606599 0.00016785 -0.00589852
O 18.63078507 4.32546730 23.32182722 0.00045579 0.00274957 -0.00432665
O 5.17529406 16.55060553 22.82681949 0.00946708 0.00376288 0.00137055
O 4.68439780 2.39981252 15.56349227 -0.00289049 0.00644944 0.00494109
O 6.74888221 23.12169469 21.34336538 -0.00456803 0.00480320 -0.00602418
O 9.36587538 17.69161517 20.67382997 -0.00007479 0.00221046 0.00534285
O 3.92984635 2.73894265 27.01039483 -0.00378741 -0.00255238 0.00629938
O 3.69636994 4.38187651 3.68697262 0.00305668 0.00776870 -0.00146642
O 7.49536850 4.89951515 9.98186141 -0.00482592 0.00179073 -0.00088077
O 16.56442063 11.22698058 26.34558249 -0.00295005 0.00005258 0.00159335
O 12.09975647 9.42101159 13.14455460 -0.00105379 -0.00309670 -0.00338203
O 9.86966275 6.80568234 8.50666681 -0.01082950 0.00029382 -0.00468124
O 15.98953601 10.17719539 6.15815189 -0.00080007 -0.00119676 -0.00104781
O 19.35454564 3.02342527 8.47046072 0.00201595 0.00483301 0.00445641
O 20.69882114 12.12605575 14.35940521 0.00893239 -0.00580625 -0.00061221
O 25.11539982 0.19942862 15.63317138 -0.00362916 0.00184826 -0.00092326
O 12.79751237 0.57599230 6.24080739 0.00638737 -0.00782158 0.00717812
O 19.56869962 8.37009141 31.27293056 0.00527381 -0.00638697 0.00159635
O 1.72143464 7.62079533 2.98614493 0.00491258 -0.00056375 0.00372095
O 6.90620321 15.66594680 29.54802564 -0.00533018 -0.00097793 0.00022398
O 21.39448533 9.77608178 9.23948629 0.00300154 -0.00039675 -0.00408339
O 15.52360669 7.70837119 6.31243115 -0.00302890 0.00744661 0.00469543
O 19.37898683 7.06594603 24.89796309 -0.00250369 0.00154658 0.00137617
O 24.02806938 3.10128885 22.47663054 0.00501767 -0.00044444 -0.00133592
O 6.78649115 9.97728937 24.73844672 0.00036668 -0.00404458 0.00153206
O 11.02989765 12.23269750 16.20043002 -0.00294092 -0.00344044 0.00385222
O 22.08782752 7.99655310 0.07311108 0.00534222 -0.00489932 0.00715605
O 8.54896902 10.11609581 1.34086161 -0.00108376 -0.00312963 0.00193562
O 19.13307359 6.48242392 12.72748159 -0.00256066 0.00001430 0.00268136
O 14.07849138 5.85950541 18.24724366 -0.00209912 -0.01229537 -0.00003973
O 18.40861141 4.86717325 30.80323860 0.00229466 -0.00092303 0.01150085
O 4.35920105 6.91980333 29.39610499 0.00530375 0.00624494 -0.00696456
O 8.04786202 5.68297319 20.51780683 0.00112385 -0.00025535 -0.00786213
O 11.84728334 12.70004439 22.66553145 0.00152199 -0.00412866 -0.00291049
O 17.31182915 10.55171738 16.49843267 -0.00535760 0.00051166 0.00011026
O 7.49588524 10.47220864 3.65633918 0.00651269 0.00500130 -0.01230694
O 15.91624395 4.18792149 17.64051282 -0.00026559 0.00193311 0.00588124
O 12.25615866 6.90817464 12.44981218 -0.00368918 -0.00189516 0.00377697
O 15.13065981 11.68323498 11.65169150 0.00649243 -0.00071947 0.00232276
O 11.21265340 7.08201837 30.02889751 0.01003861 0.00829820 -0.00152867
O 5.11780647 14.34618746 6.02543874 -0.00384965 -0.01027051 -0.00145784
O 12.86091165 3.38787913 2.52233154 0.00197907 0.00130922 -0.00288492
O 0.62691642 17.94424026 13.16568390 -0.00465722 0.00448623 0.00085154
O 12.65705628 22.75555433 9.57698095 0.00197543 0.00409545 -0.00250014
O 15.60647333 25.27625874 16.91471044 -0.00107957 -0.00446149 0.00211556
O 7.54285751 14.33731827 10.70416285 -0.00972555 0.00085677 -0.00126859
O 9.48996283 17.73696743 9.72037966 0.00141454 0.00357218 -0.00508845
O 12.69998508 9.07796430 19.15616346 -0.00136455 -0.00141617 -0.00738983
O 6.23706305 8.50774790 8.70207060 -0.00480541 0.00710776 0.00335153
O 12.20429681 5.41657626 8.45916841 -0.00011336 0.00018380 -0.00010941
O 12.65386758 0.42008206 1.83619204 -0.00302640 -0.00746591 -0.00150184
O 7.67202965 1.35880656 28.06941058 0.00444295 0.00383197 0.00226198
O 18.17878844 2.20866648 10.47807149 0.00527402 -0.00856661 -0.00212606
O 13.05331796 13.83771790 7.53048367 0.00171281 -0.00402171 0.00020179
O 9.99294182 19.96696200 19.48009830 -0.00217390 -0.00566276 -0.00987064
O 15.01346713 12.10891578 24.37006672 0.00773045 0.00188810 0.00204698
O 10.84079278 11.48747382 24.64284763 -0.00396443 -0.00229965 -0.00685755
O 17.15367544 24.67554072 4.65074911 -0.00170500 -0.00550430 0.00115178
O 6.99763674 0.31111785 30.35538071 0.00717465 0.00096657 -0.00214026
O 11.51530065 25.75911627 21.87412030 0.00557525 -0.00502738 -0.00125358
O 17.26520922 16.45280326 19.25296763 0.00321173 0.00004294 0.01137849
O 7.84114928 16.49700008 16.03564934 -0.00018527 -0.00735608 0.00280859
O 17.31993590 20.94706850 17.66278135 -0.01072974 -0.00661064 -0.00606119
O 12.57083912 10.97045451 3.44738626 -0.00746813 -0.00146033 0.00853585
O 13.22562427 11.48403542 30.62536511 0.00144991 -0.00330074 0.00537117
O 13.95066124 25.14179417 9.98957661 -0.00129204 -0.00979607 -0.00084023
O 23.63001990 14.49646685 17.74746484 0.00095510 0.00523951 -0.00208320
O 10.38789306 22.04494639 15.24478056 -0.00000677 -0.00248634 0.00062629
O 15.09054579 17.03994737 25.20272862 0.00040002 -0.01234339 0.00109817
O 5.24092396 13.27078357 11.21056175 0.00205465 0.00112859 -0.00353883
O 10.13334421 23.06970713 4.66930934 0.00552748 0.00304644 0.00620762
O 19.44214470 22.09937157 30.23312933 -0.00243884 0.00112759 0.00469698
O 24.38989204 5.06134951 17.67536053 -0.00467550 0.00030856 0.00018696
O 10.26991078 19.18972186 4.01765733 -0.00429556 -0.00197776 0.00008284
O 20.16558036 7.03090341 5.80680354 -0.00246835 0.00319189 -0.00663434
O 15.21872341 14.49977392 9.01979933 -0.00000138 -0.00041051 0.00192388
O 24.11751700 11.42687406 1.39845856 0.00182519 -0.00060838 -0.00266659
O 21.28632892 1.83076303 7.14126696 -0.00325554 -0.00725377 0.00502776
O 22.80454944 4.30818083 4.05326997 0.00246550 -0.00049983 0.00086497
O 12.97336405 25.82134540 17.31355334 0.00269452 -0.00660520 0.00484517
O 25.39308343 11.04802195 15.68150184 -0.01195158 -0.00095884 -0.00126903
O 12.17625536 23.39590152 31.19021624 -0.00415177 0.00616045 0.00210362
O 17.31620298 16.12568405 29.41587004 -0.00566185 0.00734496 0.00116026
O 15.80551640 8.62365102 20.89683930 -0.00235533 -0.00006127 0.00617098
O 25.43646863 10.61266050 7.62076961 0.00406995 0.00058537 0.00599425
O 25.25451795 21.89911873 9.57949685 0.00340711 -0.00524558 -0.00198022
O 0.85082840 4.00994779 18.60649248 0.00564123 -0.00255562 -0.00392037
O 10.66505008 22.03540847 21.71604605 -0.00112924 -0.00698260 -0.00244217
O 12.78129668 17.38780327 25.82748567 0.00113133 -0.00301215 0.00475896
O 16.09662378 3.88946093 23.69020769 -0.00207620 0.00297281 0.00439167
O 21.31970270 15.10305628 24.54374533 -0.00430859 -0.00298795 -0.00254479
O 18.74237843 11.71245899 25.30046111 0.00991040 0.00449501 -0.00229701
O 5.14311768 1.69579175 21.34972938 0.00429532 -0.00275549 0.00714543
O 21.47992751 20.95472334 29.27539071 0.00402729 -0.00113306 -0.00197774
O 24.84409005 7.93960185 23.30516497 0.00025542 0.00329933 -0.00257934
O 19.68542180 24.66823226 4.66479876 -0.00001336 0.00014500 0.00262713
O 8.09402094 18.59678925 0.12865430 -0.00430191 0.00510785 -0.00087672
O 12.92234359 8.26052408 28.45229694 0.00795983 0.00430806 0.00263565
O 25.05812750 5.83968458 9.67199419 -0.00140260 0.00209742 -0.00306244
O 13.91107102 15.45561890 15.16825143 0.00011967 0.00397376 0.00003423
O 25.54526520 2.66245288 24.53770732 -0.00383578 -0.00549429 -0.00458841
O 24.83932303 21.42488907 23.98340657 0.00755577 -0.00153695 0.00349621
O 22.20893224 0.86880164 30.23181305 0.00513659 0.00256397 0.00015989
O 0.47539314 19.99989688 11.26821642 -0.00053194 0.00173877 -0.00175299
O 18.12131013 18.59012929 18.16137283 -0.00114324 0.00532001 0.00176137
O 12.01112159 0.60439234 27.64605257 0.00552049 0.00327141 0.00304628
O 24.64184121 20.48876213 19.08532345 -0.00229675 0.00703909 -0.00520441
O 24.45894685 23.59392425 15.43549667 -0.00671342 -0.00409734 0.00070478
O 18.84313639 18.68797731 6.47748737 -0.00607886 -0.00232947 0.00178517
O 9.88260240 15.86070331 29.92094037 0.00646049 0.00822649 -0.00190329
O 17.43540924 20.51338348 5.25958826 0.00598146 0.00357347 0.00566980
O 25.37826100 5.19333391 13.37239084 -0.00689118 0.00418584 -0.00195255
O 21.45388949 14.68384565 14.25874836 0.00271165 -0.00529314 -0.00387279
O 15.86992757 4.54471134 30.68200868 -0.00433914 -0.00026250 -0.01275953
O 24.90625805 16.00924040 3.32829328 0.00107000 -0.00630029 0.00215410
O 16.96232532 20.65558253 24.33718747 0.00326403 -0.00462862 -0.00223141
O 24.91882065 19.71001595 5.25901844 -0.00386011 -0.00263298 0.00440801
O 12.24775930 17.40625543 4.21242672 -0.00302701 -0.01072288 -0.00406497
O 22.83003192 9.23471041 22.12544054 0.00470849 0.00774316 -0.00373171
O 20.71480499 7.34396253 9.60314599 0.00034443 -0.00625783 0.00305566
O 18.46741029 2.43314908 2.65075381 -0.00657187 -0.00437228 0.00233519
O 20.06880192 24.05883894 15.30078500 -0.00002393 0.00398012 0.00419997
O 23.16339585 11.96073567 7.81785660 -0.00931268 -0.00275298 -0.00462734
O 21.29693145 25.40959666 24.00937492 -0.00827872 -0.00526241 0.00114976
O 3.32263634 15.46608642 14.75549298 0.00019551 0.00220759 -0.00774597
O 17.31170810 24.57121268 18.77188847 -0.00151637 0.00393997 0.01030085
O 19.59849478 9.29021837 16.67304574 -0.00172855 -0.00271180 -0.00493353
O 20.60879959 17.05667233 9.59633277 -0.00399737 -0.00350828 -0.00186713
O 14.45596109 24.86173773 30.97632647 -0.00323604 -0.00064260 -0.00520604
O 20.73120684 25.59841332 21.65965107 -0.00178031 -0.00830578 -0.00400762
O 3.67332498 23.66941957 14.06817767 0.00035374 -0.00233796 -0.00421237
O 19.96454514 24.69590378 11.08572987 0.00412662 0.00017936 -0.00544361
O 2.39467829 17.47936811 20.69366041 0.00477309 0.00085937 -0.00507013
O 13.77999750 25.80623763 25.53893098 0.00126796 -0.00057729 0.00383559
O 15.71510134 18.11327648 30.06691878 -0.00167719 -0.00367067 -0.00102189
N 14.93981030 21.32159913 11.28790517 -0.00452113 0.00987385 0.00122816
N 6.08005650 2.20304150 8.78337522 -0.00077789 -0.00315751 -0.00575124
N 4.19909501 22.70717505 8.08126017 0.00316404 0.00528276 0.00021852
N 2.87795614 9.78110466 20.41732555 -0.00501123 -0.00568661 -0.00172867
N 4.28983291 0.15967506 15.63835575 -0.00539360 0.00467054 0.00088099
N 3.21015093 11.10102342 28.58422693 -0.00293066 -0.00292196 0.00306008
N 3.72284566 16.22901415 3.14245955 0.00055837 -0.00360223 -0.00152467
N 0.13043301 2.43829927 4.18160663 0.00064091 0.00054013 -0.00150011
N 1.23878883 18.06771691 27.90852067 -0.00111839 0.00915386 0.00057661
N 25.25079339 9.00644389 27.64140772 0.00069732 -0.01160428 0.00417572
N 20.83387116 4.23941478 23.95056581 0.00522455 0.01014294 0.00396718
N 10.77183493 6.78898329 24.78109608 -0.00047033 -0.00041325 -0.00290540
N 7.90399944 3.23007423 1.11744345 0.00038316 -0.00283447 0.00279770
N 7.92603729 8.80569062 15.66799376 0.00561681 0.00197317 -0.01061224
N 8.62151204 16.04197770 21.94296957 -0.01393223 0.00110597 0.00204806
N 6.63731885 4.00136032 13.89377616 0.00482738 -0.00508901 0.00376290
N 7.58908280 22.85741298 10.88302731 0.00320589 0.00304382 -0.00168005
N 2.10163185 13.94059785 11.32736681 -0.00087820 -0.01006409 -0.01103536
N 0.16401279 14.86202764 0.00408147 0.00745389 0.00000465 0.00130184
N 5.63747869 18.72959150 22.29086733 0.00807591 0.00198390 -0.00255287
N 3.62072044 10.94387196 16.00271479 -0.00692760 -0.00138665 0.00080975
N 1.09551330 24.18970622 3.72025816 0.00330259 0.00043750 0.00038798
N 13.23077000 17.39911692 11.08264434 0.00246493 -0.00893120 0.00343329
N 2.08602764 1.39540302 27.32412949 -0.00894112 -0.00924082 -0.00691222
N 9.86773501 0.82136982 17.53515924 -0.00174789 -0.00667214 -0.00226583
N 3.67798363 21.70541261 0.44716469 -0.00090899 -0.00687700 0.00870225
N 24.15142769 15.85351681 23.97441433 0.00164658 0.00053447 0.00572979
N 0.76181496 24.19493333 28.77598014 0.00623986 0.00010554 -0.00833003
N 18.98196932 11.90493732 2.55771432 -0.01459046 -0.00197234 0.00239160
N 5.79599480 23.22411980 23.46436500 0.00199735 0.00180257 0.00208600
N 9.78777981 20.80193221 25.14930834 -0.01232354 0.00117593 0.00089597
N 22.25321987 18.29357315 21.00092752 -0.00533189 0.00404503 -0.00458194
N 11.50366239 8.98147547 3.80758894 -0.00016018 -0.00076143 0.00266803
N 11.77845131 2.06143106 7.65773600 -0.00015230 0.00141694 0.00145978
N 14.02736725 4.17491434 7.91245287 0.00057342 -0.01154071 0.00663324
N 16.03445259 12.31423127 15.73083676 0.00225219 0.00058346 0.00724813
N 9.45769301 20.80090689 13.57789101 -0.00176237 -0.00033103 -0.00053562
N 20.01753348 11.43841015 9.71871526 -0.00585428 0.00216757 0.00772188
N 11.26687205 14.79075885 6.56694288 -0.00285020 -0.00703189 0.00263079
N 16.80639517 10.36275919 10.74219527 -0.00908110 -0.00086991 -0.00798579
N 13.70563783 11.17012580 18.98694720 0.00314386 -0.00438129 -0.00309901
N 8.49733686 5.06574362 22.72319349 -0.01028006 0.00582086 -0.00037636
N 15.64447264 0.64432245 9.70779277 0.00493995 -0.00362950 -0.00371009
N 25.48157438 7.18710819 4.21848284 0.00070498 -0.00552302 -0.00098831
N 8.14087142 1.46773272 25.82701832 0.00511904 -0.00654323 0.00240645
N 18.10934551 4.64453229 17.84404295 0.00534533 -0.00187014 0.00349154
N 5.92124555 12.25976160 13.19079713 -0.00014225 -0.00964233 0.00914386
N 20.81733836 7.59964982 26.56423721 0.00250582 -0.00181154 0.00179817
N 5.79980295 7.58644230 31.06641224 0.00469952 0.00198394 -0.00195973
N 5.36440866 8.74111928 6.61376606 0.00730358 0.00411849 -0.00386659
N 17.34309302 9.38912473 0.10861994 0.00141647 -0.00316921 -0.01185927
N 22.77214305 16.48986271 17.11281305 0.00311222 0.00100815 0.00518918
N 8.03304893 11.33030962 5.68387619 -0.00034498 0.00110951 -0.00004602
N 18.20652006 1.11191624 12.38892492 -0.00371396 0.00407582 0.00033164
N 16.10858616 6.04479172 4.88163926 -0.00430739 -0.00051542 0.00561850
N 9.22781015 22.38072772 6.58030168 0.00714619 0.00413033 -0.00477347
N 24.21495464 0.52415561 17.63084356 0.00404507 0.00427220 -0.00586367
N 11.78297461 13.00662848 29.94574343 0.00427127 -0.00504348 -0.00341532
N 12.53252036 14.27442739 21.15498974 0.00361676 0.00500940 -0.00463178
N 10.93101934 25.05518115 2.61452410 -0.00173715 0.00331680 -0.00177379
N 7.62333221 13.65560212 28.51380983 -0.00017347 0.00038676 0.00788226
N 16.86161606 15.57746135 24.65567968 0.00091476 0.00407542 -0.00187513
N 10.67433789 6.31199637 13.90581204 -0.00082137 0.01034912 0.00725926
N 11.73088228 20.67642420 18.10338495 -0.01027504 -0.00093341 0.00350279
N 22.63268180 16.75455864 8.44252405 -0.00143450 -0.00070501 -0.00351462
N 23.62895503 9.83000769 14.86304298 0.00278653 -0.00303491 0.00061130
N 13.56573895 4.81004669 30.85259806 0.00509748 0.00652869 0.00014623
N 25.27018484 7.54026615 8.18374120 -0.00597607 0.00127526 -0.00232763
N 20.42127191 22.63576600 11.80094704 -0.00467828 -0.00425507 0.00394514
N 1.08745592 11.82048722 6.28800062 -0.00014425 -0.00260233 0.00015160
N 13.58859646 17.48143971 2.45926911 -0.00156963 0.00349981 0.00956207
N 21.35167284 0.07890014 0.71954366 -0.00355839 0.00707368 0.00935021
N 23.67562365 3.81441065 12.58324425 0.00331014 0.00262746 -0.00070098
N 9.84657440 19.11477828 30.27709874 -0.00274421 -0.00370321 0.00332479
N 19.52959127 1.01119969 20.26259287 0.01303448 0.00552193 0.00164392
N 18.58274325 14.19094428 29.26928967 -0.00556633 0.00525615 0.00181423
N 17.76722209 21.74233720 26.28562022 -0.00234995 0.00135248 0.00127124
N 1.50541020 4.07074135 24.69737616 -0.00028807 0.00084847 -0.00671306
N 14.43878340 25.90424859 23.34906898 -0.00367809 0.00303443 -0.00316100
N 2.41091467 5.20047196 19.74013299 0.01148769 -0.00716698 -0.00026275
N 20.50360017 22.61496431 4.31676735 -0.00042887 0.00892165 0.00755142
N 20.87440607 16.81394333 13.67910839 0.00138730 0.00013929 -0.00419756
N 10.09748690 22.88737419 31.37020080 0.01157300 0.00024351 -0.00022636
N 2.43785358 22.09330847 15.16193576 -0.00544306 0.00526407 0.00060674
N 15.84190090 16.20364129 14.22507498 -0.00048011 -0.01725808 -0.00461044
N 24.24722278 19.75665912 7.42351279 0.00219909 0.00465756 0.00672711
N 23.87681711 23.58974877 9.49221931 0.00328607 -0.00092013 -0.00116637
N 16.02717025 19.94002425 31.35042654 0.00275935 -0.00399800 -0.00235791
N 11.44561686 24.24975641 16.69817958 0.00214891 -0.00097206 -0.00255158
N 16.58279285 25.02195618 30.06397846 0.00305545 -0.00007663 -0.00755370
N 14.41033261 8.24163244 26.64137526 0.00304034 -0.00082332 -0.00444285
N 22.75446928 15.38301663 3.48214619 0.00212590 0.00007608 -0.00815946
N 17.81880580 9.43052045 20.35949449 0.00933934 -0.00201577 0.00111916
N 2.82801050 18.98061421 19.03455687 -0.00139103 -0.00624411 -0.00497808
N 22.61490382 21.04028583 23.89969047 -0.00279738 -0.00342524 0.00006213
N 23.25965475 10.78341456 20.51146199 -0.00637939 -0.00252664 -0.00290680
C 7.52690492 23.15046571 13.32215688 -0.00361918 0.00077839 0.00773504
C 6.04742914 0.48731935 10.50046333 -0.00402023 -0.00261303 0.00013423
C 2.54930203 14.68614582 30.75186898 0.00173589 -0.01169855 0.00659714
C 2.14232951 12.00001168 21.08813833 0.00520348 -0.00299949 -0.00082717
C 1.98443497 10.61123788 14.19204701 -0.00090740 -0.00470861 0.00243078
C 4.24360135 11.03504171 30.78878530 -0.00930952 0.00021758 -0.00689955
C 12.66333431 18.10564967 13.36975682 0.00458275 -0.00397504 -0.00193700
C 25.42146240 1.94562360 6.60590379 -0.00545261 0.00502245 0.00404688
C 7.23567005 22.76576194 14.57910691 0.00708352 0.00351704 -0.00053459
C 5.37105593 25.47775688 11.14842712 0.00340136 -0.00233929 -0.00258903
C 3.66205955 15.26515502 30.30747612 0.00740813 0.00114000 -0.01127349
C 1.37979211 13.14093972 20.84104971 0.00669806 0.00316154 0.00333948
C 1.23026423 9.75580017 13.43004748 -0.00469007 0.00796349 -0.00326002
C 4.18394200 10.59981759 0.61115813 -0.00561306 -0.01130589 -0.00236604
C 12.02586294 17.77692375 14.50430979 -0.00143655 0.00573174 0.00781770
C 25.44980608 2.15419239 7.99538288 0.00319692 -0.01300247 0.00172532
C 6.33455480 21.65436928 14.67308718 0.00556367 -0.00168534 -0.00063111
C 4.04692530 25.23118180 10.97808222 -0.00467570 -0.00067065 -0.00169353
C 3.73930570 16.66765950 30.31341007 -0.00126273 0.00303146 -0.00161332
C 0.74903637 13.25149118 19.58473483 0.00890646 0.00962636 0.00011708
C 1.36004554 8.34364680 13.55774214 0.00628045 -0.00654298 -0.00398553
C 2.96272223 10.19200289 1.24583141 -0.00148266 -0.00069698 0.00798306
C 11.06546669 16.81960599 14.59538415 0.00166555 -0.00708569 0.00297579
C 0.58346091 3.23273329 8.34582023 -0.00278704 -0.00078013 -0.00665754
C 5.91447503 20.96877276 13.52396482 -0.00554955 0.00099256 0.00483912
C 3.40162908 0.04437367 10.02164472 -0.00463894 0.00359978 -0.00243196
C 2.74576844 17.40952700 30.85742364 -0.00091849 0.00082920 0.00049646
C 0.91326353 12.25817446 18.59255164 0.00745879 -0.00321245 -0.00986182
C 2.37388017 7.82062889 14.41814910 0.00704455 -0.00228890 -0.00249959
C 1.89099018 10.01746414 0.36757522 -0.00027202 0.00186145 0.00050389
C 10.59799492 16.28755220 13.34274466 0.00182357 0.00001320 -0.00150337
C 1.39042023 3.84725408 7.43605610 -0.00594706 -0.00727033 -0.00566614
C 6.28428158 21.35607672 12.29553576 -0.00797795 -0.00284445 0.00457908
C 4.00180535 1.00463919 9.20051779 -0.00580623 -0.00468762 0.00129835
C 1.63326133 16.81683503 31.36535564 0.00379478 0.00021801 -0.00778515
C 1.61139036 11.09882304 18.95538090 0.00705779 0.00028649 0.00273230
C 3.00061322 8.77592145 15.27256832 0.00528683 0.00513383 0.00204702
C 2.02428224 10.09954085 30.41858220 0.00551933 0.00158657 0.00364538
C 11.30589652 16.60504449 12.23166893 -0.01258569 -0.00532253 0.00300622
C 1.21605548 3.68636232 6.09622435 0.00325105 0.00372587 -0.00985159
C 7.14898169 22.50275367 12.19075612 0.00790985 -0.00222911 -0.00277716
C 5.36406135 1.24544957 9.46590677 -0.00149243 -0.00291956 0.00288252
C 1.42989585 15.47287905 31.18139341 -0.00694213 0.00016564 0.00191018
C 2.20281743 10.95093259 20.16210218 -0.00049246 -0.00212223 0.00019928
C 2.75416118 10.13481887 15.21523419 -0.01323388 -0.00002425 0.00910169
C 3.18164103 10.72134398 29.89018359 -0.00025240 -0.00341246 0.00560070
C 12.40609600 17.44638693 12.16624788 0.00256323 0.00084837 -0.00358104
C 0.33496556 2.69066967 5.58973968 -0.01169364 0.00786457 -0.00349608
C 8.24217635 23.98885402 10.72803453 0.00038685 0.00001260 -0.00082403
C 5.54764606 3.36173686 8.16671676 -0.00158621 0.00410334 -0.00836961
C 25.21743019 13.90454785 30.91435502 -0.00835976 -0.00147797 -0.01152540
C 3.90146747 9.71187411 21.27632800 -0.00874785 0.00408320 0.00267479
C 3.39104099 12.26731985 16.21948413 0.00672041 -0.00438951 0.00412402
C 4.25539556 11.75070258 27.94753520 0.00727136 0.00270770 -0.01137075
C 12.91406251 16.88191548 9.84694881 -0.00178463 0.00440603 -0.00168412
C 0.54499307 3.21347854 3.16676851 0.01030830 0.00163814 -0.00810806
C 3.22292249 17.67589973 26.52218636 0.00080174 0.00028729 -0.00281801
C 6.13614797 3.75825270 6.70181457 -0.01126289 0.00166877 -0.00058874
C 2.81134097 21.76885622 9.71300723 0.00829329 -0.00222867 0.00594512
C 9.99966327 6.98725794 27.06093197 0.00224647 -0.00525941 -0.00002439
C 8.05852420 2.49719978 3.42207845 0.00330748 -0.01074900 -0.00826001
C 4.17476506 12.02568822 26.40297931 0.00748591 -0.00382190 0.00319159
C 2.05195966 16.14588890 4.85467064 0.00312004 -0.00133279 0.00662482
C 5.67280523 5.77790874 12.52337081 -0.00574280 0.00147544 0.00499780
C 8.69447910 0.47393740 15.53117432 -0.00502189 -0.00584161 0.00467069
C 1.52361520 8.51826864 26.37334501 -0.00729493 0.00932924 -0.00190238
C 0.04177075 14.16274149 24.43823798 -0.00028396 -0.00388985 0.00353939
C 12.19166434 6.86825916 22.84564027 -0.00064040 0.00181420 -0.00844975
C 20.39060286 11.98108308 0.68434520 -0.00145593 -0.00422223 0.00179227
C 6.75431104 8.55344092 13.50729188 -0.00875819 0.00320444 -0.00936312
C 11.00269431 19.25970233 23.67970645 0.00339618 0.00366142 -0.00258166
C 5.32232862 5.28778746 15.43115290 -0.00375275 -0.00921584 0.00389861
C 8.55589309 0.56043741 14.17300426 -0.00022462 0.00401739 0.00609930
C 2.59303879 7.76135909 26.12348829 -0.00639122 -0.00618328 -0.00319892
C 1.36213565 13.79337745 24.56581984 0.01021195 0.00210066 0.00370679
C 12.76297478 6.33728431 21.72733138 -0.00182750 -0.00953129 0.00131218
C 21.03075222 12.58965183 31.13151461 0.00779740 -0.00109553 -0.00580687
C 6.58776137 8.83708846 12.13508321 0.00338773 0.00162293 0.00706820
C 12.17197996 18.84577711 23.08188441 -0.00246774 -0.01277083 0.00024298
C 5.11478948 5.55696916 16.77569768 0.00504649 -0.01480433 0.00828143
C 9.57363930 1.12502219 13.42533965 0.00487557 0.00555482 -0.01143852
C 2.96159831 6.63619009 26.84418795 -0.00017840 -0.00128543 0.00201805
C 2.44765855 14.60805384 24.04661949 0.00378024 0.00213691 -0.01221845
C 12.88960691 4.98934827 21.71666738 0.00216757 0.00144340 0.00131524
C 21.02971836 13.96830770 31.14250946 -0.00086368 0.00418299 0.00306398
C 7.49517548 9.82013775 11.59649423 -0.00011590 -0.00059413 -0.00329386
C 13.32016993 19.70656079 23.19674885 -0.00292837 -0.00567852 -0.00141678
C 6.16455146 5.48500908 17.66705160 0.00132297 -0.00241012 0.00590309
C 10.58295238 1.93142715 14.05443502 0.00629790 0.00174048 0.00294800
C 2.16298419 6.42118504 27.98102731 0.00755049 -0.00136583 -0.00875946
C 2.03551312 15.65854252 23.22505108 0.00598964 0.00835277 0.00291250
C 12.52110034 4.17266002 22.88334079 0.00393596 -0.00180026 0.01089041
C 20.19037067 14.70979172 0.48077294 0.00315123 0.00279624 0.00243129
C 8.61417755 10.18253767 12.28779321 0.00576506 -0.00193149 -0.00411922
C 13.19959556 20.95143440 23.76329167 -0.00054556 -0.00242119 -0.00059705
C 7.40202822 5.01696366 17.31270671 -0.00962007 -0.01008536 -0.00006764
C 10.77252594 1.73590038 15.38719024 0.00168755 -0.00121146 -0.00695323
C 1.07208125 7.23209725 28.30843158 -0.00173949 -0.00800802 0.00082857
C 0.77310735 16.22294619 23.40969884 -0.00097258 0.00077821 0.00272295
C 11.82842271 4.65717322 23.92563451 -0.00268042 0.00287227 -0.00609758
C 19.52139885 14.02989352 1.51933577 -0.00276644 0.00242798 0.00432068
C 8.81100427 9.81085594 13.59793703 -0.00587650 0.00278733 0.00314673
C 12.03645995 21.33949949 24.47451146 -0.00518640 -0.00058479 0.00710574
C 7.60677225 4.66744981 16.00335340 0.00439382 0.00214041 0.01009756
C 9.81926607 1.01266500 16.17914653 0.00163980 0.00409631 -0.00749266
C 0.71949205 8.29504395 27.46930504 -0.00370588 0.00475847 -0.00137730
C 25.46097615 15.45995132 23.91832292 -0.00316396 -0.00561868 -0.00564477
C 11.56204900 6.10822693 23.89889752 -0.00355638 -0.00056532 0.00996537
C 19.61976396 12.68431426 1.56634229 -0.00223282 0.00010368 -0.00097141
C 7.81297459 9.07829508 14.29421380 -0.00339203 -0.00553536 0.00880843
C 10.88807633 20.48508438 24.41431376 0.00046943 -0.00498415 -0.00927035
C 6.52928619 4.65783485 15.13555777 0.00137819 0.00585640 -0.00307131
C 10.72447244 1.10039003 18.49744479 0.00521109 0.00698019 0.00871703
C 24.29426989 8.65515446 28.49289485 -0.00078396 0.00370811 0.00038611
C 23.55415633 17.12432059 24.15511774 -0.00547476 -0.01288658 0.00832264
C 10.24902206 6.14702643 25.86694308 0.00083555 0.00221724 -0.00384442
C 19.22462286 10.63804750 2.93474703 -0.00277324 0.00176050 0.00301215
C 8.60734710 9.42724681 16.62519293 -0.00790999 0.00719992 0.00049674
C 9.74624982 21.77235499 26.17739560 0.00485103 0.00289505 0.00256938
C 6.05179613 4.31822056 12.74026763 0.00771759 0.00109630 0.00265859
C 14.90397757 23.19402953 12.77834445 0.00185821 -0.00034327 -0.00116957
C 23.27112984 9.78715387 28.68551716 -0.00202024 -0.00906164 -0.00315256
C 20.27985204 5.48916622 22.00057522 -0.00475980 0.00056068 -0.00021331
C 5.04855630 8.76973065 21.00929549 0.00036566 0.00873661 0.00195430
C 3.52501338 1.51684869 13.73125437 -0.00007159 -0.00723241 -0.00239697
C 8.10028508 9.36683893 18.03500515 0.01399876 0.00088377 -0.00110470