1920
Time=44000.00000003 pbc="T T T" Lattice="25.12597957 0.00000000 0.00000000 0.00000000 26.11836184 0.00000000 0.00000000 0.00000000 31.60468015" energy=-12208.94089240 virial="-96.18873174 14.24557015 -29.42340185 14.24557015 -94.17591885 -4.93330602 -29.42340185 -4.93330602 -82.13566870" stress="-0.00151175 0.00075903 -0.00141753 0.00075903 -0.00107451 -0.00022384 -0.00141753 -0.00022384 -0.00082757" Properties=species:S:1:pos:R:3:vel:R:3
O 5.18485228 21.07719872 15.69593410 -0.00807282 -0.00096711 -0.00266967
O 2.95700526 24.29834269 11.49389341 0.00078550 -0.00552948 -0.00407967
O 5.10336722 17.35569863 30.46326602 0.00268710 -0.00064677 -0.00453046
O 24.91902515 13.67901924 19.89908352 0.00545501 -0.00298964 0.00455908
O 1.41699596 7.99188659 13.34316947 -0.00993789 -0.00767779 0.00220379
O 2.89610412 10.08097856 2.91553030 -0.00752099 -0.00639932 0.00013169
O 10.10959201 17.12486854 16.37762278 0.00826277 -0.00015245 -0.00158967
O 24.40288408 3.24461101 8.67945177 0.00749793 0.00466548 0.00503629
O 9.93515423 1.72428263 19.79765312 -0.00593153 0.00379515 0.00573465
O 2.73561148 3.66290138 8.36195031 0.00487299 0.00034949 -0.00140012
O 24.05473101 12.80490555 30.91380681 -0.00714148 -0.00851745 0.00109263
O 9.51013586 5.02779164 25.91317371 -0.00050726 -0.00383950 0.00190253
O 19.48665455 10.82904414 4.43252403 -0.00228281 0.00231562 -0.00137667
O 5.55512225 11.75545517 29.00098668 -0.00019708 -0.00325221 0.00416109
O 11.52530876 16.38152580 10.20191371 0.00020921 0.00505208 0.00028459
O 5.82196422 3.39653341 11.87201255 0.00981055 -0.00337644 0.00260251
O 9.32181717 1.16650741 12.17119220 -0.00332027 -0.00138123 0.00601011
O 4.70849031 7.06509332 25.92555152 -0.00049126 0.00292396 0.00223174
O 5.26216911 16.08295799 25.05037743 -0.00319819 -0.00376819 -0.00010005
O 12.41861785 4.49009187 20.35739136 -0.00371424 0.00129707 0.00857314
O 21.46985752 13.39841424 30.71404153 -0.00012309 0.00747790 -0.00415686
O 7.37761410 9.49123084 10.58922942 -0.00114146 0.00483443 0.00839140
O 14.18512681 21.09147547 23.25783804 -0.00030672 0.00902293 -0.00457146
O 5.34770462 5.56516217 19.24967192 -0.00119725 -0.00233030 -0.00048374
O 7.72753853 25.14475230 11.29160557 -0.00061653 -0.00551748 -0.00330169
O 24.44811345 7.46177296 29.38787961 0.00259747 -0.00159021 0.00146519
O 23.15129288 15.68707248 23.12678993 -0.00637033 -0.00348504 -0.00442015
O 4.68569503 10.78847863 22.69277919 -0.00486744 0.00448812 0.00282750
O 4.45779193 12.75578945 15.73262486 0.00264606 -0.00302907 0.00910592
O 8.70966968 9.85265875 17.00563774 0.00159430 0.00271870 0.00375077
O 9.83417381 23.22960822 27.35766529 -0.00120955 0.00528945 0.00701589
O 1.56461570 3.71479863 2.75040165 0.00341642 -0.00432738 0.00234383
O 18.22621360 18.48769525 8.96145897 -0.00757558 0.00484679 0.00246924
O 5.02382303 18.96082084 8.79835718 -0.00543455 -0.00876896 0.00413701
O 5.83121228 24.58874483 2.82182545 0.00102879 0.00374603 -0.00423486
O 6.10732346 18.91685418 16.86581580 -0.00503526 0.00104744 -0.00226251
O 6.42333778 0.16683366 21.12145511 -0.00203318 0.00607938 -0.00678935
O 3.93057265 2.37209650 3.32069933 -0.00059699 0.00441499 0.00145613
O 7.59594615 19.35446997 4.78120568 -0.00137043 -0.00078549 -0.00200462
O 22.56403233 25.39940011 26.36974489 -0.00011074 0.00112690 0.00097101
O 1.48998985 16.42647840 28.05554934 0.00906563 -0.00531915 0.00240565
O 1.31117266 13.13252969 12.15929686 0.00311397 -0.00323786 -0.00037767
O 3.90028660 20.82482272 7.46862475 -0.00618070 0.00322767 -0.00751408
O 24.49120391 23.20510753 29.80609098 0.00592211 -0.00414937 0.00490834
O 5.04652457 2.55091768 1.00676733 -0.00250672 0.00216492 -0.00724466
O 24.19609191 24.59694188 5.46830235 -0.00064623 -0.00601313 0.00103050
O 1.12434284 15.66354264 2.54605818 0.00132215 0.00419036 -0.00486482
O 22.87751236 18.57593966 18.61841211 0.01029825 -0.00234782 0.00780514
O 21.04589651 15.80965914 30.58077492 0.00364756 0.00570304 -0.00095765
O 24.19071978 19.31798898 2.73623104 0.00411519 -0.00822696 -0.01086257
O 19.17566085 0.67604837 28.06366128 0.00295301 -0.00582768 0.00577703
O 6.13591677 24.04814823 29.54324686 0.00678547 0.00299475 -0.00307427
O 5.68316704 4.72350122 26.88590490 0.00662812 -0.00433522 0.00399384
O 0.48789808 23.57204518 22.98756123 -0.00431872 -0.00447300 0.00180521
O 5.79087811 12.43145146 24.23902238 0.00264567 -0.00387831 -0.00033098
O 17.64568892 20.08854651 21.57007195 -0.00201328 0.00050047 -0.00179967
O 15.41702899 20.63515506 14.12318501 0.00043286 -0.00501461 0.00121541
O 4.98398104 23.56750774 0.72303208 0.00216032 0.00784900 -0.00566925
O 18.50575747 3.39089623 22.41913990 -0.00260651 0.00245229 0.00026974
O 5.96111267 17.51194717 23.00258798 0.00501070 0.00017753 0.00973794
O 3.94738606 2.48768345 15.35127259 0.00038188 0.00365284 0.00390867
O 6.84669088 23.99921235 22.22647686 0.00461124 -0.00898679 -0.00189386
O 8.17073757 18.14692696 19.99302070 0.00192345 -0.00468304 -0.00034931
O 4.23527602 2.71701656 25.95511330 -0.00583735 -0.00198454 0.01171612
O 3.35199174 5.37025576 3.93315974 -0.00627480 0.00798927 -0.00058173
O 7.29670685 5.03145599 10.02432512 -0.00652025 0.00256340 0.00124990
O 16.43468012 12.31103278 26.40972268 -0.00440551 -0.00100450 -0.00043374
O 11.87185732 9.43769009 13.04679658 -0.00010017 0.00684391 -0.00219587
O 9.20574790 6.59201884 7.75951572 0.00080178 0.00355088 0.00379009
O 14.71375493 9.98190671 7.08212849 -0.00521683 0.00209640 0.00259197
O 18.82077270 3.12464520 8.79786803 0.00049082 -0.00033067 0.00369578
O 20.06637932 11.51094070 14.18668480 0.00176639 0.00286895 0.00162716
O 23.53151451 25.16913371 15.81146335 -0.00647690 -0.00187757 -0.00329312
O 11.72681243 0.34645758 5.93373787 -0.00482666 -0.01118972 -0.00849934
O 19.37414420 9.10171157 31.33601644 0.00704277 -0.00044690 -0.00194231
O 1.39494911 7.76722481 3.54642309 -0.00299136 0.00478847 -0.00156104
O 7.24098259 16.04907059 30.01850194 -0.00133825 -0.00469043 0.00069553
O 20.35053894 9.11226009 10.01809118 0.00024933 0.00528401 0.00074335
O 14.30678601 7.28606320 7.32248176 -0.00213454 0.00044897 -0.00019590
O 18.72463460 8.63220192 25.35412259 -0.00218218 -0.00446559 0.00096448
O 23.21103788 2.72343995 22.51104237 0.00247502 0.00290999 0.00424206
O 8.49917622 10.55686174 25.30510304 -0.00059117 0.00306051 0.00380562
O 9.72971595 12.21389927 16.80874414 0.00390190 0.00562582 0.00522489
O 21.41040778 7.46059251 31.30146609 -0.00093133 -0.00444905 -0.00317546
O 8.97158895 10.97480302 1.80401869 -0.00533233 0.00015631 -0.00635190
O 20.21390417 5.65597121 13.73505185 0.00424654 -0.00027894 0.00698193
O 13.47081007 5.58810204 18.23742109 -0.00088620 -0.00028523 0.00014385
O 18.08374716 4.13675671 30.02880554 -0.00844923 -0.00449378 -0.00552468
O 4.86521107 7.67495098 29.90221017 -0.00565630 -0.00355789 -0.00591328
O 7.41017796 6.37389541 20.69346975 0.00951810 0.00077304 -0.00297845
O 10.97382258 13.86131525 22.78842173 -0.00335514 -0.00596291 -0.00695266
O 17.28694480 9.81578987 16.61322196 0.00583314 -0.00367111 -0.00706059
O 7.54965041 11.39960041 4.10980521 0.00149866 -0.00345137 -0.00399613
O 15.56773554 4.02319474 17.83380184 0.00194222 0.00475982 0.00570281
O 11.68925859 7.05031895 12.23347048 -0.00413994 -0.00070744 -0.00066264
O 14.38493776 11.37575677 11.05586654 0.00385175 -0.01009864 0.00210842
O 11.39135650 7.46979231 29.99110835 -0.00207403 -0.00697993 0.00613580
O 5.50290514 14.99470578 5.64895844 0.00014611 -0.00184095 0.00327841
O 12.28498047 3.01283984 2.23563544 0.00279388 0.00692759 0.00665508
O 25.05586079 16.76302854 13.26064683 -0.00616997 0.00037615 -0.00045041
O 11.21947389 24.31049643 9.41051602 -0.00267227 0.00194766 0.00032694
O 15.98557106 24.55112862 16.99211956 -0.00712740 -0.00430633 -0.00142929
O 6.25537378 16.00682746 8.89884181 -0.00046641 0.00128308 -0.00831335
O 9.42318100 18.09936019 9.36708537 0.00716783 -0.00120187 -0.00739562
O 12.77304772 8.61976355 19.15135711 -0.00626733 0.00000424 -0.00252179
O 5.38937187 9.89591166 9.34066272 0.00648077 0.00579758 -0.00400577
O 11.93217164 5.93217297 7.99026857 -0.00111144 -0.00294597 0.00462425
O 12.35412571 0.61255674 1.36092307 -0.00242618 -0.00133983 0.00312866
O 7.34102402 1.54148158 28.21218544 0.00133189 0.00542768 0.00314234
O 17.95856186 2.98111184 11.24096853 0.00135545 0.00825653 0.00202871
O 11.96053081 13.66109132 7.34111085 -0.00676331 -0.00039912 -0.00637160
O 9.75207690 20.19225050 19.39220991 -0.00349804 -0.00499248 0.00316269
O 13.70463028 11.45170920 24.86367013 -0.00229601 0.00102924 -0.00679890
O 10.36606005 11.93490866 24.48562445 0.00189318 0.00123442 0.00248292
O 16.18368591 24.87391210 4.53780437 0.00175518 -0.00206322 0.00006193
O 6.67592433 0.37455341 30.26622562 0.00341313 -0.00331584 0.00148354
O 11.12961941 0.34300257 21.60306273 -0.00533478 0.00335034 -0.00949412
O 16.75836182 16.59460090 19.53621163 0.00765418 -0.01201930 -0.00533514
O 7.53606529 16.88532454 16.64991555 -0.00294165 -0.00698343 -0.00520781
O 17.26923927 20.35722486 18.03266535 0.01197248 0.00557309 -0.00887530
O 12.97913094 11.26868352 2.93801332 -0.00115951 -0.00040056 0.00279271
O 12.73711124 11.53846971 30.46132546 -0.00203495 -0.00252369 0.00292177
O 12.75023073 0.02775770 9.58400616 0.00155155 -0.01073510 0.00653750
O 22.86720431 13.58425269 18.40797894 0.00380640 0.00536987 -0.00219041
O 9.89756994 22.67009586 15.41917562 -0.00194055 -0.00455947 -0.00442277
O 13.97542047 17.21256747 25.16027404 -0.00286370 -0.00752131 0.00239603
O 6.20988610 14.43466859 10.97161873 0.00958806 0.00278493 -0.00031281
O 9.25717647 23.55290171 4.33112902 -0.00478946 0.00332217 -0.00697554
O 19.47303634 21.81627175 30.22527506 0.00067837 0.00164249 0.00057832
O 23.24425558 5.41945552 18.15764913 -0.00968487 -0.00171356 -0.00394959
O 9.88751757 19.73934989 3.80772219 -0.00359642 0.00060200 0.00023565
O 19.14037229 7.35010056 6.32162512 -0.00274803 0.00390848 -0.00255826
O 14.15333019 14.26553627 8.83744861 0.00395753 -0.00200141 -0.00774178
O 24.38650658 11.38869071 1.31367630 0.00665535 -0.00117760 0.00486368
O 20.32017067 1.24865271 6.84027725 -0.00252925 0.00040737 0.00650411
O 21.26050441 4.10951823 3.67975011 0.00219737 0.00004508 -0.00044308
O 13.59910900 25.44436467 17.27673771 -0.00093374 -0.00020549 0.00587919
O 24.23655361 11.27368590 16.21479750 -0.00987935 0.00028809 0.00221685
O 12.79929543 23.92234953 0.02214271 -0.00542910 0.00055635 0.00285937
O 16.98827447 16.82195373 27.81939984 -0.00363814 -0.00031690 -0.00281895
O 15.28789488 8.20366229 21.18450138 0.00735719 0.00059914 0.00415064
O 0.08566075 10.70364226 7.56213365 0.00280951 0.00267358 0.00191189
O 24.74729256 22.16495099 10.26742906 0.00344101 0.00458730 -0.00567673
O 0.16879159 4.20253051 19.01523696 -0.00217485 -0.00196937 -0.00608998
O 10.90370669 22.73103104 22.34770899 -0.00704621 0.00053361 -0.00574977
O 13.21947827 19.07233114 26.60662974 0.00096792 -0.00820124 -0.00196848
O 16.12191570 3.54042775 23.64082799 0.00268600 -0.00127639 -0.00103049
O 21.72341146 14.04856187 24.52346164 0.00043581 0.00495704 -0.00681617
O 18.50101874 12.31511929 24.84057470 -0.00132398 -0.00174194 0.00575772
O 5.55498335 2.69059769 21.87169363 0.00130510 -0.00821889 0.00160933
O 21.42531238 20.34376974 29.46277904 0.01020016 -0.00287237 -0.00288307
O 24.19735122 8.97594214 23.10283359 0.00116737 -0.00168998 -0.00419197
O 18.83838247 24.85213527 4.33683890 0.00354501 0.00362304 0.00032813
O 8.36631496 17.81615237 0.37548684 -0.00129722 -0.00381785 0.00473257
O 12.54324585 8.78024309 28.03501701 0.00227696 0.00340799 0.00064157
O 24.49050132 5.65597654 9.51117303 -0.00407688 -0.00726931 0.00150734
O 13.26158497 15.46095920 15.05694651 -0.00495782 -0.00916259 0.00610697
O 24.75462655 2.78185803 24.63003389 0.00533358 0.00024501 -0.00446650
O 24.42516380 21.73117604 24.07818667 0.00121916 -0.00350662 0.00247323
O 21.22671779 0.70900847 29.87442316 -0.00239968 -0.00346909 -0.00573176
O 0.97077031 20.12005658 11.50149621 -0.01041683 0.00215327 0.00117354
O 18.44696048 18.08223118 18.75764808 -0.00673938 0.00202217 -0.00118082
O 11.85643337 1.97694153 26.10395437 -0.00293730 0.00255920 0.00447130
O 23.46004385 21.25614284 18.75484448 0.00059796 -0.00432984 0.00014375
O 23.48876487 23.21552774 14.25449483 0.00314212 -0.00635811 -0.00791157
O 18.37074003 19.09396956 6.40414536 -0.00179784 0.00241409 -0.00523237
O 10.04136890 15.59865773 30.61403856 0.00231506 0.00283345 -0.00670853
O 16.83182110 20.74851819 4.78771173 -0.00177232 0.00228388 0.00581100
O 0.02003427 5.94288475 13.86579057 0.00342527 0.00448948 0.00796386
O 19.86129088 14.10183283 14.08035352 0.00363867 0.00452886 0.00628329
O 15.69496160 3.56894491 31.16391224 -0.00133751 0.00050786 -0.00250133
O 23.83445978 15.82403807 3.39300938 0.00676168 0.00343155 -0.00457304
O 16.59462072 20.64735952 23.81282040 0.00157167 0.00313372 0.00368175
O 24.63888379 19.10107230 5.16903153 -0.00231149 0.00286265 -0.00150441
O 11.72582391 18.26100496 4.55575994 -0.00380924 -0.00044698 -0.00090342
O 22.10493650 9.84351986 22.16798854 -0.00812928 -0.00149195 0.00142730
O 19.80164394 6.57205340 10.55501332 0.00582658 0.00743856 -0.00064540
O 16.81253949 1.87996621 2.78270964 -0.00606369 -0.00048465 -0.00318613
O 20.20411450 23.40468612 15.41747220 -0.00314829 0.00150011 0.00451654
O 22.52452191 11.94463566 7.86254927 -0.00195089 -0.00489778 -0.00054872
O 21.12065168 24.93922586 24.14424404 0.00068937 -0.00179407 0.00656427
O 3.99847734 15.19091301 15.37170656 0.00619151 -0.00337762 0.00192569
O 17.26012765 23.33315418 19.18024569 -0.01349717 0.00507558 0.00015327
O 19.14126574 8.11162290 16.78228653 0.00570326 -0.00111262 -0.00251764
O 20.41341103 17.80068754 10.19532056 -0.00114933 -0.00187836 -0.00132747
O 15.10145715 23.50610322 30.59787606 -0.00210077 -0.00063937 -0.00015907
O 21.06050061 24.98834508 21.57312342 0.00052682 -0.00380429 0.00303415
O 3.63396998 23.65674036 13.81386741 -0.00013974 0.00320599 0.00409574
O 18.63457122 25.35455371 11.04492925 0.00615543 -0.00834649 -0.00416739
O 2.37473631 17.51184238 20.93605518 -0.00611725 -0.00344074 -0.00858903
O 14.01684845 0.08875274 25.43153485 0.00428168 -0.00393801 0.00455219
O 15.83050811 18.63882377 28.96387698 0.00978946 -0.00089659 -0.00172701
N 14.83715672 21.61858213 12.13014378 -0.00284056 -0.00347097 0.00275191
N 4.76371147 2.42611721 8.31276921 -0.00132944 0.00026233 0.00112442
N 4.18547022 23.07815524 7.90876938 0.00308444 0.00900494 0.00053776
N 3.39778753 9.71362294 21.17031247 -0.00309288 -0.00395405 -0.00317115
N 4.09164046 0.31479958 16.03851117 0.00282072 -0.00046085 0.00221352
N 3.40121291 10.89281438 29.10592826 0.00428120 -0.01203119 0.00510623
N 3.39969859 16.17573990 3.03593590 0.00307651 0.00095286 -0.00744672
N 24.99170309 2.30265236 3.21066839 0.00587238 0.00862697 0.00536987
N 0.36668045 18.32497499 28.53294728 0.00404232 0.00699571 -0.00351578
N 24.71410791 8.73092522 27.55141881 -0.00038246 0.00430271 0.00085198
N 20.35059905 3.98956451 23.67979728 0.00157295 0.01221100 -0.00239107
N 10.91609359 6.67476674 25.14018883 -0.00376708 -0.00125461 0.00248742
N 7.13221967 3.43170549 0.43842128 0.00314850 -0.00460722 -0.00217886
N 6.81586368 9.16531040 16.05070178 0.00092459 -0.00102255 -0.00332329
N 8.23151383 16.55914990 21.61108580 -0.00129214 0.00601797 -0.01063757
N 6.28609065 4.27222644 13.82038639 0.00532271 0.00523169 0.00779527
N 7.89582605 22.92123948 11.16159788 -0.00664343 -0.00863063 0.00429005
N 2.70845004 14.86306629 11.80609521 0.00283998 -0.00314880 -0.00447881
N 0.52487845 14.30882864 31.27866404 -0.00866140 0.00195389 0.00085537
N 5.95769434 19.73914919 22.35267263 -0.00485313 0.00370400 0.00459680
N 3.57455568 11.25065108 17.19314698 -0.00660194 -0.00287808 0.00430055
N 0.58703411 24.13000634 3.85100048 -0.00244528 -0.00208840 -0.00109482
N 13.01850589 17.57820935 11.61004390 0.00027210 -0.01016453 0.00056452
N 2.48450653 1.91325142 27.11931797 0.00216768 -0.00193493 0.00576921
N 9.24143832 1.60081782 17.70980402 -0.00741505 0.00857147 0.00124048
N 3.04288227 22.37358044 0.20895338 0.00106805 -0.00304479 0.00445472
N 24.88540504 14.89997179 24.32436700 0.00242255 0.00094979 0.00573645
N 0.65912737 24.50180224 28.32881513 -0.00285361 0.00189214 0.00201582
N 17.94773698 11.24468109 2.86268306 -0.00080697 -0.00226948 -0.00091607
N 5.85137634 23.62758699 24.30981460 -0.00111713 0.00235484 -0.00189947
N 9.82951833 21.05757737 26.58793209 -0.00848380 0.01044932 -0.00140503
N 22.60559539 17.69933005 20.65152410 -0.00213318 0.00226776 0.00046570
N 11.74038425 9.40890042 3.49450526 -0.00169045 0.00894514 -0.00962336
N 10.49070747 1.08790195 7.70388362 0.00637450 0.00109667 0.00052400
N 12.94121925 3.80780892 7.65563751 -0.00910287 -0.00226694 0.00178542
N 15.93872228 11.66914348 16.17245345 0.00755660 -0.00170004 0.00637799
N 9.80729108 21.18671458 13.66347919 0.00760522 0.00875901 0.00523918
N 19.29778469 11.20287467 9.97550373 -0.00608479 -0.00275850 0.00174733
N 11.19541078 15.46375957 6.39392064 -0.00338793 0.00009540 -0.00095650
N 16.01096857 9.72735076 10.92911937 -0.00514283 0.00268768 -0.00508211
N 13.08987316 10.86891370 19.27665624 0.00416967 -0.00108977 -0.00697604
N 8.02502206 5.66214861 22.87650722 -0.00290352 -0.00116466 -0.00302769
N 14.90473064 0.67999216 9.67974263 0.00377228 0.00290452 0.00071568
N 24.50421477 7.05428807 4.35168670 -0.00517488 0.00183112 0.00230185
N 7.99520147 1.36706536 26.04504637 0.00580932 0.00631018 0.00914219
N 17.70186269 4.05058008 18.42459559 0.00022549 0.00599111 -0.00144758
N 6.26594025 13.16658230 12.85940600 -0.00432219 -0.00054677 -0.00527273
N 20.42043391 7.34586422 26.18545998 -0.00313264 -0.00240384 -0.00420894
N 6.47507769 7.86374045 31.53610240 -0.00519642 -0.00665956 -0.00367764
N 5.25907284 9.56962769 7.13005821 -0.00637742 -0.00065124 -0.00080157
N 17.15279860 9.46838300 31.08400333 0.00378719 0.00003045 0.00434786
N 21.95044876 15.58067089 17.83272516 0.00242099 0.01181395 -0.00271392
N 8.24954150 11.86386407 6.23004221 -0.00045861 -0.01476281 0.00488392
N 17.43638064 1.28731346 12.51514531 -0.00479062 -0.00186633 -0.00113250
N 15.47878843 6.11519674 5.60251709 -0.00309359 0.00226360 0.00546229
N 8.60676168 22.64738902 6.21523768 0.00090399 0.00636936 0.00149881
N 23.59805328 25.79259082 17.97345062 -0.00732928 0.00537597 -0.00652374
N 11.48576259 13.27970918 29.64509888 -0.00092350 -0.00600721 0.00166341
N 12.37518941 14.60846814 21.13209680 0.00138989 -0.00390144 -0.00489246
N 10.65992956 25.34688950 2.12475227 -0.00692826 -0.00098833 -0.00070780
N 7.31117064 13.94899774 28.99101945 0.00033123 -0.00168891 -0.00125914
N 15.71976671 15.71749262 24.92578257 0.00606961 0.00384688 -0.00208711
N 10.17943833 6.51525539 13.80654108 -0.00060203 -0.00529813 0.00031812
N 11.86395830 21.04361532 18.92864490 0.00194946 -0.00050391 -0.00133087
N 22.22800370 16.97326743 8.99148479 -0.00164800 0.00714869 0.00918732
N 23.58637723 9.63796465 14.68043632 0.00430417 0.00701430 0.00394528
N 13.35228483 3.86530335 31.21826957 0.00034103 -0.00425016 -0.00911435
N 24.36037392 7.59448430 8.25760436 0.00111449 -0.00742615 0.00126699
N 19.13345574 23.14914171 10.87824873 0.00733724 -0.00335460 -0.01191174
N 1.44124591 12.12717705 6.47656809 -0.00067983 -0.00263924 0.00873772
N 13.35827459 17.75338854 3.03591074 0.01022355 -0.00249416 -0.00511072
N 21.31965926 25.71501024 0.27882847 -0.00549387 0.00624396 0.00609352
N 24.12374301 4.04560197 13.18593224 0.00699572 -0.00175539 0.00023551
N 9.95687464 19.31243220 31.24586139 -0.00405590 0.00068258 0.01094670
N 20.35470192 0.42881242 20.03291738 -0.00361999 0.00559841 -0.00497390
N 18.04028574 14.89788701 28.52468541 0.00109314 0.00662487 0.00325328
N 17.86642816 20.98610792 25.75640760 0.00620076 0.00790060 -0.01182466
N 1.17699578 4.46916713 24.68859683 -0.00158233 0.00195701 -0.00375950
N 14.99667415 0.15634238 23.40742013 0.00415669 -0.00212377 0.00212172
N 1.60870057 4.61050260 20.79039074 -0.00032290 0.00358901 -0.00357670
N 19.91202402 22.86024180 4.11149575 0.00942601 -0.00869773 0.00343728
N 19.58547170 16.28724172 13.60277510 -0.00785883 0.00593832 0.00737588
N 10.63992817 23.16747392 31.08531875 0.00276092 0.00087584 -0.00477957
N 2.50145722 22.41601034 15.35601879 0.00097346 0.00213548 -0.00273192
N 15.22290180 15.87427337 14.02882643 -0.00071339 -0.00154526 0.00677913
N 23.79807670 20.06866042 7.08637986 -0.00091185 0.00018580 0.01373193
N 23.19757492 23.67142820 9.89944242 0.01456111 0.00353864 0.00077027
N 15.57908446 19.68846036 30.98251508 0.00229277 0.00230554 0.00469550
N 11.34232781 24.70557597 17.13777769 0.00669709 -0.00376338 0.00420724
N 16.23207379 25.25622159 29.53475452 -0.00290568 -0.00508346 0.00940799
N 14.04603968 8.09405514 26.37191332 -0.00500923 -0.00345715 0.00570147
N 21.66107726 15.16565535 3.42072766 -0.00649359 -0.00391888 0.00341969
N 17.10339778 9.20941736 20.40324050 0.00184296 0.00216332 0.00260899
N 2.08245000 18.78926535 19.07212358 0.00125166 -0.00171924 0.00037612
N 22.24413781 20.96896155 24.16484655 0.00152499 -0.00160439 0.00885676
N 22.31774810 11.15031809 20.25005181 0.00919086 -0.00098111 0.00486690
C 7.27461297 23.35724134 13.58493488 0.00306197 0.00244191 -0.00681099
C 5.17953035 0.75975310 10.15003031 0.00003345 -0.00243956 -0.00299637
C 2.79410169 14.54565215 30.38109406 0.00193452 0.00573521 -0.00770715
C 2.51085162 12.01269295 21.53793459 0.00410930 -0.00271061 -0.00486109
C 3.03697122 10.88591114 14.82765505 -0.00907182 -0.00362170 0.00607393
C 4.14695786 11.44408090 31.35403718 0.00632217 -0.00639447 -0.00643806
C 12.65083443 18.15726115 13.98212923 -0.00381655 -0.00290867 -0.00884442
C 24.16514076 1.64507752 5.34317185 0.00347092 -0.00214244 -0.00306908
C 6.63055536 22.76077902 14.66914062 -0.00712678 -0.00472201 0.00643661
C 4.74888692 25.79123043 10.97185602 0.00633746 0.00086072 -0.00597657
C 3.89167432 15.29525832 30.11831401 -0.00245162 0.01033237 0.00217978
C 1.62614600 12.98974987 21.20139496 0.00139379 0.00250121 -0.00520653
C 2.60004894 10.02627506 13.82363642 -0.01256281 0.00517322 0.00072497
C 4.07796563 11.26386360 1.18886474 -0.00872497 -0.00000063 0.00048858
C 11.87695224 18.14609984 15.12356265 0.00661675 -0.00554434 -0.00646340
C 23.98891157 1.86556327 6.75100553 0.00562578 -0.00019396 0.00382611
C 5.77153542 21.61387696 14.58502927 0.00084250 0.00315841 0.00217077
C 3.41349600 25.39454258 10.80017586 0.00357347 -0.00305075 0.00807152
C 3.98266750 16.58667076 30.62700722 0.00103009 -0.00032943 0.00697248
C 0.59377506 12.70405581 20.28462655 -0.00472929 -0.00656813 -0.00590895
C 2.07704535 8.77479043 14.17183629 -0.00032087 -0.00244394 0.00393962
C 3.08549596 10.31765153 1.58901615 -0.00070352 0.00701734 0.00229602
C 10.76526994 17.27490312 15.19890740 -0.00345772 -0.00271456 -0.00157529
C 24.54979533 2.95988002 7.40109592 -0.00559404 -0.00521796 0.00291085
C 5.73032498 20.95120387 13.37704019 -0.00029516 -0.00306300 0.00785383
C 2.53879898 26.04415082 9.98390985 0.00634956 0.00482673 -0.00352482
C 2.85946606 17.15071399 31.36004242 0.00933391 0.00489619 0.01001926
C 0.46137658 11.38027049 19.78660419 0.00365248 -0.00272778 0.00649568
C 2.12379313 8.38299490 15.52771107 -0.00430087 -0.00035774 0.01078890
C 2.10260667 9.82667677 0.68800147 0.00649124 0.00914916 -0.00229049
C 10.52661515 16.46148850 14.10132870 0.00205081 0.01660655 0.00409363
C 0.18074924 3.87574397 6.57569773 0.00449185 0.00476824 0.00172084
C 6.28526438 21.52094260 12.30614491 0.00064656 -0.00467974 -0.00315792
C 2.98650855 0.93809817 9.21544073 0.00343597 0.00012509 -0.00455871
C 1.69597700 16.40097502 31.44955641 -0.00717188 -0.00455573 -0.00611650
C 1.24410885 10.38894497 20.31549184 -0.00054779 -0.00310789 0.00739892
C 2.62813349 9.21494874 16.54476253 0.00820667 -0.00272698 0.00182427
C 2.24134959 10.03774774 30.92035400 -0.00037933 -0.00019042 0.00628783
C 11.11898073 16.65329982 12.83616856 0.00527786 0.00751885 -0.00449146
C 0.17792396 3.78269014 5.20348625 0.00584990 -0.00640048 -0.00067399
C 7.19461081 22.61835483 12.35547031 -0.00172966 0.00254292 -0.00233525
C 4.33225386 1.38028559 9.19628923 -0.00017908 -0.00264136 -0.00226649
C 1.65908534 15.05512224 30.97683984 0.00704726 0.00721725 -0.00026414
C 2.39704948 10.69687785 21.10964165 0.00879881 0.00402092 0.00750141
C 3.03024013 10.46497855 16.20694248 -0.00102558 0.00783112 -0.00211234
C 3.35631614 10.75164827 30.45648892 0.00087262 0.00215309 -0.00556073
C 12.24216817 17.50882012 12.77351033 -0.00257300 -0.00473311 0.00564569
C 24.81086193 2.63575258 4.55414541 -0.00148846 -0.00163636 0.00235423
C 7.80452141 24.12724690 10.60013001 -0.00906317 0.00432656 -0.00023188
C 3.90438666 3.44652927 7.90273005 0.00178900 -0.00352265 0.00560207
C 25.08977024 13.29489185 30.48330176 0.00705663 0.00031392 -0.00502027
C 4.52782298 9.81569151 21.96980465 0.00133844 -0.00081236 -0.00794584
C 4.29345840 12.36817015 16.90852345 -0.00401750 0.00650409 0.01301716
C 4.48563778 11.39090243 28.46581888 -0.00137214 -0.00846324 -0.00169382
C 12.41452506 17.24025452 10.39798348 0.00760916 0.00173716 -0.00072403
C 0.74935068 2.92449907 2.39324170 -0.00580984 0.00042058 -0.00326510
C 2.51923780 18.57551613 27.49856911 0.00165906 -0.00325435 0.00321074
C 4.44419607 4.21293595 6.72439917 0.00512433 0.00113068 -0.00318543
C 3.10357426 21.68345876 9.53255218 0.00693633 -0.00419480 0.00151664
C 9.93784224 6.88885368 27.26618302 -0.00759047 0.00182097 0.00385995
C 6.66393624 2.69875679 2.72589486 0.01356187 0.00633874 0.00037492
C 4.43196043 11.41196257 26.95867681 -0.00497344 -0.00264412 -0.00219531
C 1.71809541 16.26994640 4.76842427 0.00790770 0.00647175 -0.00232902
C 4.21957297 4.92114225 12.68447522 -0.00218806 -0.00095053 0.00632620
C 8.29682651 0.77317588 15.67314359 -0.00207720 -0.00027443 -0.00802316
C 1.40750007 8.75781411 25.97806951 -0.00358384 0.00069884 -0.00608533
C 2.06199461 14.24910607 25.05371931 0.00077689 -0.00013514 0.00254752
C 11.81393616 6.98978229 23.00248161 -0.00298511 0.00949208 -0.00574296
C 20.08825907 11.25852530 1.71158765 -0.00120282 0.00890860 0.00610830
C 6.01822200 8.81105640 13.85845452 0.00773939 0.00383650 -0.00392602
C 10.87603751 20.33379648 24.50460880 0.01170015 0.01255101 -0.00129515
C 4.83383334 5.31969443 15.61319634 -0.00176395 -0.00791182 -0.00445858
C 8.39370240 0.62152026 14.26177335 -0.00502370 0.00376870 -0.00409903
C 2.69904087 8.44360864 25.62066813 0.00059799 0.00471938 0.00696123
C 3.40365360 14.54871657 25.21947945 -0.01057210 -0.00156385 0.00695088
C 12.16437281 6.45545318 21.74366070 0.00262952 0.00292793 0.00668038
C 20.95419484 11.73304906 0.77328017 -0.00048326 0.00304127 -0.00297811
C 6.18261450 8.77478033 12.51360155 0.00515373 -0.00176019 0.00128118
C 11.95036591 20.36868223 23.73148404 0.00122260 0.00282486 0.00593421
C 4.63854173 5.56276340 16.96154618 0.00182491 -0.00176985 0.00001497
C 9.27784688 1.35502655 13.54471569 -0.00203398 -0.01021315 -0.00015892
C 3.51541052 7.53901191 26.35642589 -0.00601426 0.00652269 -0.00606996
C 4.04238664 15.78237141 24.69249862 0.00235571 -0.00295915 -0.00731347
C 12.06032843 5.04689058 21.51190526 0.00641117 -0.00457150 0.00766220
C 20.60381880 12.89976727 0.02607002 -0.00044165 -0.00863159 -0.00648949
C 7.36184491 9.42668849 11.87444521 0.00113305 0.00227195 0.00134147
C 13.06224543 21.27162123 23.92405698 -0.00468722 0.00045829 -0.00320402
C 5.61497610 5.28823442 17.92104842 -0.00508261 -0.00128196 -0.00214504
C 10.08822206 2.32872961 14.20752098 0.00159831 0.00128020 0.00076771
C 2.92404855 7.08921288 27.59221449 -0.00537657 -0.00449848 -0.00286818
C 3.20707916 16.52719112 23.76899001 0.00872846 -0.00292514 0.00517689
C 11.54011776 4.18082727 22.52802342 -0.00627377 0.00411309 0.00407766
C 19.32987170 13.40364057 0.21226708 -0.00821767 0.00281308 -0.00725423
C 8.33178411 9.87500805 12.74631442 0.01064042 -0.00009849 0.00103002
C 12.92131652 22.28831383 24.91579395 -0.00629965 -0.00887795 -0.00186543
C 6.86232338 4.92212804 17.43496666 -0.00126640 -0.00827754 -0.00403658
C 10.00634732 2.47272569 15.54328019 0.00750967 -0.00034547 0.00244021
C 1.63302557 7.48241618 27.95816932 0.00443144 0.00122882 0.00453732
C 1.83417666 16.25961104 23.77445181 0.00126409 0.00035033 0.00079713
C 11.04243287 4.71291266 23.69191853 0.00475059 -0.00880313 -0.00235718
C 18.44341659 12.88887555 1.21927853 0.00108628 -0.00638560 -0.00107010
C 8.18945808 9.82942288 14.14698779 0.00120602 0.00409358 0.00286526
C 11.78786029 22.17528685 25.72844011 0.00925738 0.00085444 0.00734785
C 7.07374149 4.59239798 16.09600298 0.00291235 -0.00548261 0.00520093
C 9.17653619 1.62025894 16.29975220 0.00928691 0.00334726 -0.00447146
C 0.88674803 8.29859575 27.15797330 -0.00213965 -0.00364109 -0.00234725
C 1.16205323 15.18875161 24.44655465 0.00098392 -0.00615499 0.00873542
C 11.22570280 6.12305547 23.95409799 0.00378373 -0.00812847 -0.00298404
C 18.76649639 11.76028984 1.90175714 -0.00177106 0.00396741 0.00392161
C 7.06582077 9.24138388 14.68485294 0.00488758 0.00353341 -0.00392281
C 10.83821653 21.17774145 25.59109599 0.00385366 0.00449899 -0.00080318
C 6.05612090 4.69300353 15.13091286 -0.00005699 0.00010156 0.00058440
C 10.20696241 1.82123003 18.60149407 -0.00057877 0.00319601 -0.00341550
C 24.10130974 8.47777837 28.74006432 0.00238318 0.00024901 0.00424306
C 24.11021392 15.93531463 23.83880185 -0.00074087 0.00746807 -0.00129232
C 10.02278485 6.12661360 26.03871551 0.00247558 -0.00091633 -0.00465394
C 18.36151441 10.53915766 3.96554094 0.00330368 -0.00100773 0.00749795
C 7.62219993 9.39536362 17.08324104 -0.00239306 -0.00290701 0.00594386
C 9.19996340 22.15410886 27.14718993 0.00007490 -0.00562910 0.00014974
C 5.47696816 4.15932063 12.76498581 -0.00140179 -0.00113988 0.00239156
C 13.80003676 22.45699928 14.22413218 0.00235459 -0.00764836 0.00011910
C 22.90761228 9.21543491 29.29545410 0.00144848 0.00810707 -0.00676993
C 19.26138939 5.75981079 22.26277901 -0.00674774 -0.01130167 0.00899919
C 5.57353185 8.66271048 22.01132052 -0.00113121 -0.00029199 -0.00699351
C 4.01306891 0.89803486 13.70427696 0.00163763 0.00236832 0.00145702
C 7.09576339 8.93405345 18.42218165 -0.00424701 0.00445095 -0.00105968