1920
Time=78000.00000008 pbc="T T T" Lattice="25.81519981 0.00000000 0.00000000 0.00000000 26.13986840 0.00000000 0.00000000 0.00000000 31.18032461" energy=-12208.40994805 virial="-58.19640627 -17.11819828 -2.72883573 -17.11819828 -111.21758079 8.15985231 -2.72883573 8.15985231 21.95698193" stress="0.00045100 -0.00087868 -0.00011238 -0.00087868 -0.00231866 0.00047407 -0.00011238 0.00047407 0.00416832" Properties=species:S:1:pos:R:3:vel:R:3
O 4.87088457 21.08525546 14.54090170 -0.00007313 -0.00396431 -0.00402479
O 4.18464652 24.89889930 11.05377230 -0.00776132 0.00549804 -0.00141339
O 5.61102174 17.02456548 30.31349058 -0.00374810 0.00206718 0.00399657
O 25.28500074 13.79353140 19.29710996 0.00442828 -0.00519092 0.00154518
O 0.46145616 8.00160119 12.60283781 0.00438191 0.00168541 0.00407561
O 3.16221902 9.94800759 2.95231269 -0.00313156 0.00343811 0.00588342
O 10.40068430 16.42467926 15.95436686 -0.00337319 -0.00451856 -0.00033974
O 25.00502331 2.91481487 8.69485892 -0.00493359 -0.00531116 0.00389941
O 9.43259958 2.56465066 19.13296818 0.00617817 0.00393649 0.00019646
O 3.23014018 5.32497997 7.36014621 0.00365243 -0.00605466 -0.00305024
O 25.45209459 12.70916882 30.26566839 -0.00203997 0.00249805 -0.00232730
O 11.77235895 5.37157007 26.67653278 0.00412559 0.00184017 -0.00265758
O 20.51473383 10.47476121 4.09182937 -0.00516324 -0.00613463 -0.00128487
O 5.87198436 10.78630966 28.48999409 -0.00154997 0.00193127 0.00288607
O 11.81494419 16.99481196 10.03133559 -0.00252834 -0.00479813 0.00630343
O 7.49669653 3.65376838 12.42129304 -0.00779387 -0.00332236 -0.00136836
O 10.01163291 0.81937891 11.83040373 -0.00249971 -0.00309713 -0.00370080
O 4.26244352 7.41322377 27.35286074 -0.00773178 0.00354072 -0.00467357
O 5.45175991 15.42862968 23.63355938 -0.00526338 -0.00227600 -0.00624039
O 12.72712428 3.91207235 20.34489446 0.00805967 0.00627386 -0.00239049
O 22.82575457 13.02239473 29.82397953 -0.00416020 -0.00118266 0.00103857
O 8.15594146 9.23070237 10.28492899 0.00898373 -0.00011908 0.00236796
O 15.67459184 21.87678842 23.09175023 -0.00143333 -0.00512217 0.00430371
O 5.01565538 5.96434532 19.29069126 0.00990021 -0.00230847 0.00231141
O 8.16477692 25.26297248 10.99158748 -0.00042886 0.00078010 -0.01111744
O 23.18355515 10.90656822 26.43225839 -0.00063196 0.00579674 -0.00545620
O 23.61518683 16.54105873 23.50593862 -0.00327514 0.00285095 0.00465884
O 3.71487460 10.10802153 22.51757309 0.00248946 0.00291659 0.00180737
O 4.00251905 12.85857296 15.03741681 -0.00000179 0.00208580 -0.00030186
O 9.05579395 10.35177347 16.70606375 -0.00242284 -0.00338682 0.00564642
O 10.57159816 23.44276192 26.33289240 -0.00896910 -0.00347279 0.00103605
O 25.70481710 4.11670937 2.51822565 0.00106288 -0.00379744 -0.00358121
O 17.19355900 19.40731423 8.18886381 0.00363124 0.00329039 -0.00168367
O 4.30276533 19.20016888 7.73649449 0.00194153 0.00209659 0.00366978
O 6.18369285 23.74729127 3.26751042 -0.00303996 -0.00253595 -0.00502515
O 6.01001205 18.96622923 16.11650273 -0.00195963 -0.00165839 -0.00034508
O 5.41447519 26.07846670 21.13237381 0.00857855 -0.00076108 0.00530093
O 4.38715511 2.56954688 2.92913701 -0.00301189 -0.00412475 -0.00410273
O 8.89774844 16.96507635 5.12939395 0.00471072 -0.00278996 0.00600857
O 23.44225372 25.40680839 25.25528336 0.00542483 0.00170552 0.00044347
O 0.91703461 16.30292995 26.68322758 -0.00148742 0.00069092 0.00642187
O 25.51217381 15.74722562 10.18496975 0.00275742 -0.00435987 -0.00215626
O 2.52915440 21.36218110 7.79895018 0.00079651 0.00509482 -0.00197492
O 24.65151828 24.14153430 28.16360284 -0.00306632 -0.00003898 0.00518170
O 5.78356786 2.81014083 0.80042923 0.01092527 0.00579396 -0.00000201
O 0.46222667 24.34952426 5.45154760 0.00243026 -0.00649982 -0.00617998
O 1.53953080 17.35366985 3.85954298 0.00446562 0.00602880 -0.00122339
O 23.55532355 19.14034051 18.69690981 0.00306476 0.00265251 0.00797960
O 21.29765842 16.68451911 30.13896354 0.00046981 -0.00109455 0.00096591
O 24.87884054 20.07454908 2.81726205 0.00073885 -0.00026175 0.00342876
O 20.73834125 1.39173936 28.43329478 0.00015895 0.00063026 -0.00549623
O 6.40321456 23.22028213 29.10223755 0.00002677 0.00218315 -0.00496807
O 6.68285663 3.80244565 25.75435345 -0.00023379 -0.00169986 -0.00178480
O 0.89578588 20.75521259 23.48032402 0.00756151 0.00724288 -0.01071456
O 5.16829777 11.87640475 23.66884219 -0.00063404 -0.00964238 -0.00467196
O 18.08138689 20.23724011 21.77310072 0.00701943 0.00064088 0.00442791
O 15.70332936 21.21472657 14.16005992 0.01173680 -0.00806013 -0.00373042
O 5.66454753 22.54217598 1.13083817 -0.00031145 -0.00355258 -0.00216723
O 18.69642804 4.24851164 23.05860513 0.00694076 0.00017312 -0.00386262
O 6.41335451 17.45832443 22.22491333 -0.00130933 0.00154303 -0.00435322
O 4.05502823 2.38716973 15.73992143 -0.00152644 -0.00251568 0.00153639
O 6.40915559 23.86069067 21.99954683 0.00318604 -0.00332792 -0.00133944
O 9.16497291 17.32419500 20.39543201 0.00296573 -0.00428573 -0.00376779
O 4.87059520 1.85851280 25.29141383 0.01015551 -0.00185947 -0.00210655
O 2.10532707 5.19398048 3.38817441 0.00704502 -0.00372874 -0.00957548
O 7.17758584 4.08231050 9.89841036 -0.00534110 0.00054683 -0.00573163
O 17.02829546 12.17597747 26.14892731 0.00247795 -0.00294722 -0.00507029
O 11.89180444 8.98871255 14.09804114 -0.00700717 -0.00233454 -0.00216954
O 9.30447380 6.39561674 7.19003346 0.00545772 -0.00601694 -0.00955653
O 15.30410906 10.16578717 7.23102701 -0.00498160 0.00371413 -0.00153708
O 18.83136502 3.46538253 8.52592559 0.00334350 -0.00030231 -0.00750855
O 20.43337036 11.87453210 13.80239182 0.00446828 -0.00197538 -0.00299530
O 24.17576718 25.36453750 16.06271674 -0.00183944 -0.00201958 -0.00381482
O 12.16269615 0.13434950 5.77117163 -0.00259827 0.00188059 0.00438190
O 20.27570689 9.11815034 30.76931781 0.00512735 0.00393541 0.00010463
O 1.36077399 8.11950565 3.32940061 0.00096370 0.00118074 -0.00227875
O 7.73734457 15.82668043 29.53344779 -0.00002110 -0.00079228 -0.00323827
O 21.13290200 9.54092096 9.56635287 0.00003550 -0.00410913 0.00466800
O 15.16152240 7.89532518 6.00022147 -0.00382072 0.00562032 -0.00141361
O 19.25182853 7.44747772 24.81239871 -0.00154742 0.00546844 0.00105713
O 23.59625020 4.06983565 22.05333363 -0.00868763 -0.00099273 0.00066951
O 7.49062180 11.00698097 26.36397501 -0.00288549 -0.00061581 0.00317468
O 10.19928769 12.66377650 16.28316086 -0.00184199 0.00360611 -0.01211257
O 21.87585768 7.17026488 0.05188676 -0.00477349 -0.00866155 0.00088184
O 9.47649069 10.28496183 1.16816074 -0.00161252 0.00849256 -0.00764984
O 18.84832023 5.75373986 12.45314181 -0.00052189 0.00086046 -0.01249687
O 13.23483588 5.57910126 18.62509998 -0.00339214 0.00087745 0.00276712
O 19.20456059 4.83874837 30.76969685 0.00067000 -0.00190804 -0.00229777
O 5.40757518 7.28493032 29.52373411 -0.00015528 0.00327720 0.00377689
O 7.26018152 6.37568829 21.26208325 0.00309127 -0.00246238 -0.00301370
O 11.61484125 13.77392440 22.35422141 -0.00124939 -0.00406368 -0.00440904
O 17.95236872 10.94577353 15.61233245 0.00484404 -0.00379864 0.00062087
O 8.17050170 11.43908132 3.23229202 -0.00083620 0.00595274 -0.00050172
O 15.76289959 5.67716579 17.88114996 -0.00398162 0.00411095 0.00604193
O 12.18823635 6.61744741 12.69772980 0.00484702 0.00042269 -0.00279081
O 14.78798119 11.29187174 10.87149938 -0.00182342 -0.00370211 0.00305530
O 12.54449396 7.21704321 29.40788232 -0.00028044 -0.00128734 -0.00643853
O 5.82087916 14.81958693 5.80718011 0.00149025 -0.00146039 -0.00069313
O 11.87841207 3.39490274 2.55320568 0.00186995 -0.00101016 -0.00884147
O 25.26548743 17.65317827 13.66498200 -0.00177797 -0.00019266 0.00154463
O 11.24429255 24.12107833 10.19318717 0.00263190 -0.00044774 0.00344933
O 16.46334725 24.39047517 16.61378577 0.00099216 0.00749480 -0.00453435
O 8.83007779 12.94254403 10.90316999 -0.00143756 0.00130957 -0.00263350
O 9.47597173 17.73514219 9.37349889 0.00497367 -0.00451762 -0.00002524
O 11.83047933 8.65873974 19.53047426 -0.00352084 -0.00565871 0.00141365
O 5.98955782 9.44679436 9.07480481 0.00044299 0.00042705 0.00224056
O 11.34135293 5.42552193 8.46695434 0.00015759 -0.00062156 -0.01113375
O 12.41183570 0.97979740 1.84928536 -0.00120713 -0.01012593 0.00698454
O 7.72270129 0.70773928 27.79989544 -0.00160051 0.00852897 -0.00415373
O 18.21426359 3.30028227 11.09467704 -0.01152825 0.00202399 -0.00331155
O 14.22568490 13.31400273 7.29064266 0.00060899 -0.00390803 -0.00670822
O 10.23200530 19.69699698 19.90774679 0.01216907 0.00641311 0.00487036
O 14.70455819 11.12631541 24.99976460 -0.00716520 0.00462632 -0.00190794
O 11.17554211 12.14621627 24.34155452 0.00086086 -0.00235295 0.00546257
O 17.05011298 24.78357071 4.18013538 -0.00216016 0.00634491 0.00873381
O 7.12496789 25.69207204 29.85656154 0.00762594 -0.00711282 0.00591627
O 11.26506692 0.02601115 21.16262752 0.00198843 0.00272624 -0.00221212
O 16.72021023 17.16247198 19.00299735 0.00233495 -0.00493794 -0.00028394
O 7.91434614 16.42746995 15.55609938 0.00528534 0.00356589 0.00677413
O 17.35611553 21.54043485 17.22308271 0.00149825 0.00489028 0.00221942
O 13.01347836 10.55793958 3.53799025 0.00035897 0.00240356 -0.00690263
O 13.39496110 11.38192786 30.20986045 0.00452511 -0.00165796 -0.00638378
O 13.48002443 25.29701926 9.21433890 -0.00504221 0.00443363 -0.00513494
O 22.91281621 13.98007840 18.17064695 -0.00025537 0.00676653 -0.00625244
O 10.97468897 21.30192044 16.01175780 0.00341016 0.00117200 0.00633989
O 14.79446197 16.89518965 24.73002700 -0.00189707 0.00095792 0.00372856
O 6.43769113 13.63257387 10.40888839 -0.00260899 -0.00284025 0.00286222
O 9.19985293 23.84700427 4.72264224 -0.00072954 -0.00436467 0.01091180
O 19.94792533 22.30167377 28.90200095 -0.00189389 -0.00448330 -0.00466210
O 24.73495302 4.61152867 16.88690412 -0.00209678 0.00156804 -0.00187573
O 10.54107321 19.49757790 4.51055693 -0.00299604 0.00086368 -0.00986935
O 20.05587950 8.65641958 5.73079485 -0.00081948 -0.00395771 0.00303552
O 14.43543541 15.09167843 8.97701864 -0.00641646 0.00194446 0.00145703
O 24.51335712 11.27487124 1.32790354 0.00016896 0.00627977 -0.00202151
O 20.13352086 1.06418062 7.59478930 -0.00446789 -0.00239650 0.00064228
O 21.85892068 3.95221119 4.52016067 0.00048325 0.00806292 -0.00423753
O 13.94383977 23.65517441 17.15587108 0.00122530 0.00498830 -0.00112794
O 25.52269999 10.77527615 15.65735959 0.00398817 0.00111357 -0.00328564
O 12.89843510 23.49486602 31.14883766 0.00101731 0.00161592 -0.00817929
O 18.21793539 15.80234430 29.27432561 0.00066607 0.00112023 0.00303553
O 16.73269474 8.07114747 20.89571104 0.00171999 0.00921595 0.00033971
O 25.25906963 11.22284079 7.34478436 0.00030625 -0.00463348 0.00245515
O 25.00493300 22.20938623 10.13861053 -0.00175558 0.00237091 0.00315485
O 1.19539194 4.80711562 17.80428940 -0.00302899 -0.00543269 0.00483832
O 10.62218778 22.07156460 22.00762048 -0.00453202 0.00325577 -0.00145369
O 13.67566454 18.65345189 26.40669388 0.00453270 0.00231872 -0.00002866
O 16.08888235 3.77762652 23.14305894 -0.00014093 -0.00004338 -0.00846755
O 21.56957715 15.05180958 24.00402107 0.00965636 0.00022711 -0.00798085
O 19.14959028 12.42307723 24.87557120 -0.00341256 0.00091140 0.00348280
O 5.00646744 2.40919341 21.85017096 0.00374901 0.00121013 -0.00511318
O 21.38927601 20.32836134 28.41183919 0.00174905 -0.00555826 0.00234521
O 24.96124700 8.15988732 22.68789914 -0.01362918 0.00309428 -0.00548852
O 19.58372532 25.05428474 3.32935844 -0.00345337 0.00018158 -0.00156278
O 8.82612606 18.38516961 1.08596679 0.00334324 -0.00873899 0.00436054
O 14.03237257 8.90464448 28.45639942 0.00021795 -0.00267010 -0.00419539
O 24.26941308 5.30883668 8.96678631 -0.00204197 0.00245309 -0.00326031
O 14.81033751 14.72640704 15.46390478 -0.00079899 -0.00402881 -0.00246258
O 24.98484009 3.59270289 24.05760906 -0.00066371 0.00356231 0.00555864
O 25.01529453 22.61812423 23.92361369 0.00775470 -0.00549743 0.00239968
O 22.87281708 1.43219358 29.94390390 0.00207480 0.00108764 0.00126155
O 24.17176792 19.83423766 11.41905893 0.00125613 0.00556156 0.00000173
O 17.93690280 18.80823713 17.27081856 -0.00000380 -0.00311611 -0.00065216
O 13.35590918 0.54640295 26.80554990 -0.00125762 -0.00197098 -0.00561675
O 25.12909499 21.24779443 18.97320590 -0.00907268 -0.00133771 0.00029659
O 24.28240082 22.90948935 15.27367104 -0.00246145 -0.00069712 0.00003413
O 18.13473441 19.80481116 5.72330623 -0.00627710 -0.00841511 -0.00766212
O 10.19399313 15.51978635 30.85996791 -0.00021432 0.00566655 -0.00327408
O 16.88946004 21.69751964 4.67660482 0.00021364 0.00872308 0.00225845
O 25.64582008 5.48017698 13.20299099 -0.00064101 0.00211922 0.00090692
O 21.26684477 14.45192804 13.72584115 0.00145337 -0.00394154 -0.00743010
O 16.45535319 4.50550271 30.71642184 0.00533864 -0.00113272 -0.00624887
O 25.40312629 15.35215542 3.27576650 0.00071923 0.00061597 0.00069009
O 17.42594094 20.58484988 24.35341698 -0.00631801 -0.00155749 -0.00689096
O 24.39837536 18.93205590 5.07350351 0.00513320 0.00264797 0.00565319
O 12.56604404 18.10056090 5.16562111 -0.00373747 -0.00029722 0.00025973
O 22.79365774 8.74244089 21.61736821 -0.00284099 -0.00414008 -0.00454100
O 20.32680918 7.18438459 10.20842237 -0.00049377 0.00177876 0.00144249
O 17.99084332 3.45159862 2.67390713 -0.00374230 -0.00145039 0.00211727
O 22.00009490 21.14064777 16.41966131 -0.00441481 0.00187470 -0.00519692
O 23.58855239 14.25432117 9.26435175 0.00582730 -0.00042822 0.00739115
O 21.34828700 25.68646169 23.44789983 0.00660419 -0.00585159 -0.00354582
O 3.67505953 14.99829094 13.62341496 0.00088355 0.00671842 0.00693937
O 17.31723005 26.11280183 18.45527053 -0.00140607 0.00610341 -0.00285250
O 19.15501179 8.69054950 16.28741044 0.00293069 0.00020909 0.00145561
O 18.81300851 17.45548193 9.07385834 -0.00160725 -0.00656028 -0.00609311
O 15.01724181 24.95391224 30.74580465 0.00806566 -0.00064857 0.00247146
O 21.26237529 25.34707078 21.03781873 -0.00194819 0.00669663 -0.00232472
O 2.47370320 23.87547446 12.56672233 -0.00250417 0.00149535 -0.00092635
O 19.67671262 25.28085953 11.47246543 0.00129720 0.00532935 0.00701898
O 2.33990093 17.80778057 19.16001538 -0.00266145 0.00017829 0.00265239
O 15.22852862 0.01533780 25.55371016 0.00397043 0.00311797 -0.00367602
O 17.15160411 18.11165988 29.09871723 -0.00199843 -0.00213297 0.00571179
N 14.31492423 21.35141491 12.28814166 0.00189668 -0.00229035 0.00432106
N 2.68382822 3.20908333 7.92992779 0.00353424 -0.00377560 -0.01107312
N 3.81687495 23.13568953 8.22568132 -0.00616902 0.00144480 -0.00408015
N 2.72203090 9.33911754 20.60002408 0.00021584 0.00666586 0.00093967
N 4.70465425 0.19825748 15.58871837 -0.00511668 -0.00636362 -0.00022153
N 3.65644173 10.45372132 28.61260770 0.00393063 -0.00775822 0.00398502
N 3.67931917 16.88510411 3.33750984 -0.00489985 -0.00143725 0.00693038
N 25.16342806 2.04457262 3.25676882 0.00490873 -0.00021022 0.00508023
N 0.68736380 17.90438424 28.28015595 0.01025492 -0.01194367 -0.00653723
N 25.12671234 9.83130735 26.22286706 0.00056034 0.00486778 0.00821764
N 20.85976446 4.06591381 23.58279189 0.00892251 0.00279711 -0.00091764
N 10.89851480 6.68286548 24.91421016 -0.00297544 -0.00492540 0.00455170
N 7.84029377 2.92234613 31.16212867 -0.00147771 0.00179105 0.00087961
N 7.33498679 8.93064651 15.88252609 -0.00072382 0.00039867 0.00204917
N 8.90022834 15.25131880 21.40884352 0.00722463 0.00259991 -0.00761100
N 7.01782541 3.89784650 14.54170314 0.00513412 0.00966902 -0.00001990
N 6.87478116 23.58800549 10.04710767 -0.00682891 0.00155388 -0.00779209
N 1.83881948 15.28581983 10.82811708 0.00182850 -0.00030230 -0.00554698
N 0.48121623 14.82042073 30.01286729 0.00262571 0.00479632 0.00029182
N 6.79571084 19.58853957 21.54417622 0.00562207 -0.00297471 0.00013820
N 3.62029844 10.89158358 16.21669856 -0.00360747 -0.00391831 0.00149627
N 1.01868605 24.14148387 3.23587996 0.00187532 0.00233540 0.00096666
N 13.36272702 17.85359597 11.54756322 -0.00540002 0.00505825 -0.00065712
N 2.74280189 1.51165919 25.90996528 -0.00278494 0.00822825 -0.00133818
N 9.34143190 1.42293294 17.25790194 -0.00626501 -0.00020633 0.00664031
N 3.76911794 21.75164685 0.30553789 -0.00319762 0.00669662 0.00765759
N 25.69506119 15.58905049 23.65326217 -0.00455281 -0.00064165 0.00250560
N 1.03364979 24.12774101 27.67089317 0.00420014 -0.00253079 -0.00241466
N 19.43931317 12.35070118 3.10301947 -0.00208379 -0.01033573 0.00005501
N 6.30127604 22.36246103 23.67395128 0.00095714 -0.01071316 -0.00643854
N 10.62770782 21.29250420 25.40057083 -0.00174050 -0.00249056 0.00090055
N 23.14382593 18.06158481 20.72537045 0.00624904 0.00444201 -0.00321360
N 11.59707031 8.73091397 3.57064289 -0.00000594 -0.00224891 0.00585369
N 11.31349278 1.55240479 7.24444919 -0.00010731 -0.00183627 -0.00214657
N 13.21556369 4.32300586 7.74289962 -0.00166216 -0.00024423 0.00213156
N 16.03236938 12.22673907 15.73748731 -0.00415683 -0.00527589 -0.00255331
N 9.54853576 20.84108655 14.27218871 0.00336832 -0.00216926 -0.00960330
N 20.03130046 11.41704765 9.78935517 -0.00090324 -0.00117235 -0.00191342
N 12.40178067 14.59398348 6.93488155 0.00957727 0.00353374 -0.00134399
N 16.34127063 9.56779006 10.77971607 -0.00109082 0.00240318 -0.00258024
N 12.84192245 10.71832859 19.66789351 0.01006891 0.00037085 -0.00347533
N 7.31718399 6.14972932 23.53509753 0.00102064 0.00365474 -0.00022324
N 15.17598491 0.65831116 9.06289879 -0.00051988 0.00831410 -0.00012155
N 25.31809163 7.32525129 4.27319009 -0.00327795 -0.00091664 -0.00037150
N 8.27614048 1.08144367 25.70742365 -0.00036905 0.00365128 -0.00181653
N 17.67290094 4.41941236 17.69144264 0.00756496 0.00109677 0.00734752
N 5.85165379 12.66723259 12.32839474 -0.00490136 0.00292682 0.00421606
N 21.09779010 7.39494405 26.22802044 -0.00059262 -0.00093415 0.00601506
N 6.37585909 6.90612471 0.34125435 -0.00213530 0.00394740 0.00099099
N 5.49898883 9.38372741 6.81241322 -0.00294655 -0.00930594 0.00671310
N 17.95882626 9.54866034 31.02135164 0.00182689 0.00406974 -0.00135903
N 22.12919751 16.05665202 18.00441231 -0.00332623 -0.00259960 0.00591519
N 8.58620515 11.60440228 5.51492136 -0.00178708 0.00344828 -0.00100099
N 17.89410900 1.42712092 12.22271540 0.00131138 0.00188715 0.00195638
N 16.81485037 6.90059679 4.74389565 0.00457377 0.00354628 0.00514821
N 9.03538600 22.02061386 5.91239926 0.01054507 0.00091995 -0.00010529
N 24.11461148 0.33092385 17.97214644 -0.00359020 0.00525371 0.00137838
N 12.21444248 13.22018486 29.58361662 -0.00635259 -0.00431979 -0.00336807
N 12.88516214 14.53390180 20.65920930 0.00456885 0.00451512 0.00098165
N 11.22901420 25.25619187 2.58080720 0.00003703 -0.00232222 -0.00896369
N 8.25439495 13.98132072 28.19265241 -0.00524679 0.00110681 -0.00500347
N 16.38848213 15.40264886 24.22369552 -0.00052503 -0.00465981 0.00355536
N 10.36323214 6.16959769 13.97201278 -0.00279949 -0.00935365 0.00140617
N 12.03739823 20.85862637 19.02031235 -0.00433661 0.00526906 0.00153598
N 20.73891609 17.11255957 7.96015963 0.00676443 0.00309706 0.00337099
N 23.53889206 9.75391924 15.05534368 -0.00624736 -0.00503529 0.00050286
N 14.18961108 4.22863882 30.87061994 0.00421445 -0.00648190 0.00272668
N 24.46831415 7.64370113 8.91603234 -0.00661752 0.00286557 0.00100500
N 20.16650851 23.03946032 11.44310551 -0.00983292 0.00693152 -0.00006656
N 1.22020844 11.85891715 6.14960530 -0.00970787 -0.00561977 -0.00120915
N 13.91792028 17.57011875 3.39050003 -0.00346771 0.00071609 -0.00352734
N 22.49632618 0.10359094 0.66545164 -0.00167854 0.00460036 -0.00006074
N 24.33543377 3.96678917 12.10999228 -0.00356552 0.00595402 -0.00299900
N 10.56810918 18.90958773 30.97738453 -0.00715101 0.00130249 -0.00306078
N 20.03732576 25.57958068 19.15400961 0.00425767 -0.00195188 0.00758475
N 19.05086064 13.72281719 28.78421798 -0.00023581 0.00930369 0.00222039
N 17.93299383 21.95916711 26.04090077 -0.00093590 0.00048334 -0.00953818
N 0.99443701 4.71903994 24.79842808 -0.01083104 -0.00647083 0.01164112
N 15.29924300 0.61228469 23.43330417 -0.00329219 -0.00410495 -0.00860507
N 2.17741482 4.46520985 19.82971658 -0.00199737 -0.00347655 0.00531629
N 20.55711621 22.99926388 3.18501508 -0.00074126 -0.00272225 -0.00600296
N 20.68274197 16.48700536 13.00226069 -0.00108833 -0.00818378 0.01095682
N 10.66816310 22.84011728 0.04989743 0.00624626 -0.00785533 -0.00017899
N 2.21152020 22.82853315 14.53176420 0.00105369 0.00095308 -0.00372212
N 15.97652914 16.18685413 14.14779397 -0.00127198 0.00779863 -0.00264694
N 23.63406931 20.29827947 6.75989301 0.00224019 0.00361598 -0.00313206
N 23.98055974 24.21572817 10.04762981 -0.00046275 0.00100855 0.00571653
N 16.52030372 19.56392577 30.77539902 -0.00104024 -0.00252121 -0.00542352
N 11.77400042 24.48162051 17.19091327 -0.01070476 -0.00080936 0.00066302
N 16.71433786 0.00735818 29.63442106 0.00206533 -0.00477197 -0.00517901
N 14.81638157 8.08152239 26.41894855 0.00321475 0.00090903 -0.00128710
N 23.19780946 15.57989940 3.93228274 -0.00536880 0.00346454 0.00065705
N 17.84145513 9.84797684 20.10788223 -0.00398278 0.00908363 0.00297744
N 2.95875853 19.20630528 17.37034694 -0.00383560 -0.00352638 -0.00981067
N 23.25740290 21.29186677 23.39434536 -0.00490216 -0.00329253 -0.00159514
N 22.47643657 10.49457782 20.19774865 0.00876022 -0.00031431 0.00426212
C 6.52993254 23.59622725 12.39214800 -0.00059488 -0.00639491 0.00511433
C 4.35909050 2.02924018 9.31858276 0.00271082 0.00505038 0.00333143
C 2.90772199 14.69070552 29.64079365 0.00295357 -0.00172902 -0.00303390
C 1.97669185 11.66330480 21.08838946 0.00280257 0.00264759 -0.00090530
C 2.19660683 10.88141654 14.16365150 -0.00370893 0.00001340 -0.00335669
C 4.65029776 10.47612862 30.83964867 0.00036340 0.00306350 -0.00729677
C 13.19091282 17.54271943 13.93236492 0.00907293 0.00335617 -0.00884153
C 24.61557895 1.42866680 5.51677048 0.00224890 0.00526573 -0.01062180
C 5.98027844 22.95727777 13.53435163 0.00216913 -0.00238541 -0.01057418
C 4.67360193 0.89446985 10.01765627 -0.00537191 -0.00233594 0.00178728
C 4.19511199 15.19769726 29.64927984 -0.00143214 -0.00506745 0.00558153
C 1.16515466 12.72139199 20.66410914 -0.00224203 -0.00450121 0.00773473
C 1.50894759 10.14968778 13.21547733 -0.00777776 -0.00142124 0.00487783
C 4.60619330 10.20775140 1.05251695 -0.00120782 0.00081905 0.00396339
C 12.41466872 17.23202899 15.04907596 0.00142124 -0.01059950 -0.00116535
C 24.55643259 1.52216504 6.91181688 0.00143566 0.00111838 0.00085463
C 5.42588359 21.69706407 13.42420965 0.00151470 -0.00113217 0.00071203
C 3.84429324 25.92312431 10.24360752 0.00405007 -0.01093203 0.00066935
C 4.36701716 16.56726019 30.17225846 0.00944996 -0.00086333 0.00559750
C 0.31078417 12.68918545 19.58086916 -0.00569640 -0.00627434 -0.00004985
C 1.25245595 8.73718392 13.38758807 -0.00265327 0.00776299 0.00701988
C 3.35429854 9.87357552 1.65509392 -0.00615841 -0.00295903 -0.00799835
C 11.25992864 16.48456570 14.93370199 -0.00352828 -0.00184525 -0.00195358
C 24.85105318 2.77101045 7.38714497 0.00783768 -0.00103012 0.00412527
C 5.46533895 21.01286748 12.16804350 -0.00372788 0.00104143 0.00879426
C 2.67883227 25.89833561 9.49534142 0.00135529 0.01144702 -0.01495891
C 3.23831549 17.24612537 30.63989859 -0.01429320 0.00333316 0.00936146
C 0.15849931 11.46086107 18.87642324 -0.00676812 -0.00680789 -0.00112634
C 1.80221748 8.10389753 14.56157305 0.00640916 0.00399770 0.00595704
C 2.25368073 9.63523131 0.83571887 0.00182055 -0.00470194 0.00150686
C 11.04035329 15.76128515 13.74800087 0.00434053 0.00294369 -0.00128574
C 24.88400275 3.88530898 6.49670924 -0.00571615 0.00542921 0.00267054
C 6.10552312 21.62440170 11.08133432 -0.00386585 -0.01057280 0.00022282
C 2.30071120 0.85108480 8.71852212 0.00663885 0.00564111 0.00852789
C 1.95807939 16.62446754 30.76880211 -0.00983311 0.00058954 0.01270548
C 0.93591600 10.44591267 19.31647835 0.00390052 0.00696219 -0.00423987
C 2.49611416 8.86312095 15.45021191 -0.00100580 -0.00162190 -0.00003759
C 2.32983279 9.87924249 30.65780627 -0.01001480 -0.00814380 -0.00819718
C 11.70827708 16.23345587 12.61488552 0.00369835 -0.00675438 0.00123942
C 25.00432454 3.69204982 5.14190001 -0.00174987 -0.00148529 -0.00636171
C 6.43392885 22.99258726 11.17804884 0.00040291 0.00511386 -0.00022972
C 3.06250696 2.05529216 8.65480310 -0.00023808 0.00425084 -0.00152189
C 1.72884934 15.33953826 30.19467247 0.00370437 0.00041595 -0.00336168
C 1.89971024 10.50154067 20.30763396 0.00142102 -0.00133004 0.00197701
C 2.79040830 10.27481784 15.30815187 -0.00194218 0.00331194 0.00595433
C 3.56899257 10.20633738 30.02485511 0.00436512 -0.00004071 -0.00270698
C 12.73656453 17.25060568 12.62181267 -0.00135868 -0.00355204 -0.00304762
C 25.01566490 2.40260414 4.58275291 0.00285140 -0.01116617 -0.00549504
C 7.65909542 24.71557059 10.03577718 -0.00542521 -0.00760203 -0.00842961
C 3.53402285 4.17707595 7.21584713 0.00434443 0.00278832 0.00813266
C 0.17896952 13.53935889 29.53613391 0.00335101 0.01646266 0.00167736
C 3.69182227 9.29482372 21.55181683 -0.00424249 -0.00481932 0.00077642
C 3.96782949 12.23958939 16.10418750 -0.01060843 0.00181323 0.00289563
C 4.72991926 11.01719760 28.06366789 0.00472790 -0.00043602 0.00313812
C 12.85304981 17.59082804 10.23629445 -0.00485057 0.00001807 -0.00456040
C 25.55612980 2.92412749 2.32874758 -0.00665020 -0.00209521 -0.01254282
C 2.95360199 17.52661786 27.32376211 -0.00721621 -0.00520382 0.00054313
C 4.58445598 3.52676669 6.34292682 -0.00038688 -0.00750383 -0.00792254
C 2.33557321 22.16248079 9.99867712 -0.00345446 0.00381234 -0.00805615
C 10.22056441 7.11146961 27.19891628 0.00252118 0.00218440 -0.00644943
C 7.54996302 3.23249400 2.41289903 0.00149448 0.00627690 0.00403620
C 4.51774826 11.79250094 26.71630967 0.00359834 -0.00568432 -0.00045527
C 2.69571339 16.08779466 5.51000944 0.00580315 0.00491405 0.00803458
C 5.63830983 5.03337689 12.77513930 -0.00288337 0.00928901 -0.00116812
C 8.62456970 0.48421916 15.20001436 0.00580491 0.00149653 0.00380231
C 1.49611789 9.13414893 25.61993525 0.00842167 -0.00754835 0.00608166
C 1.96855185 14.47252246 24.03504653 0.00121965 -0.00155728 -0.00435097
C 11.60371210 6.60353571 22.70224899 0.00738599 -0.00858368 0.00926781
C 20.67987062 11.48866947 1.27804695 -0.00114585 -0.01058548 -0.00332140
C 6.49706212 8.98115130 13.62471954 -0.00692961 0.00006609 0.00136680
C 12.50020300 20.45743629 24.07170644 -0.00266533 -0.00281451 -0.00542700
C 5.21090038 4.92303507 15.74598528 0.00656174 -0.00113737 -0.00453393
C 8.73782643 0.31758790 13.81634242 0.00362648 0.00484211 0.00085081
C 2.75179388 8.49437158 25.84524919 0.00198330 -0.00045179 0.00288273
C 3.32398561 14.49326232 24.19894019 0.00020197 -0.01035950 0.00974642
C 12.21828767 5.96360999 21.54061411 0.01022537 -0.00379824 -0.00939491
C 21.49212461 11.71962512 0.15692741 -0.00893081 -0.00635167 0.00453504
C 6.73310485 9.08527803 12.26957445 0.00669043 -0.00278926 -0.00551502
C 13.71471709 20.56191540 23.43797126 -0.00862288 -0.00512821 -0.00867867
C 4.70075364 5.26966443 17.00433757 -0.00141057 -0.00417094 0.00336398
C 9.82103292 1.00058115 13.15862747 -0.00195454 0.00540130 0.00160460
C 3.06687794 7.86934057 27.05650951 0.00651089 0.00312238 0.00127558
C 4.08217024 15.53167532 23.75366837 0.00440086 -0.00472890 -0.00807899
C 12.43890456 4.56066292 21.48280201 0.00335646 0.00172180 -0.00245625
C 21.97000224 12.94111001 30.93969941 -0.00438624 0.00005965 -0.00188382
C 7.95509865 9.28888582 11.65069438 -0.00581559 0.00540149 0.00474203
C 14.49542426 21.66748513 23.72540973 0.00138160 0.00123685 -0.00388121
C 5.44920196 5.29308285 18.14983959 -0.00043147 0.00089160 -0.00293244
C 10.62765594 1.87216563 13.89024199 0.00978827 -0.00282557 -0.00580127
C 1.93254916 7.67833679 27.95270850 0.00077476 0.00480374 -0.00338907
C 3.43938297 16.74660838 23.34122734 0.00211199 0.00233299 0.00434506
C 12.22443018 3.90995272 22.82475870 0.00739697 -0.00205589 -0.00534102
C 21.69957155 14.01563394 0.64497755 -0.00496167 -0.00136596 0.00061648
C 8.99693283 9.48944222 12.56410631 -0.00073959 0.00051946 -0.00221247
C 14.02932970 22.57441749 24.65786816 -0.00505549 0.00553695 0.00264985
C 6.72095349 4.72137527 18.06579696 0.00089416 0.00229453 0.00239231
C 10.48248679 2.10144891 15.21512725 -0.00457906 -0.00879519 -0.00569306
C 0.64243093 8.28704582 27.70441074 -0.01268609 0.00548606 0.00093992
C 2.06774506 16.75311756 23.26543261 0.00240754 -0.00761804 0.00259485
C 11.81919246 4.58225278 23.94520474 0.00461129 0.00275419 0.00811912
C 20.98481879 13.77536792 1.75427890 0.00474836 -0.00860346 0.00293257
C 8.84780006 9.52170620 13.93140726 -0.00149471 0.00343933 0.00355428
C 12.72882970 22.53589230 25.14248403 -0.00113245 -0.00273149 -0.00256916
C 7.32392110 4.30408371 16.92243186 -0.00824319 -0.00401538 0.00357232
C 9.49884376 1.33370771 15.90977004 0.00265326 -0.00062682 -0.00613812
C 0.43974869 9.06170960 26.51787239 -0.00233374 0.00623495 0.00240772
C 1.29504994 15.61402842 23.58855769 -0.00031682 0.00439701 0.00113727
C 11.46012169 5.96245080 23.94643031 -0.00135188 -0.00801440 0.00547594
C 20.35331400 12.55746311 2.03131014 0.00088082 -0.00265244 -0.00679911
C 7.58994946 9.07519241 14.50339465 0.00852984 -0.00117761 0.00001066
C 11.91273355 21.43485944 24.92042796 0.00631080 -0.00533727 0.00236026
C 6.47959719 4.41698877 15.71195669 0.00212984 -0.00206273 -0.00372998
C 10.00620210 2.13162246 18.18135478 -0.00014960 0.00343811 0.00525750
C 24.10084530 10.29254910 27.02646870 -0.00282226 0.00737348 0.00038227
C 24.79720335 16.59240808 23.86320728 -0.00145685 0.00190519 -0.00749525
C 11.05600870 6.26907585 26.28336876 -0.00875434 -0.00765083 -0.00524448
C 19.65525850 11.41156733 4.07979494 0.00172804 -0.00111325 -0.00195102
C 8.11379588 9.54626647 16.86363762 -0.00278523 0.00056867 -0.00303139
C 10.16417312 22.29151374 26.27066477 0.00245126 0.00162578 -0.00500904
C 6.71255430 4.12686913 13.26694551 -0.00130661 -0.00269796 -0.00569669
C 13.37560100 21.72718975 14.48597159 0.00472355 0.00374019 0.00303397
C 23.91835005 9.98545379 28.53019908 -0.00479761 -0.00069681 -0.00552385
C 20.12269709 5.87419792 22.06780863 -0.00573757 0.01044664 0.00296383
C 4.70518222 8.27080245 21.44964742 0.00018970 0.00268820 -0.00041629
C 3.74867724 1.27552522 13.61227059 -0.00379923 0.00009324 0.00690858