1920
Time=59000.00000005 pbc="T T T" Lattice="25.71945465 0.00000000 0.00000000 0.00000000 25.56889632 0.00000000 0.00000000 0.00000000 31.79215993" energy=-12206.92120200 virial="-58.26341629 8.46524651 -4.24241151 8.46524651 -46.50317911 9.36140040 -4.24241151 9.36140040 -0.74487067" stress="0.00044067 0.00043349 -0.00012200 0.00043349 0.00099446 0.00039689 -0.00012200 0.00039689 0.00308495" Properties=species:S:1:pos:R:3:vel:R:3
O 4.98573174 20.54128804 14.69603505 0.00387220 -0.00527419 -0.00307671
O 3.48949036 23.74014745 11.00005827 0.00139814 0.00694717 0.00408267
O 5.49447067 17.08219780 31.13210865 -0.00208302 0.00250031 -0.00009513
O 25.50237763 12.33451725 18.66269478 -0.00374908 -0.00411589 0.00377827
O 0.93545877 7.11309533 13.36709643 0.00677514 0.00287443 -0.00089221
O 3.12525180 8.88034057 2.90243634 -0.00557802 -0.00156069 -0.00249254
O 10.59079221 16.42548940 16.52043669 -0.00096292 0.00279219 -0.00035882
O 23.92629730 3.83034286 9.36295497 0.00344021 -0.00324609 0.00443504
O 9.72279364 1.00669721 19.71365534 0.00457173 0.00232944 -0.00668289
O 1.22022686 3.79205137 10.07645785 -0.00545187 -0.00076963 0.00173569
O 24.62501688 12.89332320 30.46573105 0.00142954 -0.00527863 -0.00688147
O 10.94483927 5.62526761 27.24234816 -0.00115278 0.01012142 -0.00613578
O 19.72771943 10.91922166 4.09594132 0.00130765 0.00206368 -0.00327684
O 5.70896383 12.08781455 29.91694295 0.00417004 -0.00328409 -0.00003046
O 11.89091778 16.90916968 10.15772630 -0.00051233 -0.00107174 -0.00741110
O 5.96598055 4.15423421 12.41959997 -0.00782527 0.00225591 0.00602679
O 9.50932421 1.49399723 12.15298570 0.00023064 -0.01052858 -0.00669779
O 4.85087814 6.46003544 27.20659582 0.00016670 0.00122121 -0.00677534
O 4.38051444 14.45708721 23.43128167 0.00080450 0.00230886 0.00345462
O 12.72174664 4.44224314 21.09250645 -0.00094402 0.00133271 -0.00102607
O 22.12004033 13.53321668 30.39541466 0.00252594 -0.00054722 0.00202155
O 7.95959413 10.08016309 10.54376503 -0.00422544 0.00081242 0.00501129
O 14.20106622 21.43057048 23.24884196 0.00544578 -0.00491137 0.00080433
O 6.29799280 5.41900963 19.91864766 -0.00444849 -0.00760518 0.00415602
O 7.99942351 24.90678240 11.40488546 0.00369408 0.00706423 0.00022840
O 24.82438667 7.90429193 29.19141185 0.00100794 -0.00321063 0.00294052
O 22.46975088 16.02516797 24.60646787 0.00396978 0.00797637 0.00599723
O 4.06816600 10.19004909 22.96184848 -0.00444463 0.00630834 0.00437616
O 4.23560732 12.09537346 15.57561264 0.00086638 -0.00450433 0.00299285
O 8.68872860 10.26343293 17.05022597 -0.00827044 -0.00446136 0.00088188
O 10.14645887 21.67102249 27.92317151 0.00127244 0.00196045 0.00039632
O 0.13467962 4.03287505 3.46035440 0.00370495 -0.00401198 -0.00335413
O 18.52800550 17.99191019 8.91594372 0.00186336 -0.00268181 -0.00232594
O 5.11668917 18.13884653 8.68227815 0.00000570 0.00110313 0.00134309
O 6.76188246 23.19822509 2.76271408 0.00454813 0.00322913 0.00333988
O 5.55599006 18.27042487 15.81068629 -0.00958173 -0.00422027 -0.00201401
O 6.26437199 0.09576203 21.03608520 -0.00157779 -0.00038355 0.00668865
O 5.84455629 2.03666977 3.67125622 0.00075325 0.00571375 0.00157964
O 8.45296523 18.24242871 5.32612816 0.00231501 -0.00417026 -0.00017671
O 23.28584322 25.44518617 25.40308162 -0.00149881 0.00291330 -0.00171064
O 2.18407221 15.01832926 27.55638337 -0.00656764 0.00088001 0.00174513
O 0.63123667 14.16254617 9.76555594 0.00495263 0.00362913 0.00221976
O 3.74728385 20.10497404 7.40866299 0.00174032 0.00468189 -0.00765344
O 24.89303098 24.30324741 28.67212772 -0.00075072 -0.00638447 0.00652917
O 6.98368013 2.69613674 1.30087180 -0.00260679 -0.00255631 0.00383235
O 0.71942778 24.61557853 5.32280213 -0.00141543 0.00043767 0.00199146
O 1.95471701 15.38829082 2.77642749 -0.00567752 -0.00517672 -0.00074112
O 23.44638859 18.72518917 19.42773663 -0.00892054 0.00296552 -0.00437045
O 21.82551946 15.87158404 29.36777733 0.00366930 -0.00301515 0.00025260
O 25.13319681 18.76770399 2.09201309 0.00122863 0.00176204 -0.00041182
O 20.23675643 1.24503995 28.57941951 -0.00484083 -0.00442113 -0.00217184
O 6.51779338 23.12060330 30.24623061 -0.00372902 0.00477033 -0.00004949
O 6.94591647 4.47243054 26.84952512 0.00398498 0.00036103 0.00520356
O 25.59787987 23.41094550 22.40408642 -0.00406474 0.01094802 -0.00067746
O 6.02414871 11.20744374 23.85659261 0.00108909 -0.00587717 0.00226626
O 17.62713178 19.55066245 21.66746420 -0.00115852 0.00612464 0.00154226
O 15.27199088 20.22090861 13.84047566 -0.00435535 0.00054776 -0.00386196
O 6.35335607 21.56940271 0.95276617 -0.00592097 0.00292123 -0.00099112
O 18.08572855 3.81620281 23.01195376 -0.00454424 0.00506225 -0.00503917
O 4.82047916 16.60541624 21.81521133 0.00419876 -0.00667558 0.00734773
O 3.78256920 3.06312599 15.81245805 -0.00026917 -0.00231977 0.00037328
O 6.30689431 23.30263861 21.31999562 0.00600580 -0.00300079 0.01029121
O 8.55403837 17.80977136 20.61112582 0.00630063 -0.00552383 0.00110607
O 5.10936640 1.37018096 27.08851505 0.00517303 -0.00588510 -0.00481226
O 2.53071964 4.39719722 4.02118348 0.00353145 -0.00518742 0.00039429
O 6.53214890 4.48439678 9.89291642 -0.00135842 -0.00081055 -0.00232145
O 16.30148722 11.86826628 27.30514564 0.00075139 -0.00217980 -0.00713137
O 12.11085259 8.94906842 13.56301463 0.00163980 -0.00312586 0.00169495
O 9.56247133 5.96099320 8.54484376 0.00002616 0.00253551 -0.00171391
O 15.77506171 9.90394032 7.16656725 -0.00284201 -0.00099065 0.00302936
O 19.20898005 2.52356275 8.30098972 0.00653719 -0.00068728 0.00066275
O 20.91498749 11.50485424 14.60159813 -0.00385894 -0.00345571 0.00116479
O 24.00645474 24.58230634 15.96654211 0.00097892 0.00251551 -0.00723585
O 12.77273989 1.29414031 6.68432694 0.00004548 0.00172996 -0.00521913
O 19.41675973 8.65560025 31.47738024 -0.00358370 0.01052589 0.00181707
O 1.02651120 7.15566973 3.07774994 0.00130746 0.00624608 -0.00834669
O 8.09677460 16.34732877 30.34589469 0.01073333 0.00163445 0.01012717
O 21.29705875 8.78808589 9.81159449 0.00663055 0.00406811 0.00358945
O 15.19855924 7.36357973 6.61973504 0.00454809 -0.01006350 0.00206516
O 18.36770102 8.10390923 26.02400520 0.00294422 0.00165179 -0.00596693
O 23.00217008 3.69645307 21.91146419 0.00108497 0.00197229 -0.00338122
O 8.57970721 11.00641140 25.44465203 -0.00425253 -0.00068964 0.00450930
O 9.68167501 12.35039403 16.33244978 0.00163474 0.00093585 -0.00220055
O 21.82095329 7.50986979 31.11903749 0.00163710 -0.00105274 0.00128205
O 9.42072759 10.77788734 1.42169651 -0.00788337 0.00497679 0.00182063
O 20.35354414 4.80515306 14.04275719 -0.00068403 -0.00424508 0.00245422
O 12.84846054 6.10951488 19.14708114 0.00450495 -0.00037653 -0.00839784
O 18.57239950 4.57029072 31.11445637 0.00560878 -0.00004026 0.00493766
O 4.99232610 6.38670941 30.36324207 -0.00087493 -0.00229587 -0.00106384
O 8.00337231 6.35196981 21.53091165 0.00288259 -0.00143354 -0.00375895
O 10.64105620 13.49903016 22.39427142 -0.00292578 -0.00382314 -0.00291584
O 18.01727980 10.22130884 15.81826231 -0.00080299 -0.00412195 -0.00099737
O 8.66627994 10.41180030 3.86131041 -0.00279059 -0.00415936 0.00074240
O 15.11484023 5.73430375 18.14161032 0.00026950 -0.00729174 0.00101814
O 11.58787849 6.50389587 13.05032066 -0.00547723 -0.00804402 0.00838351
O 15.60648614 11.97998881 10.90136693 0.00016244 -0.00148796 -0.00182388
O 11.91326077 7.01136677 30.81478050 0.00356623 -0.00332512 0.00062973
O 6.44605390 14.39768315 5.88907046 -0.00716873 -0.00090248 0.00086181
O 11.89536328 2.78572296 3.48748553 0.00258123 -0.00143098 0.00466930
O 25.41399909 16.84063856 13.53970886 0.00097805 -0.00484485 -0.00082405
O 11.71586402 23.24356521 10.16488609 0.00066159 -0.00554159 -0.00239068
O 16.05563911 24.10818858 16.65458706 0.00811578 0.00479845 0.00413974
O 9.08412308 12.51231904 11.35900818 -0.00207425 0.00050116 -0.00031576
O 9.62415281 17.14375542 9.11508548 -0.00341494 0.00672429 0.00499740
O 11.54892321 9.05222404 19.32314629 0.00585799 -0.00258214 0.00136577
O 6.64003194 8.83541929 8.83750234 -0.00276664 -0.00294329 0.00157625
O 11.92730895 5.26323307 9.34193363 0.00382832 0.00803786 0.00162927
O 13.24256393 0.62315461 2.35202815 0.01002794 -0.00074852 0.00369264
O 8.83111377 1.09124657 28.44491345 -0.00295995 -0.00438477 -0.01378242
O 18.15862020 2.68847746 10.64392434 0.00269195 0.00127852 0.00604070
O 14.40809191 13.65747255 8.17760177 0.00338604 0.00056491 -0.00495324
O 9.89508402 19.92447434 19.81007353 -0.00290887 -0.00915264 -0.00624503
O 14.55457074 13.03704641 23.53577461 -0.00091094 0.00719269 -0.00301244
O 10.61300275 12.50513586 24.84587765 -0.00280857 -0.01119081 0.00196967
O 16.95288913 23.86786477 4.50792553 0.00222095 0.00218891 0.00038361
O 8.06404185 25.27867451 30.40399740 0.00135532 -0.00972597 0.00086082
O 10.99382135 0.85183903 21.76651104 0.00074149 0.01085740 -0.00114934
O 17.17871078 16.57614070 19.87156890 0.00367263 -0.00236451 -0.00450856
O 7.72291711 16.60817437 15.91835353 0.00420896 0.00070120 -0.00479542
O 17.49737030 20.99128058 17.95992590 0.00121813 -0.00391776 -0.00598431
O 14.02206284 10.86560928 3.65611144 -0.00045850 -0.00487617 -0.00353913
O 12.11869341 11.09101802 30.87703816 -0.01204076 -0.00386216 -0.00929762
O 14.17971801 23.53840265 9.98553679 -0.00006441 -0.00407299 0.00062831
O 23.68826119 14.22893693 18.91229335 -0.00129970 -0.00136092 -0.00138571
O 9.49591904 22.01048346 15.95058189 -0.00699263 -0.00313299 0.00819255
O 13.90855346 16.88350064 25.16746315 0.00191979 -0.00062959 0.00282433
O 6.74677499 12.78377108 10.61901584 -0.00454506 -0.00440436 -0.00177839
O 10.42133605 23.62825004 5.31919567 -0.00005286 0.00032675 -0.00398188
O 20.07003869 21.60046364 29.62478959 0.00506557 0.00277082 0.00224843
O 23.20576046 5.37511657 17.71096186 0.00451690 0.00353714 -0.00061615
O 10.73730545 18.77401795 4.38351205 -0.00569083 0.00570200 -0.00267176
O 19.74425978 8.61757983 5.03967828 0.00225588 -0.00464781 0.00575170
O 16.42305104 14.72794459 9.23847024 -0.00387880 -0.00397997 -0.00378223
O 24.42386297 11.39328762 0.80140474 -0.00225722 -0.00218282 0.00039908
O 20.81879249 1.01437680 6.97283003 -0.00126921 0.00308833 0.00217565
O 20.69830232 4.17450035 3.30079429 0.00177070 -0.00102649 -0.00470337
O 13.67897303 24.94450332 17.48274063 -0.00020320 -0.00176485 0.00135507
O 24.31601030 11.61630588 13.44737611 0.00226229 -0.00906535 -0.00320117
O 13.30896796 22.53783931 31.59415410 -0.00745590 0.00180731 -0.00053366
O 17.00080250 15.20100827 29.82653346 -0.00904541 -0.00247545 -0.00236076
O 15.11976198 9.18456548 21.32434049 0.00731406 -0.00236400 0.00000588
O 0.20867133 9.98600153 6.81871719 0.01023241 -0.00202845 0.00025748
O 0.01723019 21.30368970 9.56890230 0.00319056 -0.00121334 0.00108261
O 25.68444245 4.56960973 18.32874228 -0.00074952 -0.00454421 -0.00327361
O 10.66326157 21.77320659 22.30608643 0.00714296 0.00415840 -0.00632870
O 13.20049253 19.03371840 26.74496592 0.00400442 0.00204426 0.00794351
O 15.86792317 3.63064033 24.18384240 0.00240295 0.00020010 0.00066451
O 21.63163451 13.86776434 25.86731121 -0.00773883 0.00003893 -0.00274805
O 18.27009126 12.66166796 25.45013272 -0.00459839 -0.00065867 0.00202058
O 5.22064105 1.97063340 22.73921295 -0.00392380 -0.00537552 -0.00817516
O 22.02740645 19.83723907 29.16373607 -0.00458060 0.00249768 -0.00541624
O 24.81021398 7.82711917 23.62148341 -0.00402503 -0.00258989 0.00006493
O 19.39021130 24.49308191 3.52355275 0.01654233 -0.00080118 -0.00011021
O 8.90771870 18.38658109 1.02155559 0.00522629 0.00333919 -0.00365522
O 12.93032573 8.19225308 28.96878652 0.00418757 0.00109857 0.00556330
O 23.48704871 6.55200330 9.71871726 -0.00261626 -0.00181476 -0.00007626
O 14.90337537 14.32558985 15.40989130 -0.00459575 -0.00375406 -0.00115005
O 24.93257386 3.55013909 24.11435406 -0.00490950 0.00095784 -0.00188095
O 23.99465076 22.74742476 24.14634886 0.00147952 -0.00213687 -0.00304466
O 22.79315153 0.99641578 29.60387291 -0.00163578 -0.00128837 0.00438827
O 1.09840182 18.35417182 11.58709213 0.00748550 -0.00548415 -0.00225819
O 17.88065770 18.23028831 18.04082838 -0.00752563 0.00169362 0.00074118
O 12.51966212 25.41781918 27.89905814 0.00347170 0.00684765 0.00744649
O 24.63265166 21.15183716 19.53228483 0.00350273 0.00011183 0.00271454
O 24.09243261 22.38538942 14.55880321 0.00626804 0.01033500 0.00060597
O 19.01929940 18.90091793 6.61040259 -0.00091347 0.00635459 -0.00369186
O 10.60014871 15.85459033 30.82255943 0.00119151 0.00248665 -0.00560074
O 17.50492302 20.53018790 5.02069267 -0.00267183 0.00385757 -0.00377241
O 25.42450350 5.01742027 14.24235754 0.00149892 0.00128952 -0.00012526
O 21.12438638 14.12249153 14.42258609 -0.00198924 -0.00190714 -0.00890664
O 15.97558518 4.05717405 31.42657489 -0.00447384 0.00150042 -0.00097880
O 25.27823259 14.58166018 2.87466678 -0.00117619 -0.00640119 0.00323510
O 16.70306394 20.43458426 23.91995582 -0.00165396 0.00299519 -0.00123337
O 25.16303598 18.83877518 4.74404147 -0.00042588 0.00023816 -0.00037627
O 12.90558917 17.60386624 4.57102543 -0.00649138 0.00184367 0.00017183
O 22.93083754 9.03278168 22.49890999 -0.00012779 -0.00008643 -0.00413110
O 20.49670753 6.25107275 10.22276047 0.00680300 0.00170178 0.00008605
O 17.02614619 2.34262512 3.17911252 0.00224097 -0.00139023 -0.00721207
O 21.72211526 21.43067310 16.47061879 -0.00344062 0.00146595 0.00151351
O 24.34085616 13.04571785 8.84609113 -0.00002315 -0.00062837 -0.00064540
O 21.00393798 24.86295873 22.94099452 0.00127600 0.00463471 -0.00070354
O 2.59887816 14.13306100 14.44048109 -0.00604033 -0.00003634 0.00338410
O 16.73545616 23.94192667 19.09119329 -0.00299621 0.00114021 -0.00618471
O 19.08284380 8.37859426 17.47749187 -0.00190584 -0.00256320 0.00195312
O 20.55018744 17.09753965 10.19986364 0.00895940 0.00536812 -0.00034872
O 14.46345038 24.49724803 30.43707321 0.00181372 -0.00318322 0.00734542
O 20.49986074 0.51409592 20.79544361 -0.00098262 -0.00031050 0.00396844
O 3.16156902 23.85156072 13.90814319 -0.00496405 0.00233660 -0.00508627
O 19.59523699 24.64148251 10.75413484 0.00367809 0.00471117 -0.00191913
O 2.12199354 17.01103644 20.05771070 0.00196305 -0.00217872 0.00010340
O 14.43636251 25.23424109 26.02244645 -0.00238748 -0.00009089 0.00512562
O 16.31885155 17.48463770 30.31341047 -0.00118026 -0.00108904 -0.00941240
N 14.88684989 21.12644261 11.81250151 0.00624733 0.00393026 -0.00856788
N 3.05167283 3.22551123 8.77675641 -0.00167598 -0.00277194 0.00107190
N 4.82150570 22.09851522 7.81828304 -0.00502477 -0.00331666 -0.00612261
N 3.38156741 8.97608071 21.16816706 -0.00210992 0.00543292 -0.00425222
N 3.92178135 0.73573760 15.95837225 0.00226857 0.00289566 -0.00144470
N 4.23050907 10.39365811 29.53426793 0.00130030 -0.01078345 0.00639106
N 4.20860089 15.38545811 3.21739149 -0.00382144 -0.00783083 0.00838714
N 25.22149070 1.99356995 4.27323211 0.00173325 0.00152376 -0.00552901
N 1.31876615 17.07950449 27.93548109 -0.00338002 -0.00446926 -0.00439579
N 25.48531171 8.80869543 27.18093782 0.00204632 -0.01299060 -0.00235452
N 20.30417931 3.49401890 23.56154992 0.00188472 0.00837237 -0.00580882
N 10.80022790 7.17732885 25.61526829 -0.00582945 0.00266147 0.00241213
N 8.86214999 3.20850341 0.18084243 -0.00594081 -0.00395872 0.00195803
N 6.85502922 9.07282245 16.06087201 0.00150200 -0.00021250 -0.00461541
N 7.88091826 16.11587804 21.88536812 0.00199907 0.00046759 0.00182245
N 6.34731411 4.47595793 14.54855114 -0.00334303 -0.00395034 -0.00033571
N 7.81378908 22.82091799 10.56475255 0.00282476 0.00909311 -0.00170879
N 2.23543518 14.19615248 11.45790166 0.00577045 0.00266008 -0.00046063
N 0.52646535 14.47880952 30.75082589 0.00705515 0.00044825 0.00825478
N 5.48372294 18.77278511 21.40726289 -0.00158290 0.00359575 -0.00107754
N 3.20875762 10.64669618 17.05695607 0.00571357 -0.00087629 -0.00561166
N 1.79604210 23.83253868 3.49060483 0.00059447 0.00267353 -0.00401890
N 13.43573767 17.50372972 11.77263627 -0.01050849 0.00044984 0.00237745
N 2.77789857 1.03854913 27.32178709 0.01154842 0.00424986 0.00744882
N 9.08446838 1.83456569 17.69081714 0.00161917 -0.00413118 -0.00848488
N 4.19381022 21.33274051 0.60426557 -0.00598169 0.00214898 -0.00831276
N 24.53425946 15.13090307 24.21937277 -0.00168803 -0.00061862 0.00242099
N 1.22778382 23.56602974 28.56720680 0.00317305 -0.00145842 0.00809979
N 18.95339955 12.74305359 3.01735668 0.00003593 0.00049435 0.00047972
N 5.28920278 22.35692406 23.12363106 -0.00379908 -0.00515875 0.00303921
N 9.64007090 20.25100599 26.22231450 -0.00113775 0.00159704 -0.01097198
N 22.93106538 17.87251409 21.45011785 -0.00328551 0.00797889 0.00675583
N 12.18277993 9.55225621 3.91273116 0.00911472 0.00095673 0.00580809
N 11.21339816 2.27295913 7.90648399 0.00053169 0.00000218 0.00225351
N 13.83776136 4.65854696 8.31518346 -0.00030728 -0.00126868 0.00146252
N 16.33600335 11.81296802 15.45445124 0.00352597 -0.00640163 -0.00520019
N 9.05676172 20.59127152 14.26829524 -0.00192389 -0.00611969 -0.00503513
N 20.28493189 10.88870614 10.06179540 0.00048698 -0.00470089 -0.00058520
N 12.42348122 14.20396188 7.21301519 -0.00490507 0.00672862 -0.00335609
N 16.89212780 10.05114821 10.98182358 0.00063262 -0.01429244 -0.00023420
N 12.62149534 10.99347638 18.67727305 0.00967662 -0.00467182 0.00011286
N 7.94342241 5.79371449 23.78484447 0.00089506 0.00212738 0.00137227
N 14.72869955 0.06733988 9.26252096 -0.00176112 0.00395106 0.00616266
N 24.67154541 7.33606971 4.03874688 0.00109442 0.00346206 -0.00671727
N 8.24890935 1.14172199 26.31539751 0.00319280 0.00591379 -0.00345230
N 17.11139154 4.87148733 18.68597926 0.00584126 0.00178128 -0.00171801
N 6.27629966 12.34885269 12.83112961 -0.00056999 0.00358051 0.00666722
N 20.15873481 6.82470924 26.30238973 0.00074389 0.00141474 -0.00090653
N 6.39834026 5.99066682 0.28351877 0.00095089 -0.00553919 -0.00194093
N 5.42426293 8.99196165 7.00755338 0.00657518 0.01115089 0.00149719
N 17.27282562 9.15981850 0.24562140 -0.00195794 -0.00229689 -0.00104684
N 22.50942584 16.03439413 18.20244001 0.00495871 -0.00005549 0.00134761
N 8.79583210 10.97269021 6.07833948 -0.00563663 -0.00199915 0.00272192
N 17.71023614 1.11811582 12.06084023 -0.00515162 -0.00743767 0.00515357
N 16.66088029 6.35669309 5.12193746 -0.00237047 -0.00374559 -0.00656315
N 9.45732020 21.87627618 6.28943876 0.00304233 0.00309288 0.00521811
N 23.80467557 25.14663760 18.14117161 0.00083454 0.00920788 0.00188012
N 11.65660063 13.24836970 30.28735257 -0.00243061 -0.00272667 0.00515452
N 12.13390622 14.22568844 20.83258529 0.00628362 0.00156440 -0.00607204
N 11.63824157 24.64899425 2.71674135 0.00978781 0.00206888 0.00989169
N 8.20633727 14.30428784 29.28459564 -0.00595210 -0.00622775 0.00085445
N 15.98412246 15.83958724 25.13499065 -0.00420608 -0.00039233 -0.00271696
N 9.91636800 6.16498177 14.54724753 -0.00662898 -0.00633861 -0.00063153
N 11.81652268 20.58040263 18.84067877 0.00095284 -0.00648321 -0.00320180
N 22.25905017 17.24643270 8.60076083 0.00392831 -0.00018047 0.00307500
N 23.55306882 9.87219994 14.56087088 -0.00120105 0.00170598 -0.00460282
N 13.70072445 4.07885729 31.16411839 0.00020293 0.00168035 0.00398964
N 24.09762259 8.35564758 8.46117721 -0.00534234 0.00312768 -0.00353254
N 19.96225543 22.41801410 10.84810375 0.00282832 -0.00236369 0.00066376
N 1.40134545 11.49275914 5.62229040 0.00015301 0.00183489 0.00124695
N 14.35708625 16.90013271 2.97707859 -0.00059434 0.00568549 0.00340704
N 22.41374233 0.03504409 31.73665046 -0.00504754 0.00237470 -0.00043772
N 23.91086348 3.39917684 13.56099307 -0.00335952 0.01234863 0.00326641
N 10.76202290 18.88805294 31.62481052 -0.00653797 -0.00590146 -0.00373968
N 19.06267326 25.33172054 19.28173970 0.00008989 -0.00662271 -0.00260076
N 18.36427408 13.33472825 30.16217147 0.00218212 -0.00016925 -0.00850229
N 18.11890527 20.93825606 25.64252302 0.00253160 0.00047999 -0.00002763
N 0.90257952 3.86311183 25.68400320 0.00020834 -0.00699698 -0.00312740
N 15.11581788 0.06242008 23.94707874 -0.00240442 -0.00173523 -0.00752826
N 1.31485337 4.14178494 20.17982742 0.00729860 -0.00457867 0.00036802
N 20.74995512 22.72732414 3.18613375 -0.00779235 0.00107065 0.00107502
N 21.46011320 16.32162722 14.06318451 0.00465033 -0.00236758 -0.00103832
N 10.99171552 22.57447072 0.28089140 -0.00478075 -0.00764046 -0.00337453
N 2.28202853 22.40997527 15.35349706 0.00383288 -0.00218493 -0.00076939
N 16.20286768 15.95521481 14.53134765 -0.00317177 0.00135967 -0.00270796
N 24.54464711 19.85170392 6.72777492 0.00554218 0.00307763 -0.00278168
N 24.41675842 23.18693370 9.63954302 -0.00088705 0.00061075 0.00690316
N 16.75366304 19.34800897 31.43943699 -0.00982487 0.00978086 0.00207525
N 11.44304206 24.31143977 17.37148740 -0.00182523 -0.00566826 -0.00573687
N 16.51246490 25.34203893 30.07225256 -0.00180368 0.00373701 0.00001687
N 14.51119267 7.90073942 27.40393699 -0.00847538 -0.00039843 -0.00040522
N 23.16236028 14.74163400 3.78612575 -0.00672102 -0.00285789 0.00183063
N 17.43828421 9.57080566 20.90090556 0.00173763 -0.00217736 0.00548022
N 2.56120594 18.26849358 18.23616204 0.00478053 -0.00908168 0.00339667
N 22.31112825 21.24051300 23.95319026 0.00461894 -0.00835911 0.00075173
N 23.33406266 10.36582048 20.67895439 0.00232731 -0.00268395 -0.00528386
C 6.91637745 22.98387905 12.87210376 -0.00140248 0.00135831 0.00823704
C 4.43561969 1.27377580 9.31478099 0.00012239 0.00131730 -0.00388139
C 2.95921779 14.29577626 30.88294386 0.00152846 0.00525475 0.00663758
C 2.25446302 11.12414018 21.17178462 0.00136663 0.00067005 -0.00415515
C 2.62864175 10.08712644 14.78892932 0.00089529 -0.00426634 -0.01057541
C 4.85897478 10.25883060 0.08593449 0.00465076 -0.01055196 0.00147747
C 12.98862563 17.93423189 14.08203255 0.00584441 0.00135466 0.00078001
C 25.10973884 1.57701282 6.65780736 0.00259653 -0.00479416 0.00419755
C 6.23646482 22.40729950 13.93053908 -0.00084486 0.00996484 -0.00065258
C 4.56586824 0.10274408 9.94513980 -0.00041771 -0.00442499 0.00396801
C 4.12216035 15.04272783 30.90440030 -0.00478809 -0.00802340 0.00306693
C 1.32180605 11.94310749 20.50022008 0.00176861 -0.00140606 0.00418823
C 2.01366610 9.17292510 13.94427091 -0.00153916 0.00747436 -0.00233484
C 4.60534085 9.79467580 1.30772208 -0.00805026 0.00026666 -0.00439662
C 12.32612755 17.62617909 15.29215621 -0.00789655 0.00643628 -0.00851872
C 24.70192004 1.98772738 7.95741773 0.00342354 -0.00267025 0.00339037
C 5.79364313 21.02333407 13.86086943 0.01095165 0.00329321 -0.00183071
C 3.46335174 24.97451584 10.48082640 -0.00119652 -0.00446453 -0.00564554
C 4.25158304 16.40292822 31.17604563 -0.00095639 -0.00401483 0.00596605
C 0.50199254 11.47056028 19.54705299 -0.00374444 0.00453327 0.00159185
C 1.40801776 7.98656024 14.32552395 0.00511624 0.00399642 -0.00519959
C 3.29789002 9.22807234 1.62642457 0.00074086 0.00316350 0.00131400
C 11.28502626 16.74513581 15.31774848 -0.00137695 -0.00935275 -0.00547782
C 23.99323376 3.20648824 8.13688029 0.00355828 0.00563754 -0.00873137
C 6.18474768 20.28301737 12.67286096 0.00987540 0.00525369 -0.01030445
C 2.25571925 0.17755179 10.51966234 0.00242214 -0.00181759 0.00421352
C 3.06148737 17.10990153 31.27843738 0.00626481 -0.00708864 0.00152213
C 0.28911962 10.08270816 19.43387725 0.00359796 0.00543434 0.00108150
C 1.50678110 7.59680314 15.67765850 0.00315864 0.00444511 -0.00191108
C 2.36162215 9.10156384 0.63193595 0.00832644 0.00361474 0.00576245
C 10.92999418 16.17110692 14.10389849 0.00256227 0.00066224 0.00512172
C 23.51040461 3.93458459 7.01498486 0.00406078 0.00257272 -0.00565585
C 6.88881318 20.87293407 11.66687860 -0.00074860 -0.01264760 -0.00495620
C 2.12033231 1.35169176 9.84721821 0.00037011 0.00479283 0.00315308
C 1.88955648 16.46101084 31.11628167 -0.00447570 -0.00653742 -0.00023140
C 1.21464951 9.20458376 20.12525357 -0.00671899 -0.00085874 0.00124197
C 2.30960270 8.38270074 16.53676253 0.00276933 0.00456789 -0.00154072
C 2.69013930 9.46380518 31.09674742 0.00068885 0.01219435 0.00527270
C 11.46537769 16.51420939 12.86802524 0.00028781 -0.00008057 0.00064356
C 23.90149044 3.45995034 5.68165035 -0.00053931 -0.00052506 -0.00058272
C 7.18360473 22.23709696 11.66538442 -0.00403731 0.00116521 -0.01231413
C 3.20629991 2.00288183 9.37379277 0.00064418 0.00458005 -0.01211757
C 1.76108062 15.03146296 30.84332703 -0.00037008 -0.00010771 -0.00116526
C 2.34479379 9.75537799 20.79840728 -0.00248969 -0.00541242 -0.00969132
C 2.73287292 9.70664673 16.15694937 0.00401343 0.00485430 0.00304672
C 3.92983509 9.99706342 30.83131420 0.00584628 -0.00026169 0.00339230
C 12.60371539 17.32747322 12.85197625 -0.00263640 0.00660150 0.00703731
C 24.83976962 2.37823179 5.59176383 -0.00007318 -0.00073842 0.00349677
C 8.22364457 24.09645960 10.49622865 -0.01128655 -0.00473327 0.00163704
C 1.90276567 4.03002455 9.10080554 -0.00447387 -0.00036663 0.00174210
C 0.03887005 13.32654417 30.18499157 0.00420763 -0.00327289 -0.01474181
C 4.12425826 9.20769774 22.22593624 0.00106125 -0.00588481 0.00511727
C 3.90374364 11.72701598 16.72180884 0.00277248 -0.00592856 0.00074137
C 5.09278054 11.38569722 29.16835579 0.00012409 0.00177237 0.00211472
C 13.07370887 17.18641718 10.51459050 -0.00030183 0.00207531 0.00899138
C 25.59304056 2.83921196 3.25967176 0.00580245 0.00900828 0.00122489
C 3.26434409 16.99672116 26.62233576 -0.00059272 -0.00128746 0.01027072
C 1.63374787 5.22521331 8.25130750 0.00020845 0.00324367 -0.00058584
C 3.43762547 21.13503633 9.60980874 -0.00512288 0.00502333 0.00096191
C 10.37752221 7.83932737 27.80091809 0.00080007 0.00520951 -0.00398823
C 8.83522513 3.36484611 2.54726461 0.00152659 0.00334164 0.00451670
C 5.14281804 11.55277527 27.63342876 0.00256388 0.00572600 0.00064598
C 2.55521922 14.96697771 5.04680061 -0.00078526 0.00284563 0.00446636
C 4.46794465 5.68865732 13.45283574 0.00197243 0.00407610 0.01055471
C 8.28404447 0.91704292 15.52704959 0.00479400 -0.00145859 0.00312906
C 1.89156527 8.40773227 26.10752683 0.00568638 0.00076838 -0.00262663
C 0.98635387 14.07107842 24.74546348 -0.00364975 -0.00204794 -0.00269065
C 11.82298603 7.20559030 23.38586039 -0.00547607 0.01496151 0.00518593
C 20.55646566 11.85825272 1.41748500 0.00356333 -0.00261328 0.01069004
C 6.40698054 8.81766525 13.72816842 0.00493325 0.00393704 0.00485317
C 11.28767029 19.65968227 24.43009489 -0.00006314 0.01474932 0.00638492
C 5.24325801 5.56302924 16.44500704 0.00232435 -0.00017276 -0.00517836
C 8.31617394 0.88745847 14.14931184 -0.00021720 0.00157882 0.00479918
C 3.12937735 7.82072150 26.08051609 0.00086923 -0.00610091 0.00012022
C 2.36104241 13.79649752 24.62630396 0.00060708 -0.00543468 0.00334561
C 12.30098505 6.55766306 22.24672609 0.00020459 0.00071844 0.00151184
C 21.28724942 12.01036529 0.21991551 0.00170983 0.00318045 0.00188641
C 6.71067390 8.96632285 12.36228735 -0.00307149 -0.00029314 -0.00692458
C 12.44988751 19.88136240 23.73112841 0.00008682 -0.00272406 -0.00119752
C 5.20270140 5.74059587 17.80067629 0.00275526 0.00192446 -0.00983860
C 9.37651024 1.59160486 13.50283309 -0.00108992 -0.00250906 0.00005394
C 3.60933722 7.00296625 27.09001183 0.00516946 0.00049461 0.00481036
C 3.07027098 14.67193654 23.78655487 -0.01516980 0.00845645 -0.00072827
C 12.24377101 5.14317801 22.18078661 0.00975926 -0.00007759 -0.00037987
C 21.34406462 13.32840577 31.44964809 -0.00447327 -0.00014585 0.00302696
C 7.77753980 9.77365594 11.93761605 0.00461942 0.00162476 -0.00004615
C 13.22707604 21.00168696 24.07770930 -0.00230336 -0.00446926 0.00194765
C 6.29764757 5.39216444 18.60617402 -0.00745558 -0.00295289 0.00906009
C 10.31985381 2.30701074 14.19582439 -0.00503509 0.00195749 -0.00821456
C 2.67087539 6.75387158 28.16442424 0.00383166 -0.00735245 0.00013341
C 2.33746783 15.79643506 23.12948144 0.00326729 -0.00286601 0.00987764
C 11.84548869 4.42740179 23.39072540 0.00242061 -0.00504714 0.00770888
C 20.64808465 14.48281756 0.20274485 -0.00191575 0.00240383 -0.01204949
C 8.59667171 10.27991106 12.98866762 -0.00423771 0.00316081 -0.00214886
C 12.88635110 21.73881143 25.16786278 0.00176644 -0.00475356 -0.00088516
C 7.44881557 4.99942438 17.88857506 -0.00446623 -0.00692872 0.00250679
C 10.30917437 2.31697007 15.58237283 -0.01196008 -0.00557734 -0.00755425
C 1.39809507 7.21281588 28.18797316 0.00574539 -0.00281251 -0.00408806
C 0.99682299 15.92946869 23.28300129 0.00288905 0.00721349 -0.00115961
C 11.44452878 5.09480029 24.46575165 0.00096908 0.00371213 0.00031280
C 19.93951805 14.25484056 1.37379452 0.00372118 0.00634912 -0.01138789
C 8.24996665 10.10064997 14.37490479 -0.00084677 -0.00183299 0.00094238
C 11.61724847 21.58634228 25.78477115 -0.00129586 -0.00615320 0.01332635
C 7.43101331 4.70483753 16.56139267 -0.00104013 -0.00471060 0.00081883
C 9.24637738 1.67197704 16.26997593 -0.01068272 0.00112784 0.00136808
C 1.08937743 8.24382740 27.23576095 -0.00110577 0.00200931 -0.00340321
C 0.25525241 15.08553472 24.12882120 -0.00294058 -0.00719185 0.00597770
C 11.36830472 6.52706674 24.50300580 0.00066357 -0.00905962 0.00787102
C 19.82630184 12.96031945 1.97163606 0.00320271 0.00001693 0.00379738
C 7.16866336 9.35712504 14.74011696 -0.00645681 -0.00272752 0.00475025
C 10.80774311 20.56318034 25.48502189 -0.01298185 0.00739229 -0.00505103
C 6.28974875 5.00481370 15.81693134 0.00790099 0.00501240 0.00365398
C 10.05427742 1.66667402 18.68945065 -0.00694876 -0.01080804 0.00169088
C 24.58803840 8.53354070 28.14196358 0.00094423 0.00662886 0.00056183
C 23.74455374 16.07991402 24.79394334 -0.00578459 -0.00061292 0.00406292
C 10.73702045 6.81194690 26.86984563 0.00370299 0.00158067 0.00094750
C 18.73144668 11.55178656 3.65338601 -0.00243108 -0.00317835 0.00765902
C 7.59867527 9.58215043 17.11458554 -0.00894605 0.00456900 0.00086149
C 9.29319221 20.95265888 27.38036534 0.00109678 0.00458733 -0.00119640
C 5.56737623 4.68132015 13.48105185 -0.00189751 0.00540771 0.00416309
C 13.43491325 21.76051049 13.62930306 0.00204909 0.00397636 0.00199238
C 23.23118974 9.02829852 27.76888877 0.00441939 -0.00054612 0.00252114
C 19.67937884 5.20587383 21.89288932 -0.01545256 0.00582178 -0.00710999
C 5.25401800 8.31717366 22.46039126 0.00361788 0.00811338 -0.00125796
C 3.42923512 1.78743258 13.84189178 -0.00255779 0.00039164 0.01133757
C 6.93844164 9.39750723 18.40051969 -0.00648478 0.00867733 -0.00533445