1920
Time=2000.00000000 pbc="T T T" Lattice="26.02160304 0.00000000 0.00000000 0.00000000 25.47548409 0.00000000 0.00000000 0.00000000 31.35406456" energy=-12207.53015262 virial="-120.68665194 -38.30135475 14.31833405 -38.30135475 -71.28083254 -8.60041023 14.31833405 -8.60041023 -91.61110191" stress="-0.00261502 -0.00197116 0.00069206 -0.00197116 -0.00036105 -0.00027377 0.00069206 -0.00027377 -0.00130152" Properties=species:S:1:pos:R:3:vel:R:3
O 3.93976096 19.88349474 15.58809261 -0.00004814 -0.00825858 0.00945012
O 2.18856632 1.63294661 11.17937688 -0.00405195 0.00924903 -0.00193095
O 5.52106610 16.44769001 29.98927828 0.00146388 0.00652576 -0.00210664
O 24.94029884 13.21176875 19.71952755 -0.00550740 0.00090159 -0.00054781
O 1.42109816 8.00511067 12.76176580 -0.00318453 -0.00490032 -0.00004769
O 4.12717842 9.49378607 2.63403254 -0.00315593 -0.00341237 0.00620903
O 9.25968354 15.09900188 15.44872214 -0.00522689 -0.00230875 -0.01143287
O 0.51735587 3.35537925 7.09509470 0.00087831 -0.00081940 -0.00126356
O 11.00566415 0.18671405 19.26851277 0.00597148 -0.00120427 0.00080172
O 5.04033910 3.83205623 5.95054607 -0.00486778 -0.00530557 -0.00197481
O 24.51390193 13.41835763 30.29192181 0.00114108 0.00779620 -0.00331828
O 11.23314853 5.98275696 26.74211466 -0.00569455 -0.00668780 -0.00031858
O 20.76380491 10.45778735 4.38039040 0.00302884 -0.00553779 0.00577699
O 6.67699919 10.28395255 27.99875759 -0.00036380 0.00055027 -0.00235037
O 11.72893699 16.62901919 9.96524604 -0.00006142 0.00737833 0.00658395
O 5.37371041 3.69952309 12.27463064 -0.00634425 -0.00623352 -0.00477720
O 7.97565467 0.62059507 12.30764589 -0.00913291 0.00134170 -0.00003148
O 4.52369588 6.80054296 26.44413657 0.00245057 0.00175328 -0.00445372
O 4.16553309 14.64477609 23.69305808 -0.00039935 0.00692829 0.00514833
O 11.80093757 3.50824602 20.88153763 -0.00256378 -0.00312052 0.00880868
O 22.04764987 13.36809931 30.32911173 -0.00305595 0.00387671 0.00103351
O 8.65361537 8.68939153 10.48399952 0.00341548 -0.00372546 0.00486711
O 14.78634778 19.76219987 22.37396409 -0.00597007 0.00401293 0.00474205
O 5.26290265 6.03920944 19.65925816 0.00087193 -0.01043711 0.00190307
O 6.47423797 24.10514441 11.43623299 -0.00506170 -0.00234782 0.00066490
O 24.53331348 7.66821829 27.93678313 -0.00134975 -0.00408581 0.00343318
O 22.74153869 16.18957418 23.57514369 -0.00268164 -0.00714261 0.00094509
O 3.84055693 10.16704490 22.36466644 0.00787742 -0.00358808 0.00262348
O 3.08367872 12.97523377 16.30507294 0.00566599 -0.00786736 -0.00008390
O 8.93941435 9.90832005 16.68870661 -0.00504673 0.00041108 0.00446618
O 10.84463666 22.35060733 26.29636056 0.00018320 0.00193956 0.00341690
O 23.98008659 4.55794506 1.42144550 0.00662260 -0.00168068 0.00022923
O 18.74495987 17.00260324 9.86589590 -0.00027745 0.00356179 -0.00095650
O 4.60363741 18.46832921 8.69224733 -0.00304450 -0.00160608 -0.00321437
O 5.01809209 23.36173924 2.42667484 -0.00637808 -0.00311710 -0.00787893
O 5.05864539 18.10772424 17.00960643 0.00170788 0.00454799 -0.00097090
O 6.75322547 25.42606124 21.17627811 0.00045032 0.00425062 0.00407999
O 4.87549168 2.68632153 2.04825811 0.00674613 -0.00010709 -0.00138232
O 8.70016387 17.87670104 4.98777878 0.00058724 0.00640980 0.00549662
O 24.89565693 24.73521906 26.84280328 0.00659930 -0.00054060 0.00039966
O 1.96377666 14.34105953 27.21656180 -0.00266836 -0.00021390 -0.00769554
O 2.91217719 12.85533200 11.26843055 0.00038790 0.00152472 0.00353911
O 3.17933963 20.58070621 8.02563133 0.00268295 -0.00037998 0.00293329
O 25.16338900 22.44737838 27.98289977 -0.00038103 -0.00069204 -0.00284154
O 7.17243859 2.32078517 1.08659014 -0.00084222 -0.00144802 0.00137535
O 0.07956925 24.82870673 4.63289733 0.00895047 -0.00319054 0.00412145
O 1.82039221 15.51549315 2.53713372 -0.00179446 0.00525514 0.00097838
O 21.87720816 18.18113390 19.36847763 -0.00328571 0.00307099 -0.00074831
O 22.28518169 16.64635396 28.52634088 0.00105133 0.00362698 0.00609306
O 24.60935735 19.64908208 2.07884687 -0.00360788 0.00191898 0.00116066
O 20.08047377 0.35141352 28.49439755 -0.00043867 -0.00882492 -0.00802400
O 6.86355696 21.72714478 29.05457497 0.00284141 0.00129394 -0.00910248
O 5.24856170 4.43241034 26.76087500 0.00359031 -0.01358157 -0.00080527
O 0.31470494 22.77785413 22.82211994 -0.00037502 0.00387754 0.00247469
O 6.14788278 10.98342720 23.39465010 0.00071341 0.00626248 0.00181089
O 17.20995914 20.73395781 23.10633055 0.00008390 0.00424115 0.00260811
O 15.68457961 21.80793497 12.60212955 0.00155255 0.00240392 -0.00034330
O 5.88746884 21.25641625 0.53323868 0.00440156 -0.00999809 0.00430633
O 19.26119614 3.38109433 22.97047791 -0.01027438 0.00172223 0.00292201
O 5.53592848 16.79331358 22.96882720 0.00034749 0.00189148 -0.00058526
O 4.67386251 1.80852642 15.40580443 0.00055362 -0.00023668 -0.00199068
O 6.66203557 22.92072226 21.93950400 -0.00109515 -0.00512632 0.00333203
O 8.53959634 18.00891660 21.27209410 0.00139652 0.00115104 0.00061930
O 5.77099254 2.55566336 25.22270435 0.00960514 0.00282475 0.01557093
O 3.19630722 5.16764665 4.42627494 -0.00634113 -0.00413937 0.00817499
O 6.01053563 4.38690285 9.72149546 -0.00834628 0.00164208 0.00436045
O 17.67000263 11.07751836 26.80546789 -0.00041965 -0.00453364 0.00531525
O 12.02532193 8.77023094 13.36201080 0.00334141 -0.00730247 0.00427546
O 10.17388190 6.89022969 7.51709260 -0.00147887 0.00726686 -0.00106939
O 16.00121653 9.88218794 7.37485224 -0.00102632 -0.00046844 0.00015026
O 19.69498417 3.56028793 9.07488005 -0.00123893 -0.00597352 -0.00551708
O 20.95580698 11.57443337 14.06742315 -0.00878973 0.00543361 -0.00040299
O 23.25901810 23.37802062 16.58553841 0.00326509 -0.00041140 0.00343639
O 12.39698056 1.19197863 6.86807453 0.00388777 0.00364765 -0.00029584
O 20.26899457 8.57418308 0.46709511 -0.00510857 -0.00105908 0.00808949
O 2.21255954 7.94169649 2.80587726 0.00578292 -0.00470525 -0.00060431
O 7.71391823 15.31355310 29.77784225 0.00109640 0.00418305 -0.00628529
O 21.74346279 9.89847029 9.33010659 0.00589140 0.00326672 0.00548474
O 15.38257262 7.47183635 6.64234412 0.00556594 -0.00226605 0.00445412
O 20.17384221 6.98255812 25.11873947 -0.00367796 -0.00273903 -0.00306933
O 24.36092287 2.88093725 22.34756067 -0.00340719 -0.00286431 0.00163639
O 7.88385413 10.23780257 25.54671469 0.00339219 -0.01043854 -0.00083773
O 11.04618174 11.68592536 17.02862974 -0.00438075 -0.00048059 0.01146842
O 22.47126046 7.21736508 0.01500819 -0.00342460 -0.00060355 0.00369420
O 9.94696033 10.64189985 1.47966462 -0.01214844 0.00499570 0.00335280
O 19.80769261 6.51586806 12.80639738 0.00406584 0.00215662 0.00350553
O 13.08544957 4.89040390 18.01420440 -0.00309006 -0.00219356 0.00538615
O 18.94166250 4.50464469 30.87273321 0.00466652 -0.00135003 0.00177029
O 4.33747079 6.79891059 29.80355964 -0.00394100 -0.01782689 -0.00602221
O 7.62360336 6.78228181 20.44782344 0.00151019 -0.00213182 0.00226385
O 10.86756309 13.24862344 23.14735873 0.00218169 -0.00512826 -0.00220274
O 17.86912977 10.57309465 15.73151211 0.00036011 -0.00912728 0.00132064
O 8.72275324 11.53887949 3.58555446 -0.00330929 -0.00135600 -0.01067613
O 15.53912672 4.96670770 17.21481935 0.00135340 0.00069304 -0.00113640
O 11.56062106 6.54507205 12.12911748 0.00187298 -0.00094176 0.00622707
O 14.95457856 11.57562209 12.05633017 -0.00120970 -0.00726329 0.00364681
O 12.55797471 6.22480182 30.42426752 -0.00342219 -0.00448613 -0.00770442
O 5.45951174 14.30570434 5.88472637 0.00521595 0.00415716 -0.00461863
O 13.20775111 3.16704868 2.32054411 0.00586289 0.00396845 0.00625188
O 25.67999590 17.22434152 13.13414834 -0.00202037 0.00036131 -0.00209694
O 10.92674797 23.02082957 9.68876265 0.00464658 -0.00254945 -0.00003830
O 15.32098531 23.73482450 14.18376644 -0.00146556 0.00239162 0.00620916
O 7.45420179 14.89274644 9.12095538 0.00459369 -0.00230209 -0.00375380
O 9.27897512 17.89832545 9.77873468 -0.00586282 0.00112735 0.00801283
O 12.28566778 8.36626897 20.47648144 0.00019288 0.00037148 -0.00762717
O 6.12239728 9.06404982 9.12547918 -0.00424635 -0.00442663 0.00866499
O 12.54877372 6.14713817 7.95623328 -0.00175922 -0.00347377 -0.00246674
O 12.44878051 0.66195018 2.27038695 0.00243704 -0.00404374 0.00253425
O 8.16362185 1.24985956 27.92647465 -0.00070781 0.00329781 0.00577450
O 19.30089055 4.13568350 11.49334341 -0.00125386 -0.00120051 0.00408133
O 13.68835889 13.76017933 7.67823443 -0.00669742 -0.00038555 0.00019209
O 9.97117331 18.87528195 19.36529068 -0.00427278 -0.00362392 -0.00084116
O 15.64284959 11.35672562 24.92027678 0.00834174 0.00288901 -0.00464033
O 11.48217022 11.43290011 24.93828856 0.00994743 0.00489997 0.00213266
O 16.90620639 24.40984165 5.28709732 0.00041124 0.00175302 0.00276295
O 7.00247194 0.22513775 29.99526265 0.00636514 0.01087145 -0.00380727
O 11.22817193 24.46875607 21.30964076 0.00968343 0.00187411 0.00252993
O 17.21879838 15.79046462 19.18017573 -0.00079766 0.00331878 0.00953400
O 6.29977334 15.87219172 17.56335155 -0.00279752 0.00139745 -0.00260730
O 17.25654027 20.54663875 18.16379796 0.00601551 -0.00308769 0.00282797
O 13.99184928 10.75947474 3.41589358 -0.00055672 -0.00717697 0.00125452
O 13.86908591 11.12031816 30.82640021 -0.00071568 -0.00278251 -0.00321940
O 12.52405553 25.02269898 9.85106616 0.00253202 0.00283130 0.00204170
O 23.18054241 13.80163913 18.01770546 0.00222994 -0.00192740 0.00820269
O 8.60292105 21.90722974 15.68196410 -0.00480035 0.00598777 -0.00737803
O 16.31257413 16.13796488 25.50479128 -0.00524316 0.00139844 -0.00275186
O 7.10477023 14.25990996 11.64761038 0.00155618 -0.00498886 0.00160086
O 8.29192987 23.58551160 4.72561060 -0.00227090 0.00937965 0.00143739
O 20.38094266 21.34338683 29.84199145 -0.00281071 0.00108933 -0.00844882
O 25.37954974 2.51959273 17.35428203 0.01358910 0.00702055 -0.00464302
O 10.79383786 19.32729324 3.96475813 0.00093493 0.00150398 -0.00114960
O 20.81145953 8.18150394 5.83726886 -0.00092847 0.00372981 -0.00788619
O 15.22524248 14.36511329 9.56623974 -0.00755767 0.00417804 -0.00020935
O 25.00395366 11.46715214 0.95553303 -0.00309705 0.00949709 0.00023479
O 22.14987023 2.71779019 7.92382332 -0.00414923 0.00510993 0.00540947
O 21.46729145 1.63660358 5.66741872 0.00853091 -0.00487920 0.00303584
O 12.75518389 24.66584148 16.76945388 -0.00155336 -0.00164531 -0.00396908
O 25.81531534 9.06719431 16.78235639 -0.00210598 -0.00286696 0.00358083
O 12.83983083 22.37751498 30.16322836 -0.00910246 0.00935481 -0.00155498
O 17.65949094 15.56636335 29.00249272 -0.00132373 -0.00827798 -0.00255485
O 15.98693251 7.67554361 21.41383808 -0.00354304 -0.00563848 0.00137322
O 0.53640541 10.92317713 7.14968695 -0.00273285 -0.00137698 0.00113657
O 25.66504922 21.80218565 10.40616784 -0.00216925 -0.00138564 -0.00504154
O 1.28432341 3.53841388 19.20388556 0.00033550 -0.00354355 0.00457809
O 11.00828190 20.97243319 21.72739578 -0.00179805 0.00532578 0.00277351
O 16.54525110 18.52040651 26.38625063 -0.00102544 0.00072405 -0.00290254
O 17.31405644 4.86208267 21.75317671 0.00115910 -0.00561840 0.00555152
O 21.67829487 13.91998344 24.39190801 -0.00385067 0.00517768 -0.00750854
O 19.91912454 10.17830721 25.41213632 0.00004198 -0.00931737 0.00464851
O 5.27561802 2.07655846 21.73704234 0.00245416 0.00511130 -0.00042169
O 21.26697036 18.94833974 28.72405713 -0.00742449 0.00339177 -0.00786019
O 25.35183759 8.56245004 22.18290186 -0.00031405 0.00240518 -0.00031534
O 19.17719265 24.38293817 3.94787806 0.00514217 -0.00890014 -0.00383806
O 10.79271931 17.28407186 28.53135417 0.00345443 -0.00165709 -0.00361768
O 13.29502542 6.96167917 28.10791830 -0.00080588 -0.00466385 -0.00469427
O 25.68113119 5.29103091 8.66072132 -0.00348102 0.00442507 0.00194126
O 13.87056905 15.19792439 15.81690628 0.00456057 -0.00597913 0.00427424
O 25.77998931 3.12655072 24.53552078 -0.00288250 -0.00053303 -0.00026817
O 24.66223636 21.40961386 24.11546434 -0.00031175 -0.00129017 0.00318912
O 21.53741399 0.39848376 30.74641404 -0.00408791 0.00130669 0.00811008
O 25.33778317 19.20051470 11.12779375 -0.00185083 0.00244521 0.00332320
O 18.50246944 18.03406892 18.92980025 -0.00982147 0.00713834 -0.01108110
O 12.50977373 1.80234002 25.98076568 -0.00277256 -0.00233102 -0.00661126
O 0.59149289 22.82979013 17.48961539 0.00733526 0.00561119 -0.00171284
O 23.46056801 21.34840848 14.91089975 -0.00242997 0.00066706 0.00115890
O 18.96795315 19.86790136 5.87657964 0.00706916 0.00282444 0.00534376
O 10.98729942 15.22130333 30.38056007 -0.00039702 -0.00518300 -0.00058536
O 17.80309909 21.85002285 4.64771481 -0.00151322 0.00338964 -0.00488634
O 0.36362969 5.71854946 13.49490280 0.00383710 0.00185429 -0.00389546
O 21.09295954 14.31160827 14.44441379 0.00003495 0.00524765 0.00095316
O 16.61482465 3.84288075 30.13377993 -0.00508119 0.00113051 0.00422761
O 25.35196080 16.00928632 3.27080898 0.00197929 -0.00052581 -0.00205313
O 17.93152801 21.90816107 25.44257346 0.00040653 -0.00827952 0.00338871
O 25.06994132 18.59591233 4.49079391 0.00013186 -0.00572678 0.00451486
O 12.67147086 17.69076087 4.81078341 -0.00328386 0.00210163 0.00017105
O 22.86085186 9.52874738 21.91286333 0.00216892 0.00048027 -0.00381884
O 21.28862389 7.50259176 10.34641826 -0.00196446 0.00338847 -0.00033004
O 18.69420352 1.50511870 3.26428821 0.00806246 -0.00197502 0.00596162
O 18.71411574 21.11668419 15.42892405 -0.00133954 0.00374801 0.00298198
O 25.31604813 12.86501057 8.43123477 0.00465801 -0.00390859 -0.00362813
O 22.16348975 25.23503466 22.22357538 0.00036986 -0.00766348 -0.00496009
O 2.27769744 15.35874401 15.36123485 -0.00139651 -0.00405630 0.00215005
O 17.80742106 22.81120836 19.07971790 0.00167771 0.00094005 -0.00515522
O 19.88241124 7.92756055 16.64853392 -0.00129524 -0.00462629 0.00734033
O 20.28240938 17.18588587 7.79896616 0.00624299 -0.00492012 0.00434894
O 14.59392668 24.68846447 30.39461987 0.00496554 0.00977119 0.00496133
O 20.92303116 25.07253325 20.09850247 0.00360295 -0.00214746 -0.00160655
O 25.54276766 1.40726105 11.21802510 0.00414705 0.00483723 -0.00375210
O 19.58300370 24.29185085 10.75586922 0.00188518 -0.00373268 -0.00098071
O 0.80308168 17.55265525 21.11035799 -0.00097103 0.00515327 0.00828790
O 13.67029820 1.70212213 23.79968769 0.00260747 0.00097318 -0.00315551
O 16.30829076 17.74529063 29.99963835 0.00056389 0.00413377 0.00633499
N 15.43263551 21.48571794 10.37835199 -0.00604607 0.00643980 0.00288731
N 5.94718891 2.16474459 7.24303671 0.00116143 0.00644353 -0.00617130
N 3.95125899 22.82685123 7.90748778 0.00176906 -0.00601890 -0.00296918
N 2.89494844 9.36324892 20.39284839 -0.00153413 0.00004047 0.00401992
N 4.03886664 25.33017530 16.34834963 0.00428615 -0.00037083 -0.00446671
N 4.49237994 10.31203835 28.56506898 0.00598770 0.00273394 -0.00026202
N 4.05525927 15.75567502 2.97914646 -0.00476554 0.00041828 0.00611354
N 25.51948683 2.83653460 1.65050138 -0.00877511 0.00607623 0.00174485
N 1.80545531 16.58266252 27.74157678 0.00871699 -0.00170239 0.00131268
N 25.70909699 9.38936197 27.11757563 -0.00136391 -0.00032935 -0.00414659
N 21.28819017 3.65342186 24.07750021 -0.01020908 0.00026660 -0.00034802
N 10.68330715 7.33481855 24.93549551 0.00740238 0.00455676 -0.00170376
N 8.49862761 3.53537056 31.10658087 -0.00342203 -0.00133269 0.00020349
N 7.18645633 8.82874679 15.76933891 -0.00185700 -0.00131920 -0.00353166
N 8.27424160 15.94401487 22.18747689 0.00446431 -0.00545162 -0.00966730
N 5.79906762 4.14235690 14.38031802 0.00284638 0.00714300 0.00047753
N 7.11727057 21.90795467 11.45648702 -0.00139765 0.00627191 0.00859743
N 2.14532140 14.83723214 12.05873428 0.00167116 -0.00015501 -0.00578281
N 0.36373546 14.60880966 30.50877456 0.00398518 -0.00361732 0.00508194
N 5.86365734 18.94102628 22.29713351 0.00846005 -0.00173505 -0.00213294
N 3.85129017 10.94816911 16.74192828 0.00036754 -0.00929481 0.00300597
N 1.48486698 23.84914249 2.99397872 0.00252818 -0.00560535 0.00438295
N 12.33974003 17.86126518 11.80417543 -0.00562210 0.00614158 0.00527231
N 3.75849141 1.97551773 26.15157483 -0.00444823 0.00387293 0.00134077
N 9.39005598 0.49230909 17.74671133 0.00707373 0.00059947 0.00343549
N 3.72503135 20.75635696 0.28188226 0.00027078 0.00523936 0.00692156
N 24.71672347 15.17387784 23.81146182 0.00156167 0.00409227 0.00181133
N 1.26606928 21.77212148 28.13201118 -0.00739384 0.00218188 0.00259268
N 19.32739487 12.10065308 3.66077028 -0.00037702 -0.00883957 -0.00213111
N 5.73971769 22.68513850 24.05557809 0.00151754 0.00573559 -0.00041372
N 10.53673962 20.12491724 26.01849818 -0.00283789 -0.00800063 -0.00287515
N 21.47710852 17.76989291 21.63921106 -0.00221337 0.00413458 -0.00123927
N 12.27206640 9.28912827 3.73210463 -0.00865935 0.00072740 -0.01064881
N 10.54887850 1.57078448 8.07245234 -0.00230112 -0.00364725 -0.01011124
N 13.91523123 4.31125485 7.70198267 0.00350836 0.00103974 0.00152668
N 15.98259100 11.86423546 15.87261329 -0.00475880 -0.00136945 0.00839166
N 9.25026229 20.25777775 14.25690900 0.00699906 -0.00160284 -0.00066688
N 20.42633473 11.38704477 10.38956787 -0.00137792 0.00128638 0.00301699
N 12.32572439 14.98644668 6.26229138 -0.00803565 0.00132708 0.00075259
N 16.48599201 9.86607785 11.34137796 0.00278586 -0.00098824 -0.00106312
N 13.36449867 10.26277018 19.98171496 0.00639199 0.00857912 0.00650021
N 7.95502282 5.63427764 22.39640713 -0.00699088 -0.00174652 0.01120054
N 14.46463725 0.94981762 9.84024282 0.00602387 -0.00359870 -0.00793280
N 0.35623012 7.41553813 4.05686908 -0.00176091 -0.00649832 0.00022134
N 8.66326325 1.15348887 25.75715191 0.00040647 0.00202951 0.01032457
N 17.81311490 4.79787976 17.81283792 0.00147104 -0.01523717 0.00287437
N 6.77201672 12.45184539 13.05814466 0.00033780 -0.00204453 0.00119149
N 21.72618528 7.04630590 26.83564306 -0.00511449 -0.00386054 -0.00139197
N 6.13290563 6.17773244 31.02872445 0.00442304 0.00190168 0.00113957
N 6.13830355 8.96275680 6.81655055 0.00964397 0.00041098 0.00369286
N 18.16063478 9.34972815 0.69832075 -0.00494550 0.00550041 0.00170068
N 22.82557083 16.03568993 17.86680240 0.00806066 -0.00307556 0.00627120
N 8.79921568 11.94895192 5.91761657 0.00546884 -0.00624084 -0.00060662
N 17.92217602 2.81199448 12.61812538 0.01413649 0.00280588 -0.00664541
N 16.45147815 6.08224370 5.21086004 -0.00104317 -0.00224043 -0.00647807
N 8.02083755 21.92502715 6.16625501 0.00132392 0.00060759 -0.00460743
N 23.99170152 24.66750401 18.17580999 0.00401416 0.00782900 -0.00983698
N 12.26229254 12.66498308 30.25061551 0.00282602 0.00394026 0.00738462
N 12.63251553 13.90935117 21.79134301 -0.00353666 0.00416371 0.00248798
N 10.82135281 24.50752980 2.46613414 0.00108508 0.00489032 0.00414658
N 8.58545469 13.61648752 28.51499992 -0.00133835 0.00161109 -0.00163200
N 17.24139025 14.26964572 24.51313202 0.00367621 -0.00138635 0.00110113
N 10.02302243 5.50995174 13.46800043 -0.00433584 -0.00722911 -0.00250627
N 11.80054039 19.71215232 18.44562806 0.00363880 -0.00212306 -0.00165370
N 21.97071698 15.75295046 8.17209815 0.00020596 0.00664476 0.00436141
N 24.06081879 7.84594690 16.00074942 0.00336607 0.00094670 0.00008419
N 14.46744216 3.88256590 30.85259892 -0.00119042 0.00224476 0.00132602
N 25.55947399 7.61283138 8.44267393 0.00138156 0.00755604 0.00124202
N 19.54064260 22.03845494 10.90805931 -0.00361877 0.00024951 -0.00898472
N 2.05455622 11.53482683 5.61640396 0.00684860 0.00064689 -0.00151784
N 14.05594755 17.38504439 3.01035170 0.00022661 -0.00383835 0.00273958
N 23.25633760 24.95594889 0.78734585 0.00401576 0.00632914 0.00365935
N 25.08597070 4.08004154 12.61102580 0.00020915 0.00493912 -0.00414326
N 11.81510416 19.00113867 29.52006410 0.00450861 -0.00657251 0.00170895
N 19.48852683 0.34115357 18.48790467 -0.00685883 0.00296639 -0.00267911
N 18.90997100 13.64565342 29.27564569 -0.00116790 -0.00090563 0.00488274
N 19.76203308 22.75697374 26.56063370 -0.01034574 0.00000147 0.00390958
N 1.41408707 4.72192940 24.70992873 0.00530859 0.00063741 0.00118917
N 14.29568037 0.58842412 21.82265063 0.00261239 -0.00531259 -0.00444048
N 2.65545370 4.45613531 20.75367905 0.00269130 0.00107890 -0.00492277
N 21.00680070 22.99369954 3.77781970 -0.00152458 -0.00581203 0.00314868
N 21.43000326 16.55133546 14.33558175 -0.00123651 -0.00351731 0.00001905
N 10.63872073 22.80325737 30.91674628 0.00718686 0.00022348 -0.00054754
N 0.33126852 25.20232984 12.43210410 -0.00541178 -0.00404844 -0.01173361
N 15.89548987 15.73005661 14.88047311 0.00642562 -0.00091909 0.00514928
N 24.42106842 19.46025452 6.48124859 0.00186145 -0.00261269 -0.00699315
N 24.09896668 23.25677458 9.87729626 0.00022086 -0.00155743 0.00353756
N 16.51866391 19.73179187 31.14063692 -0.00785351 0.00232168 0.00251798
N 10.91150078 23.32965483 16.73023114 -0.00757801 -0.00076396 -0.00314136
N 16.64498740 25.42962878 29.77735028 -0.00211023 0.00016270 0.00677325
N 13.93596169 6.06069922 26.12454394 0.00360107 -0.00533092 -0.00492249
N 23.44213433 14.79719128 3.62354543 0.00435451 -0.00055895 -0.00093250
N 17.65983076 8.93381773 20.64444389 0.00104019 0.00285595 0.00074464
N 1.44189096 19.05377697 19.57555998 0.00162810 0.00497013 0.00079083
N 22.33311844 21.41853886 23.96771056 -0.00197083 0.00811140 0.00226103
N 23.09870093 10.88793108 20.12830641 -0.00435092 0.00562926 -0.00079921
C 5.59337771 22.20676593 13.44579980 0.01273396 0.00006281 0.00597320
C 5.18087234 1.10896516 9.28963523 -0.01338974 -0.00456306 0.00009938
C 2.79355429 14.07317850 30.14120466 -0.00175167 0.00314167 0.00439753
C 1.85192289 11.48838711 21.08230729 -0.00287845 -0.00406976 -0.00010343
C 3.00253266 10.89268114 14.38392241 -0.00262821 -0.00025912 -0.00434186
C 5.61644883 10.47421512 30.77053828 -0.00407147 0.00361954 0.00362105
C 11.70339273 17.50135754 14.11431676 0.00085351 0.00454974 0.00680811
C 0.38456667 1.99886341 3.68728240 0.00319349 0.00151633 -0.00098299
C 4.84512673 21.70521487 14.44562194 0.00325332 0.00065481 -0.00011097
C 4.35405441 1.07796820 10.36436079 -0.00900380 -0.00017663 -0.00629669
C 4.09364912 14.55139381 30.23149294 -0.00409500 0.00233431 0.00241505
C 0.86882077 12.41083296 20.84361527 -0.00404968 0.00355274 -0.00267745
C 2.49351218 10.15760577 13.32851585 0.00272223 -0.00191811 -0.00442178
C 5.46288696 10.30307715 0.79010425 0.00307924 0.00184690 0.00799419
C 10.88758071 16.78673906 15.02542267 -0.00454301 -0.00036373 0.00488192
C 0.58549272 2.09466601 5.05686096 -0.00787570 -0.00703733 -0.00255553
C 4.65491034 20.32906164 14.56849549 0.00334589 0.00163822 0.00510350
C 3.13236914 1.74304933 10.24883706 -0.00088148 0.00799140 -0.00256746
C 4.36083712 15.89710397 30.27605786 -0.00900263 -0.00427236 0.00278409
C 25.94852406 12.28240666 19.78144860 -0.00130304 -0.01103590 0.00606834
C 2.06701140 8.80125290 13.64885964 0.00348500 -0.00688967 0.00672342
C 4.25990566 9.80636876 1.38810555 0.00352430 0.00323448 -0.00318015
C 9.92780005 15.85772312 14.57033515 -0.00281223 0.00295673 0.00164050
C 0.17268020 3.21016936 5.81192252 -0.00332087 0.00136660 0.00494270
C 5.42056268 19.50306699 13.70951075 -0.01110135 0.00162410 -0.00405692
C 2.73886648 2.48751054 9.10592554 -0.00201896 0.00147187 0.00745851
C 3.25475501 16.66866940 30.51454620 -0.00296338 -0.00294233 -0.00509500
C 0.03104070 11.09701708 19.01128350 -0.00303958 -0.00574833 0.00423815
C 2.41222708 8.20496051 14.80135023 0.00690063 0.00006653 -0.00132045
C 3.10896390 9.78281113 0.51429955 -0.00564428 0.00508544 -0.00476674
C 9.64559472 15.67593137 13.20405232 -0.00412933 -0.00379994 0.00275383
C 25.36390682 4.06895556 5.12666113 -0.00689452 -0.00277121 -0.00087515
C 6.22898409 20.01800104 12.70272476 0.00418196 -0.00496327 -0.00183561
C 3.72808416 2.69440731 8.17493935 -0.01251331 0.00528347 0.00390561
C 1.94061476 16.30919563 30.85397668 -0.00140069 -0.00734004 -0.00013347
C 0.91260522 10.08826945 19.37335513 -0.01430505 -0.00959368 -0.00050444
C 3.01398162 8.91635974 15.83173150 -0.00354531 -0.00663562 -0.00553458
C 3.26743783 9.73717055 30.42262363 0.00818852 -0.00006343 0.00649168
C 10.33231602 16.46290177 12.37187202 -0.00682098 -0.00515435 -0.00881727
C 25.14628246 4.05613982 3.77746040 0.00175656 0.00341206 -0.00657746
C 6.35413883 21.42514892 12.52043714 -0.00419003 0.00105502 -0.00236542
C 5.01101706 2.05964951 8.24285099 0.00585108 -0.00312309 0.00779934
C 1.72338793 14.97381224 30.45175130 0.00242507 -0.00396666 0.00135918
C 1.90894799 10.33694231 20.31576200 0.00427333 0.00226410 -0.00516289
C 3.26720076 10.27428649 15.65153835 -0.00817884 -0.00374693 0.00900125
C 4.49248729 10.12916479 29.96402091 0.00543069 -0.00432935 0.00559028
C 11.46996676 17.23532244 12.71557469 -0.00857080 0.00963432 -0.00208286
C 25.69718389 2.95516593 3.07963445 0.00435892 -0.00817059 -0.01597878
C 6.98138443 23.15328267 10.82424969 0.01198844 0.00583234 0.00382094
C 5.85672868 2.90271645 6.08343498 -0.00730123 0.00546626 0.00857185
C 25.71480582 13.52199261 30.01643899 0.00157288 -0.00044962 -0.00728631
C 3.85517493 9.44301162 21.34642925 0.00139361 0.00191682 0.00144921
C 3.78971431 12.24422143 16.94154567 -0.00231276 0.00066781 -0.00365050
C 5.51431226 10.66627767 27.79253651 0.00300052 -0.00737949 -0.00733780
C 12.46787687 17.41851901 10.54282765 -0.00231019 -0.00110590 0.00126322
C 24.72092150 3.68943734 0.92905109 -0.00883173 -0.00384439 -0.00068950
C 3.95574800 15.73045267 27.06982826 0.00379439 0.00253299 -0.00703223
C 6.95240902 2.64820271 5.09399360 -0.01358472 0.00115471 0.00109855
C 3.34936938 22.03445366 9.96547953 0.00613383 0.00330542 0.00401658
C 10.24062633 8.11422454 27.27098786 -0.00230442 0.00343320 0.00554386
C 9.29916100 3.05924149 2.00056231 -0.00384538 0.01046263 -0.00937832
C 4.95698798 11.45983499 26.64466546 0.00686520 -0.00216837 0.00314682
C 2.41627875 15.38729628 4.83197829 -0.00381501 -0.00832083 -0.00000689
C 4.11324792 5.46564011 13.10217211 0.00133255 0.00271990 0.00512671
C 7.95242112 25.24598405 15.91142724 0.00394810 0.00513064 -0.00777324
C 1.79225924 9.12933079 25.95878012 0.00040286 -0.00106530 0.00200966
C 0.68001680 13.95693336 24.46385610 -0.00118393 -0.00129988 0.00007259
C 10.90756520 6.70510730 22.55439208 0.00325890 -0.00005777 0.00117708
C 21.09416759 11.51580360 1.98829972 -0.00474062 -0.00503026 0.00122049
C 6.75567490 8.40863867 13.59679254 0.00085057 -0.00397337 0.00027973
C 11.64623534 18.95704191 24.17732364 -0.00369903 0.00418667 -0.00185582
C 4.47527533 5.17972984 16.09645168 0.00018008 -0.00480690 0.00085854
C 7.58069589 25.31829216 14.53300443 0.00238793 0.00156841 -0.00020687
C 2.98342704 8.45391735 25.75314380 0.00199378 -0.00079901 0.00662735
C 1.98193063 13.69058487 24.13005403 -0.00305222 -0.00107075 0.00454627
C 11.48599806 5.83672944 21.62064847 -0.00263006 0.00215829 -0.00182405
C 21.77884936 11.81824537 0.82018264 -0.00282517 0.00689022 -0.00405718
C 7.09666531 8.38748973 12.22286814 0.00086556 -0.00383384 0.00036265
C 12.75187480 18.75640947 23.34471062 0.00694313 0.00927535 -0.00393478
C 4.36187797 5.67701321 17.40141441 -0.00556641 0.00833374 0.00125093
C 8.22134144 0.70936525 13.59504139 0.00108509 -0.00102558 0.00011945
C 3.40071735 7.40442458 26.61628301 0.00775237 -0.00645808 -0.00149700
C 2.83295707 14.82091363 23.76372377 -0.00673769 0.00566252 -0.00125564
C 11.48514672 4.44835581 21.89323368 -0.00095577 -0.00143410 -0.00526873
C 21.50004752 13.06260037 0.16062630 -0.00532015 0.00112418 0.00213336
C 8.38329547 8.74053104 11.81259574 -0.00181404 0.00269957 -0.00413140
C 13.74232570 19.75917494 23.27029263 -0.00250829 -0.00535284 -0.00081743
C 5.43209625 5.69228438 18.31742596 0.00153248 0.00130085 -0.00236864
C 9.25211604 1.53260912 14.15627228 0.00150351 0.00700741 -0.00435850
C 2.43463422 6.95878390 27.58961855 -0.00018262 -0.00522243 -0.00019466
C 2.33157878 16.07733238 23.58822868 0.00270090 0.01419101 -0.00359568
C 11.39433386 4.04555979 23.20622730 -0.00062504 0.01029150 -0.00583086
C 20.44908025 13.82528828 0.68629466 -0.00770484 -0.00476919 0.00297141
C 9.30881956 9.05751694 12.79735034 -0.00804387 -0.00225132 -0.00546459
C 13.61247985 20.87830563 24.03901568 0.00136876 0.00060867 -0.00984085
C 6.64577238 5.37670476 17.81911263 0.00394281 -0.00842746 0.00454088
C 9.68664763 1.40130126 15.50976774 0.00079231 0.00287672 0.00334903
C 1.20690053 7.54927627 27.67657970 -0.00516698 0.00019063 0.00270348
C 0.94397947 16.29248486 23.73263175 -0.00441258 -0.00650151 0.00613616
C 10.98089018 4.97800009 24.16416393 0.00390954 -0.00284587 -0.00238882
C 19.85287146 13.54563488 1.89692779 0.01096119 -0.00633087 -0.00472706
C 9.00961981 8.95145873 14.08902756 0.00586491 0.01185726 -0.01118722
C 12.48788140 21.10154304 24.75180226 0.00159348 -0.00523811 0.00168688
C 6.79296995 4.91034343 16.50360262 0.00673851 0.00092579 -0.00117299
C 9.06427140 0.52752280 16.38353090 -0.00452279 -0.00021706 0.00249514
C 0.87288974 8.68492576 26.92394220 -0.00713408 0.00262564 0.00572629
C 0.09337948 15.16742878 24.03349896 0.00516308 0.00077654 0.00857793
C 10.74680941 6.32805171 23.90428513 -0.00329950 0.00675396 -0.00565099
C 20.11371395 12.32020809 2.49794118 0.00502383 0.00832808 -0.00475576
C 7.69982870 8.77587933 14.45896374 -0.00451873 0.00228258 0.00083854
C 11.60810141 20.06121897 25.01563956 0.00354121 -0.00149281 -0.00291719
C 5.73836319 4.79121523 15.65235951 0.00520933 -0.00470256 0.00476393
C 10.59381865 0.81831004 18.30941478 0.00022882 -0.00273727 -0.00276375
C 24.66322678 8.83714064 27.77540016 0.00045985 -0.00479342 0.00121524
C 23.94103692 16.27237734 23.96765511 -0.00245345 -0.00941410 0.00109929
C 10.74150492 6.98900125 26.29682539 0.00127572 0.00669565 0.00927973
C 19.70088773 11.05416642 4.49691212 0.00132335 0.01061449 0.00260832
C 7.85278691 9.29875919 16.79812260 0.00494955 -0.00082926 0.00456599
C 10.18747442 21.29709074 26.51749198 -0.00812765 0.00894353 0.00006231
C 5.15521624 4.38271008 13.22331666 0.00538623 0.00192281 -0.00143847
C 13.53268843 22.47067042 11.61848251 0.00385251 -0.00165664 0.01344742
C 23.68758594 9.76422615 28.49700327 -0.00749145 0.00734972 -0.00077094
C 20.46481755 5.36882191 22.36751452 0.00309847 -0.00099769 0.00694768
C 5.07621020 8.53044592 21.18309317 -0.00770207 0.00389382 0.00274288
C 3.46180041 0.21757463 14.05489759 -0.00126420 -0.00253219 0.00345838
C 7.26066419 9.15657017 18.19969135 -0.00513878 -0.00267501 -0.00378879