1920
Time=79000.00000008 pbc="T T T" Lattice="25.56421659 0.00000000 0.00000000 0.00000000 25.46360340 0.00000000 0.00000000 0.00000000 33.05812956" energy=-12248.73820055 virial="-48.47606417 8.40599320 5.14497466 8.40599320 -70.79392961 23.61976941 5.14497466 23.61976941 -75.50479295" stress="0.00009250 0.00033355 0.00024533 0.00033355 -0.00087438 0.00104525 0.00024533 0.00104525 -0.00124513" Properties=species:S:1:pos:R:3:vel:R:3
O 6.59513149 2.53406008 7.64667123 0.00195255 -0.00528505 0.00107122
O 2.81895342 3.70954932 15.34730178 0.00051893 -0.00234746 0.00075214
O 1.39324288 10.37374610 1.22891413 0.00375652 -0.00562054 0.00396498
O 6.87944553 8.91480701 9.34390473 0.00136707 0.00116551 -0.00129465
O 3.03532315 10.05091826 9.32041389 -0.00359008 0.00771641 -0.00629699
O 6.02904292 9.47086177 1.02241026 0.00520608 0.00194564 -0.00106499
O 6.50598349 2.68842242 15.73106725 0.00360805 -0.00360639 -0.00281703
O 1.55956926 3.36416414 7.11452917 0.00470981 0.00246518 0.00140058
O 6.81221599 1.33028376 17.86027217 -0.00493339 0.00171672 0.00624589
O 1.85554061 5.02454301 9.23399497 -0.00287513 -0.00317435 -0.00589190
O 2.33713516 11.53395625 7.39397315 -0.00098671 -0.00526494 0.00832914
O 6.79561665 7.80031280 32.32578512 0.00061466 -0.00479589 0.00527332
O 1.73119083 11.49130737 31.82330543 0.00019350 -0.00558371 -0.00009457
O 5.95737587 7.77702893 7.16566555 -0.00327771 -0.00224233 0.00156020
O 6.42357291 0.71915156 9.65539421 -0.00336124 0.00659941 -0.00533334
O 2.49330596 5.10105688 17.53104879 0.00184836 0.00841284 -0.00450347
O 5.48652200 2.35278836 24.11129644 0.00019724 0.00150325 0.00026019
O 3.13540931 4.05383996 31.92726819 0.00040642 -0.00019735 0.00345583
O 1.22432323 10.25223899 17.60531347 0.00804714 0.00423728 -0.00128415
O 6.90134432 9.05873880 25.97790065 0.00315822 0.00059998 0.00083840
O 3.16175221 10.10340607 25.72965096 -0.00435774 -0.00091339 -0.00406123
O 5.86206288 9.14688765 17.59055719 0.00096261 -0.00693643 -0.00012402
O 6.89440253 2.77941735 32.44518593 0.01173115 -0.00363480 -0.00363733
O 1.86988620 3.35509070 23.56714048 -0.01351559 -0.00043126 -0.00674830
O 6.17348922 1.22205618 1.49114516 -0.00005542 0.00252284 0.00322334
O 1.86814016 5.17764885 25.69112706 0.00476294 -0.00138114 0.00666484
O 2.72213465 11.64579465 23.69148478 0.00309904 -0.00019050 0.00270342
O 6.36033137 7.76079797 15.57064626 0.00001531 0.00545967 -0.00289562
O 1.99663908 11.14829189 15.38241439 0.00170040 -0.00061936 0.00417295
O 6.57589872 7.56918108 23.86011216 0.00188489 0.00179436 -0.00316229
O 6.17904482 1.33875256 26.30721879 0.00260135 -0.00162338 0.00242369
O 2.51486921 5.19022457 1.12516810 -0.00610703 0.00093429 -0.00679804
O 5.82440308 15.03038882 6.65877126 -0.00161828 -0.00281943 0.00334004
O 2.09644951 16.08853792 14.94303530 -0.00007905 0.00054347 -0.00483967
O 1.74196531 22.88143813 1.82777571 -0.00089231 -0.00569635 -0.00399032
O 6.97517931 21.17808552 9.23840547 0.00233928 0.00733473 0.00507413
O 2.28198363 22.37111523 10.16253111 0.00007950 -0.00423181 0.00105650
O 6.04285874 21.95722571 0.89282908 0.00242213 0.00298241 0.00004938
O 6.52286835 15.97092273 14.73256090 0.00039571 -0.00385138 -0.00220946
O 1.71314671 16.62815599 6.78634532 0.00823400 0.00100442 0.00407875
O 6.41009099 14.52892116 16.86289910 -0.00125963 0.00245206 0.00050067
O 2.42768901 17.82127893 8.90019542 -0.00278271 0.00222309 -0.00287166
O 2.19175897 24.05028882 8.11838747 0.00177059 -0.00554949 -0.00416003
O 6.69743373 20.39815811 31.94151043 0.00216583 0.00316348 -0.00072279
O 2.03449310 24.37315184 32.76064935 0.00053110 0.00081872 -0.00157964
O 5.95299846 20.31732559 6.95502431 0.00179218 0.00231153 -0.00809088
O 6.40335127 13.71062464 8.86910902 0.00450610 -0.00062561 -0.00207266
O 1.89728406 17.97154639 16.81067739 -0.00007669 0.00241192 -0.00284882
O 6.29858681 15.70265788 23.13437734 0.00742714 -0.00380172 -0.00141166
O 2.95762670 16.23890434 31.76803661 0.00073436 -0.00029405 -0.00349618
O 1.26343320 22.82330674 18.48401841 0.00716366 -0.00685286 -0.00302232
O 6.76487863 21.82657531 25.78429042 0.00323166 -0.00167419 -0.00108302
O 2.31255492 22.36784292 26.72603918 0.00252080 0.00472647 0.00168841
O 5.54274050 21.80954643 17.78597142 0.00070187 0.00075383 -0.00814783
O 7.13516314 15.56159128 31.34675481 -0.00887830 0.00507948 -0.00376877
O 1.75098966 16.71076922 23.14021424 -0.00312752 -0.00424414 0.00459709
O 6.55491180 14.20387719 0.46792265 -0.00014053 -0.00129339 0.00472152
O 1.97735271 17.77186741 25.64138913 -0.00029820 -0.00193788 -0.00006274
O 1.81427281 24.11455746 24.49448659 -0.00118529 -0.00129498 -0.00371699
O 6.77465327 20.66353144 15.72826980 0.00603024 -0.00222906 0.00294529
O 1.81734601 24.33032822 16.50765409 0.00008873 0.00547838 -0.00287051
O 5.99698013 20.31187202 23.93089436 -0.00219759 0.00449380 -0.00205684
O 6.67137798 14.12264275 25.00940944 -0.00278387 -0.00783422 -0.00279907
O 2.07782582 17.89021647 0.49059767 0.00248925 0.00231437 0.00062328
O 14.35220276 2.59454715 7.36046327 0.00314555 -0.00178942 -0.00506676
O 10.71592859 3.23630127 15.13196824 0.00575030 -0.00557778 0.00120737
O 10.23105225 10.47185255 0.72243388 0.00220203 0.00031070 -0.00034878
O 15.90804692 8.66436283 9.06454277 -0.00139134 0.00268694 -0.00345207
O 11.21643526 10.05737280 9.32698289 -0.00264311 -0.00104253 0.00383004
O 14.00471369 9.32619524 1.03119612 0.00083493 0.00015181 -0.00503523
O 15.14424555 2.41615349 15.69161756 0.00053804 0.00697586 0.00317998
O 10.20744555 3.23182597 6.60943815 -0.00804056 0.00659292 0.00083572
O 14.89356944 1.26943974 17.89912868 -0.00287574 -0.00293191 -0.00153667
O 10.62585282 4.90770782 8.85283776 0.00489765 0.00207084 0.00397337
O 10.75058662 11.43731242 7.19841524 -0.00136886 -0.00199798 -0.00318622
O 14.76679506 7.93575386 31.94565406 -0.00647721 -0.00019954 0.00057859
O 11.26172341 12.07234183 31.89659905 0.00181728 0.00473084 -0.00249224
O 14.88585274 7.54432688 6.96308872 -0.00031965 0.01049864 -0.00139267
O 15.08780286 1.18025565 9.37552941 0.00142532 -0.00604950 -0.00424050
O 10.86920836 4.83257656 17.16433548 -0.00394147 -0.00092687 -0.00025506
O 14.38364101 2.49656691 24.07566944 -0.00142047 -0.00239068 0.00105067
O 10.95759008 3.43720815 31.54314332 -0.00188285 -0.00121553 -0.00605392
O 9.72356598 10.03812640 17.82827285 0.00555717 0.00138755 0.00553535
O 15.63237099 8.74490670 25.67256942 0.00384588 -0.00044607 -0.00923694
O 10.88184117 9.91595346 26.05074535 -0.00465566 0.00247431 0.00180345
O 14.08839306 8.74148954 17.52910696 -0.00157259 0.00445548 0.00026380
O 15.61509487 2.66799520 32.05572559 0.00622423 0.00008938 -0.00422936
O 10.24356019 3.27726988 23.45285483 0.00302060 -0.00263295 -0.00044702
O 14.96620575 1.27778125 1.18391750 -0.00191160 -0.00241746 -0.00548110
O 10.65673207 5.10440078 25.63173648 0.00046008 -0.00040897 0.00327414
O 10.61705052 11.41699392 24.03427860 -0.00327988 -0.00556548 0.00492441
O 14.76926562 7.55842806 15.34955872 -0.00388306 0.00266582 0.00045969
O 10.75427595 11.84694761 15.60616631 -0.00394266 0.00494510 0.00189857
O 14.73513085 7.40221728 23.66881316 -0.00592139 -0.00687236 -0.00087657
O 14.61767879 0.91546816 26.13999742 -0.00025239 0.00154857 -0.00168633
O 10.95153562 5.18734966 0.48288042 0.00378107 -0.00172606 -0.00411654
O 14.45582713 15.41790877 7.06854885 0.00778994 -0.00111874 -0.00016307
O 11.59644901 16.71889556 15.56857998 -0.00022108 -0.00059293 0.00135391
O 10.34157824 22.92232913 1.92865984 0.00559565 0.00564347 0.00363154
O 15.27842830 21.74816580 9.64876241 -0.01011253 0.00126163 0.01192303
O 11.28967464 22.36090322 10.37445704 0.00813108 -0.00414934 -0.00096662
O 14.75479709 21.82052804 1.22656780 -0.00111767 -0.00156578 0.00088219
O 15.08018357 15.63571956 15.33262827 -0.00437245 -0.00080434 0.00414192
O 10.07732574 16.73415348 7.00065655 0.00377002 -0.00256381 0.00233249
O 14.63609255 14.00228185 17.26476493 -0.00040129 -0.00511688 0.00291038
O 10.48486953 17.54505389 9.40232294 0.00125720 -0.00448108 0.00250828
O 11.06106621 24.00853600 8.27269136 -0.00552715 -0.00585762 0.00124579
O 15.31773198 20.44907613 32.19539021 0.00456489 0.00448815 -0.00213704
O 10.28587810 24.31824143 32.91518836 0.00134920 0.00601434 -0.00164212
O 14.92571093 20.35515027 7.36413085 -0.00006177 -0.00334324 0.00148103
O 15.16096617 13.77504374 9.16066270 0.00081513 -0.00276554 0.01308309
O 10.67002589 17.81623322 17.71809605 -0.00261046 -0.00077457 -0.00192578
O 14.45808754 15.40882246 23.41258749 -0.00108015 -0.00493324 0.00245086
O 11.26828454 16.76194977 32.08537601 0.00448890 0.00277340 -0.00200724
O 10.32334910 22.36748494 18.24270272 -0.00003548 -0.00048893 0.00110366
O 15.79258394 21.72753454 26.17186178 0.00637793 -0.00131505 -0.00088038
O 11.00040045 22.89267939 26.66116435 0.00511017 -0.00109798 -0.00086433
O 14.06446173 21.73557642 18.15754689 0.00345980 0.00535982 -0.00136902
O 15.01569034 15.88233000 31.50674390 0.00185267 0.00144044 0.00543726
O 10.84939617 16.47261272 23.84527221 0.00069864 -0.00215348 -0.00604394
O 14.90279633 14.29306904 0.65058523 0.00381003 -0.00361946 0.00161710
O 10.79542767 18.01654052 25.80726462 -0.00774793 -0.00259951 0.00015440
O 10.38213179 24.01938678 24.53248974 0.00243624 0.00262948 0.00157091
O 14.82116074 20.48229348 16.08359644 -0.00201002 0.00634057 -0.00217928
O 10.47804102 24.23309203 16.33627472 -0.00375528 -0.00320037 0.00347626
O 15.18693875 20.46964911 24.18325311 -0.00416606 -0.00236879 0.00185763
O 15.14799276 13.83635243 25.52284364 0.00674529 0.00021834 -0.00197081
O 10.25706160 18.18408268 0.98161253 0.00078937 0.00686000 -0.00362132
O 23.26197762 2.63851419 7.71490962 -0.00054943 -0.00415545 -0.00543950
O 19.42771113 3.28224861 14.91306761 -0.00038647 -0.00259917 -0.00895805
O 18.34031083 10.03931973 0.93640182 -0.00519281 -0.00156275 0.00129226
O 23.90608621 9.11412728 9.40453453 -0.00000193 -0.00052725 0.00132450
O 19.52760264 10.31280996 8.99511109 0.00025001 0.00221009 0.00286393
O 22.81296803 8.73803263 0.73672576 0.00276341 -0.00094671 -0.00160242
O 23.82024091 2.63914819 16.05035404 -0.00172053 -0.00349172 -0.00267675
O 18.81957138 3.24360047 6.54726931 -0.00108102 0.00905067 0.00357035
O 23.07388430 1.06142029 18.00854145 -0.00779672 0.00102150 -0.00782248
O 19.24491263 4.94594375 8.81845625 -0.01103148 0.00211567 -0.00237756
O 19.08605281 11.75756508 6.85476003 0.00513717 0.00180545 0.00682344
O 23.43023040 7.05458185 31.96407987 -0.00570829 -0.00810265 0.00620696
O 18.78569416 11.67023895 31.90741886 -0.00296624 0.00695421 -0.00054204
O 23.23467678 7.89250386 7.16965196 0.00453796 0.00089981 0.00028879
O 23.64859483 1.20234219 9.92033841 0.00660272 0.00981376 -0.00356938
O 19.05652874 4.71053889 17.08060514 -0.00536506 -0.00250260 0.00120537
O 23.27414892 2.62376282 24.06276489 -0.00271812 0.00431319 -0.00026126
O 19.25498701 3.66528932 31.47609327 -0.00096865 0.00097877 -0.00207046
O 18.24501072 9.87828431 17.91389317 0.00014505 0.00156408 -0.00538646
O 24.06636978 9.06842178 25.95765742 0.00227556 0.00292171 0.00014748
O 19.42622800 9.69888797 25.86399988 0.00720560 -0.00225214 0.00147180
O 22.63967740 8.44064556 17.46060035 -0.00090844 -0.00492031 0.00197741
O 24.30041507 2.70428463 31.96906385 0.00309755 0.00213369 -0.00165379
O 18.50539122 3.65607384 23.48466038 -0.00197129 -0.00451387 -0.00198393
O 23.94407846 1.38705554 1.41012038 0.00366551 -0.00183604 -0.00364211
O 19.34419506 5.19155613 25.29626699 -0.00791716 -0.00434894 0.00565670
O 19.53366154 11.35914978 24.01959860 0.00148326 0.00340384 0.00101360
O 23.60213305 7.40294299 15.38740017 -0.00016334 -0.00470253 -0.00452880
O 18.72528592 10.89073347 15.56273727 -0.00191125 -0.00234976 0.00215425
O 23.42700683 7.76678449 23.71564851 -0.00559139 0.00431877 -0.00262146
O 23.63438046 0.91164604 26.01336383 0.00029217 -0.00385314 0.00034824
O 18.76885125 5.40608398 0.74641875 -0.00658501 0.00245091 -0.00287760
O 22.85014171 15.31559300 6.51647281 -0.00230578 -0.00276623 0.00105307
O 19.72506999 15.87389604 14.81750984 0.00770117 0.00180348 -0.00479496
O 18.32821322 22.81754581 1.51638666 0.00688612 -0.00204096 -0.00629903
O 23.72018834 21.48198178 9.26655733 0.00686692 0.00035020 0.00483470
O 19.70078513 22.50732456 10.05744745 0.00324656 -0.00284732 0.00361923
O 22.53622385 21.94406982 1.13707696 0.00202045 -0.00447296 0.00223149
O 23.48567937 15.59943803 14.67801920 -0.00317543 0.00436806 -0.00517775
O 18.41771331 16.80226281 6.74922931 -0.00131699 -0.00254233 0.00598139
O 23.24344478 13.91956747 16.79628516 -0.00193313 0.00485281 -0.00183801
O 19.06431326 17.99033016 8.84297411 -0.00487465 -0.00022798 -0.00030108
O 19.87966285 23.84961504 7.82343230 -0.00085705 0.00407956 0.00147285
O 23.22903482 20.65546910 32.17048309 0.00306326 -0.00476758 0.00833345
O 19.19327603 24.27533399 32.45247083 -0.00029146 0.00315985 -0.00316171
O 23.30588398 20.10328779 7.10095125 0.00675485 -0.00323066 -0.00715703
O 23.21097263 13.81168619 8.57248420 -0.00187867 -0.00432238 0.00694401
O 19.47700752 17.45471883 16.91063618 0.00111836 -0.00741977 0.00489454
O 23.02362418 15.37685381 23.13803165 0.00221016 -0.00546045 -0.00226833
O 20.12251987 16.89345232 31.49016392 0.00466373 0.00205214 -0.00514802
O 18.69227047 22.27514763 18.42783885 0.00021023 0.00244124 -0.00368611
O 23.83124460 21.54344016 25.97201077 -0.00145052 -0.00242141 0.00471139
O 19.22750745 22.68505314 26.37700503 0.00336513 -0.00427924 0.00161332
O 22.62529051 21.46513660 17.82978088 0.00607054 -0.00523510 0.00503474
O 23.82205885 15.52383227 31.44395622 -0.00255700 -0.00237782 0.00009110
O 18.64243093 16.70635512 23.36068334 0.00008473 0.00019201 0.00476816
O 23.35315127 13.87808711 0.36433247 -0.00131769 -0.00225462 0.00170725
O 19.40759739 18.11128112 25.42762758 -0.00294339 -0.00259380 0.00030227
O 19.28785586 24.41525901 24.62246109 0.01051749 0.00195585 0.00048468
O 23.66038525 20.41734032 15.54476686 -0.00094828 -0.00013323 -0.00377615
O 18.84888791 23.74805193 16.26792650 0.00303051 -0.00955076 -0.00246100
O 23.17845228 20.17509635 23.87964786 -0.00335133 0.00429482 0.00250135
O 23.37175613 13.98865824 25.30849873 0.00510328 0.00083924 -0.00153884
O 19.14894153 17.92701548 0.69370970 0.00513807 -0.00679893 0.00482736
N 7.59688551 12.82634481 1.97563634 -0.00025374 -0.00244424 0.00854509
N 1.06414905 6.40241734 11.03550560 0.00102413 0.00579638 -0.00422583
N 3.32189439 25.30621037 6.55723636 0.00452025 -0.00006785 0.00333942
N 5.11604264 6.62618620 14.07054659 -0.00012423 0.00481384 -0.00122508
N 0.77464739 25.23475517 14.63395425 -0.00339493 0.00027858 -0.00039547
N 7.60431351 7.02331667 5.75541999 -0.00759809 0.00482868 -0.00590684
N 5.53908831 12.49320256 10.52182487 -0.00228522 0.00390967 -0.00531738
N 3.27862895 6.43504488 2.90063408 0.00498161 0.00404377 -0.00232065
N 7.46639419 13.11228847 18.30746763 -0.00382053 -0.00112997 -0.00240924
N 1.22192412 6.68288561 27.36748524 -0.00585717 -0.00183515 0.00205561
N 3.16811563 25.33250686 23.02943373 0.00443765 -0.00248959 0.00373619
N 5.52366093 6.69522632 30.78113645 -0.00174843 0.00081058 -0.00018068
N 1.00230811 0.06058743 31.09695541 0.00064289 0.00343220 -0.00334308
N 7.56301908 6.42081909 22.06833969 -0.00374075 -0.00303143 -0.00725117
N 5.52188664 13.02909602 26.67829176 0.00184967 0.00344278 0.00769025
N 3.38241846 6.44607182 19.17099420 -0.00346918 -0.00607069 0.00599437
N 7.72628479 0.19884757 2.73519337 -0.00443993 0.00265178 -0.00882834
N 1.14888367 19.06290324 10.39182542 0.00853698 0.00211566 -0.00338273
N 3.50223101 12.68670248 5.84661181 -0.01082784 -0.00240764 -0.00131897
N 5.25914193 19.60067261 14.33374954 -0.00243045 0.00061542 0.00116388
N 0.87508586 12.43670437 13.78026804 0.00426009 -0.00049856 0.00206708
N 7.50441303 19.36638532 5.56284094 0.00317467 -0.00124536 -0.00279474
N 5.43721725 25.05116798 11.39019018 -0.00270204 0.00470017 0.00360238
N 3.41066273 18.92690756 1.98581649 0.00359308 -0.00403135 0.00179714
N 7.49696950 25.39445148 19.57485799 -0.00363395 0.00347583 0.00322800
N 0.99565766 18.96199442 27.36050717 0.00125143 0.00204583 0.00226659
N 3.62300229 12.68812963 21.91068994 -0.00028203 0.00229015 0.00818117
N 5.14860363 19.47142179 30.57852595 0.00145980 0.00210917 0.00082596
N 1.00661480 12.81464638 30.05838665 -0.00258724 0.00037521 -0.00527730
N 7.10836604 19.14816285 22.24699633 0.00154992 -0.00163408 -0.00324458
N 5.05813906 0.15560462 27.93926901 -0.00058969 0.00239368 -0.00060618
N 2.64488662 19.54718895 18.42789962 -0.00134204 0.00383239 -0.00455678
N 16.25696044 13.23363753 2.18067468 0.01041565 0.00424028 0.00219452
N 9.59619942 6.09461860 10.44809918 0.00161734 -0.00397903 -0.00922241
N 11.57180589 0.08005834 6.61261285 0.00130705 -0.00067727 0.00578025
N 13.63783295 6.42747339 13.68515021 -0.00200039 -0.00748335 0.00693171
N 9.42667000 25.32774928 14.64389904 0.00337258 -0.00015702 0.00499335
N 16.10466226 6.44795082 5.33721134 0.00344101 0.00009865 0.00114525
N 13.65990024 12.97380099 10.69663323 -0.00073979 0.00225935 0.00142339
N 11.65032941 6.40745854 2.30553601 0.00206310 0.00134250 0.00075516
N 16.14403917 13.00738303 18.70941278 -0.00612540 -0.00242942 0.00198281
N 9.73425756 6.55807265 27.15149335 0.00067843 0.00153455 -0.00171413
N 11.45487431 25.26912084 22.92785396 0.00148910 0.00478335 -0.00381138
N 13.81265308 6.54896291 30.41948160 -0.00689522 -0.00385260 -0.01155437
N 9.38975687 0.12511369 31.23940543 -0.00022511 -0.00615382 -0.00390513
N 15.81063583 6.12187730 22.16939305 0.00318324 0.00102651 0.00210120
N 13.91422577 12.71559371 27.17858806 0.00201109 -0.00180632 0.00077323
N 11.64455004 6.16421837 18.90188696 0.00243999 0.00408275 0.00236670
N 16.43212452 0.31587690 2.67543442 0.00430143 -0.00036453 -0.00242106
N 9.49404580 18.89419222 10.92648830 -0.00213041 0.00127454 -0.00545742
N 11.80790972 12.75967421 5.60799295 -0.00271370 0.00149440 -0.00634345
N 13.83773220 19.24242050 14.40862398 -0.00740195 0.00298018 0.00472725
N 9.59225150 12.75779297 13.81544485 -0.00245362 -0.00200073 0.00357549
N 16.07965872 19.06054480 5.87961996 -0.00166297 0.00000375 -0.00653020
N 13.83862126 25.33428782 10.85118461 0.00208074 -0.00015785 -0.00144180
N 11.93880004 19.08075318 2.33649736 -0.00093130 -0.00886756 -0.00287555
N 16.08196392 0.01162041 19.40828187 -0.01030119 0.00623708 0.00037137
N 9.54452154 19.05075278 27.42006859 0.00516439 -0.00042066 -0.00396849
N 11.82771838 12.41705971 22.35698768 -0.00493632 0.00020638 -0.00258247
N 13.92775241 19.40020738 30.67966617 0.00437769 -0.00942157 -0.00125268
N 9.75901936 13.10142313 30.48735826 0.00761092 0.00073863 0.00877083
N 16.21547902 19.18571320 22.57281206 0.00015603 -0.00369857 0.00005292
N 13.38816890 25.44800417 27.81907989 -0.00264310 -0.00752069 0.00885390
N 11.57604833 19.37668393 19.18318179 0.00674572 -0.00603480 0.00020736
N 24.70848390 12.90047297 1.91428136 0.00235857 -0.00216949 0.00360855
N 17.99847363 6.25252675 10.31847614 -0.00964866 0.00336569 0.00422341
N 20.61376108 25.03536415 6.04696495 0.00619624 0.00146368 0.00190873
N 22.21353603 6.32484733 13.88419966 0.00184786 0.00281784 0.00472114
N 18.13438014 25.22176167 14.61622177 -0.00250218 -0.00001765 0.00017241
N 24.61295174 6.88619884 5.67916381 0.01017583 0.00178452 -0.00092012
N 22.10557331 12.60923736 10.19604116 0.00408648 0.00388962 -0.00274679
N 20.36697867 6.32330375 2.13466180 0.00756896 0.00233406 -0.00468583
N 24.21533932 12.66253686 18.46542698 0.00224832 -0.00083778 0.00149519
N 18.08833879 6.39980166 26.83690983 0.00128499 -0.00519825 0.00932647
N 20.20053681 0.05670660 22.77745473 0.00268895 -0.00208119 0.00331234
N 22.38630419 6.02216201 30.24331827 0.00133673 0.00527551 0.00167836
N 18.22474764 0.13738045 30.96224434 0.00114970 0.00236651 -0.00791910
N 24.50857176 6.44491154 22.23623213 0.00095633 -0.00107328 -0.00041201
N 22.34903104 12.74944385 26.91523634 -0.00128255 0.00790938 0.00846829
N 20.09187792 5.85033006 18.74804157 -0.00487669 0.00633113 0.00634092
N 24.75586294 0.18518965 3.08698103 0.00806843 0.00335619 0.00060312
N 17.99359737 19.08749860 10.57342344 0.00327141 -0.00268913 -0.00641688
N 20.36137795 12.92529026 5.32650337 0.00339213 -0.00422350 0.00360330
N 22.41517737 19.11596398 14.08640485 -0.00354014 0.00080350 0.00324375
N 17.60779366 11.96998002 13.89957490 0.00264532 -0.00409631 0.00069638
N 24.76163802 19.33689461 5.47240300 -0.00532941 0.00255356 0.00196626
N 22.16071894 0.20861909 11.25379892 -0.00461603 -0.00912370 -0.00749123
N 20.33503865 19.18923051 2.22324356 -0.00493016 -0.00113113 -0.00411778
N 24.47292600 25.40912493 19.48667107 0.00083982 0.01133990 0.00049537
N 18.23916167 19.16589834 27.00118346 0.00275618 -0.00133902 -0.00241831
N 20.39941619 12.58328068 22.29274013 0.00005514 -0.00138805 0.00405579
N 22.27627142 19.26111220 30.73780384 -0.00306216 -0.00349854 0.00173711
N 18.63400141 13.05521576 30.10987706 0.00603309 -0.00884881 -0.00180400
N 24.60306484 19.19825148 22.31825705 0.00082478 -0.00243959 -0.00016191
N 22.21226836 0.02156284 27.66002681 -0.00533249 0.00577053 -0.00036296
N 19.96266463 19.03759800 18.47880363 -0.00502800 -0.00494778 -0.00083598
C 7.73352774 0.13710156 5.13921558 -0.00058745 -0.00152512 -0.00455082
C 0.87624254 5.92215948 13.29773530 0.00775118 0.00293122 0.00376301
C 3.36070337 12.56191946 3.41457236 0.00218189 0.00083702 0.00962026
C 5.22842564 6.70151668 11.66343629 0.00838415 -0.00394427 -0.00438167
C 0.92411044 12.21356880 11.47410778 0.00322978 -0.00932684 -0.00112710
C 7.57679247 7.16911215 3.35581908 0.00143220 -0.00111651 0.00042067
C 5.03162219 0.16136034 13.67835690 0.00261400 0.00158183 0.00158664
C 3.30380840 5.95431280 5.17724929 -0.00336651 0.00276795 0.00178275
C 7.49311709 0.71825949 6.38498717 -0.00420587 -0.00250471 0.00418685
C 1.19528388 5.24175447 14.45456852 0.00078643 -0.00322645 0.00048035
C 2.82071754 11.99039253 2.29290376 0.00440934 0.00391089 0.00263555
C 5.44716755 7.38038304 10.47489645 0.00385004 0.00267598 -0.00393253
C 1.38858429 11.60766415 10.28952543 0.00188455 -0.00834396 -0.00020713
C 7.03131696 7.72400597 2.22640491 0.00221529 0.01092871 -0.00429743
C 5.30973514 0.94698737 14.76498678 -0.00247861 -0.00493154 0.00135268
C 2.83214778 5.24841491 6.26947421 0.00370197 0.00313103 0.00024821
C 6.73061038 1.86863461 6.46188691 -0.00237699 -0.01031594 0.00741580
C 2.16353589 4.16193421 14.26762354 0.00263977 -0.00116831 -0.00176368
C 2.02486843 10.84001472 2.35316219 -0.00057651 -0.00542192 0.00279991
C 6.47282722 8.37974121 10.49482494 -0.00267019 0.00556168 0.00252083
C 2.36374770 10.56693056 10.42701058 0.00100812 0.00229782 0.00351032
C 6.39699771 8.95910293 2.23362678 0.00692117 0.00429520 -0.00334307
C 6.15486262 2.04297660 14.65770640 0.00135874 -0.00518701 0.00376024
C 2.17762810 4.02832851 6.08689221 -0.00074872 -0.00096628 0.00317555
C 6.18065860 2.42133356 5.29736583 0.00107135 0.00209375 0.00366972
C 2.27525022 3.55108671 13.07238107 0.00859095 -0.00271119 0.00054889
C 1.80910108 10.25873164 3.59521086 -0.00021310 -0.00258415 0.00476451
C 6.93869885 8.89424518 11.68984320 0.00403253 -0.00181022 -0.00173666
C 2.63117733 9.99204249 11.64833148 0.00213522 0.00341610 -0.00406510
C 6.11539894 9.63431719 3.44925293 0.00528066 -0.00583227 -0.00381214
C 6.58636729 2.46718783 13.38223007 0.00134442 -0.00231885 -0.00950582
C 2.05674729 3.48422514 4.77196441 0.00919917 -0.00298281 -0.00552560
C 6.58144485 1.94310327 4.05936514 -0.00526227 -0.00253806 0.00464523
C 1.72477665 4.14462797 11.89323416 0.00423821 0.00697047 0.00714101
C 2.21889791 10.90536601 4.73314860 -0.01033999 -0.00297824 0.00640952
C 6.53256884 8.38936426 12.88827537 0.00342345 0.00128840 -0.00313886
C 2.12214481 10.58823819 12.82161801 0.00171986 0.00266015 0.00149299
C 6.48928084 9.02279735 4.61582759 0.00337202 -0.00180912 -0.00309562
C 6.27965104 1.73367879 12.28758241 0.00362774 -0.00790216 0.00453552
C 2.35971919 4.30417599 3.70477684 -0.00144916 0.00468787 0.00465341
C 7.35120981 0.75735592 3.95196134 0.00012652 0.00090859 -0.00169020
C 1.18757448 5.46282823 12.01822134 -0.00351425 0.00266825 -0.00458800
C 3.02877167 12.05227423 4.69229344 0.00879314 0.00969422 -0.00013501
C 5.64674245 7.25906773 12.91633897 -0.00718590 0.00427343 -0.00185430
C 1.36694253 11.75005132 12.69154979 0.00482258 0.00114269 0.00102774
C 7.15867839 7.69868643 4.60089410 0.00450284 -0.00274068 -0.00389690
C 5.63351104 0.47968077 12.39407253 -0.00485159 -0.00807457 0.00010467
C 3.00055024 5.52420830 3.87728795 0.00099562 0.00443221 -0.00336338
C 6.99479762 0.31427044 1.61591777 0.00316192 0.00039232 -0.00594032
C 1.42579273 6.13168822 9.70920616 0.00440456 -0.00127216 0.00844639
C 2.93486223 12.53422552 7.06788121 -0.00290096 -0.00885159 -0.00585189
C 5.68957596 6.75916457 15.28307383 0.00839607 -0.00315800 0.00192410
C 1.36593034 12.15768986 15.07680572 0.00368591 -0.00431338 -0.00061096
C 6.86471021 6.94572638 6.89780019 0.00377232 -0.00039020 -0.00818975
C 5.86171330 25.21662303 10.09816100 0.00168441 0.00745507 -0.00091505
C 2.92426169 6.28075522 1.60263891 -0.00693387 0.00042545 0.00942242
C 6.80580367 12.23871257 16.13081523 0.00139407 0.00336979 0.00107357
C 1.34510926 7.28108234 8.79169655 0.00255984 0.00547572 -0.00595059
C 3.09362421 0.76285613 8.74996413 -0.00576170 -0.00032335 -0.00004617
C 6.07352797 5.56518423 32.78206629 0.00444030 -0.00785054 0.00708332
C 1.61729702 1.32382012 0.03186507 0.00907039 -0.00253982 -0.00203621
C 7.16497625 5.84622075 7.88100465 0.00264344 -0.00351477 0.00397668
C 5.72975873 11.52242206 8.21984450 -0.00624104 0.00262504 -0.00528573
C 2.70554948 7.44507527 17.08632637 -0.00723477 0.00069386 0.00409394
C 7.45096013 0.24457407 21.98507633 -0.00332190 0.00690164 0.00090767
C 1.06737424 6.21396154 29.76455085 -0.00851789 -0.00613429 0.00518428
C 3.50821262 12.20555069 19.58947852 0.00257703 -0.00434297 -0.00432467
C 5.23269799 6.87238371 28.41516566 0.00460779 -0.00045983 0.00237500
C 1.11766423 12.35419132 27.76569724 0.00828117 0.00983613 0.00207303
C 7.67485763 6.83338629 19.64780376 -0.00423667 0.00131950 -0.00728211
C 4.94336952 0.46543266 30.28913229 0.00765282 0.00429769 -0.00425982
C 3.32487448 6.05791706 21.60065839 -0.00533354 -0.00351889 0.00491903
C 7.00435649 0.93356873 23.06831251 0.00072783 0.00008680 -0.00106530
C 1.46158121 5.51531790 30.87331495 0.00230449 0.00109247 -0.00282378
C 2.96331790 11.63328118 18.48139932 -0.00242509 -0.00819403 -0.00685679
C 5.54371059 7.50360368 27.21093423 0.00812805 -0.00018651 0.00512777
C 1.63309262 11.67415272 26.67859615 -0.01096161 -0.00677157 0.00018337
C 7.11899664 7.47088092 18.57065610 0.00331245 0.00377557 0.00101697
C 5.35837798 1.17584781 31.42809007 0.00502587 0.00040908 -0.00561156
C 2.87335396 5.24606182 22.57538909 -0.00400129 -0.01130359 0.00113095
C 6.15920092 2.04043256 22.97192839 -0.00374561 0.00140687 0.00177124
C 2.40194445 4.48671954 30.80818373 -0.00646957 -0.00007581 0.00264607
C 1.97496163 10.56793205 18.62830855 -0.00226282 -0.00040456 0.00480577
C 6.40818651 8.63021242 27.13221094 -0.00157700 -0.01282469 -0.00017185
C 2.51583809 10.57318820 26.81272198 -0.00286800 0.00406862 0.00361623
C 6.34588214 8.64775644 18.69726517 0.00093437 0.00323790 -0.00225984
C 6.30462282 2.24345228 31.33796443 0.00049085 0.00774466 -0.00100069
C 2.22101710 4.03302426 22.43944040 -0.00408641 -0.00226149 0.00346250
C 6.01068820 2.66838746 21.68663077 0.00442421 0.00026859 -0.00247436
C 2.49678520 3.90192769 29.53804589 -0.00200467 0.00097246 0.00284242
C 1.89007729 10.03080057 19.92790001 0.00128193 0.00734797 -0.00263141
C 6.81626633 9.19681561 28.35696214 0.00116720 0.00654223 -0.00081144
C 2.62025401 10.07099206 28.11134374 0.00342375 0.00146721 0.00524570
C 6.19471395 9.14871599 19.98559841 0.00289450 0.00048956 0.00567484
C 6.47949636 2.80415869 30.10030860 0.00017117 -0.00439858 -0.00129856
C 2.00381597 3.55870121 21.12867212 0.00257557 0.00127702 0.00291884
C 6.57994751 2.01380336 20.61328215 -0.00432075 -0.00223959 0.00783464
C 2.06494606 4.59490190 28.41493850 0.00208315 0.00344279 -0.00038854
C 2.37523137 10.63461153 21.07818263 0.00450551 -0.00186810 0.00089498
C 6.74335571 8.49406842 29.50477814 -0.00754078 0.00004630 -0.00219566
C 2.24896404 10.78875408 29.20207627 -0.00158747 0.00281052 0.00145424
C 6.63650022 8.50282334 21.13034308 0.00123419 -0.00375640 0.00983833
C 6.06224994 2.11610247 28.97576838 0.00106926 0.00915459 -0.00595012
C 2.32953899 4.34156224 20.03461339 -0.00164630 -0.00221016 -0.00836801
C 7.23201696 0.71445553 20.67255239 -0.00792684 0.00177665 -0.00347419
C 1.45655507 5.84882245 28.47044745 0.00210094 0.00997988 -0.00119152
C 3.13023841 11.85892203 20.91764698 0.00236471 -0.00264032 0.00140893
C 5.88389693 7.31837118 29.57570533 0.00151733 0.00629492 -0.00148184
C 1.47119441 11.98578302 29.08732031 0.00373563 0.00495952 -0.00153359
C 7.30836271 7.21098903 21.01557287 0.00178380 0.00124491 0.00393810
C 5.35106606 0.88731316 29.07989010 -0.00159993 -0.00287385 0.00313817
C 3.04729306 5.63352391 20.21336979 -0.00136400 -0.00616339 -0.00817188
C 7.12258827 0.18802398 18.27585291 0.00168845 0.00001872 -0.00512734
C 1.56474732 6.30456716 26.12388274 -0.00565088 0.00144937 0.00693561
C 3.20467314 12.68635867 23.18199485 0.00230013 0.00309841 0.00271350
C 6.13907394 6.83419702 31.99240355 0.00284459 0.00293248 0.00782886
C 1.40733691 12.60752093 31.32123962 -0.00256417 0.00310635 0.00074821
C 7.15568206 6.55707650 23.39128515 -0.00740446 0.00814898 -0.00672016
C 5.66156806 0.29182203 26.69004303 -0.00102582 0.00325077 -0.00055358
C 2.89411488 6.20843168 17.90163076 -0.00520383 -0.00770600 -0.01039890
C 7.39374519 12.15112239 32.71466671 -0.00409738 -0.00280933 -0.00151793
C 1.61206605 7.52278256 25.17572420 0.00227475 -0.00088386 -0.00327358
C 2.69643279 0.69222023 25.28897400 0.00322779 0.00628585 0.00189535
C 5.56760426 5.57830895 16.23950498 -0.00303806 0.00412558 0.00152614
C 1.42599234 1.15800620 16.52863409 0.00348212 0.00052547 -0.00596852
C 7.19595818 5.30228841 24.21497413 0.00201691 0.00846463 0.00239557
C 6.27726312 11.79977695 24.75397328 -0.00550236 0.00110816 -0.00585801