1920
Time=45000.00000003 pbc="T T T" Lattice="25.34179942 0.00000000 0.00000000 0.00000000 25.64418075 0.00000000 0.00000000 0.00000000 33.06688293" energy=-12244.49089813 virial="-43.16849497 -17.52348357 -5.99101821 -17.52348357 -73.35347577 -47.32783636 -5.99101821 -47.32783636 -67.20851331" stress="0.00033847 -0.00077744 -0.00028793 -0.00077744 -0.00113275 -0.00214437 -0.00028793 -0.00214437 -0.00088757" Properties=species:S:1:pos:R:3:vel:R:3
O 5.96758022 2.77920921 6.84463617 -0.00091907 0.00041392 -0.00354821
O 2.52821684 3.45298951 14.92054175 -0.00732547 -0.00032749 0.00513474
O 1.88678664 10.19215667 1.88384680 -0.00038020 -0.00210035 0.00403658
O 6.78154173 8.86298343 9.70838897 -0.00460020 0.00022630 -0.00253007
O 2.57236450 10.18802875 9.95867686 -0.00441613 0.00237643 0.00054788
O 6.02702754 9.30055412 1.59240226 -0.00178875 -0.00465741 0.00362972
O 6.64140126 2.54986169 15.14444676 0.00149989 -0.00196125 -0.00358864
O 2.17598216 3.37370317 6.65640517 0.00167383 -0.00039569 0.00528603
O 6.41789979 0.84138384 17.12411210 -0.00604707 -0.00318189 -0.00095535
O 1.69231999 5.07488540 8.75165781 -0.00263125 -0.00437916 0.00241453
O 2.11049694 11.55759255 8.03113354 -0.00019123 0.00726246 0.00091113
O 6.32426417 8.01985600 32.49907510 0.00055268 0.00267380 0.00097833
O 2.32781757 11.64771374 32.61855019 -0.00168260 -0.00326060 -0.00564700
O 6.38031734 7.53674471 7.56050037 -0.00032093 0.00128202 -0.00246506
O 6.17612801 1.20837573 8.86161684 0.00057624 0.00173078 0.00639143
O 2.18163682 4.61814395 17.17013809 -0.00174518 0.00518827 -0.00323762
O 5.81040185 3.01468396 23.13432493 -0.00251484 -0.00297747 -0.00001986
O 2.94432669 4.20807627 31.60936669 0.00544006 -0.00201107 0.00294442
O 1.53138557 10.08474012 18.19463532 0.00184326 -0.00553650 -0.00490220
O 7.06015767 8.84123495 26.19000990 0.00510555 -0.00283050 -0.00044856
O 2.78407701 10.33445150 26.42712323 -0.00067053 0.00338135 0.00082335
O 5.80742960 8.75271304 17.93348403 0.00283595 0.00112900 -0.00000162
O 6.98453036 3.03919177 31.60193198 -0.00117663 -0.00643988 -0.00425031
O 1.48282996 3.83702384 23.47556787 -0.00503082 0.00538277 0.00323094
O 6.67126662 1.57907951 0.64220406 0.00349260 -0.00447130 -0.00639265
O 2.22314240 5.39174774 25.40574582 0.00079766 -0.00465381 0.00050302
O 1.78548080 11.56892851 24.43196562 0.00040170 0.00174057 -0.00062138
O 6.59455046 7.40137159 15.73000307 0.00009576 -0.00829508 0.00033567
O 2.03308663 11.76995007 16.15244009 0.00951575 -0.00167892 0.00198508
O 6.19563806 7.43659511 24.00606742 0.00154808 0.00870042 -0.00104296
O 5.79231309 1.72729292 25.46100616 0.00375853 0.00007812 0.00002178
O 2.07480115 5.51043526 0.67198731 -0.00378148 0.00004124 -0.00517546
O 5.78887038 15.66816263 7.44529488 -0.00242480 -0.00608906 0.00120319
O 2.44107989 16.52168442 14.98894786 -0.00384652 -0.00362354 -0.00338965
O 1.79971303 23.20324777 1.07173203 0.00228203 0.00396190 -0.00269963
O 6.23799360 22.14686911 9.47266035 -0.00255762 0.00289977 -0.00025602
O 2.48538908 23.05822103 9.12994456 0.00154677 0.00037510 0.00234825
O 6.37544351 21.93643712 0.94044090 0.00455897 0.00209906 -0.00225689
O 6.83988675 15.66457596 15.55970337 0.00024348 -0.00338028 0.00199228
O 1.78240723 16.45141894 6.60199460 0.00304121 -0.00245471 -0.00379212
O 6.27727591 14.20259036 17.69348813 0.00338876 0.00031087 -0.00087565
O 1.66083625 17.72240926 8.71406583 0.00019049 -0.01017409 -0.00075484
O 1.54000825 24.42497912 7.17997325 -0.00355363 -0.00049697 0.00163861
O 6.68860884 20.12940338 32.25962923 0.00646602 -0.00368441 0.00237174
O 2.62837626 24.50659283 31.80687952 -0.00050906 -0.00732896 -0.00544125
O 6.27511795 20.58662588 7.22341310 0.00619402 0.00384957 -0.00104200
O 6.33077945 13.92697714 9.28266641 -0.00026954 0.00491267 0.00286632
O 2.54756294 17.58039843 17.26315374 -0.00417458 0.00005774 0.00091828
O 5.94022350 15.54501668 24.00219719 0.00190975 0.00229474 -0.00549737
O 2.28310696 16.07861259 31.66927691 0.00602927 -0.00149338 -0.00448142
O 1.83301136 22.64790104 17.45952568 0.00215745 -0.00663079 0.00110910
O 6.37821995 22.15431136 26.02848353 -0.00049551 -0.00174873 -0.00407418
O 2.39983962 22.85354129 25.77960056 0.00155148 0.00309538 -0.00334949
O 5.63189855 21.61378732 17.61024219 -0.00171791 0.00540985 0.00354464
O 7.01622888 15.49558549 31.95703685 0.00000950 -0.00200470 0.00243403
O 1.76099255 16.02460534 23.32449615 -0.00435529 0.00460647 0.00849364
O 6.45976944 14.25969959 1.22057772 0.00103981 -0.01097202 0.00250063
O 1.85968718 17.72707890 25.36323288 0.00499942 -0.00052651 -0.00849812
O 2.02010485 24.38725335 23.73799189 0.00240883 0.00211628 0.00003588
O 6.72404754 20.44131163 15.59285380 0.00193073 0.00710339 0.00014147
O 2.35087024 24.18553071 15.37751335 0.00135832 -0.00251889 -0.00708675
O 6.26980136 20.45580522 23.85509304 -0.00334546 0.00536423 -0.01015721
O 6.03863143 13.88422858 25.96200750 -0.00120755 0.00915755 0.00088797
O 2.07756941 18.14018684 0.63384832 -0.00114165 0.00251486 0.00276658
O 14.31004935 3.00689033 6.72835032 -0.00199071 0.00316299 0.00333257
O 10.99668683 3.74743567 15.70305983 0.00541325 -0.00241243 0.00177127
O 10.43616797 10.31952719 1.81088001 -0.00405462 -0.00374676 0.00413453
O 14.89474564 9.32294558 10.04049597 -0.00359433 -0.00560612 0.00691920
O 10.65649862 9.71565446 10.23071596 0.00698197 0.01007265 -0.00339208
O 13.99020619 9.13558867 1.62893026 -0.00157542 -0.00107513 0.00207567
O 14.88585486 2.88462413 15.31333490 0.00305230 -0.00374128 0.00332595
O 9.67942914 3.75099474 7.28008958 0.00583485 -0.00323081 -0.00191629
O 14.55755576 0.70276901 16.92413312 -0.00108656 0.00404801 0.00453242
O 10.40862309 4.75042671 9.43127763 0.01290413 -0.00174946 -0.00381266
O 10.49905124 11.33278410 8.11274345 -0.00321538 0.00287084 0.00146580
O 14.51578971 7.81960352 32.49720532 -0.00792766 -0.00238053 -0.00865852
O 10.51294644 11.45865456 32.47133315 -0.00415901 0.00080730 0.00058200
O 14.92787862 7.89030064 7.75895042 0.00158452 0.00262787 -0.00350052
O 14.97186349 1.64428172 8.88267959 0.00353665 0.00125301 0.00205713
O 10.15496203 5.30734341 17.53243028 0.00013184 -0.00307711 0.00265853
O 14.13157534 2.07222940 23.26300713 0.00809129 -0.00355684 -0.00448371
O 10.87147487 3.64796106 32.05122414 0.00135034 -0.00493291 -0.00228713
O 9.67009574 9.90679649 18.47053024 0.00536400 0.00033028 0.00425139
O 15.12729582 8.82870611 26.01263951 0.00038145 0.00105916 -0.00021370
O 11.40817904 10.20516361 26.20641701 -0.00685769 -0.00232946 0.01153414
O 13.95585168 8.96269745 18.04731698 0.00288767 -0.00638143 -0.00435995
O 15.92631406 2.75635192 31.33840204 -0.00130520 0.00292535 -0.00365434
O 9.88933000 3.97102663 23.62812471 0.00092908 0.00023415 -0.00188434
O 15.09050042 1.82038106 0.48219164 -0.00590734 0.00223434 0.00266119
O 11.12164575 5.27318299 25.93839937 -0.00557402 -0.00201348 -0.00183664
O 10.50223732 11.80066046 24.39492520 0.00442913 -0.00135029 0.00246381
O 14.89452922 7.51439276 16.11698590 0.00044859 -0.00274391 -0.00293774
O 9.72490093 11.43378638 16.45024502 0.00907750 -0.01060912 -0.00260857
O 14.32677864 7.18676755 23.98248538 0.00030742 -0.00131555 0.00038029
O 14.71437100 1.03060849 25.44990197 0.00100222 -0.00119692 0.00259622
O 10.88781903 5.18016910 1.24474188 -0.00134862 -0.00548466 -0.00048147
O 14.44127966 15.87104079 6.94604601 -0.00350516 -0.00039729 0.00345883
O 10.56677527 16.37071492 14.98501311 0.00321654 -0.00223007 -0.00013122
O 10.05650218 23.03554689 1.16725474 0.00082636 0.00333130 -0.00031940
O 15.41070818 22.09828963 9.49610376 0.00223332 0.00742275 0.00826861
O 11.24583298 22.92516524 9.48714997 -0.00283732 0.00482594 -0.00338075
O 14.23214223 22.16501857 1.16835232 -0.00026794 -0.00310582 -0.00279425
O 15.17779824 15.15451645 15.42244684 0.00426641 0.00185071 -0.00214239
O 10.67471190 16.44307900 7.01008646 -0.00334277 0.00214327 0.00633839
O 14.36269614 13.70781560 17.27503911 0.00604772 0.00628402 -0.00026949
O 10.67630152 18.30923763 8.94661244 0.00468014 0.00540226 -0.00122932
O 10.83177758 24.26543534 7.35946264 -0.00359796 -0.00600461 -0.00217936
O 14.76256719 20.58861014 32.05860508 -0.00595479 -0.00153085 0.00289534
O 10.44521074 24.32822804 32.00136538 0.00336389 -0.00238361 -0.00000622
O 14.61307390 20.85495814 7.35601566 0.00128464 0.00241391 -0.00022684
O 14.19409878 14.32865465 9.19507559 -0.00154258 0.00144287 -0.00393897
O 10.79977392 17.98449225 17.04819834 -0.00054686 0.00445821 -0.00123092
O 14.25656243 15.48671806 23.59058525 -0.00147873 0.00071400 -0.00664947
O 10.52725016 16.81639781 31.80512840 0.00415024 0.00314951 0.00755514
O 10.13730372 22.77065496 17.67920780 0.00375765 -0.00225148 -0.00397574
O 15.41530634 21.83174178 25.80454146 -0.00753304 -0.00913786 -0.00276376
O 10.61155756 22.66737869 25.94354396 -0.00419161 -0.00399765 0.00150953
O 13.94275979 21.90836790 17.85592988 -0.00745496 -0.00339591 -0.00542362
O 14.91845852 15.73531162 31.65292663 0.00285617 -0.00161000 -0.00251363
O 10.29113211 16.47127457 23.28405689 -0.00024607 -0.00311288 0.00051004
O 14.77750845 14.18169566 0.83972823 -0.00333848 0.00788569 0.00491372
O 10.94710688 17.81978766 25.42953243 -0.00149897 0.00363054 0.00086557
O 10.81451185 24.43366916 23.94820764 0.00410828 0.00183013 0.00437605
O 14.14672442 20.47513339 15.61375793 0.00164875 0.00455968 0.00028187
O 10.36976768 24.36797800 15.73503366 -0.00445059 0.00084132 0.00435742
O 14.87618308 20.34960366 23.88826944 0.00619096 0.00139533 0.00359126
O 14.96994960 13.93501964 25.62833549 -0.00363142 -0.00129799 -0.00519368
O 10.52073348 18.20727477 0.95124315 -0.00317793 -0.00199545 -0.00049496
O 22.73458388 2.71088913 7.07023205 -0.00096843 -0.00239928 -0.00054604
O 19.21956980 3.92442024 15.50373388 0.00214894 0.00864121 -0.00013868
O 18.11139960 10.50157811 1.48817939 0.00326539 -0.00086053 -0.00153016
O 23.97430310 9.29791057 9.40752623 0.00082077 -0.00762779 -0.00823357
O 19.65229612 10.09952130 9.76747304 0.00693243 -0.00173120 -0.00092919
O 22.71257831 9.47038167 1.34008928 -0.00237069 0.00431924 0.00028620
O 23.70463671 2.91862918 14.96919091 -0.00355073 -0.00098549 0.00298865
O 18.60100381 4.00414528 7.03821255 -0.00029041 -0.00683505 0.00042947
O 23.58058455 1.03671143 16.82750844 0.00019817 -0.00584951 -0.00268766
O 18.86571318 4.96285134 9.26572862 0.00428534 -0.00298640 0.00514894
O 19.12680416 11.46881225 7.58031175 -0.00184132 -0.00093652 -0.00119753
O 23.20046186 8.12331815 32.26223129 -0.00113945 0.00271963 0.00276576
O 18.87534805 11.58874219 32.47824600 0.00600099 0.00054940 0.00130907
O 23.04303944 7.77672833 7.44405715 -0.00508024 0.00006944 0.00985397
O 23.66706887 1.04592434 8.91284764 -0.00063648 -0.00422438 -0.00110764
O 18.19059718 5.40371535 17.36921246 0.00535868 0.00465491 0.00082636
O 22.57936501 2.70291740 22.97530874 -0.00340235 0.00265132 -0.00072611
O 19.66384042 3.74765774 31.97396910 0.00153990 -0.00155859 -0.00020376
O 18.19624082 10.07770428 17.96192151 0.00414682 -0.00257231 0.00059767
O 23.77386134 8.99295581 25.76290567 -0.00015061 -0.00000424 0.00134944
O 19.61058145 10.12222005 26.25307017 0.00240307 -0.00414313 0.00343426
O 22.61656438 8.80722643 17.60573342 0.00249351 0.00041251 -0.00553090
O 23.56123200 3.09482049 31.35379711 0.00170664 -0.00329030 -0.00160417
O 18.68710685 3.53554101 23.39511821 -0.00275233 0.00177127 0.00429237
O 23.84567878 1.71831907 0.61168888 0.00625352 -0.00238234 -0.00841368
O 19.19047953 5.01492400 25.61336502 -0.00015081 -0.00384739 0.00478821
O 19.08110370 11.55448949 24.09348247 0.00062133 -0.00354934 -0.00604218
O 23.39359683 7.48861910 15.51299384 -0.00305634 0.00146971 0.00248165
O 18.78198109 11.65722238 15.83550884 0.00413614 0.00185779 -0.00495631
O 23.07543074 7.48417604 23.78154985 -0.00078909 0.00576884 -0.00182097
O 23.09141969 1.12088454 25.05236171 0.00347122 0.00229878 0.00338651
O 19.24529576 5.23459004 0.99943896 -0.00003180 -0.00660836 -0.00063198
O 22.00889466 15.36202666 7.57317658 -0.00335887 0.00283323 0.00377405
O 19.51744618 16.37743316 15.03777302 -0.00611871 -0.00693115 -0.00142745
O 18.69059349 22.85276364 1.10508708 -0.00305220 0.00631769 -0.00204932
O 23.68924598 21.64610583 9.35850318 -0.00148348 -0.00257889 -0.00862155
O 19.78167628 23.22280185 9.25381442 0.00328504 0.00434693 -0.00216340
O 23.29134009 22.14430889 1.02186101 0.00504159 0.00384859 0.00024514
O 23.95509176 15.29045597 15.70071117 0.00406608 0.00038447 0.00015025
O 18.23611126 16.52406398 6.94537612 -0.00465489 0.00081809 -0.00261136
O 23.36336554 13.86209234 17.79957657 0.00058971 -0.00667929 -0.00693052
O 18.83039078 18.30475449 8.80255390 -0.00688519 0.00292797 -0.01009503
O 19.10149981 24.48788946 7.16490236 -0.00072101 -0.00189294 -0.00154042
O 23.41843358 20.24469793 32.36539435 0.00147343 0.00230039 -0.00221570
O 18.82298997 24.08790213 31.76377488 -0.00067038 -0.00034053 0.00128020
O 23.04741362 20.26436190 7.14573078 0.00500999 -0.00083708 0.00151689
O 23.21147506 14.17392074 9.57009441 0.00290583 0.00304845 0.00149512
O 19.11020275 18.12100008 17.03092016 0.00210511 -0.00002223 -0.00150475
O 22.95366180 15.13221527 24.08771395 -0.00870653 -0.00116799 0.00081018
O 19.72204635 16.84820294 31.70253409 -0.00697079 -0.00039329 0.00350847
O 18.49575363 22.77998930 17.53332604 -0.00040459 0.00056933 -0.00688474
O 23.89887112 21.81063376 26.13409307 -0.00766649 0.00335042 0.00130218
O 19.31233860 22.53376427 25.58310337 -0.00285383 0.00296897 0.00008766
O 22.64981433 21.66859150 17.70978330 -0.00506132 -0.00469171 -0.00087445
O 23.90755864 15.25853472 32.36883982 0.00139006 0.00140036 0.00891107
O 18.65900375 16.29877376 23.10395357 -0.00323398 -0.00482475 0.00538662
O 23.08824610 14.14947191 1.55262071 0.00199079 -0.00386286 0.00169791
O 18.90340385 17.66064436 25.41150402 -0.00498289 -0.00122669 -0.00185096
O 19.19884138 24.27278490 23.65958322 0.00191685 0.00741182 0.00375434
O 22.97188118 20.45793437 15.51083002 0.00555173 0.01269551 -0.00345968
O 18.89377103 24.57850566 15.49230703 -0.00760462 0.00844050 0.00644751
O 23.34211453 20.26495705 24.01166094 -0.00196465 0.00167050 -0.00289041
O 23.69627802 13.76120120 26.30118802 0.00707667 0.00086086 0.00318418
O 19.06152485 17.91232994 0.89213687 -0.00577983 -0.00343320 0.00134301
N 7.69663474 13.26860698 2.84800200 -0.00370764 -0.00386771 -0.00002660
N 0.87096670 6.28926253 10.48314921 0.00508068 0.00068798 -0.00023164
N 3.18571082 25.54695694 5.92283008 0.00269391 0.00343213 -0.00380776
N 5.09840566 6.29957450 14.27746087 0.00354139 0.00534765 0.00045035
N 0.90919347 25.25764833 14.03697916 0.00286559 0.00420452 0.00355902
N 7.23658722 6.12871303 5.95896945 0.00695838 0.00535885 -0.00080985
N 5.38479310 12.80404846 11.04924901 0.00179086 -0.00334139 -0.00132337
N 3.32554764 6.59882833 2.26704678 -0.00003694 -0.00002001 -0.00754505
N 7.28358705 12.96327907 19.33371808 -0.00064495 -0.00760850 -0.00089455
N 0.89298798 6.53932278 26.96289428 0.00219996 -0.00267097 -0.00716304
N 3.19733714 25.52467398 22.09258774 0.00126220 0.00120163 0.00231342
N 5.27491153 6.64121735 30.88863854 0.00758663 0.00197281 0.00166121
N 1.13335119 25.54730653 30.39801699 -0.00169756 -0.00124271 0.00067228
N 7.09884805 5.95453966 22.49772001 0.01227603 -0.00689282 0.00330035
N 5.03244343 12.70399277 27.65016798 -0.00415025 0.00464403 -0.00464451
N 2.93093049 6.19227625 18.66122874 -0.00200596 -0.00730175 -0.00265157
N 7.45192585 0.17215474 2.25708072 -0.00372731 -0.00104680 -0.00219862
N 0.74395478 19.08281194 10.31706629 0.00177361 0.00192086 -0.00340474
N 3.21106279 12.85984279 6.51757363 -0.00537396 -0.00653760 -0.00565138
N 5.30235714 19.43114752 14.07011796 -0.00012638 0.00053791 0.00121577
N 1.10170490 13.05164068 14.57400761 0.00596671 -0.00872829 0.00176831
N 7.76532695 19.61606213 5.71896156 -0.00577199 -0.00584345 -0.00026925
N 4.80452048 0.24306194 10.41107531 0.00322081 0.00247393 0.00024461
N 3.13081940 19.40448290 2.19565703 -0.00083691 -0.00617684 0.00994495
N 7.65620992 25.62812550 18.90460489 0.00952386 -0.00767954 0.00297221
N 1.07739747 19.06185378 27.10609513 -0.00338429 0.00221500 0.00219458
N 3.20538280 12.59346324 22.90220960 0.00424883 -0.00503580 0.00182816
N 5.30182418 19.19043146 30.57237108 -0.00391727 0.00275735 -0.00628723
N 0.78292999 12.46525015 31.10082682 -0.00174517 -0.00189712 0.00078185
N 7.57645989 19.41939521 22.25814850 0.00086989 -0.00059551 0.00213509
N 5.63363816 0.20211335 27.16681596 -0.00037109 0.00502816 0.00381838
N 3.28880591 19.01447814 18.92095638 0.00829218 -0.00004605 -0.00142071
N 15.97257396 13.07215107 2.39551553 0.00595234 -0.00104310 -0.00068527
N 9.47751132 6.22548256 10.95375180 0.00451913 -0.00442951 0.00002627
N 11.97669010 25.46351918 5.76411537 0.00813375 0.00421554 -0.00077979
N 13.54054696 6.45114775 14.57295525 -0.00328752 0.01036011 0.00250983
N 9.60984144 25.60381243 13.98404356 -0.00244800 -0.00214437 -0.00346330
N 16.16985893 6.72982834 6.08801574 -0.00349560 -0.00030770 -0.00831384
N 13.52226477 12.80073730 10.67060112 0.00402097 -0.00347393 0.00116867
N 12.05865149 6.21388953 2.97064590 0.00107121 0.00131841 0.00464854
N 15.90303792 13.08222205 18.88566751 -0.00247315 -0.00110009 -0.00230213
N 9.58902775 6.26973188 27.33084251 -0.00771123 0.00473295 0.00197616
N 11.73394726 25.54868367 22.19234151 -0.00062019 -0.00702575 -0.00153576
N 13.79248917 6.35936818 30.71684785 0.00605531 -0.00031274 0.00672624
N 9.50758176 0.08958806 30.45868231 0.00203383 0.00027505 0.00369842
N 15.85493423 6.40330825 22.54376950 -0.00029454 -0.00187983 -0.00163814
N 13.63688642 12.89229116 27.15111362 -0.00111973 0.00638222 -0.00917848
N 11.59919068 6.39391619 18.93915689 0.00641713 0.00014996 -0.00339725
N 16.30928805 0.61264625 2.11552610 -0.00008955 -0.00440456 -0.00024638
N 9.18379364 19.18063477 10.42828805 0.00085985 -0.00414408 -0.00212768
N 11.53053725 12.76872644 6.64976200 -0.00121942 -0.00509278 -0.00402167
N 13.42361222 19.20979205 13.77892914 0.00209937 -0.00545881 -0.00287233
N 9.60773110 12.86618963 14.60451318 0.00111500 0.00444282 0.00949713
N 15.83672557 19.64457470 5.86763250 -0.00707972 0.00105482 0.00219191
N 13.86452641 0.37775314 10.48141430 0.00561217 0.00323536 0.00124700
N 11.57615424 19.56994325 2.47525536 -0.00829234 -0.00132120 0.00273579
N 16.00653491 25.51929765 18.42879212 0.00548392 0.00013986 -0.00082022
N 9.49798724 18.99140268 26.81080810 0.00849530 -0.01095035 0.00584172
N 11.49322774 12.98508774 22.71427372 0.00104249 0.00360595 -0.00512813
N 13.36835055 19.77736068 30.43564637 -0.00287991 0.00227781 -0.00496444
N 9.24401508 12.36722592 30.81021035 -0.00730961 0.00225932 0.00011284
N 16.34223374 19.63238672 22.30041901 -0.00816142 0.00066848 0.00558311
N 13.67678795 25.60077971 27.16063397 -0.00173576 -0.00018547 -0.00529678
N 11.66798361 19.26389317 18.70779251 0.00252680 0.00076583 0.00112640
N 24.47766750 13.21023110 3.12675104 0.00244575 -0.00259581 0.00451986
N 18.20687323 6.53070254 10.80408745 -0.00894891 -0.00596261 -0.00124320
N 20.43521828 25.52837742 5.70583253 0.00612548 -0.00160193 0.00845413
N 21.88746967 6.77159244 13.91366011 0.00037515 0.00011948 -0.00198525
N 17.71800719 0.00188615 13.73563802 0.00030709 0.00049169 -0.00175497
N 24.47072790 6.74890783 5.93495545 -0.00130610 0.00136717 0.00151065
N 22.16276215 12.86226102 11.11997465 0.00324182 -0.00105200 0.00211236
N 20.34301249 6.56237836 2.47190698 -0.00644401 -0.00163322 0.00485787
N 24.40951119 12.63297334 19.34679903 -0.00308305 0.00009517 -0.00528829
N 17.85387692 6.12421148 27.20585016 -0.00215516 -0.00018048 0.00373569
N 20.11834731 25.61572066 21.95697955 0.00149985 0.00186941 -0.00070634
N 21.99065375 6.88925374 30.63592026 0.00398479 -0.00807962 0.00509974
N 18.09725361 25.50417276 30.17196497 -0.00091925 0.00145474 0.00134320
N 24.22031648 6.14670789 22.17961712 0.00305467 -0.00065224 -0.00062390
N 21.74657880 13.32186784 27.43422846 -0.00663817 -0.00146886 0.00249678
N 19.84203090 6.24739379 18.65623721 -0.00439866 0.00491862 0.00042303
N 24.68281721 0.57830428 2.34353825 -0.00266028 0.00227861 -0.00698648
N 17.63482079 19.06976715 10.57170324 -0.00279813 -0.00381703 -0.00532722
N 20.25102755 12.77596668 6.05629850 0.00345041 -0.00042082 0.00164842
N 21.79846957 19.23755292 13.99878077 0.00075029 0.00437318 0.00465752
N 17.72701410 12.85955808 14.21796383 -0.00277572 0.00662757 -0.00398464
N 24.07779961 19.06701380 5.55553664 -0.00517717 0.00135994 -0.00156844
N 22.16925819 0.16230391 10.37252312 0.00261914 -0.00133146 0.00301067
N 20.40284221 18.80716797 2.48136641 -0.00286850 -0.00136509 -0.00141015
N 24.26069432 25.37732945 18.56247007 0.00440405 -0.00224905 0.00196145
N 17.87426862 19.00462244 27.02872396 0.00225692 0.00063354 -0.00419135
N 20.25694024 12.67817173 22.48934412 0.00106175 -0.00063961 0.00109563
N 22.07071432 19.41131456 30.76125031 0.00244707 0.00372257 0.00128772
N 17.73161294 12.76893898 30.77629409 0.00605166 0.00209192 0.00124987
N 24.29166926 19.06800527 22.37082612 0.00027506 -0.00256714 0.00153367
N 22.17438380 0.10590890 26.88706044 0.00087808 0.00566661 -0.00457285
N 19.82061797 19.43471644 18.72189565 0.00496267 0.00585982 -0.00168939
C 7.53542020 0.50874019 4.63445205 -0.00031965 0.00286608 -0.00469422
C 0.62091136 5.71016193 12.77071235 -0.00478954 -0.00317786 0.00097894
C 3.43441991 12.53344859 4.17331426 -0.00129347 0.00054383 -0.00352989
C 4.94788559 6.61140621 11.88507918 -0.00179294 0.00338873 0.00586393
C 0.97149094 12.58952794 12.22994469 0.00024480 0.00284477 -0.00352301
C 7.65491048 6.79244664 3.67410860 -0.00384708 0.00304000 0.00005811
C 5.25529172 0.13602915 12.71423647 -0.00884652 -0.00312151 0.00462497
C 3.51762770 6.13264376 4.60387319 -0.00428648 0.00196110 -0.00151939
C 7.08893561 1.15112030 5.76113098 -0.00179329 -0.00585167 0.00401818
C 0.97727806 4.97627224 13.91465178 -0.00476968 -0.00006084 0.00263688
C 3.06275307 11.89167139 3.02850050 -0.00205638 0.00144371 -0.00242418
C 5.30400110 7.26499113 10.70920365 0.00012242 -0.00065861 -0.00490869
C 1.33627851 11.96870158 11.09490912 -0.00051990 -0.00049410 0.00018838
C 7.33611110 7.51469897 2.57159013 0.00325651 -0.00585939 -0.00843190
C 5.61879122 0.76911822 13.96226484 0.00364515 -0.00384837 0.00153105
C 3.24485509 5.33787512 5.68894509 0.00804564 -0.00437826 0.00163336
C 6.34581739 2.29326336 5.69345193 -0.00046797 -0.00149216 -0.00490578
C 2.03163096 4.00898971 13.83366136 0.00319802 -0.00295367 -0.00285658
C 2.23481038 10.75614907 3.07421013 0.00060648 0.00018369 -0.01286765
C 6.11496658 8.43874858 10.80278290 -0.00043241 -0.00345318 -0.00322812
C 2.18744664 10.79104632 11.12816260 0.00220399 -0.00513140 0.00067173
C 6.36860910 8.60887105 2.70854113 -0.00526164 -0.00273972 0.00361210
C 6.22004929 1.94894749 13.97788247 0.00317012 0.00050973 0.00108528
C 2.51124601 4.15269250 5.61675668 -0.00295541 0.00457656 -0.00368948
C 6.17400518 2.88996065 4.39293745 -0.00374155 0.00322014 0.00326015
C 2.49269450 3.62248992 12.53451072 0.00503441 -0.00191370 -0.00114463
C 1.97537779 10.18650856 4.27003571 -0.00293191 -0.00963526 0.00207603
C 6.45644550 8.97579080 12.07674925 0.00157003 -0.00579064 -0.00437169
C 2.40286988 10.23978522 12.44115717 -0.00133747 -0.00097570 -0.00608771
C 5.98115736 9.00044728 4.00060513 -0.00321220 -0.00077135 -0.00540952
C 6.46164609 2.66708048 12.77049443 0.00428674 0.00282221 0.00933772
C 2.10528343 3.77964357 4.30649499 -0.00339592 -0.01029058 0.00784882
C 6.71578209 2.29882230 3.29010375 -0.00189167 0.00066217 0.00957098
C 1.92597368 4.23520814 11.49115812 -0.00304124 -0.00590616 0.00488098
C 2.37341476 10.81502441 5.50293231 -0.00244696 -0.00440567 0.00602946
C 5.94307515 8.34904444 13.17589018 -0.00042559 0.00369784 0.00094688
C 2.03645822 10.83747553 13.60570552 0.00632787 0.00556045 0.00082059
C 6.35789610 8.24903729 5.08225002 0.00229776 -0.00086632 -0.00079537
C 6.05930918 2.12500576 11.56698798 0.00000544 -0.00135036 0.00594493
C 2.32949081 4.54673121 3.24316993 -0.00704257 -0.00115294 -0.00261382
C 7.24355110 0.98778649 3.34955169 -0.00212346 0.00264599 -0.00035932
C 1.15889411 5.43252698 11.56652874 0.00497135 0.01138185 -0.00346356
C 2.93728648 12.05193729 5.39531140 -0.00149345 -0.01314603 0.00006541
C 5.37653847 7.02690961 13.09559549 -0.00103677 -0.00843308 -0.00314598
C 1.37744652 12.15250648 13.51154515 -0.00471915 0.00277555 -0.00111465
C 7.01728331 6.99990172 4.94348400 0.00508213 -0.00519877 0.00399405
C 5.46241264 0.83740352 11.54585527 -0.00157782 -0.00229608 0.00674010
C 2.98540632 5.80571741 3.38282258 -0.00816837 -0.00495300 0.00437359
C 6.99404244 0.43333305 0.97024628 0.00626589 0.00089323 -0.00848386
C 1.47979775 6.15908328 9.30283773 -0.00534405 0.00385243 0.01015601
C 2.70077176 12.63779137 7.78049818 -0.00167078 0.01920449 -0.00189037
C 5.76984419 6.47568973 15.45879433 -0.00100785 -0.00000692 0.00475444
C 1.53985306 12.82987191 15.86512552 -0.01056884 -0.00570208 0.00640980
C 6.73038695 6.41523821 7.19445505 -0.00196517 0.00744633 -0.00331198
C 5.48645722 0.23152856 9.24726337 0.00642839 -0.00178655 -0.00123032
C 2.70976991 6.51388571 1.08620712 0.00015434 -0.00321256 0.00427786
C 6.65359472 11.89686636 17.17960670 -0.00057254 -0.00097766 0.00957151
C 1.61020795 7.36098469 8.48812471 0.00145124 0.00312302 0.00169495
C 2.51122036 0.71145297 8.14677695 -0.00078740 -0.00238256 -0.00673010
C 5.66455039 5.81697656 0.12051607 -0.00214258 -0.00029376 0.00369771
C 1.69411136 0.96505494 32.48674092 0.00176262 -0.00926517 -0.00098175
C 6.78950254 5.27152010 8.15947263 0.00086714 0.00208150 -0.00331231
C 5.76293866 11.66457650 8.82961621 0.00088886 -0.00281515 -0.00469357
C 2.70997644 6.77040331 16.28093526 -0.00054360 -0.00603310 0.00428931
C 7.44455979 0.42934977 21.20836478 -0.00016547 0.00212811 0.00338649
C 1.12186366 6.45864944 29.34783211 -0.00097520 0.00791888 0.00649953
C 3.19945027 12.36871763 20.48908609 -0.00291993 0.00140128 -0.00261244
C 5.17693754 6.84817858 28.49453836 0.00316579 0.00085596 -0.00234471
C 0.76215442 12.36664945 28.64043664 -0.00372100 -0.00098999 -0.00375023
C 7.55444596 6.44573282 20.13656301 0.00093199 0.00443059 0.00310539
C 5.46958913 0.59333112 29.47959790 -0.00022720 0.00540545 0.00673763
C 3.17445762 6.00852034 21.04563103 -0.00127718 0.00557005 0.00101360
C 7.07291828 1.18144254 22.28586408 -0.00246517 -0.00080868 0.00171173
C 1.48683784 5.75586867 30.51946436 -0.00429432 -0.00676672 -0.00637213
C 2.75253710 11.80084646 19.33726372 -0.00157043 0.00123793 0.00198954
C 5.45334588 7.49705482 27.33717870 0.00218371 0.00043211 -0.00168830
C 1.27178779 11.85114193 27.47933743 -0.00548786 -0.00200042 0.00254966
C 7.15520123 7.00460643 18.87885707 -0.00732091 -0.00217168 -0.00289974
C 5.68686130 1.35455514 30.60343688 0.00626117 -0.00523683 -0.00520582
C 2.82836903 5.41944383 22.22763464 -0.00437462 -0.00336493 -0.00259500
C 6.21408297 2.28125055 22.07245133 0.00416614 -0.00532724 -0.00192734
C 2.37963769 4.64742297 30.48708763 -0.00010203 0.00009743 -0.00710709
C 1.92243716 10.61617724 19.39025367 0.00339937 -0.00106169 -0.00432870
C 6.46855223 8.47750686 27.34725891 0.00808967 0.00420511 -0.00833162
C 2.13283338 10.72032288 27.52975922 0.00427820 -0.00022268 -0.00912249
C 6.34496726 8.19207044 19.01509103 0.00153671 -0.00296941 -0.00455401
C 6.46678364 2.51805779 30.50135805 0.00038095 0.00521345 -0.00136581
C 1.93688342 4.28736465 22.28603347 -0.00470004 -0.00050728 -0.00075055
C 5.85870090 2.62646855 20.72850703 0.00194460 0.00096567 0.00478697
C 2.51010049 4.02036486 29.20337239 0.00591003 0.00355888 -0.00383436
C 1.62603131 10.14578941 20.63026963 -0.00415930 -0.00275837 -0.00065245
C 6.80701233 9.11495657 28.60968624 0.00186066 0.01197689 0.01085750
C 2.36734694 10.12438656 28.78854387 0.00687090 -0.00075897 -0.00875608
C 6.05736682 8.69483213 20.30416506 0.00320743 -0.00645486 0.00380150
C 6.80847259 3.05440493 29.18855604 -0.00623765 0.00200011 0.00287969
C 1.56606757 3.67292028 21.04563835 0.00676991 0.00146558 0.00150872
C 6.36597507 1.88457188 19.67026106 0.00171418 -0.00045706 -0.00511647
C 2.05987139 4.61387250 28.01298704 -0.00195482 0.00175208 -0.00140060
C 2.11285323 10.66019313 21.82812507 -0.00145013 0.00001676 -0.00949404
C 6.34318962 8.56725043 29.78865205 0.00095482 0.00287821 -0.00327367
C 2.00376450 10.77137805 29.93162631 0.00322445 0.00234412 -0.00503928
C 6.50113481 8.08911774 21.45825036 -0.00840744 -0.00073318 0.00161289
C 6.38605449 2.32573303 28.06550074 -0.00125499 0.00304626 0.00433716
C 1.91679216 4.27540858 19.88436842 0.00207498 0.00594584 -0.00960421
C 7.15083517 0.80302808 19.90336202 -0.00030031 -0.00031806 -0.00674433
C 1.37582150 5.89718350 28.07742620 -0.00121577 0.00949338 -0.00443461
C 2.86718046 11.82247950 21.72794785 0.00278285 -0.00095918 -0.00162196
C 5.63161921 7.38658993 29.73544331 -0.00230263 0.00374738 -0.00842160
C 1.16644096 11.91594993 29.87489537 0.00314432 -0.00047923 -0.00490454
C 7.10235352 6.79235761 21.41408030 -0.00736602 0.00194328 0.00003571
C 5.78206889 1.03456116 28.20153444 0.00088920 -0.00284629 0.00552420
C 2.67364318 5.48763880 19.82573129 0.00017530 -0.00182952 -0.00674421
C 7.13400096 25.60117424 17.59462668 0.00277350 0.00038186 0.00581757
C 1.48045765 6.36166604 25.69873231 0.00624079 -0.00358571 0.00141603
C 2.60928773 12.46260495 24.09190502 0.00118459 0.00216746 0.00510692
C 5.82966009 6.90374589 32.09013175 0.00278255 0.00415768 -0.00316459
C 1.53479312 12.53206099 32.27648295 -0.00237076 -0.00078460 0.00029190
C 6.61127454 6.31518425 23.72433615 0.00842508 0.00200950 0.00065986
C 5.71036302 0.55870244 25.84764678 0.00480379 -0.00576776 -0.00429568
C 2.65968543 5.72748376 17.38264034 -0.00762256 0.00494133 -0.00440126
C 7.28423940 12.03655902 0.82119625 0.00931570 0.00819421 0.00409349
C 1.17759201 7.41295544 24.66110377 -0.00012164 -0.00182602 0.00269909
C 2.68407421 0.98669194 24.16428739 -0.00190646 0.01005641 0.00628052
C 5.52706938 5.35305474 16.34546215 0.00068109 -0.00117679 0.00033219
C 1.58421196 0.73214097 16.09502957 0.00354677 0.00260558 -0.00112074
C 6.72350583 5.24476464 24.70848548 0.00252048 0.00294494 -0.00022569
C 5.92631467 11.49421600 25.68795684 0.01041667 0.00015667 0.00031684