1920
Time=82000.00000008 pbc="T T T" Lattice="25.56695788 0.00000000 0.00000000 0.00000000 25.65507073 0.00000000 0.00000000 0.00000000 32.88102017" energy=-12246.39506376 virial="-50.84217005 -54.56483767 -4.71254824 -54.56483767 -41.76085149 -10.14495714 -4.71254824 -10.14495714 -42.99212182" stress="-0.00013049 -0.00259543 -0.00013171 -0.00259543 0.00036323 -0.00056222 -0.00013171 -0.00056222 0.00032396" Properties=species:S:1:pos:R:3:vel:R:3
O 5.68903880 2.60657643 6.59100395 0.00072777 -0.00613403 -0.00169375
O 2.63947301 3.43376593 15.10145894 -0.00380486 0.00362565 0.00623297
O 1.62168981 10.66938287 1.31585746 -0.00481516 0.00407075 -0.00825947
O 6.86835433 9.18640091 9.35358763 0.00066053 -0.00511240 0.00612706
O 2.62268321 10.09908848 9.27202209 -0.00680876 -0.00009283 0.00259521
O 6.09084351 9.81310668 1.21352064 -0.00392815 -0.00345643 0.00278655
O 6.76813200 2.78398091 15.05915316 0.00139982 0.00199097 0.00160515
O 1.53708861 3.50285139 6.73721173 0.00608006 0.00491398 -0.00806518
O 6.72300243 1.11737032 17.11398470 0.00563317 0.00010487 0.00317554
O 2.02247871 4.79325610 8.98612351 0.00025395 -0.00172806 -0.00436413
O 1.93639952 11.92570471 7.56883657 -0.00129148 0.00323967 -0.00275968
O 5.93643759 7.91247154 32.15302297 -0.00799280 -0.00577704 -0.00161669
O 2.37668786 11.84177625 32.01364925 -0.00146814 0.00051858 0.00114890
O 6.68336943 7.71538478 7.28550519 0.00224997 0.00076156 -0.00116879
O 6.27692935 1.19964610 8.80651081 0.00309626 -0.00125394 -0.01105265
O 2.44201781 5.09812348 16.91812777 -0.00527139 0.00155097 0.00625738
O 5.71139735 2.69744637 23.15529175 0.00326169 0.00547639 0.00033528
O 2.69642736 4.44357699 31.50039471 0.00092346 0.00238562 0.00877975
O 1.82759799 9.58205279 18.15706577 0.00082859 -0.00806995 -0.00344562
O 6.47940679 9.10615803 25.81734559 -0.00009855 -0.00173543 -0.00109577
O 2.81074742 9.77283607 26.04789990 0.00326044 -0.00508135 0.00898292
O 5.82417694 8.90689039 17.66360183 0.00081442 0.00168421 -0.00133246
O 6.90005880 2.81989621 31.46628491 0.00014342 -0.00143623 0.00232949
O 1.56301479 3.56938793 22.91465734 0.00263169 -0.00032509 -0.00563877
O 6.87115732 1.25214443 0.66727934 0.00218034 0.00809048 0.00616856
O 2.10545076 4.97787776 25.18760139 -0.00715004 -0.00568755 -0.00222174
O 2.52894217 11.67218358 24.20193442 -0.00611122 -0.00065778 -0.00242443
O 6.54744232 7.66907026 15.45580648 0.00518024 0.00031411 -0.00065681
O 1.75166500 11.25370783 15.64852208 -0.00131216 0.00017916 -0.00554518
O 6.50034163 7.52730218 23.70916079 -0.00107589 -0.00113811 0.00032990
O 6.12878298 1.39080890 25.30443752 -0.00133160 0.00084958 0.00363871
O 1.83418803 5.78120285 0.92065008 -0.00152974 -0.00961039 0.00382294
O 5.54385312 15.29707343 7.29113252 -0.00194961 -0.00067199 -0.00001360
O 2.35959559 16.54424421 15.43499611 0.00262489 -0.00235525 0.00200012
O 1.83115103 23.51431044 0.66368951 -0.00194971 0.00392841 0.00133287
O 7.06177806 21.60741663 9.48284401 -0.00534925 0.00249861 -0.00263533
O 2.48361147 22.81038731 9.57792421 0.00046631 0.00632857 0.00150143
O 5.96055336 22.00440689 1.16989791 -0.00137863 -0.00318523 -0.00606070
O 6.93044592 15.34831431 15.49903426 0.00254364 -0.00061697 0.00657233
O 1.80445531 16.74477534 7.05280272 0.00183442 -0.00100022 -0.00020538
O 6.34129596 13.88231979 17.51243783 -0.00168231 0.00035422 0.00312997
O 2.46891261 17.98592251 9.24217080 -0.00236356 -0.00353456 0.00564403
O 2.29183584 24.16782218 7.24200030 -0.00247026 -0.00188228 0.00584569
O 6.58465731 20.51947023 31.84376342 0.00058789 -0.00063994 0.00060236
O 2.54819533 25.28920162 31.89993515 -0.00246892 -0.00189556 0.00173036
O 6.44378851 20.60109467 7.34564941 0.00378615 0.01108883 0.00803849
O 6.52052962 14.08020208 9.26756590 -0.00072853 0.00287859 0.00763279
O 1.71561972 18.07954251 17.42796331 -0.00545597 -0.00375001 -0.00791148
O 5.77516592 15.66743579 23.33931025 0.00744267 -0.00641209 -0.00588327
O 2.80646103 16.69981179 31.40994421 -0.00264683 0.00182071 -0.00595762
O 1.59474345 22.89816886 17.95398551 -0.00104645 0.00328944 -0.00588567
O 6.90632661 22.14596643 25.86561036 -0.00322282 -0.00343950 0.00475145
O 2.91251211 23.00221001 26.16812771 -0.00141452 -0.00569527 0.00770034
O 5.76734760 21.88537674 17.69061893 -0.00202635 -0.00277989 0.00215304
O 7.38408331 15.74031371 31.84770440 -0.00306903 0.00336883 0.00172892
O 1.27371328 16.32829301 23.43671967 -0.00186888 0.00167241 -0.00210695
O 6.87900244 14.80204936 1.16040702 -0.00225705 0.00325856 -0.00546962
O 1.64194651 17.93660068 25.33736767 0.00133101 -0.00026760 -0.00205032
O 2.09568689 24.33821922 24.15508135 -0.00087075 0.00780905 -0.00559870
O 6.42060864 20.56408954 15.59388412 0.00385165 -0.00525181 -0.00128060
O 1.90925570 24.21286896 15.79180228 -0.00384618 0.00281216 0.00229362
O 6.33820686 20.67167429 24.02484200 -0.00021915 -0.00008395 0.00824625
O 5.78201468 14.55469512 25.66132200 0.00197489 0.00409966 0.00606613
O 2.62880516 17.98920986 0.64200848 -0.00214988 0.00262806 0.00031806
O 14.73849876 2.85603743 6.94575400 -0.00020061 0.00020827 0.00435929
O 11.37989619 3.78824584 14.87557142 0.00688643 -0.00156782 -0.00631966
O 10.32258321 10.52609174 1.19674072 -0.00640274 0.00493049 0.00242803
O 15.04969995 9.29432200 10.16544955 -0.00778134 -0.00081117 -0.00251657
O 10.75194173 10.28238362 9.68490831 0.00126678 0.00621004 0.00639567
O 14.13083290 9.27279633 1.76279307 -0.00514752 0.00633649 0.00334202
O 15.78844711 2.18068391 15.41044481 -0.00044400 0.00022054 -0.00366907
O 10.27309635 3.43502278 6.51129663 0.00170314 -0.00111787 -0.00682843
O 14.68825782 0.75714602 17.39772674 0.00174984 0.00237882 0.00235280
O 10.62863122 5.29671509 8.65286418 -0.00635390 -0.00423733 0.00793774
O 10.41880271 11.48325334 7.46048970 0.00196235 0.00060582 -0.00315705
O 15.14970966 7.88581569 32.27581149 0.00793972 0.00250553 -0.00174874
O 11.00080205 11.96898754 32.17794396 -0.00269266 -0.00286634 -0.00633115
O 15.13511672 7.77900153 7.75243376 0.00486389 -0.00251202 -0.00442174
O 14.28209556 1.54483160 9.07437514 -0.00393916 -0.00449179 -0.00209939
O 10.62938034 4.91066035 17.09433356 -0.00125796 0.00795456 0.00034667
O 14.41388917 2.93760707 23.32188968 -0.00065365 -0.00536876 0.00114607
O 11.53201342 3.87413854 31.36724907 -0.00459314 -0.00015334 -0.00358572
O 10.10850357 9.57083251 18.01834577 0.00073918 -0.00984523 -0.00334414
O 15.09544075 9.89177269 26.27007872 -0.00143258 -0.00561364 -0.00452735
O 10.39594071 9.95519206 26.16715301 0.00103398 -0.00933712 0.00471924
O 14.37964980 8.75956593 18.09047858 -0.00209259 0.00126358 0.00518739
O 15.79897763 2.61312777 31.45840266 0.00225294 0.01031675 0.00548817
O 9.82486332 3.56022039 23.23877298 -0.00059920 0.00309694 0.00242291
O 15.11088778 1.23236303 0.68658925 0.00183139 0.00059071 0.00115316
O 10.28179774 5.10554461 25.06382592 -0.00190078 0.00255889 -0.00605819
O 10.19649996 11.91428022 24.10595005 0.00561520 0.01035685 -0.00236538
O 14.97744773 7.08443104 16.17788115 -0.00234959 -0.00925796 -0.00443068
O 10.19068178 11.20815930 16.00886487 0.00092287 0.00055647 0.00253863
O 15.32236498 7.95982595 24.51081383 0.00534749 0.00440270 -0.00262666
O 14.48009509 1.35394912 25.33401410 -0.00011404 0.00225847 -0.00212283
O 10.84141779 5.42358975 0.47840273 0.00827400 -0.00438006 0.00045358
O 14.21645063 15.26876420 6.71306492 0.00220089 -0.00416846 -0.00372718
O 10.95421034 16.26005105 14.95649606 0.00571010 -0.00577850 -0.00005439
O 10.76434869 23.24660095 0.94493906 -0.00283182 -0.00083783 -0.00191924
O 15.33240298 22.06349394 9.14857131 0.00479369 0.00301943 -0.00270217
O 11.22837816 23.03052333 9.30295054 -0.00137032 -0.00441679 0.00218373
O 14.47826543 21.81875398 1.08707084 -0.00496092 -0.00260143 -0.00358296
O 15.61688959 15.23248008 14.88991047 0.00772987 0.00258409 0.00315808
O 10.48448287 16.19097397 6.81747794 -0.00027914 0.00231229 0.00211988
O 15.34460416 13.79125082 17.00804099 0.00360847 -0.00123851 0.00548341
O 10.15548150 17.98744632 8.79258035 -0.00545454 0.00461948 0.00062216
O 11.08621264 24.42291670 7.19361287 0.00410002 0.00182456 0.00037265
O 14.86734377 20.60268924 31.67781194 0.00115692 0.00158183 -0.00976971
O 10.83607002 24.80282446 31.75262332 -0.00212687 -0.00212537 0.00705174
O 14.98798270 20.53515522 7.16326395 -0.00496363 0.00208972 0.00048691
O 15.14004786 13.97592572 8.89030132 -0.00251468 -0.00158817 0.00627273
O 10.76510721 17.78959405 16.98093632 -0.00719234 -0.00022454 -0.00178208
O 14.03922834 15.23490141 23.29508016 0.00351512 -0.00162976 -0.00885528
O 11.25094671 16.51021298 31.28154293 -0.00218264 0.00213534 0.00209825
O 9.60512171 22.91975822 17.62120738 0.00580559 0.00108394 -0.00195401
O 15.59440890 22.20237268 25.55321726 0.00010588 -0.00172261 0.00188947
O 11.19720973 22.80472118 25.69673737 -0.00229943 -0.00217131 0.00477747
O 13.99616880 21.70845901 17.48304719 0.00338204 0.00356027 0.00654947
O 15.12480593 15.17730485 31.45182223 -0.00354822 -0.00594769 -0.00173017
O 10.12229829 16.62091946 23.33841289 -0.00298266 0.00167028 0.00143324
O 14.72582874 13.87773714 0.67533031 0.00207580 0.00219187 -0.00044258
O 10.80370824 18.25234432 25.29970077 -0.01283951 -0.00090436 -0.00928426
O 10.78371566 24.26064790 23.70187851 0.00479942 0.00440712 0.00185843
O 14.39130577 20.38879697 15.14117773 0.00230237 -0.00940357 0.00038285
O 10.33567406 24.12064990 15.33632003 0.00014775 -0.00348324 0.00055141
O 15.29802962 20.59296342 23.58313879 0.00247959 -0.00048588 -0.00023069
O 15.05144449 13.81361036 25.14010795 0.00292939 0.00140062 -0.00108417
O 10.96481439 18.05464580 0.58894342 0.00325545 -0.00626764 -0.00887526
O 22.82049907 2.56683727 6.80178066 -0.00611229 -0.00350357 -0.00057568
O 20.00813563 3.69188197 15.02165794 -0.00110121 0.00239192 0.00295833
O 18.80964144 10.20368950 1.28924032 0.00337766 0.00073647 -0.00357018
O 24.06963170 8.92016267 9.42027860 0.00237853 -0.00154382 -0.00111115
O 20.03921217 10.28094353 9.77211501 0.00129183 -0.00127142 0.00297159
O 22.73192590 9.20282616 1.36432381 0.00050353 -0.00080758 -0.00071364
O 23.83084113 2.68292112 15.17659015 0.00233508 -0.00259460 0.00152232
O 19.00073738 3.76767320 7.21174423 -0.00284269 -0.00279026 -0.00406235
O 23.26419245 1.20802547 17.13340989 -0.00295087 0.00018659 -0.00138973
O 19.65167126 5.30723246 9.14854208 0.00261478 0.00120654 -0.00173755
O 19.41250910 11.48069317 7.62680630 -0.01163993 0.00158708 0.00086513
O 23.52836026 7.88024971 32.16751349 -0.00057380 0.00528700 0.00423715
O 19.25089651 11.71423541 32.23821779 -0.00197153 -0.00319920 -0.00537290
O 23.34818027 7.59383485 7.39347932 0.00611833 -0.00477449 0.00435546
O 23.11440904 1.25657137 8.93993967 0.00357138 -0.00010931 0.00812092
O 19.39487204 4.85623856 17.32889775 0.00027594 -0.00176414 -0.00091830
O 22.71936929 2.65942409 23.35124050 -0.00081482 0.01025144 0.00696852
O 19.54832111 3.67653088 31.76878256 0.00620224 -0.00181349 -0.00491436
O 18.55670243 9.70163480 17.97044176 -0.00308575 0.00299864 0.00236634
O 24.08306630 8.53348370 25.83819013 0.00563148 0.00186640 0.00604750
O 19.36842428 9.94388164 26.20130800 0.00591608 -0.00120186 -0.00232946
O 22.85804427 9.01122302 17.45149680 -0.00027056 -0.00064387 0.00241845
O 24.17821078 3.11518789 31.51333122 0.00078698 0.00383323 -0.00325614
O 18.37734273 3.81030055 23.70340539 -0.00087022 -0.00115649 0.00528371
O 24.01095097 1.45898702 0.52540501 0.00174672 -0.00070879 -0.00290368
O 18.93367677 5.33046745 25.70121938 -0.00591407 0.00198635 -0.00281531
O 19.41899847 11.55376483 24.18821487 -0.00033741 0.00357018 0.00458635
O 23.77397740 7.55676760 15.56552019 -0.00004020 -0.00424311 -0.00842606
O 18.35353983 11.37262346 15.80694989 0.00050531 -0.00584312 -0.00762623
O 23.25154428 7.43810378 23.48545951 0.00737270 -0.00187714 -0.00344706
O 23.26684900 1.33072318 25.48191892 0.00150460 0.00020013 0.00562136
O 19.39978871 5.08570119 1.06628372 0.00302494 0.00340079 -0.00123916
O 22.64631128 15.49494980 7.28464788 0.00252645 0.00785384 0.00610069
O 19.65272353 16.68501712 15.37104789 0.00122791 -0.00680791 0.00178240
O 18.94136308 22.97374910 1.23197441 0.00018581 0.00220976 0.00346364
O 24.07161377 21.78937795 9.82560301 0.00193909 0.00225790 -0.00123278
O 19.61409914 22.68091719 9.50553053 -0.00269957 -0.00411630 0.00373139
O 23.13677287 22.18350477 1.55146582 -0.00122366 0.00144354 0.00261024
O 23.92325653 15.31420383 15.46405794 0.00614935 -0.00249236 -0.00335833
O 18.68273172 16.15035932 6.98228437 0.00576396 0.00334427 0.00263674
O 23.25116163 13.75957604 17.42804155 0.00256094 0.00094139 -0.00273555
O 19.12833587 17.79487479 9.18234352 0.00590933 0.00320264 -0.00094724
O 19.33339973 24.26262229 7.32239523 -0.00170495 -0.00406238 -0.00051325
O 23.39281107 20.87220900 32.21005969 0.00045413 -0.00681323 0.00305226
O 19.46715407 24.66675388 32.08442557 -0.00307739 -0.00427106 0.00685997
O 23.66097502 20.33861680 7.79141875 0.00400615 -0.00127056 0.00306968
O 23.54909532 14.10008175 9.19052534 0.00023022 -0.00353074 0.00280114
O 18.90308778 18.07571614 17.29912649 -0.00276113 0.00186589 -0.00163992
O 23.20308818 15.27467138 23.76041849 0.00014487 -0.00251156 0.00005933
O 19.88424840 16.52919442 31.88688595 -0.00618817 -0.00318435 -0.00459341
O 18.78295364 22.70538402 17.87927261 0.00081890 0.00284607 0.00476459
O 23.70671018 22.04703787 25.88163033 -0.00689731 0.00002112 0.00310308
O 19.43523878 23.00570112 25.92503957 -0.00151809 -0.00190113 0.00054178
O 23.16533957 21.63682735 17.70840396 -0.00697307 0.00579701 0.00072934
O 23.60051009 15.42500768 32.06825020 -0.00073922 0.00196489 0.00075865
O 18.59534512 16.67377029 23.30539661 -0.00684742 0.00370805 0.00165893
O 23.07640388 14.01405134 1.13409741 -0.00128520 -0.00726036 0.00901280
O 19.07175624 17.69490722 25.59401953 -0.00375872 0.00178657 -0.00712563
O 19.03756585 24.69484186 24.14422302 -0.00021108 -0.00153503 0.00314513
O 23.67168211 19.98540254 15.91270734 -0.00169201 -0.00214945 0.00106748
O 19.23799318 24.23620993 15.72478549 -0.00313282 0.00866370 0.00442054
O 22.85787457 20.41429898 24.02397193 -0.00495435 -0.00401210 0.00264346
O 23.90024555 13.58258796 25.79838303 0.00174009 -0.00873027 0.00828792
O 19.05953381 17.84263455 0.96158536 -0.00654625 0.00575056 0.00003394
N 7.71446310 13.25300653 2.64465126 0.00115341 -0.00154627 0.00216520
N 1.26705905 6.29754167 10.53894368 -0.00372410 0.00108415 0.00199139
N 3.43818049 25.38644709 5.67693018 -0.00580688 -0.00526551 0.00010694
N 5.32012443 6.51833536 13.88765998 0.00164397 0.00206401 -0.00357519
N 1.11081459 25.58497932 14.18361858 -0.00280061 0.00387951 -0.00206851
N 7.46549110 6.53737462 5.49797785 0.00078123 0.00469796 0.00712048
N 5.09256051 13.06279079 10.68062162 0.00475609 -0.00019764 0.00522612
N 3.43886725 6.41069377 2.44862968 -0.00081051 -0.00116425 -0.00267670
N 7.73512559 12.81390754 19.02763988 -0.00129704 -0.00740352 -0.00364117
N 0.95757082 6.34731777 26.66221482 0.00462527 0.00257721 0.00431630
N 2.81006460 0.02298204 22.41042629 -0.00005976 -0.00240429 0.00196678
N 5.51321196 6.34685708 30.62506116 -0.00170113 0.00098999 0.00660005
N 1.04894650 0.39480301 30.34679968 0.00395853 -0.00027215 0.00486416
N 7.30280164 6.18800254 22.07521500 -0.00575205 0.00424276 0.00069115
N 4.99243439 13.32540578 27.45176468 -0.00422464 0.00694637 0.00083820
N 3.01637640 6.54846398 18.52862885 -0.00092233 -0.00425054 -0.00210853
N 7.58963153 25.53931243 2.33876098 -0.00267447 0.00032424 -0.00415603
N 1.02821458 19.13873670 10.61703167 -0.00626661 -0.00010278 0.00468167
N 3.23568411 13.04055595 6.02002821 0.00509489 0.00674745 0.00844184
N 5.00073641 19.45422790 14.14798027 -0.00138951 0.00295499 0.00354977
N 0.94579946 12.53554440 13.90426457 0.00247837 0.00222873 0.00801900
N 7.58742868 19.49637881 5.74923788 0.00279968 0.00107691 -0.00272479
N 5.08805679 0.07281279 10.48629662 -0.00598790 0.00367639 -0.00349574
N 3.03294013 19.46499997 2.33236033 0.00272358 -0.00141040 0.00990103
N 7.44532384 25.42404970 18.72879074 -0.00409193 -0.00206302 0.00383611
N 1.10115790 19.32718152 27.01461929 -0.00148893 -0.00500308 0.00848816
N 3.04953583 13.01379466 22.41837090 0.00162230 -0.00661609 -0.00533669
N 5.23740586 19.45814614 30.33132723 0.00079306 0.00170096 -0.00132242
N 0.85262081 12.53154755 30.52614846 -0.00278352 0.00464131 0.00423447
N 7.43238028 19.37102027 22.40927207 -0.00164503 -0.00020897 -0.00630818
N 5.00389961 0.17148193 26.98955291 -0.00425254 -0.00008933 -0.00291686
N 2.99550453 19.02789437 18.99992186 -0.00369058 -0.00265139 0.00551772
N 16.23370550 13.01032203 2.15796921 -0.00316781 -0.00512754 -0.00446768
N 9.45618114 6.13173309 10.34248397 0.00104893 -0.00309741 0.00600348
N 12.11113175 0.00370413 5.65166963 0.00705152 -0.00076520 0.00483848
N 13.84639125 5.99872412 14.50043671 0.00825735 -0.00406074 -0.00043514
N 9.31534082 25.43332351 13.75294668 -0.00499509 -0.00324082 -0.00923828
N 16.28696728 6.68736860 6.03295437 0.00334684 0.00232536 -0.00226367
N 13.76150166 12.97603530 10.39901351 0.00581949 0.00304798 0.00566712
N 11.96381198 6.54823906 2.12080013 0.00040774 -0.00621500 0.00229388
N 15.82328328 12.58561974 18.83762193 0.00061092 0.00299130 0.00094515
N 9.51565339 6.38010410 26.75475982 -0.00350658 -0.00500270 -0.00278511
N 11.88806629 25.43294176 22.00572593 -0.00330735 0.00194704 0.00190704
N 14.11497094 6.62292473 30.64119830 0.00020943 -0.00547832 0.00629299
N 9.61700245 0.13824096 30.15943020 0.00618550 0.00176658 0.00034671
N 15.66642402 6.30968315 22.85276360 -0.00157468 -0.00278645 0.00396917
N 13.87518690 12.70117008 26.74352728 0.00936102 0.00454191 0.00293454
N 11.69829892 6.13421215 18.77749076 0.00725413 0.00150456 -0.00530204
N 16.14289484 0.01345569 2.41093952 0.00299385 0.00290970 0.00090698
N 9.10148778 19.06098331 10.47630218 -0.00439183 -0.00415437 0.00040065
N 11.72846940 12.72764329 6.02303204 0.00166584 -0.00230403 -0.00229842
N 13.53095536 19.12714445 13.47065430 -0.00257640 0.00530958 0.00091907
N 9.31583677 12.58997015 14.42858793 0.00418982 0.01015246 -0.00322508
N 16.52715749 19.58205051 5.73161300 0.00424560 -0.00133077 -0.00183450
N 13.77544033 0.08841332 10.74451901 0.00374968 -0.00034814 -0.00206214
N 11.93599950 19.22119487 2.31390474 -0.00189154 0.00194365 0.00259994
N 15.97864877 25.43058118 19.05233758 -0.00119475 -0.00214420 -0.00343088
N 9.79269278 19.48919305 26.91993984 -0.00479032 -0.00068092 0.00093744
N 11.35741419 12.88687160 22.36511973 0.00076583 -0.00512938 -0.00168516
N 13.85556695 19.46797871 29.96136348 0.00150110 0.00169740 -0.00191152
N 9.65684116 13.14479079 30.71249022 0.00214823 -0.00063562 -0.00168634
N 16.19418177 19.34939652 21.91723443 -0.00430492 0.00759832 -0.00217402
N 13.92274961 25.63214190 27.02324648 0.00062076 -0.00132439 -0.00522071
N 11.58388962 19.16698194 18.55878698 0.00544602 -0.00543050 -0.00183800
N 24.77401633 13.37466253 2.48023518 0.00007307 -0.00076888 0.00630885
N 18.02794357 6.23994008 10.46874085 0.00303757 -0.00487497 0.00211385
N 20.66230029 25.48293737 5.95072062 0.00247621 0.00028397 0.00063190
N 22.40431085 6.50000253 14.08175544 0.00482935 0.00977495 0.00494590
N 18.18290743 25.51351375 14.13158675 0.00196160 -0.00321990 -0.00067167
N 24.65175592 6.61064961 5.79684176 -0.00310212 -0.00472596 0.00314458
N 22.38169343 12.83613331 10.75448999 -0.00257737 -0.00560048 -0.00280060
N 20.50225263 6.43011627 2.57776251 0.00093689 0.00182716 -0.00204023
N 24.50077233 12.68380116 18.94946829 -0.00242010 -0.00612125 0.00245168
N 18.05330706 6.59805362 27.22427771 -0.00007967 -0.00468093 -0.00215671
N 20.19613658 25.63251895 22.41100014 0.00379295 -0.00752400 0.00731424
N 22.17780248 6.73552972 30.75003072 0.00104505 0.00602104 -0.00459738
N 17.94969521 0.00805706 30.67995882 -0.00013327 -0.00223775 0.00592287
N 24.67894213 6.47455335 22.07331776 -0.00154824 -0.00106269 0.01096293
N 22.26765756 13.01845008 27.25642201 -0.00120393 -0.00328445 -0.00379571
N 20.13222380 6.18970320 19.04595574 0.01022811 -0.00404336 -0.00236950
N 24.66878060 25.64904726 2.20843100 0.00124266 -0.00537072 0.00220068
N 17.67989976 18.90471251 10.53193753 -0.00220708 0.00324700 0.00000718
N 20.50230929 12.67440313 5.92562659 -0.00125499 -0.00492013 -0.00109324
N 22.40259824 18.93614833 14.26532908 0.00003783 -0.00295112 -0.00225451
N 18.09592274 12.95198683 14.13567123 -0.00385443 0.00176492 -0.00051048
N 24.76176475 19.41732260 6.01358345 -0.00320840 -0.00239019 0.00641581
N 22.25215550 25.61857822 10.50862175 0.00040782 -0.00588549 -0.00036701
N 20.22848488 19.12573318 2.44997972 0.00223422 0.00323453 -0.00659944
N 24.37886788 0.08394025 18.68410240 0.00094681 -0.00147013 0.00058647
N 18.14183650 18.90453654 27.25232659 0.00912894 0.00255866 0.00055284
N 20.43310975 12.59855951 22.41632483 0.00566568 0.00121920 0.00410352
N 21.96271097 19.85370267 30.63627985 -0.00512731 0.00233235 -0.00105166
N 18.12147595 12.95613189 30.62483655 0.00836867 0.00532888 -0.00067349
N 24.28288189 19.36920341 22.51475384 -0.00171547 0.00240804 0.00720856
N 22.03506476 0.34309719 27.11610555 0.00124024 0.00048278 -0.00200385
N 20.22461333 19.27030439 18.76431871 0.00093083 0.00075983 -0.00504861
C 7.66303137 0.36792853 4.59526721 -0.00015641 0.00288591 0.00955579
C 1.13304317 5.87732038 12.92504740 -0.00914152 0.00922381 -0.00753393
C 3.41254845 12.71444746 3.62367293 -0.00324476 -0.00073798 -0.00300483
C 5.32485440 6.67771861 11.46464531 0.00343066 0.00226308 0.00349585
C 0.99993235 12.35963195 11.51696270 -0.00268213 0.00634193 0.00096243
C 7.65527312 7.09942471 3.23314020 0.00493021 0.00994410 0.00438657
C 5.19726580 0.31312266 12.90647698 0.00224422 0.00149219 -0.00505546
C 3.49414597 5.89073783 4.80030199 0.00883279 0.00209524 -0.00465156
C 7.09591005 0.98948185 5.66217173 0.00683643 0.00346383 -0.00616794
C 1.45447951 5.23215952 14.07240012 0.00275463 -0.00053720 -0.00700317
C 3.09228535 12.10669722 2.40983855 -0.00116689 0.00011051 0.00268377
C 5.73524620 7.30515716 10.29152227 -0.00425592 -0.00189834 0.00016947
C 1.38998401 11.68415957 10.40256998 0.00196511 0.00226724 -0.00200711
C 7.26227471 7.88104166 2.14313433 -0.00557796 -0.00161693 0.00774952
C 5.57670083 0.99287729 14.01856505 -0.00622742 0.00007173 -0.00090366
C 3.08773728 5.12632935 5.87505488 -0.00319347 0.00570159 -0.00356982
C 6.35321170 2.11769998 5.52138774 -0.00696276 -0.00114493 -0.00332802
C 2.20571826 3.99613485 13.99869633 0.00384719 0.00426151 0.00338804
C 2.17774682 11.03615069 2.47046672 -0.00466029 -0.00296475 -0.00351305
C 6.47048499 8.52661707 10.39266089 0.00556250 0.00013366 -0.00340465
C 2.26784206 10.57805944 10.44962600 0.00412744 -0.00123648 -0.00377423
C 6.54393366 9.14127634 2.32600700 0.01444002 -0.00473952 0.00017325
C 6.26289717 2.17173678 13.90901512 0.00643332 -0.00261235 0.00354643
C 2.20791392 4.03814305 5.74060851 0.00026945 0.00272572 0.00409805
C 6.29109111 2.71316804 4.22592489 -0.00120093 -0.00095612 0.00539902
C 2.44913861 3.46855810 12.73586128 -0.00460082 -0.00652646 -0.00251294
C 1.95010916 10.41908077 3.72619601 0.00043265 -0.00288337 -0.00370332
C 6.67418439 9.12251385 11.64278893 -0.00153153 -0.00547520 -0.01008512
C 2.69869779 10.04861271 11.63284755 -0.00153100 -0.00223382 0.00015568
C 6.28667687 9.53981787 3.59974514 0.00087330 0.00173179 -0.00839079
C 6.51953971 2.71868637 12.64658408 0.00510716 -0.00026810 0.00527933
C 2.00503672 3.62568535 4.39449923 -0.00842321 0.00525171 -0.00573568
C 6.84691842 2.09343652 3.14503224 -0.00465802 0.00344315 -0.00556381
C 2.11066951 4.20122566 11.58573813 0.00251048 0.00003074 -0.00392607
C 2.20905805 11.07148608 4.95359607 -0.00105929 0.00131130 0.00253624
C 6.36837831 8.42212406 12.83617513 0.00045363 0.00052055 0.00452216
C 2.20266252 10.64552975 12.82873393 -0.00646592 0.00075821 0.00252686
C 6.67113179 8.78047855 4.72362253 0.00646670 -0.00513497 0.00565451
C 6.17412818 2.07299932 11.51498937 -0.00244714 -0.00414885 0.00219204
C 2.38073145 4.37918001 3.32147233 -0.00518764 -0.00146926 -0.00012632
C 7.43302873 0.84312871 3.31259759 0.00034627 0.00073588 0.00597284
C 1.48627558 5.46524303 11.64960302 0.00681654 0.00363743 0.00326902
C 2.96960938 12.27363724 4.84950626 0.00439674 0.01019259 0.01442872
C 5.72696857 7.19751449 12.78274777 -0.00234339 -0.00181080 0.00463665
C 1.39525372 11.78079020 12.81481368 -0.00346068 -0.00213120 -0.00800197
C 7.22629035 7.48622755 4.52479008 0.00178532 -0.00259997 0.00198560
C 5.47986104 0.83908800 11.58862232 -0.00234106 0.00442537 0.00227414
C 3.12514718 5.56884668 3.44513426 -0.00008896 -0.00108572 -0.00471725
C 7.27479943 0.13409882 1.05770895 -0.00065663 -0.00051692 -0.00490955
C 1.73457847 5.95713647 9.26109865 -0.00460125 -0.00367114 0.00034716
C 2.71160697 12.83854332 7.23690766 0.01431544 -0.00433637 0.00205238
C 5.78882388 6.73817838 15.23776244 0.00649750 0.00072557 0.00349517
C 1.35579851 12.34969495 15.19983850 0.00328322 0.00307358 0.00029792
C 7.08454333 6.62563957 6.78660372 -0.00490641 0.00483723 -0.00740419
C 5.76299858 0.18592031 9.28592612 0.00459825 0.00338160 0.01029184
C 2.65125098 6.58720819 1.33307911 0.00893479 0.00335638 0.00300303
C 7.02557098 11.64683427 16.96776840 -0.00173310 0.00457378 0.00366009
C 1.80617707 7.08777168 8.30976744 -0.00262730 0.00099835 0.00329773
C 2.67566349 0.85043562 7.71961205 -0.00003234 -0.00173933 -0.00109440
C 5.61623763 5.62246965 0.13765094 0.00217740 -0.00307759 0.00151401
C 1.37496386 1.65714049 32.38082980 0.00357736 -0.01154445 -0.00341393
C 7.14174818 5.32967665 7.64231808 0.00677764 0.00088063 -0.00155359
C 5.70592999 11.99510773 8.54252580 0.00068383 0.00031612 -0.00093178
C 2.63113350 7.46423657 16.29473346 -0.00028376 -0.00169026 -0.00246046
C 7.18746520 0.08886867 21.06871217 0.01122803 0.00253503 -0.00241254
C 0.87810626 6.37801308 29.05816622 0.00093299 0.00322574 -0.00546117
C 3.41655638 12.33318025 20.11864554 -0.00134177 -0.00556107 0.00272206
C 5.39299259 6.61108025 28.20929230 -0.00122115 0.00184419 0.00876299
C 0.96199697 12.13400607 28.18884127 0.00086442 -0.00642741 0.00030727
C 7.53922062 6.63155006 19.81888659 -0.00169883 -0.00248422 -0.00648090
C 5.41193829 0.34693123 29.28822342 -0.00161103 -0.00599599 -0.00127334
C 3.35598978 6.01929544 20.87500382 -0.00244682 -0.00507163 -0.00324761
C 6.95392583 0.86929547 22.21889427 -0.00867283 -0.00298652 -0.00177851
C 1.14065142 5.78011822 30.26090466 0.00599458 -0.00360933 0.00104301
C 3.04295981 11.56391362 19.04530073 0.00054888 0.00757587 -0.00195428
C 5.57587496 7.24294651 27.01790567 0.00121262 0.00594668 0.01116587
C 1.49742580 11.43998517 27.08207786 -0.00430532 0.00568405 -0.00512933
C 7.36252145 7.39950930 18.67904989 0.00058000 0.00281863 0.00108230
C 5.63489627 1.12233025 30.38617252 -0.00132143 0.00106015 -0.00417599
C 2.89266061 5.36293177 21.91337755 0.00427159 0.00654925 0.00345495
C 6.17767027 2.04281431 22.06018467 0.00583176 -0.00272956 0.00447532
C 2.14368909 4.81349008 30.33706647 0.00262985 -0.00113434 -0.00567853
C 2.30586739 10.32701578 19.25633039 0.00111105 0.00072351 0.00079133
C 6.22480401 8.49748655 26.95212760 0.00369701 0.00776706 -0.00452624
C 2.31604754 10.33920057 27.16566586 -0.00375084 0.00314331 -0.00824065
C 6.39990201 8.40162268 18.76244837 -0.00489484 -0.00191332 -0.00008503
C 6.37437966 2.29424037 30.37827318 -0.00112971 0.00986873 -0.00008974
C 2.10772789 4.12339450 21.80653640 0.00781799 -0.00644488 -0.00272237
C 5.91589185 2.49501767 20.74778252 -0.00350671 0.00172008 -0.00955597
C 2.34181399 4.04561781 29.20728048 0.00501420 -0.00273989 -0.00278330
C 2.03591881 9.95025297 20.59936136 0.00202598 -0.00105552 -0.00225757
C 6.64056831 9.04358178 28.17186669 -0.00020314 -0.00038143 0.00311516
C 2.65662574 10.00231841 28.47568961 -0.00888301 -0.00624273 0.00080399
C 5.94539847 8.93191938 20.01380991 0.00754603 -0.00702645 0.00089548
C 6.58427732 2.80393295 29.08783939 -0.00408162 -0.00360954 0.00395971
C 1.94386287 3.57986080 20.52684223 0.00422962 0.00238130 0.00080149
C 6.45036444 1.82658555 19.66566853 0.01124906 -0.00189154 0.00275730
C 1.98391842 4.56709431 27.99362128 -0.00123219 -0.00291072 0.00467575
C 2.37170349 10.78023423 21.70704823 -0.00523094 0.00282214 -0.00073259
C 6.39799092 8.42150948 29.41828813 0.00116086 -0.00061530 -0.00078124
C 2.17471698 10.65246969 29.57590398 -0.00317108 0.00130318 -0.00213847
C 6.30257414 8.25380863 21.11979925 0.00175764 0.00371953 0.00004832
C 6.09338039 2.22059367 27.96648600 -0.00100501 -0.01175910 0.01101764
C 2.32976274 4.36515767 19.41295648 -0.00387880 -0.00078880 -0.00510932
C 7.04167145 0.55565316 19.77888161 0.01325618 0.00423719 0.00284328
C 1.34725772 5.79929901 27.86580514 0.00730985 0.00238476 -0.00585985
C 2.95408738 12.03564137 21.46593810 0.00405818 0.00283090 -0.00371813
C 5.75364256 7.14977262 29.50470097 -0.00459832 0.00599100 0.00624686
C 1.34157657 11.72838526 29.46959127 -0.00265977 0.00177800 -0.00096988
C 7.10013097 7.09136380 21.03345251 0.00246258 0.00302315 -0.00012106
C 5.48532899 0.92201300 28.01171679 0.00371238 -0.00297984 -0.00399794
C 2.91356709 5.65435788 19.54522891 0.00688613 -0.00842009 0.00256457
C 7.12847632 0.01955112 17.47819035 0.00636818 0.00154624 -0.00639056
C 1.56269074 6.04425352 25.47276923 -0.00465221 0.00434965 -0.00682291
C 2.70112167 12.77745492 23.71021800 0.00770478 0.00489648 -0.00500229
C 5.73732424 6.73859921 31.94046259 0.00740298 0.00366202 0.00648339
C 1.56265837 12.71246271 31.67313500 0.00489901 0.00023399 0.00728232
C 6.94687487 6.47001432 23.35278701 -0.00299372 0.00704144 0.00386542
C 5.58554997 0.37533806 25.72560722 0.00178975 0.00004670 0.01124528
C 2.71091016 6.24371923 17.25688325 -0.00503069 0.00591553 -0.00329921
C 7.36750059 12.56868740 0.29229010 0.00600997 -0.00185222 0.00152185
C 1.57952195 7.15120679 24.48325257 -0.00188935 -0.00795281 -0.00936221
C 2.50151734 0.98582862 24.55512375 -0.00170418 0.00547075 0.00658646
C 5.58083801 5.50695196 16.22371990 0.00246649 0.00088876 0.00201914
C 1.47781721 0.86266668 16.31747089 0.00300571 -0.00344125 0.00187122
C 7.00292267 5.23015759 24.26903140 0.01090148 0.00409122 0.00442078
C 5.35940380 12.19362809 25.32388600 -0.00831685 -0.00313653 -0.00159561