1920
Time=18999.99999999 pbc="T T T" Lattice="25.65289436 0.00000000 0.00000000 0.00000000 25.74501729 0.00000000 0.00000000 0.00000000 32.98337561" energy=-12245.83214712 virial="-60.30158565 -11.28587753 -10.44777397 -11.28587753 -89.57094019 7.85190574 -10.44777397 7.85190574 -61.25022531" stress="-0.00038437 -0.00051293 -0.00043946 -0.00051293 -0.00190649 0.00036621 -0.00043946 0.00036621 -0.00050455" Properties=species:S:1:pos:R:3:vel:R:3
O 6.16474297 3.21114060 6.94799140 0.00111166 0.00120903 0.00204223
O 2.48865431 3.17204538 14.94155485 0.00107722 0.00077258 0.00556406
O 1.41421895 9.88375951 1.12539898 0.00270941 0.00017765 0.00271065
O 7.01017111 9.37215649 9.58586527 0.00092567 0.00395640 -0.00237572
O 2.77609426 10.39101082 9.29446868 -0.00282696 0.00021808 -0.00672586
O 6.04353663 9.06301740 0.82639819 0.00340806 -0.00026579 -0.00657839
O 6.58122817 2.46423673 15.46389076 0.00187429 0.00549478 -0.00559437
O 1.80849239 3.59437745 6.90639750 0.00299035 0.00029693 0.00525482
O 5.84808848 0.80499068 17.38567729 0.00295921 -0.00080960 -0.00409928
O 2.20709055 5.46627527 8.83471111 0.00071287 0.00446205 0.00194622
O 2.14349268 11.68617426 7.20863574 -0.00210146 -0.00107170 0.00572689
O 6.64193547 7.46317528 31.82596415 -0.00133952 -0.00309329 -0.00321622
O 2.12540508 11.62077600 32.26868846 0.00122632 -0.00119946 0.00041735
O 6.64270280 8.24741155 7.34489681 -0.00061253 -0.00606157 0.00222876
O 6.11144298 1.54015180 8.84979580 0.00002738 -0.00193352 0.00111182
O 2.51171494 4.83773330 17.03029422 -0.00129776 0.00111170 -0.00686159
O 5.78092297 2.56658682 23.50633992 0.00529439 -0.00015080 -0.00321736
O 2.78817321 3.58289606 31.62017428 0.00361141 -0.00446504 -0.00087039
O 1.67786165 9.82926561 17.86166598 -0.00226370 -0.00275703 -0.00663035
O 7.22739076 8.76922224 26.02586999 0.00181916 -0.00329693 -0.00470497
O 2.88280269 10.25912585 26.01177226 -0.00293790 -0.00652788 0.00499625
O 5.85832818 9.06262569 17.57917733 0.00297817 -0.00154413 0.00204566
O 7.06185603 2.63411203 31.88749381 -0.00009460 -0.00283959 -0.00329383
O 1.73569466 3.74654377 23.47901469 0.00659822 0.00135945 0.00320887
O 6.32006862 0.95998791 0.74596805 -0.00042082 -0.00029785 0.00101345
O 1.88490549 5.12819512 25.51524278 0.00383797 -0.00067411 0.00829899
O 1.94361413 11.59995883 23.87714315 -0.00290305 0.00096419 0.00546212
O 6.53270482 7.43030595 15.71959208 -0.00748577 -0.00567265 -0.00562051
O 2.14918588 11.31575060 15.75370743 -0.00206987 -0.00849753 -0.00607892
O 6.50945595 7.61552265 23.70876773 -0.00442101 -0.00227376 0.00249668
O 6.14319410 1.32425511 25.56822904 -0.00504144 -0.00295903 0.00054631
O 2.06094384 5.15115273 0.70675062 0.00171986 -0.00083525 0.00195824
O 5.83651001 15.45338718 6.74565883 -0.00228943 0.00066334 -0.00060007
O 2.65644979 16.39023966 15.07147071 0.00192870 -0.00303837 -0.00778366
O 1.21228022 22.74233684 1.63533403 0.00840377 0.00752615 -0.00073444
O 6.98314452 21.74477283 9.66342086 -0.00383347 -0.01035655 -0.00308149
O 2.48167517 23.54017235 9.21911590 -0.00052441 -0.00306065 -0.00574897
O 5.55045266 21.73645014 1.22015441 -0.00213812 -0.00346904 0.00110981
O 6.88595534 15.61872226 15.26913381 0.00596801 -0.00454430 -0.00685432
O 1.49631412 16.72320644 6.87012285 0.00098515 0.00875243 -0.00379579
O 6.56164426 13.99683823 17.25573763 -0.00156086 0.00010928 0.00198423
O 2.21419724 18.22533588 8.91451294 0.00670040 -0.00476873 0.00099184
O 1.42586379 25.12408545 7.32422137 0.00399209 -0.00214144 -0.00829020
O 6.24521985 20.40743012 32.09736528 -0.00170425 0.00040464 -0.00462330
O 1.54529180 24.63347726 32.52794030 -0.00008296 0.00262683 0.00055461
O 6.04495944 20.78292167 7.50210242 0.00545133 -0.00585541 0.00535778
O 6.60459905 14.16247347 9.05322556 0.00215136 0.00080256 0.00630609
O 1.56126888 17.79616505 17.29561581 0.00215452 0.00894693 0.00176170
O 5.73795540 15.74824477 23.37743814 0.00542379 0.00362432 -0.00088115
O 2.64541998 16.62789696 31.86268780 0.00121941 -0.00292003 0.00116588
O 2.22187417 22.92882985 17.68336322 0.00088847 -0.00072628 -0.00562600
O 6.92641991 22.28914251 26.18871832 -0.00535472 0.00058524 -0.00148528
O 2.65415346 23.48611146 26.16152364 -0.00116593 -0.00033411 -0.00749614
O 5.45905531 21.93218620 17.87921389 0.00392825 0.00090911 0.01062912
O 7.16052657 15.39486019 31.53064178 -0.00033768 -0.00109886 0.00197297
O 1.49916606 16.76916248 23.55578364 -0.00632023 -0.00003644 -0.00388150
O 6.34173213 14.11019607 0.48370212 -0.00941368 -0.00258073 0.00465135
O 2.18825203 18.00852467 25.60015100 -0.00410396 -0.00279388 -0.00523688
O 2.07595987 24.61259052 23.86453129 -0.01070851 0.00255398 -0.00163904
O 5.82586510 20.49178262 15.95115480 -0.00183355 0.00002217 0.00141339
O 2.27909796 24.53502976 15.70814178 0.00173210 -0.00141374 0.00280527
O 6.38895982 20.77189436 23.94366258 -0.00446335 -0.00331338 0.00656957
O 5.88678791 14.19361434 25.49937895 -0.00371604 -0.00277301 0.00054224
O 1.88403002 18.42033920 0.87922491 -0.00914783 -0.00075803 -0.00132554
O 14.11952062 2.98203066 7.23685924 0.00105687 -0.00409793 -0.00182731
O 11.38656860 3.52007574 14.96984511 0.00472014 0.00304747 -0.00476812
O 10.21866967 10.64122723 1.30031203 0.00355336 -0.00578526 0.00345392
O 15.46294689 9.55308358 9.38427397 -0.00467956 0.00120815 -0.00261171
O 11.16409300 10.15807825 9.43007848 0.00069364 0.00309969 -0.00303957
O 15.04752260 9.38171880 0.94710931 -0.00350944 -0.00145566 0.00362838
O 15.64541547 2.56032854 15.75005727 0.00405597 0.00604954 0.00859997
O 9.78995248 3.82653468 6.79726608 0.00122980 -0.00370884 -0.00059172
O 15.27953924 0.96001920 17.82885471 0.00183002 -0.00800586 0.00189596
O 10.29588462 5.32941529 8.76371370 0.00180415 0.00746608 0.00645664
O 10.93578091 11.73995423 7.41883106 -0.00081258 -0.00291600 -0.00359328
O 14.43132509 7.85140568 31.85237715 0.00326547 0.00451082 0.00217469
O 11.01022359 11.99025101 32.17117991 0.00156982 0.00572092 -0.00269080
O 15.02100341 8.04168558 7.25293527 -0.00639643 0.00351697 -0.00591027
O 14.72867814 1.50747737 9.35683177 -0.00196628 -0.00226321 -0.00085473
O 10.69437611 4.90279728 17.02712593 -0.01280073 0.00260796 -0.00926736
O 14.63563051 2.77946319 23.82010389 0.00249258 -0.00794051 -0.00415774
O 11.42249698 3.98861246 31.76896997 -0.00517798 0.00023744 0.00356644
O 9.94803493 9.65904591 17.78447647 0.00369242 0.00477639 -0.00362113
O 15.85744219 9.26382234 25.78482075 0.00319568 -0.00022536 -0.00337935
O 11.14694717 10.06521113 26.20602488 0.00342208 0.00370141 -0.00557128
O 14.70241806 9.27125604 17.49914206 -0.00392232 0.00135176 0.00089717
O 15.63144620 2.29785948 31.99847838 -0.00297903 0.00229181 0.00839205
O 10.17864303 3.27696104 23.23514998 0.00375653 0.00055297 -0.00219524
O 15.03250570 0.85820813 1.00701920 0.00291363 -0.00525632 -0.00301955
O 9.90542319 4.74270170 25.54200711 -0.00677823 -0.00329688 -0.00097827
O 10.87154061 11.23346314 23.95816792 0.00266643 -0.00232877 0.00070856
O 14.95810433 7.69246362 15.43511152 -0.00047682 0.00079280 0.00333662
O 10.59416446 11.57317952 15.68865320 -0.00359562 0.01446222 0.00284399
O 15.08669831 7.79505663 23.83424169 -0.00377954 -0.00165493 0.00135582
O 15.47312546 1.00377883 25.82577673 -0.00519286 -0.00034750 -0.00209572
O 11.04214260 5.65392019 0.71264285 0.00253139 0.00069760 -0.00014318
O 14.41628302 15.58394173 6.82793538 0.00056621 0.00117846 -0.00044653
O 10.98349568 16.32078186 15.11118037 0.00147301 -0.00089994 0.00176129
O 9.72997159 23.13157680 1.62699729 -0.00671556 0.00018863 -0.00234487
O 15.34653161 22.03795467 9.25955050 0.00077365 0.00750301 -0.00090608
O 11.19101207 23.00281378 9.58710460 -0.00181471 0.00145367 -0.00486287
O 14.12518982 21.91732898 1.04800543 -0.00344222 0.00311014 -0.00193124
O 15.16765729 15.75848196 15.17497967 0.00076069 -0.00746329 -0.00568792
O 10.59357473 16.56420471 6.81009645 -0.00399557 0.00172889 0.00230251
O 15.13088767 14.33344062 17.36565806 0.00535946 0.00374962 -0.00224034
O 10.90061473 18.08049012 8.90295516 -0.00018760 0.00214240 -0.00305190
O 10.58267226 24.82724161 7.62405324 0.00366049 -0.00024080 -0.00208651
O 15.16429311 20.59547439 32.12498483 -0.00351435 -0.00081478 0.00169621
O 10.69491809 24.60258825 32.38631624 -0.00032078 0.00793970 0.00528384
O 14.76464428 20.48618250 7.34499034 0.00582877 -0.00408330 -0.00242704
O 15.15467981 14.37804966 8.90904324 -0.01191773 0.00097666 0.00637859
O 10.71168854 17.94200380 17.08935595 0.00324201 -0.00135689 -0.00197563
O 13.96404107 15.61297986 23.37003159 -0.00141124 0.00288189 0.00122480
O 11.19871196 17.13554032 31.76318399 0.00183934 -0.01093549 -0.00283099
O 9.91169657 23.11630516 18.06150894 -0.00448668 0.00292725 0.00518171
O 15.85424319 21.68730969 26.13315954 0.00143951 0.00512155 0.00580045
O 11.96515288 23.15328338 26.52315869 -0.00020151 0.00619670 0.00061244
O 14.02751036 21.64551412 17.58970730 -0.00292826 -0.00093173 0.00839409
O 15.22033507 16.02684133 31.57458676 -0.00253453 -0.00125236 -0.00574011
O 10.37913436 16.51709878 23.33972001 0.00151107 0.00111229 -0.00151859
O 15.40271880 14.47485247 0.58675151 0.00092233 -0.00192257 -0.00475158
O 10.67163403 18.21829408 25.44921273 -0.00017882 -0.00144083 -0.00184709
O 11.40393556 24.15619220 24.20323878 -0.00435154 0.00428976 -0.00307962
O 15.03948012 20.29243447 15.44202252 -0.00499963 -0.00156720 -0.00472693
O 10.43677668 24.21816268 15.76310055 0.00059481 0.00443849 0.00284383
O 15.29554676 20.50827461 23.91657046 0.00169650 -0.00129941 0.00582976
O 14.86236101 14.43977350 25.35572653 -0.00282559 -0.00138461 0.00078367
O 10.05414267 18.37398214 0.65561377 -0.00427763 -0.00012352 0.00178190
O 23.39781169 3.10419374 6.96461482 -0.00040963 -0.00244508 -0.00134091
O 19.92824951 3.66798544 15.06635213 -0.00223519 -0.00443249 0.00113554
O 18.59846812 10.60684159 1.58324018 -0.00128715 -0.00036394 -0.00648343
O 24.23027291 9.19971056 9.55640601 0.00827287 0.00144027 0.00300632
O 20.19386447 10.33717149 9.78088302 0.00049970 -0.00079837 0.00200068
O 22.66296130 9.33608502 1.17182412 0.00436828 -0.00516333 0.00220048
O 24.11168341 2.72093337 15.38950437 -0.00033253 0.00215022 0.00219964
O 18.19618505 3.86023547 6.95495314 -0.00223325 -0.01085627 -0.00419950
O 23.45834394 1.34070397 17.42949029 0.00475707 -0.00922778 0.00218932
O 19.35311893 5.04810172 8.82840925 0.00344832 0.00097853 0.00024436
O 19.27185118 11.75410387 7.91097834 0.00570143 -0.00731260 0.00027496
O 23.18594802 7.75418655 32.03838520 -0.00457544 0.00310270 0.00403538
O 18.90937521 11.74486597 32.06033782 0.00459747 -0.00167829 -0.00164918
O 23.60018170 7.96067159 7.25309848 -0.00279606 -0.00069911 -0.00074762
O 23.34241931 1.48498755 9.31621011 -0.00111517 0.00662982 -0.00404600
O 19.40482695 5.03771163 17.25524500 -0.00207941 -0.00204011 0.00200591
O 23.15592958 2.46164195 23.74478675 0.00027223 -0.00048656 0.00158971
O 19.22895752 3.77824271 31.77956168 0.00651858 -0.00293680 0.00406099
O 18.65080665 10.02272440 17.53395256 0.00000270 -0.00002376 0.00556101
O 23.89774967 9.06993317 25.83766945 -0.00442665 -0.00264539 -0.00525147
O 19.79060099 10.29985436 25.83866329 0.00078123 0.00059398 0.00024705
O 22.99243461 9.12462833 17.69011098 -0.00045141 0.00369861 0.00890048
O 24.03439249 2.95600515 31.88936698 -0.00882004 0.00004640 0.00029972
O 19.01984704 3.39910796 23.48814103 -0.00457620 0.00148701 0.00116702
O 23.75902124 1.35688462 0.88959245 -0.00607667 0.00117810 0.00208626
O 19.35485150 5.17172065 25.36592203 0.00115440 -0.00312657 0.00262198
O 19.01275928 11.67280036 23.76202486 -0.00347097 0.00406997 0.00282000
O 23.63009681 7.45719348 15.66841346 -0.00320401 0.00692054 0.00488887
O 19.50112603 11.89632832 15.79328021 -0.00010801 -0.00116317 -0.00556490
O 23.56300121 7.57378833 23.79342271 -0.00166951 0.00320971 0.00073153
O 23.53552218 1.13154657 25.89216833 -0.00037433 -0.00069758 0.00379451
O 18.95967856 5.43471695 0.82071329 0.00117315 0.00088729 -0.00110573
O 23.02114887 15.50932533 7.13305407 0.00390053 -0.00031978 -0.00529892
O 19.71106106 16.73770761 15.17536463 -0.00304817 -0.00156666 -0.00062155
O 18.70459528 22.88603365 1.49777329 0.00170920 -0.00656779 -0.00316826
O 24.46153354 21.93275822 9.82291040 0.00380024 -0.00186986 0.00541042
O 19.82702384 23.14298928 9.80194354 0.00271758 0.00063109 0.00558843
O 22.98061114 22.25041714 1.37954398 -0.00289461 -0.00965103 0.00271406
O 24.25294982 15.42028333 15.22712813 0.00351493 0.00196070 0.00369110
O 19.33264435 16.50717578 6.92358330 0.00275707 -0.00170502 -0.00139148
O 23.30490474 14.08001028 17.33400086 -0.00520911 0.00024729 0.00422068
O 19.28269783 18.25689022 9.05569895 0.00323342 0.00944453 -0.00875585
O 19.68723089 24.63511196 7.71812619 0.00369327 0.00487410 -0.00176198
O 22.93756619 20.54348804 32.18529150 -0.00394394 0.00306712 0.00100061
O 19.49670381 24.37355577 32.44333700 0.00030982 -0.00709241 -0.00154596
O 23.86000743 20.88602432 7.70436728 -0.00128080 0.00370538 0.00558605
O 23.82132530 14.12360472 9.23287154 -0.00984767 0.00528712 0.00186358
O 19.19512854 17.83669613 17.45822160 -0.00614927 0.00228500 0.00122708
O 23.34205741 15.66893465 23.45935561 -0.00441207 0.00397300 0.00104439
O 19.97638088 16.56917992 31.52279547 0.00287033 -0.00192129 -0.00440190
O 18.90366505 22.54726885 17.95752984 -0.00129728 0.00296880 -0.00373412
O 24.47892761 21.84895407 26.18505717 -0.00100392 -0.00527212 0.00422450
O 19.97202518 22.74835916 26.20725608 -0.00634273 -0.00441332 -0.00287443
O 23.51216239 21.99360213 17.83741994 0.00492653 -0.00484906 -0.00640353
O 24.03464889 15.51427363 31.70314244 0.00069358 0.00370669 -0.00251458
O 18.73654700 16.36855417 23.58397636 0.00525395 0.00310642 -0.00284376
O 23.09357317 14.35082413 0.85862294 -0.00366498 0.00116499 -0.00063595
O 19.68310409 17.82183947 25.43305465 0.00250995 -0.00109992 0.00319586
O 19.29567497 24.09088418 24.09078473 0.00692776 -0.00248939 -0.00355210
O 24.19645076 20.20138625 15.66174350 -0.00364512 0.00076714 -0.00637877
O 19.31741397 24.36826529 16.16615264 0.00502536 0.00006332 0.00331185
O 23.59385379 20.58597010 24.10963839 -0.00025169 0.00076383 0.00170543
O 23.44603091 14.07714069 25.49635531 -0.00276406 -0.00496709 0.00262082
O 19.73096918 18.06482643 0.69169541 -0.00335090 -0.00202973 -0.00065749
N 7.71258337 13.09646609 2.04941903 0.00007781 0.00991985 -0.00217194
N 1.20215530 6.47641336 10.62784226 -0.00540119 -0.00135662 0.01108179
N 3.11173799 0.03450349 5.86702920 -0.00541934 0.00250885 -0.00125164
N 5.22350647 6.46737576 14.07571478 -0.00318627 0.00272920 0.00711741
N 0.93556449 25.52854577 14.17713687 0.00735671 0.00237043 -0.00351927
N 7.44816685 6.85791882 5.70435091 0.00729208 0.00218101 -0.00200626
N 5.32121285 12.96180205 10.55007514 0.00253432 0.00192662 -0.00881224
N 3.01493078 6.35907637 2.39654225 -0.00365297 -0.00101961 -0.00262588
N 7.19575541 12.73603008 19.03410029 0.00320310 -0.00351602 0.00665127
N 0.86899679 6.29482331 27.17309617 -0.00406886 0.00049410 0.00154510
N 3.34989500 25.73008192 22.39104820 -0.00056882 0.00693128 -0.00509363
N 5.12420387 6.40263444 30.45773726 0.00997838 0.01159902 0.00416844
N 0.88203302 0.29022725 30.90072883 -0.00078565 -0.00511079 -0.00254651
N 7.28322429 6.25934212 22.04247046 -0.00037379 0.00727702 0.00498753
N 5.25898205 12.70141287 27.13260786 0.00452340 0.00288621 -0.00212604
N 3.38611498 6.21347238 18.75576132 0.00382496 -0.00076585 0.00592785
N 7.30919882 25.72011956 2.59641917 -0.00075329 -0.00210136 -0.00333765
N 0.91976332 19.26382501 10.55832790 -0.00017945 0.00954356 -0.00176123
N 3.51672945 12.59200258 5.57367470 -0.00125864 -0.00156182 0.00247599
N 5.12147704 19.20842606 14.21582503 -0.00375236 0.00238375 -0.00013520
N 1.08646341 12.57683134 14.19293486 0.00130204 -0.00542881 -0.01071114
N 7.38604267 19.59513442 6.05725926 0.00148311 -0.00754968 -0.00045543
N 5.00940646 0.47104043 10.56275846 0.00232926 0.00427935 0.00239607
N 3.25725139 19.44032584 2.43285540 -0.00104093 -0.00353310 0.00442238
N 7.43123168 0.06038662 18.86122747 -0.00309011 0.00390987 -0.00564749
N 1.09947282 19.27024602 27.16247433 -0.00320529 0.00697032 -0.00265538
N 3.22147488 12.74423775 22.32968468 -0.00217850 -0.00232029 -0.00634272
N 5.08484442 19.26149729 30.45889401 -0.00885872 0.00431087 0.00378076
N 1.03103294 12.58290518 30.58163699 -0.00624182 0.01047184 -0.00248091
N 7.44291842 19.46978627 22.32884095 0.00464020 0.00162641 -0.00546339
N 5.49009403 25.71434190 27.27087184 0.00379693 0.00113384 -0.00116598
N 3.05944400 18.94117130 18.69669665 0.00221606 -0.00061196 0.00049262
N 16.36583179 13.18120265 2.28036814 -0.00561046 -0.00120969 -0.00605922
N 9.63075198 6.50612426 10.57871978 -0.00260711 -0.00299003 -0.00148745
N 11.83713800 0.10160534 5.99766066 0.01014906 0.00166381 0.00465554
N 14.02980118 6.43894441 13.75111901 0.00545353 0.00450724 -0.00591957
N 9.49175532 25.53275693 14.08691564 0.00425439 0.00570704 0.00504125
N 16.18262205 6.86574371 5.72239761 0.00216976 0.00728177 0.00128310
N 13.99487430 13.18613819 10.49780515 0.00211294 0.00042666 -0.00856918
N 11.89154790 6.64609308 2.65242428 0.00233340 0.00392031 0.00060254
N 16.31215671 13.25970620 18.97677486 -0.00164567 0.00859492 -0.00457330
N 9.33000912 6.30118161 27.17341921 -0.00413493 -0.00735486 -0.00892975
N 12.10324441 25.56195876 22.49677426 -0.00691568 -0.00675835 0.00187594
N 13.56095381 6.68975876 30.07603651 0.00151276 0.00243691 -0.00166403
N 9.70538633 25.71328966 30.60153377 0.00344639 0.00275399 0.00261543
N 16.17123131 6.60141448 22.15047624 -0.01031008 -0.00092595 -0.00341903
N 13.85153587 13.20299764 27.02901874 -0.00925108 0.00502099 -0.01007186
N 11.72132692 6.14832472 18.69622964 -0.00029567 0.00156714 -0.00413461
N 16.06533749 25.66233988 2.85022051 -0.00282442 -0.00311110 -0.00322392
N 9.61832765 19.12362022 10.55039507 -0.00481091 0.00001796 0.00236398
N 11.81532463 13.07089315 5.83856296 -0.00935116 -0.00505900 -0.00156257
N 13.62830529 19.26877887 13.85736577 0.00010285 -0.00671164 -0.00450876
N 9.58218974 12.73038142 14.03330255 0.00140493 -0.00046798 0.00419517
N 15.97927337 19.55491069 5.64535515 -0.00414838 -0.00425637 -0.00283537
N 13.94409791 0.01749103 10.98006850 -0.00744098 -0.00560486 -0.00349579
N 11.34476942 19.53096181 2.13413316 -0.00109180 0.00060043 0.00284291
N 16.43047691 25.64725663 19.49329606 0.00178065 0.00519867 0.00394313
N 9.93912364 19.63037891 27.06724747 0.00132450 -0.00248236 0.00222037
N 11.77347381 12.46923586 22.22914571 0.00779834 -0.00777979 -0.00302074
N 13.85045866 19.38791671 30.69878083 0.00322936 -0.00178065 0.00276425
N 9.72917363 13.06246434 30.46752671 -0.00039966 0.00092439 0.00861224
N 16.27427872 19.36884962 22.24095287 -0.00005460 -0.00629034 -0.00800199
N 13.95199594 0.00932724 27.24235516 -0.00025954 0.00026358 0.00251568
N 11.73661494 19.27603808 18.67279004 -0.00167325 -0.00203101 -0.00378151
N 24.60359415 13.32162685 2.38387976 -0.00639238 -0.00054220 -0.00058653
N 18.47696752 6.37755232 10.52520406 -0.00290251 0.00176346 -0.00286719
N 20.19737143 0.23816300 5.93965791 0.00350035 0.00192054 0.00499423
N 22.32744643 6.46733661 14.03937215 0.00068167 -0.00063986 0.00179335
N 17.86297405 25.10535023 14.50054578 0.01598144 -0.00362188 -0.00344357
N 24.59886980 6.75926074 5.59664524 0.00554065 -0.00582673 -0.00775448
N 22.42563553 13.03041545 10.66580506 -0.00365482 -0.00602203 0.00506295
N 20.29457196 6.33275021 2.48350516 0.00462535 0.00030390 -0.00005794
N 24.64853029 13.01178267 18.78420081 -0.00500098 -0.00147564 0.00750400
N 17.99059921 6.15116115 26.91007798 0.00037784 -0.00113407 -0.00932272
N 20.61896221 25.12884683 22.57135358 0.00777809 -0.00107185 0.00232364
N 22.33887121 6.34752622 30.47859897 0.00262759 -0.00034549 -0.00889507
N 18.32945586 25.44105493 30.72091296 0.00197037 0.00625880 0.00624536
N 24.71888884 6.37555358 22.20190253 -0.00155060 -0.00126775 0.00396464
N 22.57925779 12.72713818 27.10218925 0.00113681 0.00127714 -0.00633483
N 20.72618613 6.05011774 18.87900382 -0.00271304 -0.00347298 -0.00151524
N 24.75606906 0.04604781 2.48572975 0.01117936 0.00117308 0.00216906
N 18.05881482 19.38143083 10.62192785 0.00765862 0.00303642 -0.01137627
N 20.32146444 13.11076077 6.28837421 0.00355093 -0.00058841 -0.00019739
N 23.00400290 19.03845450 14.12428685 0.00682858 0.00535994 -0.00218889
N 18.27826866 12.97265791 14.19424139 -0.00081755 0.00754935 0.00232078
N 24.82357170 19.58842181 6.08385196 -0.00410841 0.00070249 -0.00531258
N 22.41339645 0.03581715 10.87947487 -0.00046907 0.00143381 -0.00838918
N 20.51904118 19.49644353 2.32085435 0.00461404 0.00595331 0.00268577
N 24.57993145 0.17831444 19.02277848 0.00783136 -0.00233333 0.00172788
N 18.24778629 18.87202852 26.84350955 -0.00294448 -0.00645102 0.00022010
N 20.23993463 12.76422296 22.16087586 0.00737487 -0.00258834 -0.00005158
N 22.52711139 19.06350673 30.43891472 0.00019300 -0.00264731 -0.00011564
N 17.82374649 12.75224632 30.32735499 -0.00313753 -0.00724845 0.00247947
N 24.67992468 19.24753338 22.53195405 -0.00037599 -0.00672876 -0.00624856
N 22.53240487 25.67186524 27.59798505 -0.00191933 0.00184987 -0.01132045
N 20.44796726 19.02176962 18.90706359 -0.00182772 -0.00402535 -0.00398289
C 7.59455915 0.65573835 4.89881883 0.00748345 0.00278431 0.00461748
C 1.11939853 5.85292624 12.86570417 0.00081106 -0.00255064 0.00358911
C 3.36572840 12.17663204 3.23613414 -0.00125993 0.00410649 -0.00319513
C 5.33795752 6.89329117 11.70933525 0.00610329 -0.00500770 0.00645939
C 1.08321347 12.57263641 11.72730965 0.00456329 -0.00380252 0.00288363
C 7.63869471 6.97882085 3.33956630 -0.00454256 -0.00039924 0.00001844
C 5.26376393 0.28707705 12.93612470 0.00258763 0.00119005 0.00004749
C 3.30178902 6.08331025 4.69777895 0.00512458 -0.00123025 0.00580692
C 7.20969236 1.30438215 5.97418491 0.00636044 -0.00221395 -0.00063034
C 1.42004416 5.08844104 13.97249524 0.00143165 -0.00467257 0.01178121
C 2.88621570 11.48489110 2.11328179 0.00826986 0.00008679 0.00632382
C 5.69230587 7.62126476 10.57367433 0.00170527 -0.00568563 -0.00320095
C 1.52491287 12.03117375 10.51314289 0.00561452 0.00614081 0.00761239
C 7.34173708 7.55790914 2.12535592 -0.00051509 -0.00065403 0.00275667
C 5.70532232 0.70413898 14.17157591 -0.00497124 0.00358076 -0.00496179
C 2.98400013 5.40789866 5.93429068 -0.00140197 -0.00419945 0.00574326
C 6.36901872 2.50478325 5.84076332 -0.00808981 -0.00688929 -0.00606189
C 2.14781512 3.87173217 13.83741707 -0.00689296 -0.00380950 -0.00285516
C 1.95814548 10.46397075 2.25583781 -0.00782851 0.00259686 -0.00274726
C 6.49814304 8.75378680 10.64898619 -0.00622803 0.00284362 0.00114931
C 2.37353294 10.93188248 10.48408465 -0.00637719 0.00125563 -0.00674137
C 6.42176448 8.61986031 2.04515988 0.00428690 -0.00127909 -0.00437149
C 6.37984716 1.91481479 14.21528941 -0.00800505 0.00385769 0.00042851
C 2.20303092 4.19158404 5.83132234 0.00071690 0.00565666 0.00817484
C 5.92522348 2.87674843 4.55355253 -0.00299799 -0.00078043 -0.00093590
C 2.42710479 3.45404742 12.51832216 0.00375949 -0.00097679 -0.01345337
C 1.63684070 10.04505288 3.59036224 -0.00564701 0.00337013 -0.00144632
C 6.77582846 9.18276996 11.95589331 0.00231326 0.00494099 -0.00264237
C 2.53642865 10.25786612 11.70150167 0.00271734 0.00672738 -0.00018657
C 6.08444476 9.25284104 3.19825036 0.00350871 -0.00055913 0.00163288
C 6.72994650 2.58069090 13.03091118 -0.00706516 -0.00135764 0.00589681
C 1.88905516 3.70594418 4.57179258 -0.00232752 -0.00729653 -0.00012361
C 6.28293207 2.06531351 3.46178776 -0.00431026 0.00180747 -0.00369080
C 2.14856674 4.29385581 11.45776766 0.00100651 0.00511142 -0.00100389
C 1.91296053 10.88127994 4.63260371 -0.00180380 -0.00209458 0.00154134
C 6.31615487 8.48656608 13.00789208 0.00218390 -0.00312804 -0.00426727
C 2.12307964 10.68351429 12.91406448 0.00153270 -0.00117641 0.00541718
C 6.49968338 8.83730018 4.43304979 -0.00554899 -0.00065171 -0.00418049
C 6.27603048 2.17743757 11.81470951 0.00114095 -0.00294276 -0.00251912
C 2.20102654 4.36189501 3.42777833 -0.00410861 0.00497181 0.00108201
C 7.06233211 0.85631900 3.61425331 0.00272875 0.00171852 0.00412784
C 1.46859698 5.50315280 11.59697731 -0.00084888 0.00314640 0.00037875
C 2.91200896 11.89408078 4.49689632 0.00251210 0.00163164 0.00440492
C 5.55668015 7.28545638 12.97968916 0.00318819 0.00625075 -0.00608065
C 1.38308947 11.91035720 13.00602626 0.00137049 -0.00325731 -0.00214958
C 7.27959634 7.62342468 4.50861837 -0.01249881 -0.00022425 0.00770827
C 5.49949422 0.98892586 11.76637341 0.00138372 -0.00266449 -0.00251377
C 2.87440168 5.57020858 3.46005939 0.00085966 -0.00209083 -0.00126676
C 6.78799849 25.74018654 1.36811993 -0.00710215 -0.00864151 0.00186540
C 1.54919738 6.37902783 9.31691415 0.00607951 0.00373523 0.00174229
C 2.83803235 12.63933293 6.74585947 0.00569455 -0.00240086 -0.00912569
C 5.86151622 6.52865545 15.26763453 0.00090580 -0.00336018 0.01526606
C 1.70739277 12.41015884 15.38244308 -0.00526088 -0.00130101 -0.00454216
C 7.01556633 7.11627285 6.96858636 0.00155596 -0.00184339 0.00749278
C 5.66840583 0.45018793 9.39769391 0.00184503 -0.00347846 -0.00307899
C 2.59727389 6.16737507 1.12626944 -0.00804145 -0.00584736 -0.00007746
C 7.03956181 11.65677820 16.85993685 0.00448777 0.00108105 0.00038730
C 1.30220571 7.60209588 8.43211842 0.00672180 0.00615230 0.00113244
C 2.92827392 1.06555567 8.00000641 -0.00109750 0.00067841 -0.01222108
C 5.49781314 5.50732361 32.61800035 0.00023674 -0.00034116 0.00061202
C 1.43948151 1.24295968 0.10845673 0.00418832 -0.00054633 0.00157163
C 7.03047534 5.95895371 7.98537056 0.00263389 0.00374681 -0.00448461
C 5.59159696 12.17032195 8.28143284 -0.00305952 0.00061897 0.00601189
C 2.75380042 7.23070773 16.77321030 0.00245388 -0.00963428 -0.00147424
C 7.42869068 0.22779285 21.31376341 0.00302150 -0.00154342 0.00034757
C 0.92111412 5.92200720 29.52903552 -0.00652784 -0.00051169 -0.00193013
C 3.46462736 12.17061619 19.89282004 -0.00225862 -0.00538077 -0.00450988
C 5.19482214 6.61310282 28.07034477 -0.00300614 0.00514868 0.00841168
C 0.94241436 12.30691636 28.14302040 0.00683798 0.00203576 0.00520726
C 7.45308842 6.68814099 19.66389291 0.00104176 0.00453482 0.00479960
C 5.24470460 0.40101751 29.62215184 -0.00500879 -0.01162209 -0.00005767
C 3.05889029 6.22118137 21.12171363 0.00055675 0.00171785 0.00811340
C 7.25066531 0.92906348 22.48048018 -0.00393043 0.00576201 -0.00809417
C 1.33383445 5.25925815 30.70936411 0.00302604 0.00440720 -0.00471681
C 3.07926769 11.42904246 18.79407270 0.00201974 -0.00004344 0.00273787
C 5.69975834 7.29218909 26.98281694 0.00420575 -0.00362600 0.00029998
C 1.31750716 11.65324981 27.03370448 0.00254536 -0.00656995 0.00398936
C 6.97837880 7.33314264 18.50161840 -0.00391737 -0.00424074 -0.00088706
C 5.61248112 1.08314531 30.79361218 0.00465280 0.00264015 -0.00275312
C 2.75193918 5.59669952 22.31179353 -0.00352265 -0.00049186 0.00903381
C 6.32844785 2.07762345 22.46648771 -0.00655775 -0.00312798 0.00175117
C 2.14763648 4.13199645 30.55650480 0.00593132 0.00095508 0.00464473
C 2.22129263 10.36956668 19.02003844 0.00369182 0.00130130 -0.00075975
C 6.47565615 8.47144057 27.11110653 -0.00007024 0.00501551 -0.00439806
C 2.23394764 10.59659522 27.14296179 -0.00199919 -0.00009821 0.00024093
C 6.19735234 8.41928379 18.64919773 0.00341751 0.00725545 -0.00338624
C 6.54582692 2.16343523 30.74665123 -0.00181494 -0.00691048 0.00245706
C 1.96113439 4.36859042 22.34082216 -0.00272884 -0.00218215 0.00173806
C 5.93170071 2.59168788 21.16593580 0.00210388 -0.00421155 0.00360949
C 2.38755623 3.65989327 29.25717028 0.00150731 0.00214320 -0.00035538
C 1.84771886 9.92018535 20.24260732 0.00031126 -0.00635653 -0.00785000
C 6.56713512 9.07465076 28.32287749 -0.00026383 -0.00453074 0.01080256
C 2.36446790 9.95756781 28.37754847 0.00145762 -0.00008334 -0.00437283
C 5.90304267 8.96420870 19.93687094 0.00104985 0.00245988 0.00166456
C 6.79925056 2.68400571 29.48700557 0.00369557 -0.00476964 0.00452645
C 1.55116614 3.90223504 21.06249574 0.00871184 0.00639739 0.00068794
C 6.28758890 1.88423486 20.00561316 -0.00448797 0.00061177 0.00671663
C 1.85499970 4.20201659 28.10850940 0.00583469 0.00544054 0.00423257
C 2.07425874 10.78793224 21.30939515 -0.00302857 -0.00138760 0.00763336
C 6.02935628 8.43391767 29.45540211 0.00191485 -0.00971919 -0.00354112
C 1.85851047 10.50873414 29.52126652 -0.00341516 0.00054093 0.00460679
C 6.29884625 8.32758541 21.09928375 0.00185485 -0.00399286 -0.00742044
C 6.34136136 2.05302637 28.34587033 0.00057731 0.00262482 -0.00043809
C 2.07974395 4.41977189 19.86485051 0.00162789 0.00233145 -0.00349720
C 7.02159951 0.67750644 20.04284623 -0.00137171 0.00024586 -0.00495702
C 1.19444740 5.47601678 28.26143792 -0.00292268 0.00210471 -0.00168480
C 2.94728995 11.87547349 21.19635945 0.00144397 0.00762907 -0.00088195
C 5.43377194 7.18728229 29.35789958 0.00281574 -0.00079471 -0.00364934
C 1.26709958 11.77432880 29.40315319 -0.00456253 0.00085901 0.00385985
C 7.02101241 7.05582817 20.95529576 0.00031568 -0.00130068 0.00496702
C 5.69793070 0.84103009 28.36436382 -0.00960973 -0.00698187 0.00073758
C 2.87778999 5.61518366 19.88390205 0.00468515 0.00528398 -0.00006855
C 6.62833719 25.69232187 17.72084042 -0.00367679 0.00463546 0.00268178
C 1.37755642 6.15225062 25.97118951 0.00000144 -0.00341325 0.00691088
C 2.58524258 12.63156234 23.56430339 -0.00043020 -0.00266714 -0.00120060
C 5.82003423 6.59067408 31.60936197 -0.00264527 0.00171189 0.00321009
C 1.56231191 12.61374507 31.82206430 -0.00757047 0.00241807 -0.00859915
C 6.86845753 6.52998203 23.27829855 -0.00283868 0.00538055 0.00216744
C 5.78800727 0.21444452 25.92129945 -0.00042493 0.00092986 -0.00595344
C 2.87085130 5.94906602 17.48050201 -0.00102298 -0.00120299 0.01009483
C 7.31440480 11.93132238 32.90333599 0.00850578 -0.00394889 -0.00684276
C 1.31012524 7.46105467 25.17825037 0.00650501 -0.00383309 0.00689712
C 2.84930587 1.02747788 24.47311124 -0.00377126 0.00093519 -0.00227609
C 5.62336968 5.32634771 16.17563662 -0.00232565 0.00125166 -0.00823013
C 1.24562464 0.80350755 16.34484104 -0.00279040 -0.00290541 -0.00617261
C 6.91494858 5.37863320 24.22197003 -0.00994001 -0.00424257 -0.00181791
C 5.71553266 11.86536104 24.99504326 -0.00260944 0.00046612 0.00480104