1920
Time=15000.00000000 pbc="T T T" Lattice="25.67243004 0.00000000 0.00000000 0.00000000 25.37858203 0.00000000 0.00000000 0.00000000 32.86560462" energy=-12248.91516948 virial="-28.40555320 1.28447384 3.45060955 1.28447384 14.62617118 -31.08734590 3.45060955 -31.08734590 -9.86103193" stress="0.00092182 0.00011125 0.00011469 0.00011125 0.00290063 -0.00147238 0.00011469 -0.00147238 0.00184961" Properties=species:S:1:pos:R:3:vel:R:3
O 5.97809878 2.46558359 6.98860575 -0.00484093 -0.00245525 -0.00305355
O 2.81113356 4.01400608 15.08454681 0.00219409 0.00085523 -0.00061922
O 1.56610967 9.65785821 1.37562829 -0.00547146 0.00175671 -0.00009714
O 6.99004806 8.61182271 9.50644063 -0.00678615 -0.00300961 0.00527433
O 2.13928703 9.45965369 9.52209765 0.00119123 0.00004774 -0.00220247
O 5.34071690 9.01788290 1.13320665 0.01162734 -0.00046868 -0.01126728
O 7.11148814 2.88717508 15.10002018 -0.00047991 -0.00426853 -0.00367940
O 1.68354056 3.48578863 7.17743963 -0.00062987 -0.00367123 0.00361265
O 6.55407641 1.35253797 17.22846225 -0.00028100 0.00040305 0.00240847
O 2.59552664 5.12637094 8.95951711 0.00220202 -0.00518855 -0.00709267
O 1.82744729 11.58653078 7.62762460 -0.00373711 0.00515904 0.00323685
O 6.52062022 7.55009425 32.11566161 -0.00749139 0.00133121 0.00357630
O 1.58488876 11.29308585 32.32865516 -0.00057067 0.00321351 -0.00811596
O 6.18767876 7.58515558 7.18915187 -0.00168665 0.00338587 -0.00401835
O 6.44497254 1.14394008 9.01414246 -0.00640625 0.00154549 -0.00007451
O 2.14689859 5.41317211 17.22341844 -0.00153674 -0.00153547 -0.00855930
O 6.03523177 3.08276090 23.22858834 0.01007712 -0.00142681 0.00274359
O 2.57974235 3.31637772 31.66761809 0.00321315 0.00017727 0.00067619
O 1.43728496 10.19765277 17.75060605 0.00166042 -0.00414724 -0.00571635
O 6.80193433 9.23829999 26.03563151 -0.00183798 0.00021292 0.00038611
O 2.81315392 10.31335208 25.97078738 -0.00257472 -0.00072459 0.00366270
O 5.89537951 8.71399955 18.00374074 -0.00486664 -0.00184707 0.00952053
O 6.91708155 2.73097110 31.62308493 -0.00689221 -0.00659649 0.00057739
O 1.24958613 3.85573640 23.50243006 0.00040219 -0.00288268 0.00066001
O 6.48179889 1.27605626 0.75020332 0.00417795 0.00172501 0.00023337
O 1.81260091 5.29137652 25.62883558 0.00126307 -0.00040411 -0.00268533
O 2.31755581 11.82699291 23.88334264 -0.00215472 0.00244395 0.00083230
O 6.73628972 7.82849588 15.73691340 0.00164725 -0.00119173 0.00210567
O 2.04884282 11.50634657 15.71170489 0.00080428 0.00336863 -0.00105525
O 6.33475084 7.48094728 24.19525851 0.00121483 0.00292080 0.00218082
O 5.95246668 1.48870220 25.36201529 0.00213654 0.00191336 0.00229710
O 2.02176444 4.68818623 0.92016670 -0.00627075 0.00010341 0.00497859
O 5.38327461 14.74865824 6.92222166 0.00403503 -0.00166618 -0.00885678
O 2.39009947 16.45498565 14.83659470 0.00131665 0.00461652 -0.00241647
O 1.63198109 22.21385118 1.18000357 0.00003749 0.00106845 -0.00185395
O 6.91988909 21.66235780 9.10444083 -0.00085018 0.00278784 -0.00264390
O 2.69414262 22.47518589 9.60557246 0.00011783 0.00222674 -0.00534967
O 6.77076515 21.72640179 1.00677184 -0.00279131 -0.00302411 -0.00221380
O 6.77267775 14.93778886 15.43681997 -0.00127077 0.00261999 0.00075720
O 1.62927681 16.35765376 6.53367958 0.00046060 0.00171758 -0.00811356
O 5.78341800 13.26722976 17.34102354 -0.00309357 0.00530976 -0.00227835
O 2.09026675 17.80486348 8.68705380 0.00275766 -0.00504576 0.00258861
O 2.62905929 23.75732549 7.37684634 0.00104621 0.00195730 0.00073042
O 6.19975383 20.31243190 31.75893393 0.00498418 0.00162694 -0.00572514
O 2.04838706 23.99586497 32.31628335 -0.00343158 -0.00234082 0.00490129
O 6.16018098 20.00361333 7.16144266 0.00639308 0.00212574 -0.00222556
O 6.32104390 13.94003101 9.11029324 -0.00906924 -0.00450910 -0.00153861
O 1.91943922 18.04148922 16.78043393 -0.00509344 -0.00226852 -0.00416747
O 6.19568346 15.69004050 23.20374971 0.00368478 0.00225416 -0.00449274
O 2.60754383 16.01871981 31.17941469 -0.00167347 0.00089153 0.00411798
O 1.94471211 22.73209110 17.84801934 -0.00266179 -0.00310147 -0.00461463
O 6.96645609 21.71231257 25.51861696 0.00057422 -0.00032812 -0.00472487
O 2.71114819 22.40145079 26.01294664 -0.00286290 0.00186559 0.00059431
O 5.98455575 21.46671303 17.21588924 -0.00006377 -0.00341181 -0.00193256
O 7.07106360 15.15196489 31.53772556 0.00089192 0.00469126 -0.00472592
O 1.18783185 16.36584414 22.87234900 0.00197558 -0.00261688 -0.00120398
O 6.11423750 14.21214394 0.74344313 -0.00387663 -0.00431714 0.00257654
O 2.08943265 17.62366158 25.02077909 0.00212136 -0.00322562 -0.00126110
O 2.07742737 24.23749859 24.06779362 0.00064671 -0.00190347 -0.00089140
O 6.69353977 20.07763451 15.21580090 0.00348232 0.00623082 0.00484910
O 2.35138107 24.18711291 15.80511395 0.00147829 -0.00290708 -0.00271417
O 6.16365898 20.21931465 23.48277711 0.00423494 -0.00569641 -0.00050737
O 6.42745357 13.95540913 25.24098704 -0.00388765 -0.00303870 0.00156448
O 2.13441263 17.77670548 0.35492075 0.00174622 0.00263111 -0.00994070
O 14.36353717 2.45756441 7.34778211 0.00043708 0.00239058 -0.00083526
O 11.88788261 4.00831139 14.93538464 0.00411669 -0.00169613 -0.00425880
O 9.82442737 9.58088542 1.53563946 0.00567555 -0.00147379 0.00280816
O 15.55476847 8.98694182 9.15966982 0.00364638 0.00281469 0.00160254
O 11.86725267 10.07435070 9.60046176 0.00253478 0.00074767 -0.00000256
O 14.02002028 8.53235947 1.13483609 -0.00370276 -0.00029814 -0.00085035
O 15.88142361 2.66422345 15.33938680 -0.00034774 -0.00007761 -0.00145254
O 10.37351221 3.42299078 6.70771315 -0.00246779 -0.00507537 0.00131852
O 15.06859096 1.33871765 17.35158865 -0.00389917 -0.00128713 0.00489319
O 10.69902311 5.01821782 8.86316074 0.00473683 0.00117222 0.00010306
O 10.82782299 11.23606821 7.46503130 0.00502617 0.00085807 0.01117526
O 15.01238741 7.62803442 31.65588379 0.00296402 -0.00339308 -0.00804553
O 9.96027290 11.19334860 32.48962300 -0.00373249 -0.00018760 0.00373309
O 14.80719172 7.49664836 7.19995803 0.00262845 -0.00342142 0.00766050
O 15.05960642 1.13936530 9.40491603 0.00121015 0.00089564 -0.00220818
O 11.32319942 5.39143885 17.20622645 -0.00341855 0.00416454 -0.00298770
O 14.33929460 2.68499669 23.64293637 0.00259467 -0.00438526 0.00538448
O 11.30822670 3.67869050 31.25478531 -0.00030739 -0.00198043 0.00168030
O 10.15466427 10.07772704 18.14570156 0.00212845 0.00070040 -0.00078132
O 15.62060867 9.05724647 25.75272719 -0.00226490 -0.00285264 0.00155108
O 11.38652208 9.94555206 26.25041056 -0.00333212 0.00098054 0.00309491
O 14.82056002 9.24027757 17.53886922 -0.00049654 -0.00244729 0.00665002
O 15.91623072 2.42343481 31.74840719 -0.00019999 -0.00200420 -0.00535712
O 10.21680565 3.62934594 23.11206145 0.00952360 0.00019962 -0.00059827
O 14.74851473 1.23985205 1.06356772 -0.00089303 0.00264552 -0.00238987
O 10.09330194 5.18181827 25.25735053 -0.00419820 0.00966311 0.00305703
O 10.92739217 11.69973705 24.20812882 0.00518622 0.00446813 -0.00246111
O 15.49814612 7.79086960 15.51358835 0.00572727 0.00270391 0.00435202
O 10.18860702 11.00411322 15.74966017 -0.00439336 -0.00637681 0.00195962
O 14.59289259 7.39669729 23.65915449 -0.00536415 0.00422136 -0.00412396
O 14.83659304 1.27730613 25.65773413 -0.00520320 0.00388268 -0.00176985
O 10.51599734 5.15855796 0.39391389 0.00132078 0.00522793 0.00352139
O 14.56875364 15.36301735 6.89142847 0.00021772 0.00011532 0.00039011
O 11.22629972 16.07122819 14.92994755 -0.00479150 -0.00432392 -0.00016841
O 10.27979873 23.12251200 1.35735352 0.00454603 -0.00109989 -0.00478193
O 15.37619583 21.53173768 9.37949529 -0.00258509 -0.00585233 -0.00819048
O 10.79795763 22.38695490 9.38980945 -0.00211274 0.00204206 -0.00139535
O 14.74282586 21.60464117 1.19597753 -0.00479746 -0.00346123 -0.00024523
O 15.06281800 15.72367053 14.83189871 0.00048023 0.00193664 0.00088926
O 9.53161033 15.89293909 6.50609873 0.00191337 -0.00177406 0.00484409
O 15.30126698 14.38009769 17.19622566 -0.00189410 -0.00004343 -0.00246531
O 10.20222319 17.33449534 8.56897681 -0.00017027 0.00251476 0.00497531
O 10.22179936 24.07731258 7.63314415 0.00458208 0.00104662 -0.00103027
O 14.81034223 20.10783365 32.15044477 -0.00020076 0.00006950 0.00022272
O 10.79683869 24.67011658 32.29319814 -0.00347969 0.00839601 -0.00140883
O 14.61586908 20.05830085 7.40818893 -0.00423624 -0.00150219 -0.00326865
O 15.14941332 13.84659648 8.73942903 -0.00594549 -0.00375894 0.00092362
O 10.87220389 17.65711134 16.97984800 0.00550254 0.00376291 -0.00023360
O 14.40400610 15.54774541 23.42511083 0.00227354 0.00291493 0.00459399
O 10.64511258 15.88600800 30.89376988 0.00269706 -0.00047687 -0.00203323
O 10.13438885 22.94631098 18.01367667 0.00372766 -0.00767989 0.00213573
O 15.84550769 21.63060032 26.10011460 0.00282738 -0.00109325 0.00019885
O 10.85848519 22.72634515 26.25878755 -0.00035007 -0.00681723 -0.00856549
O 14.42572232 21.62985945 17.49976955 0.00567354 -0.00629325 0.00165536
O 15.72908849 15.39677277 31.62683501 0.00363266 0.00361074 -0.00159734
O 10.56276277 16.45174016 23.32055415 0.00154235 -0.00502719 0.00448833
O 14.85874017 13.89359899 0.80764910 0.00719402 -0.00790710 -0.00749754
O 11.10776541 18.13413002 25.10688796 -0.00217828 0.00371859 -0.00454020
O 10.44074420 24.40108986 24.11175965 -0.00022152 0.00320654 0.00019807
O 15.28081426 20.23801038 15.57162198 -0.00264307 -0.00298050 0.00184560
O 10.79815769 24.05956711 15.75163136 -0.00237557 -0.00094602 -0.00305139
O 15.54480121 20.72672660 23.77674428 0.00545100 0.00546283 -0.00420381
O 14.82663467 13.89663036 25.41222864 -0.00134099 -0.00265103 0.00274057
O 10.36554025 18.19032698 0.73097119 -0.00027888 0.00217098 0.00007614
O 22.96886951 2.59013862 7.01228808 0.00023735 -0.00065546 -0.00021750
O 20.12160939 3.68406296 15.27782889 0.00065071 0.00579314 -0.00373160
O 18.51733712 9.78414501 1.44803298 -0.00672194 0.00182930 -0.00005166
O 24.22018846 9.16919921 9.71007693 0.00575010 0.00263913 -0.00039020
O 19.99228206 10.06236504 9.67569069 -0.00707785 -0.00685140 -0.00335782
O 22.95069811 8.88886045 1.61658231 0.00258119 -0.00710716 0.00546602
O 24.29638951 2.68560523 15.27964316 -0.00021350 -0.00578362 0.01136470
O 18.65784909 3.20448877 6.99279955 -0.00106602 0.00190679 -0.00398258
O 23.48772917 1.19756834 17.41583823 -0.00298058 0.00618701 0.00479485
O 19.01854167 5.09289686 8.86218520 0.00604173 0.00014592 0.00141205
O 19.33107837 11.27546361 7.53389196 0.00041581 0.00049611 0.00147152
O 23.13414907 7.54792298 32.26160365 0.00041552 -0.00025174 0.00734794
O 18.97506131 11.27652787 32.22719969 -0.00602823 -0.00448814 0.00575771
O 23.47295809 7.52178075 7.78120729 0.00401598 -0.00113330 -0.00076463
O 23.37101341 1.14750621 9.14428571 -0.00054151 -0.00147017 -0.00058954
O 19.45136587 5.09228730 17.30873707 -0.00389054 -0.00013743 -0.00685485
O 23.47273982 2.86273583 23.67376167 -0.00137330 -0.00158345 -0.00222901
O 20.09814592 3.63167272 31.64544169 0.00191860 0.00380723 -0.00292739
O 18.68564989 10.25051374 17.58130812 0.00149706 -0.01285588 -0.00342632
O 24.19843776 9.22206675 26.22296203 -0.00189301 -0.00056239 -0.00220654
O 19.51506548 10.15280896 26.01482249 -0.00086595 -0.00904226 -0.00006505
O 23.21430019 8.91464293 17.84441831 -0.00235908 -0.00387469 -0.00044351
O 23.84648387 2.53056345 31.64596518 -0.00061234 -0.00387988 0.00342046
O 18.59700745 3.76417982 23.49213950 0.00173088 0.00250045 -0.00029667
O 23.53806880 0.93504941 0.77403114 -0.00074490 0.00640040 0.00244821
O 19.35237502 5.15162424 25.62067497 0.00131425 0.00038189 0.00626744
O 19.30081164 11.58220108 23.71765759 0.00211640 0.00011575 -0.00320585
O 23.76283659 7.48052572 15.73235427 0.00649899 0.00363277 0.00256327
O 18.95306553 11.77014834 15.61407324 0.00277470 -0.00131035 -0.00182385
O 23.67919413 7.84666859 24.03593561 -0.00206194 0.00056675 0.00083378
O 23.69614778 0.75189989 25.54800562 0.00121368 0.00453082 -0.00544051
O 19.38167208 4.92009050 0.97059554 -0.00283352 0.00499458 -0.00030511
O 22.77827037 15.24387284 7.08250795 -0.00030526 -0.00530725 0.00076274
O 20.28832490 16.35736228 14.90985848 0.00213063 -0.00440953 -0.00384126
O 18.75315574 22.80005199 1.41429037 -0.00108603 -0.00294114 0.00172074
O 24.55685405 21.87176450 9.32694711 -0.00533317 0.00238056 0.00180838
O 20.16885067 22.70312963 10.18601892 0.00062855 0.00022586 0.00365830
O 22.48566404 21.61548151 1.21189827 -0.00218202 0.00595782 -0.00586226
O 24.27903221 15.19730129 15.04589243 -0.00512869 -0.00223471 0.00535641
O 18.81103673 16.44150405 7.04270177 -0.00011020 0.00175260 -0.00085355
O 23.74051504 13.70949441 17.02789019 0.00111957 -0.00293600 0.00325698
O 19.28641130 18.27187353 8.97783617 0.00301654 -0.00063250 0.00547981
O 19.42036217 23.84330100 7.89721602 0.00208988 0.00241370 0.00208693
O 23.26033051 20.32677723 31.92422501 0.00289670 0.00174300 0.00430157
O 19.07313739 23.82659622 32.06144632 -0.00450553 0.01006141 0.00450229
O 23.95622273 20.40155741 7.35164887 -0.00371374 -0.00180779 -0.00360455
O 23.65969183 13.92017299 9.04264553 0.00143607 -0.00080867 0.00055639
O 19.78268446 17.60223792 17.40991216 0.00084080 0.00106654 0.00634887
O 22.74234800 15.28126651 23.14906532 0.00816964 0.00002982 -0.00030541
O 20.05233085 16.28841259 31.30078509 0.00101126 0.00000208 -0.00355174
O 19.44045475 22.91604876 17.84827510 -0.00598869 0.00017762 0.00847706
O 24.44100417 21.19716226 25.81007881 0.00249510 0.00105969 0.00261488
O 20.04555590 22.84711177 26.00971920 0.00149347 0.00005854 0.00353429
O 23.41640231 21.70760922 17.34172608 -0.00269499 -0.00721907 -0.00087262
O 24.18193833 15.33659872 31.55318350 -0.00306701 0.00341280 -0.00112251
O 18.54695565 16.35276168 23.46949679 -0.00345089 0.00653584 0.00364442
O 23.29460041 13.92182945 0.89299591 -0.00302304 -0.00210390 -0.00376712
O 19.31258071 17.83840985 25.35926367 0.00269080 0.00505729 0.00859588
O 19.24679702 24.31884743 23.99425375 -0.00060527 0.00245992 -0.00017793
O 23.66025732 20.22079126 15.32854056 -0.00456495 0.00965301 -0.00202907
O 19.69989504 24.76475386 16.14669607 -0.00215993 -0.00247894 0.00145178
O 23.64426320 20.19767231 23.55587132 -0.00394409 -0.00589251 -0.00086117
O 22.83200496 14.07392171 25.45316894 -0.00212951 -0.00083696 0.00147309
O 19.98589446 17.49369379 0.78295476 -0.00192761 -0.00207289 -0.00231963
N 7.24199827 12.78529938 2.19532740 0.00244512 -0.00476913 0.00405834
N 0.94137815 6.16388800 10.25036516 0.00131601 0.00545004 0.00168207
N 3.30576287 25.09640289 5.69466578 0.00441772 -0.00635795 0.00180239
N 5.30047623 6.58171246 14.37608148 -0.00670477 -0.00024877 -0.00591626
N 1.24168672 25.34604361 14.08643275 -0.00101291 0.00083018 0.00035165
N 7.63488894 6.70697863 5.57515792 -0.00480143 -0.00282276 -0.00116439
N 5.13801926 12.71764584 10.59292232 -0.00429039 -0.00266563 -0.00083614
N 3.11673493 5.88833979 2.52354155 0.00006600 -0.01203433 0.00180582
N 7.47768452 12.51141780 18.71034183 -0.00342101 -0.00652665 -0.00596708
N 1.11264836 6.56227940 27.43639229 -0.00451072 0.00170587 0.00259147
N 3.02291961 0.15262057 22.49026526 0.00375051 -0.00191427 -0.00147879
N 5.19027086 6.46409998 30.51050524 -0.00100135 0.00572229 0.00437453
N 1.18054776 25.31705843 30.58483583 -0.00055250 0.00872681 0.00073117
N 7.44998310 6.29267536 22.62307031 -0.00243050 -0.00100316 0.00923978
N 5.42064747 12.74307227 26.86002211 0.00465557 -0.00546172 -0.00348875
N 3.44140159 6.34256480 18.90655199 0.00068921 -0.00261987 -0.00023678
N 7.65032767 0.01257676 2.28325397 0.00981640 -0.00809860 -0.00194289
N 1.27185502 19.36439437 10.23011404 -0.00196038 -0.00473966 0.00698299
N 2.89457951 12.66979952 5.90999900 0.00684892 0.01243748 -0.00286668
N 5.19777592 19.29097764 13.69461675 -0.00109569 0.00130785 0.00350833
N 1.07258883 12.75101636 14.05312756 0.00117971 -0.00003196 -0.00527167
N 7.42050664 18.94456699 5.68204889 -0.00441803 0.00496708 0.00051328
N 5.35374903 0.05424792 10.63824345 -0.00103257 -0.00493896 -0.00142420
N 3.13262177 19.08859733 1.91671792 0.00854151 -0.00057310 -0.01050243
N 7.71803634 0.13236282 18.83536832 -0.00261549 0.00411159 0.01146564
N 1.18568268 18.92189235 26.59788104 -0.00743378 0.00858795 -0.00866164
N 3.30760927 12.92071587 22.09259370 -0.00364681 -0.00353691 0.00046633
N 5.40300366 19.04503464 30.02706362 -0.00382198 -0.00422337 -0.00307970
N 0.93662902 12.64331921 30.62041588 0.00592997 -0.00126949 -0.00081550
N 7.70715203 19.30682981 22.09634025 -0.00762689 0.00464858 0.00366145
N 5.08446351 0.17723372 27.05248110 -0.00540276 -0.00139577 0.00199166
N 2.86432138 19.17932663 18.55634584 -0.00141647 0.00420984 -0.00146743
N 15.96886935 12.73365309 2.36131118 0.00109242 -0.00949356 -0.00161832
N 9.65411745 6.25932417 10.46273917 0.00232976 0.00340615 -0.00397907
N 11.61681680 25.30100338 6.15314144 -0.00198408 0.00173605 -0.00350466
N 14.16137476 6.70454385 14.08176435 -0.00082934 -0.00580228 -0.00321964
N 9.56798031 25.07498361 14.11492968 0.00154878 -0.00131833 0.00106117
N 16.26612887 6.56863352 5.75426959 0.00104852 0.00450396 0.00120945
N 13.98203013 12.62646220 10.32257030 -0.00363453 -0.00028294 -0.00201229
N 11.29539294 6.49627714 2.12138745 -0.00005812 0.00259310 -0.00016007
N 15.84008313 12.94217942 18.81339601 0.00150917 -0.00265523 0.00338880
N 9.48679359 6.57735937 26.91599406 -0.01158433 0.00279729 0.00413170
N 11.82225301 0.04371175 22.59182534 -0.00949726 -0.00527511 -0.00827841
N 13.91280760 6.39781314 30.13406084 0.00217516 -0.00121918 0.00633852
N 9.65369255 0.54951881 30.71841792 -0.00034817 -0.00028854 -0.00933670
N 16.30548768 6.63468233 22.18168797 0.00081434 -0.00228404 -0.00182015
N 13.64975299 12.86330417 27.09197967 0.00883945 -0.00024820 -0.00329557
N 11.72197699 6.89515755 18.93824538 -0.00209070 0.00077761 0.00096600
N 16.16309694 0.38725040 2.61961047 0.00157186 0.00140787 -0.00673821
N 9.27573378 18.58979390 10.34227548 -0.00020628 0.00540264 -0.00090580
N 11.75414853 12.49059926 5.77772155 0.00420461 -0.00821713 0.00922431
N 14.09783455 18.96584650 14.06940066 0.00105894 -0.00143886 0.00031988
N 9.29297544 12.20402183 13.96626084 0.00199635 -0.00117816 -0.00152317
N 15.95377710 18.99093885 5.90435390 -0.00166468 0.00448286 0.00207670
N 13.60470579 0.21468596 10.97334832 0.00546336 -0.00196516 0.00003495
N 11.84175155 18.88169605 2.40233573 0.00337498 -0.00612371 0.00098892
N 16.24632486 0.22804694 19.00008799 -0.00274444 -0.00423337 0.00332717
N 9.82267953 19.27942299 26.61320380 0.00022228 -0.00833761 0.00020658
N 11.74671120 12.94475073 22.55964158 -0.00529392 -0.00305077 0.00324523
N 13.49669537 19.23585819 30.49011136 0.00453598 0.00322233 -0.00093227
N 9.27039125 12.51119486 30.76616696 0.00156073 0.00605790 -0.00212541
N 16.36352734 19.39247857 22.12608101 0.00473068 -0.00344420 -0.00133760
N 13.55279624 0.16522937 27.26518289 0.00364760 0.00014223 -0.00658861
N 11.61501835 19.11466948 18.54660063 0.00076743 -0.00454420 -0.00595394
N 24.36145121 12.63236038 2.48581802 -0.00408947 -0.00199344 0.00232323
N 18.26696021 6.24038587 10.72171570 0.00264125 -0.00147428 -0.00448005
N 20.31122093 25.17248316 6.15133229 0.00182723 0.00179872 -0.00597739
N 22.45031310 6.58129693 14.23515866 0.00053636 -0.00434020 0.00006585
N 18.44089402 0.23077801 14.47204735 0.00585490 0.00017877 0.00030723
N 24.55043444 6.16285509 6.26858712 0.00256496 -0.00126321 -0.00067682
N 22.34070769 12.82204765 10.58188061 -0.00214373 0.00004840 0.00586740
N 20.54907282 6.08829243 2.57938182 0.00061204 0.00551541 0.00227180
N 24.70954673 12.60730365 18.74436947 0.00289211 -0.00433102 -0.00021297
N 18.05674380 6.13871549 27.18204308 0.00657796 0.01325762 0.00364653
N 20.67824249 0.10147534 22.58462325 -0.00525309 0.00504147 -0.00228759
N 22.18421942 6.38515989 30.57631868 -0.00535530 0.00224003 0.00059003
N 18.21309322 25.26935673 30.62287109 0.00214501 0.00016979 -0.00160115
N 24.66138401 6.40551122 22.52837049 -0.00037340 0.00096457 0.00152677
N 22.29717368 12.57427256 27.07455432 -0.01279823 0.00200316 0.00115744
N 20.54973149 6.31259935 18.88049988 -0.00207827 0.00243261 -0.00023321
N 24.84878796 25.30753314 2.45529587 0.00429115 0.00041533 -0.00412624
N 18.19393248 19.31021316 10.74417446 0.00094586 0.00103347 -0.00281040
N 20.27559005 12.53511034 5.91605043 0.00414537 -0.00118537 0.00660483
N 22.42693376 19.19703458 13.66205134 -0.00401538 -0.00160990 -0.00289288
N 18.18683826 12.95222817 13.88465944 -0.00226101 -0.00196919 -0.00976577
N 24.78621247 19.18305612 5.52368828 0.00583226 -0.00081011 -0.00378934
N 22.46770435 25.37282914 10.87805082 -0.00133569 -0.00489441 -0.01092884
N 20.52523260 18.96624195 2.53471601 0.00791294 -0.00270267 -0.00902114
N 24.74135893 0.13825585 18.95386912 -0.00439416 0.00247977 -0.00218714
N 18.04416567 18.94983155 26.92820910 0.00384730 0.00012298 -0.00011322
N 20.24124452 12.91275551 22.20715269 -0.00150070 -0.00172481 -0.00285253
N 22.31852800 18.99849790 30.27392192 0.00097882 0.00200594 -0.00110801
N 17.95126892 12.69537828 30.63172219 -0.00038762 -0.00068634 0.00345844
N 24.46068411 18.83201085 21.91571545 0.00814786 0.00732122 -0.00415489
N 22.55786536 24.96280877 27.14617626 0.00201205 -0.00598259 -0.00741226
N 20.54202901 19.03671118 19.09746123 0.00091101 0.00249487 -0.00476775
C 7.67001665 0.19043333 4.69700968 0.00060313 -0.00812078 0.00370493
C 0.92135627 6.14297696 12.69651037 0.00085950 0.00104510 0.01129535
C 2.93994303 12.23840195 3.53895756 0.00954173 0.00849504 0.00312885
C 5.29728628 6.51623266 11.96509944 -0.00273917 0.00340432 0.00092667
C 1.03650287 12.23018968 11.70246759 -0.00224237 -0.00929422 0.00414406
C 7.36201755 6.85308370 3.24780563 -0.00692633 0.00589969 0.00010561
C 5.39650237 0.43304399 13.06320307 -0.00567141 -0.00064168 -0.00536347
C 3.42107930 5.61856448 4.88832068 -0.00358308 0.00118042 -0.00455566
C 7.19777757 0.80938467 5.87624393 -0.00399722 0.01122343 0.00118252
C 1.43877091 5.68300251 13.87149683 0.00044165 0.00245013 -0.00623532
C 2.55337199 11.60523914 2.38240025 -0.00119586 -0.00064887 -0.00334198
C 5.71352298 6.95685878 10.70460465 0.00261703 0.00144289 0.00511359
C 1.13442911 11.39012605 10.60478657 -0.00138865 0.00822977 0.00610233
C 6.89948183 7.48713079 2.15573134 0.00042207 -0.00251967 0.00384100
C 5.83649063 1.14586212 14.24664063 -0.00595693 0.00474875 -0.00577799
C 3.08989435 4.99638147 6.01378164 -0.00309880 -0.00026252 0.00823655
C 6.39429135 1.90661511 5.83935004 -0.00271018 -0.00349613 -0.00086881
C 2.25312606 4.50745525 13.94235340 0.00160897 -0.00459482 -0.00068570
C 1.86624235 10.39801860 2.49676467 0.00030958 0.00817564 0.00362312
C 6.37794625 8.14658324 10.63340672 -0.00705854 -0.00361462 -0.00259629
C 1.89860400 10.24028967 10.66506910 0.00516910 -0.00441332 -0.00028394
C 5.93221329 8.54287180 2.25553640 0.00209745 0.00462389 -0.00420475
C 6.56679172 2.29892089 14.05026054 0.00065292 -0.00970154 -0.00230571
C 2.12020195 3.98926675 6.00216803 0.00554117 0.00392391 0.00023930
C 6.02720330 2.43976296 4.61608357 0.00388682 0.00124719 0.00535780
C 2.54813172 3.83972284 12.74509472 -0.00489248 0.00232122 -0.00961360
C 1.61959784 9.89401391 3.76470501 -0.00097427 -0.00085521 -0.00578231
C 6.48706535 8.98651860 11.77845896 0.00269107 0.00036239 -0.00283033
C 2.28820694 9.83763884 11.98383434 0.00854697 -0.00059753 0.00198288
C 5.53467648 8.92305159 3.51703691 0.00125448 -0.00564167 -0.00739506
C 6.70313026 2.86183478 12.74228413 0.00306477 -0.00064864 -0.00144559
C 1.75785354 3.38579553 4.82206816 0.00779856 -0.00070203 0.00247065
C 6.53237523 1.95448518 3.41910542 0.00780174 -0.00243134 -0.00476698
C 2.05363198 4.33128063 11.53668058 0.00198019 0.00024630 0.00604832
C 1.93369045 10.63619525 4.91436031 -0.00968482 -0.00729483 -0.00168497
C 6.04689087 8.52259622 13.01970153 0.00083387 -0.00028619 0.00209107
C 1.98512643 10.52149301 13.15746002 -0.00518300 0.00346148 0.00722562
C 6.20215438 8.47634500 4.65282206 0.00046442 -0.00114284 0.00764631
C 6.20458392 2.18425431 11.62272522 0.00137109 -0.00045569 0.00365701
C 2.16760963 3.94271345 3.66082614 -0.00066096 0.00090434 -0.00793428
C 7.29909661 0.69748041 3.45799334 0.00329803 -0.00328528 -0.00403188
C 1.33695017 5.54442049 11.42375210 -0.00715942 -0.00011013 -0.00354326
C 2.58620201 11.84693638 4.80469269 -0.00649072 0.00277929 0.00253658
C 5.53335963 7.15565305 13.16364751 -0.00084762 0.00687766 -0.00336975
C 1.42261599 11.83522088 12.95614167 -0.00248925 -0.00111880 0.00209143
C 7.04884800 7.34366097 4.54155094 -0.00100661 -0.00040479 -0.00434489
C 5.63613394 0.88287691 11.75404000 0.01426635 0.00210871 -0.00698003
C 2.88250393 5.12893290 3.64211117 0.00397304 -0.00333132 -0.00368587
C 7.20307565 0.29979024 1.04915231 0.00109526 -0.00403845 0.00236536
C 1.75654640 6.03756288 9.16305397 0.00321869 -0.00045846 0.00488395
C 2.25045910 12.62937583 7.13983445 -0.00027946 -0.00675995 0.00500858
C 6.00714773 6.86782165 15.53685680 0.00084072 0.00277761 -0.00666614
C 1.56129397 12.57331539 15.33188050 0.00604091 0.00543173 -0.00082694
C 6.91487918 6.67432917 6.76017747 -0.00301339 0.00258740 -0.00201577
C 5.79255982 0.17070566 9.38458292 0.00213516 -0.00386687 0.00068016
C 2.57408456 5.71910560 1.26033336 -0.00192780 0.00162457 -0.00191946
C 7.06035553 11.34334188 16.70042065 -0.00217927 -0.00547280 0.00310513
C 1.44035056 7.00355372 8.13276177 -0.00514017 0.00236537 0.00013436
C 2.83238117 0.67176026 7.89886661 0.00530952 0.00692218 -0.00438291
C 5.59159836 5.44000468 32.67213206 0.00287952 0.01043163 -0.00202892
C 1.38204519 0.79477868 32.84252515 0.00685438 -0.00198707 -0.00189078
C 7.15097556 5.36409853 7.57750225 0.00268218 -0.00438478 0.00152780
C 5.12983724 12.05564883 8.25485362 -0.00472289 -0.00038312 -0.00335497
C 3.04222574 7.54234291 16.79097652 0.00006413 -0.00130628 -0.00575639
C 7.51233999 0.43715365 21.25429749 0.00273913 -0.00173023 0.00005127
C 0.78991645 5.90607199 29.75133210 0.00840908 -0.00098480 -0.00210417
C 3.40896279 12.40551039 19.77914348 0.00018247 0.00347850 0.00397578
C 4.99585036 6.95086903 28.11834458 0.00635420 0.00554501 -0.00128318
C 0.81074898 12.32972277 28.25395100 0.00174380 -0.00346444 0.00994530
C 7.74375196 6.66314268 20.23344738 0.00046259 -0.00088246 0.00017248
C 5.25189039 0.43169720 29.36367076 0.00248010 0.00409738 -0.00186296
C 3.21954349 6.12308762 21.36208737 0.00020062 -0.00030802 -0.00105504
C 7.22934725 1.18866963 22.38516618 -0.00567387 0.00322498 -0.00326882
C 1.11931573 5.07965866 30.78958417 -0.00452062 -0.00847234 0.00359529
C 3.08040953 11.63069538 18.68534324 0.00162268 0.00775846 -0.00463796
C 5.33655140 7.68149656 27.03285832 0.00402958 0.00083393 0.00337976
C 1.14145227 11.70859590 27.07432925 0.00060194 -0.00053304 0.00263612
C 7.45876085 7.36030629 19.10345715 0.00229023 -0.00400374 -0.00325082
C 5.70009800 0.97441087 30.55004550 0.00943266 -0.00314661 -0.00463195
C 2.80858564 5.39885216 22.49524765 0.00353146 0.00327740 -0.00313313
C 6.51212251 2.38924028 22.21250921 -0.00839770 -0.00309592 -0.00564283
C 2.01294954 3.98557758 30.61480535 -0.00710757 0.00101863 -0.00134856
C 2.11349717 10.59633807 18.79861719 -0.00106318 -0.00484200 0.00298578
C 6.31029660 8.66357311 27.12950674 -0.00157020 0.00119234 0.00308217
C 2.26889047 10.82454696 27.10308331 0.00984303 0.00767714 -0.00029909
C 6.38436155 8.28435280 19.18056304 0.00229128 -0.00366908 -0.00571720
C 6.48530592 2.10213721 30.48456536 -0.00217644 0.00785993 0.00140594
C 1.90342805 4.31592164 22.41693945 -0.00217273 -0.00065598 -0.00525714
C 6.25673280 2.86314166 20.90975120 0.00689118 -0.00126197 -0.00336020
C 2.25725828 3.57639145 29.32076828 -0.00349579 0.00486193 -0.00000108
C 1.96008895 10.07975123 20.09007942 -0.00094984 0.00684683 0.00009488
C 6.66348769 9.15550588 28.41124162 0.00332018 -0.00071080 -0.00528274
C 2.55422720 10.26027624 28.38620498 0.00597016 -0.00551740 0.00076776
C 6.09697033 8.88564603 20.44008773 0.00300544 -0.00869852 0.00128075
C 6.74390399 2.71233282 29.22480380 -0.01344232 -0.00640612 0.00452667
C 1.75161525 3.79162420 21.03746172 0.00108317 0.00202635 0.01123096
C 6.65076371 2.10942220 19.79815433 -0.00281263 -0.00022776 -0.00126513
C 1.81964895 4.35509065 28.24904654 0.00117868 0.00219304 0.00520645
C 2.33794835 10.82423713 21.26550304 -0.00094352 0.00060337 0.00477671
C 6.32529117 8.46588833 29.58982271 0.00098972 -0.00495255 0.00301016
C 2.02034295 10.72767538 29.57139158 -0.00440743 0.00234506 -0.00179068
C 6.58941786 8.29627534 21.57790615 0.00585820 -0.01263461 0.00220676
C 6.25001667 2.14734588 28.08096231 -0.00382908 -0.01387249 -0.00317774
C 2.43798813 4.38632285 19.99090780 0.00096325 0.00317983 0.00310576
C 7.28157289 0.91764593 19.95666509 -0.00129676 0.00026436 0.00205542
C 1.25836503 5.61542691 28.48044629 0.00378236 0.00951557 0.00091824
C 2.99390182 12.05018456 21.02538387 0.00658919 0.00417002 0.00579793
C 5.51106868 7.26500891 29.44407399 0.00123729 -0.00593364 0.00001476
C 1.27943963 11.92268045 29.52022493 -0.00480280 -0.00398508 0.00086853
C 7.30018615 7.06209276 21.53810174 -0.00043462 -0.00150691 -0.00018496
C 5.60715225 0.95075032 28.11387544 0.00172386 0.00200534 0.00369579
C 3.05480244 5.63373326 20.07505172 0.00098031 0.00204526 0.00292842
C 7.00525040 0.25605892 17.59550114 -0.01071133 0.00050597 0.00272535
C 1.49106550 6.35759593 26.11820498 -0.00631634 -0.00100502 -0.00741412
C 2.87540578 12.80587739 23.39725169 0.00162872 0.00176243 -0.00174937
C 5.84407728 6.57968164 31.74424917 -0.00086431 0.00228026 0.00157248
C 1.28860249 12.42746818 31.93740563 0.00335855 -0.00609235 0.00437849
C 6.87598417 6.47139157 23.85017785 0.00070249 -0.00268006 0.00835536
C 5.50571195 0.40941421 25.78062110 0.00097666 -0.00247037 -0.00095372
C 2.82192280 6.31611371 17.66640066 0.00265301 0.00018147 -0.01011005
C 6.68779375 11.96725061 0.03184415 0.00042220 -0.00438891 -0.00062163
C 1.34330058 7.59081691 25.29770602 0.00187462 0.00629724 -0.00099349
C 2.54252075 1.15739219 24.72380143 -0.00633766 0.00701574 0.00763136
C 5.98958393 5.70088541 16.45175375 -0.00770315 0.00913523 0.00176140
C 2.19506612 1.19931924 15.99484629 0.00625248 0.00479718 -0.00372028
C 7.00566092 5.34394630 24.78053573 -0.00332659 0.00524109 -0.00332432
C 5.57349009 11.77504723 24.58753457 0.00242317 -0.00476223 -0.00032894