1920
Time=69000.00000006 pbc="T T T" Lattice="25.67865294 0.00000000 0.00000000 0.00000000 25.54095668 0.00000000 0.00000000 0.00000000 32.97174621" energy=-12248.78460944 virial="-63.33701795 12.91723898 -20.08212371 12.91723898 -91.12053607 -30.31184427 -20.08212371 -30.31184427 -31.84404196" stress="-0.00063501 0.00060081 -0.00090987 0.00060081 -0.00174209 -0.00136181 -0.00090987 -0.00136181 0.00088927" Properties=species:S:1:pos:R:3:vel:R:3
O 5.59714650 2.68126809 6.87215795 -0.01004166 0.00868696 -0.00261365
O 2.63222467 3.72827250 15.48215400 0.00477816 -0.00488524 -0.00092119
O 1.44740498 9.77134133 1.31163335 0.00059160 0.00298948 -0.00147152
O 6.46148806 8.99444958 9.44566813 0.00243400 0.00251897 0.00285085
O 2.43603621 10.07115173 9.30024702 -0.00273495 0.00634994 0.00296383
O 5.55289457 9.27225507 1.36589991 0.00122442 0.00628001 0.00069804
O 7.35725739 2.71321958 15.22025487 -0.00397268 0.00243668 0.00442022
O 1.73700760 3.68271081 7.13841259 -0.00383952 0.00068445 -0.00443608
O 6.57966013 1.38259092 17.23678777 -0.00058422 -0.00231454 0.00139186
O 2.00552732 4.92696607 9.37497572 0.00087054 -0.00508696 -0.00107904
O 2.00266101 11.54623644 7.30900259 -0.00362355 -0.00428837 -0.00197321
O 5.65277305 7.73337855 32.23289146 0.00358747 -0.00141036 -0.00505813
O 2.05411811 11.35301494 32.49663244 -0.00049681 0.00042985 0.00456080
O 6.26154660 7.28651658 7.57969074 0.00149106 0.00438572 0.00242187
O 5.90978501 1.15102610 9.02936050 0.00680633 0.00737950 0.00074291
O 2.95438764 5.03363362 17.74527471 0.00114021 0.00297310 -0.00184650
O 6.10933200 2.73815537 23.33091356 0.00033063 0.00991639 0.00366080
O 2.50477167 3.67729845 31.99597229 -0.00669887 -0.00441979 -0.00489083
O 2.07632843 10.13211676 17.66857394 0.00912043 0.00166531 0.00318985
O 6.61860843 9.08267948 26.05278831 -0.00195881 -0.00678382 0.00650135
O 2.48588061 10.00998871 26.20989086 -0.00111994 -0.00590167 0.00206831
O 5.96042749 9.14004205 17.52056827 0.00006047 -0.00337574 -0.00367949
O 6.90833994 2.69734105 31.52478297 -0.00165864 -0.00513203 0.00401813
O 1.62717713 3.67313116 23.97817867 -0.00059462 -0.00113949 0.00151829
O 6.72347012 1.28810081 0.64103906 -0.00615292 -0.00232154 0.00031901
O 2.28085112 5.37200272 25.84723015 -0.00465502 0.00333634 -0.00387502
O 2.40458885 11.27441859 23.98122072 0.00122430 -0.00271776 -0.00244485
O 6.75428129 7.63077023 15.72880197 0.00043667 -0.00267886 0.00473249
O 2.12669349 11.54759384 15.55954432 -0.00142410 -0.00483012 0.00124947
O 6.59764649 7.79613407 23.92396527 -0.00518148 -0.00358732 -0.00177859
O 6.05486039 1.17838793 25.34593928 0.00285771 -0.00657087 0.00216863
O 1.82327296 5.16143580 0.98420368 0.00341370 0.00003677 -0.00162190
O 5.45817745 15.43671312 7.16418012 0.00149353 0.00717976 0.00163218
O 2.87365451 16.76717708 14.93069107 0.00276768 -0.00061899 0.00103487
O 1.41081965 23.21446176 1.26412266 -0.00266735 -0.00235395 0.00067771
O 7.36792891 21.82728974 9.39995984 0.00649324 -0.00010722 0.00050341
O 2.63923905 22.68535902 9.49734146 0.00038853 0.00340250 -0.00431202
O 5.79546490 22.05096182 1.07726239 -0.00195638 0.00575031 0.00435931
O 6.75103600 15.68929797 15.38486713 0.00256044 0.00196948 0.00202727
O 1.55536992 16.40043586 6.62198681 -0.00462600 -0.00200383 -0.00012127
O 6.47610794 13.91742507 17.23705601 0.00439606 -0.00588304 0.00029795
O 2.08225215 17.84869111 8.75001768 0.00413314 0.00581030 -0.00898046
O 2.10870952 24.30554751 7.36667434 -0.00039267 -0.00251310 -0.00228299
O 5.76798510 20.14254871 32.37799070 0.00607714 0.00721604 -0.00272758
O 1.82391162 24.48730240 32.05278286 -0.00200818 0.00442882 0.00150786
O 6.39639956 20.53597807 7.35445441 -0.00595657 -0.00189547 0.00187169
O 6.41890213 14.13264343 9.01129424 -0.00106803 -0.00781978 0.00488247
O 1.93778929 17.89508381 17.03235491 0.00260116 -0.00323994 0.00310775
O 5.66506917 15.62680580 23.38550428 0.00436522 -0.00287861 -0.00544885
O 2.58218634 16.43136805 31.21114931 0.00000798 0.00053685 0.00655052
O 1.37910732 22.74615222 17.91099218 0.00255009 0.00554179 -0.00231172
O 6.90151104 21.34761432 26.02922547 -0.00475312 -0.00277529 -0.00280958
O 2.37133157 22.53310627 25.85390940 -0.00171925 0.00363475 0.01015096
O 5.49146802 22.24636702 17.92938053 0.00151543 0.00070137 0.00377975
O 7.18316111 15.28692161 31.60743399 0.00150107 0.00236628 0.00436342
O 1.44365885 16.22094168 23.07187570 -0.00219717 0.00093199 0.00047561
O 6.47508351 14.08714123 0.89236086 0.00114297 0.00052709 -0.00156702
O 1.90904204 17.74233775 25.14074548 -0.00223272 -0.00246556 0.00077400
O 2.08806878 24.28387302 23.91561521 0.00027930 0.00023563 0.00534435
O 5.78218135 20.71336500 15.74496381 -0.00108880 0.00672507 0.00393058
O 1.75196980 24.30043999 15.80394226 -0.00023535 0.00217710 0.00071662
O 6.67523489 20.00081974 23.89919131 -0.00050910 0.00283450 0.00260830
O 5.79954237 14.15430966 25.42847915 -0.00034164 -0.00196164 0.00677548
O 2.16790468 17.83782691 0.43370035 -0.00316159 0.00411048 0.00406447
O 14.55827100 2.95449802 6.86667989 0.00234192 0.00403159 0.00060486
O 11.35748504 3.89925849 15.24196778 -0.01039418 0.00164172 -0.00281122
O 9.70718733 10.02470673 1.31476069 -0.00109132 -0.00259745 -0.00240574
O 15.70213560 9.27184789 9.62253529 -0.00362306 -0.00222834 -0.00113903
O 10.65542673 10.29795949 9.37232994 0.00406974 -0.00415218 -0.00201567
O 14.05127003 9.06363004 1.58693240 -0.00323207 -0.00491782 -0.00047858
O 15.66531302 2.81233546 15.09998587 0.00056607 0.00244625 0.00670322
O 10.43459670 3.80329403 7.22596849 -0.00088213 -0.00138446 0.00660122
O 15.66563132 1.00790622 17.09897283 0.00454346 -0.00582093 0.00320853
O 10.98964662 5.39154250 9.21434219 0.00065625 0.00392189 -0.00451423
O 10.35818552 11.75948315 7.31982843 0.00198351 0.00197179 -0.00311456
O 14.65228615 7.87340193 32.35973622 0.00395902 0.00735895 0.00333374
O 10.63630106 11.53358552 32.00013665 0.00216806 -0.00371759 -0.00412672
O 15.13278429 7.69472882 7.66181788 0.00555838 0.00315923 -0.00403117
O 15.45892033 1.23991963 8.89208484 0.00055240 -0.00269077 0.00346042
O 10.79027747 5.22600881 17.25548410 -0.01394713 -0.01038440 -0.00029527
O 14.62048516 3.06952596 23.20507500 -0.00121935 -0.00184208 0.00041851
O 11.48945499 3.72181701 31.77691528 -0.00176855 -0.00079061 0.00433353
O 10.35164387 10.37006584 17.58978761 0.00895738 0.00128125 -0.00401390
O 15.35337377 9.57211801 26.27448964 0.00580485 0.00277449 0.00086614
O 11.27723793 10.24299617 26.02239410 0.00127333 0.00331559 0.00539359
O 14.45642826 8.92321406 17.99238017 0.00309884 -0.00323115 -0.00161848
O 15.64896359 2.59758924 31.69838025 0.00105377 0.00042261 -0.00189731
O 10.18774632 3.82228523 23.40592263 0.00339912 -0.00206768 0.00393903
O 15.24345458 1.18880113 0.83038406 0.00354622 -0.00079057 0.00223472
O 10.59271063 5.09042265 25.85346668 0.00035050 -0.00014277 -0.00375444
O 10.93023210 11.73384035 23.83411136 0.00145132 -0.00456814 0.00180993
O 15.18544059 7.52014303 15.80812853 -0.00435885 -0.00071415 -0.00222262
O 11.01694895 11.81335471 15.43926434 -0.00186142 -0.00151963 0.00013891
O 15.22032298 8.01277299 24.28451148 -0.00205004 -0.00232535 0.00855110
O 14.65456878 1.75388596 25.46522152 -0.00263379 0.00014645 -0.00353054
O 10.62249484 4.96804929 0.83041559 -0.00441914 -0.00322766 -0.00113452
O 14.35690796 15.38444994 6.60956779 0.00178151 0.00100095 -0.00164937
O 11.15826385 16.22936632 14.74034217 -0.01111222 0.00506090 -0.00728193
O 10.28885395 22.37165907 1.24408432 -0.00037141 0.00206657 0.00224406
O 15.98128834 21.78395629 9.21661950 0.00096032 -0.00622687 -0.00441803
O 11.31054751 23.04357179 9.33430287 0.00154068 0.00225154 -0.00665543
O 14.02047824 21.85673550 1.11801975 0.00263747 0.00231572 -0.01014999
O 15.47012027 15.26525770 15.31731267 0.00386006 0.00306726 0.00344976
O 10.38018736 16.32634388 6.70517700 -0.00331394 -0.00578670 0.00201411
O 14.83135608 13.95610801 17.28549790 -0.00673725 0.00603219 0.00066427
O 10.38103907 17.92601733 8.80702337 -0.00156346 0.00599396 -0.00288386
O 10.74684241 24.66558583 7.26447648 0.00025125 -0.00624255 -0.00534086
O 14.95334455 20.56526275 32.02213208 0.00192067 0.00415602 -0.00061320
O 10.24252168 24.04637257 32.25557397 -0.00413888 -0.00490555 -0.00500472
O 15.19903588 20.40281012 7.25144487 0.00266050 0.00250272 -0.00108826
O 14.71992174 14.01702165 8.87162195 -0.00192983 -0.00144983 -0.00354431
O 11.24360958 17.64332454 16.95744721 0.00390736 -0.00047204 0.01065391
O 14.77515748 15.18946499 23.66498169 -0.00401094 -0.00108161 -0.00504072
O 11.56598560 16.32880813 31.52139700 -0.00124086 -0.00325163 0.00102718
O 10.13906014 23.07779415 17.49802493 -0.00291055 0.00844880 0.00684232
O 15.33266542 22.21154687 25.89493863 -0.00394114 -0.00058605 -0.00100554
O 11.32386728 22.86994775 25.81591615 0.00266098 0.00325441 0.00958116
O 14.01873811 21.59081883 17.62106442 -0.01224221 0.00092633 0.00197454
O 15.63429552 15.45524470 31.56606542 -0.00130495 -0.00564037 -0.00422135
O 10.30270326 16.41654907 23.24921312 -0.00342858 -0.00224314 -0.00897788
O 15.02298020 14.00649813 0.56334969 -0.00082833 0.00472484 -0.00431686
O 10.97223889 17.92716884 25.35771787 0.00401557 0.00005575 -0.00136628
O 10.55374748 24.14815009 23.75117454 0.00078333 0.00710980 -0.00843353
O 14.48155143 20.39678011 15.45074610 0.00383406 -0.00084940 0.01198197
O 11.25703900 24.67154048 15.64748915 -0.00193420 -0.00293617 -0.00745350
O 15.18958037 20.74593897 23.75071031 0.00183757 -0.00316276 0.00208556
O 15.55719986 13.72090417 25.59565972 0.00072135 0.00455803 0.00313898
O 10.66923318 17.82661357 0.47929358 -0.00452775 0.00237421 0.00273576
O 22.89327492 2.71190725 6.93251659 0.00463355 -0.00282356 -0.00325998
O 19.81519067 3.97294550 15.97434611 0.00287558 -0.00019627 -0.00257136
O 18.43101175 10.32185440 1.40424200 0.00562760 -0.00278627 -0.00035456
O 23.96422105 9.58536087 10.08663657 0.00888694 0.00781919 0.00648223
O 19.68110861 10.11557854 9.32685103 0.00205945 -0.00570621 -0.00242911
O 22.62047433 9.36739054 1.78861509 0.00270276 -0.00415889 0.00496398
O 24.28712311 2.85375217 15.32557696 0.00001276 -0.00583086 0.00187311
O 18.77688186 3.70788791 7.57200411 -0.00053557 -0.00121574 -0.00679560
O 23.74108823 1.12829075 17.15682619 -0.00212555 0.00116031 0.00016548
O 19.10665904 4.84566997 9.84270432 -0.00295864 -0.00419127 0.00103706
O 19.17761224 11.81779597 7.57393648 0.00311911 0.00238221 -0.00172987
O 23.02291703 7.76342901 32.62568754 -0.00641627 -0.00168745 -0.00440356
O 19.16212197 11.18446595 32.02277141 0.00278497 -0.00897269 0.00174261
O 23.93298593 7.79636616 7.98783120 0.00087240 0.00701287 0.01220961
O 23.22554337 1.38880719 9.19785630 -0.00155335 0.00320724 -0.00427765
O 19.29439496 5.30581992 18.05513939 0.00555927 -0.00759858 -0.00180121
O 23.37714412 3.07044057 23.26980544 0.00224795 -0.00750770 0.00099990
O 19.53093990 4.02234139 32.28508865 0.00272757 0.00334127 0.00597477
O 18.36182323 10.09533734 17.71441011 0.00624488 0.00312730 0.00343778
O 24.07179638 8.58352251 26.42037861 -0.00140065 -0.00318752 -0.00141540
O 20.04310790 10.08880530 25.95195714 -0.00238417 -0.00547052 0.00039965
O 23.10401682 9.22946152 18.30205630 -0.01266080 0.00189414 -0.00799877
O 23.80481956 2.89707685 31.42828278 0.00502274 0.00095062 -0.00180884
O 18.55012498 3.95292393 24.06674850 0.00378459 0.00466906 -0.00343347
O 23.68152672 1.38237978 0.68188662 0.00025563 0.00231820 0.00032656
O 19.26835266 5.38115354 25.98094219 -0.00250010 0.00002328 0.00577963
O 19.57216774 11.34410763 23.78623166 -0.00649553 -0.00139911 0.00470480
O 23.42414187 7.85996149 16.24711265 -0.00152129 -0.00198701 0.00173070
O 19.34852701 11.48916515 15.50643011 -0.00610856 -0.00031344 0.00149042
O 23.16137951 7.34713154 24.36417102 -0.00245632 0.00666216 0.00663227
O 22.76310270 1.43771253 25.15812618 -0.00772352 0.00030323 -0.00456070
O 18.76585300 5.33196924 1.38514393 -0.00338741 0.00392948 -0.00378483
O 22.85858926 15.42927280 6.93007238 -0.00394344 -0.00657147 -0.00406082
O 20.36267551 16.34833167 15.46909886 0.00125914 -0.00140147 -0.00619253
O 18.39394027 22.65417299 1.26031481 -0.00077846 0.00407341 -0.00697121
O 24.33310145 21.85986338 9.45905781 -0.00425520 -0.00004530 0.00064164
O 20.35126913 22.73369687 9.59139545 -0.00299811 0.00002352 -0.00016631
O 22.83187860 21.92600285 1.09466480 0.00131171 -0.00088200 0.00040193
O 24.06031267 15.12998626 15.10391011 0.00197621 0.00264964 0.00393457
O 19.01952184 16.88907614 7.11745293 0.00744549 0.00341227 0.00143890
O 23.28860236 13.85023956 17.34491226 0.00082817 0.00101533 0.00509029
O 19.53717223 17.80974972 9.35327561 0.00144361 -0.00399862 -0.00170071
O 19.44756972 23.96990942 7.44253069 0.00334700 -0.00159002 -0.00239988
O 23.22848393 20.29234014 32.05302498 0.00555394 -0.00262880 -0.00113255
O 19.06135024 24.13552904 32.14335085 0.00498363 -0.00196471 -0.00288042
O 24.16304921 20.40650098 7.37088680 0.00274806 0.00082702 -0.01055384
O 23.80695601 13.77091938 8.90376293 0.00686331 0.00536435 -0.00056036
O 19.38117739 17.72834443 17.43906498 0.00615270 -0.01198878 0.00113214
O 23.43730927 15.18678385 23.57396733 -0.00314173 0.00825878 -0.00139365
O 20.02582239 16.33527627 31.53763441 0.00061380 -0.00902266 -0.00078043
O 18.89670779 22.79655830 17.77072146 -0.00147004 -0.00288626 -0.00280248
O 23.86922687 21.80996700 25.86607657 -0.00210519 -0.01011379 -0.00216665
O 19.59440309 22.90952137 25.95329970 0.00347380 -0.00130002 -0.00214967
O 22.60963694 21.48544764 17.57278974 0.00325007 -0.00052859 0.00751824
O 24.09080005 15.37162410 31.58954770 -0.00246098 -0.00190176 0.00497884
O 18.93936490 16.29831216 23.65694550 -0.00425793 0.00978385 -0.00185095
O 23.64562669 14.13287111 0.78710654 -0.00213579 0.00054429 0.00755441
O 19.02450206 17.95040385 25.50107094 0.00253141 -0.00411697 0.00191236
O 19.34617968 24.33261080 23.75562609 0.00608065 0.00207232 0.00142059
O 23.66569423 20.40773651 15.58066545 -0.00126339 0.00345688 -0.00054963
O 19.24210210 24.28562016 15.60505623 0.00276983 0.00117400 -0.00395541
O 23.56098720 20.29061058 23.79823238 -0.00323932 0.00079698 -0.00435335
O 23.94378534 13.58485263 25.66617484 -0.00044113 0.00228725 -0.00448435
O 19.39697566 17.91489326 0.56151674 -0.00737410 -0.00005790 0.00218333
N 7.53583497 12.99652075 2.57827444 0.00658636 0.00235282 0.00577160
N 0.87460444 6.21323871 10.83699658 -0.00218018 -0.00328496 -0.00289457
N 3.28263213 0.08409784 5.92686301 -0.00492073 0.00583711 -0.00411914
N 5.77108769 6.25744643 14.17447581 -0.00248752 -0.00004824 0.00287919
N 1.14192791 0.07178928 14.06076726 0.00035201 -0.00529375 0.00581995
N 7.55368702 6.53150321 5.85998018 -0.00649602 -0.00335049 -0.00528236
N 5.32098595 13.02353743 10.69698613 -0.00059384 -0.00225231 0.00276284
N 3.35600106 6.05056515 2.45388367 -0.00079606 -0.00034023 0.00719421
N 7.51403301 12.85984811 19.05408923 -0.00086827 -0.00663582 -0.00665352
N 0.67662271 6.13860184 27.31364304 0.00361302 0.00353060 -0.00938615
N 3.46529980 25.36880310 22.29947878 -0.00004413 0.00254112 -0.00016923
N 5.04146713 6.31337105 30.60510120 -0.00804282 0.00418476 0.00098974
N 0.86619421 25.53795651 30.31768954 0.00253067 -0.01226600 0.00126216
N 7.66415601 6.64359348 22.26404580 -0.00082019 -0.00057818 -0.00110744
N 5.26035933 12.73560640 27.12311116 0.00308836 0.00348658 0.00156238
N 3.63285216 6.28593583 19.55509249 0.00039090 0.00156863 -0.00509923
N 7.40739750 0.01711242 2.39656302 -0.00137400 0.00160203 -0.00082278
N 1.24420669 19.21702995 10.29212279 -0.00312297 -0.00375864 -0.00556444
N 3.26069802 12.68753978 5.74711464 -0.00067540 0.00262845 -0.00964671
N 5.30896043 19.35401124 13.95147033 -0.00443019 -0.00064058 -0.00035034
N 1.28373621 12.95676653 13.94477637 0.00185939 -0.00236180 -0.00023942
N 7.64765376 19.60642104 5.73863774 0.00117361 -0.00134284 0.00298833
N 5.54120195 25.34792998 10.92437599 0.00149637 -0.00053471 0.00540583
N 3.09926716 19.18773738 2.07887042 0.00365548 0.00480647 -0.00400659
N 7.51542542 25.48791963 18.75878047 -0.00457488 -0.00519757 -0.00328356
N 1.02145891 19.08060618 26.78096902 -0.00272238 0.00155858 0.00376324
N 3.05489491 12.77218537 22.38171767 0.00038143 0.00065932 0.00041485
N 5.00817541 18.76977933 30.52611272 -0.00267948 0.00026899 0.00009502
N 1.15662666 12.57459748 30.84275075 0.00313259 0.00457317 -0.00325057
N 7.78453966 19.20750798 22.07477121 0.00870386 -0.00822041 0.00206632
N 5.16563929 25.52514693 27.06777800 0.00817266 0.00263557 -0.00560317
N 3.17659517 18.97787505 18.60625395 -0.00419833 0.00197013 -0.00144163
N 15.98517595 12.69568217 2.16048028 -0.00682378 -0.00700956 0.00022494
N 9.40468711 6.17858720 10.65242467 0.00044973 -0.00465443 -0.00125097
N 12.10855002 25.42567969 5.51225914 -0.00364468 -0.00532338 0.00401572
N 14.10775916 6.49543086 14.07103964 0.00494929 -0.00594088 0.00279657
N 9.91184870 0.16978450 14.08760093 0.00209597 0.00013810 -0.00028897
N 16.12192095 6.41493669 6.00317190 -0.00477558 0.00357119 0.00030865
N 13.78585451 12.77522758 10.56144484 -0.00202558 -0.00660281 0.00046819
N 11.54644087 6.30840214 2.43039034 -0.00744628 -0.00593047 0.00819913
N 16.02652500 12.80411578 18.80926393 -0.00159821 0.00460874 -0.00100452
N 9.35345017 6.17575901 27.32322849 -0.00115103 -0.00168768 -0.00315179
N 11.90263056 25.27305263 22.29116637 0.00343253 -0.00209025 0.01236778
N 13.52705114 6.77986053 30.67098588 -0.00794801 0.00259359 0.00311808
N 9.54082533 25.26366507 30.43151881 -0.00461139 -0.00128846 -0.00646644
N 16.10779621 6.64355454 22.62849853 0.00196304 0.00216816 -0.00721373
N 13.84566153 13.02125368 26.87619511 0.00272555 -0.00384390 -0.00681562
N 12.23288914 6.16644020 18.72136224 0.00294753 -0.00418828 0.00531476
N 16.25499353 25.53488187 2.47703577 -0.00155075 0.00419252 0.00120440
N 9.46164719 19.19297665 10.37957740 0.00196304 0.00224440 0.00533624
N 11.78267709 12.67948950 5.73774722 0.00218157 0.00319804 -0.00077927
N 13.90355088 19.19527334 13.65226176 0.00200819 -0.00493543 0.00344471
N 9.56493740 12.86404908 14.13883941 0.00184887 -0.00368258 -0.00248161
N 16.26104081 19.35110483 5.55404291 0.00153673 -0.00152303 -0.00045123
N 14.22840678 0.06869596 10.48881882 0.00340930 -0.00073461 -0.00091530
N 11.47280565 19.19479213 2.07048497 0.00552302 0.00272164 0.00378783
N 16.32189382 25.47443863 18.98017550 -0.00327513 0.00034380 -0.00016805
N 9.86858657 19.08276705 27.07368634 0.00449418 0.00295584 -0.00515482
N 11.80959266 13.02335567 22.20456265 0.00844715 0.00029459 -0.00015513
N 13.85705667 19.29151445 30.40083846 -0.00281742 0.00096380 -0.00113437
N 9.25599566 12.56828319 30.55699621 -0.00200195 0.00542424 0.00074545
N 16.11958580 19.37002224 22.10769877 0.00335160 -0.00594763 -0.01103938
N 13.89953451 0.28639760 27.03566459 0.00301128 0.00713924 -0.00530232
N 12.00918042 19.02147793 18.67661281 0.00301624 -0.00600976 -0.00429672
N 24.48256569 12.72068115 2.36418151 -0.00073036 0.00797657 -0.00486324
N 18.26512717 6.36386500 11.32709911 -0.00538480 -0.00265968 -0.00254530
N 20.54984454 25.06072294 5.69223965 -0.00565778 -0.00127825 -0.00435529
N 22.51135776 6.57049887 14.53735016 0.00009777 0.00239708 0.00866046
N 17.89862579 25.22695517 13.93349325 -0.00129749 0.00292012 -0.00332050
N 24.79820836 6.65056517 6.19556985 -0.00615464 -0.00546155 -0.00574692
N 22.60054193 12.62543145 10.43285547 -0.00029386 0.00272463 -0.00052276
N 20.23983465 6.37619576 2.87144639 0.00206081 0.00081918 0.00359722
N 24.52519657 12.61021560 18.84177248 0.00502760 0.00128360 -0.00252324
N 17.83670696 6.20547434 27.55369069 0.00046460 0.00457478 0.00395470
N 20.57641192 0.10684106 22.22158617 -0.00202684 -0.00603828 0.00191240
N 22.07051354 6.45252464 31.00765415 0.00335142 -0.00098426 0.00826730
N 18.17848266 25.53426189 30.55044240 -0.00263396 0.00246561 -0.00708174
N 24.51202544 6.25354417 22.81084862 -0.00800074 0.00631478 0.00437925
N 22.38364750 12.68730786 27.15143970 -0.00315852 -0.00163540 0.00283002
N 20.44181256 6.49882029 19.65050316 0.00463448 0.00152914 0.00021495
N 24.77533752 0.16742262 2.26445281 0.00236389 -0.01117589 0.00205376
N 18.06767492 18.53062610 11.00719061 -0.00464150 0.00461019 -0.00106854
N 20.52643887 12.71921117 5.90858466 -0.00404643 0.00208199 -0.00110547
N 22.69274094 19.17629039 13.93776150 0.00027022 -0.00100707 0.00293000
N 18.11176670 12.54268306 13.97753169 0.00671462 -0.00677274 0.00178437
N 24.85686541 19.23327881 5.53584441 -0.00129532 0.00158899 0.00592150
N 22.43296634 0.04443729 10.88769239 0.00604716 0.00276437 -0.00524625
N 20.66593822 19.11621658 2.17418438 0.00866707 -0.00257391 -0.00391111
N 24.62985811 25.44965923 18.88554157 0.00362829 -0.01048566 -0.00107733
N 18.07539458 19.07857846 27.21992038 0.00214902 0.00111369 0.00422221
N 20.48312593 12.57359630 22.14721916 -0.00304491 0.00504486 -0.00213714
N 22.28420813 19.01318280 30.38533005 0.00697035 0.00204230 0.00554197
N 18.05474530 12.36529793 30.45034855 -0.00447779 0.00062061 -0.00522368
N 24.76480117 19.11169480 22.23968329 0.00492313 -0.00209347 -0.00179383
N 22.25729353 0.11790328 27.01775097 -0.00250137 -0.00324164 -0.00499690
N 20.38644581 18.92189708 19.06401883 0.00324281 -0.00688555 -0.00644286
C 7.43301603 0.41606933 4.72946881 -0.00843600 0.00674268 -0.00126039
C 1.14876716 6.08549362 13.28585973 -0.00099175 0.00390453 0.00405116
C 3.14876179 12.26333648 3.39526717 0.00592867 0.01440561 -0.00009125
C 5.28271702 6.59612066 11.93897747 -0.00469006 0.00815931 0.01122800
C 1.12566548 12.57136991 11.57629836 0.00130718 0.00969584 -0.00167294
C 7.39145606 6.89433083 3.57091544 -0.00138386 0.00485144 0.00575355
C 5.51456175 0.34579508 13.25146904 -0.00047320 -0.00240733 0.00807658
C 3.22317431 6.08823144 4.88182580 -0.00048008 -0.00548690 -0.00006105
C 7.07408018 1.08257160 5.91315996 -0.00389208 -0.00652408 0.00069440
C 1.48291056 5.40232516 14.38774635 0.00153082 0.00911537 -0.00397558
C 2.66450494 11.62182045 2.29019533 0.00027886 0.00338773 -0.01064640
C 5.50828036 7.20152851 10.72090996 -0.00170090 -0.00540753 -0.00325971
C 1.32885703 11.85986382 10.39906048 0.00201962 -0.00010993 -0.00315835
C 6.90893935 7.48035988 2.38960847 0.00035082 0.00521565 -0.00071178
C 5.84683818 1.14335696 14.29569854 -0.00497400 -0.00539633 -0.00169882
C 2.82731371 5.52435757 6.07030805 -0.00064272 -0.00024995 0.00588087
C 6.19512347 2.15042520 5.79494670 -0.00589089 -0.01105666 0.00313072
C 2.19607822 4.20401091 14.32885939 -0.00824146 -0.00379881 -0.00877393
C 1.96495141 10.41735057 2.40177308 0.00208882 -0.01387902 -0.00597151
C 6.29375958 8.42791080 10.61677050 -0.00722341 -0.00191492 0.00615517
C 2.05757319 10.68066628 10.42575559 0.00045548 0.00018889 -0.00426950
C 6.07876590 8.64481601 2.45881961 -0.00023269 0.00085530 -0.00113865
C 6.73133356 2.22749227 14.18275328 -0.00668054 -0.00314575 -0.00208193
C 2.08111228 4.34074615 5.96616482 0.00289174 0.00756582 0.00570232
C 6.03794326 2.71529253 4.52133466 -0.00241378 0.00205068 -0.00022256
C 2.35209564 3.55651839 13.07942618 0.00825754 0.00193905 0.00200410
C 1.87545570 9.89059390 3.68642206 -0.00467588 -0.00289014 0.00692019
C 6.78799452 8.95599171 11.81928411 -0.00418753 -0.00240550 0.00279453
C 2.44548328 10.15351886 11.69799916 -0.00108773 -0.00205561 0.00080407
C 5.76864965 9.09235092 3.75115438 0.00356652 -0.00639693 -0.00303334
C 6.87505964 2.72209193 12.86862720 -0.00057153 0.00538062 -0.00898861
C 1.67650619 3.81145934 4.72541151 -0.00089160 -0.00133956 0.00149519
C 6.48724152 2.12358639 3.37276267 0.00311521 -0.00916402 -0.00471447
C 1.92333400 4.23253597 11.94955029 0.00312708 0.00101791 0.00529124
C 2.20497251 10.61685447 4.83143816 0.00114444 0.00493700 0.00462084
C 6.68380669 8.25594914 12.94994522 -0.00036393 -0.00624651 0.00276925
C 2.20699173 10.83219790 12.88496558 0.00040949 0.00034110 0.00362654
C 6.26398828 8.48356652 4.88954020 0.00436523 -0.00038508 -0.00291480
C 6.59091775 1.92618064 11.72477873 -0.00096937 0.00636020 0.00370607
C 2.19009542 4.29964635 3.55990013 0.00467438 0.00192584 -0.00835860
C 7.11447991 0.86735291 3.46739706 0.00399999 -0.00182944 -0.00842832
C 1.36656535 5.56665423 11.99216031 0.00428981 0.00731915 0.00560626
C 2.87449653 11.85138244 4.69957934 0.00100314 -0.00000394 0.00251030
C 5.97941198 7.05538587 13.09393206 0.00576111 0.00440965 0.00523995
C 1.51187472 12.07510903 12.83859994 -0.00507332 0.00030814 -0.00084691
C 7.03175274 7.30314474 4.83442764 0.00634719 0.00585428 -0.00366305
C 5.87290787 0.73168017 11.94292296 0.00200544 0.00093854 -0.00320175
C 2.88595652 5.51145415 3.61440331 0.00527178 0.00209591 0.00347677
C 7.08378189 0.20482268 1.08051090 0.00271874 0.00903986 -0.00626279
C 1.55434946 6.02778135 9.67722417 -0.00131237 -0.00035944 -0.00096741
C 2.55624148 12.57494417 6.91611512 0.00374791 -0.00334485 0.00387799
C 6.12166030 6.57949757 15.44780975 0.00381400 0.00161317 0.00519668
C 1.60707202 12.61661158 15.21326752 0.00170270 0.00000999 -0.00352359
C 6.99501673 6.45228706 7.08922567 -0.00304985 0.00014473 -0.00012486
C 5.73680819 0.07350464 9.58650069 -0.00466291 0.00037264 -0.00700856
C 2.53489912 6.09985111 1.32679589 -0.00623449 0.00055167 -0.00198383
C 7.57860321 11.89729226 16.83396375 -0.00139835 0.00174626 0.00260308
C 1.60554363 7.22697674 8.74952447 0.00142243 -0.00066676 0.00374000
C 2.87089933 0.93940938 8.16544301 0.00082906 -0.00916184 -0.00573049
C 5.73976856 5.39143687 32.72849154 0.00088246 -0.00221648 -0.00725289
C 1.18337095 1.25442622 32.38323466 -0.00339437 -0.01043408 0.00437411
C 7.30444147 5.18440497 7.93280378 -0.00217578 0.00441173 0.00808549
C 5.82834351 11.85939489 8.67054132 0.00483744 -0.00463162 0.00482903
C 2.95880580 7.43125924 17.54866901 0.00604552 -0.00127439 0.00535589
C 7.47378819 0.16495944 21.13091941 -0.00231470 -0.00176722 -0.00065146
C 0.83548544 5.99302458 29.77252169 0.00343153 0.00377446 0.00017528
C 3.23572608 12.51469753 20.05869459 -0.00617457 -0.00132787 -0.00706658
C 4.99935153 6.64570234 28.22057200 0.00208808 0.00104712 0.00284986
C 0.75338743 12.21826524 28.46503359 -0.00118959 0.00692365 -0.00187294
C 7.79198027 7.07299741 19.87713344 -0.00563006 -0.00681722 0.01052159
C 5.18932869 0.34013626 29.36565917 -0.00311960 -0.00790982 -0.00261289
C 3.39110461 6.07181265 22.01743438 0.00319859 -0.00310945 -0.00531044
C 7.16262456 0.89588055 22.26846648 0.00544653 -0.00525328 -0.00248244
C 1.32108571 5.49346568 30.96792581 -0.00551679 -0.00766091 0.00262809
C 3.02596183 11.96916402 18.80046605 -0.00111081 -0.00065567 -0.00432297
C 5.30700338 7.41103007 27.07485335 -0.00302098 0.00710061 0.00118915
C 1.15263308 11.62240177 27.31313884 0.00813643 -0.00081121 0.00150022
C 7.58871326 7.82331712 18.69988692 0.00626571 0.00514410 -0.00255034
C 5.59582871 1.01197799 30.46305376 0.00204975 0.00344509 -0.00574335
C 3.00744224 5.24252588 23.00259148 0.00439883 -0.01172373 0.00133344
C 6.51496816 2.15384079 22.20141125 0.00442829 0.00423314 -0.00204174
C 2.08475850 4.30877429 30.91671961 0.00177883 -0.00190767 -0.00370358
C 2.24008991 10.77100787 18.80512622 -0.00265347 -0.00118106 0.00535782
C 6.11687108 8.50745959 27.17000142 0.00014141 0.00925623 -0.00051803
C 2.05764314 10.51622092 27.35744329 0.00341232 0.00397109 0.00023893
C 6.61753580 8.87144918 18.69558217 0.00480716 0.00243784 0.00426344
C 6.42881181 2.13923014 30.34264220 -0.00377223 0.00209777 0.00846761
C 2.14052143 4.18072613 22.85189186 0.00581971 0.00357825 0.00577613
C 6.36729032 2.73013712 20.95399162 -0.00744670 -0.00187826 -0.00286557
C 2.38907722 3.73946067 29.60423233 -0.00210634 0.00239912 -0.00660164
C 1.84304985 10.19222523 20.00484897 -0.00715337 0.00520731 -0.00588807
C 6.45927557 9.00445392 28.44673815 0.00510559 -0.00252389 -0.00400146
C 2.32918503 9.90175635 28.54918955 -0.00650546 -0.00039425 0.00265952
C 6.15275690 9.24067916 19.94840548 0.00048077 0.00186123 0.00647702
C 6.71161232 2.66047482 29.10216213 -0.00007114 0.00242095 -0.00173271
C 2.06489323 3.60161127 21.56791002 -0.00511940 0.00152614 0.00768671
C 6.71507051 2.03107519 19.78036721 -0.00123681 -0.00498074 -0.00016273
C 1.92028143 4.31037599 28.40690199 0.00118846 -0.00022105 -0.00412275
C 2.12594258 10.74560917 21.21962699 -0.00785470 -0.00374429 0.00525598
C 6.12607534 8.28781689 29.58791456 0.00318724 0.00176542 -0.00205044
C 1.94394781 10.55254922 29.73724471 -0.00040786 0.00147009 -0.00258728
C 6.65494585 8.63534394 21.14698628 -0.00304573 -0.00172588 -0.00050329
C 6.35068970 1.98579386 27.96003961 0.00312795 -0.00356353 -0.00191087
C 2.65191566 4.30264568 20.51224807 -0.00041097 -0.00187687 0.01055805
C 7.26254028 0.74164344 19.85880383 0.00034162 -0.00024113 0.00192160
C 1.20335745 5.50674537 28.49924211 0.00589540 0.00619824 -0.00429066
C 2.83227040 11.95998237 21.26966272 0.00481038 0.00145296 0.00460410
C 5.37104501 7.06720468 29.50695915 0.00401084 -0.00381935 0.00335780
C 1.32910142 11.79337219 29.68829165 -0.00053469 -0.00010961 0.00108794
C 7.35024962 7.44774759 21.09835670 -0.00504156 0.00397238 0.00117371
C 5.55072664 0.76722620 28.11462403 -0.00031712 -0.00076911 0.00597235
C 3.25673440 5.56493509 20.67427132 0.00301494 -0.00347465 0.01025816
C 7.14553217 0.28174933 17.51995296 -0.00300052 0.01405176 0.00148944
C 1.44851202 6.20165871 26.19209921 0.00452891 -0.00245572 -0.00306509
C 2.64714041 12.44370648 23.63568176 -0.00162498 -0.00022143 -0.00401865
C 5.48555442 6.54528234 31.86345502 0.00595095 0.00094250 0.00005181
C 1.70835757 12.47909111 32.06112809 -0.00123379 -0.00237639 0.00439081
C 7.18148113 6.77162184 23.52917106 0.00520012 -0.00170038 -0.00243732
C 5.60637110 0.08981950 25.77913578 0.00553017 -0.00400484 -0.00809413
C 3.18865831 6.14363981 18.29217033 -0.00902505 0.00125223 0.00052564
C 6.98692473 11.73431141 0.60367279 0.00918434 -0.00776027 -0.00499800
C 1.18147393 7.36747516 25.20218287 0.00355954 0.00233929 0.00263936
C 2.77837608 0.92123373 24.44267628 0.00699621 0.00656361 -0.00223603
C 5.84694614 5.50047718 16.46692409 0.00311059 0.00093770 -0.00401356
C 1.66216850 1.11225685 16.26935732 0.00583672 -0.00202689 0.00028325
C 7.33674141 5.52935368 24.42256446 0.00543240 0.00050728 -0.00835968
C 5.63869518 11.74468577 24.91013088 -0.00533642 0.00462238 0.00182695