1920
Time=57000.00000005 pbc="T T T" Lattice="25.53663583 0.00000000 0.00000000 0.00000000 25.65138356 0.00000000 0.00000000 0.00000000 32.87008479" energy=-12246.92427611 virial="-80.18486636 -7.20331085 14.07981314 -7.20331085 -64.04133984 9.01069665 14.07981314 9.01069665 -66.16670442" stress="-0.00142681 -0.00028866 0.00073222 -0.00028866 -0.00075139 0.00041513 0.00073222 0.00041513 -0.00078651" Properties=species:S:1:pos:R:3:vel:R:3
O 5.86265740 2.52866293 6.55933081 -0.00205135 0.00145127 -0.00108580
O 2.25605074 3.50789937 14.88882605 -0.00666528 -0.00366727 -0.00226074
O 1.80468365 10.06711281 0.90008306 0.00378270 0.00146320 0.00454396
O 7.20917617 8.81495054 9.47607592 -0.00201279 0.00505126 0.00196840
O 2.23812366 10.11502463 9.57129380 0.00613571 -0.00624331 0.00433499
O 5.61731978 8.83164828 1.26956574 -0.00028894 0.00384309 -0.00638076
O 6.40233575 2.79551994 14.89617052 0.00091741 -0.00452361 -0.00100352
O 1.57392703 3.50820693 6.72391887 -0.00156978 0.00146433 -0.00550980
O 6.41583716 1.31909366 16.96307147 -0.00511392 0.00339260 0.00614485
O 1.81321753 5.05371294 8.81130514 -0.00206410 -0.00369567 0.00423675
O 2.02802803 11.40134487 7.19060048 -0.00324503 0.00021047 -0.00076880
O 6.10262712 7.46418317 32.11826329 0.00434361 0.00246084 -0.00518491
O 1.76375485 11.77032705 31.90265131 -0.00232827 -0.00317108 -0.00977020
O 6.23353273 7.57782523 7.44122602 -0.00080248 0.00509524 0.00109779
O 6.67752655 1.01561410 8.58144489 -0.00644684 -0.00056507 -0.00582588
O 2.02988972 5.08763992 17.02673660 0.00371561 0.00101801 -0.00373070
O 6.07564943 2.62501456 23.36870121 -0.00342523 0.00531887 0.00161471
O 2.26464931 3.09420096 31.27003047 -0.00637036 -0.00195137 0.00419740
O 1.75951753 10.24854401 17.60911010 0.00213607 0.00053605 0.00018269
O 7.08015381 9.14621944 26.11268197 0.00049712 -0.00098299 0.00531888
O 2.51974713 10.25643489 25.68865566 0.00266185 0.00134369 -0.00146891
O 5.90536659 9.18309221 17.67538546 -0.00415181 0.00045603 -0.00386507
O 6.66602672 2.39498222 31.50190558 0.00179355 -0.00741643 0.00909015
O 1.88966732 3.61984030 23.06739913 0.00077742 -0.00043683 0.01038214
O 5.84058141 0.89594815 0.59390867 -0.00150148 -0.00612532 -0.00357502
O 2.09965096 5.12491861 25.27950824 0.00238195 0.00098387 0.00423514
O 2.09710346 11.83649133 23.65495321 0.00001527 0.00721389 0.00713610
O 6.04497625 7.73882634 15.58090184 0.00545961 0.00431851 0.00370938
O 2.48500784 11.91197971 15.65683204 0.00199127 -0.00427707 -0.00663254
O 7.00003731 7.69777678 23.94963901 -0.00450404 -0.00071874 -0.00403392
O 6.60749482 0.98982558 25.21739195 0.00192768 -0.00061398 -0.00267470
O 2.36104493 5.04659554 0.48552954 0.00001516 -0.00560512 -0.00880971
O 5.91748223 15.50276265 6.68790199 -0.00171869 0.00502209 -0.00065661
O 2.86514055 16.76279399 15.55292677 0.00530277 0.00552600 -0.00374854
O 1.50759011 23.03301590 1.39344678 -0.00023276 0.00719718 0.00231322
O 7.12624713 22.24587926 9.68517066 -0.00015098 0.00266872 0.00494679
O 2.72688574 23.19123030 9.68830899 -0.00426559 -0.00824889 -0.00696751
O 5.94523651 22.20455410 1.50244242 -0.00059992 0.00014581 0.00118848
O 7.21775391 15.29972663 14.95604112 -0.00653295 -0.00650355 0.00224657
O 1.51024452 16.63464267 7.04236084 0.00757912 0.00097097 -0.00649421
O 6.36818099 14.23045356 17.14413274 -0.00396985 -0.00950387 -0.00149452
O 2.06920223 18.16730137 9.22003045 0.00150004 0.00200612 0.00266245
O 2.44124878 24.37269821 7.41966672 -0.00218816 0.00333166 -0.00165195
O 6.27819334 20.75261571 32.19011221 -0.00220315 0.00359664 -0.00639741
O 2.47941659 24.12801973 32.18282615 0.00166300 0.00536614 -0.00068687
O 6.49182105 20.40462695 7.52371866 -0.00263003 -0.00560969 0.00248686
O 6.53808633 13.91892647 8.70449066 0.00090234 -0.00042092 0.00047802
O 2.00719037 18.26665354 17.50259464 -0.00238971 0.00371923 0.00131888
O 6.03307373 15.62296733 23.32320353 -0.00155044 -0.00700217 -0.00292786
O 2.41959987 16.71904165 31.66437769 -0.00036092 0.00018085 0.00555112
O 1.41108372 22.95253013 17.80757549 0.00199830 -0.00432246 -0.00288691
O 6.69787657 22.08150252 25.90339874 0.00746872 -0.00291571 0.00528520
O 3.01147657 23.28370057 26.15854498 0.00122814 0.00531681 -0.00407208
O 6.04365562 22.23323346 17.90356588 -0.00094356 -0.00237178 -0.00615029
O 6.55643679 15.45619644 31.60444609 -0.00566420 0.00612313 -0.00471639
O 1.68002562 16.46417672 23.52708257 0.00000168 0.00807684 -0.00021383
O 6.09789845 13.73924415 0.53088086 -0.00394384 0.00300532 -0.00733965
O 1.97519895 18.23466917 25.60750936 -0.00501905 0.00062544 0.00512088
O 2.08040885 24.46280778 23.93497649 0.00141102 -0.00026373 -0.00376629
O 6.98344867 20.16919211 15.51174465 -0.00091818 0.00239865 -0.00079636
O 2.15316293 24.51864413 15.87211965 -0.00379039 0.00660600 0.00084501
O 6.15602711 20.42924328 23.95087924 -0.00321537 0.00301161 0.00629445
O 6.16231587 14.09311897 25.31560299 -0.00099004 -0.00076899 0.00631966
O 1.84018345 18.28097494 0.87351694 0.00367066 -0.00097893 0.00895061
O 14.47553990 2.84198671 7.03631193 0.00483951 -0.00019451 0.00325843
O 11.04693973 3.68972780 15.36227111 -0.00209378 0.00210581 -0.00831075
O 9.79413402 10.17047626 1.29343151 0.00152162 -0.00160307 0.00497759
O 15.89219627 9.10692229 9.68001026 -0.00310233 0.00125808 0.00307950
O 11.13893316 9.77047953 9.51869481 0.00748862 -0.00216843 0.00640442
O 14.70997945 9.33307704 1.45825986 -0.00701293 0.00397861 -0.00076414
O 15.72481890 2.34761690 15.14757067 -0.00269391 -0.00598973 0.00444649
O 10.33930387 3.56209236 7.08157990 -0.00299773 -0.00410956 0.00050474
O 14.97968800 0.99221778 17.24615494 0.00031279 0.00219236 0.00179094
O 10.82147710 4.95283864 9.15565365 -0.00502617 -0.00223479 -0.00748391
O 10.92773320 11.34882011 7.45066468 -0.00704685 0.00600761 0.00207580
O 14.66157801 7.56087780 32.27043593 0.00673825 0.00215542 -0.00357446
O 10.46014311 11.16603934 31.80506810 -0.00096466 0.00967738 -0.00464589
O 15.15012692 7.67922259 7.55331475 -0.00078358 -0.00892961 0.00400888
O 15.07792832 1.46118618 8.92614588 0.00001876 -0.00219736 0.00276933
O 9.95827698 5.24681001 17.49135674 0.00572399 0.00909308 0.00045859
O 14.67326570 2.64153628 23.28371085 -0.00020553 -0.00162933 -0.00136824
O 10.76019615 3.81304117 32.06114683 0.00612845 0.00364294 -0.00540093
O 9.63806584 10.01120706 17.40027203 0.00137916 -0.00456302 -0.00049272
O 15.28816463 8.89084631 26.15193458 -0.00438687 0.00253050 -0.00018641
O 11.68138763 10.11867231 25.59626802 0.00055399 -0.00065739 0.00215064
O 14.27507974 9.05462633 17.62227834 -0.00374535 -0.00224262 -0.00485030
O 15.55014997 2.59089074 31.42795844 -0.00324156 -0.00039011 0.00574129
O 10.09978646 3.72619169 23.64742272 -0.00111090 -0.00112042 0.00218104
O 14.85671502 1.56923685 0.93837113 0.00425420 0.00212918 0.00755792
O 10.43447925 5.14825308 25.72078762 0.00138864 0.00788909 -0.00346552
O 10.91212869 11.34503306 23.40328534 0.00001808 -0.00132464 0.00035979
O 14.90377638 7.37761131 15.77480726 0.00140938 0.00135866 0.00431324
O 10.46951361 11.53674024 15.57705890 0.00562905 -0.00042921 0.00297776
O 15.22635003 7.64351293 23.77630869 -0.00284389 0.00332669 0.00260726
O 15.04853944 1.07288532 25.34059883 -0.00007969 0.00679353 0.00842446
O 10.24458997 5.43088656 1.11231094 -0.00777721 -0.00010669 0.00509011
O 14.48711118 15.56226848 6.75777900 -0.00148352 0.00184889 -0.00129434
O 10.84480007 16.96637270 15.55522289 -0.00005706 0.00057486 -0.00033328
O 9.79858718 23.07882275 1.27709864 -0.00254428 -0.00175532 0.00353177
O 15.60011248 21.64948803 10.10006038 0.00051025 -0.00536491 0.00298457
O 11.50543296 22.71289361 9.58663872 0.00550586 0.00759207 -0.00070159
O 14.40062620 22.35536036 1.90068077 0.00466320 -0.00023784 0.00055382
O 15.23671552 15.73744555 14.83021146 0.00483114 0.00095573 -0.00447367
O 10.15013956 16.25829315 7.02062099 -0.00243956 0.00148771 0.00016606
O 15.33658231 14.36286843 16.95177426 0.00542466 -0.00011524 -0.00331591
O 10.27525503 17.68520101 9.13248034 0.00094569 0.00463791 -0.00638997
O 11.18708862 24.09281658 7.47292595 -0.00095933 0.00476623 -0.00335371
O 14.43140043 20.58727583 32.51013725 -0.00221787 -0.00190859 -0.00273429
O 10.58703709 24.54998680 32.02583109 -0.00118520 0.00225081 0.00140714
O 14.77679010 20.56357609 7.88405382 -0.00213766 0.00447228 0.00023372
O 14.88698482 13.57253422 8.78849388 0.00110897 0.00123797 -0.00540959
O 10.19461106 18.36944504 17.54153692 -0.01085720 0.00012415 0.00120294
O 14.40470260 16.00008349 23.10573898 -0.00158515 0.00195209 -0.00212466
O 10.71634283 16.34427556 31.76559463 -0.00214726 0.00209967 0.01185536
O 10.05083295 23.37408027 17.49656911 -0.00528334 -0.00698286 0.00707941
O 15.60242066 22.08728865 26.34482015 0.00020176 0.00103962 -0.00207005
O 11.01681563 22.68212242 25.88244740 -0.00546286 -0.00103071 -0.00381589
O 14.49709903 21.73408264 17.81742746 0.00521084 -0.00185569 -0.00195217
O 15.12466246 15.72032247 31.37841906 0.00132881 0.00098880 0.00406872
O 10.28739419 16.22466006 23.65272621 -0.00224892 0.00393685 -0.00105195
O 14.92885190 14.22105773 0.51117763 -0.00218828 0.00442212 -0.00011869
O 10.39451088 17.92912556 25.59091889 0.00726285 -0.00076156 -0.00080749
O 11.08586311 24.20298710 23.82314305 0.00088532 -0.00283670 0.00235444
O 14.96739897 19.90208508 16.15100534 0.00024949 0.00226479 0.00077916
O 10.83110458 24.56875120 15.51840280 -0.00230411 0.00328510 -0.00326944
O 14.81539666 20.64927940 24.14552952 -0.00143843 0.00283632 -0.00666162
O 14.81710825 14.06995805 25.14514949 -0.00515457 0.00216018 0.00012045
O 10.94608822 18.00944881 0.92705849 0.00097691 -0.00453041 0.00007152
O 23.53529190 2.69639193 7.11842944 -0.00772725 -0.00480703 -0.00398951
O 19.53143641 3.16312720 14.73971048 0.00212298 0.00348763 -0.00155112
O 18.62858993 10.35273122 1.22178750 -0.00837567 -0.00045948 -0.00099485
O 23.89481200 9.34218613 9.24531826 -0.00019075 -0.00368142 -0.00878900
O 19.63119741 10.16810652 9.20232823 0.00292153 0.00382722 -0.00002361
O 23.05306385 9.11482058 1.07458572 -0.00095550 -0.00463997 0.00143038
O 23.74235838 2.81851822 15.29410575 0.00338637 0.00180460 0.00862581
O 18.70972281 3.33965352 6.64458881 0.00663875 0.00546153 0.00109152
O 23.38704122 1.26967333 17.43492473 0.00099021 -0.00215560 0.00348746
O 19.00464992 5.14488799 8.78062226 0.00144324 0.00489032 0.00080110
O 19.16278679 11.65387254 7.21006130 0.00092385 -0.00044893 -0.00144131
O 23.38665347 7.56959947 31.85784180 0.00470819 -0.00253948 0.00499579
O 19.09575593 11.86996418 31.99280115 -0.00766332 0.00369081 -0.00004966
O 23.49604741 7.79520525 7.23123662 -0.00106603 -0.00158017 0.00220134
O 23.54681558 1.08017576 9.13513036 0.00322019 0.00168233 0.00573176
O 19.55540295 4.85606425 16.76186746 -0.00117358 -0.00241004 0.00279738
O 23.13822785 2.98527145 23.69950295 -0.00362837 -0.00380638 0.00054700
O 19.62452228 3.66523418 31.36199984 -0.00289299 -0.01111949 0.00170038
O 18.67963321 10.16593366 17.72995143 0.00181911 0.00284825 -0.00120399
O 23.78375703 8.92333347 25.60586036 -0.00389608 -0.00003738 0.00494775
O 20.01437776 10.10272746 26.04537873 -0.00153473 0.00129425 -0.00036697
O 22.87617440 9.39935569 17.51339370 0.00264351 0.00230511 0.00058193
O 23.65441257 2.75345165 31.85797726 0.00359534 0.00109322 0.00924049
O 18.53790023 3.66480608 22.99671022 0.00542865 0.00886607 0.00036194
O 23.37966247 1.21355544 0.99594981 -0.00092116 0.00806963 -0.00367041
O 19.05799893 4.99908720 25.13636921 -0.00798833 0.00166471 0.00072367
O 19.57560049 11.55984604 23.90636722 0.00309253 -0.00213459 -0.00167590
O 23.44076068 7.73163931 15.59358536 0.00218337 0.00092102 -0.00478140
O 18.72395242 11.49685038 15.51135675 0.00213138 0.00471133 -0.00003638
O 23.08651815 7.42274479 23.51922283 0.00082895 -0.00099742 0.00127853
O 23.65414123 1.23312779 25.58263422 0.00409180 -0.00307867 0.00033376
O 19.39182151 5.23280053 0.64623243 0.00462149 -0.00227261 0.00405690
O 23.34724094 15.62166185 6.87578926 -0.00065363 0.00127857 0.00228444
O 19.53875467 16.35800327 15.42187047 -0.00694557 0.00134941 -0.00288161
O 18.47885999 23.54477042 1.08107130 0.00517274 0.00656679 -0.00093483
O 23.77994001 21.70748326 9.37019563 0.00398763 0.00511305 -0.00078095
O 19.69011158 22.90006248 9.35385860 0.00131352 0.00361768 0.00245329
O 22.84457198 22.42029272 1.35480686 -0.00356335 0.00648589 -0.00438148
O 24.03090652 15.44468788 15.48418898 -0.00116940 0.00224016 -0.00019985
O 18.52914478 16.48577247 7.18314331 0.00214727 0.00405350 -0.00028241
O 23.15438387 14.29107586 17.64646119 0.00592163 -0.00280923 -0.00160952
O 19.23117687 17.90141577 9.22038818 -0.00300884 -0.00911120 0.00014475
O 18.90740946 24.42624257 7.38288303 0.00964335 0.00098364 -0.00038272
O 22.71962964 20.87881250 32.17610004 0.00599575 -0.00115174 0.00003992
O 19.29855102 25.15627790 32.14917678 0.00000639 -0.00655949 -0.00482864
O 23.07867679 20.17112610 7.16109285 -0.00075975 0.00198772 -0.00188585
O 23.31834078 14.39369254 9.21660923 -0.00660656 -0.00087810 -0.00414459
O 19.19813777 18.06695211 17.52629198 -0.00651888 -0.00273941 -0.00159136
O 22.60767441 15.60637612 23.71102414 0.00729697 -0.00109344 0.00010933
O 19.77107101 16.78546808 31.93700703 -0.00104745 0.00103231 -0.00612762
O 18.56900251 22.96385992 17.87337867 0.00229332 0.00442022 -0.00070197
O 23.81674146 22.03084302 25.95650668 0.00362629 0.00448242 -0.00333555
O 19.79944206 23.27106070 26.34457279 -0.00149278 0.00352864 0.00112901
O 23.11246105 21.90786520 17.53119532 0.00297406 0.00314945 -0.00221843
O 23.50097631 15.88316408 31.52887163 0.00097530 -0.00211162 0.00337754
O 18.59741442 16.89476949 23.80569710 -0.00125175 -0.00277707 -0.00334129
O 23.80840715 14.26190025 0.72820639 -0.00907038 -0.00068502 -0.00287631
O 19.05828504 18.21696043 25.99068169 0.00601241 -0.00468251 -0.00073132
O 19.57034144 24.48808797 23.92637178 0.00041868 -0.00085417 -0.00533276
O 23.66565680 20.39339933 15.62581625 -0.00483164 -0.00719184 -0.00494279
O 19.28087540 24.24937396 15.74625211 -0.00472244 0.00108535 -0.00341042
O 23.62745945 20.56283423 23.85743209 -0.00096473 -0.00309553 -0.00074063
O 23.40607667 13.93233752 25.49567014 -0.00264344 -0.00008097 0.00660347
O 19.13503265 18.40699054 1.06645342 -0.00236175 0.00269021 -0.00027238
N 7.47074561 12.82050954 2.10686685 -0.00049987 -0.00511652 -0.00375046
N 0.60951634 6.21397119 10.36954441 -0.00323765 0.00170513 0.00244514
N 3.37206662 0.04125499 5.70268659 0.00197920 0.00241020 -0.00387386
N 4.98981155 6.59358778 13.94478807 -0.00444663 0.00144368 0.00107767
N 0.93467260 0.02328154 14.36563531 0.00468981 -0.00398923 0.00073206
N 7.51523582 6.50504214 5.87588057 0.00173738 0.00021841 -0.00158859
N 5.27199257 12.92057361 10.34110572 0.00597180 0.00371544 -0.00426750
N 3.36776229 6.15524547 2.27444570 -0.00249612 -0.00506865 0.00235708
N 7.61104901 13.04892300 18.66851918 0.00680524 0.00204076 -0.00071774
N 1.35668555 6.41777987 26.97324946 0.00390388 -0.00181023 0.00520973
N 3.34624049 25.46408590 22.33473004 -0.00670363 -0.00198650 0.00237588
N 5.02142985 6.30811647 30.49192121 0.00135123 0.00402624 0.00161350
N 1.01603669 25.34462375 30.84566273 -0.00449529 0.00180900 -0.00287161
N 7.54590124 6.33171493 22.08727613 0.00260473 0.00165170 0.00092056
N 5.18550147 12.75407055 26.90460150 0.00702613 -0.00099606 -0.00612674
N 2.89421916 6.43732102 18.58045761 0.00082069 -0.00449669 0.00443547
N 7.37797829 25.53177328 2.00190852 0.00169538 0.00896798 0.00692852
N 1.08515266 19.32476246 10.95618742 -0.00033678 -0.00944085 -0.00155145
N 3.32968223 12.52962728 5.68161537 -0.00121704 -0.00311714 -0.00203669
N 5.44871864 19.31703094 14.02982647 0.00281453 0.00081509 0.00500386
N 0.91349408 12.84896232 14.22208697 -0.00018349 0.00441108 -0.00365718
N 7.37820398 19.20750942 5.81005490 0.00601065 -0.00174608 -0.00281409
N 5.46529411 25.51897841 10.25039393 -0.00486455 0.00514694 0.00422154
N 3.21591134 19.18875681 2.47713049 -0.00553085 -0.00429725 0.00971751
N 7.24848035 25.62418545 18.58438104 -0.00098668 -0.00069994 -0.00060220
N 0.81242798 19.36686031 27.09442648 0.00975275 0.00280914 0.00304988
N 3.33589296 13.01982662 22.13335893 -0.00026105 -0.00225508 -0.00010651
N 5.45270542 19.20214746 30.62551046 -0.00014858 -0.00448341 -0.00544597
N 0.84502257 12.95789892 30.25689155 -0.00337292 -0.00079999 -0.00436356
N 7.42865962 19.34724701 22.39881312 0.00370329 -0.01082590 -0.00256007
N 5.13351039 0.08864599 26.69170480 0.00580999 0.00646220 -0.00661968
N 3.58769070 19.08214189 18.98928585 -0.00806119 -0.00674146 0.00494840
N 16.04051309 12.92331188 2.06422844 0.00477273 0.00522661 -0.00427919
N 9.38459880 5.96367082 10.62214282 -0.00145677 0.00061438 -0.00345753
N 11.89501394 25.51859980 5.78837697 0.00662925 -0.00729631 -0.00127975
N 13.90280682 6.35239341 13.99273899 0.00566549 0.00125204 -0.00450638
N 9.33991497 25.39262364 13.98418358 -0.00153530 0.00521910 -0.00528449
N 16.25942707 6.51050100 5.94497595 -0.00716901 -0.00058338 -0.00407218
N 13.77681713 12.60273028 10.53734006 -0.00999970 -0.00104452 0.00146606
N 11.71314219 6.44713382 2.54640712 0.00698924 -0.00158252 0.00380677
N 16.04842831 13.06645060 18.72204596 -0.00327135 -0.00304462 0.00120755
N 9.72338348 6.50820122 27.34372618 -0.00253618 0.00391097 -0.00037519
N 11.94595303 25.56709997 22.21208627 0.00242329 -0.00081740 0.00722918
N 13.89268407 6.08938041 30.73917056 0.01011447 0.00141274 0.00293292
N 9.25422968 25.49479640 30.34669105 0.00610019 -0.00905434 -0.00084660
N 16.01539332 6.35990745 22.09698200 -0.00016409 -0.00161663 -0.00028005
N 13.93536295 12.86298849 26.85809508 0.00291623 -0.00087574 -0.00689105
N 11.68703144 5.93048476 18.92732508 -0.00262233 -0.00218310 -0.00394876
N 15.97146065 0.31330995 2.42279570 0.00073701 0.00162024 -0.00941024
N 9.45995448 19.23191854 10.56470991 0.00052475 0.00277817 0.00249709
N 11.87927280 12.51105921 5.79484813 0.00434094 -0.00129642 -0.00375687
N 13.78616248 18.77809060 14.47758965 0.00286878 -0.00358794 -0.00879684
N 9.41307195 12.65249632 13.94047995 0.00806290 -0.00040100 -0.00167858
N 15.54839176 19.26175304 6.19977306 -0.00057740 0.00513815 0.00269333
N 13.70827828 0.33915810 10.38819077 -0.00065356 0.00142313 0.00110965
N 11.78128067 19.24896584 2.61854326 -0.00461619 -0.00275652 -0.00347980
N 15.93103987 25.30270057 18.90283626 -0.00304717 -0.01208295 -0.00621577
N 9.55434574 19.24957831 27.16066893 -0.00334572 0.00502351 -0.00503641
N 12.21051336 12.26630630 21.68604604 0.00318294 0.00293187 -0.00492610
N 13.38807794 19.48914649 30.74612279 0.00146090 0.00390992 0.00356838
N 9.57288834 12.51961080 30.03106229 0.00016076 -0.00425344 0.00028440
N 15.97114465 19.40476149 22.55806142 0.00120119 -0.00427382 -0.00277692
N 13.93790417 25.56071757 26.96864268 0.00186910 0.00068389 0.00198127
N 11.50795003 19.38759627 19.15535577 0.00602897 -0.00400935 -0.00603827
N 24.67538785 12.81220719 2.35205593 0.00277462 0.00580043 0.00106379
N 18.33945172 6.55202039 10.49082966 -0.00676895 0.00466297 0.00043117
N 20.36485076 25.45708860 5.94079545 -0.00309205 -0.00073390 0.00509111
N 22.26522371 6.80120363 13.88315520 0.00076156 0.00446993 0.00251976
N 18.17935051 25.39985669 14.05833889 0.00192933 -0.00036134 0.00107155
N 24.32597674 6.28226356 5.63358290 -0.00554085 -0.00090397 -0.00130045
N 22.19268404 13.04064610 10.79531858 -0.00340615 0.00144957 0.00273325
N 20.40872486 6.38229909 2.31230661 0.00398697 -0.00444866 0.00519454
N 24.86557717 13.77486735 18.98776251 0.00570918 -0.00199320 0.00081752
N 18.02291130 6.24874023 26.73522284 -0.00049637 -0.00621490 0.00667251
N 20.54853815 25.63976316 22.25850819 0.00277535 0.00285958 0.00003244
N 22.04350047 6.45592832 30.26593811 -0.00138171 0.00710903 -0.00272536
N 17.73079604 0.33609693 30.63486640 0.00114457 -0.00158892 0.00433869
N 24.76048742 6.85177003 22.05522710 -0.00359303 0.00066336 -0.00627510
N 22.08557677 12.92590173 27.04138358 -0.00395783 0.00155105 0.00426582
N 20.51319265 6.01901426 18.50397483 -0.00113049 0.00088769 0.00776965
N 24.65602243 25.59955395 2.33573699 -0.00093221 -0.00072332 -0.00438240
N 18.12626824 19.04916837 10.82165201 0.00434656 0.00048820 -0.00517914
N 20.35875467 12.98185056 5.80951062 -0.00587053 0.00361955 0.00354461
N 22.25045074 19.38288275 14.18994197 0.00114168 -0.00115969 0.00388487
N 17.86024640 12.71680240 13.80794323 0.00720018 -0.00666124 0.00510814
N 24.60768089 19.42741657 5.69864786 -0.00334908 -0.00052814 -0.00196935
N 22.35381713 25.62749172 10.81475442 -0.00338437 0.00137624 -0.00309527
N 20.11474344 19.50463122 2.77924662 0.00050987 0.00143857 -0.00512462
N 24.54717622 0.13933327 19.09704530 -0.00035893 -0.00016762 0.01262130
N 17.49482081 19.07158167 27.38410001 -0.00269608 -0.00116758 -0.00408423
N 20.27719367 12.96913005 22.19593477 -0.00183303 -0.00359300 0.00142048
N 21.92798657 19.44571611 30.54750299 0.00352285 -0.00634537 0.00007936
N 17.76138238 12.79406559 30.41750750 -0.00137549 -0.00407120 0.00245024
N 24.92191144 19.63382670 22.24086152 -0.00875011 0.00593687 0.00646906
N 22.36797253 0.10531310 27.17075190 0.00282311 -0.00057927 0.00232826
N 20.24191488 19.31725168 19.14835528 0.00266456 0.00898765 -0.00383275
C 7.71508794 0.33769292 4.34978095 0.00088986 0.00550132 -0.00592678
C 0.70508210 5.94084041 12.75465141 0.00294492 0.00623781 0.00184710
C 3.13946883 12.43168467 3.26100575 -0.00115829 0.00068274 0.00126481
C 5.03328668 6.89147529 11.58879564 -0.00376763 0.00536824 0.00403873
C 0.74779189 12.59148957 11.79971793 0.00116290 -0.00116751 0.00057864
C 7.48322157 6.71214604 3.54687944 0.00716939 0.00136070 0.00709469
C 5.21086907 0.23754603 12.60183663 -0.00083483 0.00593876 -0.00090297
C 3.42374766 5.87836579 4.71791002 -0.00862613 -0.00515924 0.00143240
C 7.37148632 1.00708755 5.51071542 -0.00552952 0.00920615 -0.00270587
C 1.02943731 5.26672395 13.93952729 0.00842621 0.00205884 0.00733443
C 2.80917805 11.86372238 2.07148461 -0.00427055 0.00510072 0.00706153
C 5.46350081 7.43480617 10.45426525 0.00582515 0.00213321 0.00152830
C 1.15040267 11.94535162 10.64816145 -0.00288419 -0.00488325 0.00113378
C 7.04147486 7.29426042 2.36598202 0.00136049 0.00330602 0.00027096
C 5.40563136 0.98619617 13.76563765 -0.00560775 0.00052508 -0.00031901
C 3.10491443 5.11825807 5.78841387 -0.00287448 0.00009530 -0.00343777
C 6.40840162 2.01001890 5.37285688 0.00124979 -0.00815146 0.00645437
C 1.89907157 4.14127512 13.79523545 0.00897781 0.00242456 0.00089624
C 2.11066873 10.67922778 2.01956956 0.00274795 -0.00041292 0.00500568
C 6.34660490 8.56280636 10.53013380 0.00178922 -0.00734595 0.00974620
C 1.88263449 10.77902826 10.69965870 -0.00492112 -0.00503411 -0.00290755
C 6.20347367 8.47138873 2.36379990 0.00146854 -0.00180525 -0.00455323
C 6.02060636 2.20129429 13.77088869 0.00101991 -0.00064778 0.00306336
C 2.15072968 4.03619987 5.67251747 0.00249424 -0.00390380 0.00040327
C 6.13994657 2.62598579 4.15269828 0.00418067 -0.00336882 -0.00460688
C 2.24346328 3.67946060 12.52215896 0.00884506 -0.00228207 -0.00021213
C 1.77776017 10.08555690 3.31264620 -0.00066556 -0.00456260 0.00429919
C 6.49677674 9.19149998 11.75876055 -0.00808642 0.00358037 0.00436097
C 2.31185591 10.31038313 11.98256446 -0.00612538 -0.00186642 0.00529019
C 5.97516680 9.04581592 3.61856547 -0.00295408 0.00549382 0.00591114
C 6.45524232 2.66548061 12.45139261 0.00338329 -0.00247073 0.00328916
C 1.91172047 3.48795280 4.35990212 -0.00256566 0.00588450 -0.00167342
C 6.67026156 2.07256922 2.99281111 0.00048920 0.00165961 -0.00096317
C 1.74083307 4.25593709 11.42270687 0.00804870 -0.00107100 0.00003845
C 2.23937035 10.55797537 4.49923948 -0.00224298 -0.00686409 -0.00292904
C 6.09788290 8.57300592 12.92296091 -0.00136561 -0.00120278 -0.00549105
C 1.98841093 10.94971995 13.14654351 -0.00156215 -0.00838444 0.00309829
C 6.53766265 8.55306093 4.79656306 -0.00398810 0.00159604 0.00012573
C 6.37551659 1.96575793 11.32032107 0.00057990 0.00379392 0.00173244
C 2.24413838 4.22098373 3.23217559 0.00177612 0.00092285 0.00422578
C 7.19416449 0.75307571 3.09177436 0.00645368 -0.00347034 0.00226661
C 1.06330610 5.49113893 11.46547098 -0.00073300 0.00078725 0.00254524
C 2.96657162 11.87085505 4.50634456 0.00332322 0.01146313 -0.00248673
C 5.32618486 7.32526092 12.85559909 0.00331645 0.00431635 0.00140640
C 1.24203304 12.18934287 13.07861811 0.00167405 -0.00279049 0.00594550
C 7.20443311 7.27204663 4.78766597 -0.00322644 -0.00118897 0.00099641
C 5.68309679 0.65590940 11.33606064 0.00358438 0.00232633 0.00041728
C 2.99063340 5.43546867 3.41126094 -0.00198781 0.00730486 0.01082126
C 6.78234939 0.08814834 0.78821803 0.00675497 0.00078755 0.00575323
C 1.32147677 6.11703441 9.17840982 -0.00132953 0.00016722 0.00367455
C 2.68175709 12.41079104 6.91404385 0.00108782 -0.00013770 -0.00049503
C 5.61310765 6.66846117 15.11404987 0.00575815 0.00424683 0.00274056
C 1.71074394 12.87355305 15.36979396 0.00691764 -0.00013063 0.00258137
C 6.96308035 6.62539431 7.16977359 0.00350201 0.00118715 -0.01218244
C 5.93053988 0.06368678 8.97107717 -0.00731282 0.00410409 -0.00302678
C 2.89305972 6.07451854 0.96519157 -0.00579417 -0.00258165 -0.00118212
C 6.66097066 11.95192237 16.69635254 0.01090036 -0.00723885 -0.00161026
C 1.38720799 7.36080321 8.25412248 -0.00105726 0.00242780 -0.00133242
C 2.96280095 0.96840379 7.94499163 -0.00435899 -0.00156879 -0.00342323
C 5.85791136 5.06307885 32.38638674 -0.00236205 -0.00133342 -0.00385814
C 1.73025500 0.59629273 0.15565984 0.00710655 0.00121120 -0.00064271
C 7.12021279 5.44220718 8.09634681 0.00093101 -0.00039853 0.00443336
C 5.85524866 11.75819718 8.25562570 -0.00656790 0.00301073 -0.00027866
C 2.80809221 7.36904788 16.35754891 -0.00655833 -0.00240154 0.00067897
C 7.52737680 0.27132637 20.95843603 0.01120819 -0.00047466 -0.00386809
C 0.98779280 5.86455267 29.26454372 -0.00480928 -0.00104721 -0.00068567
C 3.49502455 12.57563264 19.82840694 -0.00355121 0.00332874 -0.00194104
C 5.08867721 6.75919723 28.09196715 -0.00016394 0.00295170 0.00230513
C 0.77298868 12.58959181 27.85816523 0.00257742 0.00011921 0.00212391
C 7.51711945 6.71455983 19.70334033 0.00141064 -0.00454139 -0.00982047
C 5.05618619 0.15215102 29.19771013 0.00261261 -0.00137407 0.00059044
C 3.28787302 6.08200731 20.87854406 -0.00218592 0.00092091 -0.00334016
C 7.23274009 0.90094402 22.10460467 0.00266811 -0.00016012 0.00151826
C 1.34136231 5.11581089 30.35982822 -0.00533887 0.00535037 0.00331238
C 3.09174531 11.93374202 18.68817079 0.00207260 -0.00078621 -0.00288037
C 5.54505401 7.44402196 26.98256821 -0.01133792 0.00466782 0.00374945
C 1.05617446 11.85381505 26.72342921 0.00104612 0.00038890 0.00187659
C 7.23494075 7.50529231 18.61850548 -0.00370482 -0.00135898 0.00639022
C 5.41272940 0.76643142 30.38039001 -0.00452387 0.00835621 0.00264118
C 3.03280946 5.31793724 21.98151103 0.00386057 -0.00086456 0.00141576
C 6.48386948 2.09676111 22.23235214 0.00251352 -0.00376165 0.00870234
C 2.09370998 3.85956392 30.23330404 -0.00201284 -0.00355410 -0.00798403
C 2.14987321 10.87923032 18.74165183 0.00262443 -0.00249755 0.00312168
C 6.40659192 8.55505444 27.13481076 0.00108649 -0.00294664 -0.00221782
C 1.94998678 10.86889277 26.78237909 -0.00476354 -0.00335477 -0.01011577
C 6.43893575 8.64710431 18.77222402 -0.00318692 -0.00274818 -0.00523563
C 6.25165025 1.97493925 30.34718802 0.00095099 -0.00719564 -0.00435721
C 2.29558237 4.15602787 21.92478794 0.00377344 0.00241826 0.00356379
C 6.17682621 2.65599441 20.97497018 -0.00988702 0.00209955 0.00202845
C 2.34686251 3.45430257 28.92238170 -0.00122975 0.00125766 -0.00111614
C 1.64277446 10.53291214 20.04361696 0.00775997 -0.00084199 -0.00136132
C 6.65085206 8.97933352 28.43055620 0.00579823 0.00340259 -0.00368338
C 2.32651823 10.36344871 28.02783686 -0.00776211 0.00288340 -0.00463102
C 6.24729525 9.15047752 20.04876536 0.00699787 -0.00261199 0.00206838
C 6.60993116 2.50010273 29.07041301 -0.00326395 0.00278643 0.00021672
C 2.05408848 3.56942916 20.70931317 -0.00276053 0.00021954 0.00165105
C 6.42745337 2.07881470 19.80335017 -0.00082198 -0.00424698 -0.00498390
C 1.98909573 4.18895601 27.80365152 0.00428240 -0.00047897 0.01050657
C 2.09218670 11.07587246 21.18477874 0.00323761 0.00288447 0.00529815
C 6.19401970 8.33317287 29.56702955 0.00574445 0.00068160 -0.00105608
C 1.95927098 10.92027597 29.24428566 -0.00290463 -0.00840476 -0.00729476
C 6.65949778 8.44130539 21.17151324 0.00423036 0.00356503 -0.00350706
C 6.21829186 1.90732057 27.89660664 0.00093581 -0.00552953 -0.00252518
C 2.15606010 4.32628814 19.57374002 -0.00652638 0.00165295 -0.00276152
C 7.09138391 0.78691303 19.71198875 -0.00195668 -0.00010090 -0.00148816
C 1.40058635 5.48228098 27.95901371 0.00216421 -0.00237030 0.00118789
C 2.91503362 12.24588839 21.02527774 0.00835418 -0.00466273 -0.00270845
C 5.39682124 7.11944700 29.39308362 -0.00019335 -0.00012793 0.00048924
C 1.16574076 12.16958928 29.13044978 0.00136855 -0.00173327 -0.00470239
C 7.15378731 7.14985644 21.03736216 -0.00800354 -0.00152593 0.00686687
C 5.40702865 0.72220155 27.95605665 0.00068422 -0.00061004 0.00657612
C 2.77854198 5.56635884 19.65452925 -0.00425852 -0.00267373 -0.00446698
C 6.81174644 0.22792599 17.35298399 -0.00341528 -0.00408449 0.00639211
C 1.78662942 6.24190156 25.68751131 -0.00429705 0.00037657 -0.00278012
C 2.75083238 12.83590782 23.31792020 -0.00567888 0.00135082 0.00619659
C 5.65911314 6.36008962 31.67682514 -0.00221822 -0.00003823 0.00088336
C 1.30816765 12.81963582 31.47649815 -0.00733102 0.00064315 -0.00236385
C 7.36957834 6.59017065 23.48876880 -0.00185855 0.00438356 0.00351137
C 5.79242966 0.07345335 25.53717216 -0.00286731 -0.00005884 0.00237611
C 2.58242414 6.16949904 17.33105192 -0.00286175 -0.00962232 -0.01115677
C 6.88470370 11.60441457 0.12739723 -0.00823266 -0.00318384 -0.00609847
C 1.78770831 7.44660293 24.81286861 0.00021035 0.00793273 -0.00165335
C 2.95842789 0.97659670 24.40814685 0.00026026 -0.00206556 -0.00294341
C 5.67165887 5.38692425 15.97815562 -0.00464494 0.00724144 0.00159796
C 1.34158860 1.05212553 16.53378609 -0.00293689 0.00242549 -0.00514850
C 7.42635529 5.37468427 24.32868446 -0.00054360 -0.00375955 -0.00043862
C 5.89579041 11.73491655 24.80775725 0.00432506 0.00090974 -0.00224097