1920
Time=76000.00000007 pbc="T T T" Lattice="25.55325662 0.00000000 0.00000000 0.00000000 25.65832096 0.00000000 0.00000000 0.00000000 32.85803989" energy=-12246.39417493 virial="-18.93039757 10.10941997 -37.61076508 10.10941997 -7.40912542 -18.86420069 -37.61076508 -18.86420069 -109.80944933" stress="0.00143845 0.00046876 -0.00174319 0.00046876 0.00194207 -0.00090484 -0.00174319 -0.00090484 -0.00287709" Properties=species:S:1:pos:R:3:vel:R:3
O 6.08630525 2.83880612 6.77675255 0.00372811 -0.00234948 0.00673029
O 3.29266242 3.78242917 14.82755962 0.00283934 -0.00593337 -0.00259621
O 1.54593023 10.29800583 1.27354994 0.00742687 0.00031952 0.00123530
O 6.72117942 9.25271772 9.41704696 -0.00057456 -0.00363823 -0.00047871
O 2.31653188 9.74880880 9.90004044 -0.00487688 -0.00654857 -0.00219381
O 5.66853412 8.82047299 1.29134022 -0.00438166 -0.00227986 0.00418316
O 7.00171175 2.68658819 15.05432229 -0.00050337 -0.00047457 0.00531483
O 1.95140728 3.56015027 6.80424884 -0.00681301 0.00807864 0.00455864
O 6.22464200 1.16508265 17.02882947 -0.00040968 0.00130736 -0.00026811
O 1.55733862 5.20323596 8.67691311 0.00449492 -0.00214108 0.00251548
O 2.12423088 11.22575916 7.63973560 -0.00039095 0.00228040 -0.00102284
O 6.62300300 7.44984214 32.17212854 0.01050052 -0.00222248 0.00640389
O 2.43266382 12.04522613 32.25187983 -0.00239398 0.00415528 0.00058900
O 6.37980047 7.68216605 7.53480395 0.00069932 0.00072762 -0.00064291
O 6.18605616 1.32553966 8.99015852 -0.00211345 -0.00453813 0.00174411
O 2.70047526 5.15692879 17.36352809 0.00135015 0.00115633 -0.00432755
O 5.49339376 2.93167978 23.10515446 -0.00226639 -0.00042593 0.00358354
O 2.51624210 3.70858006 31.72608621 -0.00001889 0.00501280 -0.00017409
O 1.77493981 10.16516387 18.14438875 0.00050188 -0.00023503 0.00352332
O 6.96888067 8.79601481 25.95941608 -0.00151101 -0.00491280 -0.00168681
O 3.16210640 10.47428638 26.13028109 0.00054785 -0.00461088 0.00507936
O 6.14544618 9.17585839 17.46451977 -0.00679901 -0.00505434 0.00631333
O 6.54232520 2.88983080 31.49201840 -0.00103943 0.00112533 0.00054418
O 1.48302940 3.53442670 23.31114095 -0.00186315 0.00621361 -0.00000813
O 6.32209008 1.29070767 0.74838017 0.00009705 -0.00387024 -0.00108409
O 1.86864987 5.08267939 25.51467173 0.00009860 -0.00717662 -0.00030722
O 2.33448449 11.79012784 23.97018222 0.00686740 -0.00277685 -0.00156431
O 6.66846131 7.58687051 15.43079391 -0.00323182 -0.00123203 0.00528606
O 2.05171154 11.56067044 16.05424187 0.00181140 -0.00083551 -0.00192568
O 6.43009617 7.64456865 23.66329764 -0.00364512 0.00260837 0.00256342
O 6.06070743 1.26663029 25.36748852 0.00272596 -0.00048708 0.00339226
O 2.09862025 5.51534147 0.65732261 0.00477885 0.00796022 -0.00104462
O 5.41497333 15.51674528 7.18255211 0.00109792 -0.00070858 0.00357998
O 2.56986244 16.38296558 14.87501638 0.00414803 0.00010595 0.00031457
O 1.58589935 22.92464546 1.15089555 -0.00529491 -0.00332010 -0.00071124
O 6.35857083 22.09362404 9.26563558 0.00078686 0.00396233 0.00479455
O 2.60095634 22.60791289 9.47742337 -0.00257487 0.00059941 -0.00394375
O 6.04895621 22.07945493 1.36337747 0.00204380 0.00324202 -0.00162058
O 7.64136917 15.56863298 15.30050417 0.00169967 -0.00443409 -0.00170274
O 1.61682958 16.22356569 6.75589411 0.00022844 -0.00389678 0.00424756
O 6.82541441 14.29027602 17.43092464 0.00477530 -0.00492180 0.00248912
O 2.40689772 17.74244355 8.72297468 0.00631419 -0.00073426 -0.01026276
O 1.82588918 24.09619182 7.50965080 -0.00265141 -0.00256083 -0.00219501
O 6.23769219 20.68884514 31.93049460 -0.00107259 0.00481034 -0.00490009
O 2.04560958 24.28617316 31.83939534 -0.00148934 -0.00098407 0.00564446
O 6.13748987 20.24587262 7.49127854 0.00285941 -0.00532077 0.00049518
O 5.91312999 14.30388513 9.40530184 -0.00194029 -0.00651072 0.00098949
O 2.40913790 17.79125210 16.97966063 0.00304424 -0.00193414 -0.00768069
O 6.21989768 15.47758394 23.41541858 0.00035209 -0.00178987 -0.00190332
O 3.00518785 16.71156303 31.74182608 0.00013513 0.00168035 0.00331067
O 1.93995794 22.76423459 17.51782271 -0.00078466 0.00007361 -0.00208224
O 6.82171973 21.91136814 25.74123502 0.00173106 -0.00090864 0.00496804
O 3.09118584 22.99860894 25.64061707 0.00585141 0.00014832 -0.00150722
O 6.12957720 21.81921638 17.44007369 -0.00374872 -0.00112953 0.00257224
O 7.22924794 15.47547605 31.48658132 0.00585518 0.00262172 -0.00038043
O 1.62301403 16.54566961 23.21493515 0.00378613 0.00130649 -0.00175689
O 6.74715618 14.37751293 1.01100913 -0.00095953 -0.00592271 0.00178743
O 2.13467008 17.91465546 25.33610391 0.00203384 0.00498560 -0.00292933
O 2.34419360 24.42772235 23.77135015 0.00941305 0.00068458 -0.00434153
O 6.49685123 20.23769075 15.47292601 0.00282881 0.00877103 -0.00157442
O 2.33373510 24.42772829 15.45822699 0.00003142 -0.00290174 -0.01051340
O 6.50152865 20.46993476 23.55684432 -0.00614975 -0.00375207 -0.00305673
O 6.72409828 14.02859664 25.31068467 -0.00033039 -0.00055564 -0.00112800
O 1.77822041 18.08985821 0.69672293 0.00727065 0.00079574 -0.00403855
O 14.91791780 2.89474877 6.85620728 -0.00399967 -0.00119378 0.00120297
O 11.36142640 3.31050793 14.75114226 -0.00294921 0.00523697 -0.00652270
O 10.00597251 10.15499537 1.28693014 0.00141578 0.00051174 -0.00352909
O 14.93400111 9.42141553 9.56137387 0.00465751 0.00070867 -0.00153361
O 10.83190937 10.47670381 9.45863910 -0.00554055 0.00336296 -0.00417883
O 14.41422940 9.14869216 0.92175460 0.00129702 -0.00281152 0.00200403
O 15.61024262 2.49623776 15.11344970 0.00144725 -0.00463168 -0.00441723
O 10.02396362 4.01758994 6.99943387 0.00090551 -0.00169221 -0.00332814
O 15.81690439 1.13459725 17.34017294 0.00235843 0.00122938 0.00075512
O 10.95367077 5.49179558 8.98550104 -0.00020417 0.00119443 -0.00653961
O 10.18973270 12.02757156 7.43922446 -0.00422272 0.00805089 -0.00547024
O 15.20335277 7.49874948 32.13205389 -0.00229104 -0.00369607 -0.00225921
O 10.73876830 11.61297725 32.11697469 -0.00237092 -0.00017039 0.00225113
O 14.50685175 7.94806732 7.26571224 0.00221962 -0.00138152 0.00620025
O 14.91926283 1.17208780 8.73565379 0.00620054 0.00227121 -0.00254883
O 11.19069374 4.58125706 17.11849727 0.00259146 0.00294269 -0.00290868
O 14.06924040 2.60223002 23.19280473 -0.00350416 0.00441110 0.00294371
O 11.02430332 3.50273389 31.70491019 -0.00056522 0.00444504 0.00060158
O 10.62282577 9.63314455 17.83843077 -0.00657131 0.00697523 -0.00231194
O 15.22851815 9.09056731 26.17385233 0.00036688 0.00379205 -0.00001555
O 11.41013627 10.39901196 25.88298469 0.00304655 -0.00122907 -0.00247055
O 14.62740777 9.23652045 17.56791717 -0.00341145 -0.00591510 0.00380997
O 14.94087161 3.22507492 31.64059274 -0.00742030 -0.00188299 0.00372715
O 10.00940607 4.01710738 23.33397211 -0.00478505 0.00030136 0.00299079
O 14.97105400 1.33440858 0.62062693 -0.00352904 0.00500492 -0.00405255
O 10.58303590 5.17000976 25.61921176 0.00775799 -0.00235672 0.00348473
O 10.73840967 11.66630151 23.82077510 -0.00053276 0.00821761 0.00419406
O 15.16224220 7.66641731 15.64381872 0.00453559 0.00028984 0.00139102
O 10.33473253 11.41755449 15.93350043 0.00033116 -0.00804106 -0.00526478
O 15.21158055 7.73924234 23.80804487 0.00167476 -0.00126574 -0.00814925
O 14.93515993 1.50872405 25.42431169 -0.00346774 0.00415350 -0.00084672
O 10.91292538 5.31625890 0.69947965 0.00181766 0.00002239 -0.00080935
O 14.22742227 15.80996978 7.00083322 -0.00024056 0.00108157 0.00688831
O 11.25584974 16.06620387 14.73119904 -0.00014078 -0.00709285 0.00480232
O 10.00334526 22.94327848 1.20016032 -0.00389582 0.00568924 -0.00751382
O 15.26804627 21.85698454 9.09812093 0.00307435 0.00203720 -0.00376841
O 11.38171340 22.79567772 9.11763126 -0.00047610 -0.00525049 -0.00139406
O 14.05770327 21.90576531 0.58929124 -0.00216398 0.00513281 -0.00483642
O 15.57121573 15.51202395 15.20193807 -0.00195734 -0.00734619 0.00564286
O 9.84977900 16.68106222 6.57807538 -0.00431942 0.00177691 0.00142701
O 15.03081580 14.14972294 17.45312774 -0.00330386 -0.00499590 0.00438206
O 10.44781562 18.16383285 8.68335829 0.00251886 -0.00256540 -0.00316246
O 10.98755111 24.69236572 7.36239491 -0.00570658 0.00044429 -0.00282705
O 14.73893862 20.37330050 31.64270818 -0.00323500 -0.00135875 -0.00760861
O 10.19812765 24.51019337 32.06314473 0.00078815 0.00456707 -0.00157530
O 15.02721966 20.58195922 6.81057114 0.00162696 -0.00561633 0.00001797
O 14.29902212 14.26112277 8.96482109 -0.00374390 -0.00244514 -0.00715784
O 10.70026091 17.47289345 17.05434686 0.00165792 0.00136621 -0.00153950
O 15.01742624 15.74171818 23.52505992 0.00183097 0.00008133 0.00229112
O 11.05806286 16.56969870 31.48849369 -0.00504539 -0.00090695 0.00607880
O 10.33417612 22.56706883 17.56245605 -0.00986798 0.00854962 0.00609017
O 15.42329860 22.09519999 25.79405467 -0.00466619 0.00486088 -0.00438432
O 10.55042517 22.96757184 25.89622024 -0.00796924 0.00286391 0.00200978
O 14.16258727 21.38517713 17.30371323 -0.00191351 0.00080877 -0.00163312
O 15.48504811 15.53930534 31.73159627 -0.00512351 0.00110012 -0.00142862
O 10.89432660 16.46262586 23.34262609 0.00228011 0.00231965 -0.00302005
O 14.56150822 14.00633165 0.81079626 -0.00163280 -0.00732379 -0.00079359
O 10.84434257 18.24561390 25.30361475 -0.00279667 -0.00034475 -0.00485970
O 10.75872720 24.58309667 23.78463848 0.00326492 0.00472808 -0.00644673
O 15.24009246 20.07830175 15.26559433 -0.00466183 -0.00047496 -0.00210342
O 10.50312475 24.18712968 15.39747685 0.00266791 -0.00139004 0.00016865
O 15.19586658 20.99799704 23.47074488 -0.00269428 -0.00378498 0.00286989
O 15.37162478 14.19362066 25.60505858 -0.00421297 -0.00883243 0.00578383
O 10.48080588 18.16489714 0.59203796 0.00371612 0.00078217 -0.00112466
O 22.54513245 2.69326714 7.03493451 0.00170694 0.00313376 -0.00407470
O 20.31870770 3.67765282 15.05094777 -0.00828590 0.00245491 0.00603280
O 18.91728044 9.74226558 1.50232614 0.00015312 -0.00545034 -0.00263570
O 23.51118253 9.31473013 9.59725168 0.00258621 0.00480440 -0.00509186
O 19.38298037 10.11793437 9.80472261 -0.00125227 -0.00721699 0.00352447
O 22.51552035 9.03487126 1.15989293 0.00592237 0.00550396 -0.00488518
O 24.37254865 2.39911957 15.50936887 -0.00700363 0.00262897 0.00322914
O 18.39470572 4.02963090 7.01848890 0.00484822 -0.00100670 0.00005490
O 23.55688075 1.03742946 17.40924051 0.00195097 0.00505219 0.00034619
O 18.97487817 5.38163298 9.04504740 -0.00482357 0.00792059 0.00041156
O 18.90803433 11.58168469 7.74272958 -0.00018593 0.00006986 0.00699926
O 23.49723440 7.75978703 32.00182339 0.00638467 -0.00003210 0.00263780
O 18.64877843 11.71965709 32.36675804 -0.00211640 0.00443527 0.00013982
O 23.28716787 7.97283641 7.27905873 0.00634710 -0.00245610 0.00283651
O 23.15937379 1.42782584 9.16805855 -0.00113941 -0.00013937 -0.00292882
O 19.64990598 5.05496311 17.19568174 0.00509864 0.00225679 0.00123803
O 22.79164094 2.81964532 23.38616096 -0.00259998 -0.00393919 -0.00575621
O 19.95209729 3.76164265 31.60700754 -0.00134785 0.00260153 0.00226281
O 18.94072685 9.89533232 18.25060713 -0.00217779 -0.00518582 -0.00312576
O 23.85371838 9.62767848 25.98143280 0.00225949 -0.00213998 0.00217257
O 19.72169130 9.99561834 26.28782220 -0.00587008 0.00723358 0.00116819
O 23.12310706 9.06147000 17.79787994 0.00393858 -0.00741573 0.00330443
O 24.10665934 2.52779573 31.81731165 -0.00153905 -0.00201810 -0.00268417
O 18.66875734 3.59994922 23.34496334 -0.00002027 0.00292125 0.00247567
O 23.34418750 1.24376377 0.97168219 0.00582037 0.00007692 0.00488718
O 19.12154616 5.11307450 25.50317636 0.00212208 -0.00341474 0.00457188
O 19.25891824 11.74475355 24.33831934 -0.00658604 0.00220466 -0.00034856
O 23.81590403 7.70738077 15.71046086 0.00116673 0.00476060 0.00345103
O 18.90579268 11.64205879 16.04117520 -0.00177404 0.00710804 -0.00452945
O 23.87226893 7.92708130 24.04636214 -0.00385632 0.00119031 -0.00745790
O 23.09657328 1.44233345 25.62769662 -0.00119374 0.00063217 -0.00173441
O 19.40837520 5.02485691 0.87961534 -0.00237502 0.00044582 -0.00464353
O 22.61190561 15.17597378 7.63471431 -0.00105550 -0.00505598 -0.00081385
O 19.92053444 16.54969465 15.14013367 -0.00761785 0.00446527 -0.00339251
O 18.40270826 23.28336305 1.11910188 -0.00664400 0.00561256 0.00614927
O 23.81195728 22.12633679 9.37145814 0.00214224 -0.00299146 0.00178200
O 19.55489844 22.66543474 9.47413138 0.00108530 0.00027463 0.00268381
O 22.34989251 21.96021583 1.31157131 0.00291130 -0.00169102 0.00321310
O 24.19768648 15.19137542 15.50140902 -0.00088734 0.00630119 0.00326157
O 18.69515920 16.19937609 6.93465176 0.00136624 -0.00155825 -0.00203308
O 23.31635606 13.63522859 17.38259834 0.00450278 0.00299690 0.00405474
O 18.94873692 17.88021372 8.82153929 -0.00058921 -0.00058311 0.00595689
O 19.33135422 24.53086865 7.39563334 -0.00330402 -0.00510769 0.00629055
O 23.05130396 20.36503557 32.11787814 0.00008743 0.00317114 0.00198064
O 18.88820509 24.44738260 31.69444104 -0.00571311 -0.00185884 0.00091291
O 23.39214331 20.18148783 7.37959451 0.00177671 -0.00204332 -0.00458074
O 23.60369540 13.84724675 9.49734916 0.00703470 -0.00506646 -0.00376176
O 19.62947976 18.14941464 17.16698542 -0.00058649 0.00089683 0.00214289
O 23.05525298 14.92041022 23.59580871 -0.00286634 0.01030265 -0.00031886
O 19.39477574 16.66654554 31.65560142 0.00243187 -0.00236633 -0.00653234
O 18.74499838 22.80474928 17.77191659 -0.00600635 -0.00627031 0.00230681
O 23.58950993 22.00109672 26.00345425 0.00172218 0.00770088 -0.00479672
O 19.95180614 22.97615077 26.05028063 0.00163474 -0.00140617 0.01011849
O 22.89759877 21.88003845 17.76092528 0.00493032 -0.00143504 -0.00697357
O 23.43052018 15.55124407 31.86350887 0.00672248 0.00429159 0.00055331
O 18.79309734 16.59684893 23.34202157 -0.00344331 0.00095468 0.00128783
O 23.03500956 13.98944020 1.14837796 -0.00461492 0.00236044 -0.00045659
O 19.03117828 18.18666583 25.43221322 -0.00300843 -0.00267725 0.00040409
O 19.25164238 24.45747426 23.90377484 -0.00414240 0.00281600 0.00495897
O 23.09222084 20.56796182 15.66207287 0.00866800 0.00673357 0.00276186
O 19.10820280 24.32868645 15.68873054 0.00505691 -0.00279582 -0.00451368
O 23.95443360 20.34868482 24.05941540 0.00476331 -0.00254443 -0.00256804
O 24.11778829 13.61783584 25.70442196 -0.00408369 -0.00338531 -0.00126088
O 18.87609152 18.15370146 0.82049905 -0.00414256 0.00585580 -0.00338406
N 7.49375752 12.99299952 2.72333153 0.00538705 -0.00148028 0.00306655
N 0.47845988 5.97006872 10.56064114 0.00350363 -0.00254001 0.00264675
N 3.09541508 25.34524251 5.99000096 0.00058055 0.00503680 -0.00200921
N 5.26253357 6.49967817 14.00052779 0.00619465 0.00159650 0.00321353
N 0.98899321 25.55931212 13.93542151 0.00295677 0.00321192 0.00458490
N 7.20897412 6.27679894 5.94778653 -0.00278092 0.00243099 0.00204081
N 4.96877019 13.17477229 11.07228688 -0.00289544 -0.00359884 0.00124359
N 3.04776355 6.65440113 2.39198800 0.00511865 0.00649238 -0.00248257
N 7.68623651 12.81514944 18.89155745 -0.00020741 0.00187599 0.00112202
N 1.07285538 6.46668457 27.15284669 0.00157426 0.00182538 0.00118679
N 3.60130269 25.46507593 22.11781226 0.00256788 -0.00212868 0.00349965
N 5.13586981 6.71294226 30.65177811 0.00043240 0.00158934 -0.00199109
N 0.82585455 25.25439772 30.10274879 0.00726927 -0.00700264 0.00682227
N 7.70730130 6.54509134 22.17177550 -0.00678170 -0.00204657 -0.00271525
N 5.54243797 12.92432669 26.94438767 -0.00021564 0.00161155 -0.00153999
N 3.30097042 6.54050883 19.08053267 0.00649405 -0.00012120 -0.00636548
N 7.16624397 25.53518938 2.20830867 0.00570849 -0.00112281 -0.00566714
N 0.83167386 18.65667136 10.22853979 -0.00545477 -0.00779495 0.00487517
N 3.02640159 12.57743021 6.08713251 -0.00317093 0.00866972 0.00001888
N 5.39554102 19.00483541 13.85972033 -0.00373095 0.00163787 -0.00634519
N 1.29968718 12.87761092 14.39875529 -0.00098267 -0.00300550 0.00170356
N 7.41864907 19.21627192 5.88131832 0.00232955 -0.00155074 0.00054199
N 5.44374617 25.51951691 10.58938043 0.00092624 0.00287928 -0.00006297
N 3.02308618 19.17432880 2.28577637 -0.00051931 0.00225797 0.00656081
N 7.47302890 0.22422455 18.65476377 0.00714404 -0.00080989 0.00319936
N 1.03429073 18.98523778 27.05696915 0.00163659 -0.00221016 -0.00061981
N 3.58049227 12.96953131 22.49209946 0.00354513 -0.00253124 -0.00337927
N 5.15762241 19.35608302 30.34732699 -0.00192887 0.00047679 0.00277539
N 0.97757067 12.91631653 30.68495340 0.00489021 0.00251387 -0.00638926
N 7.72873957 19.28852040 22.04986647 0.00017288 -0.00361714 0.00636489
N 5.10220324 25.62612480 27.00006336 -0.00415039 0.00050501 0.00046909
N 3.46382861 19.09136296 18.62746482 -0.00623937 -0.00722976 0.00267940
N 15.89426741 13.00987676 2.42518893 -0.00150855 -0.00680305 0.00183643
N 9.43101580 6.23516540 10.58328361 0.00277861 -0.00643815 0.00300943
N 11.75808191 0.23315012 5.54426584 0.00187270 0.00224873 -0.00207245
N 14.01266935 6.46305539 14.12495623 -0.00097093 0.00176368 -0.00068705
N 9.48612082 25.30369726 13.64134466 0.00180903 0.00579188 -0.00205032
N 15.95149421 6.93747872 5.78109782 -0.01054703 -0.00471531 -0.00293392
N 13.53342175 12.95129183 10.65057070 -0.00007127 -0.00545642 -0.00156649
N 11.63758969 6.76338678 2.33699243 -0.00158461 -0.00349097 0.00200297
N 16.16376362 12.85933437 18.98401053 -0.00068543 0.00559932 0.00033664
N 9.34397675 6.30071633 27.24724215 -0.00342559 0.00794325 0.00459547
N 11.57408751 0.10282668 21.92408852 -0.00119832 0.00545693 -0.00359031
N 13.55975569 6.56342244 30.76465917 -0.00068489 -0.00019751 0.00374042
N 9.35319747 0.30561970 30.42229763 0.00964820 -0.00192520 0.00209433
N 16.15059291 6.53980188 22.13626867 -0.00187007 -0.00182640 0.00658236
N 13.96929730 13.11672481 27.05027362 0.00735881 0.00185081 0.00749161
N 12.08019651 6.05300555 18.67217380 0.00422356 -0.00215801 -0.00699726
N 15.63550524 25.52963536 2.28224591 0.00330988 -0.00028298 0.00297611
N 9.42125450 19.10579543 10.48166210 -0.00128606 0.00340831 0.00653709
N 11.57851719 12.95096259 5.86111866 0.00280543 -0.00018265 0.00057948
N 13.76767792 19.12199439 13.77329279 -0.00548802 0.00203333 -0.00128508
N 9.70311028 12.86679342 14.25581225 0.00176482 -0.00190372 -0.00384131
N 16.49757473 19.92155997 5.21288855 -0.00022098 0.00376366 -0.00484078
N 13.88509274 25.53104261 10.39793053 0.00036246 -0.00705709 0.00115881
N 11.67764201 19.25857549 2.20628356 0.00245133 0.00408074 0.00040904
N 15.91241600 25.29722859 19.08486898 0.00429240 -0.00089097 -0.00972556
N 9.70175348 19.28484401 26.92889381 0.00340943 0.00773150 -0.00088463
N 12.09492313 12.62475387 22.30910295 -0.00253379 0.00020968 -0.00308979
N 13.29006843 19.38010503 30.11356418 -0.00226278 -0.00201742 0.00079192
N 9.68746334 12.93841539 30.54986353 -0.00683136 0.00251398 -0.00474899
N 16.37585107 19.77843557 22.06086612 0.00382154 -0.00235029 -0.00195922
N 13.74335811 0.47760559 26.99828100 -0.00767369 0.00031602 -0.00518599
N 11.86063719 18.83976540 18.45539288 0.00226366 -0.01005401 -0.00063831
N 24.33619783 13.03813376 2.70179058 0.00030119 0.00178343 0.00265312
N 17.76831228 6.18372643 10.80157528 0.00292629 0.00203757 -0.00227430
N 20.21440422 0.07777320 5.72490308 0.00450517 -0.00254420 0.00050795
N 22.54313493 6.43987293 14.29070330 0.00272434 0.00247509 -0.00285180
N 18.11277396 25.57981281 14.08956982 0.00024032 0.00955017 -0.00166675
N 24.35484279 6.76509591 5.73028315 0.00334601 0.00084602 -0.00071914
N 22.32109265 12.65826843 11.03509670 0.00691501 -0.00487088 -0.00122962
N 20.40451621 6.32008749 2.34663034 0.00658776 -0.00141816 0.00154586
N 24.95474156 12.67523756 18.85396370 0.00106177 -0.00396397 0.00623318
N 18.01609902 6.35699232 27.03912902 0.00626980 -0.00450508 -0.00208371
N 20.49889482 25.65556061 22.38118763 -0.00046185 0.00633041 0.00334579
N 22.33210363 6.65276000 30.34931764 0.00296204 0.00452080 -0.00359087
N 17.50808428 25.52806298 30.23086571 -0.00018995 0.00450092 0.00985473
N 24.90345094 6.70631031 22.48552803 0.00096987 -0.00024470 0.00228178
N 22.28002505 13.01380645 26.86348500 0.00454858 0.00624829 -0.00494260
N 20.75855846 6.25583428 18.89637819 0.00366316 0.00690322 0.00388968
N 24.42346196 25.65718416 2.50957200 0.00182503 -0.00294352 0.00140886
N 17.73589831 18.82844378 10.51818474 0.00662422 -0.00238522 -0.00236058
N 20.07908959 12.76380686 6.14109388 0.00807957 -0.00148566 -0.00292047
N 22.39035047 19.26180739 13.87300212 -0.00090411 0.00906544 0.00871373
N 18.10060558 13.00389245 14.37246722 -0.00217091 0.00692721 -0.00363423
N 24.51445591 19.18395706 5.70623898 -0.00006216 0.00182813 0.00762371
N 22.26907826 0.08903518 10.88576202 0.00538356 0.00410889 -0.00774815
N 20.10346326 19.10506689 2.48947875 -0.00144879 0.00651567 -0.00380766
N 24.82273613 0.05951570 19.02759893 -0.00361670 0.00028982 -0.00092036
N 17.87896932 19.42261175 27.01646786 0.00550367 0.00056541 -0.00707721
N 20.13692365 13.10178687 22.63534173 -0.00267465 -0.00038714 -0.00230525
N 22.09852847 19.10585153 30.46401554 -0.00860597 0.00169601 0.00581698
N 17.87907144 12.85470476 30.57400124 0.00280455 0.00654523 0.01066065
N 24.47087193 18.96383653 22.18460079 -0.00314669 -0.00010215 -0.00100622
N 22.22202268 0.07440913 27.21633754 0.00088873 0.00637775 0.00313561
N 20.53499736 19.47532965 18.85169248 0.00048642 -0.00537912 -0.00086707
C 7.58838525 0.49017592 4.62522738 0.00064689 -0.00407738 -0.00317881
C 0.91519838 5.79064315 12.91939181 0.00020451 -0.00220298 0.00451342
C 3.31792296 12.26710007 3.75023485 -0.00115841 0.00393347 0.00907005
C 4.98491022 6.92953864 11.63390220 -0.00044403 -0.00179707 -0.00334491
C 0.97218663 12.37916322 12.02670525 -0.00390969 0.00262448 0.00058692
C 7.43353365 6.60593975 3.57425766 -0.00827767 0.00004221 -0.00359053
C 5.41687444 0.15086401 12.99007703 -0.00253629 0.00275430 -0.00496999
C 2.95723830 6.26603897 4.65778263 0.00417293 0.00333449 -0.00225035
C 7.22824836 1.10384264 5.73566247 -0.00049825 -0.00346721 -0.00488964
C 1.66807932 5.39959411 13.99839953 0.00248796 0.00428469 0.00589163
C 2.95499644 11.70646794 2.52506796 -0.00601687 -0.00164092 -0.00211182
C 5.40839185 7.58769697 10.50837727 0.00350841 -0.00278823 0.00663634
C 1.11928820 11.55114230 10.91856615 -0.00508576 -0.00080625 -0.00774320
C 7.01031348 7.19136598 2.44156981 -0.00769066 0.00189724 -0.00322231
C 5.77221382 0.89285613 14.09716961 -0.00304048 -0.00548842 0.00287523
C 2.68846952 5.48308999 5.78832251 -0.00209735 -0.00375742 0.00164494
C 6.35753415 2.27394751 5.66537977 0.00129444 -0.00650075 -0.00479345
C 2.59537582 4.31176227 13.81985958 0.00517823 -0.00191527 -0.00055203
C 2.02443657 10.69027452 2.45980407 0.00151012 -0.00161471 0.00303090
C 6.34991712 8.60946584 10.54465663 -0.00799584 0.00113708 -0.00642311
C 2.00178902 10.44322268 10.98898228 0.00074501 -0.00207732 0.00458403
C 6.27066114 8.37516350 2.43429903 0.00078250 0.00586727 0.00149723
C 6.53706399 2.08907248 13.96212550 0.00204251 -0.00818482 -0.01054182
C 2.24168548 4.17088705 5.65387240 0.00230955 0.00414947 0.00390690
C 5.91913269 2.69510519 4.35771669 -0.00306993 -0.00072680 -0.00546289
C 2.73058859 3.75273648 12.48721977 -0.00259795 -0.00942918 -0.00343085
C 1.62301732 10.07266679 3.63670636 -0.00415475 0.00243078 0.00611756
C 6.62332472 9.07031876 11.84933846 -0.00625130 -0.00694758 0.00022278
C 2.53397930 10.06370164 12.28415701 -0.00050344 0.00493781 -0.00007317
C 5.99138384 9.00095487 3.71370614 0.00250241 -0.00500071 0.00578816
C 6.75786693 2.66697174 12.67418966 -0.00560829 -0.00292694 0.00897231
C 1.88279017 3.64406033 4.42929164 0.00115764 0.00031013 -0.00995973
C 6.24833970 1.89858803 3.25065879 0.00993872 -0.00229754 0.00520130
C 1.94648343 4.16115777 11.37839493 0.00546610 0.00132320 0.00477761
C 2.01829577 10.62862810 4.87500762 -0.00154751 -0.00096442 -0.00575345
C 6.28338950 8.43740829 13.00067004 0.01106635 -0.00289160 0.00093825
C 2.10991731 10.76892591 13.39305177 -0.00037643 0.00803549 -0.00113410
C 6.37712525 8.35265111 4.88051483 -0.00432979 0.00850100 0.00187521
C 6.46466963 1.84365346 11.58162181 -0.00062540 0.00032449 0.00554690
C 2.22792401 4.43396879 3.25163342 0.00616043 0.00181480 0.00124614
C 7.09899291 0.75091458 3.31337172 0.00143344 0.00043473 0.00832479
C 1.13958704 5.25229725 11.62616668 -0.00833441 0.00151889 -0.00216918
C 2.80561221 11.80175072 4.92679258 -0.00604585 -0.00289525 0.00192626
C 5.54279533 7.25138000 12.89440997 -0.00348361 0.00667267 -0.00037608
C 1.43080829 12.01381766 13.27875969 -0.00891410 0.00277668 -0.00788193
C 7.00047175 7.09171143 4.81913209 0.00562584 0.00180942 0.00223156
C 5.72609362 0.66351018 11.66686457 -0.01147781 0.00413170 0.00388728
C 2.70174450 5.78160851 3.43134769 -0.00201408 0.00167330 -0.00274758
C 6.50831133 0.13897311 1.08384878 -0.00234236 -0.00552836 -0.00756843
C 0.99780923 6.11337917 9.26726055 -0.00317570 -0.00300498 -0.01551343
C 2.57812596 12.34401670 7.29020589 0.00014415 0.00809087 0.00187589
C 5.99542904 6.57875043 15.18861607 -0.00123208 0.00079239 0.00139286
C 1.72177742 12.69806453 15.63650620 -0.00712237 0.00129959 0.00581270
C 6.82382717 6.58062950 7.26696616 0.00460247 -0.00246868 -0.00761246
C 5.83972000 0.19308494 9.33694274 -0.00580437 -0.00329811 -0.01084503
C 2.75439371 6.50800005 1.07017805 -0.00629737 -0.00082491 -0.00769956
C 7.20560127 12.01238924 16.64269650 -0.00157505 0.00404385 0.00081820
C 0.76723827 7.41484758 8.54139177 -0.00127834 0.00158196 0.00148233
C 2.46168231 0.64132141 8.12944504 0.00626293 -0.00566175 0.00321768
C 5.36895946 5.51455127 32.79572719 0.00050458 -0.00303809 0.00404344
C 1.38565433 0.95694693 32.10995502 -0.00296239 0.00439968 0.00231621
C 6.90735623 5.41407888 8.27024167 -0.00847424 0.00170977 -0.00219702
C 5.38890044 12.00381986 8.90196867 0.00454673 -0.00097658 0.00662814
C 3.10736076 7.46593914 16.84027113 0.00083562 0.00053245 0.00239861
C 7.51549230 0.64207106 21.06234746 -0.00784207 0.00039150 -0.00228742
C 0.99539364 6.13523675 29.48240104 -0.00113906 -0.00090502 -0.01424536
C 3.65362936 12.52624586 20.16211540 0.00170128 0.00178723 0.00224908
C 4.94550395 6.94356951 28.28423650 -0.00175451 -0.00045051 -0.00393483
C 0.98352291 12.64144577 28.21946557 -0.00318134 -0.00744521 0.01014471
C 7.75674576 6.84300114 19.71155112 0.00092894 -0.00392752 0.00024973
C 5.13742794 0.30733743 29.30532745 0.00354334 0.00202047 0.00088031
C 3.38363099 6.09001696 21.44610579 0.00231391 -0.00196553 0.00439128
C 7.19775407 1.37605849 22.17527676 -0.00478940 -0.00952075 0.00823126
C 1.47381875 5.57775607 30.65250212 0.00034345 0.00260249 0.00218088
C 3.25971119 11.85447531 19.05595152 0.00229124 -0.00803447 -0.00068727
C 5.39352169 7.43125380 27.08805347 0.00771190 0.00074477 -0.00549046
C 1.46638142 12.02826439 27.05138793 -0.00138823 -0.00568155 -0.00049140
C 7.41208124 7.45074390 18.56599982 0.00298336 -0.00382213 -0.00496539
C 5.30552218 1.04237549 30.46126501 -0.00255200 -0.00190912 0.00401273
C 2.84573652 5.40861876 22.50947278 0.00057494 0.00117072 0.00062161
C 6.27324073 2.48793773 22.01153059 -0.00225669 -0.00016231 0.00355263
C 2.10229650 4.32858760 30.60850006 0.00205340 0.00135588 -0.00117246
C 2.47040256 10.63979853 19.12208604 -0.00444125 -0.00057092 -0.00327852
C 6.41045925 8.42628966 27.12347602 0.00471219 -0.00239188 -0.00235492
C 2.39091176 10.95950927 27.15168667 0.00077317 -0.00100302 0.00106745
C 6.60108359 8.63530268 18.63119756 -0.00345612 -0.00329435 -0.00467457
C 5.96377489 2.28406363 30.38489254 0.00184428 -0.00037852 -0.00018250
C 2.14556808 4.21928571 22.31979593 0.00657856 0.00250893 -0.00146463
C 6.07817512 2.96530595 20.73020928 0.00677151 0.00292017 -0.00242206
C 2.30306763 3.74527358 29.35862674 -0.00181863 -0.00061811 -0.00521539
C 2.32343668 10.14991520 20.43648851 0.00603306 -0.00519451 -0.00533739
C 6.77286467 9.10728722 28.30202903 0.00080319 -0.00174143 0.00169935
C 2.75539248 10.47259042 28.45608713 -0.00229540 -0.00208400 -0.00302204
C 6.30890271 9.18770647 19.89914317 0.00244164 -0.00041142 0.00080694
C 6.27301245 2.76472248 29.12285972 -0.00070859 0.00292294 0.00174832
C 2.00719149 3.72314090 21.03357686 0.00861374 -0.00175686 0.00473373
C 6.57667395 2.28283345 19.63455387 0.00029834 -0.00093327 0.00449616
C 1.89374484 4.38228899 28.20059498 0.00928051 -0.00353040 -0.00233693
C 2.70417967 10.75079604 21.56629658 0.00016829 0.00544396 -0.00200272
C 6.27947465 8.55761001 29.52015838 -0.00264670 0.00716097 0.00287847
C 2.33197729 11.10859978 29.59871521 0.00318601 0.00095334 -0.00130889
C 6.72965823 8.59505569 21.06591412 -0.00328510 0.00252814 0.00342985
C 6.01035916 2.02102888 27.94461018 -0.00173462 0.00384692 -0.00362650
C 2.41855813 4.47579798 19.93770119 0.00365918 0.00139470 -0.00469557
C 7.24053097 1.05895586 19.71446566 0.01296462 0.00445302 0.00017160
C 1.28447471 5.65900005 28.20776977 -0.00096897 0.00609156 -0.00324882
C 3.32992623 12.04500738 21.43408820 -0.00242114 -0.00230613 0.00398653
C 5.52655777 7.41321100 29.51890280 0.00062059 -0.00271319 -0.00398872
C 1.45098361 12.27140256 29.51203832 0.00159103 0.00204933 0.00386603
C 7.32101828 7.27487966 21.00651334 -0.00125874 -0.00065341 -0.00493939
C 5.42758619 0.80507679 28.07369731 -0.00426086 0.00985207 -0.00632231
C 2.99493008 5.72214160 20.12502420 0.00939192 -0.00273953 -0.00155067
C 6.86546010 0.21509091 17.41197861 0.00303068 -0.00111335 -0.00096327
C 1.57821837 6.20684808 25.91418882 -0.00909025 0.00112096 -0.00705958
C 2.98907458 12.80396666 23.67498439 0.00068821 -0.00696287 -0.00045277
C 5.73609674 6.66200520 31.85076638 -0.00064875 -0.00048215 -0.00367505
C 1.60425431 12.82539735 31.89240853 0.00039721 0.00847416 -0.00527023
C 7.02367836 6.60968097 23.32720116 0.00096987 -0.00846277 0.00702055
C 5.72356103 0.11774831 25.83478619 -0.00110916 -0.00494482 -0.00173439
C 2.99412891 6.25342541 17.78705701 0.00499866 0.00265931 0.00014517
C 7.08582363 12.04155575 0.59513039 0.00023920 0.00004131 -0.00481845
C 1.81436240 7.47614598 25.07803981 0.00624676 -0.00449692 0.00056668
C 2.95336451 1.01312151 24.13280589 0.00711228 0.00206564 -0.00127639
C 5.89283040 5.40584400 16.11817862 -0.00295898 0.00304889 0.00516847
C 1.61703208 0.96378598 16.00414641 0.00136839 0.00063026 -0.00042446
C 6.96779536 5.37917195 24.25133955 0.00024417 0.00367439 -0.00190703
C 5.90393067 11.88230605 24.83532370 0.00606623 -0.00308353 0.00683754