1920
Time=35000.00000001 pbc="T T T" Lattice="25.46284074 0.00000000 0.00000000 0.00000000 25.87871764 0.00000000 0.00000000 0.00000000 33.03853479" energy=-12247.22745168 virial="-33.68785469 -3.63299239 9.04340385 -3.63299239 -65.20115181 10.19894562 9.04340385 10.19894562 -65.74701401" stress="0.00069441 -0.00020526 0.00037281 -0.00020526 -0.00076664 0.00050132 0.00037281 0.00050132 -0.00079247" Properties=species:S:1:pos:R:3:vel:R:3
O 5.56866247 2.05396402 7.29148213 0.00352800 -0.00192201 0.00340024
O 2.17968650 3.80744642 15.76954791 -0.00423104 -0.00474713 -0.00247536
O 1.77912338 10.15834719 1.24445445 0.00792719 -0.00119519 0.00853876
O 6.79396307 8.73458221 9.54500887 0.00080341 -0.00299238 0.00234050
O 2.62836139 10.07925420 9.60084099 0.00284642 -0.00173181 -0.00902338
O 5.83595664 9.29260879 1.37766138 -0.00169307 -0.00274221 0.01048993
O 6.91028543 2.90133755 15.47802981 -0.00013985 -0.00213592 0.00760168
O 1.98356225 3.61083306 7.28478103 -0.00271709 0.00107526 -0.00946993
O 6.88003621 1.41803088 17.55594478 -0.00005254 -0.00254186 0.00184538
O 2.25464262 5.25265360 9.46703299 -0.00149667 -0.00673049 0.00066611
O 2.23735724 11.22203609 7.44797279 0.00459768 0.00505880 -0.00154867
O 6.17349552 7.64695704 32.28777556 0.00220017 -0.00063514 -0.00079976
O 2.11420215 11.85650559 32.29922523 0.00048701 0.00109759 0.00950307
O 5.95844670 7.27846200 7.69173292 0.00077088 0.00324270 -0.00003771
O 6.38606111 1.04811536 9.30200199 0.00197976 0.00193566 -0.00112216
O 1.95756611 5.67158891 17.50752995 0.00063356 -0.00338254 -0.00630566
O 6.02023638 2.74185423 23.83852478 -0.00118530 0.00506532 0.00266319
O 2.55428584 4.01326530 31.91158362 -0.00203370 0.00091814 -0.00278769
O 1.67378551 10.52595643 17.66048469 -0.01175958 -0.00543112 -0.00203305
O 7.61439084 9.43728944 26.43477205 -0.00238276 -0.00071118 -0.00299487
O 2.67606856 10.15662722 26.08171269 0.00944168 -0.00313790 -0.00124931
O 5.78484507 8.81008074 17.63914083 -0.00101979 -0.00454545 -0.00162193
O 6.75803963 2.59032839 32.12206659 0.00448560 -0.00030951 0.00223846
O 1.91591585 3.77310019 23.54771343 -0.00471666 -0.00316887 -0.00451789
O 6.12117389 1.08864720 1.08384584 0.00064700 -0.00667096 -0.00270466
O 1.61196699 5.22019224 25.62876525 -0.00300573 -0.00369843 -0.00011854
O 2.46348846 11.66618249 24.03151893 0.00594393 -0.00359721 -0.00089059
O 6.75086004 7.48201597 15.75289134 -0.00654632 -0.00935863 0.00304030
O 2.27486565 11.86264664 15.54173136 0.00315157 -0.00118278 -0.00378675
O 6.78628866 8.37167143 24.04888042 -0.00139364 0.00146935 0.00081678
O 6.59959461 1.29617027 25.88337152 -0.00464695 -0.00272079 0.00265550
O 1.77627654 5.18584710 0.99703707 -0.00045274 -0.00637288 0.00879918
O 5.70600248 15.56777882 6.87508863 0.00422039 -0.00216019 -0.00348424
O 2.39945757 16.90564796 15.36667984 0.00131248 -0.01015312 -0.00063285
O 1.77736362 23.04055787 1.30718380 -0.00035855 0.00292642 -0.00480260
O 7.09162328 22.22451311 9.76101586 0.00162729 0.00028363 -0.00530878
O 2.35849627 22.86702594 9.97494435 0.00483627 -0.00384075 -0.00225345
O 5.67361737 22.16411108 1.50359157 0.00180346 -0.00314979 0.00041195
O 6.78694557 16.14313458 15.01602877 -0.00253380 -0.00117080 0.00322070
O 1.57525547 16.53971279 7.22432474 -0.00514880 0.00423631 0.00560756
O 6.72552241 14.29453022 16.97075732 -0.00537017 -0.00340470 0.00451650
O 2.28225346 18.14514247 9.26235588 0.00107374 -0.00079591 0.00271104
O 1.86155845 24.25728807 7.67519568 0.00375846 0.00067930 0.00203813
O 6.03129205 20.97053332 32.40837836 0.00377242 -0.00044883 0.00099529
O 1.50296003 24.68737013 32.31078313 -0.00296449 0.00259643 -0.00031093
O 6.44368156 20.62412282 7.58270691 -0.00077183 0.00392945 0.00068102
O 6.15801928 14.12144660 8.91349721 -0.00063773 0.00203074 0.00514732
O 1.64455592 18.00361440 17.48415313 -0.00056963 0.00178212 -0.00101843
O 5.80160926 15.19238874 23.39600413 -0.00391694 0.00236772 0.00088689
O 2.87967701 16.45639885 31.87060436 0.00327938 0.00020151 0.00102647
O 1.63164397 22.95292451 18.07149192 0.00044408 0.00136229 -0.00259133
O 6.91402047 22.33569235 26.26205903 0.00207184 0.00375418 -0.00801541
O 2.61865629 23.18618590 26.16793135 -0.00503484 0.00031178 -0.00264905
O 5.62234109 22.10385852 18.24139204 0.00243670 -0.00013441 -0.00274099
O 6.98158371 16.12270116 31.67988712 -0.00354363 -0.00071817 -0.00328226
O 1.56409796 16.86416732 23.84955700 0.00157712 -0.00008571 0.00120917
O 7.11022588 14.61379714 0.67394805 0.00030104 0.00675981 -0.00166541
O 1.65418886 18.43043444 26.05904893 0.00641245 -0.00524677 -0.00543515
O 1.84379270 24.69087862 24.18249890 -0.00081840 -0.00252074 0.00153096
O 5.94467868 21.06072716 16.02106899 -0.00045834 -0.00095477 0.00072695
O 2.15518616 24.51174070 16.16572091 0.00210913 -0.00295239 0.00267939
O 6.55691265 20.63562809 24.36566857 -0.00372566 0.00039178 0.00008073
O 6.64084689 13.97493467 25.67648821 -0.00618623 -0.00136282 0.00622359
O 2.61678594 17.75661472 1.06792032 -0.00155803 -0.00401603 -0.00328043
O 14.14180137 2.36861664 7.12173195 -0.00231178 0.00134854 0.00122045
O 11.34541349 3.61290858 15.31850802 0.00303169 -0.00181441 -0.00269504
O 9.90863970 10.25336157 0.84349159 -0.00001154 -0.00192445 0.00120061
O 15.26383664 9.34042016 9.35217755 0.00515093 0.00519279 -0.00008147
O 11.04033845 10.07961083 9.20094251 0.00144678 -0.00021600 -0.00328331
O 14.09018822 9.15767179 1.11988580 -0.00213063 0.00400938 0.00316404
O 15.66747735 2.35417779 15.34945805 -0.00219677 0.00454754 -0.00029115
O 10.03356350 3.78540100 6.97979450 -0.00121964 -0.00667058 -0.00271527
O 15.12915571 1.17466446 17.45233492 -0.00282659 0.00015399 0.00049025
O 10.74133610 5.04189995 9.17544714 0.00818798 -0.00744640 -0.00376977
O 10.47663566 11.40399152 6.87817711 -0.00541288 -0.00189347 0.00567390
O 14.59771285 7.65729369 32.06716720 0.00466800 0.00283328 -0.00302947
O 10.73748462 12.14584457 31.98329593 0.00302694 0.00577429 -0.00897323
O 15.12031361 7.54337264 7.30288748 -0.00134947 -0.00168829 -0.00230469
O 14.97252177 0.99483525 9.30827756 -0.00523090 0.00529957 0.00571252
O 10.81580496 5.37577455 17.15336980 0.00297164 0.00021734 -0.00221092
O 13.94651018 2.93503842 23.40519743 -0.00025026 -0.00557499 -0.00914738
O 10.69970350 3.63208784 31.68729830 -0.00567394 -0.00007796 0.00132966
O 10.01030032 10.28455179 17.37031400 0.00164666 0.00648036 -0.00112119
O 15.17809635 9.39452758 25.89428552 -0.00200100 0.00745727 0.00362054
O 10.63006912 10.24317772 25.85092325 -0.00709034 -0.00125526 0.00355446
O 14.35831249 9.13750031 17.51109773 0.00118085 -0.00133987 0.00406480
O 15.52917470 2.55904810 31.56814500 0.00247679 0.00115448 -0.00170610
O 10.02578775 4.29902339 23.51985446 -0.00511964 -0.00291801 0.00169399
O 15.25100885 1.29456568 0.84643590 0.00098447 -0.00530833 0.00571298
O 10.75632214 5.38425631 25.77957207 0.00269111 0.00330468 -0.00008809
O 11.30707070 11.51062719 23.64778826 0.00443866 -0.00039031 -0.00298178
O 14.68585308 7.55438773 15.48382286 0.00075983 0.00512117 0.00821628
O 10.72991104 11.97001286 15.23563369 -0.00367951 0.00019447 0.00024060
O 14.55972244 8.01508636 23.81874738 -0.00150136 -0.00240789 -0.00198993
O 14.22264463 1.50623624 25.38942557 -0.00094128 0.00019000 -0.00405012
O 10.55617682 5.13585240 0.67413764 0.00173477 -0.00389539 0.00041951
O 14.44783855 15.33549618 6.85892017 0.00410143 -0.00422404 0.00748625
O 11.14959838 16.69436960 15.21204792 -0.00941584 -0.00409878 -0.00029899
O 10.16734415 22.89141778 1.42768502 0.00104246 -0.00006747 0.00178217
O 15.63055095 21.73129213 9.54038133 0.00207899 -0.00952461 -0.00178521
O 11.39022071 23.16439579 9.73286620 0.00335289 0.00263325 -0.00031463
O 14.45972214 21.99995256 1.49205604 0.00323514 -0.00037750 0.00833922
O 15.05076649 15.82232164 15.00144340 -0.00243370 -0.00031427 -0.00634350
O 10.61345364 16.47293725 6.86586640 0.00359421 -0.00222459 0.00352523
O 15.01239751 14.33488941 17.14171223 0.00101930 0.00255558 0.00248166
O 10.37306672 18.13229413 8.94613955 0.00069730 0.00245294 -0.00023595
O 10.44303652 24.55290927 7.54509289 0.00261474 0.00664346 -0.00321778
O 15.00259806 20.92021907 32.15777013 -0.00276398 -0.00044869 0.00254552
O 10.77755794 24.37121252 32.33352785 0.00339313 0.00415014 -0.00154473
O 14.77434635 20.29856409 7.58397454 -0.00319783 -0.00112087 0.01082677
O 15.38527583 13.96551686 8.98325218 0.00724438 0.00350118 -0.00304709
O 10.74925052 17.92709197 17.44105929 -0.00353951 -0.00111807 -0.00779776
O 15.01946257 15.67513757 23.31873298 -0.00088720 0.00066587 0.00235297
O 11.57281915 17.40657106 31.59783416 0.00395825 0.00117892 0.00156996
O 9.88442296 23.20505985 17.85960323 0.00387528 -0.00165860 0.00299063
O 15.15279902 22.31895848 26.12328378 0.00103982 -0.00014828 -0.00832694
O 10.79418623 23.38095183 26.15042939 -0.00565149 -0.00496926 -0.00618085
O 14.44082336 22.08176607 17.68331040 -0.00030328 -0.00096707 -0.00082471
O 14.95253232 15.71173093 32.03481733 0.00174023 0.00068302 -0.00261680
O 9.98298267 16.52430892 23.56390478 -0.00286974 -0.00041773 -0.00332263
O 14.61740802 14.01475667 0.77783737 -0.00573000 -0.00556996 -0.00646934
O 10.50837839 18.15753201 25.42570204 -0.00175791 -0.00111926 0.00100546
O 10.68063519 24.78384806 23.98259548 0.00458785 0.00304176 -0.00434784
O 15.24713122 20.45329911 15.90012096 0.00693939 0.00262938 -0.00044244
O 10.76834591 24.62187321 15.92431738 -0.00116444 0.00318628 -0.00811324
O 15.11755097 20.77862541 24.05699490 -0.00274322 -0.00434912 0.00459601
O 14.90527536 14.51115910 25.71390024 0.00428257 -0.00662289 -0.00192283
O 10.81205560 18.09538804 0.83108784 0.00454982 -0.00756133 -0.00358664
O 23.10827135 2.76099905 7.01061062 -0.00078312 0.00092510 -0.00061538
O 19.26732728 3.69051447 15.26316991 0.00719711 -0.00287684 -0.00341987
O 19.16254149 9.95216746 1.06355304 0.00234341 -0.00179692 -0.00498707
O 23.72667018 9.32562998 9.48561957 -0.00505630 0.00061369 -0.00150863
O 19.48852648 10.31109831 9.08347610 -0.00786610 -0.00288649 0.00075760
O 23.12977485 8.84051808 1.10278719 -0.00656771 -0.00738196 0.00074385
O 23.84069177 3.08933785 15.32068580 0.00456928 -0.00093095 0.00817940
O 18.39595998 3.54452094 6.93620371 -0.00335497 0.00570959 0.00097279
O 23.51428426 1.24532164 17.33996572 -0.00084800 0.00548857 0.00301690
O 19.15180807 5.17810326 8.94835824 -0.00312543 0.00461397 0.00297700
O 19.51659260 11.99876565 7.16658046 0.00172909 0.00550155 -0.00125139
O 23.33328368 7.52524694 31.94321862 0.00019689 -0.00674334 0.00311206
O 19.35845484 11.29459109 31.87104774 -0.00217416 0.00342478 0.00232029
O 23.53999703 7.85452948 7.44120120 -0.00244879 0.00394555 -0.00044177
O 23.08138390 1.22371686 9.29140883 -0.00082954 -0.00385718 -0.00360972
O 19.45761922 5.11376812 17.36318874 -0.00318952 -0.00015905 -0.00301044
O 22.32464934 2.58967507 23.25361308 -0.00292994 0.00468902 -0.00505517
O 19.40576678 3.74509345 31.78159790 0.00339431 0.00041679 0.00530953
O 18.52507301 10.45082508 17.57838291 0.00394772 0.00134609 0.00706261
O 23.68031525 9.36132634 26.01653031 0.00239313 -0.00045769 0.00285177
O 19.35628303 10.14778864 25.57924561 -0.00456450 -0.00432662 0.00301019
O 22.56427863 9.60693326 18.02215659 -0.00138942 -0.00361135 0.00469906
O 23.58645926 2.35143632 31.53022632 0.00535935 -0.00274858 -0.00485030
O 18.00224964 3.84980846 23.54483336 0.00700464 -0.00145499 0.00026628
O 23.09857605 0.99774015 0.95032311 0.00333800 0.00366080 0.00174795
O 18.59560937 5.36201876 25.43099539 0.00602263 0.00689314 0.00165022
O 18.61165008 11.73314590 23.80059827 0.00095244 0.00261061 0.00215667
O 22.93247289 8.19019925 15.80308668 0.00056402 -0.00256012 -0.00449132
O 19.19943489 11.56309859 15.36079774 -0.00499501 0.00211427 -0.00203763
O 23.62207638 7.70085922 24.02880614 0.00466595 -0.00250838 -0.00311898
O 23.06513091 1.38122720 25.27305682 0.00382271 -0.00110319 -0.00369186
O 19.00273001 5.14891106 0.80916330 0.00087337 0.00289352 -0.00342279
O 23.12687766 15.99386350 6.62201151 0.00540212 0.00337741 0.00377766
O 19.49868237 16.40088492 15.43210360 0.00391574 -0.00525812 0.00599038
O 18.55663742 23.26576032 1.15022454 0.00069243 0.00302214 0.00132194
O 23.76755930 22.39561524 9.60969133 -0.00449975 0.00522783 -0.00474667
O 19.49939430 22.78316992 9.64328806 -0.00036615 0.00711371 -0.00137399
O 22.75834096 21.82142340 1.13698465 -0.00394640 -0.00363977 -0.00265866
O 23.94085607 15.86965505 14.88630922 -0.00167959 -0.00230007 -0.00007036
O 18.62020768 16.80609318 7.05916953 -0.00076854 -0.00052351 0.00740610
O 23.99035727 14.48154995 17.07864820 0.00071671 -0.00104085 0.00003766
O 19.38934924 18.07922789 9.25034500 0.00323228 0.00202672 -0.00035787
O 19.13234794 24.22209332 7.42236831 0.00114626 -0.00014113 -0.00091941
O 23.35908832 20.38594511 32.09394811 -0.00192379 -0.00098817 -0.00494187
O 18.67432584 24.55714803 32.08568068 0.00185059 -0.00298041 -0.00155934
O 23.73552526 20.88803809 7.40844519 0.00262967 -0.00560365 0.00318682
O 23.60806049 14.34292747 8.71837247 -0.00725160 0.00542551 0.00274335
O 19.13660565 17.99228934 17.38126038 0.00529724 0.00002147 0.00190239
O 22.92248246 15.89294083 23.61264447 0.00498421 -0.00717806 -0.00403811
O 19.68137275 16.26699785 31.33203886 0.00351845 0.00598795 -0.00302255
O 18.78846553 22.96861839 17.77939570 0.00028171 0.00151434 -0.00418414
O 23.53967731 22.86202265 26.38873870 0.00085065 0.00386171 -0.00168275
O 19.46024487 23.62357135 25.71016583 0.00241265 0.00158424 -0.00007591
O 23.01826634 22.06569001 17.75101149 -0.00022281 0.00489220 -0.00401259
O 24.01750795 15.53940599 31.36073875 0.00275480 0.00259721 0.00346607
O 18.58418711 16.69834723 23.51932517 0.00380196 -0.00311796 -0.00505266
O 23.92277263 14.11688497 0.48861743 -0.00240119 -0.00302016 -0.00047784
O 19.00701196 18.30434308 25.38833873 -0.00237332 -0.00070963 0.00579456
O 18.61192924 24.91825929 23.80957238 -0.00140239 -0.00464921 -0.00043650
O 22.99955776 20.44027347 15.75685099 -0.00052407 -0.00230293 0.00233495
O 19.51160066 24.59747225 15.94609031 0.00136283 0.00255582 0.00130468
O 23.37511017 21.05701476 24.27742216 -0.00455041 0.00106869 -0.00143239
O 23.17011419 13.97128265 25.34630763 0.00860052 -0.00016891 -0.00208223
O 19.61616869 17.78239396 0.53555791 0.00169840 -0.00182513 -0.00129850
N 7.69173846 13.21297511 2.38452899 -0.00421144 0.00334397 0.00213244
N 0.72040627 6.14656416 10.91587125 0.00202037 0.00211450 0.00025953
N 3.06092383 25.51515063 6.09965891 0.00191917 0.00081468 0.00172866
N 5.40923625 6.32935006 14.39239732 0.00516705 0.00159763 -0.00608677
N 1.04081049 25.76160704 14.53733109 -0.00069313 -0.00490073 0.00111258
N 7.32141640 6.31769552 6.03422511 -0.00181358 -0.00483092 -0.00368089
N 5.37994510 12.91534093 10.69518069 0.00240075 -0.00177359 0.00319017
N 3.08903905 6.19204160 2.53983101 -0.00442162 -0.00370042 0.00027084
N 7.57939398 13.14546942 18.69376141 0.00608512 -0.00003413 0.00141223
N 0.51622053 6.30297734 27.25756784 -0.00103824 0.00101302 -0.00193546
N 3.09908454 25.66205849 22.61315404 0.00355768 0.00208957 0.00411763
N 4.98082831 6.75650825 30.49313492 0.00073902 -0.00130332 0.00355079
N 0.85844703 0.12063782 30.60235697 0.00410645 0.00546903 0.00011651
N 7.41735665 6.76649480 22.43965213 0.00127724 -0.00582030 0.00185180
N 5.22434182 13.12503455 27.33791399 0.00427943 0.00170294 -0.00268655
N 3.46333404 6.57079427 18.99538026 -0.00081240 -0.00060931 0.00012702
N 7.55197314 0.20249258 2.63348367 -0.00138486 0.00145217 -0.00270236
N 0.90823465 19.35196936 10.62590754 0.00621651 -0.00193021 0.00168661
N 3.18020294 12.70862416 6.03524519 0.00458191 0.00404783 -0.00179945
N 5.55248181 19.63324826 14.30902438 -0.00104792 -0.00836131 -0.00632453
N 1.15548619 13.03280764 13.95685365 -0.00068214 -0.00380273 -0.00434791
N 7.79065563 19.69874725 5.87419135 0.00002037 0.00292968 -0.00205642
N 5.03425978 0.32817759 10.95384889 0.00631200 -0.00340364 -0.00094900
N 3.26054916 19.11574139 2.73045012 -0.00627034 -0.00073441 -0.00002842
N 7.30180096 25.77201483 19.28286851 0.00520446 0.00365459 -0.00056895
N 0.84244252 19.50989752 27.92239079 0.00309176 0.00116160 -0.00346449
N 3.65050279 12.76697194 22.38813074 0.00698074 -0.00466644 -0.00307404
N 5.37919461 19.55731782 30.80449245 -0.00074754 0.00042642 -0.00502433
N 1.16249944 13.06180466 30.57546081 0.00113623 0.00016725 0.00037009
N 7.46341674 19.42816608 22.68947409 0.00370673 -0.00235390 -0.00048497
N 5.25862091 0.13160004 27.41645351 -0.00374692 0.00040740 0.00365031
N 3.02511787 19.10077064 18.92916736 0.00405875 -0.00016937 0.00097247
N 16.06315090 12.95034901 2.13303684 0.00436595 -0.00181899 0.00211405
N 9.64583679 6.23753230 10.76294158 0.00395591 0.00175642 -0.00307870
N 11.68560761 25.73929316 5.98347176 0.00168575 -0.00281123 0.00541052
N 14.05696173 6.23460090 13.73135413 -0.00136260 0.00542975 -0.00111878
N 9.39108324 25.52808239 14.29396309 -0.00291312 0.00478054 -0.00245658
N 16.07332130 6.36185276 5.55384571 0.00188540 0.00423332 -0.00054025
N 13.77482720 13.08787604 10.31580583 -0.00329021 -0.00372632 -0.00121842
N 11.86971675 6.04550090 2.26349875 0.00275676 0.00819330 0.00306836
N 15.90767070 12.84916755 18.69726793 0.00017948 0.00101127 0.00355661
N 9.36445243 6.52817812 27.17734484 -0.00465232 0.00406853 -0.00022405
N 10.98083640 0.33619092 22.24878913 -0.00307756 0.00467570 -0.00264208
N 13.46650248 6.60144708 30.37530672 -0.00342519 -0.00014463 -0.00421423
N 9.28108780 25.43884677 31.05011950 0.00270361 -0.00150296 -0.00068893
N 16.08477346 7.06817911 22.47634684 -0.00602274 -0.00105702 0.00772537
N 13.75454306 13.22007002 27.28118594 -0.00260195 -0.00254909 -0.00408781
N 11.95615794 6.47336663 18.78082127 -0.00041103 -0.00039548 0.00747957
N 15.95722250 25.75823529 2.51223527 0.00168461 -0.00629279 0.00650936
N 9.73789583 19.51303434 10.68262272 0.00146864 -0.00013399 0.00342714
N 11.92147283 12.53650793 5.45335538 -0.00639451 0.00409196 0.00359567
N 13.69140141 19.92404417 14.41523320 0.00758735 -0.00094690 0.00709101
N 9.32027174 12.76349039 13.63048161 0.00555810 0.00250802 -0.00672148
N 16.19780670 19.32833045 6.05380496 0.00218958 -0.00090619 -0.00005260
N 13.71933945 25.76518908 10.87115011 0.00114841 0.00461093 -0.00172407
N 11.60622217 19.56121243 2.35566586 0.00610260 -0.00242316 -0.00389963
N 15.63977081 25.73617864 19.12111773 -0.00372161 0.01231021 -0.00024976
N 9.51372150 19.45707625 27.02679475 0.00333887 -0.00206764 0.00472301
N 11.95158601 12.75344596 21.92304896 -0.00463117 0.00734343 -0.00048349
N 13.77104520 19.66967356 30.66395344 -0.00347380 0.00141094 0.00810441
N 9.41624908 13.17584578 30.40742616 -0.00585896 -0.00480850 0.00175410
N 15.99618793 19.55826773 22.32056759 -0.00032504 0.00176933 -0.00082667
N 13.17644447 0.30816565 27.07465152 -0.00732241 -0.00517863 -0.00431879
N 11.67591088 19.24523968 19.11247485 -0.00664491 0.00287025 -0.00571596
N 24.58329823 12.76082875 2.28507668 0.00573914 -0.00038858 -0.00102862
N 18.16863314 6.44485804 10.51277226 0.00072419 0.00081784 0.00125592
N 20.30954895 25.42157662 5.88772034 0.00006073 0.00893636 0.00354476
N 21.87702906 7.00040935 14.13874299 0.00673437 -0.00239474 0.00208373
N 18.21644313 25.64005899 14.30558280 -0.00444189 0.00079091 0.00285518
N 24.90843308 6.79971279 5.93593530 -0.00231403 0.00756846 0.00054022
N 22.56338742 13.02060820 10.34480609 -0.00820070 -0.00091489 -0.00757977
N 20.28894739 6.15698127 2.43662168 -0.00302928 0.00204403 0.00364299
N 24.87185063 13.46081102 18.91555076 -0.00063305 0.00393186 -0.00059766
N 17.37189201 6.22101132 27.21454450 -0.00376250 -0.00307978 0.00261526
N 19.95227402 0.06330778 22.21347295 -0.00665745 0.00483569 0.00591295
N 22.01322224 6.50592991 30.40138244 -0.00099963 -0.00121051 0.00508213
N 17.71690724 0.04352500 30.45408614 -0.00513640 -0.00232816 0.00016757
N 24.19399735 6.32207561 22.22992223 0.00177819 0.00051156 -0.00004279
N 21.90826045 12.91089853 26.94955678 0.00436007 -0.00108011 0.00132354
N 20.16735047 6.43952976 19.14684737 0.00105350 -0.00504846 -0.00309671
N 24.27575755 25.66361282 2.46581626 0.00448574 0.00294475 0.00118250
N 18.21381664 19.24632008 10.87215470 -0.00058974 0.00119455 -0.00395334
N 20.25656450 13.34786832 5.40782027 -0.00082277 -0.00162221 0.00634674
N 22.24726038 19.24024733 13.94741657 -0.01016233 0.00765763 0.00196194
N 18.04998727 12.71159946 13.83893807 0.00437763 0.00673199 -0.00400112
N 24.77711814 19.63974623 5.81972943 0.00760226 0.00581566 0.00755062
N 22.02566843 0.10823171 11.01509461 0.00432612 0.00346540 -0.00320043
N 20.38440221 19.06583166 2.32490680 -0.00249726 -0.00321344 -0.00260855
N 24.48193524 0.04002918 19.00123298 -0.00035830 -0.00448832 -0.00341666
N 17.90578793 19.33745524 27.07490764 -0.00037649 0.00547419 -0.00229716
N 19.91024752 12.87126923 22.29432184 -0.00247927 -0.00880045 0.00071586
N 21.97593994 19.51227540 30.49716970 0.00577966 -0.00165403 -0.00513528
N 17.94146036 12.46810805 30.45277062 -0.00344400 0.00492350 -0.00069793
N 24.45251186 19.81065971 22.63608887 -0.00415483 0.00259150 -0.00025060
N 21.97064962 0.05660806 26.76828229 -0.00355389 0.00319563 0.00120429
N 20.42011938 19.15498611 18.94456995 0.00845526 0.00109221 0.00376194
C 7.66729786 0.34592156 4.99125431 -0.00076228 -0.00082325 0.00320564
C 0.79970948 6.13675563 13.37367852 0.00156259 0.00503679 0.00338177
C 3.44526136 12.46528653 3.53935599 -0.00648649 0.00338683 -0.00078275
C 5.44871510 6.37754177 12.02533795 0.00742022 -0.00577733 0.00146659
C 1.01993906 12.64131491 11.63803445 0.00044045 0.00263585 -0.00222190
C 7.42571011 6.76068239 3.63281028 0.00308002 0.00723488 0.00720700
C 5.23424922 0.50633716 13.29656326 -0.00288862 -0.00227002 -0.00108892
C 3.33449390 5.99913446 4.86573151 -0.00571492 -0.00738817 0.00616306
C 7.09800095 0.73517980 6.13151130 0.00624117 -0.00362649 0.00378211
C 1.12304648 5.50595281 14.55130645 -0.00024447 -0.01311252 0.00277826
C 3.09445002 11.80774298 2.35835903 -0.00564533 -0.00496371 -0.00462509
C 5.59273098 7.01563209 10.79067786 -0.00436277 -0.00198942 0.00793416
C 1.35863648 11.89002151 10.50339317 0.00171043 0.00117173 0.00488847
C 7.13819459 7.50304331 2.45612491 0.00340354 -0.00869109 -0.00136219
C 5.65390804 1.16388716 14.46617069 0.00173175 0.00134527 0.00183015
C 3.12065189 5.32819984 6.09279415 -0.00087069 0.00087504 -0.00352146
C 6.18735989 1.83927501 6.20653674 0.00848169 0.00402294 0.00366012
C 1.90936211 4.37917821 14.53946320 0.00345696 -0.00234167 -0.01213563
C 2.21515569 10.69649673 2.41175697 -0.00098645 -0.00265439 -0.00310701
C 6.31491668 8.23199142 10.71914649 0.01060754 0.00380852 -0.00968860
C 2.06885385 10.67122055 10.64294576 0.00746140 -0.00348165 -0.00220678
C 6.35259375 8.74828147 2.51540238 0.00067710 -0.00056443 0.00018286
C 6.54825964 2.23308723 14.38500905 -0.00591507 -0.00304916 0.00116053
C 2.33817316 4.17644083 6.11323575 0.00279492 -0.00039305 -0.00180467
C 5.95466496 2.57717104 5.01802576 -0.00664092 -0.00391120 -0.00829150
C 2.24240791 3.73678842 13.29256278 0.00376620 0.00695981 0.00313256
C 1.90806054 10.11486719 3.68289267 -0.00070009 -0.00265139 0.00035222
C 6.63997161 8.85921977 11.96307669 0.00497007 0.00018953 -0.00178509
C 2.34847263 10.18073940 11.92681199 -0.00709545 0.00625584 -0.00087895
C 6.13770857 9.23197798 3.77357537 0.00142588 -0.00156845 0.00281366
C 6.96557405 2.62864341 13.09603060 0.00030493 -0.00445627 -0.00549632
C 1.98687175 3.57828404 4.88503770 -0.00637760 0.01051371 -0.00471507
C 6.32904391 2.03052521 3.81043262 -0.00924738 0.00018984 0.00613082
C 1.85331024 4.33013155 12.10878413 -0.00863007 0.00431837 0.00171838
C 2.34138592 10.73768153 4.82894184 -0.00461561 0.00120928 -0.00346004
C 6.29608931 8.26720458 13.17292458 -0.00813765 0.00749504 0.00324140
C 1.99609479 10.88647261 13.07999118 0.00157043 0.00904516 0.00257154
C 6.42630865 8.45489217 4.92598681 -0.00230273 0.00488397 0.00009633
C 6.43760766 2.06116487 11.96814234 0.00677008 -0.00036419 -0.00409150
C 2.24410832 4.16862934 3.66910849 0.01100853 -0.00824305 0.00462872
C 7.14477175 0.83747179 3.77340572 -0.00262790 -0.00155334 0.00536292
C 1.13578566 5.59015198 12.13862654 0.00068190 0.00260406 0.00157987
C 3.06485805 12.02114664 4.81413449 0.00011725 -0.00178772 -0.00263842
C 5.78363398 6.98280493 13.24965917 0.00451592 0.00703663 -0.00253242
C 1.40491392 12.21177914 12.88454166 0.00054360 -0.00095868 0.00796478
C 7.06267198 7.18236720 4.90312603 -0.00287126 0.00054599 -0.00315460
C 5.60310003 0.92002878 12.01438212 -0.00069383 -0.00641611 0.00085099
C 2.92407111 5.45821263 3.68011274 0.00420378 0.00392756 -0.00509674
C 6.85206870 0.17040351 1.44775949 0.00417057 0.00300240 -0.00809262
C 1.44376295 6.13849687 9.73920344 -0.00316944 0.00627633 -0.00199689
C 2.73251198 12.32898393 7.21819135 0.00866993 -0.00624438 0.00441325
C 5.99081119 6.48025662 15.60069321 0.00361619 0.00080348 0.00311985
C 1.68707973 12.88076582 15.20844166 0.00105216 0.00396330 -0.01052269
C 6.70931995 6.35056326 7.30281987 0.00041761 0.00077401 -0.00371060
C 5.61265082 0.21032580 9.73097731 -0.00588867 0.00402301 -0.00626524
C 2.47403780 6.13634362 1.27766342 -0.00336122 -0.00312742 -0.00034858
C 7.04687938 11.94188766 16.71013775 -0.00637694 -0.00163244 -0.00263469
C 1.46578187 7.36268491 8.80756169 0.00488881 -0.00022186 -0.00387388
C 2.56107062 0.63440198 8.21640615 0.00219774 -0.00645155 0.00332149
C 5.75718850 5.38154600 32.44505114 -0.00543338 0.00361822 -0.00366270
C 1.08656025 1.03233967 32.92950000 -0.00437881 -0.00121397 -0.00233684
C 6.97016147 5.07006365 8.09552829 -0.01177231 -0.00339607 0.00453002
C 5.76881386 11.74508115 8.58948464 0.00149316 0.01438081 0.00721662
C 3.01866857 7.60595691 16.91228615 -0.00151624 0.00685369 -0.00109096
C 7.36861679 0.15048326 21.66174073 0.00469285 0.00083581 0.00369171
C 0.85299036 6.14594035 29.58819646 0.00509457 0.00052349 0.00139850
C 3.36360244 12.78293949 19.93436084 -0.00069225 -0.00029093 -0.00543936
C 4.99645523 7.37898454 28.10877125 -0.00310798 0.00039420 -0.00022830
C 1.09081139 12.70971140 28.19932858 0.00273833 -0.00076218 -0.00102187
C 7.65067589 6.87597087 20.04232482 0.01057864 0.00257338 -0.00337519
C 5.05395610 0.40883233 29.79074468 0.00146307 0.00820449 -0.00750029
C 3.35836216 6.38561039 21.38154454 -0.00418257 -0.00236299 0.00297793
C 7.08085813 0.91434278 22.77337040 -0.00181243 -0.00739897 0.00031235
C 1.22749208 5.61130541 30.78409434 -0.00141892 -0.00026460 0.00585727
C 3.07993195 12.08938146 18.79647514 0.00568941 -0.00432348 -0.00740743
C 5.62919096 8.13951408 27.21735432 0.00320024 -0.00134935 0.00596448
C 1.52692762 11.94438980 27.12874667 -0.00453552 -0.00064450 0.00328475
C 7.38599692 7.53036488 18.84190842 0.00026181 0.00400911 0.00581700
C 5.48686659 1.00228528 30.93631913 0.00569823 0.00284781 0.00305905
C 3.06751067 5.70577676 22.50403177 -0.00201989 -0.00349414 -0.00097454
C 6.39736119 2.13886631 22.71728514 0.00719309 -0.00102624 -0.00781929
C 1.98827397 4.47579158 30.77923882 -0.00467939 0.00058040 0.00018603
C 2.22630835 10.95174517 18.75016901 -0.00264346 -0.00571850 -0.00193892
C 6.76841776 8.94951198 27.43708669 0.00318689 -0.00386804 -0.00192845
C 2.17277733 10.69423663 27.19871243 0.00875358 -0.00676021 -0.00144422
C 6.42409873 8.57083608 18.73160302 0.00464295 -0.00459559 0.00533539
C 6.22250935 2.20781789 30.97198061 -0.00546264 -0.01125706 0.00283415
C 2.32286530 4.47721587 22.43759555 0.00832044 -0.00328219 -0.00605086
C 6.11001567 2.68546979 21.46679289 -0.00196366 -0.00400347 0.00814903
C 2.30092658 3.82744909 29.55931064 0.00595767 0.00220434 -0.00314393
C 2.02379726 10.36392612 20.02408144 0.00431324 -0.00431262 -0.00175980
C 6.88112673 9.37350494 28.76217435 0.00247342 0.00715297 -0.00160946
C 2.27803811 10.18365335 28.47834517 0.00376310 0.00077123 -0.00345600
C 6.19009035 9.30504313 19.93422686 -0.00431516 0.00185216 0.00849272
C 6.41393717 2.78311800 29.70226783 0.00304995 0.00164956 0.00003876
C 2.03286752 3.89434094 21.14009213 0.00254259 -0.00314810 -0.00154617
C 6.58995423 1.99505864 20.33535072 0.00091184 -0.00194212 0.00195060
C 1.84024866 4.32041144 28.31203970 -0.00034573 0.00313111 0.00693229
C 2.43116199 10.94456921 21.18258700 0.00505866 0.00400068 -0.00378808
C 6.16502791 8.74231720 29.76158400 -0.00413732 -0.00570435 -0.00366087
C 1.95484111 10.90829420 29.60291421 -0.00069554 -0.00059136 -0.00610168
C 6.54410223 8.68483714 21.19614900 -0.00107025 -0.00386982 -0.00232289
C 6.07781434 2.14467738 28.51204489 -0.00809103 0.00351632 -0.00592918
C 2.42824058 4.51734985 20.00882657 0.00134071 0.00108641 -0.00745477
C 7.11805698 0.66687237 20.44406384 0.00104910 0.00117565 0.00065571
C 1.06645066 5.53171177 28.35190299 -0.00173461 0.00382577 -0.00569178
C 3.11068478 12.17672475 21.18661405 -0.00098455 -0.00215723 0.00039800
C 5.42300975 7.56587212 29.47512924 0.00613430 0.00517437 -0.00657866
C 1.39182191 12.19806113 29.52471104 0.00150027 0.00193496 -0.00665484
C 7.23489826 7.43331823 21.28832130 -0.00046281 -0.00215160 0.00216907
C 5.42259981 0.90162482 28.53349334 0.00885821 0.00900688 -0.00232235
C 3.10779826 5.81918847 20.09009604 -0.00279205 0.00087797 -0.00048662
C 7.03932257 0.26190931 17.98613394 0.00057243 0.00028801 -0.00641725
C 1.06003331 6.24176552 26.03311283 -0.00916809 -0.00241715 0.00013424
C 2.96657839 12.72849536 23.55635422 -0.00337974 0.00606686 0.00006037
C 5.65753624 6.70770115 31.70779212 -0.00621259 -0.00045352 -0.00230602
C 1.63438420 12.92791513 31.90665546 -0.00325355 -0.00166354 -0.00235572
C 7.03181835 7.17534681 23.70483363 -0.00337705 -0.00154011 -0.00564001
C 5.88724336 0.36483877 26.18042301 -0.00302280 -0.00514788 -0.00185070
C 2.77287927 6.53425593 17.80235534 -0.00238775 0.00424282 -0.00515887
C 7.22021419 12.25509682 0.17880281 0.00550653 0.00858322 0.00535438
C 0.98605157 7.49341148 25.10903882 0.00189220 -0.00371018 -0.00769374
C 2.84485747 1.02617333 24.67587032 0.00617025 0.00560767 0.00156125
C 5.73856358 5.38225509 16.61002444 -0.00082630 -0.00298162 -0.00027362
C 1.50111146 0.83915608 16.83416562 -0.00103834 0.00441566 -0.00549109
C 6.87119697 6.08477282 24.70730609 0.00101050 -0.00643720 0.00230688
C 5.66051167 11.85128154 25.34759781 0.00456919 0.00756556 -0.00227762