1920
Time=36000.00000001 pbc="T T T" Lattice="25.50620772 0.00000000 0.00000000 0.00000000 25.48258774 0.00000000 0.00000000 0.00000000 32.99172772" energy=-12248.22450995 virial="-20.64119164 2.68140346 15.78836924 2.68140346 -18.46882995 -6.49577388 15.78836924 -6.49577388 -34.39522812" stress="0.00143918 0.00005533 0.00070032 0.00005533 0.00149918 -0.00037368 0.00070032 -0.00037368 0.00081072" Properties=species:S:1:pos:R:3:vel:R:3
O 6.01104309 2.87661930 7.18697198 -0.00550609 -0.00613187 -0.00644348
O 2.78910828 4.00716033 15.05860914 0.00220817 -0.00016902 0.00550459
O 1.50409465 10.22920490 1.05253459 -0.00232120 0.00130570 -0.00492534
O 6.74628657 9.48560668 9.57718355 -0.00202808 -0.00268137 0.00364732
O 2.77930437 10.15300595 9.52661421 -0.00576135 0.00269977 -0.00420767
O 6.03621033 9.35691678 1.20576673 -0.00318530 0.00302846 -0.00042338
O 6.86731207 2.55936008 15.26092577 0.00083157 -0.00282156 -0.00127144
O 1.36887703 3.70472626 6.99023332 0.00477595 0.00314649 0.00044318
O 5.96589851 1.09521572 17.17881135 -0.00756020 0.00224047 0.00625150
O 1.88840511 5.05582039 8.89046285 -0.00442518 -0.00329267 0.00892701
O 2.48406911 11.74677717 7.29300352 -0.00109089 0.00823741 0.00390138
O 6.39101657 7.60398813 32.54506951 0.00120629 0.00020158 -0.00112378
O 2.46277563 11.58029877 32.22834582 -0.00000118 -0.00076850 -0.00076725
O 6.56582831 7.70908638 7.36890046 -0.00693752 -0.00210492 0.00178596
O 6.78385163 1.22754498 9.13507413 -0.00841778 0.00230160 -0.00169790
O 2.22160770 5.17278000 17.20375909 0.00320081 -0.00050648 0.00045872
O 6.04660718 2.72038157 23.33023133 0.00432370 -0.00249070 0.00421289
O 2.60729443 3.73992947 31.57011622 0.00205062 -0.00178234 0.00752410
O 1.35440778 10.16431842 17.65491578 0.00556366 -0.00827515 0.00049387
O 6.96999723 8.89346123 26.18769412 0.00194611 -0.00195090 -0.00521867
O 2.61728804 9.92682780 25.96847680 -0.00267037 0.00263156 0.00266166
O 5.86831653 9.05808864 17.82058015 -0.00280259 -0.01189304 -0.00093676
O 6.45245165 2.90980805 31.78060598 -0.00404531 0.00790493 -0.00274688
O 1.71155507 3.57799152 23.25061176 0.00447377 -0.00266344 -0.00303532
O 6.50872369 1.41195264 0.89273099 -0.00676608 -0.00179993 0.00055913
O 2.25796825 5.05040134 25.27988517 -0.00044128 -0.00102578 0.00062759
O 2.48357489 11.25121871 23.79184621 -0.00120722 0.00534592 0.00428276
O 6.44905273 7.47648579 15.73679937 0.00034739 -0.00367850 0.00059354
O 1.77517362 11.80171526 15.65721618 0.00218576 0.00644844 -0.00080714
O 6.40819958 7.59456709 23.99372648 0.00368905 -0.00684955 0.00023912
O 6.65652590 1.20062405 25.61456035 0.00192749 -0.00624886 -0.00325010
O 2.22262034 5.18649658 0.78304815 0.00387598 0.00702403 -0.00291611
O 6.05031544 15.96802549 6.86684116 -0.00190914 0.00412675 0.00114703
O 2.53330517 16.76644225 15.23796212 -0.00284800 0.00567817 0.00208796
O 1.39851751 23.09660790 1.27927190 0.00422869 -0.00175346 0.00189348
O 7.08187924 22.17162003 9.66370788 0.00292079 -0.00376303 0.00689722
O 2.74179594 22.84545385 9.85348728 0.00467113 -0.00158292 0.00564065
O 6.13452286 22.03790108 1.37498320 0.00253189 -0.00038420 -0.00712013
O 7.02571249 14.81910494 14.95547873 -0.00222133 -0.00033883 -0.00223798
O 2.11867061 16.59292669 6.98871753 0.00256624 0.00325669 -0.00582484
O 6.57938211 13.83556280 17.18039964 -0.00142745 0.00157997 0.00328009
O 1.98087754 18.22011037 8.91798839 0.00019736 -0.00477093 -0.00035942
O 2.44904050 24.20916714 7.59196170 0.00094889 -0.00354480 0.00181964
O 6.36635485 20.06840592 32.39296887 0.00382057 -0.00170999 0.00068522
O 2.22835212 24.19593738 32.09176703 0.00441942 -0.00007728 -0.00247372
O 6.95380647 20.67296922 7.66852232 0.00273981 0.00109553 0.00275719
O 6.05346828 14.08000957 8.80197431 0.00499586 0.00441160 0.00339241
O 1.82796450 18.06545643 17.33211425 -0.00335743 0.00007735 -0.00026725
O 6.45321879 15.12322171 23.20273185 0.00458030 -0.00502113 0.00710438
O 2.36930916 16.36431238 31.52793822 -0.00554477 0.00144047 0.00460571
O 1.53416909 22.79446650 17.61817231 0.00905749 0.00182620 0.00161503
O 6.69732298 21.73601532 26.09733458 -0.00145210 -0.00352315 -0.00800534
O 2.93501719 22.64388751 26.14111001 0.00401184 -0.00489184 -0.00059062
O 5.99196247 21.42075914 17.76812268 -0.00300796 0.00176553 -0.00443361
O 6.67176270 15.73777438 31.70545271 -0.00448596 -0.00258391 0.00241133
O 1.55573449 16.38842752 23.41634009 0.00268609 -0.00180388 0.00183005
O 6.60784616 14.22462310 0.67239693 0.00528911 -0.00267029 -0.00818117
O 2.31054403 17.87788410 25.34778462 -0.00066532 0.00358818 -0.00175421
O 2.43834459 24.08048611 23.98705557 -0.00986975 0.00101305 -0.01019704
O 6.49023813 20.07901322 15.68439321 -0.00082019 -0.00003881 -0.00466800
O 1.25614860 24.49651561 15.78123937 0.00696692 0.00015522 0.00096971
O 6.33239849 20.11405445 24.00238961 -0.00398877 -0.00061538 0.00657653
O 6.48885892 13.82401216 25.49470518 0.00372368 -0.00008752 -0.00104388
O 2.33880087 17.85468366 0.65707917 0.00627194 -0.00037512 -0.00454485
O 14.19135844 2.72876604 7.30813042 0.00240922 0.00103247 0.00323058
O 11.25258969 3.29149050 15.36657030 0.00348001 0.00617653 -0.00505654
O 10.07017148 10.55579699 1.20439553 0.00325827 -0.00133596 -0.00007527
O 14.88166499 9.25809992 9.75721483 -0.00367414 -0.00134148 0.00084404
O 11.13049593 10.34146145 9.28305770 -0.00202256 -0.00441602 0.00790634
O 14.61195328 9.48588346 1.50823829 -0.00427437 0.00528793 0.00239421
O 15.34640985 2.55244272 15.33628746 -0.01105760 0.00259905 0.00527522
O 10.40093312 3.43944525 7.10271017 -0.00520421 -0.00000783 -0.00048204
O 15.09075683 1.20125565 17.41932949 0.00283742 0.00423381 -0.00426936
O 10.63226378 4.87906715 9.37633582 0.00025638 -0.00142243 -0.00118931
O 10.46276754 11.93107310 7.24915157 0.00170977 0.00232278 -0.00315874
O 14.56084689 7.64713723 32.25665344 -0.00531433 0.00324981 -0.00577544
O 10.64845688 11.49346341 31.80890124 0.00495235 0.00287794 -0.00482370
O 15.31200305 7.68802146 7.71779627 -0.00115780 0.00003295 -0.00144606
O 15.08476815 1.00567772 9.21896731 0.00554643 0.00697134 0.00158599
O 10.63789965 4.91929389 17.43053517 -0.00794661 0.00497117 0.00140005
O 13.57241582 2.07601080 23.62115368 0.00522184 0.00175062 -0.00499575
O 10.99390405 3.57693351 31.96425929 -0.00271951 -0.00289196 -0.00383460
O 10.49651338 10.00500628 17.46042593 0.00027599 0.00064232 -0.00149068
O 15.73235841 8.46231834 25.96273961 0.00383621 0.00387918 0.00245128
O 11.74360639 10.18649947 25.89315328 -0.00256456 0.00376452 -0.00486534
O 14.39061744 8.94456123 17.73711690 -0.00557941 -0.00090959 -0.00790897
O 15.10155692 2.92972829 31.82368525 0.00782190 0.00379998 -0.00058942
O 10.08928907 3.35265435 23.68076782 -0.00252140 0.00177854 -0.00008165
O 14.50731702 1.69712586 1.02593728 -0.00141754 -0.00008100 0.00878004
O 10.33816622 4.98378189 25.61721375 -0.00527825 -0.00410194 0.00404694
O 10.78300943 11.17103691 23.65145348 0.00411313 -0.00402311 -0.00931682
O 14.97783465 7.41277657 15.67316859 0.00197483 0.00736107 -0.00418030
O 10.70009285 11.43852662 15.36828828 0.00188818 -0.00108099 0.00106233
O 14.96730548 7.34389131 23.84073250 -0.00068916 -0.00239460 -0.00293094
O 14.42082245 1.08716569 25.72411196 0.00116562 0.00095090 0.00217991
O 10.43496570 5.43328415 0.88299850 0.01271960 -0.00042714 0.00081951
O 14.65226114 15.66356159 6.97580784 -0.00447015 -0.00047157 -0.00583031
O 11.18602428 16.27012068 14.68550777 0.00191763 -0.00679701 -0.00357354
O 9.95877022 23.06716163 1.54569440 0.00304265 -0.00165013 -0.00310586
O 15.22538056 22.09935622 9.81962272 0.00491133 0.00282012 -0.00054426
O 11.24909685 22.52703092 9.89372139 -0.00375804 -0.00654113 -0.00242340
O 14.19017228 22.37365451 1.41909509 -0.00260151 0.00336990 -0.00869489
O 15.51804144 15.42141917 15.17631539 -0.00269311 0.00018117 0.00430624
O 9.99178139 16.41283122 6.60884732 0.00090123 0.00591261 0.00538956
O 15.15375548 13.92064409 17.36016363 -0.00011347 0.00374839 -0.00594987
O 10.41389885 18.09693957 8.64882839 0.00273603 0.00105060 -0.00231249
O 10.76341363 23.91129087 7.70789006 -0.00563383 0.00505738 0.00258375
O 14.81130139 20.62407374 32.14600884 0.00231977 -0.00075018 0.00183063
O 10.29713498 24.34271449 32.30583777 -0.00224509 0.00113052 -0.00516664
O 14.86426224 20.66583566 7.71807254 0.00256313 0.00091036 0.00080600
O 14.87932815 13.98206598 9.06846098 0.00205184 0.00020491 0.00361624
O 10.84735889 17.61420122 16.99326260 -0.00761321 -0.00055517 0.00062500
O 14.83406916 15.17079587 23.71392606 -0.00005156 -0.00152933 -0.00621149
O 11.10857136 16.20939089 31.46823279 0.00346020 0.00408465 -0.01064901
O 10.13130440 22.52006241 17.87882513 -0.00451177 -0.00460259 0.00141713
O 15.28094671 21.90977529 25.89189623 0.00066304 -0.00378999 0.00062224
O 10.92621116 22.33204763 26.25240879 -0.00235509 -0.00312398 0.00432608
O 14.26493407 21.19837457 17.76547324 0.00484395 -0.00468170 0.00355586
O 15.52348089 15.97320340 31.56515162 0.00005803 0.00119328 -0.00146786
O 10.59544358 16.04736430 23.10429484 0.00429563 -0.00017896 -0.00025016
O 15.17905194 14.37182482 0.64258022 -0.00013753 -0.00228829 0.00009182
O 10.25447747 17.46635005 25.38758384 -0.00094301 0.00168676 0.00353431
O 10.06570601 23.99690083 23.96137554 0.00986726 -0.00466918 -0.00535823
O 15.16592149 19.95179009 15.58890267 -0.00236127 -0.00518676 0.00376714
O 10.28694403 24.05823843 15.84846218 -0.00378489 -0.00451410 0.00118274
O 14.94062064 20.19472868 23.92335260 0.00224336 0.00327394 0.00718426
O 15.07687305 13.47910437 25.60865614 -0.00388799 0.00397819 0.00318613
O 10.78775258 17.98690905 0.54236074 -0.00568165 0.00020669 -0.00075867
O 22.73433567 2.62538910 7.02763283 -0.00296952 0.01057322 -0.00259670
O 19.01811153 3.44583783 15.43345584 -0.00710852 0.00179772 0.00430787
O 18.57207184 9.74240908 1.22719256 -0.00248907 0.00286140 -0.00005859
O 23.80334784 9.42952744 9.36539686 -0.00083473 -0.00072603 0.00079782
O 19.95612594 10.58420444 9.49145800 0.00288136 -0.00163581 -0.00048082
O 22.91205834 9.06349433 1.24710738 0.00034499 -0.00185109 -0.00249435
O 23.93258144 2.66773417 15.22440534 -0.00828524 0.00111691 0.00383034
O 18.90364038 3.95036771 7.00347641 0.00312654 0.00899118 -0.00517345
O 23.81172988 1.23676539 17.43623423 -0.00263941 0.00419401 0.00422143
O 18.87868122 5.48568028 9.12876529 0.00042423 0.01110007 0.00148352
O 19.25888291 11.77509440 7.32743860 0.00124709 -0.01071719 0.00043474
O 23.12678060 7.63924194 32.11750946 -0.00251495 0.00112762 -0.00022909
O 18.78325741 11.36689944 32.27222401 -0.00901431 -0.00417712 -0.00731079
O 23.37498410 7.93361044 7.25074572 -0.00259719 0.00039632 0.00246145
O 23.26161868 1.34984825 9.11694851 0.00522146 -0.00141246 0.00003663
O 19.43407824 5.03694232 17.33833755 -0.00784593 0.00302331 0.00137072
O 23.16052849 2.88929188 23.50320155 -0.00938913 -0.00174963 0.00091764
O 19.73833996 3.54129896 31.92348688 -0.00305339 0.00142123 -0.00247262
O 18.55197455 9.90502002 17.73664677 -0.00423566 -0.00196425 0.00101334
O 24.28567495 8.78057575 25.80263319 -0.00482624 -0.00363757 -0.00087121
O 19.43604628 9.77915838 25.96006848 0.00219822 -0.01023596 -0.00106337
O 23.20165770 8.76356737 17.22581833 0.00770929 -0.00471148 0.00405808
O 23.79375982 2.77698357 31.64313092 0.00096273 -0.00341885 0.00145177
O 18.55888726 3.46078409 23.65838268 0.00122282 0.00457472 -0.00967925
O 23.74148810 1.28041279 0.70649303 -0.00182870 0.00014122 0.00046162
O 19.32292417 4.85875420 25.65911658 0.00411449 0.00081139 0.00200519
O 19.52843626 11.29991828 23.92942136 0.00123763 0.00859691 0.00332243
O 23.89184598 7.28542816 15.26729427 -0.00505490 -0.00236875 -0.00144437
O 19.01499253 11.51266772 15.58351222 -0.00592734 -0.00093110 0.00113393
O 23.89674366 7.71496021 23.49056899 0.00580226 0.00286245 0.00138814
O 23.22966926 1.30566381 25.54287573 0.00141255 0.00286560 -0.00318350
O 19.72497550 5.13730093 0.88398263 0.00613297 0.00070378 -0.00009047
O 23.04437799 16.08380762 6.80460974 -0.00219883 0.00332986 -0.00445907
O 19.78725313 16.50782265 15.02898353 -0.00448796 -0.00049770 0.00048337
O 18.90481526 22.89788974 1.68093961 -0.00536484 -0.00593146 -0.00675915
O 23.46239623 22.17225585 9.65886171 0.00131518 -0.00051506 0.00189829
O 19.84168488 23.32689369 9.58046900 -0.00285680 0.00096632 -0.00568092
O 22.67326886 21.91848914 1.36135596 0.00697731 0.00430910 -0.00307871
O 23.93979286 15.48512254 15.18244978 -0.00072305 -0.00200751 0.00463944
O 18.27205320 16.48481396 6.67444250 -0.00174418 -0.00067030 -0.00356747
O 23.27311211 14.03260296 17.25142210 0.00134981 0.00421615 -0.00215109
O 18.39912300 18.20742039 8.69145476 0.00315396 -0.00644057 -0.00155148
O 18.89550290 24.69399418 7.86167331 -0.00075249 0.00553878 -0.00041739
O 23.28377290 20.38645551 32.36334511 0.00252387 0.00080946 0.00358224
O 18.23375906 24.61049301 32.58337318 0.00193895 -0.00405585 -0.00186350
O 23.36196730 20.64634473 7.65152807 -0.00887380 0.00182820 0.00568872
O 23.43085701 14.42883948 8.79833529 0.00633170 0.00084317 0.00204057
O 18.90047802 17.73276222 17.24841098 0.00097357 0.00072572 0.00064684
O 23.09114801 15.21642667 23.37447852 -0.00234279 -0.00540269 0.00070068
O 19.65188513 16.38837599 31.78982685 0.00420497 -0.00030514 0.00377879
O 18.40014441 21.89689061 18.39672490 -0.00581685 0.00028972 -0.00157769
O 24.07925547 22.03534808 26.34548618 -0.01131945 0.00253467 0.00396587
O 19.50291461 22.75513205 26.45373797 -0.00388676 -0.00616569 0.00295166
O 22.53509301 21.81712856 18.22261367 0.00573917 0.00201118 -0.00182502
O 23.73438438 15.59966430 31.44662426 0.00340571 -0.00524669 0.00166825
O 18.93825215 16.16871969 23.45516987 -0.00140667 0.00070009 0.00035638
O 23.88847314 14.22565327 0.64580201 -0.00369374 -0.00451315 0.00389786
O 19.19578945 17.79316253 25.41435194 0.00178283 0.00071152 -0.00247545
O 19.24254889 24.02207505 24.31065104 -0.00194831 -0.00092238 0.00494311
O 22.98741220 20.45596325 15.80611013 0.00014411 0.00324182 0.00143750
O 18.84565912 23.76168405 15.84792121 -0.00426004 -0.00575439 0.00572587
O 24.39197176 20.59585945 24.14944647 -0.00090409 0.00576111 -0.00328115
O 23.65894112 13.47444724 25.26987996 0.00434888 0.00254353 0.00573130
O 19.21125656 18.05013129 0.62447292 0.00703581 -0.00300445 -0.00552745
N 7.63043178 13.14471860 2.35141476 0.00517131 0.00329253 -0.00182247
N 0.62015023 6.09966285 10.51353613 0.00358401 0.00301703 0.00467771
N 3.03625080 0.13480097 5.89119145 -0.00116703 0.00620302 0.00099333
N 5.41227576 6.25139879 14.00436246 -0.00240367 -0.00567965 -0.00103034
N 0.45612672 0.19209068 14.05104281 0.00473008 0.00274560 -0.00427396
N 7.81728533 6.77272195 5.76817437 -0.00561052 -0.00314876 0.00272635
N 5.32402621 12.59535511 10.42831296 0.00555447 -0.00221825 -0.00169971
N 3.30610497 6.31111525 2.45530746 -0.00161153 0.00420776 -0.00318799
N 7.65821850 12.46507713 18.58277019 -0.00261909 -0.00566066 -0.00372614
N 1.45448830 6.46180578 26.89959124 0.00079999 -0.00610661 -0.00428167
N 3.23635739 25.28913501 22.15512380 -0.00994409 -0.01024207 -0.00140630
N 5.39037611 6.47621842 30.85020723 0.00641528 -0.00033753 -0.00051354
N 0.93995121 25.32540184 30.53686054 0.00136552 -0.00286383 0.00025773
N 7.44748471 6.37125585 22.43177985 0.00654868 -0.00859233 -0.00061880
N 5.07814291 13.03007573 27.14565571 -0.01055521 -0.00004478 0.01007592
N 3.42409095 6.28251883 18.75679438 -0.00265288 0.00208118 -0.00059481
N 7.42063711 0.08868984 2.58408191 0.00570596 0.00401796 -0.00469309
N 0.85440786 19.42196823 10.59529368 -0.00263706 0.00587187 -0.01156351
N 3.52313290 12.79117410 5.52691615 -0.00135777 -0.00259986 -0.00010501
N 5.19284967 19.17067019 14.04578435 -0.00498975 0.00633320 -0.00057493
N 0.56994359 12.62714702 13.90473468 0.00384219 0.00239515 0.00366951
N 7.76061317 19.32648117 5.98680414 -0.00080956 -0.00195717 -0.00627140
N 5.27446380 0.22426782 10.47958673 0.00556099 -0.00396003 0.00092392
N 2.84725913 19.44036511 2.25403491 0.00012289 0.00252366 -0.00191758
N 7.27708683 25.47544844 18.60133144 -0.00202475 0.00128613 -0.00459097
N 1.16904225 19.16561320 26.85006899 -0.00060949 0.00013780 0.00124010
N 3.63335904 12.35055170 22.13144339 -0.00842612 -0.00118079 0.00370965
N 5.36160122 18.88723085 30.70325259 0.00130525 -0.00851844 0.00663501
N 0.97343870 12.41441316 30.73110789 0.00723906 -0.00679462 -0.00334505
N 7.62793746 19.00869878 22.42953662 -0.00076322 0.00103315 -0.00451679
N 5.45772535 25.46720979 27.08336924 -0.00131832 -0.00595945 0.00836975
N 3.41948034 18.84788899 18.84898486 0.00402835 -0.00577345 -0.00264546
N 16.10965265 13.10370119 2.32740921 -0.00247305 0.00281138 -0.00309502
N 9.29328276 5.91022334 10.89425911 -0.00271233 0.00140939 -0.00190845
N 11.76665252 25.45363992 6.22603955 -0.00202218 0.00163615 -0.00208349
N 13.74171964 6.23866048 14.23031845 0.00612919 0.00078584 0.00318328
N 9.40798245 25.42446387 14.24418657 0.00085381 0.00760757 0.00361707
N 16.02284522 6.42976136 5.95978568 -0.01018148 0.00476741 -0.00743054
N 13.50954183 13.03155877 10.63892805 0.00000312 0.00505527 -0.00456852
N 11.66548893 6.37104320 2.53829151 -0.00161527 0.00152204 -0.00396166
N 16.08152716 12.62374741 18.96727350 -0.00322867 0.00518955 -0.00279461
N 9.23976198 6.07818725 27.30956112 0.00296660 -0.00599465 -0.00052877
N 11.38164588 25.18596912 22.43924049 -0.00891670 0.00524494 0.00063510
N 13.26783229 6.59218305 30.66835910 0.00553970 -0.00177762 0.00001177
N 8.96782943 25.20522284 30.59676703 -0.00477878 0.00586410 0.00065114
N 16.19751902 6.16579621 22.25592789 0.00016877 0.00549295 0.00469682
N 13.66122454 12.82703180 27.26870877 -0.00335974 0.00165243 -0.00056668
N 11.95772972 5.83987934 18.98084241 -0.00457368 0.00694380 0.00341458
N 15.76756972 0.44052340 2.51900712 -0.00427082 0.00559436 0.00295872
N 9.58980117 19.26026101 10.48515486 0.00075417 -0.00056968 -0.00096163
N 11.98466254 12.88992913 5.83314141 -0.00128887 -0.00321599 -0.00305352
N 13.75159063 18.86111198 14.08689523 -0.00001421 0.00746290 -0.00297318
N 9.34552316 12.64995898 13.88450003 0.00150237 0.00169923 0.00594656
N 15.93134470 19.65629332 5.90955288 -0.00175259 0.00303771 0.00249633
N 13.66696836 0.10387765 10.75564676 0.00542945 -0.00297275 -0.00346348
N 11.68528958 19.30750569 2.18395545 0.00361068 -0.00101784 0.00131427
N 16.03600184 25.39069515 19.18715880 -0.00724327 -0.00134553 -0.00313277
N 9.70721748 19.08516882 26.92147315 -0.00387946 -0.00141767 0.00031260
N 12.03973567 12.34591596 22.15168699 0.00310007 -0.00189237 0.00051194
N 13.90498312 19.22562773 30.55107854 0.00252589 0.00054377 0.00610222
N 9.07642604 12.35404884 30.36287484 0.00020677 -0.00043812 -0.00088252
N 16.03593594 18.95551978 22.38043482 0.00621495 -0.00179585 -0.00353298
N 13.40253773 25.35202607 27.37093047 -0.00095442 0.00091020 -0.00163733
N 11.77078337 18.93258423 18.53622710 0.00710410 0.00099298 -0.00159298
N 24.57200479 13.09279207 2.46165072 0.00312977 -0.00608252 0.00671870
N 18.01830489 6.62457076 10.97612879 -0.00799521 -0.00228612 0.00228893
N 20.06637753 0.29682443 6.23022563 -0.00054541 -0.00420141 -0.00164655
N 22.24822292 6.53023186 13.86559841 -0.00019727 0.00457577 -0.00707428
N 17.96495377 25.16015241 14.35987648 0.01068235 0.00542295 0.00201809
N 24.55311793 6.58539566 5.87235360 -0.00401888 -0.00541081 0.00393215
N 22.35358727 13.22270425 10.40214711 0.00767968 -0.00016633 -0.00382291
N 20.46544133 6.63501983 2.40240123 -0.00292230 0.00193230 0.00960283
N 24.34014943 12.70264014 18.68053880 -0.00234898 -0.00150981 -0.00154000
N 17.87584667 5.80640987 27.17424182 0.00189717 0.00094197 -0.00296305
N 20.23987434 25.11707864 22.55394246 0.00802193 0.00184903 -0.01291354
N 22.22945611 6.45537335 30.36897693 0.00077741 -0.00095079 0.00493393
N 17.97609774 0.47806263 30.69983353 0.00247069 -0.00068439 0.00224831
N 24.21729026 5.98835630 21.97910509 0.00558105 0.00719912 -0.00460589
N 22.45601456 12.52293618 26.97877854 -0.00047238 -0.00113767 0.00101971
N 20.33806498 6.13189034 19.13074305 -0.00253128 -0.00869246 0.00549571
N 24.42759820 25.39713568 2.43025971 -0.00287856 -0.00378336 0.00198946
N 18.07865202 19.29472604 10.67669027 0.00114344 -0.00205922 -0.00389297
N 20.40603617 12.76722859 5.61388962 -0.00339654 -0.00402637 -0.00218776
N 22.26571326 19.03600682 14.11437413 0.00727048 -0.00478160 -0.00058494
N 17.86791703 12.73244223 14.05199967 0.00051638 0.00578324 0.00680420
N 24.45122664 19.41893708 6.04099586 -0.00502176 0.00099774 -0.00111226
N 22.09011865 0.16857797 10.66440426 -0.01042382 -0.00252896 0.00271954
N 20.18394709 19.25050568 2.28066611 0.00196253 0.00011680 -0.00312173
N 24.37399312 25.23375972 19.09356462 0.00409584 -0.00253585 -0.00662206
N 18.36116442 19.11373390 27.14481364 0.00718743 -0.00024269 -0.00866972
N 20.77312398 12.22020111 22.24317815 -0.00206229 0.00374129 0.00013867
N 22.38892533 19.06783728 30.73206803 0.00133257 0.00550785 0.00724113
N 18.06205954 12.69527294 30.55728245 -0.00149373 -0.00672145 -0.00294159
N 24.64927505 19.12281870 22.49322820 0.00055821 0.00254092 0.00237119
N 22.29100405 0.04385931 27.21461840 -0.00056460 -0.00036463 0.00040312
N 20.22266629 18.79087849 18.81198172 0.00309899 0.00294052 0.00119401
C 7.48677920 0.45134064 4.92172707 0.00155981 0.00184637 -0.00030170
C 0.69106119 6.02582517 12.94583190 -0.00647334 -0.00371557 -0.00130784
C 3.33253731 12.43497153 3.19754238 0.00126012 0.00291307 0.00122612
C 5.17620809 6.88548786 11.62662050 -0.00254284 -0.00328104 0.00247372
C 0.88204951 12.56572484 11.51803915 0.00385855 0.00390273 -0.00155154
C 7.73539243 6.96639909 3.40317731 -0.00156529 -0.00183203 0.00520823
C 5.10615146 0.33470348 12.92814851 -0.00019426 0.00665284 -0.00241563
C 3.45305532 5.85618117 4.82266342 -0.00307887 0.00873532 -0.00230599
C 7.34911247 1.31139063 5.96085611 -0.00092054 -0.00361558 -0.00091817
C 1.19388520 5.40202355 14.06800179 0.00472388 0.00128597 -0.00320355
C 3.11413897 11.63334022 2.09257798 -0.00185835 0.00559090 0.00443023
C 5.51015676 7.69139844 10.54014036 0.00353860 -0.00538690 -0.00257133
C 1.31515516 11.82334449 10.40764814 0.00007302 0.00097632 0.00602892
C 7.39252631 7.73971626 2.30004817 -0.00521301 0.00751994 -0.00670314
C 5.55292000 0.90227146 14.10778620 0.00192615 -0.00205484 0.00163278
C 2.98013761 5.27110583 5.92312902 0.00263298 0.01011536 0.00696723
C 6.45036001 2.40037237 6.00677710 -0.00343218 -0.01432641 0.00360517
C 2.19850068 4.41683527 13.96571299 -0.00261517 -0.00517820 0.00930233
C 2.03416464 10.71730668 2.19815219 -0.00399524 0.00545673 0.01004378
C 6.38390135 8.84323384 10.68739730 -0.00574585 -0.00405768 0.00213522
C 2.09274421 10.58573942 10.55894870 0.00264849 -0.00164100 -0.00380434
C 6.45128432 8.83830157 2.35682639 0.00425570 -0.00203064 0.00308557
C 6.34587057 2.07457445 14.10551670 0.00864519 -0.00551093 -0.00082741
C 2.05527387 4.18092311 5.90419099 -0.00432347 0.00629194 -0.00083286
C 6.09908085 2.84101851 4.70237683 -0.00174281 -0.00495226 -0.00273825
C 2.33765842 3.71641837 12.75701715 0.00159902 -0.00547932 -0.00643786
C 1.69881175 10.25371137 3.49446959 0.00666217 0.00109082 -0.00121431
C 6.73340689 9.21815205 12.01454692 -0.00208852 0.00118605 -0.00418233
C 2.13786822 10.02142198 11.81629498 0.00300023 -0.00560429 0.00065993
C 6.06004742 9.25938329 3.65922927 0.00461137 0.00030226 -0.00150887
C 6.60907044 2.72111839 12.90080296 0.00495598 0.00306945 -0.00016017
C 1.87968104 3.63542958 4.65819910 -0.00578671 -0.00006758 -0.00121996
C 6.54068788 2.19014235 3.53975961 -0.00386797 -0.00277783 0.00178140
C 1.82149776 4.21513963 11.63407824 -0.00083445 -0.00247127 -0.00422925
C 2.32598418 10.77926006 4.62168068 -0.00312118 0.00229827 0.00132453
C 6.45139727 8.28480092 13.04860314 0.00809697 -0.00598117 -0.01052774
C 1.60829105 10.65403619 12.90156654 0.00042262 0.00117977 0.00240509
C 6.49610941 8.62073035 4.75644454 -0.00288843 0.00084591 -0.00096172
C 6.19678587 2.10303286 11.69859975 -0.00265437 -0.00257195 -0.00010300
C 2.33728565 4.25230974 3.45767682 -0.00967786 0.00308278 -0.00704562
C 7.13985184 0.92264760 3.63913882 0.00086564 0.00366485 0.00105506
C 1.00226162 5.44657383 11.68192786 -0.00118571 0.00007772 0.00703915
C 3.02723556 12.00956886 4.49873623 0.00313499 -0.00705271 0.00159560
C 5.68577405 7.10837049 12.93945908 -0.00215078 0.00103639 0.00080998
C 1.09827393 11.98987412 12.77718686 0.00751644 0.00421936 -0.00469276
C 7.39739321 7.54031982 4.72963696 -0.00317691 -0.00328473 0.00700347
C 5.51493451 0.89920153 11.68732978 0.00001038 -0.00192397 0.00487084
C 3.05076592 5.47609127 3.49729420 0.00389431 -0.00322594 0.00072293
C 6.91621060 0.36418355 1.34503035 0.00129549 -0.00476825 0.00541282
C 1.25690548 6.03552166 9.32705210 -0.00579609 0.00496569 -0.00535643
C 3.10104061 12.72408846 6.88271594 0.00015635 0.00339925 -0.00353333
C 5.81032517 6.43648836 15.33949431 0.00069582 0.00422458 0.00315807
C 1.22645612 12.75398488 15.09252453 -0.00454361 0.00242905 0.00887311
C 7.16791358 6.74989748 6.93384098 -0.00298440 0.00409539 0.00265044
C 6.06462213 0.23345907 9.31745495 0.00161981 -0.00299257 -0.00486919
C 2.71360699 6.20501819 1.21474047 0.00301505 0.00004015 -0.00555938
C 7.27786483 11.64999634 16.41730738 -0.00697445 0.00087842 -0.00027929
C 1.18452687 7.28966990 8.48862758 -0.01295482 -0.00832595 0.00034288
C 2.99173545 1.03914329 8.09879072 -0.00083152 -0.00029414 -0.00218457
C 5.60233769 5.40146440 0.06133050 -0.00394894 0.00041566 -0.00160767
C 1.34275048 0.79067209 32.80779005 -0.00319198 0.01160978 0.00323167
C 7.13032361 5.40449778 7.52519432 -0.00297972 0.00612533 -0.00114225
C 5.75829371 11.81003912 8.17305269 0.00052306 -0.00245800 -0.00340287
C 3.07492343 7.40737122 16.68247393 -0.00119414 0.00311412 0.00665497
C 7.37940541 0.19282345 20.97951417 0.00886904 0.00134478 -0.00340466
C 1.16472075 6.13643159 29.20596865 -0.00848776 0.00354517 0.00815986
C 3.56997351 12.05220526 19.81837693 0.00031013 0.00296756 0.00082247
C 5.14185285 6.83177849 28.51079993 -0.00201292 0.00272916 0.01063375
C 1.07350283 12.27219155 28.38255095 0.00328947 -0.00459979 0.00510172
C 7.54656663 6.67047879 20.03208931 -0.00019495 -0.00289358 0.00224577
C 5.34562210 0.25488668 29.51520244 0.00204331 -0.00578659 -0.00492666
C 3.23440786 5.98598663 21.06037811 -0.00447767 0.00225459 -0.00083017
C 7.12148689 0.82917922 22.20426794 0.00107790 -0.00695772 0.00425556
C 1.40544388 5.44639219 30.35639176 0.00129462 -0.00336192 0.00260517
C 3.08275449 11.49654523 18.69953408 0.00287520 0.00270389 -0.00533854
C 5.64998146 7.27306570 27.29453481 0.00551084 0.00622289 -0.00321636
C 1.37530525 11.59068374 27.17032813 0.00081230 -0.00705872 -0.00405074
C 7.19280233 7.35306405 18.91389183 0.00205270 -0.00041311 -0.00454721
C 5.48965613 0.99152583 30.66160845 -0.00510412 0.00754395 0.00313178
C 2.99157499 5.24659464 22.22407626 -0.00464014 0.00114137 0.00111564
C 6.31273351 1.99446737 22.17251177 0.00164186 -0.00121976 -0.00234645
C 2.22028099 4.29139489 30.38559300 0.00269573 -0.00266648 -0.00199800
C 2.04736608 10.53873560 18.76114836 0.00432270 0.00102675 -0.00842475
C 6.48040294 8.37049071 27.29463316 0.00305464 -0.00433729 0.00338015
C 2.16034886 10.38781426 27.17465350 0.00793455 0.00687377 0.00630524
C 6.43600972 8.54813433 18.98093288 -0.00468990 0.00236487 -0.00037270
C 6.14495143 2.24553723 30.60043182 -0.00799077 -0.00202278 0.00272422
C 2.13073764 4.12360727 22.12560964 -0.00793744 -0.00193604 -0.00059490
C 5.93146889 2.54062983 20.94675877 -0.00588056 -0.00469827 -0.00273184
C 2.52817288 3.73593411 29.14014008 -0.00433433 -0.00688126 -0.00187478
C 1.74507542 9.91065591 20.01937460 0.00663247 -0.00052753 -0.00616637
C 6.81045568 8.91598145 28.55673326 -0.00920889 -0.00455634 0.00571948
C 2.48551007 9.84565732 28.44808855 -0.01130998 0.00057158 -0.00374853
C 6.27728075 9.15992340 20.19859378 0.01056293 -0.00879887 0.01048183
C 6.51124146 2.74984871 29.36624518 0.00828036 -0.00050311 0.00332406
C 2.01269785 3.57709827 20.80957238 0.00748146 -0.00099087 -0.00013427
C 6.19913560 1.89915420 19.77250471 -0.00337220 0.00231993 -0.00043217
C 2.39079330 4.35145514 27.95837007 0.00393290 0.00039000 0.00048391
C 2.36453700 10.44604489 21.12927612 -0.00351579 0.00496938 0.00210166
C 6.54552401 8.34955613 29.76796606 0.00052091 -0.00185713 0.00287135
C 1.96003639 10.44282212 29.58767198 -0.00338023 0.00786990 0.00145223
C 6.51557822 8.38185114 21.36281388 0.00069590 -0.00574417 0.00016179
C 6.22357893 2.04490078 28.17413546 -0.00062323 -0.00203660 0.00046973
C 2.50297264 4.11923694 19.66675247 -0.00014572 0.00109952 0.00351134
C 6.90499879 0.69848248 19.76863943 -0.00170244 0.00207061 0.00110546
C 1.66072658 5.65511888 27.96897832 0.00568034 0.00091870 0.00473299
C 3.17329887 11.61926244 21.08733298 0.01246389 -0.00076899 0.00760316
C 5.67361974 7.24088168 29.76457515 0.00619848 0.00246908 0.00098014
C 1.39399421 11.73295095 29.58593109 0.00862637 0.00491486 0.00343391
C 7.17384973 7.15976594 21.31265465 0.00070377 0.00679882 -0.00734676
C 5.77225725 0.71749397 28.27609600 0.00349872 0.00774986 0.00461202
C 3.09273115 5.41701665 19.79782828 0.00434476 0.00166007 0.00191132
C 6.65470218 0.09415713 17.44214609 0.00017475 0.00141439 0.00240820
C 1.86374578 6.13963532 25.64803278 0.00172447 -0.00710241 0.00306241
C 3.02063856 12.30745849 23.37817258 -0.00330330 0.00079487 0.00496894
C 5.82795125 6.58682036 32.18736441 0.00438172 -0.00024914 0.00701304
C 1.58794565 12.46877541 31.93046647 0.00152927 0.00633427 0.00003583
C 6.93695937 6.56431907 23.61652495 -0.00528469 -0.00566402 0.00831307
C 6.04516819 0.18815681 25.86580045 0.00136051 0.00410077 -0.00515849
C 2.86438084 6.19284087 17.53484750 0.00498932 0.00274442 -0.00579378
C 6.78624778 11.80951637 0.53937603 0.00215875 0.00186931 0.00018545
C 1.68552664 7.30849325 24.73876298 0.00290629 0.00419606 0.00233000
C 2.80777017 0.82876939 24.26835169 -0.00311348 -0.00116184 0.00289026
C 5.63939501 5.26051037 16.28222838 0.00063550 -0.00247568 0.00090168
C 1.11112336 1.35126484 16.14049438 -0.00266622 -0.00310702 -0.00620776
C 7.15974315 5.37897659 24.62802408 -0.00105811 0.00532969 0.00767157
C 5.94714129 11.52860816 25.29631079 -0.00159365 0.00737589 0.00426402