1920
Time=77000.00000008 pbc="T T T" Lattice="25.43922334 0.00000000 0.00000000 0.00000000 25.88825095 0.00000000 0.00000000 0.00000000 32.81368962" energy=-12243.80088902 virial="-46.66223476 13.19127140 0.48727724 13.19127140 -99.94122177 7.24668754 0.48727724 7.24668754 20.90804606" stress="0.00022177 0.00062034 0.00004392 0.00062034 -0.00222658 0.00027321 0.00004392 0.00027321 0.00330290" Properties=species:S:1:pos:R:3:vel:R:3
O 5.73938100 2.55352872 7.07163825 0.00219930 0.00161353 0.00583671
O 2.49309062 3.62786956 15.32824989 -0.00524077 -0.00214634 -0.00225618
O 2.20799130 10.31625811 1.24996572 -0.00237416 -0.00019784 -0.00468391
O 6.83503822 9.18205330 9.55899965 0.00151912 -0.00082834 0.00116839
O 2.60806822 10.41349136 9.29163647 0.00452506 0.00270675 -0.00093189
O 5.57521885 9.21354687 1.41059714 -0.00538675 0.00026351 0.00172413
O 7.16465706 2.42524669 15.34415259 0.00967080 0.00081666 0.00491274
O 1.77060379 4.13012965 7.01427409 0.00784119 0.00168013 0.00040433
O 5.94647289 1.10987387 17.29340418 -0.00101059 -0.00359357 0.00582344
O 2.23334328 5.32142072 9.09473819 -0.00504534 0.00653809 -0.00366050
O 2.18780137 11.77077282 7.29608448 -0.00081970 0.00148239 -0.00308383
O 6.18601429 7.99638964 32.00093203 0.00355270 0.00309541 -0.00892087
O 2.23787728 11.72453721 31.81988781 0.00261783 0.00683563 -0.00056490
O 6.42640843 7.65094322 7.41122175 0.00110270 0.00485054 0.00198873
O 6.91733366 1.41798087 9.25733835 -0.00025288 -0.00400537 -0.00095724
O 1.90828442 5.13715871 17.26240920 -0.00236243 0.00720678 0.00539904
O 5.60910064 2.72988744 23.41627126 0.00066569 -0.00236402 -0.00613887
O 2.32692669 3.65458604 31.56936631 0.00361648 -0.00006664 -0.00439287
O 1.33922877 9.96029494 17.75535637 0.00272057 -0.00352275 -0.00200505
O 7.06931428 9.38144535 25.86014040 0.01015033 -0.00191132 -0.00009244
O 3.13227429 10.07894678 25.84150818 -0.00242904 -0.00852316 0.00222369
O 5.56108806 9.11812793 17.84092805 -0.00711263 -0.00246063 0.00803468
O 6.79283658 2.81167520 31.99178434 0.00370629 0.00209518 -0.00530649
O 1.46037895 4.04812472 23.30469106 0.00206066 0.00611694 -0.00118850
O 6.43274639 1.03405769 1.05346440 0.00123875 0.00078014 0.00225440
O 2.26376616 5.12352240 25.49704441 -0.00337323 -0.00950216 -0.00171782
O 2.72010257 11.59104729 23.70593446 0.00190198 0.00374820 -0.00537352
O 6.39809164 7.76343030 15.81149292 -0.00203454 0.00004292 0.00656153
O 1.68710322 11.30671396 15.55221911 -0.00026913 -0.00004102 -0.00052444
O 6.51756936 7.93170683 23.92996998 -0.00139666 0.00088876 -0.00090511
O 6.21650790 1.40754201 25.76796517 -0.00766042 0.00593041 -0.00232343
O 2.36636892 5.23054416 0.80205653 -0.00414618 0.00941159 0.00068889
O 5.92419959 15.80884664 6.79252686 0.00286776 -0.00074407 0.00556931
O 2.15917159 16.47137099 14.83947243 -0.00423910 -0.00427748 0.00253030
O 1.69967243 23.23191673 1.17774000 -0.00902620 0.00005124 0.00020716
O 6.38727245 22.49143765 9.56956022 -0.00466755 -0.00055544 0.00063571
O 2.82550768 23.23407671 9.34106502 0.00292745 -0.00408192 -0.00265705
O 5.99582957 21.93707433 1.19257997 -0.00498855 -0.00256767 0.00304368
O 6.76267397 15.21857168 15.23282343 -0.00131859 -0.00588265 -0.00161345
O 1.70757657 16.67532636 7.05815681 0.00372894 0.00005014 0.00499239
O 6.35084144 13.96568913 17.46070689 0.00054682 -0.00164121 -0.00039467
O 2.60424907 18.54281321 8.75696642 -0.00172740 -0.00796398 -0.00473446
O 2.05155180 24.74203992 7.29624975 -0.00017941 0.00392608 -0.00249550
O 6.70424020 20.43141752 32.00418181 0.00492367 -0.00385682 -0.00051708
O 2.54767333 24.74486034 32.08387290 0.00678051 0.00077227 0.00811517
O 6.67975631 20.82518893 7.47064459 0.00391742 -0.00082534 0.00038332
O 5.89597756 14.16692362 8.94345457 0.00300731 0.00119815 0.00730028
O 2.00391466 17.97085540 16.96149059 0.00075607 -0.00325832 0.00194075
O 6.55284629 15.85717235 23.68018436 -0.00239026 -0.00492119 0.00576945
O 2.79991938 16.70295527 31.22205530 -0.00470417 0.00034574 -0.00530986
O 1.50899634 22.77181759 17.58101076 -0.00658426 0.00538434 -0.00076781
O 6.51725204 22.36982161 25.96358831 0.00033035 0.00282048 0.00343425
O 2.24108866 23.25821209 25.93972104 0.00102842 -0.00456409 0.00304474
O 5.59304577 21.95295058 17.56389956 -0.00781624 0.00042349 -0.00802948
O 7.22451368 15.43665424 31.69481110 -0.00067620 0.00671787 -0.00294960
O 1.86519190 16.56422070 23.17865214 -0.00124185 0.00233719 0.00385427
O 6.67830735 14.03841485 0.84047173 -0.00426264 0.00772551 0.00050431
O 2.15346626 18.21394997 25.08104520 -0.00461639 -0.00192234 0.00730093
O 1.89071777 24.54248135 23.72571269 -0.00042558 0.00339220 -0.00122799
O 6.01568479 20.43253563 15.44373759 0.00030152 0.00262567 -0.00710019
O 1.60049198 24.46985437 15.56931410 0.00076743 0.00281558 0.00285958
O 6.36525397 20.90703758 23.92664175 -0.00391105 0.00678270 0.00449052
O 6.46032573 14.25268615 25.57536287 0.00482210 -0.00445304 0.00296639
O 2.53209027 18.11361815 0.75039620 0.00167366 -0.00510285 0.00589185
O 14.77628423 3.24045545 7.00141174 0.00161380 0.00824326 0.00467891
O 11.04617846 3.75386159 15.32886509 0.00198971 0.00388725 0.00303748
O 10.56494549 10.44487596 1.30573525 0.00245700 -0.00690585 -0.00520607
O 15.70603025 9.28190687 9.52434200 0.00116877 -0.00156037 0.00166512
O 11.12169360 10.48726935 9.36326938 0.00354867 0.00052064 0.00049462
O 14.72898520 9.23889794 1.15539081 -0.00320129 -0.00205822 -0.00551875
O 14.93530361 2.78992432 15.13977319 0.00059188 0.00146856 -0.00040324
O 10.04218917 3.88313633 7.01119000 -0.00243373 -0.00689266 -0.00100445
O 14.53733712 1.16677739 17.12715658 -0.00285640 -0.00236550 -0.01003311
O 10.52722504 5.28917233 9.09549064 -0.00006544 0.00050958 -0.00069728
O 10.35304983 11.97339466 7.48032893 0.00002067 0.00462141 -0.00113778
O 14.91973706 7.57061845 31.98069184 0.00360196 -0.00062047 0.00041605
O 11.16231539 11.92669656 32.12875971 0.00690198 -0.00065979 -0.00385381
O 15.18221272 8.19958245 7.25631065 -0.00060648 0.00148951 -0.00088731
O 14.84540789 1.33279349 9.08575945 -0.00474276 0.00044784 -0.00417843
O 10.19576540 5.31781346 17.19717502 -0.00410899 -0.00064800 0.00096193
O 13.91053797 2.39776991 23.37848446 -0.00192357 0.00410446 -0.00067400
O 10.83491665 3.82935080 31.66280156 -0.00253137 -0.00185183 -0.00069692
O 10.09413680 10.12935719 18.04140267 -0.00138527 -0.00425917 -0.00325260
O 15.36768769 8.66071889 25.60797779 0.00157533 0.00372038 -0.00214687
O 10.88875989 10.21343280 25.98101671 -0.00150120 -0.00116216 -0.00146010
O 14.65862844 9.16617791 17.67617358 0.00089469 0.00463367 -0.00820585
O 15.67585752 2.60591441 31.34779754 0.00918648 -0.00018321 -0.00427731
O 9.46335914 3.69639942 23.33536958 -0.00102630 0.00491611 0.00457729
O 15.55108787 1.34404833 0.89228221 0.00154999 0.00588866 -0.00520313
O 10.43339130 5.24024590 25.38763186 -0.00062909 -0.00236813 -0.00091168
O 10.29528172 11.77799016 23.99044284 0.00089993 -0.00440118 -0.00102891
O 14.75751757 7.74599007 15.45291670 -0.00362050 -0.00250545 0.00347153
O 10.71170886 11.65221679 15.80689510 0.00050641 0.00802612 -0.00351069
O 14.65525459 7.33196510 23.67027186 0.00045118 -0.00532357 -0.00182775
O 15.10239151 0.91121797 25.38140638 -0.00045596 -0.00171674 -0.00029499
O 10.80916083 5.47428633 0.76316566 -0.00022533 -0.00433719 0.00282124
O 14.03895660 15.73752848 7.03905658 -0.00082957 0.00037786 -0.00316735
O 10.84812138 16.20442276 14.90148309 -0.00778113 0.00454149 -0.00383531
O 10.04561049 23.32379540 1.38439575 -0.00634518 -0.00456675 -0.00028938
O 15.98422262 22.00800689 9.61693299 -0.00586039 0.00353901 0.00524892
O 11.53364102 23.18593966 9.71401432 0.00139604 0.00540596 0.00574587
O 14.44795143 22.64166233 1.39512296 -0.00063921 0.00685160 -0.00039762
O 15.45819055 15.82718318 15.25267626 0.00174765 -0.00462454 0.00065538
O 9.97948543 16.97428832 7.14205885 -0.00559398 -0.00271089 -0.00577654
O 15.03051671 14.36816912 17.38202294 0.00340304 0.00487805 -0.00041299
O 10.81162837 18.59649033 8.98363162 0.00106229 -0.00527026 -0.00046459
O 11.16398408 24.69409379 7.62629125 0.00552789 0.00359927 0.00748264
O 14.68955519 21.26101291 32.07118831 -0.00709630 0.00418870 -0.00240195
O 10.66497576 24.83248052 32.04198547 -0.00346551 0.00365368 0.00878289
O 15.18934514 20.66096823 7.40187042 0.00278032 -0.00217309 0.00810907
O 14.93224141 14.39809414 9.21386775 0.00006654 0.00200120 0.00059382
O 10.56744666 18.08577854 16.99991866 -0.00036126 0.00461766 0.00242817
O 14.03297874 15.50616515 23.67506581 -0.00507560 0.00415065 0.00054506
O 11.58071066 16.92158385 31.56380805 0.00490021 -0.00179959 0.01109634
O 10.15001954 23.05383640 17.86648208 0.00065621 -0.00203623 0.00379442
O 15.29154579 22.27462677 25.81653032 -0.00113035 -0.00381954 0.00043163
O 10.76095477 23.27459621 25.67460327 -0.00052387 -0.00434396 -0.00031825
O 14.19749191 22.12174563 17.60690327 0.00280486 -0.00068252 -0.00336866
O 15.39868968 15.83685985 31.68014399 0.01306079 -0.00099507 0.00306531
O 10.38817948 16.85134275 23.19344033 -0.00212702 -0.00301455 -0.00604258
O 14.99157836 14.29790919 0.90588872 -0.00256791 -0.00316252 -0.00027617
O 10.69185562 18.25261013 25.34055555 -0.00268517 0.00039906 -0.00390050
O 10.12333996 24.90519073 23.86006072 -0.00639999 0.00388036 -0.00516295
O 14.60675812 20.69150161 15.60902971 0.00036412 -0.00363111 0.00013360
O 10.17523116 24.39937264 15.65674163 0.00494126 -0.00080193 0.00317908
O 14.82503453 20.64375206 23.81187310 -0.00203711 0.00095571 -0.00442201
O 14.90439385 13.93120055 25.64491640 0.00122198 0.00030999 0.00171541
O 10.76031779 18.26994968 0.88905030 0.00292841 -0.00492609 0.00556591
O 22.89670553 2.76199171 7.09458080 -0.00147317 -0.00615324 -0.00089658
O 19.11593688 3.66609718 15.27020687 -0.00627084 -0.00300342 0.00232035
O 18.67695885 10.35720335 1.57047744 0.00743101 -0.00641934 -0.00024897
O 23.57976382 9.22995752 9.59313842 0.00137265 0.00223156 0.00175842
O 19.78879926 10.21542979 9.62177122 -0.00285154 -0.00058069 -0.00541960
O 23.00195711 9.24277995 1.13877780 0.00060546 -0.00225201 -0.00316872
O 23.90295336 2.32441832 15.25940089 -0.00524256 0.00122745 -0.00151066
O 19.04348369 3.86885964 7.13104211 0.00207034 -0.00777350 0.00408211
O 22.92923716 1.04504656 17.17421378 0.00136534 0.00225468 0.00566995
O 19.23252762 5.31823085 9.24009734 0.00031896 -0.00239366 0.00215222
O 19.46217375 11.83057243 7.79056285 -0.00126807 0.00048803 -0.00053732
O 23.30981422 7.80008063 31.76151677 0.00227162 0.00330695 0.00075363
O 19.00694864 11.82113599 32.09624625 -0.00408867 -0.00295252 0.00550443
O 23.27090378 7.99059980 7.38725685 0.00388991 0.00190760 -0.00554694
O 23.55734460 1.03601935 9.00621205 0.00655451 -0.00172554 0.00143669
O 18.64699520 5.15472512 17.32167828 0.00124495 -0.00097617 -0.00429929
O 22.86715314 2.81949097 23.26073743 0.00155095 -0.00267624 -0.00296434
O 20.12095434 3.75146362 31.50919611 0.00022030 -0.00309196 0.00650656
O 19.08248135 9.97245995 17.69018038 -0.00088735 0.00394111 -0.00042169
O 23.94156883 9.45408293 25.67055204 -0.00428439 0.00073282 0.00468779
O 19.08469322 10.01460827 25.79677219 -0.00125221 -0.00843727 -0.00028510
O 23.13695776 9.01355190 17.52122434 -0.00151307 -0.00013097 0.00877064
O 24.16477730 2.72867393 31.61985784 -0.00066737 0.00564170 0.00400900
O 18.02404161 4.27288820 23.18997765 0.00281454 -0.00156597 0.00082399
O 23.42496052 1.30918243 0.96076357 0.00222125 -0.01048814 -0.00636981
O 19.03981924 5.05846423 25.39906474 0.00086468 -0.00176984 -0.00257965
O 18.77400200 11.69034523 23.79313367 -0.00291820 -0.00058238 -0.00278547
O 23.09732169 7.43164174 15.63183961 -0.00072969 0.00762360 -0.00455946
O 18.64629771 11.60696642 15.76587520 -0.00146469 -0.00105096 -0.00732060
O 23.26945314 7.79871897 23.76292093 0.00307652 -0.00084122 0.00490170
O 23.00360488 1.47509843 25.51463601 0.00194884 -0.00109462 -0.00533870
O 19.21353109 5.29305521 0.59318889 0.00656540 0.00066333 -0.00390293
O 22.63862289 15.25469210 6.47058652 0.00069933 -0.00467726 -0.00574710
O 19.29213625 16.75316432 14.83122827 0.00050696 -0.00064239 0.00093042
O 18.83188898 22.91131091 1.42547053 0.00007035 0.00173724 0.00333018
O 23.79086520 21.70091994 9.24600034 0.00091915 -0.00347061 0.00160923
O 19.53195608 23.10334290 9.42634513 0.00409134 -0.00282411 -0.00641468
O 23.29399103 21.78862611 1.03691569 -0.00617229 -0.00175957 0.00490502
O 23.51670014 15.69321269 15.00895648 0.00052240 0.00211458 -0.00474928
O 18.59073651 16.90397949 6.82292733 -0.00322483 0.00213752 0.00111061
O 23.14490281 14.19256948 17.17394046 0.00130682 0.00276669 -0.00104592
O 19.56298662 18.30485541 8.70702026 0.00364237 -0.00702538 -0.00074997
O 18.91037723 25.03115172 7.23650661 0.00174720 0.00290820 0.00123971
O 23.79925014 20.06282238 31.90908574 -0.00723873 0.00184698 -0.00043530
O 18.90187031 24.52001554 32.12732433 0.00104102 -0.00014002 -0.00564873
O 23.03764374 20.38080613 7.19264327 0.00051748 0.00079938 0.00640690
O 23.13324084 14.14843676 8.75273835 -0.00490099 0.00159302 0.00113329
O 19.08507241 17.82563468 17.18355230 0.00218585 0.00470524 0.00264471
O 22.79190332 15.86927994 23.29098005 -0.00175464 0.00469126 0.00092684
O 19.76568912 16.71629556 31.27282434 0.00452276 0.00351626 0.00238423
O 18.40293765 23.08991168 17.46114793 0.00249323 -0.00121405 -0.00028709
O 23.27644124 22.32022024 26.05406494 -0.00409852 -0.00250702 -0.00078350
O 19.42855075 23.38462056 25.98634369 0.00401710 0.00230126 -0.00043619
O 22.35282737 21.94665965 17.55423743 -0.00614730 0.00623479 -0.00002454
O 23.74563516 16.06064075 31.42890254 0.01095006 0.00473090 -0.00354114
O 18.43872283 16.67171802 23.41371517 -0.00396350 -0.00270937 -0.00213423
O 24.02509523 14.06831131 0.29147647 0.00393850 -0.00345840 -0.00094777
O 18.48680146 18.38330703 25.32351011 -0.00117620 0.00223157 0.00518594
O 18.86614159 24.66844906 23.73401491 -0.00052030 0.00530107 0.00049191
O 22.88670999 20.44109369 15.56758000 -0.00396820 0.00053204 0.00140781
O 19.40451206 24.73439220 15.53398179 -0.00245738 0.00599794 -0.00025064
O 23.24867227 20.56610757 23.91529367 0.00235963 -0.00548398 0.00434912
O 22.90563529 14.22792818 25.33604134 -0.00023820 -0.00292019 0.00016009
O 19.19635503 18.06421007 0.65351936 -0.00594663 0.00044440 -0.00642793
N 7.98284790 13.06016830 2.42785209 0.00273464 0.00207104 -0.00388221
N 0.74151077 6.01902192 10.57682827 0.00838460 -0.00751769 0.00764714
N 3.15192861 0.11203777 5.68293480 0.00774066 -0.00223660 0.00947091
N 5.53535218 6.38869892 14.11585069 0.00616078 0.00118751 0.00119299
N 0.73164024 25.62539207 13.78925741 -0.00055698 0.00498059 -0.01186008
N 7.54709013 6.57034602 5.68776575 0.00134781 -0.00559607 0.00218464
N 4.99900238 12.81171602 10.55546030 0.00331928 0.00559931 -0.00233249
N 3.53943335 6.39429804 2.34575039 -0.00374852 -0.00401683 -0.00052341
N 7.72319603 13.03337061 19.05128290 -0.00485773 -0.00600939 0.00349071
N 0.94764471 6.34309179 26.89106830 0.00329425 -0.00982699 0.00354569
N 2.84109697 25.77546218 22.02084957 0.00013382 0.00361059 -0.00356654
N 5.39898413 6.67890915 30.35249130 0.00099640 0.00422959 0.01092745
N 1.14722363 25.81909803 30.73621320 -0.00518621 0.00533831 0.00743564
N 7.31023207 6.53367303 22.32235257 -0.00437741 -0.00473675 -0.00295001
N 5.19454880 13.24022020 27.20357488 -0.00029469 0.00195267 -0.00641195
N 3.18080185 6.38595275 18.62665038 0.00478808 -0.00040631 0.00172257
N 7.73285037 25.78979212 2.58765197 -0.00132123 -0.00001319 -0.00117106
N 1.02316535 19.34060877 10.24170981 0.00778641 -0.00184835 0.00161177
N 3.52724794 12.98842046 5.86984271 -0.00564284 -0.00842570 0.00240808
N 5.06939873 19.22087203 13.79856906 0.00409384 -0.00015951 0.00411281
N 0.68670052 12.70800038 13.99391202 0.00330068 0.00118134 -0.00941455
N 7.49258797 19.41481747 5.83793411 0.00242309 -0.00315967 -0.00172257
N 5.14171755 0.51743429 10.52846388 -0.00130964 0.00109006 0.00333277
N 3.64788721 19.05936725 2.48644142 -0.00044670 0.00099347 0.00026905
N 7.20476018 0.10566647 18.90500283 0.00369950 -0.00528256 -0.00525115
N 1.04133947 19.31139658 26.71619166 -0.00164807 -0.00155927 -0.00566566
N 3.32925369 12.75837639 21.92110742 0.00185528 0.00620487 -0.00376372
N 5.21244933 19.58779619 30.58125646 -0.00555288 -0.00707351 0.00130552
N 1.29515733 12.84881601 30.10584828 -0.00163519 0.00498408 -0.00870251
N 7.41442782 19.74325678 22.29300587 -0.00010974 -0.00121641 0.00842402
N 4.85566758 0.51497985 27.43016073 0.00495837 0.00039576 -0.00509652
N 3.01229822 19.28736390 18.49979802 0.00265413 0.00635819 0.00410822
N 16.20605003 13.31745492 2.56259939 0.00048057 -0.00946367 0.00157049
N 9.27587942 6.32098491 10.63475084 0.00237027 -0.00814488 -0.00287775
N 11.93940762 0.00428262 5.85117269 0.00397915 0.00297677 0.00205652
N 13.44374833 6.73521744 13.92709523 0.00642499 0.00089926 0.00802500
N 9.65046447 25.77076637 13.92494701 0.00360677 0.00288735 0.00547721
N 16.34813257 6.90804405 5.88929585 -0.00031435 0.01038877 -0.00835524
N 13.81049624 13.14613187 10.75404759 -0.00365084 0.00662641 -0.00689062
N 11.96898028 6.55817628 2.51187011 0.00360258 0.00519224 0.00681887
N 15.84133357 12.89898059 19.01693207 -0.00357107 -0.00009133 0.00331885
N 9.32052291 6.35479597 26.95037240 0.00273994 -0.00015293 0.00707075
N 11.47844991 0.14077211 22.41424887 -0.00563534 0.00423095 -0.00150353
N 13.70417416 6.39824302 30.41584860 -0.00549137 0.00128593 0.00086201
N 9.27717555 25.82038229 30.46882142 -0.00784206 -0.00143231 0.00118539
N 15.71352927 6.00320157 22.05339047 0.00425075 -0.00370632 -0.00700731
N 13.65941040 12.94536021 27.27521402 -0.00167401 -0.00445872 -0.00135183
N 11.78301672 5.96301929 18.69497258 -0.00127948 -0.00060649 0.00724925
N 16.23989005 0.06684322 2.64295458 -0.00056983 -0.00727582 -0.00058322
N 9.47234478 19.44051203 10.57194471 0.00220915 0.00960590 -0.00055190
N 11.80387715 13.08495788 6.08740132 0.00428646 0.00271060 -0.00592753
N 13.50862934 19.61961351 13.94466570 -0.00524477 -0.00353978 -0.00262103
N 9.56659415 12.73041277 14.17453459 -0.00471688 0.00054324 0.00103509
N 16.18068590 19.55542857 5.63232045 0.00240068 0.00184421 0.00193710
N 13.60895451 0.09303955 10.51412343 -0.00132272 0.00256563 -0.00460398
N 12.03244089 19.26548749 2.50241704 0.00407861 0.00037841 -0.00185332
N 16.03373579 0.38628422 18.69652834 0.00471062 0.00055472 0.00229251
N 9.58789782 19.34382540 27.00620857 0.00719456 -0.00356075 0.00274365
N 11.86956123 12.65312420 22.61221144 -0.00247377 -0.00492152 0.00458376
N 13.56907048 19.95825450 30.50615151 -0.00306887 0.00105587 -0.00242079
N 9.89458039 13.09781525 30.63154283 -0.00338165 0.00123882 -0.00626520
N 15.42025521 19.14036930 22.12016464 -0.00166116 0.00491630 0.00637907
N 13.69074953 0.01978700 26.90527758 0.00029141 0.00607132 -0.00359190
N 11.55032569 19.46132315 18.53825062 0.00301502 0.00194328 0.00073227
N 24.71105134 12.74266476 1.99135182 -0.00805009 0.00184265 -0.00345213
N 17.79270665 6.38891322 10.64381966 0.00066809 -0.00009795 -0.00109178
N 20.55826529 25.84682412 5.78844776 0.00092877 -0.00131010 0.00551718
N 22.07012532 6.29442729 13.98665027 0.00964513 -0.00399387 0.00027389
N 17.80507905 25.51822163 14.11829658 0.00312247 -0.00347479 0.00276496
N 24.53737422 6.81671331 5.85190581 0.00151119 0.00282670 0.00175475
N 22.05502141 12.90732829 10.37369488 -0.00073282 0.00151156 -0.00020716
N 20.22456165 6.59319982 2.35593619 -0.00136089 -0.00699313 0.00430261
N 24.35734222 13.06945634 18.75286089 -0.00141873 -0.00329308 0.00472361
N 17.89724063 6.23225389 27.00684726 -0.00066939 -0.00115822 0.00127885
N 19.99928395 25.78066891 22.10257420 0.00175353 0.00438740 0.00106235
N 22.40628355 6.52008108 30.08239827 0.00302678 -0.00640530 0.00174564
N 17.95804082 25.87963466 30.53922086 0.00444153 -0.00048517 0.00993248
N 24.40405528 6.37627842 22.23745027 -0.00699984 -0.00067019 -0.00300447
N 22.15787485 12.96322215 27.08598077 0.00758734 0.00097012 0.00137946
N 20.17825573 6.18563827 18.68118319 -0.00566963 -0.00326023 -0.00495690
N 24.69403551 0.23684702 2.49856059 -0.00490230 -0.00177735 0.00093687
N 18.12508347 19.56435434 10.00139431 -0.00297433 0.00014786 0.00368698
N 20.39092274 13.09694328 6.10165482 -0.00118787 -0.00334128 -0.00764087
N 22.06435334 19.16824356 13.86888171 -0.00747846 -0.00341787 0.00072954
N 17.58008092 12.63393172 14.04177016 -0.00856311 0.00459659 0.00207475
N 24.57062258 19.28326594 5.78207198 0.00614119 0.00873149 0.00246745
N 22.10075525 0.12730965 10.47033491 -0.00585366 -0.00894289 0.00266477
N 20.25867162 19.33686423 2.26274959 0.00089558 -0.00089860 0.00306247
N 24.14528187 25.69207125 18.67485179 0.00252138 -0.00250513 -0.00099685
N 17.81513205 19.66514963 27.08776219 -0.00337594 -0.00192617 -0.00081630
N 19.96308836 12.88212461 22.30513032 0.01021614 -0.00342305 0.00215048
N 22.41989237 19.08787551 30.38772240 -0.00187375 -0.00193058 -0.00275845
N 18.00288754 12.95359066 30.36433878 0.00149935 -0.01006008 0.00311510
N 24.34202351 19.47963539 22.20068679 0.00431808 -0.00834609 0.00281242
N 21.68589218 0.51316420 27.13883467 0.00289353 0.00117759 0.00082663
N 20.00031359 19.25327347 18.81410012 -0.00438012 0.00707118 -0.00114420
C 7.92522398 0.38100969 4.99410147 0.00731581 -0.00595312 -0.00210724
C 0.69273410 5.82694480 13.02725176 -0.00014872 0.00647746 0.00700111
C 3.65525325 12.77477698 3.56592089 -0.00057713 0.00159261 0.00191779
C 5.12833656 6.90155434 11.77588995 0.00232069 0.00145522 0.00928529
C 0.78531244 12.60914977 11.54654642 -0.00225401 -0.00369190 0.00066996
C 7.68149081 6.96542613 3.32863982 0.00304903 0.00389976 0.00141770
C 5.00511155 0.53552573 12.97116060 0.00273198 -0.00501415 0.00429929
C 3.59393465 6.18703590 4.67989637 -0.00107952 -0.00084184 -0.00166516
C 7.55494116 1.18195989 6.14051858 -0.00332532 0.00023783 -0.00347737
C 1.09649456 5.22272104 14.24317189 -0.00240987 -0.00289723 0.00974681
C 3.37309690 12.07699416 2.34674465 0.00121930 0.00034424 -0.00524855
C 5.63744024 7.43891308 10.67419548 0.00721367 -0.00281504 0.00615654
C 1.17559068 11.96352040 10.36402555 0.00834696 0.00757944 -0.01754635
C 7.24062601 7.67979739 2.26444994 0.00190237 0.00032733 0.00362740
C 5.54421052 1.01409793 14.21189303 -0.00001660 0.00634258 0.00339001
C 3.18385482 5.71211646 5.92627876 -0.00137695 0.00018379 -0.00001909
C 6.49087033 2.06684345 5.95848874 0.00333365 0.00799537 -0.00331929
C 2.04661672 4.21584825 14.18252463 -0.00135631 0.00752500 0.00669050
C 2.62960009 10.81429781 2.37997640 -0.00514536 -0.00305548 -0.00663791
C 6.28258725 8.65971945 10.68128034 0.00422598 0.00314448 0.00528990
C 1.96414203 10.82827944 10.42939836 0.01069537 0.00180564 0.00545496
C 6.26854486 8.72172416 2.41776959 -0.00932416 0.00439239 0.00170882
C 6.48526164 2.07299901 14.21576451 0.00595191 0.00985751 0.00339739
C 2.23657194 4.69889120 5.87052779 -0.00228385 -0.00365496 -0.00204446
C 6.10309504 2.48611700 4.68468371 -0.00278134 -0.00165715 -0.00067457
C 2.50916764 3.75792045 12.99070685 0.00022832 -0.00357444 -0.00217194
C 2.25463666 10.25650895 3.60563599 0.00337771 -0.00390670 -0.00214849
C 6.50068830 9.28435569 11.93016172 -0.00172074 -0.00075552 0.00144667
C 2.08902650 10.14217817 11.66538119 0.00252963 0.00439054 -0.00372933
C 6.09158727 9.19953050 3.70176042 0.00724580 -0.00120416 0.00000992
C 6.74353076 2.73792027 13.08512509 -0.00381272 -0.01232024 -0.00721753
C 1.85040642 4.12227430 4.66889981 -0.00659654 0.00868515 0.00878031
C 6.66546228 1.91414831 3.55256237 -0.00340014 0.00367677 0.00321394
C 2.06448603 4.26001201 11.80566094 -0.00875081 -0.00180376 0.00329685
C 2.43824676 11.02752260 4.73907591 -0.00282708 -0.00143883 0.00066516
C 6.17594024 8.56024121 13.07241492 -0.00117673 0.00770548 -0.00488841
C 1.64038049 10.73258969 12.84067173 -0.00720721 0.00340551 -0.00202499
C 6.58118630 8.56786779 4.80594723 0.00183627 -0.00125874 0.00430670
C 6.27317602 2.36248292 11.82218630 -0.00225618 -0.00479463 -0.00002146
C 2.20216693 4.61677380 3.44922656 -0.00162615 -0.00392917 -0.00498167
C 7.48955091 0.71963183 3.68098521 -0.00255330 -0.00793602 -0.00243574
C 1.14064303 5.35470923 11.77814051 -0.00453338 0.01119443 -0.00088269
C 3.22126251 12.23581163 4.74616775 0.00553404 0.00832313 -0.00767208
C 5.54056591 7.28816267 13.03635734 -0.00080255 -0.00779128 -0.00163896
C 1.03967523 11.99466543 12.81599531 -0.00167364 0.00308844 -0.00162512
C 7.25656216 7.35157078 4.60807806 -0.00773739 -0.00211157 0.00071486
C 5.41923574 1.15878335 11.76750041 0.00417817 -0.00512417 -0.00472681
C 3.06641700 5.75295926 3.50081526 -0.00131396 -0.00180429 0.00187723
C 7.15628401 0.07302173 1.29594157 0.00035004 0.00259492 0.00312456
C 1.39991357 6.19754123 9.45217087 0.00155314 -0.00437964 0.00296201
C 2.85280323 12.79535589 7.04213616 0.00335014 -0.00408101 -0.00676652
C 5.92737632 6.69620476 15.39114481 0.00180274 -0.00487113 -0.00389159
C 1.12955197 12.39634541 15.20765365 0.00373716 0.00264406 0.00200148
C 6.78024533 6.62525960 6.84722246 0.01150050 -0.00148358 -0.00151944
C 5.98660062 0.58131428 9.43368161 -0.01154456 0.00106204 0.00513104
C 2.86810492 6.29470257 1.18856910 0.00618635 -0.00715646 -0.00406220
C 7.37105984 11.76253773 16.98849499 0.00350363 -0.00237449 0.00090645
C 1.31277924 7.60230355 8.79728056 0.00199645 -0.00207653 0.00388611
C 2.49166433 1.25586335 7.65540303 -0.00006180 0.00619362 -0.00074366
C 5.81770299 5.68044786 32.46199592 0.00392859 0.01258717 -0.00097883
C 1.75563539 0.92959108 0.07079789 0.00343733 0.00016400 -0.00176094
C 6.47685035 5.21155539 7.32863086 0.00284633 -0.00146680 0.00169256
C 5.58209160 11.82677622 8.36902231 0.00248361 0.00226825 0.00377246
C 2.88690162 7.18955604 16.39693765 0.00397719 0.00987215 0.00384339
C 7.26750711 0.44737494 21.26932360 0.00937601 0.01110644 0.00176102
C 1.09458984 6.23268101 29.31374247 0.00080604 0.00092344 -0.00249548
C 3.16748141 12.37733960 19.67533521 -0.01159596 0.00204430 -0.00181343
C 5.31588352 7.08121552 27.96238950 -0.00068910 -0.00211338 -0.00100996
C 1.14988048 12.33265206 27.81344095 0.00008718 0.00516041 0.00076518
C 7.55869371 6.98852710 19.97016972 0.00199126 0.00091845 -0.00999265
C 5.26392268 0.43434688 29.74520706 0.00046708 -0.00369015 0.00156833
C 3.29734054 6.06317648 20.95123077 0.00395660 0.00094530 0.00540823
C 6.80509016 1.01567590 22.42478939 0.00321972 0.00066850 0.00241709
C 1.28793572 5.50738742 30.44704173 0.00716978 0.00270584 0.00218056
C 2.80687011 11.60711709 18.61208076 -0.00318733 0.00010994 -0.00575863
C 5.61199238 7.77845190 26.79772225 -0.00072215 0.00200129 -0.00394681
C 1.69648128 11.62689650 26.73196751 -0.00517514 -0.00392009 -0.00204489
C 7.11380629 7.62957988 18.84870396 0.00382960 -0.00514307 0.00384300
C 5.61634262 0.99744081 30.95243176 -0.00560828 -0.01073074 0.00228810
C 2.96632026 5.48946066 22.20553035 -0.00633217 0.00099646 0.00076571
C 6.00860477 2.17743615 22.32129840 -0.00476352 -0.00110947 0.00550374
C 1.99615727 4.30463953 30.41619578 -0.00021634 -0.00711645 0.00366159
C 1.89696792 10.52470092 18.78518811 -0.00005639 -0.00392063 0.00166649
C 6.54323185 8.86237045 26.94205608 -0.00087464 0.00550478 -0.00348345
C 2.48419828 10.53216564 26.91070254 -0.00955886 0.00111588 -0.00156131
C 6.14647523 8.68531068 18.93236962 0.00384906 0.00113276 0.00172790
C 6.23941961 2.26928548 30.92409872 0.00422600 -0.00615124 -0.00267226
C 2.03993583 4.43988947 22.20097540 0.00109027 0.00007129 -0.00709738
C 5.66886969 2.68918352 21.06018546 0.00385005 -0.00734101 0.00011738
C 2.42194700 3.78133107 29.18952275 0.00787849 0.00454909 -0.00922848
C 1.58483366 10.14822713 20.07066132 0.00050429 -0.00181176 0.00126777
C 6.76860185 9.42194074 28.26640714 -0.00138282 -0.00630939 -0.00720258
C 2.42101158 9.97146408 28.21759363 -0.00574772 -0.00240163 -0.00086522
C 5.97359061 9.21838711 20.19476666 -0.00329693 0.00038430 0.00848572
C 6.60127630 2.78395609 29.65582960 -0.00007688 0.00069023 -0.00417577
C 1.74634221 3.83134788 20.96982857 -0.00112483 -0.00859242 -0.00609582
C 6.10048163 2.09042577 19.88903869 0.00890580 -0.00409920 0.00438480
C 2.12236261 4.48057120 28.03700936 -0.00579800 0.00119077 0.00308208
C 2.14838856 10.66472857 21.20611799 0.00557412 0.00515003 -0.00296250
C 6.38140344 8.68817383 29.37788901 -0.00048655 0.00083064 0.00254497
C 1.96021722 10.62217914 29.28361170 -0.00182047 -0.00154990 0.00145626
C 6.34153580 8.57431114 21.33361235 0.00160037 -0.00163327 -0.00048872
C 6.20527987 2.29740627 28.43539823 0.00718846 0.00368990 -0.00024702
C 2.08059227 4.40136513 19.75420076 -0.00300074 -0.00995025 0.00322509
C 6.87559397 0.89551835 19.96649947 -0.00295891 -0.00012907 0.00145769
C 1.37705236 5.73039415 28.02320940 -0.00719949 0.00114445 0.00998028
C 2.88155755 11.91328906 20.97958719 0.00709698 0.00700445 -0.00332171
C 5.71136736 7.49000519 29.20234992 -0.00267961 -0.00462061 0.00166963
C 1.41469512 11.92408803 29.07776402 -0.00420084 0.00836808 0.00099714
C 7.15426974 7.39493633 21.27353669 0.00599153 0.00187024 -0.00355902
C 5.46803543 1.07831032 28.52199254 0.00119458 -0.00026633 0.00154923
C 2.83780840 5.59006091 19.74814556 -0.00451773 0.00735620 0.00324006
C 6.63778484 0.16861449 17.66439950 0.00708793 0.00323441 0.00221869
C 1.59420227 6.14831157 25.67899600 0.00278173 0.00804441 -0.00158883
C 2.99919257 12.66295306 23.23054859 -0.00027397 -0.00597696 0.00602562
C 5.87053643 6.89855268 31.59405273 0.00140232 -0.00487170 -0.00528655
C 1.82911032 12.78588260 31.36544613 -0.00882503 -0.00026359 0.00781522
C 6.83603578 6.76519903 23.57919273 -0.00101195 -0.00006935 -0.00249060
C 5.43666136 0.53683122 26.17819093 -0.00349593 0.01001042 0.00143071
C 2.58332470 6.14293427 17.45227883 0.00150983 -0.00199599 -0.00217451
C 7.54083703 11.81974612 0.41009040 0.00497783 0.00502882 -0.00121159
C 1.45135294 7.23559477 24.61321334 -0.00146849 0.00004188 -0.00283779
C 2.37144051 1.05300870 24.07677645 0.00154053 0.00185815 -0.00343814
C 5.91098187 5.47490075 16.23330752 -0.00107532 0.00255822 0.00208237
C 1.46924649 0.92331610 15.78539321 -0.00190368 -0.00142925 -0.00179709
C 6.72923080 5.54343804 24.50722433 0.00059085 0.00052495 -0.00822660
C 5.68700983 12.16600266 25.00470734 0.00049584 0.00884570 -0.00683488