1920
Time=41000.00000002 pbc="T T T" Lattice="25.63660178 0.00000000 0.00000000 0.00000000 25.77424493 0.00000000 0.00000000 0.00000000 32.72975701" energy=-12245.93571794 virial="-79.72548708 14.22634159 -9.19240806 14.22634159 -47.39443891 28.22064157 -9.19240806 28.22064157 -64.94046574" stress="-0.00146059 0.00067777 -0.00044187 0.00067777 0.00025536 0.00131158 -0.00044187 0.00131158 -0.00073185" Properties=species:S:1:pos:R:3:vel:R:3
O 6.25943273 2.62234822 7.00121667 0.00005775 -0.00112763 0.00589831
O 2.89958133 4.12211237 15.22784211 0.00216007 0.00235964 0.00262228
O 1.84119135 9.94431518 1.29211618 -0.00733251 -0.00386770 0.00132452
O 7.25306973 9.05001082 9.50274382 -0.00609353 0.00079297 0.00573111
O 2.36633867 10.36991422 9.46660713 -0.00308170 -0.00461696 0.00109665
O 6.00335339 9.57693723 1.26737853 -0.00025258 -0.00175367 -0.00230649
O 7.27274860 2.64574069 15.20129501 -0.00411756 0.00183084 0.00205413
O 1.28736511 3.60169189 6.89170864 -0.00364906 0.00277779 0.00089131
O 6.64983465 1.29392608 17.18776611 0.00157374 -0.00142083 -0.00439786
O 2.02647027 4.66315132 9.08221676 0.00094845 0.00716366 -0.00022900
O 1.60050854 11.88845285 7.45249530 0.00068387 0.00031619 -0.00331986
O 5.97369628 7.69234169 32.10097867 0.00136974 0.00022891 -0.00234528
O 1.37341464 11.50204547 31.94723190 -0.00138776 0.00723980 -0.00052528
O 6.07532479 7.84513287 7.48618997 -0.00424951 -0.00201394 -0.00208706
O 6.52281311 1.20374548 9.10612053 0.00451999 0.00193870 0.00504735
O 2.17116627 5.12015011 17.37289241 0.00568684 0.00612950 -0.00185612
O 6.03805519 2.83770924 23.55991377 0.00178945 -0.00837596 -0.00301660
O 2.56932294 3.74251568 31.61280804 0.00236039 -0.00455105 0.00319546
O 1.65245432 10.05759192 17.48688340 -0.00402447 -0.00223983 0.00119098
O 6.93033635 9.43656619 26.06979100 -0.00323600 0.00007842 0.00035977
O 2.83233687 10.47513461 25.80306773 0.00405742 -0.00465269 0.00292372
O 5.96877946 8.97275971 17.57367818 -0.00009676 0.00133356 -0.00127708
O 6.77080631 2.71767239 31.41592628 -0.00016824 -0.00586887 0.00405417
O 1.74259078 4.06134181 23.71484155 0.00398448 0.00255866 0.00804788
O 6.38894276 1.31392292 0.80323124 0.00199637 -0.00632358 -0.00420532
O 2.46551837 5.66004180 25.47601437 0.00025236 -0.00597810 -0.00200615
O 2.13033179 11.44363339 23.64800779 -0.00058020 0.00294363 0.00567610
O 6.55667560 7.72858900 15.57137989 0.00260362 -0.00027547 -0.00471155
O 1.86561710 11.74381848 15.57611074 0.00997380 0.00069342 -0.00248781
O 6.66670126 8.07507355 23.84936494 -0.00435617 -0.00176906 0.00173421
O 6.42631101 1.12048802 25.30282185 -0.01152325 -0.00331116 -0.00084213
O 1.71319618 5.24725305 0.86701073 0.00577088 -0.00402660 -0.00452356
O 5.81570876 15.52672185 6.81296234 -0.00299513 -0.00107400 0.00201875
O 2.92192056 16.76558326 15.04024258 0.00604465 0.00121001 -0.00479310
O 1.52910411 22.94473245 1.43288985 -0.00557343 -0.00418106 0.00497131
O 6.95152300 22.04338130 9.19032624 0.00113214 0.00118442 0.00198654
O 2.66076065 23.29564046 9.42068391 0.00616709 0.00016324 0.00411455
O 6.29462466 21.99358247 1.04456819 -0.00452843 -0.00055048 0.00206374
O 7.12245010 15.53724747 15.25638873 -0.00231569 0.00607107 -0.00482748
O 1.33470627 16.51767314 6.85582878 0.00142871 -0.00402964 -0.00411402
O 6.77975623 14.05042451 17.26142488 0.00215302 0.00060178 -0.00182749
O 1.82722212 18.11341559 8.82192995 0.00517121 0.00460223 0.00191241
O 1.71628124 24.75149141 7.55469757 0.00241069 0.00704858 -0.00228278
O 6.37128282 20.36185753 31.80182316 -0.00151552 -0.00141889 0.00254594
O 2.25795890 24.47374644 32.27139563 0.00247162 -0.00065256 -0.00119123
O 6.23708498 20.41257732 7.36364493 0.00090461 0.00092370 0.00049487
O 6.21057410 14.22432291 9.04185133 0.00454648 -0.00299704 -0.00794622
O 2.72421555 18.34464504 17.02110794 -0.00071922 -0.00610010 0.00360031
O 5.46001349 15.42315567 23.30068388 0.00056782 -0.00209796 -0.00214283
O 2.21832447 16.51085866 31.34944728 -0.00073535 -0.00153197 -0.00108182
O 1.59010564 23.10124378 17.60174538 0.00050218 0.00721588 -0.00097139
O 6.96392984 21.96975099 25.48644428 -0.00268033 -0.00148632 -0.00051327
O 2.68665085 23.05895299 26.11933243 0.00019021 0.00215233 0.00332291
O 6.13680991 22.12625096 17.36843959 -0.01160304 0.00604159 0.00014973
O 6.96795581 15.31613579 31.64824126 -0.00033117 0.00507632 -0.00443767
O 1.62053734 16.44968662 22.89405692 0.00047935 -0.00312013 -0.00738136
O 6.03469830 13.86327152 0.68098491 0.00183474 -0.00048540 -0.00327112
O 1.94438896 18.08208466 25.02418570 -0.00133232 -0.00424399 0.00067274
O 2.44760442 24.53395803 23.79636365 0.00470056 0.01002403 -0.00184965
O 6.47725906 20.37533656 15.24245455 0.00042490 -0.00149935 -0.00430181
O 2.09443879 24.67398126 15.57871303 -0.00043214 -0.00148482 -0.00103528
O 6.51211305 20.46427644 23.37144060 -0.00157390 0.00263173 0.00595860
O 6.56338576 14.28529193 25.48562525 0.00256859 -0.00311667 -0.00403718
O 2.13779835 18.10755755 0.64983602 -0.00832544 0.00032334 0.00329778
O 14.25784704 2.71687211 7.01034648 -0.00647105 0.00309714 -0.00051428
O 11.28102233 3.37053334 15.17198460 0.00261988 0.00362724 -0.00279172
O 10.58666594 10.56405052 1.11684056 0.00117709 0.00129628 0.00091016
O 15.34487294 8.93861946 9.08794541 0.00121709 0.00432461 0.00213253
O 10.92298811 10.16008256 9.34634979 -0.00069003 0.00741000 0.00641244
O 14.85705515 9.41477215 1.25989999 -0.00584000 0.00355069 -0.00552651
O 15.44516576 2.63833939 14.99242914 -0.00097331 0.00074350 0.00346912
O 9.68157666 3.76154571 6.87349410 -0.00213393 -0.00437995 0.00170539
O 15.00752878 1.26765847 17.23602715 -0.00396080 0.00684792 -0.00434353
O 10.31742973 5.06335297 9.23176240 0.00581795 0.00188277 -0.00181859
O 10.61779895 11.69242494 7.41611335 0.00073933 -0.00327556 0.00323956
O 14.97194475 7.54890696 32.22907957 -0.00012625 -0.00002163 -0.00046664
O 11.13125934 12.15851794 31.85266105 0.00001084 0.00269553 -0.00193293
O 14.61632854 7.49996615 7.17510114 -0.00269204 -0.00179410 0.00291420
O 14.40711949 0.96854516 8.87183056 0.00259089 0.00003317 -0.00002066
O 10.73385062 5.04771426 17.44878722 0.00562286 0.00360393 -0.00169648
O 14.25592732 2.87460686 23.30768374 -0.00121370 0.00232199 0.00927870
O 11.20160083 3.65319368 31.30738545 -0.00488906 0.00174754 0.00281506
O 10.76393621 10.14172774 17.57998655 -0.00152791 0.00218709 -0.00089934
O 15.38444422 9.20960049 25.86320440 -0.00139821 0.00534271 0.00401530
O 11.26149727 10.12901647 26.00375250 0.00309646 0.00249712 -0.00250728
O 14.34517355 8.92865843 17.61721142 0.00181354 0.00188268 -0.00089889
O 15.44813063 2.40607637 31.65036958 -0.00320227 -0.00178869 0.00213938
O 10.01287361 4.21134118 23.63243420 0.00471254 0.00320396 -0.00240749
O 14.51632522 0.93034727 0.99672355 0.00100718 -0.00042276 -0.00234371
O 10.86112243 5.63314252 25.43137714 0.00002223 -0.00176132 0.00264113
O 11.13262486 11.68309387 23.81881774 -0.00497259 0.00078614 -0.00009948
O 15.18674194 7.92101498 15.45992305 0.00047816 -0.00231838 0.00062787
O 10.64082085 11.72784484 15.67317043 -0.00832373 0.00042019 0.00300015
O 15.26995587 7.63852496 23.83260185 -0.00869764 0.00528424 0.00856258
O 14.68890573 1.28489363 25.34479197 0.00395029 -0.00266114 -0.00302728
O 10.75258145 5.30330527 0.73758993 -0.00210164 0.00149618 0.00184967
O 14.40985157 15.60083846 6.56207773 0.00123299 0.00039402 -0.00215713
O 11.09165737 16.63798224 14.96022818 -0.00177392 -0.00051672 0.00349418
O 10.00379571 23.00170482 1.22047754 -0.00406278 -0.00677456 0.00431545
O 15.68014616 21.88364206 9.21986704 0.00231546 -0.00173154 -0.00204085
O 10.76459594 22.68862868 9.64255198 0.00020528 -0.00234539 0.00241578
O 14.05251269 22.06496140 1.53883930 -0.00636191 -0.00369912 0.00628540
O 15.28533200 15.87232647 14.67930431 0.00096376 0.00202473 0.00415126
O 10.02053725 16.38369056 6.86130317 0.00114575 -0.00652935 -0.00381257
O 15.04856368 14.20348185 16.62271715 0.00027602 -0.00113659 0.00075931
O 10.37184452 17.98982977 8.85406472 -0.00157484 -0.00226052 -0.00930873
O 10.83986708 24.36463585 7.56513332 -0.00096464 -0.00011840 0.00096298
O 14.55873264 20.66459662 32.14389409 0.00289579 0.00128720 -0.00121115
O 10.24757866 24.79582387 32.12315734 -0.00310694 0.00113535 0.00469808
O 14.97236698 20.25574608 7.62911284 0.00153346 0.00068002 0.00158583
O 14.85504351 13.89106180 8.61345402 0.00026473 -0.00960227 -0.00146422
O 10.83641967 18.51026435 17.01941725 0.00272756 0.00042142 -0.00009257
O 14.89170061 15.56977499 22.95917475 -0.00193951 -0.00585150 0.00406911
O 11.24696190 17.05399344 31.29637699 -0.00101105 0.00107039 0.00244883
O 10.51792193 23.35220370 17.99189816 0.00137033 -0.00242263 0.00529579
O 15.66404784 22.39744948 26.05953762 0.00632736 -0.00562212 0.00318045
O 10.67223532 22.76679045 26.20091175 -0.00223434 0.00186950 -0.00083589
O 14.66531057 21.88876091 17.45977753 -0.00202308 -0.00532481 0.00132299
O 14.81857760 15.73855029 31.17537504 0.00013990 0.00190163 -0.00077880
O 10.32800123 16.19015033 22.95250818 0.00323841 -0.00158054 0.00252618
O 14.94541194 14.08032008 0.35876634 -0.00121169 0.00176680 0.00507892
O 10.30578103 17.74409768 25.09965700 0.00688241 0.01132168 0.00397442
O 11.17375840 24.57131425 24.33984925 0.00251579 0.00393471 -0.00107884
O 14.90548135 20.45213149 15.32036435 -0.00691008 -0.00301449 -0.00410087
O 10.87359434 24.49040093 15.64060450 0.00443742 0.00523293 -0.00266774
O 15.21595190 20.69616475 23.87341774 -0.00563663 -0.00066560 0.00224722
O 15.08227446 14.18639311 25.00414447 0.00294624 0.00052608 0.00002774
O 10.69530167 18.33147716 0.91449923 0.00361931 0.00551999 -0.00372845
O 22.95427841 2.44455917 7.17972505 0.00152339 -0.00098537 0.00513150
O 20.36009948 3.97511912 15.09192762 0.00323391 0.00039636 0.00579193
O 18.95404602 10.16437083 1.13162315 0.00059839 -0.00110286 -0.00379964
O 23.97207781 9.03408469 9.52864755 -0.00470312 -0.00171608 -0.00553044
O 19.50895686 10.09721054 8.91798137 -0.00263373 -0.00575849 -0.00208507
O 22.62354545 9.13414036 1.52975647 0.00108955 -0.00902906 0.00152576
O 24.16679279 2.95904695 15.29942433 0.00133479 0.00059210 0.00112682
O 18.88532354 3.20035538 6.84635045 0.00221401 -0.00012994 0.00013857
O 23.82562366 1.32103167 17.20725369 -0.00083167 0.00024651 0.00708966
O 19.31454493 4.87497300 8.96282061 0.00305204 0.00189720 0.00100248
O 18.77116256 11.81817713 7.23339431 -0.00189791 -0.00032338 0.00010448
O 22.99176454 7.60771806 32.20832395 0.00707375 -0.00303841 -0.00172452
O 19.19356194 11.51399010 31.53930516 0.00315014 0.00721171 -0.00183031
O 23.27396068 7.45431684 7.49164762 -0.00115975 0.00776534 0.00421743
O 23.59842654 1.03183566 9.31388553 -0.00286290 -0.00232892 -0.00499527
O 19.62771777 5.33400033 17.25713201 -0.00622745 0.00411165 -0.00812488
O 23.25548865 2.73900596 23.47370514 -0.00094928 0.00007180 0.00870729
O 19.41863556 3.08815140 31.74402651 0.00011774 0.00170301 -0.00045305
O 18.77165405 10.36596182 17.38817119 0.00299714 -0.00287833 0.00058533
O 23.63533761 9.22629425 25.98013483 -0.00272998 -0.00605639 -0.00257114
O 19.43399924 9.75771025 25.32005500 0.00307617 -0.00543800 -0.00315899
O 23.32241226 9.39718949 17.73310235 0.00816394 0.00453250 0.00160990
O 24.40836290 2.54156328 31.34050047 -0.00139163 0.00471707 -0.00222261
O 18.89522120 3.73652040 23.34444904 0.00565137 -0.00771622 -0.00004195
O 23.84302088 1.15266793 0.91791226 0.00156314 0.00074304 0.00355241
O 18.88061659 4.72389360 25.72751324 -0.00150065 0.00328299 0.00511590
O 19.26951793 11.75427042 23.50908329 -0.00490746 -0.00027542 0.00450829
O 24.09626703 7.79072390 15.80713907 0.00498127 -0.00154923 -0.00257382
O 19.15086750 11.70528980 15.13015544 -0.00166046 -0.00197687 0.00301471
O 23.63831483 7.78972776 23.85046980 -0.00310481 0.00406466 0.00253895
O 23.52116488 1.08388123 25.43095942 0.00099622 0.00487446 0.00507029
O 19.27236532 5.13569761 0.83270857 -0.00225377 -0.00696476 0.00205567
O 22.66870774 16.01890200 6.81211452 0.00177339 -0.00703465 -0.00154232
O 19.27288423 16.53026507 14.96933036 0.00371224 0.00247218 -0.00219534
O 18.44553407 23.09361414 1.67847653 -0.00190186 -0.00075053 -0.00333947
O 24.34390485 22.04768274 9.63199089 -0.00267820 0.00205888 -0.00023658
O 19.46332303 22.60718637 9.67097464 0.00299329 -0.00546162 0.00313190
O 22.94873124 21.68903788 0.98382469 -0.00384843 -0.00852040 -0.00256774
O 24.00141952 15.77930951 14.98484379 -0.00091604 0.00427309 0.00737099
O 18.85385103 16.87037748 6.76049838 -0.00225876 0.00185224 -0.00728053
O 23.83983846 14.28079176 17.15635727 0.00060371 0.00193669 -0.00602758
O 19.41239747 18.08835833 8.82067790 -0.00543784 -0.00260774 0.00351494
O 19.50746298 24.43979239 7.72763466 0.00084135 -0.00594266 0.00477491
O 23.62535613 20.33977485 31.54462451 -0.00064176 0.00659806 0.00292285
O 18.98516659 24.25864028 32.09819161 0.00016288 0.00252490 0.00204194
O 24.08096160 20.77701790 7.30986675 -0.00702336 -0.00766262 -0.00720172
O 22.99994831 14.32592026 8.84915498 -0.00385619 -0.00068185 -0.00259460
O 19.29573558 17.98893635 17.02296907 -0.00425586 0.00492801 0.00178329
O 23.17241017 15.55893184 23.34221611 0.00283046 0.00494142 -0.00377738
O 19.16321386 16.44730756 31.39175335 0.00619722 0.00985663 0.00125744
O 19.06099253 22.85712237 17.91583025 0.00303592 -0.00153498 0.00646709
O 24.28118060 22.20038325 25.69136314 0.00555581 0.00683008 0.00103056
O 19.69127018 23.25601867 25.73170389 -0.00049543 -0.00010485 0.00049974
O 22.80877790 21.90755244 17.54105357 0.00207827 0.00249076 -0.00452332
O 23.85605518 15.75063897 31.27464047 0.00335392 -0.00055525 0.00224187
O 18.81341026 16.93326529 23.47104135 0.00051041 -0.00144256 0.00866401
O 23.61008224 14.18307135 0.71492204 -0.00037291 -0.00066135 0.00035550
O 19.52568657 18.45429746 25.38659678 0.00048950 0.00559478 -0.00330999
O 18.98638685 24.97919446 23.89894358 -0.00588533 0.00227422 0.00279836
O 23.00716548 20.33720077 15.53200902 -0.01059340 0.00348002 -0.00271170
O 19.09422218 24.64213631 15.83011486 0.00590201 -0.00342779 -0.00103238
O 23.79826900 20.59293554 23.75555199 -0.00286567 0.00210534 -0.00067239
O 23.54065311 13.74152353 25.21530503 -0.00017665 0.00292108 0.00526840
O 19.41651327 18.08351196 0.68966595 -0.00029373 -0.00264417 0.00619058
N 7.41124126 12.84754811 2.20627348 0.00230938 0.00882927 -0.00175482
N 0.90128227 6.02637049 10.53945537 0.00333559 0.00711600 -0.00298462
N 3.32916709 25.43233182 6.01426150 0.00346381 -0.00208322 -0.00290418
N 5.40782235 6.54376254 13.97045607 -0.00290724 0.00228156 -0.00187149
N 0.82415463 0.01923427 13.97009385 0.00896933 -0.00767992 -0.00332563
N 7.22346081 6.68719380 5.83459069 -0.00032828 0.00115180 0.00417138
N 5.05908447 13.13651774 10.72395856 0.00061274 0.00388837 0.00296462
N 3.33581468 5.99951631 2.39958726 0.00295077 -0.00993479 -0.00676287
N 7.92015038 13.04713287 18.99227474 0.00149018 -0.00301353 -0.00002225
N 0.84137775 6.29563640 26.94185934 -0.00501953 -0.00114009 0.00108330
N 3.56483774 25.64214091 22.11641301 0.00383919 -0.00378345 -0.00473498
N 5.10970241 6.42949447 30.34481600 0.00165968 0.00065580 -0.00247075
N 1.23964943 25.76728385 30.70828618 -0.00140599 -0.00272264 0.00182130
N 7.57903141 6.66481180 22.29605455 -0.00457331 -0.00488107 -0.00035799
N 5.48649608 12.89419104 27.01491797 0.00027740 -0.00276015 -0.00158841
N 3.54725504 6.19084001 18.90039781 0.00576936 0.00258807 -0.00067668
N 7.27532566 25.63323961 2.28218491 0.00676539 0.00150731 -0.00227843
N 0.81177144 19.32774600 10.50461483 -0.00257669 0.00127735 -0.01157182
N 3.16759368 12.71743217 5.90614399 0.00684498 0.00194879 0.01118392
N 5.03823134 19.45274512 13.67544741 0.00361701 -0.00223374 0.00382988
N 0.62559017 12.84543166 14.01740629 -0.00294755 0.00059007 -0.00123015
N 7.42647025 19.28715243 5.76578102 -0.00184792 0.00542179 0.00151666
N 5.25376292 0.20274653 10.67547373 -0.00563271 -0.00896523 -0.00213203
N 3.35790174 19.02979589 2.32697628 -0.00391152 0.00537371 0.00413568
N 7.83555401 0.39856169 18.91904120 -0.01242984 -0.00660401 -0.00212138
N 1.12830354 19.30615854 26.70662936 -0.00222431 -0.00222559 -0.00652828
N 3.41178092 12.59939073 22.12579230 0.00174260 0.00415595 -0.00853468
N 5.29529206 19.31498702 30.06439709 -0.00150864 0.00413010 0.00557849
N 0.53166479 12.75224297 30.24539565 -0.00237022 0.00536793 -0.00254620
N 7.82779506 19.35220371 21.84770851 0.00188937 0.00358273 -0.00597008
N 5.08681004 0.04922107 26.81155209 0.00633647 -0.00049370 -0.00373532
N 3.24683634 19.71882044 18.65333286 0.00221452 0.00320674 -0.00176511
N 15.95674246 12.81080675 1.97660623 0.00114672 -0.00178008 0.00526111
N 9.67667362 6.49779416 10.82307884 0.00308171 0.00427369 0.00498502
N 11.84107229 25.52974343 5.86642954 -0.00570787 -0.00307108 -0.00455987
N 13.65612796 6.98934437 14.02457152 0.00268909 0.00003105 -0.00417546
N 9.83800341 0.09964469 14.09902196 -0.00460064 -0.00444597 0.00558155
N 16.03936543 6.46902737 5.70755359 -0.00055000 0.00399705 -0.00305724
N 13.90410208 12.69478153 10.40365168 -0.00986207 -0.00178631 0.00331752
N 11.79229137 6.33080153 2.51144926 -0.00452634 0.00242938 0.00352467
N 16.20908745 12.99412761 18.12863633 0.00098289 0.00141428 0.00195600
N 9.56536163 6.69813746 26.93501143 0.00521039 0.00052624 -0.00429742
N 11.86514617 0.23222225 22.72614984 0.00083024 -0.00075950 0.00115022
N 13.79289368 6.66265557 30.42998441 0.00145224 -0.00182114 0.00371904
N 9.59600822 0.47919422 30.42990590 0.00124704 0.00166413 0.00341571
N 16.32169091 6.41190159 22.16361589 0.00240803 -0.00349874 0.00740130
N 14.15486532 12.81217882 26.58058728 0.00519604 -0.00625975 -0.00210658
N 12.08373075 6.16008132 18.99950973 0.00540594 -0.00466575 -0.00106223
N 15.90427444 25.60766293 2.48842408 0.00334068 -0.00360906 0.00099854
N 9.23191931 19.18580382 10.38684401 -0.00029750 0.00089343 0.00068068
N 11.77322801 13.03103701 5.93993304 0.00465952 0.00167004 0.00126704
N 13.69127097 19.25296041 13.75445947 -0.00105168 -0.00768425 -0.00413586
N 9.53854449 12.86204091 14.03773691 -0.00212099 -0.00042059 0.00067787
N 16.15631670 19.28610873 5.89104038 0.00132723 0.00063770 0.00109514
N 13.90350880 25.49510707 10.68746731 -0.00375528 -0.00068810 0.00179809
N 11.85175946 19.42318953 2.55450048 -0.00110072 0.00555841 0.00734188
N 16.10294570 0.18962675 18.93772823 0.00805825 -0.00152212 0.00773018
N 9.81130766 19.43352656 26.56209249 0.00586953 -0.00052284 0.00945088
N 12.05036806 13.02310270 22.18195652 0.00120693 0.00421881 0.00278872
N 13.91098211 19.30644377 30.43804807 -0.00714715 -0.00517056 0.00353705
N 9.70507587 13.12803051 30.26942254 0.01131253 0.00205609 -0.00436225
N 15.58619229 19.15647405 22.10910970 0.00226538 -0.00181072 0.00317970
N 13.74838634 0.10193410 27.00744736 0.00127251 0.00578076 -0.00253816
N 11.86681776 19.56440727 18.82457168 -0.00632171 0.00898225 0.00586824
N 24.51137208 13.07280200 2.52437130 -0.00853116 0.00152940 0.00771936
N 18.22531416 6.13332935 10.53630491 0.00762256 -0.00181970 0.00147612
N 20.11608065 0.05934577 6.07577111 -0.00285939 -0.00228544 -0.00412478
N 22.55516018 6.76238953 14.40156735 -0.00245839 -0.00024517 -0.00417747
N 18.04735321 25.71145045 14.06358482 0.00143985 -0.00111698 -0.00642998
N 24.75009823 6.44022628 5.95001612 -0.00161890 -0.00225654 -0.00234653
N 22.08240954 13.05903824 10.48988437 0.00005751 0.00533675 0.00347896
N 20.26777734 6.31292556 2.50796132 -0.00003901 -0.00732569 0.00741896
N 24.59140345 12.81743922 18.70807410 0.00863011 -0.00672608 -0.00452361
N 17.82385779 5.90279780 27.37125287 -0.00061702 -0.00102495 0.00177889
N 20.39987330 0.20575081 22.40501266 -0.00196495 0.00350761 -0.00463973
N 22.40378728 6.22806843 30.48986036 -0.00009538 -0.00937354 -0.00042635
N 18.05519157 25.69874231 30.52557645 0.00537454 0.00148826 0.00508385
N 24.74776710 6.59175285 22.26895414 -0.00210044 -0.00630970 -0.00046558
N 22.20260462 12.85168867 26.78114750 0.00097523 0.00127053 0.00039268
N 20.57922964 6.60965433 18.86049525 0.00226655 0.00159838 0.00066057
N 24.80201019 25.73154392 2.59939542 -0.00858917 -0.00390537 -0.00030940
N 18.20223688 19.26922641 10.24958398 -0.00219882 0.00496999 0.00561903
N 20.36573721 12.73169369 5.90328531 0.00050439 -0.00017276 0.00521778
N 22.34218864 19.06462762 13.74662821 -0.00298401 0.00626734 -0.00524824
N 17.80554218 12.66889206 13.49446250 -0.00603266 -0.00335990 0.00003431
N 24.85486955 19.38395663 5.68732431 0.00079357 0.00783585 0.00011316
N 22.33901249 0.03055850 10.89608391 0.00833865 -0.00126519 -0.00331590
N 20.21768686 19.58922013 2.30984066 -0.00430194 0.00321429 -0.00419000
N 24.56843688 0.00616650 18.90835372 -0.00091834 0.00425636 0.00271459
N 18.04411842 19.35784481 26.82517929 -0.00290600 0.00134650 0.00537448
N 20.31652129 13.02106215 21.93956336 0.00618641 0.00337606 0.00186695
N 22.19834973 19.39628901 30.06018413 -0.00247711 0.00034622 0.00183911
N 17.79129829 12.45002870 30.01100886 -0.00415951 0.00312191 0.00462492
N 24.70325862 19.35673599 22.04356966 0.00063187 -0.00033434 -0.00082417
N 22.24654482 0.03206994 27.06339210 -0.00088919 0.00703255 -0.00032894
N 20.42810508 19.14027768 18.66284446 0.00294740 0.00528074 -0.01032142
C 7.63977197 0.23102490 4.64844799 -0.00397646 -0.00537586 -0.00095020
C 1.16192083 6.20003485 12.91358011 -0.00208407 -0.00388148 0.00428456
C 3.32660348 12.33592108 3.52135174 0.00648801 0.00312631 -0.00614971
C 5.11270067 7.02594787 11.63667134 0.00208184 0.00262106 0.00607160
C 0.77662931 12.67599366 11.70535873 -0.00258383 0.00396932 -0.00445825
C 7.55184791 7.21584395 3.53187266 -0.00274177 0.00341531 -0.00463784
C 5.08859740 0.76322055 13.02467012 -0.00741446 -0.00028786 -0.00563930
C 3.39954600 5.67769046 4.67970294 0.00206441 -0.00488655 0.00683664
C 7.37694158 0.93471627 5.80909460 0.00259633 0.00586793 -0.00354001
C 1.49844432 5.61323779 14.11086819 -0.00343109 -0.00143085 0.00547093
C 2.96646078 11.75410256 2.36083418 -0.00143414 0.00229686 0.00584169
C 5.55699042 7.59391991 10.49354521 0.00204529 0.00171083 0.00596909
C 1.24668670 12.23275718 10.52743173 -0.01050240 -0.00342061 -0.00211882
C 7.28831017 7.88845172 2.41246250 -0.00009711 0.00091344 0.00163672
C 5.53851529 1.36480633 14.16102467 -0.00364816 0.00107842 -0.00253494
C 2.80702427 5.20313292 5.89344769 -0.00095770 -0.00712910 -0.00451077
C 6.64149867 2.10520208 5.87999428 -0.00257638 0.00827645 0.00297481
C 2.27180131 4.40088880 14.10394199 0.00032811 -0.00110684 0.00609409
C 2.21728167 10.50731918 2.42171264 0.00755018 0.00477229 0.00154979
C 6.45921711 8.72403435 10.50519891 0.00443139 0.00034862 -0.00867416
C 1.83295873 10.91197952 10.59957353 0.00259608 -0.00364559 -0.00781865
C 6.36423044 8.96899797 2.39812641 0.00573923 0.00047956 -0.00392707
C 6.60915637 2.29647069 14.09083773 0.00108234 -0.00420017 -0.00106048
C 1.90900220 4.14407305 5.82188402 -0.00746897 -0.00044387 0.00279941
C 6.32103720 2.65021648 4.58176678 -0.00153747 0.00143482 0.00571278
C 2.51245454 3.74772465 12.87712772 -0.00915682 0.00685057 -0.00015856
C 1.75300051 10.09530799 3.69960556 -0.00077790 -0.00067283 0.00510756
C 6.56661184 9.36435469 11.76566833 0.01148614 0.00662747 0.00138632
C 2.04771925 10.31239860 11.80572836 -0.00321016 0.00378485 -0.00309020
C 5.97898496 9.44533500 3.69669907 -0.00253147 0.00082805 -0.00233013
C 6.97132621 2.68988450 12.78388853 -0.00756495 -0.00181144 -0.00263931
C 1.63300438 3.45195076 4.63190355 -0.00064455 0.00065217 0.00679661
C 6.55170380 2.00038904 3.38510945 0.00153900 0.00105130 0.00461384
C 2.03419244 4.25607974 11.72769656 -0.00207195 -0.00862405 0.00274915
C 2.03842675 10.74909509 4.87273369 -0.00269241 -0.00151196 -0.00195047
C 6.21565648 8.72097159 12.99622316 0.00110686 0.00072373 0.00645260
C 1.75394026 10.90913049 12.98270019 -0.00069601 0.00125236 0.00226439
C 6.25847142 8.74642264 4.87346153 0.00071126 0.00685361 0.00216019
C 6.58947723 1.99565124 11.67421911 -0.00694667 0.00021765 -0.00272141
C 2.12693087 4.03810662 3.46742664 0.00187612 -0.00334950 0.00162421
C 7.21600466 0.73485416 3.43133051 -0.00558226 0.00210441 -0.00820030
C 1.39015077 5.48788372 11.69716664 0.00352648 -0.00298241 -0.00680039
C 2.87024319 11.92743938 4.80451253 -0.00024157 -0.00418980 -0.00116619
C 5.57352732 7.46262052 12.93173039 -0.00525911 -0.00909077 -0.00363402
C 1.08010546 12.13956163 12.94025128 0.00625508 -0.00226218 -0.00919047
C 6.98182860 7.50462505 4.80374115 -0.00693444 0.00325668 -0.00345169
C 5.66086221 0.95958239 11.79132054 -0.00444583 0.00109604 0.00475505
C 2.94726798 5.18949485 3.46488962 -0.00247028 0.00469100 0.01212071
C 6.82678526 0.18230752 1.02714475 -0.00475417 0.00136296 -0.00085974
C 1.49662323 5.74534861 9.29778236 -0.01307209 0.00933294 0.00231497
C 2.44729199 12.72616791 7.07778770 -0.00735081 0.00182723 -0.00560031
C 5.99178460 6.69862124 15.17266686 -0.00460491 0.00510689 -0.01011136
C 1.23731255 12.78807270 15.21063303 0.00082923 -0.00298300 0.00821476
C 6.73056467 6.86356491 7.14873003 -0.00151076 0.00276319 0.00297872
C 5.90376189 0.23110676 9.44658125 -0.00101412 0.00521226 -0.00373430
C 2.59967412 6.05351502 1.18846662 -0.00821193 0.00543777 -0.00659876
C 7.56986625 11.89434800 16.89190691 -0.00329292 0.00064523 0.00027983
C 1.56775194 6.93668090 8.34701149 -0.00377166 0.00387246 -0.00207774
C 2.83039552 0.99901145 7.80596045 -0.00521550 -0.00247870 -0.00512923
C 5.43349343 5.43641730 32.59773987 -0.00542400 -0.00018491 -0.00178869
C 1.46289444 0.82247455 0.25432605 -0.00121335 0.00239981 0.00150972
C 6.77335300 5.64035550 7.96497873 0.00259856 0.00577565 -0.00424751
C 5.70904203 11.94828125 8.65340239 -0.00211953 0.00107003 0.00023285
C 3.08727213 7.14770944 16.74988352 0.00513527 -0.00006508 0.00580539
C 7.64501976 0.46274613 21.31694263 -0.00172972 -0.00904575 0.00511111
C 0.97586818 6.10992924 29.32157012 -0.00369226 0.00451069 0.00169019
C 3.42775286 12.34360521 19.76129627 -0.00806051 0.00132525 -0.00595477
C 5.13357742 6.88773123 28.02508255 -0.00649659 -0.00339226 -0.00542376
C 0.64332884 12.44566267 27.90983977 -0.00969849 -0.00317747 0.00551000
C 7.89735079 7.05772174 19.97132432 0.00655350 -0.00182232 0.00603026
C 5.21274269 0.33014393 29.21274087 0.01012359 -0.01057878 -0.00901390
C 3.55744936 6.18329873 21.29960629 0.00675343 -0.00801188 -0.00025741
C 7.18549678 1.12544139 22.42662093 -0.00018574 0.00608862 -0.00360296
C 1.37169923 5.49269008 30.53237328 -0.00335769 -0.00070902 -0.01519885
C 3.04699300 11.64474415 18.61168718 0.00034569 -0.00927924 -0.00612508
C 5.45910804 7.61368667 26.88841326 0.00331096 -0.00010702 0.00543710
C 1.08804887 11.71837254 26.82268404 0.00002234 0.00431052 -0.00322450
C 7.47151572 7.57482245 18.77101303 -0.00545132 0.00659655 -0.00023360
C 5.45912997 1.09507052 30.33058863 -0.00858720 -0.00391332 -0.00315419
C 3.17487473 5.63468337 22.50670760 -0.00656835 0.00113583 -0.00198463
C 6.38425581 2.29742188 22.42631102 -0.00017874 -0.01055256 -0.00100309
C 2.13309723 4.33262650 30.48365479 -0.00452341 0.00798989 0.00365259
C 2.14409261 10.61942063 18.61859025 0.00993032 -0.00886773 0.00023359
C 6.26218866 8.77608078 27.05389112 0.00619589 -0.00268629 0.00283997
C 2.04812885 10.77656298 26.86647731 -0.00246588 0.00094766 0.00706258
C 6.54852887 8.63625992 18.68032596 -0.00039580 -0.00701621 -0.00112468
C 6.36995131 2.17072923 30.27324885 -0.00016078 0.00066543 -0.00923956
C 2.30047913 4.50639280 22.58214059 0.00658049 0.00211605 0.00280149
C 6.04831171 2.75829221 21.13950602 -0.00505518 0.00211675 0.00774993
C 2.42468671 3.79849424 29.18617535 0.00788136 0.00705947 0.00009950
C 1.83539357 10.03591233 19.92262846 -0.00093143 -0.00289169 0.00115586
C 6.39620638 9.34909731 28.35441850 -0.00202113 0.00527350 0.00275041
C 2.28268689 10.22940353 28.20794653 -0.00216358 -0.00806359 0.00322871
C 6.28057349 9.26906748 19.94688267 -0.00493650 0.00623348 -0.00507677
C 6.76809755 2.62167713 29.00162443 -0.00103128 -0.00544256 0.00189935
C 1.89017362 3.91698772 21.36795732 0.00296828 -0.00814359 -0.00205565
C 6.61142416 2.20569447 20.03800329 0.00724994 -0.00088646 0.00339810
C 1.94421475 4.34013383 28.05051115 -0.00508615 0.00733783 0.00005106
C 2.24294809 10.69848585 21.06475217 0.00026840 0.00124436 0.00025539
C 5.92258777 8.57778613 29.37713950 -0.00889832 0.00044939 0.00083888
C 1.79276048 10.86370992 29.29571784 0.00902262 0.00354698 -0.00155544
C 6.55530310 8.67499571 21.20240806 -0.00645057 0.00306479 0.00376714
C 6.29517441 1.98068907 27.86660593 0.00519638 0.00134260 0.00946960
C 2.34241081 4.45334588 20.14816336 0.00840527 0.00144749 0.00761522
C 7.31886013 0.97580301 20.05296553 -0.00160620 0.00155141 0.00115845
C 1.19408149 5.51063104 28.09998785 -0.00277369 0.00691896 0.00264341
C 2.94303522 11.91477845 21.01468077 0.00320460 -0.00331065 0.00074319
C 5.40826713 7.30368527 29.26729667 -0.01278880 0.00294566 -0.00049909
C 1.01911366 12.07749350 29.17047467 -0.00298606 -0.00382360 0.00142178
C 7.37633382 7.48130791 21.20169272 0.00436841 -0.00113819 -0.00040147
C 5.55801838 0.78667207 27.93026562 0.00479274 -0.00095615 -0.00020127
C 3.14515318 5.59269014 20.08463189 -0.00625769 0.00021842 -0.01151333
C 7.29198381 0.34873619 17.67867163 0.00303803 0.00552855 0.00189860
C 1.59057544 6.45040431 25.84811021 0.00317589 0.00332851 -0.00127264
C 2.80436649 12.49633689 23.33845620 0.00213110 0.00037701 -0.00096942
C 5.55775101 6.60171936 31.65028052 -0.00421492 -0.00375673 0.00833916
C 0.99996612 12.62238764 31.53107820 -0.00364087 -0.01233419 -0.00355694
C 7.13597342 6.97228679 23.56735709 -0.01279348 -0.00848966 0.00525554
C 5.76197808 0.14592643 25.63508790 -0.00463528 0.00196466 0.00208362
C 2.94707106 6.01109269 17.68285685 -0.00101081 0.00455123 0.00412285
C 7.41150149 12.10561781 32.62105648 0.00573300 0.00880400 -0.00610980
C 1.31072961 7.73557840 25.00341765 -0.00629500 -0.00302589 -0.00528219
C 2.83100350 1.13212178 24.07591043 -0.00018024 0.00018976 -0.00266370
C 5.92145221 5.48676945 16.11884720 0.00149366 -0.00090297 0.00067074
C 1.54417860 1.19099871 15.99595068 0.00501461 -0.00051102 0.00858632
C 7.38839558 5.82192728 24.47439071 -0.00093557 -0.00338648 -0.00302268
C 5.65900149 12.13840536 24.62946505 -0.00149699 0.00195561 0.00225022