1920
Time=11000.00000000 pbc="T T T" Lattice="25.47053978 0.00000000 0.00000000 0.00000000 25.67098627 0.00000000 0.00000000 0.00000000 32.99385209" energy=-12246.17697358 virial="-33.19721900 18.05435802 -17.00565939 18.05435802 -46.97156474 -1.51102295 -17.00565939 -1.51102295 -35.48532646" stress="0.00091559 0.00085561 -0.00079092 0.00085561 0.00015190 -0.00000637 -0.00079092 -0.00000637 0.00064201" Properties=species:S:1:pos:R:3:vel:R:3
O 5.70119831 2.74037937 6.95736426 -0.00119883 -0.00251546 -0.00106547
O 2.42162438 3.89004623 14.95808958 0.00294088 -0.00153587 0.00510944
O 1.76235468 10.09357298 1.02189440 0.00718804 0.00393842 -0.00679673
O 6.68436507 9.74241591 9.35488483 -0.00501545 -0.00561787 0.00633725
O 2.63306192 10.56226115 9.08808930 0.00258782 0.00429146 -0.00626061
O 5.60762941 9.03356245 0.83631959 0.00277523 -0.00277265 -0.00242034
O 6.87592457 2.58820971 15.30676993 0.00403709 0.00070046 0.00195193
O 1.97201940 3.05908331 6.53429280 0.00128892 0.00424676 0.00272468
O 6.02585243 1.02026129 17.21773405 0.00240729 0.00446186 0.00172664
O 2.34860842 5.14516102 8.54893075 -0.01224291 -0.00509686 -0.00083542
O 2.10621449 12.10199118 7.21449184 0.00013290 0.00082736 0.00358541
O 6.55472845 7.27324922 32.01615246 -0.00962221 0.00100356 -0.00239943
O 2.21751523 11.75715172 32.06500175 -0.00244420 -0.00058095 0.00015505
O 6.57442930 8.13552160 7.27118244 0.00774200 -0.00597674 0.00120694
O 6.13955851 1.31024346 9.03783287 -0.00306600 0.00288855 -0.00354406
O 2.10780163 5.19961949 17.07546540 -0.00147952 -0.00440286 0.00538205
O 5.86058333 2.57282823 23.39797739 0.00057152 -0.00416005 -0.00558770
O 2.62791911 3.35513951 31.37962017 0.00027125 0.00374854 0.00139602
O 1.98201754 10.10318453 17.46099471 0.00372278 0.00205500 -0.00193162
O 6.70962196 9.35423978 25.84554675 0.01088758 0.00766900 0.00181310
O 3.04905402 10.11133112 25.77890126 0.00119990 0.00015615 -0.00241375
O 6.06070677 9.10066691 17.44205624 0.00219732 0.00084577 -0.00143969
O 6.40171550 2.37773708 31.82606387 0.00679861 0.00162455 -0.00008757
O 1.89658113 3.46577861 22.99922816 -0.00094130 0.00619911 0.00316791
O 5.99665862 0.97818970 0.99792456 0.00213812 -0.00090003 0.00258562
O 2.13654757 5.15213349 25.10507542 -0.00419795 -0.00063506 -0.00539205
O 1.98737076 11.27877708 23.82976980 0.00109109 -0.00380384 0.00266255
O 6.48041037 7.44094056 15.50251681 0.00432028 0.00361995 0.00365038
O 2.23133370 11.50690146 15.27024969 -0.00258979 0.00461682 0.00321315
O 6.40309030 7.70574046 23.70439290 -0.00692827 0.00026696 0.00916373
O 6.53458535 0.99291366 25.42881416 0.00570597 0.00276170 0.00323275
O 2.60359761 5.11203935 0.32683431 -0.00514112 -0.00056015 0.00311461
O 5.83724438 16.21282789 6.65176967 0.00661265 0.00429153 0.00908819
O 2.87117011 16.69442595 15.21988430 0.00568118 0.00222178 0.00032998
O 1.60085149 23.05954395 1.28082207 0.00326535 -0.00545992 -0.00128154
O 6.49962240 22.02457647 9.56584125 -0.00592513 -0.00006565 0.00208507
O 2.27397786 22.59500827 9.40199183 -0.00252367 -0.00470088 0.00222146
O 6.61910101 21.66667508 1.27218949 0.00774855 -0.00498663 0.00152076
O 7.10624301 15.50630334 14.85476855 0.00365281 0.00362435 -0.00460440
O 1.29518315 16.89686866 7.21182411 -0.00370482 0.00422562 0.00092945
O 6.38749262 14.18614345 17.07577090 -0.00280006 0.00203145 0.00088301
O 2.06878529 18.10630950 9.30226153 -0.00726363 0.00062025 0.00116864
O 1.40762597 24.37534594 7.46035453 0.00158798 -0.00047832 -0.00350199
O 6.75526072 20.22167590 32.10485237 0.00286311 -0.00405017 -0.00182094
O 2.30401348 24.46386133 32.35714807 0.00522052 0.00128788 -0.00871267
O 6.31526196 20.30364581 7.54416448 -0.00396523 0.00020460 0.00211397
O 5.79962840 14.45155808 8.79013254 -0.00220155 -0.00211899 0.00425582
O 1.95420516 17.79577917 17.50702546 -0.00140240 -0.00084702 -0.00067305
O 5.71677681 15.54763722 23.09535205 -0.00081782 -0.00125863 -0.00258829
O 2.46163360 16.75735282 32.27916030 0.00462764 -0.00087180 -0.00094811
O 2.21349204 22.73276000 18.00781112 0.00261632 0.00274437 -0.00008196
O 6.81452269 21.73853397 26.06809532 -0.00345342 0.00366039 -0.00507349
O 2.87488182 22.80261722 26.21446438 -0.00056231 -0.00054215 -0.00122785
O 6.53952764 21.78486697 17.65982441 -0.00269990 0.00653481 0.00146467
O 7.10568932 15.20056491 31.42595340 0.00614283 -0.00010833 0.00201797
O 2.12768095 16.42396460 24.06110716 0.00507021 -0.00329776 -0.00301770
O 6.47712594 13.95419109 0.67667201 -0.01058480 -0.00555282 -0.00014204
O 2.15099412 18.14179979 26.13947540 -0.00754121 0.00435649 0.00147684
O 2.50793365 24.37063181 24.20891297 0.00030278 0.00484863 0.00480015
O 6.01784043 20.28536736 15.70013759 -0.00231195 0.00026513 0.00052257
O 2.96088809 24.74044451 15.39343920 0.00415562 0.00518750 0.00438693
O 6.14212053 20.42038527 23.93673545 0.00048090 0.00123539 0.00075890
O 6.37506494 14.30244356 25.27346076 0.00226151 0.00234626 0.00620129
O 2.32153941 18.37558719 1.17486226 0.00271029 -0.00079531 0.00276139
O 14.07044760 2.73801306 7.06757208 0.00145814 -0.00023988 -0.00402215
O 10.84926712 3.84643675 15.16186556 -0.00212394 -0.00358246 -0.00413102
O 10.27927573 9.76176713 1.09917900 0.00595282 -0.00708160 -0.00307122
O 15.08957195 9.19383833 9.43276954 -0.00079582 0.00399237 -0.00477958
O 11.42036596 10.00037623 9.31376131 0.00493377 0.00238815 0.00761023
O 14.22559518 9.17094544 1.02463235 -0.00111811 0.00415874 0.00001766
O 15.00974811 2.49545095 15.14147397 -0.00382738 -0.00110184 0.00036920
O 9.48192069 4.02724697 7.01650470 -0.00002737 -0.00358484 0.00533238
O 14.69230611 0.96894677 17.31424524 -0.00455512 0.00735319 -0.00164554
O 10.45569342 5.29779233 9.07047416 0.00428960 0.00246794 0.00239376
O 11.03869862 11.44594164 7.17591638 0.00734276 -0.00173427 0.00144521
O 13.93574618 7.53888004 31.98813141 -0.00445599 -0.00155101 -0.00748656
O 10.45792624 11.30009076 31.94049568 0.00259898 0.00353927 -0.00241043
O 14.86190644 7.71881646 7.23279549 -0.00045729 -0.00369062 0.00385242
O 14.92714032 1.09033812 9.02083083 0.00388588 -0.00305112 0.00056881
O 10.69082651 4.95157893 17.64574378 0.00221298 -0.00502167 -0.00104549
O 14.41544238 2.47252538 23.56081267 -0.00773472 -0.00347986 -0.00265543
O 10.69900765 3.06067979 31.59094212 -0.00339411 0.00958510 -0.00384501
O 10.31644094 9.99915105 17.42823552 -0.00067428 0.00361919 -0.00646557
O 15.94637629 9.13832648 25.90797642 -0.00556975 0.00167635 0.00033449
O 11.57473433 10.23479775 25.72965462 -0.00026587 -0.00726143 -0.00743615
O 14.26195960 9.36784685 17.74353417 -0.00523485 -0.00948932 -0.00941157
O 15.33374263 2.72674331 31.87177853 0.00427471 0.00565477 -0.00388458
O 10.49268947 3.74503308 23.86955107 -0.00272487 -0.00544112 0.00374286
O 15.10789648 1.10690731 0.74724935 -0.00168374 0.00436736 0.00315082
O 11.02084070 5.51838107 25.71499066 -0.00194181 0.00584826 0.00085991
O 10.82630808 11.62902551 23.58784902 -0.00463032 0.00021719 -0.00295250
O 14.61806373 7.70583119 15.58086169 0.01035989 0.00038782 -0.00106946
O 10.55836855 11.61741444 15.38336363 0.00392760 -0.00360085 0.00502909
O 15.58181752 7.62229693 23.89487303 -0.00102120 0.00174143 0.00296056
O 15.01493055 1.20779216 25.68747452 -0.00105522 0.00019904 0.00615380
O 10.72795914 4.74897712 0.73375765 -0.00304401 -0.00319747 -0.00105891
O 14.82089212 16.07901905 6.96928930 0.00048160 0.00151975 -0.00309828
O 11.02747974 16.61531208 15.68530332 0.00058985 -0.00231611 -0.00499621
O 10.12966113 23.08565548 1.30997133 0.00103558 -0.00366295 -0.00802366
O 14.86407787 22.21237953 9.64193566 -0.00076250 -0.00752934 0.00224349
O 10.43218459 22.84908650 9.55864642 0.00382852 -0.00638405 0.00617243
O 14.33080546 21.66338162 1.23052972 -0.00270872 -0.00216122 0.00012828
O 14.81664072 15.78969103 15.03715522 0.00095252 -0.00190824 -0.00016860
O 9.99325559 16.37568752 7.19008724 0.00361759 0.00727101 0.00375334
O 15.11354073 14.37354355 17.20907480 0.00944089 0.00103773 0.00108671
O 10.19452179 17.61992545 9.52523757 0.00214754 -0.00124887 0.00143023
O 10.01697781 24.54939907 7.64434995 0.00925769 0.00494417 0.00202337
O 15.68890410 20.27118182 32.41108219 0.00874332 -0.00169802 -0.00996755
O 10.87152306 24.43006715 32.34836373 0.00060784 -0.00003816 0.00048400
O 14.29226032 20.44131101 7.81632269 -0.00021992 0.00309591 -0.00280025
O 14.59062986 14.34507666 8.81058551 -0.00173963 0.00229631 0.00328136
O 10.20041328 18.29083865 17.67778832 0.00069008 -0.00075974 0.00188244
O 14.82467030 15.85398264 23.38410414 0.00087399 -0.00081866 0.00143487
O 11.28183638 16.47917287 31.87191383 -0.00402386 0.00908321 0.00222020
O 9.97835109 23.10874032 17.70857688 -0.00341840 -0.00664387 -0.00016243
O 14.84785893 22.31193848 26.49620055 -0.00327465 0.00698192 -0.00413443
O 10.79142134 22.70818408 26.26524392 0.00253405 -0.00280807 -0.00157079
O 14.55096482 22.03400226 17.95669599 0.00021196 -0.00698743 -0.00357526
O 15.55263103 15.49522143 31.60227795 -0.00151745 -0.00621015 -0.00716909
O 9.97559780 16.70648848 23.69676828 0.00257297 -0.00611733 0.00652617
O 14.52055059 14.08795446 0.80676247 0.01146894 0.00392107 -0.00265284
O 10.72714117 17.95980859 25.77926524 0.00037879 -0.00022736 -0.00300942
O 10.37706041 24.17818095 24.16959896 -0.00326502 -0.00254176 -0.00530080
O 14.85514749 20.57039383 15.79005390 -0.00121115 0.00229321 0.00585265
O 10.51542594 24.50509846 15.71874336 0.00129616 0.00878980 0.00143095
O 15.16676220 20.77520060 24.49397198 -0.00041560 0.00095410 0.00735107
O 15.29781309 13.85745114 25.40152627 -0.00446458 0.00295098 -0.00557578
O 10.52164645 17.76142963 1.04259794 -0.00367364 -0.00194938 0.00509571
O 22.81679226 2.47595252 7.03277870 0.00432492 0.00102451 0.00126251
O 19.49468064 3.50886443 15.27783082 -0.00449788 -0.00027035 -0.00498650
O 18.48824459 10.41192023 1.02410444 0.00236681 0.00394503 -0.00203962
O 24.27686756 9.02329341 9.34317784 0.00099597 0.00012687 0.00131243
O 19.70360643 9.89520343 9.47555311 -0.00144841 -0.00109932 -0.00058672
O 22.70385388 9.14456809 1.11022510 -0.00034539 -0.00614269 -0.00098327
O 23.47694851 2.80692004 15.19661019 -0.00810384 -0.00187721 0.00268898
O 18.51716444 3.85469855 6.74999784 -0.00665378 -0.00275544 0.00511584
O 23.62608040 1.27253760 17.31123140 -0.00133979 -0.00207250 -0.00230257
O 18.89640407 5.22385814 8.84719762 -0.00443099 -0.00444899 0.00328520
O 19.38625142 11.74001769 7.26279317 -0.00307552 -0.00386711 -0.00569752
O 23.14277488 7.72359567 31.92254476 -0.00467072 -0.00063422 -0.00245835
O 19.43868425 11.76784984 32.12974127 0.00445088 0.00022468 0.00427936
O 23.50559984 7.47278605 7.33943977 -0.00491170 0.00216883 -0.00085762
O 23.60033941 0.88693595 8.92458164 -0.00516389 0.00105623 -0.00037105
O 19.15499741 5.20295003 17.27231368 -0.00458330 0.00217311 -0.00447914
O 22.69327997 2.69632285 23.51891814 0.00220538 -0.00288847 0.00432647
O 19.51432690 3.48370137 31.74077723 0.00109784 -0.00508808 0.00608104
O 18.22087799 10.24716427 17.68136072 -0.00097076 -0.00076179 -0.00293963
O 23.78314369 9.49263299 25.86754928 -0.00251086 -0.00026838 -0.00572334
O 20.00001843 10.18240477 25.86382646 -0.00365692 -0.00524178 -0.00473015
O 22.55396880 9.09106064 17.42507010 -0.00069811 -0.01102130 0.00251850
O 23.74368235 2.77654926 31.59708838 -0.00086033 0.00011771 0.00295244
O 18.89015579 3.28800103 23.47882827 0.00709565 -0.00490565 0.00429667
O 23.46980808 1.33881805 0.85574816 0.00087345 0.00022466 0.00543675
O 19.62214662 5.07519649 25.38514705 -0.00248862 0.00066341 -0.00086620
O 19.37779388 11.98670452 23.72967565 0.00169820 0.00250985 0.00532378
O 23.50645603 7.50624701 15.39864880 -0.00217399 0.00166452 0.00083289
O 18.89684371 11.75581399 15.60060781 -0.00786555 -0.00503953 -0.00542782
O 23.71795971 7.92940107 23.67575375 0.00104126 -0.00213035 -0.00674179
O 23.39835867 1.04509477 25.47783172 0.00235243 0.00087458 -0.00032310
O 19.23100082 5.23089744 0.55790424 -0.00079484 -0.00358480 0.00015517
O 22.81465678 15.86967632 6.90280534 -0.00314609 0.00439285 -0.00241631
O 19.77009945 16.71961873 15.51692849 0.00034753 0.00275851 -0.00168295
O 18.28000732 23.40889380 1.37924482 -0.00486735 -0.00400752 -0.00247642
O 24.00702911 21.66230137 9.87832378 -0.00352066 0.01291806 -0.00100586
O 19.80693174 23.06387914 9.65183210 -0.00232350 -0.00525096 0.00408191
O 22.99220499 22.34146866 1.81648599 0.00010933 -0.00409190 -0.00138638
O 23.66188823 15.59836659 15.17569123 -0.00146248 0.00069507 0.00124146
O 18.79668221 16.72689783 7.61187036 0.00015416 -0.00467748 -0.00031097
O 23.76007202 14.21113800 17.30448690 0.00321765 -0.00051424 0.00568989
O 19.07988569 18.40903230 9.56559400 -0.00049667 0.00303830 -0.00169760
O 19.39906198 24.58463242 7.59919130 0.00516135 0.00189824 0.00507311
O 23.05033361 20.69650735 32.80237345 0.00264099 0.00076865 -0.00216374
O 19.04404043 24.59535696 32.16694391 -0.00212115 -0.00458518 -0.00871379
O 22.88604709 20.39245393 7.87299896 0.00265649 -0.00243141 0.00095347
O 23.04646464 13.86593200 8.78691280 -0.00943018 -0.00357724 -0.00745923
O 19.87574696 17.96326196 17.68356228 -0.00179904 0.00180648 -0.00239980
O 22.77013257 16.29813182 23.41524488 0.00546325 -0.00614040 0.00776568
O 19.98180788 16.68323164 32.05340449 -0.00138730 0.00092745 -0.00090849
O 18.78852074 23.09045293 17.61370815 0.00713063 -0.00362459 -0.00247862
O 23.61255212 22.34453463 26.64004327 0.00172589 0.00588161 -0.00243147
O 19.51266309 22.85144032 25.95771523 -0.00479702 -0.00338796 0.00671663
O 23.31694921 21.95365165 18.27432111 -0.00571219 0.00579606 -0.00088139
O 23.98208925 15.93032157 31.78849958 -0.00030206 -0.00073095 -0.00612713
O 17.94666164 17.02094756 23.78451038 -0.01533888 -0.00507394 -0.00054363
O 23.58991354 14.30314881 0.69187720 0.00051557 -0.00584950 -0.00857054
O 18.85756323 18.08925722 25.84754750 0.00382526 -0.00073981 0.00085396
O 19.15229357 24.17459160 23.93169621 0.00109905 0.00114927 -0.00184028
O 23.62431299 20.54797112 16.19384644 0.00093215 -0.00028187 0.00473468
O 19.69941251 24.65307146 15.71655842 -0.00062376 0.00260606 0.00362414
O 23.56113387 20.67913144 24.61097802 -0.00773930 0.00123392 -0.00544113
O 22.85107523 14.71875031 25.61330800 0.00597597 -0.00320570 -0.00127285
O 19.63420929 17.98588831 1.25413083 -0.00056567 -0.00179682 0.00181877
N 7.59924889 13.02934567 2.43320353 0.00036106 -0.00720344 -0.00296004
N 1.25313622 6.42113605 10.12570951 0.00077268 0.01043752 0.00327060
N 3.13223677 25.25636210 6.11233898 0.00401377 -0.00251433 -0.00553475
N 5.04841991 6.68897271 13.80147051 0.00162186 -0.00590110 0.00889017
N 1.20017758 25.43934133 14.10686889 -0.00041689 0.00184890 0.00465024
N 7.34737533 6.75320435 5.63397781 0.00756004 -0.00868923 -0.00326792
N 5.35772434 12.76172861 10.40615450 0.00267388 0.00420818 0.00316977
N 3.16358015 6.37051883 2.17781759 -0.00349508 0.00469173 0.00269299
N 7.45036660 12.86547150 18.60162837 0.00374471 0.00534339 0.00107551
N 1.00128347 6.11444221 26.80758602 -0.00289229 0.00652343 -0.00729113
N 2.90568889 0.25028963 22.59923590 -0.00609195 0.00108124 -0.00350730
N 5.37869756 6.36810179 30.36208184 0.00133901 -0.00186479 0.00086674
N 1.21362127 25.60891598 30.70422617 0.00016705 -0.00395901 0.00030656
N 7.39113471 6.43931481 22.10629888 0.00443681 0.00218304 0.00067397
N 5.42062686 12.82707855 26.80123787 0.00776589 -0.00510418 0.00106839
N 3.47039618 6.30206642 18.51612944 -0.00211649 -0.00338238 0.00414111
N 7.11601067 25.30428432 2.46971167 0.00317654 0.00063551 -0.00626900
N 0.73794387 19.23629558 10.84981997 -0.00078383 0.00067641 0.00300328
N 3.34812034 12.83572321 5.41851709 -0.00270226 -0.00048955 -0.00015499
N 5.09696517 18.95143181 13.98912381 -0.00307951 0.00342606 -0.00219855
N 0.70688682 12.54995349 13.86397052 0.00077645 -0.00096266 0.00018669
N 7.45964281 18.87960005 6.11566063 0.00448282 0.00367407 0.00633263
N 5.17425508 0.09909587 10.67322417 0.00473472 -0.00715013 -0.00753041
N 3.53800392 19.43353392 2.79493904 -0.00000166 0.00103391 -0.00391877
N 6.98781861 25.40496911 18.87811572 -0.00520006 -0.00371036 0.00287630
N 0.96039599 19.32217048 27.61510578 0.00434094 0.00221632 0.00113108
N 3.11198241 12.44659953 22.36313084 0.00467843 -0.00007488 0.00057959
N 5.47403388 19.09567119 30.56655898 -0.00675502 -0.00377499 0.00480214
N 1.40643685 12.93589532 30.32636560 0.00132223 0.00880875 0.00595435
N 7.71548283 19.52584381 22.49002527 0.00088151 -0.00143474 -0.00131577
N 5.27559009 25.57623758 26.89666529 -0.00337714 -0.00259376 0.00137374
N 3.12741075 18.89997270 19.14251331 -0.00073275 0.00146590 0.00173253
N 15.71685604 13.03749960 2.40752328 0.00428365 0.00201861 -0.00305414
N 9.23813705 6.48812346 10.67120643 -0.00528561 -0.00524827 -0.00491007
N 11.65935555 25.32437703 6.14592017 -0.00502860 -0.00519373 0.00059892
N 13.52815971 6.52004201 13.97951428 -0.00501467 0.00257177 -0.00538452
N 9.34859941 0.12173566 14.25241083 -0.00209661 0.00262939 -0.00516670
N 15.61241436 6.25398204 5.54453113 -0.00685582 0.00386370 -0.00284233
N 13.84980565 12.89460920 10.35137903 0.00512697 0.00148317 0.00508225
N 11.60405323 5.97109337 2.42701058 -0.00224771 0.00834176 -0.00516800
N 16.00023717 12.93655146 18.79328554 -0.00605369 -0.00293634 0.00303277
N 9.49488924 6.36728548 27.25186014 0.00321165 0.00290011 -0.00193348
N 11.55490981 25.31743700 22.49666251 0.00542411 0.00194131 -0.00640755
N 13.33195067 6.58770708 29.99238097 -0.00349489 0.00416700 0.00319021
N 9.57635086 25.48799720 30.86280133 0.00426411 -0.00201510 0.00079593
N 16.30164206 6.55691813 22.03139249 0.00357485 0.00266516 0.00888746
N 14.07096783 12.72945649 26.97680940 0.00451801 -0.00184397 0.00318231
N 11.66642520 6.26355381 19.18533104 0.00104247 0.00076851 -0.00493766
N 15.81152757 0.02045251 2.63656500 0.00129539 0.00315323 -0.00166275
N 9.33788678 19.04127847 11.01674132 -0.00465721 -0.00537267 -0.00835419
N 11.90570073 12.74658048 5.52373226 -0.00061594 0.00285059 -0.00150721
N 13.41047562 19.50136234 14.30492252 -0.00621979 -0.00362980 -0.00134071
N 9.38470350 12.72378805 13.74273069 -0.00085092 -0.00968875 -0.00532478
N 15.87327306 19.72701362 6.27595341 0.00032194 -0.00230177 -0.00061035
N 13.58056437 0.07365718 10.49243306 -0.00099576 0.00073750 0.00660838
N 11.93622511 18.75687260 2.64232167 -0.00370290 -0.00020749 0.00079118
N 16.16517868 0.11179671 18.84739831 -0.00630407 -0.00419363 0.00067213
N 9.55333764 19.04351804 27.28576249 -0.00236537 0.00112311 0.00450048
N 11.71981860 12.86594047 21.92490511 -0.01128689 -0.00388692 0.00100172
N 14.03992318 19.45027257 31.12605001 0.01054291 -0.00180883 0.00849425
N 9.50671309 12.52230879 30.29622902 -0.00438646 -0.00183101 -0.00887992
N 15.60246623 19.30472844 22.77650605 -0.00126234 0.00077931 0.00141744
N 13.69078826 0.25985693 27.28501216 -0.00249399 0.00685077 -0.00206165
N 11.57084347 19.17546327 19.28570606 -0.00515319 0.00768501 -0.00430031
N 24.54813105 13.07654808 2.39971135 -0.00580831 0.00385059 -0.00329016
N 18.00880971 6.28285264 10.71072371 -0.00875671 0.00192878 0.00044276
N 20.13583386 0.19069241 5.82945914 -0.00453859 0.00216224 -0.00092644
N 22.26377249 6.60136839 13.77252135 0.00960959 0.00042089 0.00111538
N 18.11514734 25.37915164 14.29684659 -0.00285816 -0.00340506 0.00595307
N 24.67801609 6.53616093 5.59755481 -0.00058912 0.00314849 0.00448967
N 22.26022150 12.69390171 10.63050772 0.00592325 0.00258335 -0.00167616
N 20.05383490 6.62647599 2.23721293 -0.00236365 -0.00335812 -0.00145076
N 24.59612517 13.00805262 19.20604223 -0.00289860 -0.00017351 0.00518808
N 18.34787042 6.19271985 26.98148431 0.00531020 0.00142194 0.00073964
N 19.95738527 25.63760392 22.41576182 0.00199905 0.00342283 -0.00197377
N 22.26795437 6.45553834 30.27086891 0.00521452 -0.00206894 -0.00377513
N 17.80000299 25.46072335 30.47744543 -0.00044388 -0.00945903 -0.00546106
N 24.44257039 6.59157456 21.85944616 0.00278300 -0.00286288 0.00164379
N 22.28303283 13.29138118 27.26308211 -0.00393982 0.00057107 -0.00065363
N 20.14243751 6.46778284 18.94265716 -0.01015472 -0.00293554 0.01218943
N 24.54655926 0.04439467 2.46754340 -0.00382562 0.00109743 0.00174565
N 17.62903376 19.20698628 11.09739029 0.01106642 0.00227763 0.00085403
N 20.25671109 13.02908763 5.62654498 0.00371109 -0.00442390 -0.00224772
N 22.19664700 19.66106093 14.70710024 0.00257688 0.00597155 -0.00476009
N 17.84652605 12.72647510 13.77886840 0.00139779 -0.00225337 -0.00264642
N 24.29796846 19.51880672 6.35794304 0.00144926 -0.00068926 0.00357171
N 22.32867750 25.59583021 10.64659618 0.00371538 -0.00641148 -0.00252900
N 20.29318015 19.28800147 3.01464436 -0.00544532 0.01059422 -0.00494817
N 24.84343245 0.20197538 18.99544547 -0.00927178 0.00529190 0.01012169
N 18.06618185 19.33197938 27.58990086 -0.00094547 -0.00458988 -0.00825032
N 20.26775419 13.16505810 21.95411901 0.00304072 -0.00351718 0.00687721
N 22.39539773 19.33066481 31.06730396 -0.00056606 -0.00044501 -0.00279926
N 18.23347128 12.74326042 30.34555402 -0.00268510 0.00300499 0.00274682
N 24.46800929 19.32436014 23.07030960 -0.00179918 0.00188118 0.00326496
N 22.40570528 25.44045613 27.11365961 -0.00774648 0.00389097 0.00367412
N 20.53753770 19.31750494 19.47964962 -0.00148397 -0.00131766 -0.00119431
C 7.16981729 0.12568482 4.82767839 -0.00476074 -0.00039292 0.00568016
C 0.91860213 6.18189925 12.57807177 -0.00843623 0.00177969 -0.00218217
C 3.34374172 12.46269887 3.17394274 -0.00186443 0.00277391 0.00066457
C 5.01151237 7.12108307 11.42223689 -0.00242401 0.00037032 0.00830557
C 0.66888383 12.51581499 11.44874960 -0.00329837 -0.00553123 0.00231067
C 7.54125650 6.97082220 3.25466815 0.00132682 0.00087725 0.00298601
C 5.03980013 0.41782876 13.05683041 0.00062677 -0.00287803 0.00160233
C 3.16803415 5.85194607 4.51413363 -0.01224826 -0.00411195 0.00092822
C 6.88823335 0.82160283 5.98608607 -0.00259745 0.00448530 0.00148038
C 1.12591182 5.39889884 13.68414472 0.00100645 -0.00481522 -0.00077795
C 3.03107908 11.75014226 2.05606117 0.00272286 0.00337321 -0.00140917
C 5.38940916 7.96395958 10.37403377 0.00038459 0.00049495 0.00631661
C 1.26259687 12.13257737 10.27354764 0.00316642 -0.00207505 0.00021679
C 7.10246088 7.52511971 2.02030854 -0.00725769 -0.00400211 -0.00019639
C 5.47371974 1.04425487 14.16893131 -0.00435197 0.00065384 -0.00458512
C 2.89697621 5.03546899 5.54836457 -0.00664184 0.01019743 -0.00010418
C 6.16586127 2.07010360 5.88505461 0.00118403 -0.00661945 -0.00788843
C 2.01454598 4.30841542 13.77321987 0.00341039 0.00467769 0.00653954
C 2.24512177 10.58111340 2.21442890 -0.01197871 -0.00670492 0.00594105
C 6.30482129 9.02025010 10.44996791 -0.00520887 0.00227921 0.00085280
C 2.12311683 11.00767646 10.20165723 0.00027307 -0.00184680 0.00228157
C 6.21834364 8.61478560 2.00600943 0.00630557 0.00695039 -0.00110760
C 6.31457400 2.16399628 14.15514554 0.00202203 0.00450067 0.00415363
C 2.17254547 3.80163183 5.39763070 -0.00381233 0.01020811 -0.00629540
C 5.92832888 2.56036646 4.63898103 -0.00651268 -0.00039322 0.00666663
C 2.44330058 3.84083883 12.51170348 0.00145145 0.00007760 -0.00100318
C 1.84602794 10.08276936 3.47284122 0.00116243 0.00704513 0.00671025
C 6.63749411 9.33709274 11.73604027 -0.00019327 0.00485159 -0.00035696
C 2.48630540 10.42840891 11.40289612 0.00244540 0.00287449 -0.00713160
C 6.01837824 9.26823562 3.25954834 -0.00203918 0.00458667 -0.00053903
C 6.60001254 2.71201250 12.88540702 0.00420486 0.00233954 0.00007280
C 1.66875614 3.59000718 4.18692642 -0.00428216 -0.00084796 0.00353143
C 6.32974398 1.87252308 3.47798732 0.00301206 0.00530013 0.00250373
C 2.15700462 4.46895843 11.31813439 0.00286672 0.00042967 -0.00215471
C 2.36105308 10.75705789 4.59140944 -0.00119471 0.00088254 0.00624833
C 6.27287188 8.62533236 12.86501020 0.00080199 0.00517021 0.00067333
C 1.88114103 10.75856925 12.62399723 -0.00032379 0.00895556 -0.00900037
C 6.42974925 8.73592476 4.45867833 0.00521320 -0.00568811 0.00118010
C 6.18722772 2.03437076 11.71214733 0.00473119 -0.00408096 -0.00297304
C 1.91961856 4.44084100 3.05932530 -0.00008213 0.00859099 -0.00387303
C 6.81236156 0.55964090 3.55530755 -0.00399918 -0.00663022 -0.00006565
C 1.36954879 5.61504869 11.30934669 0.00205291 -0.00589069 -0.00041186
C 3.04519793 12.01083441 4.40238066 0.00418445 0.00240063 0.00499623
C 5.44471114 7.45164014 12.69486748 -0.00637897 0.00549909 0.00692179
C 1.07791204 11.87268400 12.69141523 -0.00032216 0.00924420 -0.00307695
C 7.04759682 7.47434762 4.51939735 -0.00283184 -0.00183902 -0.00016924
C 5.49462306 0.81899073 11.83315836 0.00117263 -0.00403499 0.00271587
C 2.79285686 5.52589821 3.22922211 -0.00011528 -0.00246463 -0.00549688
C 6.63918788 25.65763948 1.23355012 0.00659733 0.00441107 0.00259744
C 1.92928624 6.19946374 8.95277336 0.01499378 -0.00346284 0.00793977
C 2.80024296 12.97237859 6.63172487 -0.00129957 0.00393687 0.00990598
C 5.68675367 6.63906661 15.00445025 0.00147175 -0.00351607 0.00026535
C 1.39265533 12.42623515 15.07817941 -0.00290622 0.00036694 0.00091913
C 6.83514365 7.00223302 6.90708214 0.00409612 -0.00786352 0.00239635
C 5.68579311 0.22304730 9.48273179 -0.00007789 -0.00631111 -0.00189105
C 2.85414007 6.20478376 0.84069961 0.00383357 -0.00384993 -0.00018505
C 6.83635147 11.85171581 16.45494034 -0.00889756 0.00062979 0.00050360
C 1.99210788 7.44121039 8.02227732 -0.00133688 -0.00090713 -0.00063337
C 2.58105059 0.65195152 8.22462420 -0.00296759 -0.00506772 -0.00178582
C 5.57741279 5.10755981 32.39749832 -0.01070798 -0.00066998 -0.00142652
C 1.46612751 0.95378559 32.84099536 -0.00000096 -0.00134888 -0.00053654
C 6.62524698 5.79858596 7.86162851 0.00915640 -0.00504998 0.00407815
C 5.57686346 12.29874407 8.08572705 -0.00094586 0.00155926 -0.00507616
C 2.71357487 7.35795476 16.43029549 -0.00257644 0.00305824 0.00337232
C 7.41908947 0.23214253 21.07872957 -0.00291249 -0.00825754 0.00087972
C 1.02846819 5.82271471 29.13012821 0.00167060 -0.00431317 -0.00444838
C 3.30630036 12.34725949 19.98360132 0.00249918 -0.00087957 -0.00356438
C 5.28088394 6.75332936 28.02786207 0.00210985 0.00240399 -0.01068939
C 1.22602223 12.40703798 27.99083287 0.00915352 0.00016501 -0.00119585
C 7.69988635 6.81068667 19.72762114 -0.00454477 0.00617818 -0.00239235
C 5.21438299 25.65372787 29.24628692 0.00548507 0.00124267 -0.00048463
C 3.34834453 6.10295198 20.94964261 0.00265627 -0.00507503 -0.00045355
C 7.16443530 0.96411055 22.21634838 0.00845257 0.00051214 0.00575548
C 1.32576104 5.05849476 30.27123721 0.01585615 0.00610132 -0.00367778
C 3.07539413 11.73521265 18.79487959 0.00460032 -0.00505790 -0.00257646
C 5.52013756 7.54575301 26.93400054 0.00587036 -0.00740707 0.00152578
C 1.49799122 11.61236039 26.88778945 0.00579801 -0.00291194 -0.00377866
C 7.38414732 7.52466843 18.55702944 -0.00467770 -0.01149674 -0.00188421
C 5.50289909 0.49270498 30.54197367 -0.00475828 0.00074779 0.00369901
C 2.96965729 5.40128842 22.10871067 0.00345516 0.00493881 0.00114877
C 6.39244655 2.05245568 22.24760751 0.00531562 0.00374550 -0.00394707
C 2.19721224 3.94156199 30.25874236 0.00376637 0.00105364 -0.00130305
C 2.29390156 10.62525403 18.70266832 0.00770573 0.00912251 -0.00425254
C 6.35074121 8.65586732 26.99830137 -0.00220890 -0.00973231 -0.00244619
C 2.45899511 10.56624744 26.98918625 0.00779637 0.00929950 -0.00897068
C 6.56778215 8.59987950 18.58472942 0.00433202 0.00006756 0.00141737
C 6.16185023 1.70150234 30.57389019 -0.00271178 0.00181777 0.00738730
C 2.25318703 4.19591807 21.99119792 0.00035498 0.00043913 -0.00024307
C 6.09995671 2.69240162 21.00144157 -0.00366334 -0.00108826 -0.00725813
C 2.74288079 3.57181809 28.96639187 -0.00093640 0.00486857 0.00141508
C 1.80095426 10.03106366 19.85407621 0.00549934 0.00174146 0.00270622
C 6.83911667 9.07997264 28.27210625 0.00003180 -0.00143876 0.00510841
C 2.65750941 10.11981566 28.26319162 -0.00699591 -0.00090289 -0.00066163
C 6.15180810 9.07473273 19.84992166 -0.00033274 0.00432913 0.00311303
C 6.60102799 2.31307036 29.40145432 -0.00565586 0.00524677 -0.00163428
C 1.94476378 3.74701640 20.72030482 -0.00550523 0.00459129 0.00096720
C 6.45232873 2.01978217 19.85633765 0.00019673 0.00188752 0.00418431
C 2.37050967 4.25055235 27.76707083 0.00142857 0.00489643 0.00402000
C 1.99517150 10.69643481 21.05268477 -0.00098240 -0.00242836 -0.00564883
C 6.48990180 8.41571280 29.39985308 0.00337995 -0.00453188 -0.00095538
C 2.32464770 10.78123319 29.41709989 -0.00028679 -0.00335315 -0.00482100
C 6.42258607 8.40726158 20.97780675 -0.00631778 -0.00104465 0.00212612
C 6.33171132 1.82178339 28.12381537 -0.00207805 0.00670229 0.00156840
C 2.33120316 4.44124597 19.59602270 0.00587886 0.00186626 -0.00406727
C 6.91435207 0.63937474 19.85618233 -0.00684460 -0.00389528 -0.00194576
C 1.53162029 5.39533203 27.88891048 0.00921462 -0.00761374 0.00447684
C 2.76733723 11.81675324 21.14787894 0.00312504 -0.00075818 -0.00065586
C 5.76588369 7.17878928 29.29623392 0.00241878 0.00488584 -0.00038111
C 1.69777239 12.06629869 29.26533755 0.00270835 0.00354456 0.00584105
C 7.19978772 7.25121722 21.00791273 -0.00038096 -0.00469071 0.00019518
C 5.63925008 0.59640188 28.07864703 0.00205810 0.00077571 0.00268510
C 3.06888435 5.60351222 19.65561938 -0.00285098 -0.00359695 -0.00881207
C 6.68568820 0.01221620 17.52407866 0.00139615 0.00197419 -0.00365798
C 1.57021581 6.13421883 25.57273310 -0.00655111 0.00194816 0.00782822
C 2.30460575 12.39289826 23.42553938 -0.00335480 -0.00051184 0.00162089
C 5.86029954 6.33502457 31.59291795 -0.00077691 -0.00206378 -0.00073024
C 1.90901580 12.81738665 31.58338671 -0.00096140 -0.00261027 -0.00643024
C 6.94835469 6.68522156 23.33192574 0.00077727 -0.00360384 -0.00464976
C 5.89622919 25.66862106 25.67892074 -0.00378013 0.00867115 0.00212997
C 2.69960725 6.19423505 17.34845767 -0.00252663 0.00443537 0.00022536
C 7.13988065 11.67586466 0.51376118 0.00308894 -0.00557439 -0.00203372
C 1.42825700 7.40598540 24.73774551 0.00049779 0.00009833 0.00122264
C 2.68483943 0.93261922 24.91022164 0.00385022 -0.00323141 0.00622614
C 5.52921033 5.31082483 15.77499647 -0.00502422 0.00082241 0.00568117
C 1.51979518 0.77188012 16.37046168 -0.00269755 -0.00371850 -0.00176011
C 7.24023161 5.57530694 24.41313271 -0.00233656 0.00497684 -0.00479198
C 5.67569726 12.10799848 24.53134033 0.00367835 0.00433796 -0.00716534