1920
Time=23000.00000000 pbc="T T T" Lattice="25.39935206 0.00000000 0.00000000 0.00000000 25.71917715 0.00000000 0.00000000 0.00000000 32.86746454" energy=-12245.38216078 virial="-36.02520420 21.81111778 -5.49581453 21.81111778 -19.56749267 -0.77849175 -5.49581453 -0.77849175 -45.12365547" stress="0.00051245 0.00101393 -0.00029862 0.00101393 0.00143235 -0.00001091 -0.00029862 -0.00001091 0.00017888" Properties=species:S:1:pos:R:3:vel:R:3
O 5.81676861 2.93859507 6.99385698 0.00622562 0.00723805 0.00127462
O 2.61288227 3.61343761 15.18742242 -0.00105092 -0.00945480 0.00658939
O 1.70594524 9.82176056 1.39971289 0.00247258 0.00445422 0.00203200
O 6.60278857 9.65086689 9.65422558 -0.00231259 -0.00497782 0.00071909
O 2.84403586 10.18824656 9.24046333 0.00052096 0.00216830 0.00266892
O 5.97099155 8.88103390 1.24787840 0.00094532 0.00369480 -0.00463272
O 6.59642089 2.98770995 15.21821594 0.00903049 0.00352196 0.00090213
O 1.29564000 3.59101154 6.90769035 -0.00231779 0.00214149 -0.00294152
O 5.98983590 1.02492099 17.06694531 -0.00469169 0.00135154 -0.00393045
O 1.99121023 5.23306584 8.77786292 -0.00432713 0.00206415 -0.00537407
O 2.42150254 11.83538482 7.36015101 0.00145100 -0.00288368 -0.00223688
O 6.27838433 7.49550209 31.94736695 0.00379911 0.00167004 0.00327135
O 1.77874178 11.35694504 32.27127124 0.00097140 -0.00109332 -0.00032311
O 6.44828152 8.18738077 7.53614443 0.00152291 -0.00650891 -0.00330457
O 6.06785901 1.23635547 9.07945001 -0.00763926 0.00552585 0.00621767
O 2.14170161 5.10576348 17.22729982 0.00918860 -0.00214583 0.00081029
O 5.29403360 2.59230239 22.96189953 0.00016317 0.00305739 -0.00525512
O 2.42459508 3.74767645 31.54950232 0.00118903 0.00377975 0.00410596
O 1.85413432 9.86557692 17.70680953 0.00124441 0.00443193 -0.00653635
O 7.03620865 9.09124172 25.90187528 0.00306650 -0.00343282 0.00240575
O 2.59445895 10.01383910 25.98878109 0.00878180 -0.00431410 0.00592678
O 5.55180537 9.25829710 17.94940971 -0.00152076 -0.00860485 0.00036996
O 6.45191123 2.71271821 31.30728027 -0.00284217 -0.00622871 0.00610760
O 1.52405825 4.04045569 23.37972299 0.00102249 -0.00105038 -0.00219007
O 6.12851596 1.25964570 0.67765207 0.00625627 0.00483778 0.00149111
O 2.27603442 5.50625105 25.36806578 0.00060672 -0.00590043 -0.00248237
O 2.49942433 11.58509166 23.90119548 0.00524908 0.00284496 -0.00744147
O 5.87246735 7.90273341 15.80544066 -0.00307836 0.00448850 -0.00182723
O 1.96189864 11.53362725 15.43828385 0.00313992 0.00228445 -0.00356100
O 6.32490866 7.37983296 23.74603658 0.00222202 -0.00005065 0.00082185
O 5.93183554 1.32339500 25.13131186 0.00405669 0.00435317 -0.00630280
O 2.00237833 5.35082488 0.82843944 0.00300590 0.00226648 0.00240100
O 6.07063828 15.73084427 6.88974119 -0.00558965 -0.00695914 -0.00308559
O 2.59047590 16.54565889 15.07721887 0.00704771 -0.00448241 -0.00689157
O 2.06712024 22.77145333 1.26211900 0.00462744 -0.00060968 0.00539852
O 7.47293235 21.87118094 9.52861611 -0.00465407 0.00435077 0.00228586
O 2.51687896 23.10609220 9.47043350 -0.00386600 0.00189208 0.00396477
O 5.95207454 22.03747539 1.12613858 -0.00081214 0.00427435 -0.00042001
O 6.97692414 15.43539334 14.94838284 0.00971287 -0.00449842 0.00525364
O 1.21366022 16.57463489 7.09722312 -0.00143898 -0.00090852 -0.00119841
O 6.41703276 14.31774125 17.30627451 -0.00167612 -0.00724357 -0.00149490
O 2.04757927 18.19324044 8.98184375 -0.00376567 -0.00048669 0.00175239
O 2.13125737 24.43139009 7.40473002 0.00518351 -0.00387409 -0.00169783
O 6.41107863 20.53552400 31.99859247 0.00369970 -0.00136720 0.00375819
O 2.40043926 24.30775337 32.14382173 0.00701466 0.00397887 -0.00327414
O 6.78914753 20.66352979 7.33225504 -0.00116177 -0.00216175 0.00367608
O 6.30063160 14.17638901 8.87342637 0.00178906 0.00913725 -0.00487348
O 1.87148201 18.32233767 17.06870497 0.01045093 -0.00261478 -0.00187085
O 6.00666708 15.62330983 23.44456162 0.00014811 -0.00811075 -0.00883345
O 2.86169002 15.92816456 31.57741446 -0.00410915 0.00277984 -0.00069444
O 1.35699367 22.94830563 17.84434738 0.00168459 0.00443976 -0.00212496
O 7.27414704 21.97591412 25.80736482 0.00400954 0.00202305 -0.00242753
O 2.88778410 22.85681217 25.97377511 0.00599058 -0.00358296 -0.00399336
O 5.41256790 21.91197674 17.55011889 0.00306867 -0.00326715 0.00478448
O 6.83321640 15.64223884 31.65562088 0.00018197 -0.00259817 0.00280747
O 1.85138528 16.63659922 23.17496239 -0.00067545 0.00062087 0.00084511
O 6.60391944 13.89283299 0.83784723 0.00209174 0.00089633 -0.00609074
O 2.23757534 18.12830456 25.37295421 0.00060788 -0.00157517 -0.00267846
O 2.46231242 24.51607491 24.01656166 0.00071159 0.00472992 0.00040177
O 6.49002573 20.74700241 15.46961430 0.00797601 -0.00028241 -0.00325894
O 2.10363654 24.32755863 15.80493925 -0.00547455 -0.00230315 -0.00810996
O 6.42113922 20.66346925 23.64908425 -0.00673266 -0.00174286 -0.00140560
O 6.70055233 14.06048325 25.44422520 -0.00580324 0.00040078 -0.00061621
O 2.66110286 17.75970753 0.74063117 0.01138801 0.00109820 -0.00682525
O 14.32814702 2.67185190 6.60567488 0.00061998 -0.00225942 -0.00846121
O 10.86242207 4.31705865 14.95658247 0.00265294 -0.00104432 0.00266809
O 9.72245101 10.27516806 1.42450053 0.00038871 -0.00191638 0.00439607
O 15.68501644 9.12654544 9.33398918 -0.00319829 -0.00130407 -0.00182635
O 10.93496031 10.34335001 9.69949202 -0.00103338 0.00273320 0.00411015
O 13.89687531 8.57437435 1.37004882 -0.00336881 -0.00373592 0.00112952
O 15.30201169 3.26563893 14.78143856 -0.00198355 -0.00946178 -0.00017899
O 10.08798748 4.01022586 6.80834805 0.00417609 -0.00389338 0.00977115
O 14.65641482 1.71259340 16.87947291 -0.00295184 -0.00614922 0.00437221
O 10.51313632 5.61690397 8.63910118 0.00314074 0.00275800 0.00022670
O 10.55399174 11.53555839 7.40766198 0.00005593 -0.00103945 -0.00203715
O 14.77427135 7.45188998 32.09153868 -0.00040248 0.00029479 0.00118133
O 10.65683925 11.48202774 32.13987602 0.00669208 -0.00329802 -0.00214794
O 14.86282418 7.46728306 7.37947116 -0.00228802 0.00474634 -0.00093540
O 14.47633442 1.42904236 8.71319620 -0.00192758 -0.00269776 0.00159707
O 10.42926122 5.29244798 17.46739835 0.00252339 0.00026066 0.00450957
O 14.37911757 2.67845761 23.07518908 0.00161448 -0.00590968 -0.00645727
O 10.46238810 3.65657780 31.72137982 0.00537726 -0.00561723 0.00268859
O 9.66320352 10.35182855 17.45892288 -0.00844347 -0.00164117 -0.00055335
O 15.58844089 9.10959927 26.00142962 -0.00404631 -0.00076971 0.00681432
O 11.21794421 9.95222987 25.97161070 0.00260632 0.00482137 -0.00466847
O 14.16207825 9.15363508 17.95594047 0.00188996 0.00617599 0.00018166
O 15.04919745 3.08190605 31.43829952 0.00012094 0.00049240 -0.00058926
O 10.14861114 3.36703727 23.46264364 -0.01019644 -0.00298092 -0.00038931
O 15.02473999 1.25436745 0.48329695 0.00393781 0.00133409 0.00041748
O 10.41293721 4.95035148 25.61340877 -0.00146614 -0.00305593 0.00383601
O 11.00490562 11.39776948 23.75750847 0.00664720 0.01003900 0.00228558
O 14.27142806 8.00258659 15.57695719 -0.00092003 0.00371568 0.00017706
O 10.54893521 11.91593156 15.74891650 0.00246897 0.00173694 -0.00568482
O 15.09182580 7.64010357 24.03770364 -0.00005730 0.00526820 0.00689291
O 14.80493195 1.18790730 25.21000990 0.01008735 0.00194822 0.00556141
O 9.68001814 5.50002531 0.65802530 -0.00190470 -0.00284904 -0.00769328
O 14.00649642 15.27435967 7.11760193 0.00078206 0.00077682 0.00255403
O 11.25654238 16.70433464 15.24986900 -0.00528382 0.00356034 0.00476157
O 9.95410683 22.86377865 1.00430157 0.00285382 -0.00963480 -0.00389275
O 14.98458189 22.04808010 9.24308018 0.00016945 0.00228369 0.00128639
O 11.12406498 23.07889105 9.33995689 0.00146558 0.00354493 0.00335941
O 14.35571148 22.37626609 1.37985946 -0.00838958 -0.00503223 -0.00482277
O 14.58522685 15.97765673 15.20453004 0.00142883 0.00212081 0.00194128
O 10.44434759 16.35975072 7.40759297 -0.00436683 0.00133466 -0.00900569
O 14.75608355 14.21541316 17.13580393 0.00401702 -0.00690309 -0.00169186
O 10.69597510 18.10077981 9.26310362 0.00723739 0.00278760 0.00395328
O 10.49913654 24.68340757 7.27906910 0.00037368 0.00017227 0.00341075
O 14.47676860 20.90320903 31.91546383 -0.00043856 0.00778293 0.00006288
O 10.64522459 24.54083937 31.79346283 -0.00308024 0.00269082 -0.00282782
O 14.74329527 20.26462588 7.38521343 0.00462862 -0.00497731 0.00091315
O 15.03897434 13.80268737 9.21190286 0.00471928 0.00389406 -0.00052595
O 10.52250031 18.02959294 17.34078395 0.00047154 -0.00166651 -0.00016651
O 14.22042089 15.02060747 23.41634260 0.00103979 0.00142124 -0.00121352
O 11.23904044 16.61628730 31.81239260 0.00013867 0.00078311 0.00085937
O 9.97936699 23.08606739 17.42560387 0.00494805 -0.00331553 -0.00086402
O 15.67884861 21.74997052 25.80105584 0.00662508 0.00690776 0.00082156
O 11.37446697 23.21490212 25.79754136 -0.00292667 0.00282500 -0.00090556
O 14.43524314 22.33893821 17.50607257 -0.00078708 -0.00083424 0.00907112
O 14.87966866 15.50377609 31.92849537 -0.00886466 -0.00336098 -0.00040685
O 10.77696647 16.43820569 23.61709449 -0.00813553 0.00026690 -0.00248768
O 14.75222136 13.94444704 1.04697199 -0.00020293 -0.00115145 -0.00850133
O 11.06451959 18.37167782 25.37672347 0.00439584 0.00859926 -0.00298760
O 10.83868700 24.26842598 23.60416523 0.00141036 0.01336708 0.00273234
O 14.82027140 20.70081364 15.56795723 -0.00193247 0.00554034 0.00702686
O 10.84385315 24.63497187 15.39145202 0.00317994 -0.00093468 -0.00431314
O 14.68951445 20.51575948 23.71584280 0.00520113 0.00216396 0.00470019
O 14.52386064 14.02171934 25.73904056 0.00482066 -0.00143270 0.00330699
O 10.69071204 17.87650200 1.10350276 -0.00131690 -0.00555656 0.00057647
O 21.99179587 2.83170579 7.00695667 0.00529368 -0.00124034 0.00179306
O 19.68315434 4.00152920 15.51686169 -0.00219979 0.00100425 0.00202102
O 18.38033502 9.89926935 1.20557938 -0.00168996 0.00167210 0.00312758
O 23.52540045 8.93496388 9.37143616 -0.00098811 -0.00074192 0.00785458
O 19.73325166 9.92216136 9.53855368 -0.00354948 -0.00154665 0.00272238
O 22.41325662 8.85561230 1.28197328 -0.00154831 0.00104143 0.00057486
O 23.56037622 2.48804956 15.60413700 -0.00057358 -0.00490721 -0.00449438
O 18.36273461 3.86719978 6.96868235 -0.00373846 -0.00404347 0.00256229
O 23.36936172 1.20183823 17.71291396 0.00493695 0.00074847 -0.00214612
O 18.61949151 4.94646703 9.21847738 0.00154115 0.00355319 -0.00497360
O 19.10004831 11.49356568 7.39850826 -0.00570161 0.00392779 -0.01077702
O 23.04151402 7.81520837 31.87544072 -0.00022942 0.00266270 -0.00388746
O 19.04088592 11.44388844 31.90058049 0.00388316 0.00004533 0.00165307
O 23.02495779 7.24653876 7.16937938 -0.00412986 0.00185058 0.00455847
O 22.56762097 1.40137874 9.18922372 0.00461380 -0.00633129 0.00470486
O 18.77381420 5.26570747 17.57473535 0.00427052 0.00538370 0.00291618
O 23.17768717 2.87215619 23.93037741 -0.00095894 0.00085732 0.00593656
O 19.83810584 3.73994102 31.52493506 -0.00212006 0.00173325 -0.00085543
O 18.47038013 10.14479076 17.78292585 0.00085822 -0.00659470 -0.00112125
O 23.45307703 9.14824500 25.77014146 0.00528148 -0.00145417 -0.00232417
O 19.96100772 10.44889939 25.72288693 0.00108835 -0.00006366 0.00397548
O 22.41322632 9.07657740 17.74759665 -0.00230210 -0.00600979 -0.00094463
O 23.71269623 2.56460214 32.01152905 -0.00301887 -0.00416756 -0.00089368
O 18.95761403 3.65254233 23.77303079 -0.00046554 -0.00055137 0.00043747
O 22.94049897 1.09403591 1.14064934 -0.00288802 -0.00205099 0.00073496
O 19.49142577 5.36870497 25.60794006 0.00232431 -0.00230733 0.00057550
O 18.94220511 11.64093094 23.74743287 -0.00022056 -0.00042883 -0.00346591
O 23.29627019 7.82150404 15.74369131 -0.00334341 0.00418568 0.00079950
O 18.88921707 11.45383023 15.58741095 -0.00238178 -0.00302841 -0.00035447
O 23.28394475 7.75290011 23.68649943 0.00227928 -0.00047742 0.00150235
O 23.36537385 1.01790541 25.66902845 0.00021362 -0.00179277 0.00262321
O 18.85080088 5.17899990 0.66224549 0.00073446 -0.00201465 0.00426865
O 23.10672112 15.83746028 7.45238180 0.00742334 -0.00758505 0.00169917
O 18.90430541 16.22955241 15.16435993 0.00351528 0.00182986 -0.00272150
O 18.67801023 22.80545875 0.94141764 -0.00139025 -0.00924387 -0.00084141
O 24.30071352 22.29171567 9.92518488 0.00389111 0.00364337 -0.00194512
O 19.75327205 23.00604307 9.45863198 0.00020048 0.00261378 0.00147066
O 22.71423435 22.11677597 1.48230578 0.00177620 0.00346084 -0.00329969
O 23.76598390 15.53983910 15.51993137 0.00386471 -0.00088944 0.00202821
O 19.18338874 16.36021109 6.88448559 -0.00225601 0.00167170 -0.00481951
O 23.01789481 14.02344054 17.49989083 -0.00450997 0.00440174 -0.00166838
O 18.51745530 17.81884346 8.98034111 0.00094581 -0.00065874 -0.00383596
O 19.29654349 24.36695435 7.12270397 -0.00584846 -0.00102607 0.00074382
O 23.09181473 20.51041558 32.23411738 0.00375643 -0.00050875 -0.00076213
O 19.55382820 24.51532498 31.86393401 -0.01032817 -0.00014270 0.00165008
O 23.64333541 20.76091754 7.78517444 -0.00570799 0.00241615 0.00484827
O 23.73980325 14.16318288 9.29979730 -0.00465546 -0.00395390 -0.00300383
O 19.16440014 17.81782089 17.27065944 -0.00390406 0.00382389 -0.00453166
O 22.78884898 15.41168801 23.64281331 -0.00265823 -0.00526215 -0.00250050
O 19.54628570 16.58331169 31.62091001 -0.00779184 0.00100638 0.00082619
O 18.34441457 22.80432080 17.69156743 0.00321631 0.00124647 -0.00497616
O 23.72650964 21.52343557 25.99602797 -0.00307920 0.00327638 0.00297705
O 19.70950556 22.73788180 25.70489732 -0.00070438 -0.00158326 -0.00031788
O 22.22412043 21.70299528 17.92071534 -0.00188429 0.00349423 0.00542766
O 23.84874750 15.26341065 32.14652814 -0.00022966 -0.00150225 0.00088369
O 18.63613604 16.31305203 23.41601465 -0.00235250 -0.00410529 0.00663287
O 22.95652394 13.72484376 1.13642264 -0.00174350 0.00241158 -0.00291879
O 19.06823202 17.77026182 25.38080826 -0.00535839 -0.00215479 0.00157564
O 19.39672946 24.51928005 23.80167626 -0.00086871 0.00269332 0.00662686
O 22.76428223 20.59395074 15.73841709 -0.00132114 0.00125236 -0.00551253
O 18.53492342 24.45228597 15.65365461 -0.00269765 -0.00068346 0.00135053
O 23.12166543 20.19245734 23.84079217 -0.00360664 0.00120238 0.00221241
O 23.46858742 14.14886316 25.70339779 -0.00260820 -0.00140641 -0.00009082
O 19.39604100 18.07766762 0.78387285 -0.00076676 0.00047921 -0.00188247
N 7.94473281 12.90642311 2.38744941 -0.00414833 0.00531439 -0.00066647
N 1.10761139 6.36296417 10.57916034 0.00536131 0.00209870 -0.00718865
N 3.09847257 0.06290032 5.81351510 -0.00357891 -0.00625192 -0.00201902
N 5.20244550 6.63268078 14.04116362 -0.00221945 0.00341032 -0.00387354
N 0.96566878 25.63625229 14.20655154 0.00585741 -0.00207064 0.00825258
N 7.48039020 6.68204440 6.17133266 0.00105654 0.00200893 0.00002625
N 5.18119261 12.98785688 10.45175347 0.00650822 -0.00688082 0.00242835
N 3.21074925 6.29144580 2.47435715 -0.00315631 -0.00426725 0.00508744
N 7.55707751 13.05712374 18.87499599 0.00508218 -0.00066410 0.00469283
N 0.66897610 6.21504994 26.87262642 -0.00068597 -0.00838753 0.00466813
N 3.40295465 25.61854227 22.27107547 0.00127516 0.00323182 -0.00718830
N 4.92988724 6.64725242 30.35523648 -0.00652054 0.00273592 -0.00449518
N 1.11872568 25.50698885 30.60013580 -0.00885325 -0.00166962 0.00256183
N 7.68349482 6.51005981 22.09009246 0.00226444 0.00760464 -0.00311883
N 5.27467656 12.98727933 26.97221530 0.00164910 -0.00238850 -0.00475006
N 3.27417408 6.48300753 18.73331815 0.00031956 0.00242442 0.00454091
N 7.20896392 0.09720097 2.31256412 0.00397577 -0.00030406 -0.00027178
N 0.85725311 19.35689906 10.57185540 0.00220882 0.00297837 -0.00850560
N 3.40980549 12.89359901 5.61977552 -0.00191465 0.00096913 -0.00381417
N 5.30984299 19.53244326 13.84190475 -0.00320123 -0.00007756 0.00009722
N 0.98276785 12.76164243 13.74749946 0.00360653 0.00067062 -0.00135697
N 7.60600005 19.24153194 5.81177059 -0.00836072 0.00273688 0.00748081
N 5.58838219 25.59711522 10.77131503 0.00367547 -0.00154882 -0.00474091
N 3.31101608 18.98455690 2.59060407 -0.00124909 0.00008858 0.00507919
N 7.35347029 0.02334242 18.61937119 -0.00313657 -0.00058869 0.00309568
N 0.96585333 18.88175938 27.16620952 -0.00279349 -0.00000252 0.00600453
N 2.95994225 12.99503390 22.23690185 -0.00379254 0.00096822 0.00815035
N 5.22364763 19.43011702 30.31494388 0.00742482 -0.00061346 -0.00406216
N 1.12194727 12.72367024 30.53924441 0.00282875 0.00729471 0.00013928
N 7.76139164 19.68831785 22.03750533 0.00230470 -0.00055143 0.00323506
N 5.02074842 25.62908551 26.83189788 -0.00201423 -0.00140898 0.00372149
N 3.13349127 19.53067797 18.56244500 -0.00757282 0.00531540 0.00028434
N 16.20142658 13.00634450 2.60240675 0.00626831 -0.00627158 0.00168211
N 9.43240007 6.84693480 10.23575156 0.00195751 -0.00793280 -0.00502166
N 11.63248525 25.66718557 5.46098809 -0.00345525 -0.00460958 0.00715334
N 13.54916190 6.69033997 13.86742541 0.00290629 0.00110802 -0.00284924
N 9.55977825 0.06202369 13.85355765 0.00199271 -0.00431482 -0.00663814
N 16.10333424 6.17594268 5.82187814 -0.00367348 -0.00509552 0.00159929
N 13.92678962 12.69868445 10.84008014 0.00267914 0.00238705 -0.00351237
N 10.92705575 6.63779809 2.26492062 -0.00072713 0.00101160 0.00171565
N 15.75509048 12.84894196 18.64957591 0.00036983 0.00139703 -0.00165445
N 9.64039980 6.52622863 27.10274232 -0.00369380 -0.00625722 -0.00027717
N 11.80944483 25.61393741 22.08340738 -0.00450446 0.00244017 -0.00022845
N 13.53341661 6.35385073 30.46592325 0.00109742 -0.00560678 -0.00428960
N 9.32202821 25.69315326 30.39287803 -0.00501463 -0.00924148 -0.00358382
N 16.20979838 6.57006970 22.38127081 0.00743714 -0.00406875 0.00013350
N 13.66785266 12.67133785 27.31387246 -0.00359599 -0.00086679 -0.00271170
N 11.77945076 6.39387618 18.92462580 -0.00357890 0.00291568 -0.00585813
N 15.71731579 25.55633898 2.05150973 -0.00251313 0.00116369 0.00363228
N 9.45094556 19.27689639 10.78971899 0.00344375 0.00055521 -0.00293997
N 11.86856970 12.58677894 5.99723082 0.00358310 0.00953205 -0.00305322
N 13.54446077 19.55430827 14.11495043 -0.00063457 -0.00865778 -0.00080734
N 9.32617953 13.03987139 14.17343562 -0.00194342 -0.00340310 -0.00010360
N 16.01144479 19.40599454 5.71608250 -0.00466385 0.00202597 0.00374744
N 13.56864869 0.21227188 10.48089924 -0.00116616 0.01245614 0.00461771
N 11.83588108 19.05037928 2.66498958 0.00783375 -0.00366831 -0.00007763
N 15.73114672 0.19914629 18.25560960 0.00315284 -0.00360599 -0.00527674
N 9.56169182 19.05077179 27.11001175 0.00361778 -0.00253051 0.00518351
N 11.96835690 12.66723396 22.03258924 0.00009808 0.00592720 0.00365610
N 13.64888515 19.43757852 30.36293037 0.00082857 0.00070281 -0.00101326
N 9.39452427 12.51711892 30.48766550 -0.01200601 -0.00505622 -0.00429128
N 15.92597325 19.57043609 21.98880756 0.00173682 -0.00022047 -0.00217061
N 13.79822720 0.07621467 26.88204542 -0.00337881 0.00216494 0.00368656
N 11.77188702 19.18462987 18.84104361 -0.00414261 0.00077067 0.00406445
N 24.42252348 13.01656912 2.78698320 0.00090545 0.00393798 0.00313323
N 18.06925792 6.36124311 10.90979809 -0.00100214 -0.00527155 0.00074856
N 19.87957051 0.03213234 5.39016956 -0.00179287 0.00013658 -0.00831223
N 22.25212070 6.49218892 14.19690333 0.00053844 -0.00043343 -0.00901318
N 17.89996191 25.70775035 13.88376562 -0.00066700 0.00044646 0.00574013
N 24.50449948 6.34562398 5.62628499 -0.00055978 0.00108701 -0.00193474
N 22.47575239 12.97543052 10.78008326 0.00208406 0.00709316 0.00285188
N 20.21873482 6.25223062 2.29835098 -0.00198625 0.00739699 0.00135953
N 24.30059585 12.91366479 19.06075160 0.00259894 0.00662351 0.00100667
N 18.21225042 6.45491093 27.17417457 0.00246138 0.00877519 0.00306647
N 20.25532201 25.63860009 22.01261953 0.00237688 -0.00384406 0.00189061
N 22.03134945 6.47313446 30.34522244 -0.00208378 0.00010012 -0.00083505
N 18.17264535 25.46724469 30.21958695 -0.00257612 -0.00711709 -0.00057984
N 24.79343103 6.79317564 22.07855294 -0.00999688 -0.00761356 0.00790359
N 21.98719619 13.46270363 27.27195774 0.00387989 -0.00033524 0.00266894
N 20.14118996 6.26238429 18.98373987 -0.00369741 0.00389751 -0.00094440
N 24.61747200 0.62093330 2.58881032 -0.00057379 -0.00470354 -0.00258113
N 17.96391501 19.33479681 10.71019443 0.00614814 -0.00513529 0.00780398
N 20.17653592 12.60397124 5.69767671 -0.00194369 0.00047691 0.00616012
N 21.77454468 19.56813402 13.96461033 0.00883445 -0.00721729 -0.00127615
N 17.88993648 12.73049092 13.93757265 0.00200187 0.00022756 0.00005630
N 24.32314355 19.48880488 6.03130036 -0.00543890 0.00074435 -0.00005065
N 22.03504146 25.59882764 10.86081046 0.00520631 0.00165531 -0.00080567
N 20.21460907 19.40115915 2.40304368 0.00829439 0.00255482 -0.00562799
N 24.37641128 25.64408937 19.38999705 -0.00301973 -0.00244411 0.00034281
N 17.95579069 19.01057340 26.90103140 0.00140900 0.00069421 0.00804908
N 20.39931837 12.69406046 22.34071411 0.00030525 -0.00707716 -0.00614824
N 22.31497172 18.95308884 30.69003242 -0.00005898 -0.00325667 -0.00439270
N 17.77663118 12.52691220 30.35279317 0.00515272 0.00228547 0.00002673
N 24.42059969 19.31367233 22.17607339 0.00321081 0.01079753 -0.00306719
N 22.47662227 25.48202808 27.38421890 0.00790938 0.00257817 0.00245294
N 20.02393723 19.19960095 18.95760335 0.00153114 0.00075610 -0.00064378
C 7.31147919 0.43820673 4.64133516 0.00301962 0.00201828 0.00366474
C 0.99234384 5.93703142 12.96727140 -0.00286511 -0.00425027 0.00389867
C 3.41129067 12.40472963 3.23900769 0.00295875 -0.00564993 0.00178692
C 5.33739718 6.92463709 11.67752082 -0.00249266 0.00157883 0.00652213
C 1.01626714 12.45363442 11.38085107 -0.00130222 -0.00964914 -0.00029747
C 7.27829563 6.53045241 3.74128370 -0.00048340 -0.00381916 0.00922072
C 5.25532267 0.32365551 13.11680338 0.00389429 0.00278999 -0.00027873
C 3.26203710 5.88787008 4.83842365 0.00498939 -0.00188087 0.00187710
C 6.94966293 1.08908929 5.85229034 0.00451139 -0.00428926 -0.00636392
C 1.34350097 5.23948258 14.03849540 -0.00685826 0.00110299 -0.00517872
C 2.97637953 11.71059289 2.16055988 -0.00222981 0.00199302 0.00014015
C 5.57961985 7.72110702 10.56626325 0.00877763 0.01258306 -0.00644301
C 1.57369803 11.86718229 10.32859343 0.00303001 -0.00684304 -0.00152460
C 6.91306999 7.05282122 2.51063524 0.00056547 0.00543400 -0.00262449
C 5.42324489 1.18768910 14.18925537 0.00068789 -0.00516760 0.00462532
C 2.85322873 5.17333773 5.94924667 0.00459592 0.00683065 -0.00075929
C 6.27436931 2.28648644 5.80302304 0.00381573 0.00468368 -0.00523198
C 2.12357410 4.12756423 14.09056920 -0.00306985 0.00493939 0.00517136
C 2.06482232 10.62209889 2.37202305 -0.00653072 -0.00362104 0.00315324
C 6.21528772 8.91213373 10.73396696 -0.00001657 0.00708567 0.00853399
C 2.31705199 10.69228516 10.34107182 0.00166432 -0.00916630 -0.00202024
C 6.25430728 8.32076311 2.45014396 0.00149628 0.00356810 0.00306366
C 6.17676467 2.41926274 14.06384228 -0.00179317 0.00240954 -0.00692568
C 1.96424695 4.09432314 5.82873976 0.00388072 -0.00391094 0.00238192
C 5.87809969 2.77443454 4.54603050 0.00691898 -0.00266276 -0.00708048
C 2.33692864 3.63479748 12.78903751 -0.00488902 0.00018621 0.00100414
C 1.69117773 10.27731648 3.70371007 0.00223688 0.00399574 -0.00173756
C 6.51471861 9.37559813 12.05648762 0.01032312 0.00327687 0.00551892
C 2.36015491 10.06809600 11.58403975 -0.00554575 0.00221175 -0.00286816
C 6.13241944 9.01359704 3.64808012 -0.00677910 -0.00369881 0.00605052
C 6.51379862 2.86488186 12.81012929 -0.00527112 -0.00324128 0.00188824
C 1.55487292 3.67158420 4.54981124 -0.00214461 -0.00448743 0.00011645
C 6.31777294 2.19394193 3.36787116 -0.00189132 -0.00054758 0.00420324
C 2.05279213 4.25182005 11.58606791 0.00313397 0.00429390 0.00085624
C 2.04336136 11.08516493 4.76035767 -0.00299890 -0.00030903 -0.00152251
C 6.00817315 8.77495378 13.14995151 0.00027000 0.00215452 -0.00321642
C 1.94944276 10.64922595 12.75472759 -0.00047897 0.00145351 -0.00379982
C 6.55373097 8.55498904 4.85786715 0.00032143 0.00095364 0.00065969
C 6.16333875 2.09179765 11.74596024 -0.00498459 -0.00176806 0.00252251
C 1.98167720 4.40562134 3.42930523 0.00470126 -0.00478059 0.00465504
C 6.96234759 0.96449324 3.39293718 -0.01497326 0.00302273 -0.00213623
C 1.42416591 5.53406802 11.67053083 0.00107546 0.00211338 -0.00050355
C 2.98346795 12.12741375 4.53312166 -0.00347354 0.00134000 -0.00781768
C 5.50266642 7.48572263 12.95939401 -0.00429040 0.00352133 0.00230424
C 1.32398815 11.94591289 12.69867807 -0.00349090 0.00582871 -0.00319995
C 7.03748408 7.22808592 4.94242745 0.00013176 -0.00164237 0.00162271
C 5.67602109 0.77054726 11.83207688 0.00568996 -0.00245275 0.00205973
C 2.81812215 5.53209665 3.54960913 0.00021333 0.00302520 0.00035673
C 6.64574934 0.19492465 1.06209720 0.00052882 -0.00498423 0.00138791
C 1.51106799 6.20763124 9.27739382 0.00315387 0.00513322 -0.00157118
C 2.92466755 12.81733953 6.87628195 0.00483472 -0.00346438 -0.00453472
C 5.56301336 6.81530502 15.34436069 0.00094018 0.00103429 -0.00154031
C 1.48611662 12.60567812 15.09311637 -0.00321213 0.00086914 0.00263792
C 6.84415009 7.00640458 7.36847809 -0.00210724 -0.00060404 -0.00198176
C 5.76964668 0.12097696 9.49848503 -0.00518630 0.00188337 -0.00260526
C 2.59468559 6.31292495 1.22482932 0.00360444 0.00263645 0.00599857
C 6.75033494 11.99163984 16.93736282 0.00679680 -0.00042103 0.00504290
C 1.44160187 7.54642037 8.45988844 -0.00384242 -0.00528892 0.00346594
C 2.81049661 0.93764041 8.09441606 -0.00360272 0.00019703 -0.00502653
C 5.27913450 5.39068564 32.37993543 -0.00491551 0.00289794 -0.00515283
C 1.63488485 0.82853601 32.59459160 0.00609881 -0.00229176 0.00402649
C 6.65974760 5.91518625 8.35120030 0.00030540 0.00088817 0.00757507
C 5.52886958 12.01424965 8.22648786 0.00219785 -0.00011432 0.00749615
C 2.67835046 7.36960725 16.55021401 0.00352384 -0.00052726 -0.00041921
C 7.39510122 0.40199901 21.03111263 0.00268077 0.00219262 -0.00025560
C 0.80626458 6.11492537 29.22995492 0.00685414 -0.00750004 0.00097048
C 3.09249344 12.56526974 19.81784816 0.00584686 0.00546806 0.00583349
C 4.96365365 6.89795354 27.98853415 0.00209275 0.00095288 0.00398451
C 0.96075371 12.39018242 28.14846984 -0.00526546 0.00708352 -0.00444457
C 7.33580056 6.79206667 19.87073277 -0.00487266 0.00560996 0.00055260
C 5.13108454 0.08142942 29.23376417 0.00633358 -0.00861318 -0.00004161
C 3.32689346 6.23582206 21.09964335 -0.00422945 0.00062799 -0.00607283
C 7.01065018 1.15734523 22.11648221 0.00349094 0.00058754 0.00362094
C 1.11524918 5.40161954 30.35912918 -0.00116763 0.00190185 0.00761549
C 2.94185940 11.71089184 18.73232473 -0.00054370 0.00031892 -0.00355098
C 5.47218816 7.52309723 26.88078878 0.00710618 -0.00035451 -0.00420872
C 1.21086479 11.60443646 27.06907782 0.00476945 -0.00585953 -0.00366468
C 6.82950839 7.44419308 18.78609479 0.00321447 0.00063302 0.00430797
C 5.37737515 0.84947163 30.34022213 -0.00510475 0.00255277 -0.00732136
C 3.00110329 5.58588597 22.23979117 -0.00154700 -0.00185266 -0.00612736
C 6.11089646 2.21304148 21.96791747 -0.00016891 0.00197637 -0.00785460
C 1.92483336 4.24762293 30.35762240 0.00538279 0.00910908 0.00143242
C 2.17022821 10.62414114 18.81552177 0.00716005 -0.00173031 -0.00329609
C 6.46573896 8.56067839 27.01840264 0.00174323 0.00582993 0.00111935
C 2.09950547 10.47649576 27.15436634 0.00716885 -0.00333339 -0.00152342
C 6.14481617 8.64975901 18.95082941 -0.00107284 -0.00105459 -0.00310993
C 6.03063445 2.05884709 30.19774518 -0.00765104 -0.00096374 -0.00268082
C 2.10999179 4.47962061 22.21856883 0.00047810 0.01219492 -0.00058706
C 5.96944833 2.80031504 20.68814295 -0.00096251 -0.00086142 -0.00586300
C 2.24850340 3.70978199 29.11035317 0.00386958 0.00172534 0.00312014
C 1.86647534 10.14858526 20.10476793 -0.00123296 0.00508616 0.00312090
C 6.82225745 9.00912339 28.29942625 -0.00470350 -0.00408721 -0.00023756
C 2.37093159 9.99418531 28.43260273 0.00876121 0.00132439 -0.00171955
C 6.05341422 9.23419722 20.27208525 0.00540684 0.00619058 0.00163301
C 6.19803338 2.67473160 28.94942642 -0.00068733 0.00545276 0.00446714
C 1.82336380 3.81631759 21.00066215 0.00099149 -0.00259272 -0.00977009
C 6.40130899 2.11302403 19.61674013 -0.00011348 -0.00978507 0.00779851
C 1.73513997 4.26329334 27.93138065 0.00403446 -0.00243494 0.00154777
C 2.21727717 10.84827101 21.30648934 -0.00250333 0.00407988 0.00604036
C 6.14323668 8.45856229 29.36453078 -0.00554358 0.00180094 -0.00381188
C 1.99541347 10.70007403 29.52833394 0.00133394 0.00155772 -0.00707888
C 6.71719161 8.68996602 21.32224527 -0.00313747 0.00035684 -0.00365434
C 5.91551802 1.96330973 27.82031042 -0.00324388 0.00205166 0.00906568
C 2.21947220 4.52215576 19.84370593 -0.00018988 0.00007963 -0.00015952
C 7.02332431 0.84216339 19.73320352 -0.00244544 0.00144248 -0.00021133
C 1.04543829 5.49876679 27.98110411 0.00033910 0.00163770 0.00401661
C 2.82047219 12.13712429 21.15045682 0.00533103 -0.00180974 -0.00712596
C 5.35268234 7.36410964 29.27202339 -0.00554579 0.00509961 0.00310512
C 1.38581814 11.94228389 29.45656048 0.00066838 0.00086428 0.00112953
C 7.21852951 7.33394279 21.13622853 0.00581921 -0.00590709 0.00578613
C 5.35154706 0.59917982 27.99082636 -0.00052271 -0.00863420 0.00650965
C 2.88597265 5.75927918 19.86784625 0.00575702 0.00496770 -0.00520648
C 6.74370671 0.13506738 17.44175194 0.00117322 -0.00530628 0.00391212
C 1.46721686 6.33724888 25.72899783 -0.00807526 0.00009884 0.00689834
C 2.86487268 12.68183768 23.56112808 -0.00070568 0.00449025 0.00592510
C 5.53803954 6.60750553 31.54994796 0.00650644 0.00272980 0.00210749
C 1.53362835 12.47815053 31.78439651 0.00355974 0.00969601 0.00477542
C 7.06750785 6.46366195 23.38924736 -0.00451688 0.00426663 -0.01092901
C 5.65794288 0.22275628 25.59443458 0.00158442 0.00125263 -0.00077916
C 2.63178474 6.22017587 17.55213108 0.00139478 -0.00929431 0.00137825
C 7.23134408 11.64965554 0.41757108 -0.00030931 -0.00208969 0.00119434
C 1.25500848 7.67912211 24.96849240 -0.00168450 -0.00178123 0.00056039
C 2.82854620 1.15028164 24.32981176 -0.00097314 -0.00443316 -0.00284151
C 5.73784014 5.58716787 16.18910555 0.00044948 0.00058465 -0.00128861
C 1.34277551 0.77438929 16.47748908 -0.00354348 -0.00600453 0.00416495
C 7.28293750 5.17938807 24.13152655 0.00194395 -0.00193877 0.00282665
C 5.71049799 11.88011348 24.81258117 -0.00221528 0.00000369 0.00224300
C 2.77776084 7.45457725 0.26457007 0.00769139 0.00021577 -0.00370988