1920
Time=32000.00000001 pbc="T T T" Lattice="25.49575716 0.00000000 0.00000000 0.00000000 25.69032585 0.00000000 0.00000000 0.00000000 32.85673299" energy=-12248.42775697 virial="-35.77897902 23.12477831 -0.12962662 23.12477831 -24.99737756 20.02477802 -0.12962662 20.02477802 -48.33988967" stress="0.00059459 0.00112719 -0.00005389 0.00112719 0.00116425 0.00099562 -0.00005389 0.00099562 -0.00004806" Properties=species:S:1:pos:R:3:vel:R:3
O 5.92128029 2.66846698 6.69166769 -0.00051703 0.00002630 0.00425888
O 2.85102679 3.68003302 14.92072690 -0.00124577 -0.00361996 0.00102020
O 1.75297854 10.29026203 1.15437046 0.00590758 0.00335994 0.00160729
O 6.90518791 8.83028992 9.34655067 -0.00649457 0.00618898 0.00242227
O 2.38048965 9.89950758 9.46450585 0.00018355 0.00387830 0.00485419
O 5.43653365 8.97374118 1.24475612 -0.00214666 -0.00508992 -0.00155116
O 6.94835855 2.33374101 15.19680906 -0.00362665 -0.00437384 0.00600172
O 1.54982305 3.85884454 6.80026305 -0.00061169 -0.00802342 -0.00397648
O 6.02368287 0.97927867 17.21085700 -0.00980005 -0.00091776 0.00811258
O 2.57807676 5.09264500 8.80055913 0.00064949 0.00072845 -0.00323884
O 1.88752135 11.55732103 7.52644317 -0.00485261 -0.00117737 0.00158214
O 6.15777580 7.70295093 32.01867524 0.00232996 -0.00193580 -0.00215843
O 2.43938781 11.79667366 32.19014045 0.00560090 0.00046113 0.00184944
O 6.18148638 7.54111564 7.30783950 0.00112924 0.00501005 0.00402823
O 5.76676230 1.54704126 9.01149207 -0.00625158 -0.00239593 0.00495071
O 2.51021569 5.03518744 17.17632593 -0.00047489 -0.00865857 -0.00916108
O 6.06132995 2.77741583 23.35913318 0.00601821 0.00111905 -0.00264565
O 2.84011893 3.78029192 31.26759964 -0.00451842 0.00423885 0.00888164
O 1.63601121 9.73253063 17.91444038 0.00281392 -0.00159934 -0.00518912
O 6.52891399 9.42358907 25.87011352 -0.00049974 -0.00173193 -0.00276626
O 2.36967086 10.30892483 26.01957799 -0.00376503 0.00311844 0.00547896
O 6.10199992 9.01981525 17.65053564 0.00858112 -0.00100301 0.00249710
O 6.58054655 2.42877849 31.84582253 -0.00215306 0.00200617 -0.00636639
O 1.94431680 3.44210579 23.46701589 -0.01587517 -0.01039663 -0.00655487
O 5.91496163 0.72730775 0.76733141 0.00231062 0.00515978 0.00007842
O 2.21500510 5.26363786 25.37029775 -0.00434043 0.00368223 0.00055493
O 2.32819266 11.99708771 23.91007877 -0.00100731 -0.00702867 -0.00181102
O 6.25212051 7.50187678 15.62039488 -0.00097630 -0.00629387 0.00072138
O 1.92934913 11.22192362 15.70446821 -0.00214176 -0.00579659 0.00115740
O 6.49188662 7.66393928 23.71967964 0.00103870 -0.00144384 -0.00223404
O 6.65527466 1.43708651 25.45040644 -0.00169860 -0.00632205 -0.00538902
O 2.21711932 5.19562322 0.62170203 0.00012453 0.00213813 0.00178819
O 5.88000895 15.73781189 7.28938659 0.00446137 0.00046217 -0.00269131
O 2.97780980 15.87960780 14.37311741 -0.00646682 -0.00181971 -0.00711336
O 1.70591150 22.69867478 1.24990288 0.00603515 -0.00615862 -0.00106008
O 6.94826020 22.51073577 8.99938617 0.00315368 -0.00443104 -0.00087030
O 3.03842033 22.95757476 9.75482644 0.00850675 0.00456350 -0.00142673
O 5.60191510 22.00844817 0.79099532 -0.00185292 -0.00002645 0.00961568
O 7.22082601 14.96279609 15.28005906 -0.00577421 0.00150393 -0.00032598
O 1.79788199 16.48930137 6.53193646 -0.00248511 0.00187324 0.00256239
O 6.40883252 13.82447844 17.46265153 -0.00245281 0.00515203 -0.00611484
O 2.35816753 18.19008711 8.46832540 -0.00035869 -0.00105934 0.00197716
O 2.28183350 24.35221179 7.48247485 0.00112239 0.00041622 0.00418572
O 6.41474775 20.69349516 31.48482288 -0.00651536 -0.00470606 -0.00722599
O 1.78753012 24.43274375 32.06769115 0.00394536 -0.00818935 -0.00583501
O 6.59656982 20.83380810 6.94016616 -0.00001097 0.00309861 0.00269295
O 6.47362855 13.83931304 9.20829074 0.00197347 0.00575569 0.00150143
O 2.61605093 17.66106774 16.42311600 -0.00432732 0.00639711 -0.00050656
O 5.94960288 15.84957192 23.44234307 -0.00437686 -0.00069376 0.00053119
O 2.06464182 16.30212401 31.23863920 -0.00661287 0.00092285 -0.00613443
O 1.68907895 22.50567580 17.93772644 0.00325912 0.00109149 0.00069640
O 6.60264958 22.16497731 25.27967878 -0.00344141 0.00249201 -0.00122185
O 2.80600125 22.78446063 26.05087419 -0.00495870 -0.00024182 -0.00106072
O 5.49109296 21.89375604 16.98399464 0.00260884 0.00257536 -0.00490380
O 6.60832821 15.63796497 31.98270162 -0.00764897 -0.00368171 -0.00005778
O 1.86475443 16.78157502 22.88776261 -0.00305262 0.00266937 -0.00157613
O 5.92449152 14.20986480 1.26164327 0.00119063 -0.00045919 0.00024946
O 2.30622742 18.21920425 24.98215250 0.00207152 -0.00107299 0.00155168
O 2.35991281 24.24344634 24.01258927 -0.00016538 0.00078391 -0.00177189
O 6.52315719 20.46538446 14.97974502 -0.00288758 -0.00215373 -0.00565189
O 1.30775119 24.31315111 15.73035853 -0.00703572 0.00820080 -0.00160624
O 6.10081423 20.78274036 23.17034347 -0.00090771 -0.00841948 -0.00328921
O 6.27086263 14.55225621 25.48739750 0.00144118 0.00004748 -0.00301966
O 1.82446303 18.04124015 0.28938680 -0.00016415 0.00286221 -0.00141580
O 14.20789870 2.68798409 6.82086625 0.00589477 0.00176026 0.00121057
O 11.30030537 3.51969051 15.10018739 0.00084770 0.00740324 -0.00111717
O 9.56124681 10.59169861 1.68681142 -0.00437954 0.00399089 0.00380848
O 15.01282204 8.97624066 9.98020697 0.00112346 0.00949650 -0.00154849
O 10.48532429 9.95590365 9.68533064 -0.00004194 -0.00224214 0.00032897
O 14.51237098 9.46674611 1.64903739 -0.00356532 0.00158884 -0.00040167
O 15.20473985 2.49973199 15.08020901 0.00096858 -0.00093101 -0.00070554
O 10.15435324 3.29050234 6.78797291 -0.00067731 -0.00045532 -0.01044296
O 15.03807497 0.89329163 17.34898058 -0.00157198 0.00742225 0.00371274
O 10.80274123 5.00685366 9.00201353 0.00266323 -0.00349098 -0.00160294
O 10.53201693 11.97004653 7.72891970 -0.00097731 0.00262999 -0.00166400
O 14.79307399 7.97493381 32.50977574 -0.00016806 -0.00184495 -0.00620519
O 10.63144255 11.73105098 32.43599734 0.00379807 0.00334715 -0.00400966
O 15.34095622 7.62206272 7.90233929 -0.00182300 -0.00395520 -0.00290701
O 14.63108872 1.15056918 8.98734385 0.00039059 0.00904045 0.00086874
O 11.10501804 5.06227262 17.10341875 0.00358896 -0.00187586 -0.00538092
O 14.16653973 2.84320296 23.37431717 0.00500743 -0.00399782 -0.00666631
O 10.98627224 3.87149414 31.87376007 0.00081713 0.00190329 -0.00120120
O 10.01038361 10.07392294 18.04988705 0.00690350 0.00431762 -0.00467164
O 15.25870242 9.18154911 26.03696123 0.00460862 0.00056258 -0.00335142
O 11.18483151 10.27829153 26.23756051 0.00105542 0.00260865 -0.00027428
O 14.30791833 8.90613855 18.18952557 -0.00468644 -0.00685923 0.00036666
O 14.93655718 3.56797690 31.47902262 -0.00118987 -0.00132552 0.00032943
O 10.31835742 4.00729612 23.33687198 0.00425938 0.00598018 0.00060184
O 15.00626950 1.67242988 0.63234849 0.00068572 -0.00224664 -0.00368659
O 10.29983148 5.35720842 25.61932532 -0.00110111 0.00463915 0.00033315
O 10.47475779 11.46937026 24.11081836 -0.00395595 -0.00531005 -0.00460213
O 14.78711639 7.31173633 16.24300696 -0.00243899 -0.00049426 0.00382893
O 10.64649359 11.65879886 15.93219180 -0.00039584 -0.00012097 0.00195979
O 14.81032896 7.57407078 24.23242126 0.00462161 0.00001960 -0.00224185
O 14.71572832 1.28435513 25.41706852 -0.00186651 -0.00354107 0.00623880
O 10.55700380 5.49128571 0.89799559 0.00193653 -0.00632274 0.00788846
O 14.59321955 15.70988844 6.93442504 0.00144113 0.00185384 0.00461787
O 10.95345231 16.17235923 14.73652318 0.00047921 -0.00048482 -0.00270135
O 10.02629763 22.87333640 1.43722450 -0.00436391 0.00312940 0.00129245
O 15.63391117 21.97325879 9.26987953 0.00803801 -0.00406961 0.00353192
O 11.04901907 23.09528219 9.64099941 -0.00282452 -0.00393511 0.00463538
O 14.54351283 22.07214564 1.07295093 -0.00843146 0.00046526 0.00659464
O 15.24818696 15.30150561 15.47636388 0.00186882 -0.00081258 -0.00150036
O 9.93079417 16.29857376 6.58755201 0.00257768 0.00182940 0.00426712
O 15.07784429 14.04270356 17.65214836 -0.00110489 -0.00511274 0.00321855
O 10.20905343 18.04065039 8.60685961 -0.00617512 0.00326818 0.00230999
O 10.62937837 24.61763613 7.56890939 0.00049840 -0.00161881 -0.00105018
O 14.87669248 20.44296264 31.79142292 0.00242441 0.00009248 -0.00219360
O 10.49322021 24.50576104 32.12717763 0.00179518 -0.00001759 0.00336037
O 14.49390036 20.49030716 7.28426694 0.00309287 0.00086192 -0.00200802
O 14.70363102 14.16314354 9.20969607 -0.00020387 0.00259844 0.00070744
O 10.72420812 17.98095969 17.00269359 0.00931081 -0.00166294 -0.00038803
O 14.25063686 15.51903759 23.54907417 0.00219715 0.00244934 -0.00371053
O 11.52427723 16.65447340 31.52104554 0.00242579 0.00106364 -0.00399771
O 9.93203695 22.92636855 18.02173809 0.00008874 -0.00141240 0.00667443
O 15.37706652 21.99818934 25.59341036 -0.00378219 0.00139513 -0.00021104
O 10.90429907 22.93056684 26.05582760 0.00216554 -0.00364119 0.00090578
O 14.03490756 21.86062547 17.42363500 -0.00314410 0.00280325 0.00556920
O 15.81740202 15.29626057 31.93917751 -0.00557554 -0.00189008 0.00509911
O 10.31632060 16.50477275 23.11323469 0.00584476 -0.00432566 0.00454094
O 14.71785294 13.93062990 0.84746716 -0.00067934 0.00143582 -0.00394352
O 10.75740532 17.88077196 25.41912205 0.00413053 -0.00003870 -0.00743596
O 10.99315812 24.69078309 24.07367277 0.00119932 0.00179762 0.00204343
O 15.14002119 20.22840014 15.43721547 -0.00124956 -0.00080574 0.00109432
O 10.15395908 24.31292996 15.94459600 -0.00697653 -0.00313948 -0.00223904
O 15.02234054 20.55474495 23.51965323 -0.01049810 0.00815569 0.00477085
O 14.87466861 14.20934209 25.68979488 -0.00598981 0.00393716 0.00050912
O 10.73745399 18.16121073 0.41678626 0.00611301 0.00599830 0.00009599
O 22.75275006 2.24445696 7.20094889 0.00123000 0.00050887 -0.00507693
O 19.74546295 3.48671644 15.81077627 0.00724784 0.00369038 0.00644788
O 18.95072871 10.35314884 1.70297160 -0.00362448 -0.00371963 -0.00054369
O 24.15909658 8.75746161 9.46407683 0.00246355 0.00067827 0.00118614
O 19.66176571 10.25421707 9.82883435 0.00663669 0.00665292 -0.00015800
O 22.90142992 9.43654447 1.50112642 0.00005500 -0.00484331 0.00450112
O 23.57415818 3.02476150 15.27249018 0.00005104 0.00273225 0.00150116
O 18.61234979 4.03461426 7.34878842 0.00551974 -0.00423177 -0.00732488
O 23.78368047 1.53394797 17.35878668 0.00071112 0.00351715 0.00591887
O 19.05748475 5.24277806 9.56872219 0.00003009 0.00409481 0.00409914
O 18.88322587 11.65173145 7.95588791 0.00627364 0.00032291 0.00034706
O 23.13443447 7.97344227 32.19059449 0.00204479 -0.00339859 0.00000041
O 19.18719293 11.66010028 32.44837325 -0.00155768 0.00148885 0.00055394
O 23.40716300 7.37727997 7.45598960 0.00325924 0.00477979 -0.00029767
O 23.54047255 0.87630878 9.14414678 -0.00023548 -0.00312926 -0.00079962
O 18.68138572 5.08039172 17.62108595 -0.00557021 -0.00019564 -0.00348015
O 23.04269406 2.74871479 23.74067391 -0.00084420 -0.00236243 -0.00004056
O 19.90416449 3.66590001 31.76285682 0.00166888 -0.00420660 0.00361097
O 18.87635320 10.17609262 18.04567321 0.00147808 -0.00267209 -0.00199044
O 24.19742239 9.03408429 25.82995502 -0.00262396 0.00433862 0.00819399
O 20.04987863 10.39312751 26.31724671 -0.00113019 0.00143693 0.00235556
O 23.03986173 9.17730845 17.58160621 -0.00108987 0.00030415 -0.00756764
O 23.46907527 2.77031971 31.83828086 0.00190169 0.00316660 0.00059160
O 18.74716916 3.99736345 23.84416316 0.00282918 -0.00200126 -0.00115121
O 23.10597580 1.40859144 1.02379589 0.00248820 -0.00194936 0.00632959
O 19.39819009 5.59524298 25.81435788 0.00270675 0.00223324 -0.00895991
O 19.48972959 11.68790439 24.21799856 0.00479135 0.00097858 0.00322243
O 22.97558582 7.84461426 15.57435345 0.00398248 -0.00230738 0.00004144
O 19.02864404 11.50309014 15.92450937 -0.00256151 0.00026213 -0.00120690
O 23.20503393 7.76070354 23.79885980 -0.00057988 -0.00590650 -0.00024122
O 23.18283851 1.13154803 25.62954584 0.00117890 -0.00484175 -0.00035683
O 18.69125475 5.32532832 1.16639897 -0.00236714 -0.00785454 -0.00447960
O 22.61498036 15.38345780 6.91111254 -0.00610794 0.00352666 -0.00548622
O 19.75499593 16.25956971 15.02787822 -0.00404284 -0.00238706 -0.00391256
O 17.94661693 23.01996023 1.53202984 0.00222126 0.00104817 -0.00055684
O 24.10112107 21.59956815 9.35595765 0.00014894 -0.00152415 0.00103129
O 19.66517552 22.58459036 9.89233426 0.00249896 0.00467846 0.00152238
O 22.76581851 22.33671554 0.99162231 0.00249298 0.00643215 0.00155298
O 24.40163958 15.51418607 15.16315978 -0.01012081 0.00032467 0.00193650
O 18.94099569 16.29089611 6.43984326 0.00562523 0.00596044 0.00117628
O 23.98598169 14.10571873 17.24158443 0.00367665 -0.00145870 -0.00241551
O 18.66018498 17.89762287 8.68927163 -0.00267535 -0.00284242 -0.00264944
O 19.62839651 24.04497723 7.66888397 -0.00098387 -0.00389170 -0.00160480
O 22.86353394 20.86362253 31.69345987 -0.00230625 -0.00022082 0.00205387
O 18.62042491 24.60841336 32.38672831 0.00089660 0.00344734 0.00454047
O 23.74765748 20.35416575 6.98869802 0.00177170 0.00499196 -0.00140987
O 22.93655347 14.24910772 9.27852085 0.00544597 0.00307224 -0.00023273
O 19.67979528 18.13711336 16.73877174 0.00109948 0.00183534 0.01372158
O 22.70190113 15.21079928 23.45912783 -0.00446478 0.00078239 -0.00567529
O 19.56362551 16.23323338 31.09280437 0.00212554 -0.00495585 0.00151292
O 18.58656955 22.69956629 18.18915273 -0.00686030 -0.00511610 -0.00525393
O 23.72361826 22.13229372 25.48448902 -0.00312322 -0.00694465 0.00088412
O 19.04927047 22.93734899 26.12971570 0.00592295 -0.00073810 -0.00189606
O 22.70090803 22.15613760 17.27903204 -0.00737644 -0.00119840 -0.00429585
O 23.86662183 15.95551106 31.38714616 0.00301184 -0.00268899 -0.00221513
O 18.56322901 16.35333771 22.79554427 0.00054140 0.00279419 -0.00540086
O 23.68942198 14.26302234 0.72675628 0.00532851 0.00227111 -0.00248055
O 18.95073911 17.88945488 24.97795483 0.00134059 0.00364087 0.00156644
O 19.04907727 24.65130005 24.11398307 0.00677114 0.00563392 0.00495726
O 23.09833202 20.33873458 15.55451837 0.00040574 -0.00092031 -0.00059919
O 19.11942146 24.30405677 16.15056544 -0.00637222 -0.00336192 0.00105081
O 23.41956535 20.48019985 23.44475882 -0.00436755 -0.00037520 0.00231445
O 23.93091110 13.94871424 25.43986213 0.00155222 -0.00403704 -0.00178859
O 19.44894284 17.87102141 0.32770556 0.00234041 0.00293459 -0.00286124
N 7.29481176 13.12287271 2.63936079 -0.00461034 0.00323011 0.00140528
N 1.05511762 6.00562262 10.26954750 0.00456707 -0.00214360 -0.00259640
N 3.07511086 25.56719651 5.76949021 0.00313994 -0.00004172 -0.00140835
N 5.13168388 6.29322282 13.98117315 0.00710672 0.00182746 -0.00164788
N 0.96124488 0.06346545 14.00831218 0.00145426 0.00497774 0.01010923
N 7.55764836 6.60093782 5.74680295 -0.00169718 0.00863427 0.00620000
N 5.31142831 12.56112907 10.70720389 -0.00605546 -0.00574693 -0.00162380
N 3.15430666 6.44262934 2.37302702 0.00086214 -0.00085554 0.00483463
N 7.66750703 12.81403540 19.11980253 0.00056770 0.00511116 -0.00280094
N 0.87675373 6.31030015 26.87198692 0.00145966 -0.00108967 0.00439624
N 3.06860555 25.61853826 22.29923927 0.00449946 -0.00068620 -0.00192873
N 5.02770711 6.42165405 30.45608990 -0.00102863 -0.01057932 0.00068395
N 0.84542436 0.01223911 30.40624652 0.00324117 -0.00072705 0.00569598
N 7.54397566 6.35802531 22.19098438 -0.00336441 -0.00331988 -0.00960871
N 5.58339723 13.07618951 27.16784423 -0.00161180 -0.01006786 0.00585536
N 3.22385819 6.45755829 18.92746356 0.00206062 -0.00259670 -0.00812521
N 7.26371547 25.27308486 2.29102790 0.00423106 -0.00317756 -0.00047110
N 1.28573800 19.25031967 10.18489708 -0.00001253 -0.00644260 0.00804918
N 3.15799420 12.59867728 5.87729538 0.00531085 0.00374381 0.00242952
N 5.51195740 19.32738914 13.27937272 0.00404956 0.00180239 0.00299906
N 0.89511824 12.43221621 14.03055840 0.00605112 0.00718044 0.00080805
N 7.27151207 19.44690620 5.30190174 -0.00299627 0.00174681 0.00086465
N 5.55426345 25.54111648 10.45355787 -0.00508408 -0.00256305 0.00807287
N 3.08544458 19.25469221 1.76989389 -0.00076576 -0.00215643 -0.00109590
N 7.16437914 25.54275168 18.84477108 0.00344102 -0.00731563 -0.00545505
N 1.39890501 19.39375896 26.70909214 0.00387035 -0.00389983 -0.00079574
N 3.63468459 12.71776616 22.16227713 0.00289973 -0.00578506 0.00415934
N 5.49668821 19.34240698 29.89442648 0.00118098 -0.00168437 0.00322641
N 1.38100728 13.22480397 30.71329605 -0.00117567 0.00446353 -0.00560821
N 7.47204835 19.81694718 21.65869820 0.00157770 -0.00036883 0.00122614
N 5.30171978 0.37191838 26.85812719 -0.00198172 0.00247340 -0.00734344
N 3.06667320 19.17496150 18.08737943 -0.00371408 0.00150512 -0.00475308
N 15.88666962 12.73805336 2.43554078 -0.00119223 -0.00658874 -0.00290516
N 9.58807382 6.11360758 10.54912450 0.00720486 -0.00117844 0.00509024
N 11.81953656 0.03218741 5.91155919 -0.00132392 -0.00101832 -0.00489798
N 13.88584137 6.10030888 14.58196978 -0.01263602 -0.00313339 -0.00404678
N 9.22816016 25.63436605 14.31111413 0.00203982 0.00035750 -0.00453207
N 16.10883696 6.50287181 6.02268378 0.00022589 -0.00265698 -0.00307099
N 13.78335921 12.72742776 10.74209438 -0.00519208 0.00569246 -0.00061673
N 11.74013371 6.63828953 2.48648121 -0.00039599 0.00425344 0.00162526
N 16.14579757 12.77980060 19.18750389 -0.00295111 -0.00391627 0.00385231
N 9.11371751 6.46805771 27.17193751 -0.00292991 -0.00110875 -0.00982352
N 11.71043869 0.16112493 22.19387872 0.00133782 -0.00222522 -0.00412836
N 13.90656284 6.67668363 30.86448546 -0.00197819 0.00107269 0.00000086
N 9.42488838 0.02523794 30.49940153 0.00322557 0.00765370 -0.00906468
N 16.16329295 6.47400215 22.69457268 0.00794431 -0.00319797 0.00360847
N 13.90123984 12.82664376 27.27646008 -0.00274081 0.00186419 -0.00121293
N 11.84389318 6.54303981 18.57487110 0.00520311 -0.00317260 0.00652896
N 15.96359528 0.31486125 2.19966283 -0.00220856 0.00061111 0.00280869
N 9.76460452 19.46186002 10.30001507 -0.00111246 -0.00687372 -0.00318889
N 11.87526835 12.92441388 6.06406423 -0.00066579 0.00504557 0.00332768
N 13.80613212 19.45853013 13.81954346 -0.00709937 0.00487288 -0.00185847
N 9.79302208 13.10129027 14.31042717 0.00923756 -0.00517010 0.00137668
N 15.94096754 19.54644654 5.79962414 -0.00015790 -0.00024592 -0.00201966
N 13.76292768 25.40489017 10.50857215 -0.00280992 0.00175835 0.00080241
N 11.71102929 19.24924649 2.21338195 0.00243417 -0.00324149 0.00219963
N 16.19698709 25.68539375 19.15423452 0.00463424 0.00578618 -0.00871701
N 9.65121642 19.11116055 26.93359174 0.00377304 -0.00125023 -0.00043627
N 11.80931805 12.56850539 22.59627405 0.00237661 0.00227391 0.00097507
N 13.74520048 19.28771257 30.14561680 0.00269187 -0.00411945 0.00273765
N 9.50991275 12.84510748 30.82052696 0.00040247 -0.00294869 -0.00089955
N 15.85307359 19.19214167 21.89871624 -0.00131460 -0.00505556 0.00022424
N 13.82368212 0.11970109 27.19380161 -0.00392414 -0.00142536 -0.00235112
N 11.68341870 19.34159618 18.60432604 -0.00201592 -0.00578596 -0.00337354
N 24.76875819 13.11359380 2.42747297 -0.00336558 0.00243741 0.00052052
N 17.91437935 6.21307955 11.29828981 -0.00818993 0.00651858 -0.00008157
N 20.36241443 25.38952754 5.90665874 0.00339626 -0.00674890 -0.00535215
N 22.06620239 6.62360604 13.88501425 -0.00078088 0.00226309 -0.00359659
N 18.06475265 25.43510691 14.39427849 0.00564531 -0.00502083 -0.00568203
N 24.49667493 6.21304417 5.77598465 -0.00186884 0.00236116 0.00339103
N 22.19296792 12.78718674 10.88144216 0.00739240 0.00123677 -0.00003144
N 20.27981121 6.26877034 2.56095036 0.00090308 0.00600007 0.00015640
N 24.93742570 12.83011068 18.90858151 -0.00510957 0.00328511 -0.00196987
N 17.78564268 6.33737273 27.35115644 -0.00476229 0.00371021 -0.00146968
N 19.98702245 0.17230570 22.41871245 0.00171018 -0.00026216 -0.00035215
N 22.13543255 6.82515686 30.44666058 -0.00151276 -0.00006050 -0.00085999
N 17.68925224 0.17004076 30.69547434 -0.00019564 -0.00271557 -0.00254286
N 24.58585719 6.62994141 22.31691401 0.00456359 -0.00144108 0.00354466
N 22.53697190 12.94408499 26.89235596 0.00511427 0.00570332 -0.00194839
N 20.10874275 6.17748269 18.96346333 -0.00330284 -0.00247360 0.00133469
N 24.60075356 0.38336941 2.37204211 -0.00658816 0.00160012 0.00395458
N 18.14893659 19.17958754 10.54717110 -0.00250115 -0.00128126 0.00465400
N 20.12104080 12.92804718 6.49915581 0.00140438 0.00060248 0.00691929
N 22.32437158 18.97050896 13.83585527 0.00307452 -0.00701238 0.00059180
N 18.15594985 12.92032364 14.30789136 -0.00600731 -0.00877240 0.00039559
N 24.81662014 19.35666302 5.21856501 -0.00772169 -0.00341587 -0.00080414
N 22.15109735 0.15560163 10.75000954 0.00439234 -0.00111705 0.00103991
N 20.14354421 19.35530205 1.98689094 -0.00428508 -0.00483814 -0.00034547
N 24.57317700 0.27707487 19.08065773 0.00092190 0.00739154 0.00124511
N 18.45527761 19.35513294 26.66037439 -0.00096364 0.00200537 0.00507904
N 20.36988138 12.97138452 22.55423072 -0.00283604 -0.00269107 0.00010368
N 22.24150605 19.46860518 30.04788575 -0.00266564 0.00008346 0.00611742
N 18.33347216 12.96555469 30.76192927 -0.00774334 -0.00559812 -0.00660774
N 24.52548915 19.34126901 21.64636838 -0.00551158 0.00486729 -0.00266194
N 22.14945916 0.04606076 27.35610299 -0.00010240 -0.00357843 0.00210340
N 20.19874297 19.47917028 18.47023765 0.00138710 0.00684928 -0.00054986
C 7.56152218 0.14517630 4.59653885 0.00398717 -0.00242057 -0.00259898
C 0.77994417 5.56991572 12.63864634 0.00429433 0.00889476 0.00364290
C 3.22191130 12.42655792 3.54887886 0.00087563 -0.00591262 0.00587954
C 5.17870262 6.49352868 11.53709319 -0.00055550 -0.00365925 0.00208318
C 0.90631468 12.28433200 11.67609772 0.00741852 0.00187059 0.00468419
C 7.51181642 6.93622049 3.34703889 -0.00206398 0.00175002 0.00410398
C 5.35490826 0.03308686 12.84149349 -0.00815907 0.00498103 0.00814184
C 3.39799607 6.07394809 4.71434023 -0.00357204 0.00547765 0.00223661
C 7.21488168 0.86947272 5.69267436 -0.01151710 -0.00038509 0.00133490
C 1.19971112 4.92379857 13.78951277 0.00541527 -0.00255596 -0.00021780
C 3.03815630 11.77826354 2.34796753 0.01003224 -0.00312846 0.00575706
C 5.56381149 7.13972393 10.38409379 0.00059941 0.01207445 0.00131663
C 1.26671204 11.71596216 10.51608244 0.00282062 0.00315042 -0.00506325
C 7.23182623 7.60365990 2.23083582 0.00212844 -0.00606263 -0.00037794
C 5.64247459 0.63687551 14.01801410 0.00123957 -0.00274251 0.00798554
C 3.07431434 5.38758751 5.83045673 -0.00444180 -0.00798363 -0.00589853
C 6.28267716 1.92023650 5.61067982 -0.00309002 -0.00404312 -0.00285196
C 2.22083701 4.00095959 13.74320185 0.00164816 0.00718632 -0.00353582
C 2.15925314 10.68127971 2.35536861 -0.00265571 0.00624301 -0.00109075
C 6.38233766 8.27715645 10.48595255 0.00048399 -0.00167542 0.00467613
C 1.96548487 10.51287616 10.55089104 0.00513317 -0.00222959 -0.00022258
C 6.13329800 8.57426557 2.29772720 0.00389403 -0.00173693 -0.00330535
C 6.37947070 1.83206063 14.04603081 0.00044838 0.00702146 0.00142028
C 2.18046337 4.33669101 5.67981554 0.00029834 0.00291469 0.00995195
C 5.89512186 2.32990809 4.34610519 0.00297590 -0.00123540 0.00140356
C 2.43974239 3.34798038 12.48079505 0.00669773 0.00201245 0.00688899
C 1.65480150 10.14624091 3.58021722 -0.00579571 0.00521063 -0.00226499
C 6.76409794 8.78265310 11.77821419 -0.00190498 0.00033073 -0.00441990
C 2.29039988 9.92062118 11.82269134 -0.00480907 0.00114058 -0.00683235
C 5.77581304 9.05872600 3.54603259 -0.00682712 0.00449060 0.00445998
C 6.54887960 2.54495289 12.84309676 -0.00124326 -0.00487242 0.00212119
C 1.88632830 3.77225975 4.44436754 -0.00813974 0.00025150 0.00419714
C 6.31120723 1.74284384 3.18408248 -0.00133718 -0.00129723 0.00049992
C 2.03003440 4.02685920 11.28685740 0.00312815 -0.00060662 -0.00345828
C 2.08114315 10.68483388 4.77521936 -0.01182736 -0.00239738 0.00058583
C 6.29822234 8.16168865 12.93330140 -0.00029553 0.00202141 0.00137292
C 2.01089541 10.56931655 12.99132364 0.00315315 -0.00053662 0.00228179
C 6.38617936 8.56968543 4.74675885 0.00349480 0.00353351 -0.00782387
C 6.25827892 1.92963339 11.65322897 0.00065353 0.00000993 0.00605979
C 2.39211617 4.33052607 3.29792114 -0.00455443 -0.00484885 0.00210258
C 7.04491203 0.51179004 3.30406744 0.00147449 0.00009304 -0.00282543
C 1.30124285 5.23055007 11.41619314 0.00659084 0.00556978 0.00002447
C 2.79109621 11.89587306 4.76773323 -0.00678763 0.00624817 0.00708459
C 5.59751620 6.96200150 12.86118500 -0.00811585 -0.00178271 0.00262062
C 1.25373160 11.76564245 12.92834908 -0.00081033 -0.00359899 -0.00424632
C 7.22436071 7.43881232 4.69926796 -0.00438616 0.00400362 -0.00092489
C 5.75567697 0.60298960 11.58309423 -0.00397950 0.01055027 -0.00113482
C 3.01936681 5.64543559 3.42041024 0.00594423 0.00444471 -0.00592299
C 6.73716570 25.50159120 1.01422148 0.00594728 0.00511356 -0.00474571
C 1.83164678 5.97313689 9.08431644 0.00395252 -0.00302040 0.00944347
C 2.55458228 12.50256279 7.11451575 0.00717615 0.00011863 0.00256808
C 5.70011725 6.45472765 15.21015363 -0.00030833 -0.00320440 -0.00578514
C 1.54317912 12.28348760 15.26930428 -0.00641894 -0.00454433 -0.00456108
C 6.96183177 6.61992099 6.93885741 0.00323057 0.00476521 0.00419744
C 5.68131421 0.34788572 9.20149414 -0.00498657 0.00551933 -0.00753799
C 2.62993453 6.24624763 1.08174283 0.00892813 0.00182427 -0.00136334
C 7.20525225 11.67330027 16.95040153 0.00859057 0.00945962 -0.00054755
C 1.51269079 7.16212623 8.12184755 -0.00108687 -0.00094238 0.00919663
C 2.52027991 0.97012328 7.90973652 -0.00239831 0.00201839 -0.00452840
C 5.74248883 5.34510472 32.45119690 0.00666312 -0.00116599 -0.00554318
C 1.32789192 1.04608814 32.55143503 -0.00049118 0.00306367 -0.00173616
C 7.07638721 5.44531724 7.85876513 0.00335133 0.00358121 -0.00202945
C 5.79045660 11.69137248 8.48067641 0.00011900 -0.00304655 -0.00566883
C 2.98698708 7.27476515 16.57550241 0.00194209 0.00241634 0.00650277
C 7.48771095 0.32167513 21.13722319 0.00545272 0.00367017 0.00077765
C 0.72626220 5.86689916 29.23896390 0.00117538 0.00048936 -0.00601474
C 3.44039610 12.18869512 19.83800580 -0.00146779 0.00209980 -0.00565389
C 5.04515403 6.81253196 27.98907460 0.00545734 -0.00033437 -0.00067167
C 1.25721093 12.89512038 28.37739394 -0.00061482 0.00455526 0.00325999
C 7.63576239 6.60482743 19.90833270 -0.00055953 0.00095557 0.00221840
C 5.03876084 0.41661456 29.23437428 0.00207683 0.00492055 0.00014346
C 3.07498638 6.18008756 21.26492681 0.01140572 0.00223436 0.00302150
C 7.31762636 1.14316648 22.22774712 0.00271005 0.00164659 0.00703422
C 1.14409586 5.19894912 30.37361800 -0.00090272 -0.00100742 -0.00404267
C 2.96286770 11.53125583 18.75449477 -0.00031223 -0.00060528 -0.00173327
C 5.44989644 7.60481550 26.90960017 0.00917107 -0.00384261 -0.00326288
C 1.49021469 12.20784435 27.21421786 0.00274404 -0.00628215 0.00066946
C 7.34592186 7.35857680 18.80575133 0.00204453 -0.00104458 0.00216530
C 5.22407316 0.92040236 30.49422027 0.00421787 -0.00162990 -0.00067671
C 2.84826113 5.41631513 22.35242402 -0.00541936 0.00486489 -0.00862295
C 6.41469540 2.20590599 22.21505138 -0.00802867 -0.00090613 -0.00282522
C 2.08960396 4.16145063 30.22851004 0.00182430 0.00177451 0.00569190
C 2.10122114 10.44761462 18.95485112 -0.00165849 -0.00261158 -0.00093391
C 6.23373528 8.81656562 27.01007879 0.00087651 -0.00093664 0.00238883
C 2.15996025 10.94665831 27.17869019 -0.01076651 -0.00866065 -0.00396535
C 6.53920218 8.45143381 18.78800783 -0.01108104 -0.00289934 0.01131645
C 6.15715897 2.03423884 30.60954613 0.00310108 -0.00368090 0.00001721
C 2.15478412 4.18375348 22.30307834 -0.00765916 0.00691526 -0.00621527
C 5.90448685 2.65626601 20.96467276 -0.00560167 -0.00650473 0.00210436
C 2.37973306 3.68748466 28.92784955 -0.00442190 0.00124747 0.00547908
C 1.85613369 10.08172368 20.26858947 -0.00308149 0.00402224 0.00465827
C 6.58657147 9.18637890 28.34496517 0.00049599 -0.00014592 0.00262147
C 2.44515328 10.37512457 28.40793849 0.00262255 -0.00671883 -0.00050113
C 6.11984683 9.05569386 20.04200668 0.00013437 0.00024020 0.00141680
C 6.62956596 2.69884895 29.50207927 0.00404891 0.00449365 -0.00359297
C 1.77925190 3.70647102 21.04400139 0.00010477 0.00146904 -0.00390787
C 6.24788226 1.96560173 19.84086978 0.00553264 0.00564253 -0.00090616
C 1.80766632 4.26411375 27.84299205 -0.00046311 0.00124195 -0.00381109
C 2.33759249 10.75670265 21.37376908 0.00436212 -0.00840494 -0.00749705
C 6.11541637 8.40220759 29.40831368 0.00667991 -0.00724795 -0.00701034
C 2.27136823 11.09868750 29.65761957 -0.00199286 -0.00672523 -0.00091692
C 6.50761247 8.38684481 21.17306770 0.01255867 0.00261643 0.00385888
C 6.40303756 2.18299510 28.21862504 -0.00213999 0.00369024 0.00050333
C 2.18119350 4.40682780 19.93039106 -0.00202724 -0.00046859 0.00651835
C 6.96842110 0.73143467 19.92491465 -0.00198492 0.00185423 0.00570427
C 1.11718172 5.49282732 27.94993109 0.00506052 0.00340060 -0.00286157
C 3.16396680 11.84814766 21.16979806 -0.00315054 0.00321276 0.00748567
C 5.35826850 7.21268121 29.29134991 0.00191972 -0.01102308 -0.00004228
C 1.63775013 12.35677617 29.63323596 0.00451828 0.00678123 0.00184271
C 7.26100469 7.14403602 21.14333009 -0.00426405 -0.00373115 0.00729540
C 5.60769208 1.00604535 28.07399808 0.00257017 0.00238262 -0.00708264
C 2.80432263 5.66310424 19.97555062 0.00213824 -0.00347816 -0.00557636
C 6.63209086 25.66047726 17.63453658 0.00121386 0.00055008 -0.00013068
C 1.66378303 6.29896917 25.77055411 0.00663365 -0.00187653 -0.00015377
C 2.97579723 12.87602859 23.32117687 -0.00261680 0.00004672 -0.00065691
C 5.76713584 6.58993465 31.60196807 -0.00675809 -0.00423906 0.00447429
C 1.87660168 12.92941423 31.99522721 0.00092038 -0.01006459 -0.00163655
C 7.03566129 6.62661482 23.40123365 0.00378052 0.00100343 0.00246191
C 6.00949935 0.44644003 25.71964647 -0.00054192 -0.00049583 -0.00261892
C 2.82820338 6.15750206 17.58527711 0.00104351 0.01558139 -0.00692680
C 6.90640437 12.26091192 0.35916536 0.00405702 -0.00073730 -0.00134431
C 1.81781884 7.62329420 24.99870247 -0.00522103 0.00281764 0.00321290
C 2.79076113 0.90555895 24.52645105 0.00243909 -0.00084717 0.00072196
C 5.60767862 5.23208953 16.12546772 -0.00491911 0.00198768 -0.00039452
C 1.20195277 1.03236792 16.13736027 -0.00114783 0.00088684 0.00189036
C 7.15826550 5.44742213 24.34262452 0.00316858 -0.00269121 0.00010714
C 5.78904509 12.29623438 24.89145688 -0.00547843 0.00665750 0.00718045