1920
Time=5000.00000000 pbc="T T T" Lattice="25.47588432 0.00000000 0.00000000 0.00000000 25.64268566 0.00000000 0.00000000 0.00000000 33.00394478" energy=-12248.02526712 virial="-63.74401333 -9.31737313 -4.64400207 -9.31737313 -74.59517837 -9.26264632 -4.64400207 -9.26264632 -23.38786631" stress="-0.00049935 -0.00042660 -0.00030166 -0.00042660 -0.00117166 -0.00040644 -0.00030166 -0.00040644 0.00103968" Properties=species:S:1:pos:R:3:vel:R:3
O 5.64930851 2.72386330 6.94867077 0.00495828 -0.00461394 0.00166997
O 3.01643914 3.44867488 15.09903471 -0.00388154 -0.00345277 0.00368964
O 1.97771566 10.03335698 1.59020916 0.00937222 0.00515149 -0.00754570
O 6.18283521 9.44328788 9.28449880 0.00284559 -0.00181598 -0.00105029
O 2.09921585 9.90000607 10.33359859 0.00386988 -0.00638061 -0.00159732
O 5.65597879 8.86581993 1.15083908 0.00106910 0.00222381 0.00371550
O 6.85083590 2.59808658 15.22981992 0.00072359 0.00018713 0.00027248
O 1.25116069 3.27772044 6.60505952 -0.00197580 -0.00323599 0.00164282
O 6.65723108 0.79897774 17.31518441 0.00314103 -0.00255865 -0.00056393
O 1.16449532 4.95724877 8.85742578 -0.00405671 0.00411600 0.00026124
O 2.22398209 11.25077635 8.09003865 0.00365178 0.00524296 0.00823340
O 6.39604008 7.63545870 31.96651207 -0.00334587 -0.00354144 0.00200628
O 1.68689280 11.63360582 32.59509378 0.00035527 0.00223723 -0.00004547
O 5.93369938 7.42102609 7.49186345 0.00351068 -0.00391877 -0.00699186
O 6.58191412 1.12921139 9.04550544 0.00473234 0.00313238 0.00194471
O 2.84369855 5.07787618 17.08199151 -0.00695898 0.00678611 0.00247943
O 6.61316174 2.94441559 23.31120449 0.00339459 -0.00160209 0.00003681
O 2.74872870 3.73812987 31.61124599 -0.00279536 -0.00168112 -0.00351559
O 1.67969065 9.80845260 18.57203943 0.00429252 -0.00450305 0.00584537
O 7.09196367 9.16968276 25.88235619 0.00011021 -0.01320099 -0.00166825
O 2.84787603 9.30326502 26.76244946 0.00289273 -0.00042310 0.00299020
O 6.58008773 9.19746138 17.42819604 -0.00288661 -0.00269670 0.00454744
O 6.37787377 2.86618566 31.68476465 -0.00250546 -0.00072437 0.00011695
O 2.26060638 3.27641414 23.22241373 0.00333076 -0.00440387 -0.00633147
O 6.45727507 1.40998693 0.80992868 -0.00360137 -0.00313549 -0.00362005
O 2.17241954 4.95030426 25.14048610 -0.00108422 0.00501882 0.00189925
O 1.26443649 12.08739949 24.08341846 -0.00486665 -0.00789644 0.00024245
O 7.09645457 7.48658924 15.56318138 0.00446155 -0.00215393 0.00057015
O 1.93861473 11.56535408 16.53943418 0.00462696 -0.00632827 0.00310854
O 6.76727898 7.80432278 23.74078207 0.00781532 -0.00239287 -0.00963024
O 6.16945764 1.39109146 25.38402193 -0.00113153 0.00561170 -0.00390358
O 2.09680276 5.22877276 0.76638071 0.01051961 -0.00002440 -0.00738478
O 5.48418722 16.27196248 7.52984516 0.00374614 -0.00283796 0.00116710
O 3.07241894 16.38948994 14.90905779 0.00015952 0.00229474 0.00406617
O 1.54527423 23.16479498 1.02150040 -0.00806553 0.00871301 -0.00161411
O 7.16240972 22.16984057 9.43137107 0.00318940 -0.00009247 0.00054299
O 2.92326779 23.08642866 9.56906418 -0.00966476 -0.01105209 -0.00068415
O 5.22378336 21.97461336 1.16686142 -0.00016098 0.00705625 0.00590411
O 7.09354015 15.48035111 15.59894981 -0.00582905 0.00057878 0.00827797
O 1.47285504 16.65869636 6.84819064 0.00423680 0.00174462 -0.00025642
O 6.63644050 14.24177384 17.77345324 -0.00345146 0.00263494 -0.00495019
O 2.08157359 18.27760927 8.91858217 -0.01335271 -0.00537687 -0.00405205
O 2.14453655 24.38182280 7.59730496 -0.00299417 0.00075351 0.00385917
O 6.08632425 20.82804727 32.02351655 -0.00068158 -0.00679303 -0.00121332
O 2.25197400 24.63278080 31.95212819 0.00859424 -0.00310698 0.00082199
O 6.56540709 20.90536632 7.27572987 -0.00105591 0.00070511 0.00276712
O 5.12461828 14.49298920 9.41282517 0.00252669 0.00465999 -0.01085385
O 2.20429543 17.52602047 17.34030079 0.00246482 -0.00202572 0.00006792
O 5.63729187 15.14990003 23.76703494 -0.00308289 -0.00515762 0.00098306
O 2.87782851 16.80316851 31.41551146 -0.00272239 0.00269702 -0.00516079
O 1.54631197 23.05324706 17.50119145 -0.00222065 0.00501005 -0.00151219
O 6.68662467 21.95975519 25.83276813 -0.00374227 -0.00919821 -0.00345500
O 2.88279717 23.22006671 25.82739859 0.00491519 -0.00708556 -0.00262194
O 6.13665790 21.74642682 17.56428747 0.01272293 -0.00269203 -0.00542037
O 6.93798087 15.61230871 32.29961401 -0.00372699 0.00205806 0.00047410
O 1.47469359 17.01396572 23.65087610 -0.00485875 0.00699585 0.00684325
O 6.24584609 14.10277268 1.56480540 -0.00095321 -0.00740495 0.00028257
O 2.26724816 18.46314391 25.58648382 0.00416400 -0.00243121 0.00632008
O 2.10459774 24.15386411 23.54256857 0.00762914 0.00008602 -0.00155723
O 6.61963938 20.19073694 15.64604260 -0.00075579 0.00125835 0.01098595
O 2.40190135 24.43015093 15.52094802 0.00431439 0.00262897 0.00185083
O 6.48403831 20.24051109 23.81086027 -0.00549920 -0.00018683 -0.00381522
O 6.32943076 14.28976871 26.16648610 0.00015736 -0.00084634 0.00485585
O 2.21988301 17.97215623 0.64518124 -0.00676471 0.00231872 0.00688861
O 14.06694794 3.08301877 6.49927607 -0.00658298 0.00355628 0.00596343
O 11.80121419 3.97801917 15.14606359 -0.00284811 -0.00133902 0.00425510
O 9.94216863 9.87740993 1.53346568 -0.00447709 -0.00534321 0.00219514
O 15.14841037 8.96257433 9.44544463 0.00104177 0.00432595 -0.00307610
O 11.20766712 9.93941830 9.83653996 -0.00518397 -0.00061042 0.00359723
O 14.21958553 9.14992302 1.31898187 0.00035778 -0.00623322 -0.00043135
O 15.33854150 2.51567441 15.15280872 -0.00495869 0.00128966 0.00831686
O 10.02936797 3.94188975 7.31482222 0.01148718 -0.00494424 0.00198131
O 15.35146372 1.13089858 17.27273258 -0.00556577 0.00165116 -0.00398703
O 10.44974325 5.46125526 9.40079641 -0.00809882 -0.00276868 -0.00042975
O 10.23664759 11.43040040 7.81495092 0.00170005 -0.00653589 -0.00103286
O 14.67716885 7.72249992 32.41388779 -0.00399633 -0.00092219 -0.00073713
O 10.13008213 11.39307956 32.38569195 0.00062607 0.00123197 0.00175866
O 14.36737615 7.38862322 7.34180360 -0.00229700 -0.00878949 -0.00282435
O 15.11049593 1.78172132 8.57554071 -0.00491502 -0.00083368 -0.00218856
O 11.04751587 4.87338935 17.33729376 -0.00214814 0.00348439 0.00678747
O 14.42246675 2.83380506 23.08728036 -0.00357860 0.00087854 0.00137179
O 10.27575207 3.76542115 32.02876527 -0.00263965 -0.00972816 0.00288374
O 10.23098094 9.94926402 17.96100839 0.00740507 -0.00167268 -0.00149695
O 15.56818036 9.43599474 26.29357230 -0.00111780 0.00101690 -0.00121461
O 11.78910778 10.93224520 26.19855949 0.00300600 0.00446511 -0.00914138
O 14.99219532 9.13871597 18.02215780 0.00430556 -0.00295877 -0.01125791
O 15.47565182 2.97584821 30.97024491 -0.00252212 0.00268350 0.00104058
O 10.28046472 3.78040662 23.58279245 -0.00203057 0.00060799 0.01071470
O 15.04263061 1.71932525 0.18892938 -0.00078152 -0.00698495 -0.00235350
O 10.90298961 5.01218329 25.77868823 -0.00545033 -0.00251477 -0.00398286
O 10.70285949 11.50185607 23.95476333 -0.00035465 0.00675095 -0.00406001
O 15.15163097 7.95415842 15.71142292 -0.00034004 0.00064600 -0.00626829
O 10.77489980 11.26330914 15.87591302 0.00190014 0.00904568 0.00055611
O 14.93089510 7.82067570 24.49439490 -0.00339141 0.00032433 -0.00106358
O 14.78718874 1.17941068 25.01874237 0.00039219 -0.00149105 -0.00545030
O 10.00081487 5.26533826 1.08848570 -0.00160663 0.00167678 -0.00290401
O 14.43646979 15.20449518 6.95108449 0.00103048 -0.00100558 -0.00374043
O 11.14555121 16.46464386 15.32534158 -0.00161657 0.00501040 -0.00205463
O 9.84129940 23.28246169 1.19129882 -0.00062291 -0.00387248 0.00425275
O 14.60722101 22.83813257 10.78077549 0.00428178 0.00287050 0.00291703
O 10.81898430 23.18076202 9.07969637 -0.00295519 -0.00155288 -0.00461865
O 14.96554034 22.24428494 1.34004361 -0.00051910 -0.00293265 0.00376951
O 15.52274844 15.07166971 14.94673066 0.00377990 -0.00063211 0.00140561
O 10.04319775 16.27821612 7.29449222 0.00943468 -0.00036423 0.00211796
O 14.99311464 13.75881934 17.18138773 0.00388392 -0.00274293 -0.00203974
O 10.62948139 17.87376070 9.24394085 0.00123674 0.00117647 -0.00487559
O 11.32694526 24.70330029 7.19318134 0.00055926 -0.00074325 -0.00884015
O 14.64787345 20.84200036 32.20866568 -0.00328747 -0.00538791 0.00084045
O 10.59804934 24.31067031 32.02539588 -0.01143071 0.00463766 0.00087186
O 13.53727953 20.04426401 7.15551281 0.00011770 0.00608965 0.00480566
O 14.81735522 13.76060866 8.93801859 -0.00360980 -0.00105396 0.00353382
O 11.21108527 17.44168836 17.71092842 -0.00506294 0.01108411 0.00280777
O 14.28082761 15.19255913 23.15366398 0.00172075 -0.00425254 -0.00178548
O 11.16819373 16.42204686 32.02776278 0.00051005 -0.00632525 -0.00395974
O 10.47436894 22.67421225 17.46709224 0.00308952 -0.00071863 0.00603896
O 15.21092967 22.26145521 25.88250591 -0.00475303 0.00046627 0.00004410
O 11.19157672 22.99193884 25.65529511 -0.00168564 -0.00174371 0.00021899
O 14.68895161 21.91433108 17.99541136 0.00171912 -0.00070025 -0.00088487
O 15.95577246 15.78751240 31.60628133 0.00051789 0.00431911 -0.00320368
O 10.45484648 16.68336985 24.09904756 -0.00203024 -0.00300362 -0.00720211
O 15.36924743 14.10514439 0.67267582 -0.00712308 0.00254431 -0.00050046
O 10.66811670 18.24647910 25.98445876 -0.00166170 0.00221024 0.00269977
O 9.99442472 24.11604337 23.69432008 -0.00284242 0.00327069 0.00579856
O 15.00788926 19.93699643 16.31230282 0.00057745 -0.00173754 -0.00490660
O 10.81129226 24.52800046 15.43108461 0.00055439 -0.00212307 -0.00955026
O 14.77410576 20.43103113 24.02812896 0.00416497 -0.00189384 0.00270087
O 14.95507139 14.20931834 25.60837417 0.00665747 -0.00472346 -0.00178013
O 10.96331291 17.80220346 1.13791182 0.00577822 -0.00791294 -0.00567516
O 22.81980753 2.79785420 6.87876152 0.00636981 0.00219771 0.00000218
O 19.76452400 3.63177996 14.90209536 0.00480267 0.00045969 0.00227284
O 18.54312046 10.18941556 1.41218192 -0.00272414 -0.00244800 -0.00325052
O 23.50974905 9.18772804 9.29382645 -0.00541923 0.00188140 -0.00387844
O 19.10792115 9.93292979 9.62988231 -0.00044809 -0.00365619 -0.00427566
O 22.29006084 8.62614549 0.92163696 -0.00564222 -0.00883848 0.00131513
O 24.06587531 2.42149052 15.13511981 0.00472147 0.00813613 -0.00572677
O 18.50291869 3.93390441 6.64513103 -0.00216651 -0.00039122 0.00203655
O 23.28034102 0.77753961 17.19740342 -0.00297624 0.00084133 -0.00403790
O 18.92039612 5.17310105 8.80490870 -0.00212711 0.00279932 0.00334873
O 18.63635593 11.61388368 7.44868076 0.00285680 0.00447443 -0.00022337
O 22.95277047 8.27677549 31.50089640 -0.00266004 -0.00946736 0.00706753
O 18.32281274 11.50390357 32.32423073 -0.00195576 0.00088907 0.00148032
O 23.21042242 7.86047512 7.11414512 0.00159237 -0.00909988 0.00220850
O 22.92920823 1.15768896 8.86951685 -0.00006078 -0.00356386 0.00297834
O 18.82705061 5.11051906 16.80874662 -0.00007336 -0.00160905 -0.00410643
O 22.72687274 2.70457289 23.09819377 -0.00231000 -0.00166320 0.00584852
O 19.42058382 3.72452644 31.23515888 0.01107865 -0.00974559 -0.00031685
O 18.75899284 9.92202305 17.99919303 0.00058871 -0.00151071 0.00243210
O 24.19086256 8.96204436 25.21263779 -0.00364258 0.00730538 -0.00748218
O 19.82651458 9.89499670 26.30706486 -0.00358614 -0.00035514 0.00107125
O 22.47676653 8.55536628 17.50884822 0.00852316 -0.00478300 0.00083173
O 23.51340494 3.21474197 31.62104337 0.00130157 0.00058971 0.00498484
O 18.09529016 3.58987478 22.87474083 -0.00618486 -0.00254726 -0.00264732
O 23.18726177 1.59403521 0.68223979 -0.00120861 -0.00255045 -0.00552060
O 18.56363105 5.28411085 24.88888962 -0.00673098 -0.00134970 0.00120563
O 19.52404166 11.30682046 24.17911428 0.00693125 -0.00119080 -0.00447352
O 23.18948626 7.54217061 15.47641444 -0.00312783 -0.00316424 -0.00984736
O 19.19045229 11.58298143 15.90242363 -0.00069837 -0.00212103 -0.00370374
O 24.48447274 7.38264094 23.34252313 0.00289490 -0.00034238 0.00049780
O 23.44766994 1.52525632 25.22762447 0.00281182 -0.00177110 0.00026919
O 18.87304541 5.28776546 0.37645254 0.00681079 -0.00012962 0.00403147
O 23.10627351 15.77312066 6.71634882 0.00103542 0.00031914 -0.00472749
O 19.98822292 16.02264129 15.17105709 -0.00104341 0.00622938 0.00648615
O 18.39388363 23.26620208 0.96428511 0.00150345 0.00169388 0.00417831
O 23.56607761 21.80641861 9.60883644 -0.00056988 -0.00372087 0.00427225
O 18.99916423 22.69981392 9.28256680 0.00305997 0.00127610 0.00018779
O 22.86853024 22.34520199 1.26168722 -0.00853491 -0.00261394 0.00112203
O 24.16779385 15.53347590 15.37580221 -0.00694491 -0.00505083 -0.00401879
O 17.97626755 16.82744924 7.22055054 0.00100765 -0.00323818 -0.00469468
O 23.88215735 13.71068503 17.63353136 0.00339850 0.00253429 0.00060884
O 18.22452105 18.44623611 9.51139218 -0.00109061 0.00160021 0.00471020
O 18.78602655 24.68139090 7.25338761 0.00518531 -0.00150853 -0.00198369
O 23.64624153 20.78328087 32.34117269 -0.00082102 -0.00707536 0.00035723
O 19.11115490 24.47890104 31.76301160 0.00107240 0.00137584 -0.00085977
O 23.13070730 20.41631817 7.42270732 0.00137462 -0.00379092 -0.00155790
O 23.19729348 14.34439659 8.99225594 0.00526739 0.00778142 -0.00128987
O 19.45203886 17.42162777 17.49889092 0.00119882 0.00877569 -0.00145516
O 22.74448740 15.22777684 23.70872341 0.00046126 -0.00292814 -0.00168442
O 19.84579922 16.62598351 31.76687640 -0.00533790 -0.00216259 0.00605674
O 18.83275729 22.76961780 17.72159372 0.00942867 0.00058973 0.00210376
O 23.48753786 22.01700318 26.15701485 -0.00148877 -0.00428333 -0.00045774
O 19.45814850 23.29995340 25.34143484 -0.00096837 0.00474196 0.00194960
O 23.11024134 21.68838830 17.96729279 -0.00384736 0.00403704 -0.00179000
O 24.17128640 15.89011664 31.35023264 0.00982557 -0.00341093 -0.00082847
O 18.60125573 16.40912112 23.86068068 0.00185231 -0.00149020 -0.00182431
O 23.69150120 14.10111157 0.47950960 -0.00505291 0.00073825 -0.00709177
O 19.11187642 18.19657126 25.67591229 0.00592491 0.00119913 0.00444555
O 19.02727768 24.94541709 23.57044021 0.00181661 -0.00175113 -0.00410792
O 23.20672867 20.26653622 15.75722289 -0.00971791 -0.00930781 -0.00200968
O 18.99479944 24.25648365 15.59596547 -0.00103179 -0.00455514 -0.00203742
O 22.86633589 20.20636771 24.19046227 0.00302858 0.00300315 -0.00195552
O 23.19095360 13.50349097 25.63794636 -0.00121211 0.00406247 0.00281502
O 19.11697596 17.81743237 1.03495200 -0.00207527 0.00379014 0.00120685
N 7.07472097 12.87407764 3.31928226 -0.00157643 -0.00283356 0.00630632
N 0.80934905 6.21840884 10.71302577 -0.00062434 0.00307896 0.00721022
N 3.34614170 25.23058787 5.83870870 -0.00054893 -0.00067330 0.00447074
N 5.75413412 6.45333015 13.93868716 0.00706372 -0.00191764 0.00601795
N 1.27755149 0.05301789 14.05529533 -0.00302910 0.00107976 0.00499594
N 7.08127687 6.31377604 5.87754979 0.00167751 0.00291482 -0.00136987
N 4.91057425 12.99889827 11.23087766 0.00098869 0.00618503 -0.00909029
N 3.36401029 6.17819467 2.36604581 0.00364395 -0.00032131 -0.00055072
N 8.14576507 13.37207094 19.26509934 0.00563888 -0.00216707 0.00394905
N 1.37945350 6.30575609 26.85602065 0.00175154 0.00533270 -0.00143959
N 3.37778203 25.50224716 22.05230549 0.00056288 -0.00312126 0.00411822
N 5.13683400 6.51205884 30.41591427 0.00623289 0.00213295 0.00681997
N 1.00343920 0.02682785 30.40068244 -0.00472458 -0.00451775 0.00493857
N 8.03520657 6.70928824 22.25954462 0.00332795 -0.00459002 -0.00269439
N 5.10364718 13.14317614 27.62230185 -0.00077066 -0.01151047 -0.00229272
N 3.59661997 6.27314215 18.79233660 -0.00339364 -0.00035034 -0.00471194
N 7.39372619 0.27869599 2.47734693 -0.00024925 -0.00120729 0.00593785
N 1.11252914 19.36696996 10.74556715 0.00083361 -0.00302735 -0.00630351
N 2.48135179 12.89057362 6.40777295 0.00024287 -0.00141682 -0.00004524
N 5.49772588 19.24823985 13.88408298 0.00614048 -0.00240220 0.00490893
N 1.07742675 12.88125589 14.92735533 -0.00391905 -0.00846136 -0.00019784
N 7.69912444 19.77616463 5.56637794 0.00117673 0.00121881 0.00323253
N 5.76165491 25.33765396 10.64698973 0.00421796 0.00909080 -0.00037730
N 3.23531196 19.33318732 2.30386147 0.00218962 0.00467669 0.00130479
N 7.75716836 25.34391463 18.95117615 0.00717925 -0.00328481 0.00030409
N 0.69142280 19.21977198 27.07511558 0.00248561 -0.00008982 0.00299870
N 3.37419280 12.40942065 23.26065587 -0.00315057 0.00049676 -0.00815441
N 4.89000815 19.56927978 30.56697895 -0.00437884 0.00030127 0.00886799
N 0.99580042 12.79909971 30.70002351 -0.00135656 0.00416012 -0.00559133
N 7.73129782 19.09760348 22.24474379 0.00112308 0.00528476 0.00944234
N 5.45095484 0.09108267 27.04908951 0.00182443 0.00049102 0.00601300
N 3.39603444 18.70109783 18.89107202 -0.00349466 -0.00092839 0.00251203
N 15.59953145 12.49900967 2.26460671 0.00772324 -0.00211692 -0.00241387
N 8.96986184 6.17025983 10.90343812 -0.00959853 0.00542181 -0.00119008
N 11.74113917 0.46279529 5.44609224 -0.00309295 -0.00350250 -0.00302333
N 14.25524211 6.47820291 14.28697768 0.00099148 0.00356084 -0.00163431
N 10.18730612 0.42725776 13.78376003 -0.00389501 0.00418031 -0.00170807
N 15.84529960 6.44190476 5.84263795 0.00573125 0.00400934 0.00417886
N 13.78281117 12.47351223 10.52558380 -0.00605209 0.00635922 0.00618208
N 11.30949581 6.50099089 2.59730294 0.00102347 -0.00263110 -0.00103898
N 15.93875758 12.36896164 18.67342419 -0.00341285 0.00339367 -0.00104407
N 9.99560042 6.50377055 27.25560973 0.00390570 0.00363981 -0.00093413
N 11.10291434 25.54959532 22.18835263 -0.00428483 -0.00457136 0.00122081
N 13.59541865 6.67907858 30.61883523 0.00528532 -0.00122850 -0.00026829
N 9.58994887 25.49420801 30.36756591 0.00850716 0.00238071 0.00020918
N 15.67608137 6.48763126 22.84156445 0.00600903 0.00046891 -0.00063292
N 13.77474824 13.00854760 27.20734743 0.00023881 -0.00846024 0.00351156
N 12.17800758 6.13231271 18.80262333 0.00151761 -0.00885972 -0.00503616
N 16.28312190 0.85089530 1.88153142 -0.00821726 -0.00437111 0.00212880
N 9.58459710 19.10466545 10.74554529 -0.00407738 -0.00665332 -0.00461867
N 11.07459070 12.80388899 6.15912866 0.00231881 0.00122188 0.00307189
N 13.83340576 18.82317292 14.62316509 -0.00150542 0.00528942 0.00011984
N 9.83487319 12.64926101 14.30421546 0.00225752 -0.00016119 -0.00433626
N 15.45350773 19.40771335 6.05596877 0.00964459 0.00203818 -0.00509317
N 13.77776745 0.79642879 10.13972416 -0.00058719 0.00189727 -0.00279082
N 11.72756770 19.10661095 2.84290552 -0.00460695 0.00136787 -0.00638153
N 16.14489413 25.44137492 18.82674266 0.00760093 -0.00099336 -0.00276781
N 9.29196590 19.22091493 27.56758472 -0.00681898 -0.00164319 -0.00128821
N 12.00463526 12.72141686 22.44756238 0.00041621 -0.00536055 0.00447351
N 13.61584291 19.60171080 30.52851058 0.01330710 -0.00207828 -0.00310965
N 9.51772252 12.91516126 30.73230883 -0.00077669 0.00214788 0.00156474
N 16.10359373 19.14856956 22.63280204 -0.00564226 -0.00564092 0.00394087
N 13.68799080 0.02519316 26.63782737 -0.00364894 0.00640730 0.00205550
N 12.07099562 18.92513523 19.20798543 0.00164053 0.00890673 0.00206685
N 24.29347302 12.82657822 2.24781533 0.00308039 0.00059957 -0.00062274
N 17.72675602 6.30903164 10.36881689 -0.00250040 -0.00139304 0.00143290
N 20.12550460 25.62943973 5.59604074 -0.00085335 0.00720716 0.00304571
N 22.37973707 6.21942695 13.74453078 -0.00024541 -0.00750982 -0.00667586
N 18.11234266 25.63218297 13.97338638 -0.00311503 0.00087308 0.00660655
N 24.50792247 6.83850937 5.53411751 -0.00916670 0.00081065 -0.00488824
N 22.21943803 13.14041076 10.73029265 -0.00371587 0.00820470 -0.00101180
N 20.02461518 6.49953988 1.96074908 0.00067202 0.00350112 -0.00884139
N 24.77613462 12.44203635 19.39947702 0.00574329 0.00356474 0.00447948
N 17.84343564 6.59718735 26.72956420 -0.00548640 -0.00991739 0.00238596
N 20.65119079 0.02793129 22.22839876 0.00231372 -0.00262826 0.00027246
N 22.07118306 6.83243984 29.84234415 0.00104032 0.00011746 0.00022223
N 17.93780482 25.63294027 30.18442081 0.00314405 0.00628826 0.00629609
N 24.76986687 5.87361565 21.73428912 -0.00554036 -0.00128277 0.00078987
N 21.92344318 12.82239144 27.40321584 -0.00079556 -0.00206190 -0.00097656
N 20.13162252 6.09204019 18.37009225 -0.00423978 0.00463097 0.00793138
N 24.19653319 0.21270202 2.17375923 -0.00634552 0.00097924 -0.00717945
N 17.41701753 19.21238402 11.46886040 0.00023855 -0.00721973 0.00345491
N 20.14447328 12.55829037 6.11879133 -0.00079552 -0.00815461 0.00238107
N 22.23750572 18.94895001 14.09199934 -0.00086061 0.00160384 0.00628095
N 18.02669444 12.84211839 14.26696169 0.00283319 0.00597812 -0.00258289
N 24.44435313 19.64311021 5.79702207 0.00100496 0.00107352 0.00248785
N 21.83040884 0.08673006 10.51552791 -0.00480432 0.00034071 0.00140779
N 20.05479976 19.15433885 2.64471868 0.00262485 0.00051915 -0.00066730
N 24.62870486 25.46725365 18.73811802 0.00733845 0.00159972 -0.00563373
N 18.37986033 19.48630271 27.43260580 0.00893318 -0.00064652 -0.00118846
N 20.15388673 12.72985235 22.48871936 -0.00057844 -0.00012492 -0.00736306
N 22.38343725 19.36627249 30.98734752 0.00740225 0.00409362 0.00684616
N 17.89097354 12.93112572 30.58806035 0.00273250 -0.00218082 0.00081368
N 24.16046346 18.99282828 22.69802488 -0.00015947 0.00932888 0.00282442
N 22.26046923 0.46085499 26.89763900 0.00486508 0.00046124 0.00103976
N 20.37878811 18.66571153 19.11183090 0.00541914 0.00221126 -0.00221561
C 7.59463454 0.73767550 4.75910678 0.00414068 0.00351177 -0.00676237
C 1.26557621 5.90952467 13.09778253 -0.00363482 0.00822219 0.00436547
C 2.92624827 12.60780542 4.01681165 0.00539873 0.00375753 -0.00714520
C 5.14257909 6.83345988 11.71831233 0.00430596 0.00063995 -0.00106115
C 0.23626026 11.93208810 12.85375837 0.00472043 -0.00484282 -0.00036853
C 7.47390496 6.78109255 3.53933663 -0.00044236 -0.00071225 0.00269633
C 5.54120721 0.10516475 13.02820155 0.00312720 -0.00666741 -0.00266506
C 2.85492798 5.99120955 4.71676887 0.00289617 0.00124732 0.00481220
C 7.19415551 1.41563040 5.91692222 -0.00045642 0.00077789 0.00160502
C 1.71942562 5.20700021 14.19334466 0.00204846 -0.00142759 -0.00182231
C 2.85733811 11.86876063 2.83480689 0.00432132 -0.00141001 -0.00290612
C 5.28635318 7.47306130 10.53530335 -0.00511121 0.00625580 -0.00192323
C 0.55583286 11.37605939 11.63619269 -0.00214086 0.00007880 0.00345503
C 7.14432790 7.47943613 2.37687274 0.00199438 0.00537773 0.00544509
C 5.73341866 0.80486985 14.16109735 0.00070943 0.00294022 0.00404990
C 2.47996008 5.18790585 5.78690860 -0.00406957 0.00204015 -0.00022581
C 6.16220117 2.35847126 5.77652090 -0.00812304 -0.00589202 -0.00356242
C 2.46749624 4.03848585 13.98199956 -0.00223059 0.00349088 0.00045258
C 2.16622016 10.65469017 2.75316436 -0.00655484 -0.00011293 -0.00282805
C 6.06835901 8.63899111 10.43941063 -0.00341868 -0.00652115 -0.00170459
C 1.66367393 10.51771682 11.49742296 0.00769645 -0.00131235 -0.00626313
C 6.04207205 8.35215709 2.31728178 0.00137035 0.00690539 -0.00427788
C 6.41497141 2.04190713 14.11378111 0.00207743 -0.00052361 0.00550515
C 1.82263491 3.96154556 5.57511360 -0.00132540 0.00250032 0.00205479
C 5.62485006 2.82475830 4.54200917 0.00105487 -0.00594013 -0.00003057
C 2.63544440 3.60435251 12.65389544 0.00559592 0.00182916 -0.00509450
C 1.70016809 10.12695364 3.95910964 0.00363077 -0.00212329 -0.00167161
C 6.49077419 9.22407453 11.63866429 0.00161795 -0.00270431 -0.00403362
C 2.28480265 10.16708335 12.74343672 0.01008650 0.00714510 -0.00112475
C 5.47325943 8.72925249 3.55328567 -0.00467992 0.00372673 0.00006832
C 6.66161942 2.58059720 12.82489051 0.00808490 -0.01023168 0.00036948
C 1.69961198 3.40298507 4.27821315 -0.00453765 -0.00664693 -0.00114068
C 6.09869279 2.25247825 3.42468416 -0.00397331 0.00001817 0.00256051
C 2.00928683 4.19551133 11.59045000 0.00148746 -0.00449508 0.00205551
C 1.80989623 10.77280623 5.21048640 0.00896152 0.00062661 0.00146110
C 6.46705498 8.58462607 12.84971322 0.00769046 0.00301688 0.00399431
C 2.01582963 10.85230185 13.90724275 -0.00110654 0.00022245 -0.00428699
C 5.81839922 8.06897813 4.73096027 0.00504269 -0.00312055 0.00157599
C 6.53190132 1.84839909 11.69519482 -0.00436871 -0.00809144 0.00176150
C 2.29070538 4.12738039 3.21535351 0.00411412 -0.00300627 0.00338194
C 7.02440869 1.12014346 3.51012434 0.00134983 0.00071054 -0.00267177
C 1.24525900 5.39911666 11.80554170 -0.00361613 0.00431073 0.00376559
C 2.43539489 12.09652574 5.18928718 0.00895883 -0.00105784 0.00258571
C 5.78023004 7.33377968 12.88516524 0.00457166 -0.00157958 -0.00197931
C 1.09943138 11.89383303 13.92408253 -0.00270673 -0.00032110 0.00108320
C 6.80451781 7.07828741 4.74042024 0.00215913 0.00244321 -0.00834748
C 5.91984700 0.57639098 11.73934841 -0.00076593 0.00511278 -0.00405951
C 2.81262433 5.43208363 3.41812792 0.00543791 -0.00418778 -0.00510607
C 6.84650242 0.35331385 1.25563321 -0.00491514 0.00097549 0.00479639
C 1.13118657 6.09286415 9.41515883 -0.00435920 -0.00905621 0.00315337
C 2.09156659 12.40531877 7.66785428 0.00582438 0.00571481 0.00019403
C 6.40653882 6.53080003 15.13753092 0.00564592 0.00657862 0.00250184
C 1.64951319 12.67733896 16.12382149 0.00265322 -0.00216193 -0.00045120
C 6.56463113 6.43581570 7.13030127 0.01047847 0.00033315 -0.00671408
C 6.16991837 0.00098061 9.34705473 -0.01039804 -0.00227957 0.00130724
C 2.70068140 6.22182781 1.15216171 -0.00232012 0.00013316 0.00375049
C 7.58801931 12.20801172 17.13400193 -0.00590495 0.00711332 0.00083377
C 1.31597053 7.40226876 8.72082712 0.00493136 -0.00595009 0.00464037
C 3.08784260 1.00310478 7.68737027 -0.00181774 0.00065397 0.00019639
C 5.34884752 5.61112845 32.64824642 0.00449430 0.00089667 -0.00004572
C 1.28055314 1.00917436 32.69353572 0.00726876 -0.00334507 0.00042080
C 6.79170905 5.24281072 8.00850178 -0.01061206 -0.00099197 0.00320694
C 4.94049603 12.12392787 8.94558094 0.00103409 0.00062190 0.00417601
C 3.31361167 7.46057057 16.74788502 -0.00175543 -0.00339993 0.01080952
C 7.80335330 0.19242472 21.34019832 0.00177495 -0.00307374 -0.00191904
C 1.15034018 6.03100020 29.23643786 0.00522376 -0.00229860 -0.00189654
C 3.62634612 11.94091385 20.84495015 0.00503569 -0.00317398 0.00195470
C 5.41535734 6.77809279 27.95295775 -0.00631448 0.00007721 0.00390184
C 1.12989765 12.12727578 28.40724962 -0.01319092 -0.00177135 -0.00313403
C 8.12359697 6.93234841 19.85931355 0.00153945 0.00178708 -0.00737901
C 5.21430057 0.39593307 29.38838716 -0.00971099 0.00731037 -0.00024609
C 3.94562687 5.62504677 21.05320499 0.00493999 -0.00179317 -0.00418302
C 7.43573010 0.95368040 22.43474900 -0.00435754 -0.01231226 0.00926949
C 1.39806539 5.30982828 30.41436426 0.00083657 0.00623218 -0.00489724
C 3.01122140 11.44945059 19.71644751 0.00523317 -0.00706934 -0.00792683
C 5.74321393 7.47379303 26.82463657 0.00106544 0.01226807 0.00479455
C 1.60082163 11.27498568 27.42649239 0.00198777 0.00228586 0.00332422
C 7.84443698 7.57302100 18.65899116 0.00445703 0.00438973 0.00143918
C 5.45079335 1.02876449 30.60582955 -0.00491378 0.00094644 -0.00293350
C 3.51090626 4.94753775 22.18124574 0.00348363 -0.00286462 0.00497615
C 6.92672295 2.22715761 22.22111605 -0.00229941 0.00358925 0.00216856
C 2.28367514 4.19059297 30.42706585 -0.00407982 -0.00123064 -0.00193710
C 2.20265273 10.30480416 19.73239006 0.00146630 0.00603680 0.00033267
C 6.57833342 8.59389235 26.96534339 -0.00462132 0.00055827 -0.00288546
C 2.36563792 10.15841112 27.79526619 0.00028526 -0.00104561 0.00237369
C 6.93405899 8.63672292 18.58076317 0.00002579 0.00201223 -0.00485945
C 6.13490073 2.26210732 30.54155227 0.00032898 0.00279958 0.00754065
C 2.68781538 3.76823824 22.07621486 0.00273692 0.00250952 0.00329088
C 6.70614428 2.67773697 20.90995237 0.00787305 -0.00284775 0.00166431
C 2.64036100 3.61050884 29.15188293 0.00178636 0.00102777 -0.00323879
C 1.92291414 9.69710128 20.98437650 0.00168205 0.00216857 0.00227712
C 6.82383892 9.09327327 28.28259167 -0.00076800 0.00121037 -0.00248603
C 2.61446282 9.84649109 29.15412821 0.00124510 -0.00356327 0.00099819
C 6.58953827 9.16326329 19.86938479 0.00340791 0.00997805 0.00132141
C 6.50621580 2.88294017 29.26899523 -0.00711160 0.00276674 -0.00361667
C 2.42366737 3.32091403 20.77641692 0.00307398 -0.00196110 -0.00210957
C 7.01677466 1.88515000 19.84395864 0.00130540 -0.00450517 0.00148902
C 2.31152211 4.20376527 27.97149217 0.00693082 -0.00526325 0.00231839
C 2.27400789 10.45186587 22.11398868 -0.00640408 0.00311050 -0.00178532
C 6.50126090 8.37996743 29.43936831 0.00741929 -0.00001595 -0.00016395
C 2.14433484 10.78014171 30.05220329 0.00017306 -0.00396083 0.00330631
C 6.93715668 8.60389909 21.05384982 -0.00879896 0.00065184 0.00388246
C 6.30307387 2.21204510 28.12027198 0.00226492 0.00496982 -0.00655694
C 2.74591131 4.06306519 19.65858964 -0.00278595 -0.00040917 0.00383314
C 7.58072256 0.62896204 20.02022739 0.00152058 -0.01209946 0.00631148
C 1.60933417 5.47891705 27.97178547 -0.00148683 0.00008993 0.00788735
C 3.15959717 11.53245745 22.14230224 -0.00181554 0.00616132 -0.00222367
C 5.65248793 7.24284600 29.29800189 0.00074977 -0.00757541 0.00134446
C 1.41767407 11.93921341 29.71900801 -0.00393896 -0.00378825 -0.00394199
C 7.69285838 7.41471872 21.04646298 0.00375490 -0.00229799 0.00211954
C 5.63129842 0.91091851 28.16082310 0.00652780 0.00443434 0.00077670
C 3.40093938 5.35422847 19.80222949 0.00110652 -0.00513870 -0.00064751
C 7.40191969 25.55836939 17.65768039 -0.00001977 -0.01075707 0.00043209
C 1.75475244 6.04310983 25.57675853 -0.00549980 0.00525018 -0.00007807
C 2.33647696 12.74768280 24.09894864 0.00738134 0.00001652 -0.01350946
C 5.63219859 6.68966385 31.66254163 -0.00782860 0.00928721 0.00288901
C 1.31424712 12.66742479 31.99834838 0.00609864 0.00373007 -0.00019786
C 7.30963584 6.73262774 23.40975692 -0.00281696 -0.00256473 0.00070060
C 5.82713131 0.29866823 25.77838567 0.00154684 0.00134943 -0.00191167
C 3.21956608 6.15515940 17.54342192 -0.00807045 -0.00879058 0.00233369
C 6.87014660 11.82227321 1.13117576 -0.00095774 -0.00188415 0.00153300
C 1.64762300 7.24551450 24.64955577 0.00120057 0.00578214 -0.00327715
C 2.94510012 0.66714462 24.28877187 -0.00476027 0.00323837 -0.00186241
C 6.34477553 5.21554931 15.83881473 -0.00071518 -0.00642389 -0.00073339
C 1.51270137 0.86222655 16.26954352 0.00128859 0.00216119 0.00474343
C 7.23057914 5.47241006 24.31967192 -0.00060253 0.00646522 -0.00402963
C 5.60635909 12.16369834 25.51594428 0.00227309 -0.00718437 -0.00143143