1920
Time=20999.99999999 pbc="T T T" Lattice="25.52424881 0.00000000 0.00000000 0.00000000 25.56340547 0.00000000 0.00000000 0.00000000 32.98394042" energy=-12246.09576058 virial="-62.16907515 32.91473214 -9.76044568 32.91473214 -56.80365170 -45.66899047 -9.76044568 -45.66899047 -79.94680197" stress="-0.00051702 0.00148295 -0.00038472 0.00148295 -0.00031452 -0.00218805 -0.00038472 -0.00218805 -0.00145957" Properties=species:S:1:pos:R:3:vel:R:3
O 5.98546386 2.47053281 6.77801884 0.00047886 -0.00066139 -0.00584459
O 2.09853000 3.67708828 14.79710954 0.00011507 -0.00259934 0.00073754
O 1.30357923 10.33329974 1.13055540 -0.00141709 -0.00022625 -0.00178314
O 7.09470206 8.88296900 9.60218241 -0.00437629 0.00084860 0.00107631
O 1.93341764 9.54000088 9.72417334 0.00179992 0.00370735 -0.00251745
O 5.73556779 9.28327351 1.56795504 0.00086436 -0.00615096 -0.00076759
O 6.84227281 2.64379784 15.39210156 0.00275916 -0.00394922 -0.00108747
O 1.78693168 3.20230922 6.52563411 -0.00027281 -0.00473692 -0.00150153
O 6.45547617 1.02419559 17.33107418 0.00048107 0.00254813 0.00161346
O 2.03417740 4.94393852 8.40240843 0.00511386 -0.00945558 0.00073275
O 2.50760160 11.11874344 7.36412610 0.00461336 0.00270964 -0.00102378
O 6.18483028 8.11992048 32.22096419 0.00744440 -0.00068793 0.00426919
O 2.17421484 11.71955742 32.01809141 0.00152257 -0.00358586 -0.00209999
O 6.66174495 7.50480003 7.53507711 0.00110302 0.00397388 -0.00000369
O 6.29412698 1.14536714 9.07464830 0.00145186 0.00052136 -0.00158419
O 2.45006313 5.05205943 17.00887418 -0.00316656 0.00053874 -0.00416200
O 5.97025111 2.78146299 23.58216657 -0.00104968 0.00570322 -0.00214899
O 2.79602703 3.77546963 31.67093703 0.00041532 -0.00111722 0.00187228
O 1.75956450 10.11767732 17.67706416 -0.00328378 -0.00020534 0.00231506
O 6.59144276 8.96369796 25.71123767 0.00135785 -0.00321541 -0.00015376
O 2.21087540 9.95948576 25.77401740 -0.00330748 -0.00042985 0.00780012
O 5.68249720 9.19869713 17.72228165 -0.00091826 -0.00013868 0.00175574
O 6.52102601 2.77324010 31.87395155 -0.00029932 0.00015510 0.00746810
O 1.77544726 3.40307882 23.29211274 0.00410360 0.00033894 0.00284401
O 5.99337494 1.07542385 0.68543725 -0.00232617 0.00402485 -0.00393495
O 1.97334433 4.98497782 25.50956814 -0.00614644 -0.00815107 0.00378119
O 2.13177385 11.55138310 23.63637591 0.00672712 0.00691888 0.00421260
O 5.97779334 7.59439839 15.80389391 -0.00771808 -0.00316543 -0.00336855
O 2.63845395 11.46218561 15.73346136 -0.00350292 0.00111434 0.00238526
O 6.03897207 7.60103866 23.74368169 -0.00097766 0.00015753 -0.00552746
O 6.83352802 1.31093512 25.54004481 -0.00457500 -0.00905945 -0.00536598
O 2.07536143 5.47025706 0.66198850 -0.00033826 0.00272846 0.00084398
O 5.71578276 15.05758591 7.12787439 -0.00027233 0.00279908 -0.00140788
O 2.14898597 16.31600282 15.55223872 -0.00464430 -0.00325917 -0.00404688
O 1.60468737 23.12260652 1.24868199 0.00073245 0.00356743 -0.00766204
O 6.63125805 21.60643179 9.58448858 0.00058951 0.00733860 -0.00159845
O 2.45919783 22.62441698 9.52776062 -0.00119494 0.00189227 -0.00339619
O 5.91208367 22.11091883 1.58767893 0.00219842 0.00257032 0.00549769
O 6.93371934 15.62289634 14.95777513 -0.00159736 -0.00438429 -0.00548542
O 1.67017613 16.08795245 7.22030665 -0.00119602 -0.00273759 -0.00788178
O 6.49378099 14.13405931 17.11075473 0.00133692 -0.00004091 0.00193673
O 1.45049333 17.60532847 9.21527266 0.00415869 -0.00110851 0.00467206
O 1.99356514 24.45805467 7.43309661 -0.00323136 0.00347654 0.01122460
O 6.17730935 20.62842891 32.35885948 -0.00001193 0.00793100 -0.00229910
O 2.40163691 24.63036414 32.09529312 -0.00284906 0.00169396 -0.00233224
O 6.20529463 20.02488570 7.59100005 -0.00386384 0.00135436 0.00446026
O 6.91650179 13.58629052 8.85411201 0.00312302 -0.00378988 -0.00150948
O 2.06840596 18.03493065 17.43212868 0.00246242 0.00313651 0.00006401
O 6.07963464 15.88426815 23.14316025 0.00165780 0.00009954 -0.00290902
O 2.74352610 16.48119882 32.11804303 0.00316012 -0.00100741 0.00204657
O 1.74013566 22.87031061 17.71343693 0.00227743 -0.00110791 0.00004261
O 6.99310959 21.86052114 26.21810880 -0.00177349 -0.00192176 0.00213250
O 2.40513570 22.81414042 25.91833282 0.00010080 -0.00288661 -0.00422143
O 5.75170831 21.52285696 17.65147015 0.00194857 -0.00070186 -0.00405608
O 7.00310665 15.68071729 31.56821747 0.00441609 0.00940137 -0.00143670
O 1.46054575 16.49055449 23.36171719 0.00250370 0.00343577 -0.00610675
O 6.46718994 14.21995671 0.77657173 0.00415444 -0.00176713 0.00083572
O 1.89080129 17.58796733 25.74738804 0.00153765 0.00369928 -0.00177863
O 1.72757506 24.42343210 23.89221152 -0.00043115 -0.00317262 0.00553085
O 6.86474084 20.04305965 15.74954610 0.00753789 -0.00002430 -0.00664970
O 1.77805296 24.49545558 15.65910641 -0.00446878 -0.00401494 0.00213542
O 6.51905287 20.86017444 23.89920115 0.00286202 -0.00277683 -0.00073231
O 6.31240835 14.57713420 25.26074458 0.00052591 0.00081499 0.00475893
O 1.96729184 18.03966985 1.17541532 0.00217718 0.00476351 -0.00665204
O 13.93427610 2.23387205 6.64192937 0.00091505 0.00535617 -0.00639831
O 11.35832185 3.82398098 15.17106898 0.00182947 0.00166164 -0.00142694
O 10.01479758 10.25843457 1.23309684 0.00449028 0.00127187 -0.00237958
O 15.51204523 8.96165292 9.36948361 0.00102089 -0.00361275 -0.00278142
O 11.08522112 9.80441284 9.61514900 0.00472176 0.00058936 -0.00150532
O 14.72790658 9.17384160 1.01174680 0.00144283 0.00632874 0.00610843
O 15.44772731 2.69819359 14.74843285 0.00539589 -0.00385409 0.00401983
O 9.86396469 3.63236777 6.84528838 -0.00733753 -0.00671526 0.00364422
O 15.23233486 1.17182526 16.84996942 0.00343272 -0.00220329 0.00703485
O 10.29561244 4.98519913 8.96635241 -0.00389006 -0.00127251 0.00423215
O 10.84590172 11.34652947 7.45812544 -0.00809094 0.01161138 0.00228474
O 15.30779274 7.33819486 32.02921763 -0.00248021 -0.00682801 -0.00159142
O 10.41960282 11.58563044 32.12285235 -0.00353438 -0.00184816 0.00170325
O 14.64253946 7.52786293 7.20738392 -0.00808000 0.00223368 -0.00340771
O 14.90615336 0.89938210 8.69373392 0.00745563 -0.00457239 0.00963663
O 10.56885851 5.31490266 17.18986149 0.00324743 0.00729739 0.00557487
O 14.39465251 2.79221402 23.07711494 -0.00444881 -0.00081291 0.00176516
O 10.88843630 3.78888373 31.52127961 -0.00535178 -0.00122605 -0.00716182
O 10.27050023 10.25875458 17.77343471 0.00315964 0.00165129 -0.00668244
O 14.81673262 9.53829319 25.84044165 0.00134035 -0.00336406 -0.00913996
O 10.72667092 10.17245879 25.83412974 0.00073709 -0.00498694 0.00581155
O 14.62330512 9.25477651 17.65891313 0.00299264 0.00712915 -0.00084681
O 14.93098589 2.62776334 31.45697573 -0.00310189 0.00349218 0.00317379
O 9.95172895 3.40631198 23.31039348 0.00021945 -0.00828075 0.00340215
O 14.47389709 1.00990621 0.46831748 -0.00094967 0.00903968 -0.00244025
O 10.31865591 4.95696020 25.31011335 0.00543041 -0.00744797 -0.00566264
O 10.34366723 11.83119453 24.02600109 -0.00258889 -0.00428947 -0.00748114
O 15.12301330 7.56854973 15.65721955 0.00381343 -0.00415383 0.00186067
O 10.73548546 11.52558714 15.60471780 0.00215880 -0.00178655 -0.00100311
O 14.66340094 7.51981704 23.83478410 0.00037623 0.00647436 0.00063809
O 15.14882837 1.15374976 25.06723457 -0.00293990 -0.00276643 0.00421618
O 10.83985854 5.47982043 0.67568097 -0.00406200 -0.00292496 -0.00012485
O 14.62981907 15.23064957 6.96952817 0.00045403 0.00057574 -0.00503599
O 11.46649095 16.48932782 15.28377361 0.00127716 -0.00867174 -0.00076480
O 9.93759633 22.80435646 0.82139465 0.00908691 -0.00675053 0.00063198
O 15.30138807 21.66691616 9.92782890 0.00452791 0.00552457 -0.00429589
O 11.01620829 22.94889840 9.36088690 0.00280671 -0.00213135 0.00174282
O 14.56446023 21.84282869 1.73236702 0.00128225 0.00493237 0.00123974
O 15.41814563 15.57656121 15.07585278 0.00873898 0.00035850 0.00142345
O 10.11932525 16.42291678 7.10644812 0.00177745 0.00473243 -0.00325566
O 15.39666884 14.42902517 17.34830243 0.00050921 0.00339057 -0.00118287
O 10.80602947 17.88251415 9.20673687 -0.00227661 0.00459220 -0.00213085
O 10.52371881 23.86870157 7.09660244 0.00248568 -0.00072523 0.00434251
O 15.06007713 20.21529819 32.55376385 -0.00549107 0.00535968 -0.00242553
O 10.18706722 24.31412209 31.79466416 -0.00117492 0.00173788 -0.00517702
O 15.39926338 20.24227441 7.73737345 -0.00096153 0.01204413 0.00288965
O 15.17125051 13.91828287 8.99426587 0.00038362 -0.00141133 -0.00087128
O 10.66450547 17.78039818 17.28744994 -0.00266008 -0.00070158 0.00020034
O 14.56760708 15.88345561 23.63320166 0.00010359 0.00751296 -0.00178624
O 11.01291030 16.69603415 31.92662681 0.00273211 -0.00068171 0.00468062
O 10.13311235 22.83186241 17.37303294 0.00368724 -0.00099022 0.00056863
O 15.19226201 22.58641289 26.61949990 -0.00020012 -0.00352474 -0.00502563
O 11.26202125 23.39562377 25.60664663 0.00267247 -0.00113067 0.00476130
O 14.22364623 21.92162878 18.06010284 0.00139786 0.00001647 0.00336884
O 15.69022488 15.36124406 31.93129374 0.00043495 -0.00103987 -0.00121039
O 10.42355073 17.15958046 23.71922671 -0.00082970 -0.00152171 -0.00262115
O 15.02300883 13.98732376 0.95075295 -0.00336950 0.00446943 -0.00861141
O 11.03011353 18.50364111 25.90659029 0.00296891 0.00528793 -0.00013183
O 10.52486967 24.30394141 23.46587144 0.00562811 0.00678692 0.00543288
O 14.54881398 20.21011661 16.11296425 -0.00314962 0.00300184 0.00392046
O 10.60957542 24.43480174 15.30458870 0.00175209 0.00615555 -0.00102254
O 15.53893968 20.86835915 24.34341965 -0.00227002 0.00223914 0.00150035
O 14.40139852 14.57717930 25.68540610 -0.00211346 0.00613096 -0.00175931
O 10.46329163 17.95498235 1.05332930 -0.00176169 -0.00048854 0.00122950
O 22.82988135 2.34737556 6.85573340 -0.00087128 -0.00493095 0.00507338
O 19.58415761 3.49759618 15.12903226 0.00021712 0.00247321 0.00064951
O 18.43880514 10.00123417 1.37692758 0.00113183 -0.00193220 -0.00532475
O 23.64105822 8.77969439 9.50340210 0.00083735 0.00119272 -0.00326602
O 19.41057987 9.79424070 9.47338050 -0.00804304 -0.00081584 0.00356487
O 23.04467193 8.80043988 0.96542568 -0.00139327 -0.00552070 -0.00206498
O 23.57269372 2.64302798 15.29361746 0.00067541 -0.00317082 -0.00304524
O 18.38650821 3.97092261 6.86470342 0.01097496 0.00255363 0.00161063
O 23.22600688 1.25820018 17.45708512 0.00038773 -0.00345718 -0.00016285
O 19.38233912 5.27116438 9.02507444 -0.00062748 0.00352193 0.00068672
O 19.05397837 11.20669034 7.41167418 -0.00818678 0.00720039 0.00797797
O 23.63931591 7.34501607 31.82850626 0.00469477 -0.00813683 -0.00083237
O 19.52584777 11.86713765 32.59053824 -0.00022801 -0.00077607 -0.00304666
O 23.26372793 7.27677951 7.30748426 -0.00117004 0.00280788 0.00045033
O 23.56120480 1.00581027 9.12332976 0.00397843 -0.00386108 0.00047038
O 19.39751510 5.09977091 17.11887358 0.00674328 -0.00159226 -0.00106828
O 22.62474411 2.85824213 23.33652112 0.00489547 0.00257267 0.00456038
O 19.20580064 3.49627065 31.54479224 -0.00637084 0.00377367 0.00793007
O 18.84592663 9.72286358 18.12690504 0.00442209 -0.00222582 0.00004575
O 23.94218396 9.42920346 25.99513386 -0.00010724 -0.00040820 0.00527705
O 19.63499594 10.03237848 26.59967720 -0.00741201 0.00221758 -0.00408469
O 22.87654242 8.93884731 17.54435923 -0.00406709 0.00661382 0.00426019
O 23.71605929 2.69942801 31.48036593 0.00774718 0.00397393 -0.00061113
O 18.63496171 3.80751412 23.27479217 0.00227807 -0.00150428 -0.00207830
O 23.04092263 1.24056861 0.63255077 0.01228033 -0.00372675 -0.00307830
O 18.87744217 5.27471741 25.33624803 -0.00011343 -0.00266425 0.00044378
O 19.68839640 11.71671443 24.32878057 -0.00092100 0.00406240 0.00102549
O 23.86640435 7.35939737 15.76041063 -0.00151900 -0.00916428 0.00267208
O 19.19963320 11.19061699 15.75198293 0.00771912 -0.00199755 -0.00436505
O 23.35912395 7.90097944 24.06346889 -0.00349619 -0.00158257 -0.00124575
O 23.16648977 1.31063706 25.22990903 -0.00011066 0.00902375 0.00649906
O 18.93299657 4.91603298 0.58089416 0.00789511 -0.00643727 -0.00190456
O 23.05567497 15.48286471 7.02074526 -0.00238079 -0.00259154 0.00033150
O 19.98685618 16.39415414 15.17966267 -0.00534619 -0.00040322 -0.00329733
O 18.55784962 22.38313555 1.34074537 0.00404496 0.00574808 -0.00286959
O 23.50316977 21.57568495 9.68174110 0.00523791 -0.00693470 0.00229882
O 19.71042419 22.98802877 9.35921845 0.00046105 0.00159641 -0.00254911
O 22.95095577 22.04123860 1.74715302 -0.00520562 0.00182649 0.00062144
O 23.64134461 15.82418674 15.43487523 -0.00163312 0.00465651 0.00481640
O 19.22133270 16.33662920 7.30153297 -0.00285462 -0.00004604 0.00048261
O 23.56451708 14.24706967 17.53827623 0.00095987 0.00135204 -0.00062288
O 19.22214582 18.22555296 9.05942985 -0.00074570 0.00169595 -0.00282159
O 18.93482562 24.59828300 7.35452115 -0.00339427 0.00182447 -0.00065197
O 22.93685960 20.59465840 32.62411457 -0.00717295 0.00240539 -0.00297204
O 18.96851860 24.16616187 32.32441366 -0.00240988 0.00393863 0.00474668
O 22.58971894 20.24410424 7.66203127 -0.00856133 0.00382857 -0.00320859
O 23.21950796 13.86445347 8.96635632 0.00099367 0.00638489 -0.00021367
O 19.64587311 17.76644861 17.22645522 0.00446157 -0.00152615 0.00266927
O 22.65735200 15.93666894 23.60938188 0.00086755 0.00232003 0.00139809
O 20.02461234 16.61556905 31.65331949 -0.00481584 -0.00013266 -0.00256743
O 18.31050596 22.81860246 17.76393207 -0.00199922 -0.00850090 -0.00151582
O 23.90637074 22.24890753 26.32091534 -0.00669730 0.00528958 0.00073152
O 19.56479874 23.11489994 26.02310863 -0.00627862 0.00821791 0.00731654
O 23.00663623 22.16544411 18.05012032 0.00516518 0.00322025 -0.00702878
O 23.79871127 15.43871061 32.03290666 0.00132992 -0.00201634 -0.00477898
O 18.80064024 16.77776064 23.45700084 0.00091412 0.00218147 0.00817451
O 23.36324849 13.77797825 0.88314698 0.00506855 -0.00676921 -0.00148329
O 19.26317394 18.19692924 25.60142457 -0.00398640 -0.00279754 -0.00150410
O 18.87223153 24.45359319 24.05660925 -0.00176493 -0.00038439 -0.00176073
O 23.06255135 20.68507706 15.93036117 -0.00029571 0.00116694 0.00037340
O 18.91401506 24.16980208 15.73182879 -0.00266222 0.00043649 -0.00521737
O 24.00129693 20.69792786 24.27393321 0.00458118 0.00097886 -0.00079325
O 23.05430136 14.36201534 25.80701486 0.00388229 -0.00034517 0.00279338
O 19.29483143 17.37612478 1.00933250 0.00638783 -0.00052596 0.00349996
N 7.69506588 13.08733597 2.33192373 0.00093360 -0.00244252 0.00223029
N 1.06475296 6.29620917 10.06009051 0.00197102 -0.00530643 -0.00018356
N 3.21734739 0.07059121 5.89632797 -0.00115362 0.00788827 -0.00029615
N 5.19917873 6.36039717 14.06321074 -0.00143000 -0.00360397 0.00182257
N 0.90011219 0.17837589 13.88106098 -0.00186321 0.00102326 -0.00575585
N 7.81230719 6.51469483 5.84557721 0.00005938 0.00493022 0.00603034
N 5.46429404 12.65851077 10.33602134 -0.00032569 -0.00213694 0.00703807
N 3.37763797 6.49102136 2.31316101 0.00154928 -0.00304824 0.00082930
N 7.72604066 13.03597965 18.66620341 -0.00312711 0.00532502 0.00833197
N 0.82062402 6.29945709 27.13177459 -0.00301250 -0.00051338 -0.00168393
N 3.19687056 25.42921039 22.45305132 0.00232354 -0.00285328 -0.00090846
N 5.37356076 6.73319858 30.54033156 -0.00113603 0.00382883 -0.00323484
N 1.03101640 0.14977452 30.63097849 -0.00340836 -0.00235504 -0.00355138
N 7.41482699 6.58133366 22.27057535 0.00601771 0.00161086 -0.00615071
N 5.44272744 13.15970477 26.84650231 -0.00023201 0.00040218 -0.00669166
N 3.27084802 6.34279152 18.71910530 0.00208333 -0.00390102 0.00479064
N 7.28306291 25.39240146 2.13234975 -0.00512427 -0.00045551 -0.00278201
N 0.90850297 19.04984537 10.92211123 -0.00061857 -0.00045343 -0.00967750
N 3.38561755 12.48089091 5.79015709 0.00104041 -0.00133087 -0.00291646
N 5.23411727 19.15501203 14.39997671 -0.00310234 0.00666489 0.00156524
N 1.16352551 12.56065613 14.35429368 0.00451973 -0.00975368 0.00193189
N 7.43542539 18.91043764 5.98582323 0.00037173 -0.00302038 0.00188802
N 4.99843838 0.09349173 10.71302833 0.00104434 -0.00668401 -0.00277974
N 3.25106199 18.87330805 2.90000252 0.00425810 -0.00275620 0.00443061
N 7.51725114 0.02025830 19.08517133 -0.00694413 0.00287184 -0.00547209
N 0.71166271 18.64430342 27.41561199 -0.00254150 -0.00022663 -0.00153477
N 3.58628903 12.67898638 22.18543190 0.00082074 0.00211237 0.00010557
N 5.02999874 19.44218188 30.71139106 0.00340852 0.00498719 0.00476942
N 1.17654482 12.92611413 30.32250891 0.00344908 0.00524063 0.00870528
N 7.83748300 19.62439832 22.49724123 -0.00541292 0.00146879 -0.00035526
N 5.34829646 0.38438029 26.99415924 -0.00032969 -0.00172093 -0.00738778
N 3.00329402 19.30544601 19.01729301 0.00394988 -0.00448605 -0.00021284
N 16.37251479 12.76065570 2.32059257 -0.00120793 0.00383621 0.00090229
N 9.78932988 6.50337253 10.58478206 0.00356390 -0.00276674 -0.00611087
N 11.55676605 25.05815558 5.50312920 0.00064224 0.00170862 0.00375299
N 13.79015111 6.54179089 14.13389583 0.00020125 0.00057988 0.00125088
N 9.20356799 0.00432465 13.90836857 -0.00470428 -0.00151869 0.00006867
N 16.08450914 6.56590950 5.68027051 -0.00241135 0.00017716 0.00107142
N 14.07900762 12.67281949 10.55304730 -0.00177696 -0.00533368 0.00527739
N 11.82761950 6.49506839 2.51932116 -0.00766470 0.00004941 0.00053925
N 15.92984731 13.03746079 19.12585196 -0.00388741 -0.00526559 0.00325234
N 9.36675796 6.38318123 26.92649239 0.00732851 -0.00052580 0.00241918
N 11.95150509 25.38699322 21.99333849 0.00148293 0.00351250 -0.00319973
N 13.65105368 6.80997346 30.55059815 0.00131737 0.00003940 0.00213448
N 9.68570025 0.29845630 30.25740046 -0.00096039 -0.00267397 -0.00254281
N 16.10987590 6.46550045 22.33718531 0.00050424 0.00185308 -0.00276858
N 13.63198584 13.22952248 27.29703020 -0.00795870 0.00484555 0.00587564
N 11.92636020 6.21436776 18.82729056 -0.00825579 -0.00284637 -0.00326273
N 15.68106631 25.36264364 2.01231553 -0.00626552 0.00081610 0.00060979
N 9.42039208 18.85320987 10.68864714 -0.00267654 0.00073148 -0.00130846
N 11.94598556 12.53443133 5.91231753 -0.00212740 -0.00261442 -0.00005649
N 13.86512489 18.86262488 14.40964994 -0.00308369 -0.00497181 -0.00101083
N 9.65475097 12.74934301 14.00283326 -0.00533843 0.00028545 -0.00277565
N 16.47298267 19.10629485 6.16613642 0.00181795 -0.00050748 -0.00010181
N 13.64482248 25.43287530 10.25284860 0.00500135 0.00086705 -0.00381813
N 12.06698122 18.77755396 2.51477465 -0.00266443 0.00566328 0.00202620
N 15.98660442 25.50894272 18.53962438 -0.00107975 -0.00040629 -0.00456701
N 9.40069927 19.28585374 27.31762399 -0.00191217 -0.00002441 0.00432260
N 11.89098428 12.68318816 22.56582895 -0.00425801 -0.01261060 -0.00555303
N 13.82803231 19.30624315 30.83757161 0.00773588 0.00122026 0.00305414
N 9.65493050 13.00327806 30.45756348 0.00086584 0.00555969 0.00610882
N 15.95229073 19.27086331 22.67622108 -0.00334418 0.00177504 -0.00019151
N 14.00208871 25.47182028 26.66789455 0.00165736 0.00924077 -0.00496286
N 11.88962372 18.98445249 18.74419921 -0.00257776 0.00331117 0.00796405
N 24.60908259 12.79086709 2.46601580 0.00823482 0.00652632 0.00386833
N 17.98346159 6.31496088 10.59692709 -0.00036030 -0.00515614 -0.00384059
N 19.85029819 0.15590003 5.60209443 0.00391659 0.00285514 0.00178348
N 22.47883331 6.24476776 14.40831358 0.00090875 -0.00178361 0.00309885
N 17.83075285 25.39213426 14.16422698 -0.00497640 -0.00271426 -0.00688583
N 24.47185854 6.18011652 5.57445346 -0.00186209 0.00084563 -0.00171150
N 22.50416137 12.80853175 10.96642712 0.00217521 -0.00707872 0.00073358
N 20.21772384 5.96590334 2.15117098 0.00919061 -0.00408906 0.00363751
N 24.66338012 13.08171899 19.20750221 -0.00458133 -0.00160952 -0.00189444
N 18.07591570 6.54768672 27.10150856 0.00589000 0.00192902 0.00494326
N 19.91717079 25.49560037 22.29709727 -0.00380993 -0.00186376 -0.00254885
N 22.20141495 6.41025330 30.33644931 0.00354864 -0.00288198 0.00301404
N 18.16003322 0.08032992 30.72523860 0.00115275 0.00194939 0.00333949
N 24.28045431 6.55168209 22.48550494 0.00030866 0.00029465 0.00175484
N 22.16717533 12.98213274 27.31305424 -0.00291791 -0.00108718 0.00037686
N 20.23147724 6.46248019 18.72637019 0.00528673 -0.00248459 -0.00400038
N 24.36402263 25.54400157 2.08478933 0.01072401 -0.00193966 -0.00574609
N 18.10716031 19.19579314 10.88288679 0.00052962 0.00524692 -0.00398728
N 20.56037593 12.14150310 5.97780248 -0.00462628 -0.00276187 0.00905340
N 22.50210774 19.06350359 14.48909414 -0.00039790 -0.00014079 -0.00112481
N 17.95976297 12.29260129 14.26978758 0.00180566 0.00024813 0.00123588
N 24.33742245 19.37806868 6.36193195 0.00362666 0.00287829 -0.00568294
N 21.96203347 0.19162727 10.55141610 -0.00297447 0.00405524 0.00334295
N 20.49952082 18.62878987 2.49563333 -0.00019257 0.00296988 -0.00367454
N 24.61348392 0.20849420 18.93438273 0.00130865 0.00294839 -0.00630991
N 18.11258462 19.30158101 27.13998674 -0.00049829 0.00450417 0.00043126
N 20.21718744 12.96119255 22.41428673 -0.00094225 -0.00177303 -0.00179258
N 22.36084576 19.31422014 30.77425258 0.00238703 0.00391358 -0.00264846
N 18.17936934 13.00463669 31.06119548 0.00347665 0.00247829 -0.00840944
N 24.22084488 19.22422432 22.48534240 -0.00439861 0.00079154 -0.00119907
N 22.21045244 25.50961187 26.83975147 -0.01140776 -0.00149968 0.00136955
N 20.03101194 19.31386285 18.81823160 -0.00169444 0.00285077 -0.00375707
C 7.41415802 0.02872720 4.46593848 0.00097884 0.00432785 -0.00081179
C 0.88835758 6.12301173 12.38498249 -0.00482770 0.00365091 0.00865190
C 3.25589671 12.41989548 3.37564631 0.00116039 -0.00506899 -0.00131825
C 5.09388926 6.73569907 11.66485443 0.00400017 0.00378022 -0.00029459
C 1.01658423 12.29080608 11.95302225 0.00301524 0.00025994 0.00319657
C 7.53053972 6.85059598 3.52903468 -0.00035917 -0.00720211 -0.00717220
C 4.96844428 0.44914605 13.11616256 0.00717190 -0.00287019 0.00214535
C 3.39374006 5.96900841 4.72438013 0.00476949 0.00047438 0.00160631
C 7.04299259 0.63810417 5.67150460 0.00665584 -0.00512634 -0.00236419
C 1.15602007 5.50838895 13.57534608 -0.00309292 0.00655998 -0.00491625
C 2.70702339 11.94992895 2.18926645 -0.01140166 0.00291115 0.00406412
C 5.44774163 7.45883884 10.56494791 0.00830010 -0.00052409 -0.00659124
C 1.19772804 11.63173275 10.81211990 0.00021547 0.00275894 -0.00533194
C 7.16940486 7.61695241 2.47965019 0.00737704 -0.00109577 0.00058392
C 5.32120166 1.08452934 14.29594525 0.00003751 -0.00616292 0.00208419
C 3.02022121 5.13538960 5.76044095 0.00071007 -0.00680822 -0.00131197
C 6.49950386 1.96952799 5.58939096 0.00670781 -0.00224905 0.00652185
C 1.87949853 4.29660412 13.62509174 -0.00236855 -0.00664419 0.00284284
C 1.86711867 10.79995531 2.24933696 0.00149581 -0.00303016 -0.00049860
C 6.40903166 8.53232104 10.69712772 0.00176912 0.00305151 -0.00392317
C 1.83374773 10.27988134 10.81601725 0.00283346 0.01084785 -0.00008234
C 6.32052971 8.77654648 2.62389840 0.00046334 -0.00694008 0.00568109
C 6.34211673 2.06588458 14.33006270 0.00485554 0.00235974 0.00709614
C 2.23843417 3.97922056 5.53168373 -0.00945281 -0.00573012 0.00268164
C 6.44008809 2.62124076 4.40252691 -0.00208000 0.01200641 0.00139950
C 2.29232500 3.74908343 12.41584700 0.00289010 0.00680207 0.00289625
C 1.79332586 10.05732646 3.47067845 -0.00303906 -0.00216613 0.00534946
C 6.65130222 9.02777262 11.91269635 -0.00568284 -0.00819818 -0.00233327
C 2.32477360 9.84243637 12.05630461 -0.00549391 0.00354411 0.00356251
C 6.24099322 9.28200814 3.95551287 -0.00467979 0.00453230 0.00042730
C 6.64943367 2.51152337 13.03013521 0.00882018 0.00266973 -0.00572071
C 1.99171950 3.66096923 4.23895717 -0.00030624 -0.00335826 0.00095437
C 6.60530151 1.94109051 3.21051683 -0.00073204 0.00649585 -0.00788701
C 1.95657319 4.35087511 11.24393465 -0.00398696 -0.00620644 -0.00346024
C 2.36724861 10.53874174 4.58867514 0.00495292 -0.00360929 0.00691307
C 6.23846125 8.36157070 13.05913164 -0.00423671 0.00038613 0.00381936
C 2.00874062 10.52452434 13.23773570 0.00437457 0.00718242 -0.00305178
C 6.86367335 8.63403188 5.02213973 0.01217386 0.00274080 0.00447613
C 6.20385351 2.02024976 11.80730036 -0.00101587 -0.00400457 -0.00459801
C 2.27425115 4.53396366 3.19712678 -0.00118420 -0.00266918 0.00456005
C 7.10239099 0.66497665 3.25607806 -0.00414614 0.00485751 0.00256329
C 1.23499225 5.59731228 11.16328501 -0.00286675 -0.00018285 -0.00675796
C 3.00117357 11.81137016 4.60073057 0.00090413 -0.00122022 -0.00762878
C 5.54994653 7.17149062 12.97144206 -0.00540709 -0.01057542 0.00029171
C 1.46756107 11.80622043 13.17439658 -0.00161116 -0.00127549 0.00165982
C 7.36359023 7.31837135 4.84059143 0.00041856 -0.00449985 0.00619228
C 5.43856478 0.83617654 11.87148492 0.00245145 0.00227427 -0.00087207
C 3.07075208 5.67512911 3.37115397 -0.00635922 -0.00679775 -0.00110659
C 6.69241613 0.05252022 0.93405497 -0.00073705 0.00262192 0.00998881
C 1.50914042 5.98572839 8.77567877 -0.00377451 -0.00023300 -0.00064863
C 2.92755638 12.20884276 7.03303934 -0.00153273 0.00111591 -0.00352958
C 5.61682618 6.51479679 15.35753820 0.00130959 -0.01000143 -0.00196227
C 1.96895561 12.48099080 15.44900151 -0.00131128 0.00022522 -0.00761552
C 7.20457953 6.50109565 7.06157313 0.00377226 -0.00190542 -0.00558966
C 5.71813832 0.12761378 9.51639489 -0.00107959 -0.00181696 -0.00001015
C 2.72448809 6.42441588 1.03933528 -0.00228238 0.00285254 0.00388309
C 7.08926185 11.79593346 16.58181730 0.00738890 0.00063855 0.00511068
C 1.39070245 7.27090379 7.86973450 0.00688161 0.00464492 0.00408405
C 2.93143444 0.88816267 8.13467056 -0.00064267 -0.00813143 -0.00077243
C 5.64803957 5.88223944 32.76989254 0.00074521 -0.00565169 -0.00448452
C 1.34057148 1.08816427 32.83474074 -0.00442098 0.00184296 -0.00065937
C 7.13759760 5.15210942 7.75981050 0.00180746 -0.00553926 0.00403359
C 6.02374648 11.53017282 8.20835563 0.00898073 0.00208107 -0.00096229
C 3.00046051 7.40004800 16.55491970 -0.00650886 -0.00505567 0.00319909
C 7.73515294 0.47021878 21.40159266 0.00260371 0.00498301 0.00200086
C 0.75154620 5.96340369 29.59298925 0.00108727 -0.00872127 0.00104826
C 3.61885494 12.28179372 19.84947118 0.00767337 -0.00096594 -0.00301258
C 5.16759168 6.92154878 28.20847713 -0.00758301 0.00304357 -0.00161774
C 0.97246002 12.48520757 28.03801381 0.00720788 0.00675090 -0.00127032
C 7.49164116 6.91639779 19.87372648 0.00517505 0.00280751 0.00485310
C 5.22450144 0.40925363 29.38644837 0.00447197 0.00131601 0.00127284
C 3.39447936 5.85752111 21.10423963 0.00908756 -0.00072933 0.01027932
C 7.27610606 1.01301281 22.57676937 -0.00567337 -0.00085159 -0.00015989
C 1.14581656 5.27961319 30.69801885 -0.00244117 -0.00081377 0.00322644
C 3.25974792 11.59675796 18.72566603 0.00973490 0.00519528 -0.00324786
C 5.39206029 7.52666390 27.05854693 -0.00082326 0.01408398 -0.00385419
C 1.21486227 11.77129678 26.86641184 0.00365885 0.00400239 0.00002976
C 7.13866502 7.58270578 18.69621562 -0.00864981 0.00705385 -0.00204565
C 5.44908989 1.10625100 30.52739849 0.00063546 -0.01081539 0.00203966
C 3.01120883 5.16296880 22.23870184 0.00526687 -0.00528897 -0.00300465
C 6.36874550 2.14609411 22.53479979 -0.00149485 0.00914879 0.00222369
C 2.18327983 4.30380353 30.54132781 0.00429158 0.00171057 -0.00094830
C 2.24400427 10.60267532 18.77621209 0.00060031 0.00418119 -0.00320732
C 6.26834585 8.59055802 26.92304180 -0.00279760 -0.00289695 -0.00489066
C 1.95912141 10.60435025 26.91949762 -0.00361053 0.00660992 0.00241241
C 6.23510576 8.62934021 18.76754243 0.00706925 -0.00288700 0.00073423
C 6.25879027 2.21141262 30.72177494 0.00644325 0.00133061 -0.00040418
C 2.12122011 4.05653652 22.14574591 0.01021195 -0.00868609 -0.00185477
C 6.06026494 2.60404225 21.21257883 0.00201827 0.00245773 0.00481573
C 2.42100764 3.78961676 29.27994660 -0.00369405 0.00449649 -0.00179987
C 1.91760027 10.06014615 20.06804552 0.00359739 -0.00726106 -0.00262241
C 6.69439923 9.21085724 28.13334959 -0.00662203 0.00211396 -0.00220653
C 2.46889075 10.19402387 28.17835664 -0.00391004 0.00026661 -0.00268724
C 5.79697223 9.10168107 20.03304089 -0.00694451 0.00174619 0.00093042
C 6.70093051 2.78417237 29.47704169 0.00075588 -0.00925779 0.00379461
C 1.88853334 3.58697575 20.82649472 -0.00115356 -0.00521345 0.00780442
C 6.47082507 2.07022675 19.99589679 0.00045066 0.00272087 -0.00490716
C 2.04684350 4.48981470 28.15094477 -0.00921893 -0.00203861 -0.00011322
C 2.37428528 10.73616999 21.14059526 0.00730631 0.00515850 0.00037444
C 6.37256009 8.62446683 29.38354172 0.00914500 0.00334545 -0.00129637
C 2.16172727 10.88399335 29.29724399 -0.00589637 -0.00297115 -0.00238449
C 6.25271324 8.46373570 21.16777353 0.00013463 0.00589676 0.00419939
C 6.26063902 2.28218036 28.28983405 -0.00012506 0.00405312 -0.00514301
C 2.24332074 4.33540937 19.73305500 -0.00138557 0.00213194 0.00223027
C 7.25003290 0.86864907 20.13187086 0.00376196 -0.00200014 0.00614070
C 1.21314934 5.66723827 28.29219645 0.00177616 0.00620413 0.00147023
C 3.17613034 11.90705057 21.08437049 0.00502140 -0.00908285 -0.00007818
C 5.64781544 7.44585151 29.37072008 -0.00809567 0.00013343 -0.00068969
C 1.48737384 12.11960931 29.24084483 -0.00487465 0.01107339 0.00440882
C 7.07259313 7.34298127 21.14209351 -0.00622132 0.00903023 0.00188608
C 5.59511344 1.02340145 28.17630978 -0.00274140 0.00259906 0.00192616
C 3.00357148 5.53266838 19.80089757 -0.00108710 0.00015703 -0.00098264
C 7.03783939 0.08097213 17.80822819 -0.00113673 0.00010316 -0.00480354
C 1.40510026 6.01422918 25.89663184 0.00257922 0.00046941 -0.00171785
C 2.80439233 12.58677075 23.33523182 -0.00242958 -0.00422038 0.00238783
C 5.72906839 7.04784685 31.82045228 -0.00134425 -0.00026210 -0.00746597
C 1.59260331 12.73555803 31.62825679 -0.00785221 0.00095818 0.01127626
C 6.83527543 6.72291357 23.43930682 -0.00490220 0.00023230 -0.00341959
C 6.14192110 0.40717295 25.91413662 0.00299300 0.00013311 -0.00295139
C 2.85359807 6.13954713 17.45488272 0.00406770 0.00982625 0.00202740
C 7.03811294 11.96652122 0.22331261 -0.00076228 0.00288582 0.00014997
C 1.06789032 7.17286629 24.90571836 -0.00471303 -0.00170136 0.00640422
C 2.65620500 0.99422381 24.55017018 -0.00607778 -0.00236690 -0.00450445
C 5.50084069 5.29777039 16.23098815 -0.00066266 0.00039085 0.00615108
C 1.25060613 1.22936074 16.10476026 -0.00433484 0.00686107 0.00341664
C 7.15157862 5.63062506 24.40270766 -0.00594092 0.00449981 -0.00077071
C 5.80868226 12.29085305 24.66555332 0.00340201 0.00283910 -0.00404316