1920
Time=88000.00000005 pbc="T T T" Lattice="25.69606048 0.00000000 0.00000000 0.00000000 25.34698652 0.00000000 0.00000000 0.00000000 32.92319850" energy=-12247.12100708 virial="-37.37806031 -39.66059914 -8.69544118 -39.66059914 -25.61120865 11.48357437 -8.69544118 11.48357437 -58.22561796" stress="0.00056142 -0.00187965 -0.00048322 -0.00187965 0.00108114 0.00062147 -0.00048322 0.00062147 -0.00047949" Properties=species:S:1:pos:R:3:vel:R:3
O 5.97352049 2.37624045 6.75256692 0.00024403 -0.00062063 0.00226141
O 2.24603696 3.54036571 15.24160586 0.00024558 0.00367880 0.00055484
O 2.30625862 10.24987406 1.53290693 -0.00149092 0.00506480 -0.00492946
O 7.10708846 8.95708510 9.57853319 0.00410179 0.00139888 -0.00068301
O 3.17593525 9.88158182 9.93227706 0.00053850 0.00363602 0.00506052
O 5.72202737 9.05473773 1.32837968 -0.00239715 0.00581651 -0.00272800
O 6.70675014 3.07147994 14.83008874 -0.00498876 0.00174500 0.00000290
O 1.23317470 3.77787809 6.82042883 -0.00756500 0.00168180 -0.00339111
O 6.20578045 1.00987466 16.97224823 -0.00475089 -0.00152817 0.00473559
O 1.75505709 5.26443259 9.11693285 -0.00470962 0.00344232 0.00136733
O 2.57284745 11.34928427 7.92375410 0.00032142 -0.00039249 0.00644126
O 6.11270107 7.46226031 32.32087095 0.00110968 0.00500162 0.00270543
O 1.76609286 11.61089605 32.27687808 -0.00328486 0.00052153 0.00603050
O 6.57916519 7.57087333 7.50739631 0.00078914 0.00180559 0.00050255
O 6.49208723 0.90456862 8.70202934 0.00372553 -0.00260212 0.00175632
O 2.24016767 5.02220699 17.27425672 0.00675777 0.00130096 0.00016649
O 6.09231786 2.51803592 23.19304943 0.00326787 -0.00020803 0.00552334
O 2.41393729 3.57778544 31.64556536 0.00208982 0.00542763 0.00358682
O 1.46557960 9.86278739 17.97853233 0.00174371 -0.00466668 -0.00403175
O 6.88917678 9.08332395 26.16504348 0.00240128 -0.00034907 0.00388185
O 2.55633559 9.85712871 26.17666191 0.00530990 -0.00314197 0.00177606
O 5.80513081 8.79528184 17.87071549 -0.00083568 0.00243111 0.00943592
O 7.28747150 3.10968810 31.40568612 -0.00314951 -0.00209841 0.00280996
O 1.74034554 3.64100183 23.52823867 0.00275530 -0.00079441 0.00694899
O 6.82875801 1.49570622 0.42006269 0.00242949 -0.00037128 -0.00398590
O 2.32300126 5.12666628 25.45019629 0.00228508 0.00549709 -0.00172430
O 2.23034290 11.26562296 24.11697974 -0.00524919 0.00306893 0.00070294
O 6.46944610 7.43891456 15.71813801 0.00134574 -0.00350717 -0.00204634
O 1.82274789 11.44042436 15.89533708 0.00651235 -0.00073198 0.00062357
O 6.62108420 7.47087765 24.12841042 -0.00071233 0.00474519 -0.00562696
O 6.29526729 1.31309738 25.44385207 0.00207404 0.00156965 -0.00615096
O 1.94048613 5.20870728 0.66935491 -0.00165133 0.00383178 -0.00125978
O 5.50941890 15.13274310 7.02419772 -0.00266759 -0.00325863 0.00018532
O 2.49195818 16.28885724 15.12060116 -0.00291994 -0.00118625 -0.00615695
O 1.11761265 22.84773837 1.40464617 -0.00101990 -0.00141802 0.00194560
O 6.63806441 21.43073456 9.26063977 -0.00295927 0.00084983 -0.00342393
O 2.31251856 22.59193544 9.05734413 0.00102165 -0.00223626 -0.00213097
O 6.05365577 21.88110643 1.19973124 0.00469232 0.00246047 -0.00096553
O 6.93601083 15.09468548 15.42001217 0.00851681 0.00224490 0.00176040
O 1.69601429 16.15719665 6.67289732 0.00174729 -0.00251117 0.00007428
O 6.11261680 13.90623307 17.51371551 -0.00179483 -0.00196736 -0.00663729
O 1.57532055 17.52082121 8.92998779 -0.00290802 -0.00213073 0.00305638
O 1.83768539 24.43379880 7.16374360 -0.00132383 0.00388558 0.00115139
O 6.47033150 20.14088851 32.19455965 0.00068097 -0.00618931 -0.00186804
O 1.77638426 23.93366100 32.21736311 0.00493169 0.00184737 0.00094412
O 6.06710156 20.01689667 7.09982276 -0.00578717 0.00293186 -0.00903447
O 6.20600938 13.98013317 9.28722392 0.00051185 -0.00248239 -0.00149907
O 2.17067874 17.66387698 17.25414549 0.01102294 -0.00019479 0.00088438
O 5.66190751 15.55309254 23.53165121 0.00842202 0.00133178 -0.00449349
O 2.63671389 16.51089650 31.80394455 0.00014572 -0.00633979 -0.00029672
O 1.35522734 22.64201190 17.62207044 0.00016317 -0.00940388 -0.00428292
O 7.24322357 21.32278242 26.01212509 0.00595292 -0.00185487 0.00399024
O 3.05167918 22.78054180 25.97374329 -0.00099155 -0.00208681 -0.00532266
O 5.99215625 21.53736633 17.46388418 0.00145559 -0.00047782 0.00287123
O 7.20631963 15.50168762 31.74201255 -0.00066066 -0.00636335 0.00326976
O 1.53746506 16.45136040 23.49952832 -0.00187777 0.00178214 -0.00318838
O 6.32501929 13.92106611 0.74751927 0.00383082 -0.00184415 -0.00062781
O 2.66454481 17.87866562 25.41783793 -0.00888274 -0.00629221 0.00073509
O 2.23001361 23.99331334 23.80250135 0.00015806 0.00251181 0.00263424
O 6.47644457 20.02279847 15.41189319 -0.00207030 0.00320409 0.00443384
O 2.23701016 23.84479234 15.36834355 -0.00014672 -0.00333789 0.00453036
O 6.64689980 20.15212194 23.71850776 0.00251378 0.00880528 0.00711962
O 6.26777299 14.05227624 25.57481696 -0.00442312 0.00349044 -0.00660450
O 2.02452126 18.19309521 0.71553470 0.00219190 0.00466668 -0.00515193
O 14.43973642 2.97074012 6.63864584 0.00210626 -0.00057099 0.00491189
O 11.51892718 3.06293825 15.17377667 0.00031368 -0.00271385 0.00452959
O 10.35575820 9.96818809 1.54988969 -0.00389530 -0.00908909 0.00035863
O 15.25052177 8.97305053 9.80642209 0.00192136 -0.00479233 0.00045317
O 11.13656267 10.04882834 9.56384003 -0.00002437 0.00335653 0.00165154
O 14.33464831 9.31785518 1.25482891 0.00128915 0.00064306 -0.00226926
O 15.26972805 2.50201582 15.05720925 0.00210180 0.00312136 -0.00317625
O 9.59020835 3.43639267 6.71184688 0.00294238 -0.00225587 0.00172199
O 14.45281286 0.99145011 17.16768934 -0.00062945 -0.00940330 -0.00090818
O 9.92234246 4.78554283 9.31413042 -0.00460762 -0.00478635 -0.00082030
O 10.48938149 11.82885313 7.65659825 0.00242057 -0.00358199 -0.00035203
O 14.79867427 7.79369487 32.27085427 -0.00847865 0.00334508 -0.00138896
O 11.00763336 11.46945031 32.45666608 0.00448191 0.00587705 -0.00538479
O 15.47421092 7.95883601 7.34241487 -0.00079488 0.00574180 0.00112401
O 15.18658433 1.56321202 8.81163469 0.00399779 -0.00060465 -0.00199549
O 11.07051113 4.81039866 17.41270902 -0.00180759 -0.00202556 -0.00009003
O 14.66283459 3.05583925 23.09252258 0.00003953 0.00057741 0.00159034
O 11.36002066 3.74977884 31.89628874 -0.00466909 -0.00246839 -0.00063089
O 10.15969690 9.87348358 17.99282394 -0.00635458 -0.00758221 0.00990826
O 15.03696523 9.02422920 25.80083125 0.00145875 -0.00118571 0.00010499
O 11.79224843 10.80830123 26.39536490 -0.00180532 -0.00040946 0.00638984
O 14.60952474 8.83240925 17.78854507 -0.00099137 -0.00133438 -0.00150053
O 15.49103279 3.28251740 30.96454446 0.00017952 -0.00118688 -0.00215173
O 9.82884398 3.82010779 23.58637330 0.00050950 0.00024846 0.00498170
O 15.48662664 1.64381449 0.11802024 -0.00103622 0.00377921 0.00033132
O 10.07393740 5.33652281 25.87540444 -0.00459570 -0.00616916 0.00183409
O 10.90680277 11.60242907 24.11485770 0.00134101 -0.00334856 -0.00443778
O 15.29582280 7.32025300 15.93988526 -0.00214080 -0.00087349 -0.00014569
O 10.44893473 11.38802408 15.85346351 -0.00041083 0.00426527 -0.00018857
O 14.56276867 7.23345319 23.92622942 -0.00450658 0.00055799 0.00322500
O 14.92097214 1.26308002 25.07343173 0.00034710 -0.00030447 -0.00131090
O 10.55382378 5.20494782 0.93722607 -0.00059425 0.00215624 -0.00212785
O 14.67595997 15.64760307 7.48349226 0.00917656 0.00231231 -0.00168842
O 10.68507331 16.20571684 15.11903906 -0.00137856 0.00144416 0.00138786
O 10.01315981 23.05988150 0.99868082 -0.00514790 0.00151726 -0.00225441
O 15.06638105 22.06750747 9.35937539 0.00324336 0.00388862 -0.00398863
O 10.67014741 22.50132728 9.12662619 -0.00186868 -0.00426465 0.00549627
O 14.40721390 21.86025506 1.24421125 0.00423894 -0.00310949 -0.00198297
O 15.95496821 15.42200680 15.53149484 0.00105779 -0.00396170 0.00034653
O 10.07213766 16.12495546 6.60651049 0.00037023 -0.00316423 0.00375835
O 15.40503536 13.81670489 17.57083549 0.00364352 0.00065200 0.00241921
O 10.12556688 17.48571323 8.75952755 0.00382179 -0.00135409 -0.00369751
O 10.83723678 24.19304777 7.11191199 0.00531636 -0.00522329 -0.00019144
O 15.33324349 20.56927934 32.14385018 -0.00615073 0.00162344 0.00188764
O 10.89252371 24.33662405 31.76537363 -0.00126241 -0.00430187 0.00639949
O 14.78441162 20.40684530 7.47758064 0.00766545 -0.00334154 -0.00049661
O 15.10426686 13.95798495 9.40435648 -0.00465647 -0.00403817 0.00338028
O 10.55547089 17.47795081 17.30692734 -0.00603541 0.00050774 -0.00448051
O 14.64169855 15.37036625 23.75535833 0.00392292 0.00124142 -0.00175011
O 11.04617139 16.25610479 31.26268836 0.00564746 -0.00086494 -0.00124926
O 10.40496198 22.14545631 17.44213051 0.00191275 -0.00120693 0.00242845
O 15.69071217 21.93274186 25.86044317 0.00157847 -0.00591020 -0.00477882
O 11.55406285 22.83625021 25.76026643 0.00209096 -0.00339216 -0.00597040
O 14.30722005 21.28598307 17.32705617 0.00696935 -0.00018867 0.00200112
O 15.50206204 15.41175697 32.40025124 -0.00061640 0.00036158 -0.00669890
O 10.28679651 16.37841836 23.38810391 -0.00053437 0.00612781 0.00125158
O 14.60716984 13.81997231 1.32554819 0.00032250 -0.00340289 0.00055356
O 10.95739736 18.11760398 25.34588238 -0.00498649 -0.00074935 0.00291880
O 11.03208989 24.29090922 23.58254073 -0.00423086 -0.00189745 0.00164465
O 14.91031791 19.91509686 15.34421539 0.00014322 0.00179289 -0.00883675
O 10.19870313 23.94951500 15.44101338 0.00202656 -0.00469976 -0.00415115
O 15.20860823 20.49548001 23.60207209 0.00046398 0.00182130 -0.00459443
O 15.62731612 14.30020359 26.07936131 -0.00604892 0.00181486 0.00526690
O 10.97444237 17.77119995 0.48048112 -0.00006243 0.00175340 0.00174373
O 23.20345703 2.70382087 6.88576907 0.00268481 -0.00241845 0.00204137
O 20.36345080 3.25457883 15.33831786 -0.00996787 -0.00294635 0.00109139
O 18.71758709 9.95345522 1.54037730 -0.00041490 -0.00091372 0.00260217
O 23.84853356 9.24187671 9.79115722 0.00043146 -0.00010380 0.00318164
O 19.89963160 10.26369959 9.61974773 -0.00418677 0.00171347 -0.00392706
O 22.85609587 9.13571619 1.62580488 -0.00607837 0.00138324 0.00036324
O 23.93838725 2.67095068 14.90935891 0.00246120 0.00003301 -0.00706305
O 18.54117007 3.59964934 6.95704872 -0.00097468 0.00208891 0.00386095
O 23.41849091 1.07371200 16.88010088 0.00109009 -0.00209019 0.00029390
O 19.08196042 5.11736379 9.21912861 0.00034922 -0.00371018 -0.00451084
O 19.40441251 11.68928359 7.64815479 -0.00764942 -0.00521049 -0.00397870
O 23.43565138 7.72977024 32.43974645 0.00144206 -0.00611386 -0.00839326
O 19.16336914 11.33942197 32.29619676 -0.00402833 0.00533211 -0.00405716
O 23.75109601 7.68220453 7.78676703 -0.00233610 0.00001763 0.00926648
O 23.89132352 0.85481359 8.94367074 0.00844861 -0.00435862 -0.00738418
O 19.28935285 5.00425062 17.57306513 0.00396243 -0.00119769 0.00121179
O 23.33461942 2.67785670 23.02131230 -0.00092305 0.00362331 0.00661693
O 19.86107843 3.42946135 31.74326107 -0.00158273 -0.00203647 -0.00125109
O 18.55016897 9.79775161 18.32289425 0.00315052 -0.00727841 0.00054673
O 23.91885550 9.05097228 26.05447770 0.00030528 -0.00211624 0.00580074
O 20.11560854 9.92971914 26.12924048 -0.00021946 -0.00428536 -0.00598474
O 22.95443722 8.61073194 17.90776034 0.00113455 0.00106685 0.00545722
O 23.84888519 2.72799222 31.40650006 0.00387026 -0.00654419 0.00065384
O 18.78364107 3.35643210 23.63602756 -0.00095667 0.00267256 0.00131670
O 23.51351587 1.50431674 0.75603321 -0.00330159 0.00777633 -0.00113836
O 19.11233032 5.05536611 25.49561424 0.00227056 0.00469921 0.00159466
O 19.66654367 11.43543906 24.06789698 -0.00571786 -0.00447921 -0.00231359
O 23.88813669 7.37041224 15.92277617 -0.00452457 0.00074551 -0.00084677
O 19.03617943 10.94728833 15.84014258 -0.00003632 -0.00043779 0.00067123
O 23.72729375 7.47553506 24.13401610 -0.00321036 0.00000361 -0.00183812
O 23.72427727 1.24951663 25.21097629 -0.00447630 -0.00162877 -0.00533274
O 20.02870252 5.01724037 0.78101297 0.00182630 0.00196298 -0.00269840
O 22.69386084 15.36562715 6.78456798 0.00795720 -0.00463853 -0.00057126
O 20.01525359 16.24068763 15.56745302 0.00100360 0.00496085 0.00121461
O 18.23824933 22.36156125 1.15440199 -0.00575866 -0.00171365 -0.00273554
O 23.81838360 21.78880620 9.39266072 0.00563543 0.00236491 -0.00017028
O 19.55925750 22.56106895 9.38561408 -0.00007575 0.00629728 -0.00324429
O 22.73202991 22.00640876 1.31437503 0.00252054 -0.00433830 -0.00240693
O 24.02920365 15.18688099 15.12479565 -0.00178434 0.00018792 -0.00079769
O 18.66177338 16.68864027 6.93681017 0.00162218 0.00163727 0.00167921
O 23.54363906 13.71151756 17.40300224 0.00002146 -0.00131700 -0.00146336
O 18.80066043 17.60292572 9.33529048 0.00865685 0.00194504 0.00446260
O 19.46762463 23.86230369 7.25903918 -0.00450110 -0.00126771 0.00281299
O 23.09631731 20.33466644 32.04739726 0.00255527 0.00125040 -0.00303648
O 18.30881856 24.00168064 31.88764644 0.00055793 0.00647823 0.00541952
O 23.64695393 20.18229750 7.41276015 -0.00147014 -0.00272555 0.00283063
O 23.52310450 13.88741367 8.85949936 -0.00356494 -0.00700484 -0.00766226
O 19.31504581 17.71706796 17.47743397 -0.00354188 -0.00693729 0.00336644
O 23.41734905 15.54530827 23.37093065 -0.00080125 0.00660086 0.00348184
O 19.77167008 16.29917773 31.51292191 0.00545229 0.00109616 -0.00104174
O 18.40547327 22.47983861 17.66177444 0.00588910 -0.00444677 0.00182503
O 24.38717840 21.95945374 26.16207873 -0.00774397 0.00009458 0.00434854
O 20.29797749 22.44299008 25.86606620 0.00280000 0.00232874 -0.00147151
O 22.77594669 21.64973072 17.73736476 -0.00530839 0.00532226 0.00533827
O 24.45165650 15.32196408 31.79609168 0.00550007 -0.00762406 -0.00274567
O 19.17253012 16.05085828 23.51156086 0.00464878 -0.00179947 0.00395211
O 24.19093335 13.64657576 0.78212459 -0.00076092 0.00203038 -0.00567510
O 19.32570173 17.69802017 25.41009626 0.00136631 0.00168726 -0.00064384
O 19.96040131 23.80533053 23.67792094 -0.00244321 -0.00145604 -0.00251166
O 23.46342444 20.27161426 15.58127539 -0.00468103 -0.00126533 0.00213950
O 18.18523703 23.87400868 15.47845825 -0.00024895 0.00089421 -0.00120726
O 24.69554170 20.66891379 23.84076686 -0.00059658 -0.00138784 0.00194779
O 23.29809549 14.18121832 25.63347736 -0.00343287 -0.00309438 -0.00500225
O 19.35546487 17.73744354 0.68646418 0.00156071 0.00347938 0.00165752
N 7.29190455 12.70889959 2.44823093 -0.00050934 0.00216409 -0.00073844
N 0.92150165 6.52990349 10.83173761 0.00716437 -0.00153737 -0.00136169
N 3.33966111 25.33902739 5.69205060 -0.00166171 -0.00169361 0.00193086
N 5.28417822 6.34302723 14.17216961 0.00117384 0.00850433 0.00135616
N 0.94519299 24.96570692 13.85317344 -0.00172941 -0.00538482 -0.00142197
N 7.49280661 6.28457316 5.87980630 0.00705523 -0.00348913 0.00068237
N 5.21126417 12.55080633 10.81645312 0.00450139 0.00551378 0.00158395
N 3.00690420 6.43731205 2.32427115 -0.01223403 -0.00101966 -0.00735236
N 7.49747136 12.98801375 19.06648344 0.00044395 0.00270588 -0.00394191
N 1.08043940 6.27493511 26.93544463 0.00260052 0.00041561 -0.00311549
N 3.57869466 24.88352795 22.13984818 -0.00690839 0.00446707 -0.00006936
N 5.54673127 6.09403063 30.62883999 -0.00326599 -0.00134328 0.00663838
N 0.85853303 25.07169955 30.50244940 0.00406896 0.00045729 0.00388633
N 7.54457819 6.22422392 22.43836517 0.00579910 0.00489251 0.00323872
N 5.51102218 12.74136702 27.25792812 0.00380456 0.00172381 0.00364847
N 3.25989974 6.23602612 18.99145922 0.00672680 -0.00123014 -0.00778925
N 7.77089042 0.19159736 2.08205996 0.00485851 -0.00345686 0.00214389
N 0.73650815 18.90084828 10.55118721 -0.00084441 -0.00017616 -0.00529793
N 3.12715891 12.92706238 6.33738005 0.00352702 -0.00777480 -0.00146296
N 5.02893567 19.12321597 13.88583293 -0.00204893 -0.00341611 0.00098487
N 1.12325681 12.65939884 14.14717114 -0.00847790 -0.00023676 0.00408423
N 7.45590260 18.98776123 5.64552953 -0.00349254 0.00245138 0.00142702
N 5.15942754 0.05222399 10.32333502 0.00022262 0.00643499 0.00132533
N 3.00364408 19.43492699 2.37880856 -0.00640913 -0.00118269 0.00218357
N 7.49565036 25.18707518 18.47250021 0.00246849 0.00270781 0.00488586
N 1.17743390 18.80865570 26.86261913 0.00534932 0.00734631 0.00744937
N 3.37434545 12.46464852 22.48232831 -0.00368443 0.00454733 -0.00438999
N 5.37014012 18.95073592 30.58173713 -0.00223268 0.00643860 -0.00217781
N 1.09253768 12.96417073 30.59106893 -0.00053523 0.00665775 -0.00595924
N 7.80869377 19.07138443 22.13479906 0.00240631 -0.00010392 0.00303367
N 5.16409187 0.25679927 27.18615008 -0.00087300 -0.00543425 -0.00534123
N 3.12462955 18.97106051 18.88076003 0.00121495 -0.00483660 0.00642892
N 16.31424723 13.30082514 2.76126917 0.00161642 0.00055873 0.00045612
N 9.56446281 6.27656863 11.04103861 -0.00302068 0.00543779 0.00752282
N 12.21235701 25.18155503 5.67919217 0.00335182 -0.00020914 -0.00310299
N 14.18595348 5.94182662 14.42839060 0.00945235 0.00370461 0.00314842
N 9.41176664 25.29090476 13.77607217 0.00426018 0.00028218 -0.00241363
N 16.36797368 6.68579439 5.66949149 0.00248588 -0.00467033 0.00191464
N 13.67929720 12.91986663 10.96151526 0.00678771 -0.00161580 -0.00034887
N 11.72113505 6.27530428 2.49621018 -0.00765666 -0.00039048 -0.00655764
N 16.30672960 12.56182157 19.21261108 0.00151024 0.00157339 -0.00313899
N 9.76700632 6.74657784 27.63284048 0.00524215 0.00263577 0.00309442
N 11.84820924 0.05340885 21.82199538 0.01168380 0.00366746 0.00209647
N 14.08440195 6.37261718 30.65205006 -0.00007560 0.00250358 0.00162421
N 9.48019679 25.29441784 30.21951387 -0.00734296 0.00081822 0.00010153
N 16.01733108 6.19196859 22.48211227 0.00055333 -0.00380608 0.00105541
N 14.17518259 13.18495726 27.58947599 0.00013447 0.00036571 -0.00153001
N 11.75396831 6.26930763 19.00240138 -0.00602606 -0.00207078 -0.00178913
N 16.19062768 0.50807884 1.95581202 0.00459203 -0.00688209 -0.00067912
N 9.38630804 18.84171054 10.47356749 -0.00171137 -0.00100478 -0.00826180
N 11.74966718 12.86684810 6.04612922 0.00037684 -0.00661954 0.00112257
N 13.71885655 18.84711988 13.70192653 -0.00081096 0.00058567 0.00107333
N 9.58306886 12.71918714 14.17652985 0.00622050 0.00138799 -0.00400754
N 16.10266008 19.42908424 5.86875436 -0.00419041 -0.00437213 0.00229728
N 13.94718691 0.21484431 10.22726723 -0.00133478 -0.00029332 -0.00212006
N 11.81805249 19.02121581 2.27263508 0.00076129 -0.00007235 -0.00303041
N 16.01018076 0.04048748 18.56882220 0.00250841 -0.00113809 -0.00393152
N 9.94935601 19.44167299 26.93072986 -0.00616966 -0.00192423 -0.00112708
N 11.90952685 12.80513027 22.42000108 0.00860993 -0.00089375 -0.00181823
N 14.13259975 19.36272375 30.59929997 0.00109078 0.00146027 0.00181232
N 9.63506712 12.50196720 30.98043339 -0.00023832 0.00676410 -0.00072653
N 16.04166004 19.16010892 21.97950071 -0.00384603 0.00001741 -0.00119269
N 13.92812987 0.02027638 26.66567146 0.00344899 0.00772077 0.00035855
N 11.96816112 18.63404012 18.66580334 0.00479773 0.00038381 0.00016052
N 24.73751165 12.32236927 2.63507958 0.00247653 -0.00320204 -0.00009350
N 17.98147427 6.03342976 11.02320942 0.00407942 -0.00326581 0.00497998
N 20.06711573 25.19775632 5.52344627 0.00394902 -0.00565544 -0.00147205
N 22.43004968 6.41733143 14.34984897 -0.00850087 -0.00268751 0.00312203
N 18.14505931 0.13592735 13.80947224 0.00511047 -0.00108416 0.00642548
N 24.64264643 6.47140135 6.05414406 -0.00289549 -0.00099221 -0.00376412
N 22.58260285 12.58312139 10.43770795 0.00317001 -0.00115518 -0.00396176
N 20.65432365 6.28976736 2.54775495 -0.00939199 0.00144672 -0.00434935
N 24.71606563 12.54755436 18.97699838 -0.00418016 -0.00632623 -0.00112064
N 18.42675508 6.38542517 27.23073031 -0.00201390 0.00039641 -0.00220834
N 20.58017701 25.19630200 21.98103593 0.00481683 -0.00664774 0.00530203
N 22.19536679 6.71134562 30.85908419 -0.00373696 0.00171559 0.00705098
N 17.91691111 25.31176377 29.95374842 -0.00696347 0.00529288 -0.00212562
N 24.82818070 6.22851557 22.48294605 -0.00297804 -0.00395277 -0.00452034
N 22.39279716 12.85264857 27.27130048 0.00084855 -0.00393188 0.00437354
N 20.67187525 5.89327194 19.11782223 0.00005485 0.00101619 0.00335373
N 24.32766512 0.00855811 2.20489183 -0.00271228 0.00868260 -0.00216223
N 17.83230837 18.68474515 11.19939683 -0.00573656 0.00103542 -0.00088637
N 20.49918771 12.80354380 5.93444705 0.00234855 0.00112879 0.00287398
N 22.14061674 19.21072864 14.03798962 0.00005580 0.00397909 0.00032530
N 17.85642974 12.27765073 14.24663197 -0.00087369 -0.00558991 -0.00393750
N 24.71508566 19.15729445 5.72053581 -0.00256113 0.00659830 -0.00088336
N 22.35090927 25.33061943 10.31319845 -0.00189022 -0.00819632 0.00993707
N 20.37044926 19.14058967 2.22334820 -0.00055047 -0.00224418 0.00348070
N 24.50467671 25.11055272 18.39203458 0.00089077 0.01068591 0.00656926
N 18.34684682 19.05073261 26.96412051 -0.00382647 0.00238771 0.00268027
N 20.83382406 12.44680945 22.46763614 0.00207329 -0.00685271 -0.00436357
N 22.55354866 18.98115369 30.34489325 -0.00285558 0.00562055 -0.00359652
N 18.19797659 12.55310774 30.54482166 0.00371258 0.00405235 -0.00023293
N 25.10096945 19.19262581 22.11153049 -0.00217154 -0.00567614 -0.00268200
N 22.52277775 0.03941252 26.75309173 0.00231632 0.00952460 0.00368141
N 20.81446498 18.73795204 18.83424732 -0.00732719 0.00114960 0.00001827
C 7.47875555 0.05029229 4.52287767 0.00914985 -0.00428905 0.00625861
C 0.93542576 6.19465325 13.16325810 0.00561173 -0.00309474 0.00426467
C 3.38681360 12.64088782 3.94232031 0.00204948 -0.00200679 -0.00763932
C 5.33141801 6.75700241 11.83969109 0.00108955 -0.00119196 0.00251154
C 0.96009671 12.12327714 11.70170562 -0.01038266 -0.00091143 0.00164288
C 7.65379222 6.77277865 3.53283426 -0.00079068 0.00192367 -0.00475706
C 5.39679039 0.44281738 12.69451390 -0.00695407 -0.00156723 -0.00170555
C 3.24896142 5.96841213 4.70194161 -0.00353123 0.00420957 -0.00276125
C 7.13311797 0.70581654 5.64113942 0.00554857 -0.00168503 -0.00923646
C 1.15072456 5.38024647 14.27641305 -0.00274916 0.00858650 -0.00287878
C 3.16888502 12.05522005 2.75579204 0.00045131 -0.00207956 0.00542965
C 5.79451673 7.34434242 10.70065055 -0.00247281 0.00213936 0.00499470
C 1.48186880 11.39412704 10.66021638 -0.00167711 -0.00144237 0.00133536
C 7.28337681 7.50513960 2.38827828 -0.00423897 0.00413416 -0.00004045
C 5.77105649 1.15799704 13.82830963 0.00076448 0.00435232 0.00965011
C 2.84003873 5.20141338 5.79109789 0.00385806 0.00054387 0.00874300
C 6.37904074 1.83661822 5.64892979 0.00765920 -0.00432200 0.00286908
C 1.96140551 4.25750540 14.19275254 0.00027111 -0.00526187 -0.00065003
C 2.48418666 10.81475975 2.75357241 -0.00439837 0.00581550 0.00313014
C 6.62956199 8.42029540 10.70265513 0.00328841 0.00241476 -0.00027501
C 2.41737134 10.36500701 10.92367324 -0.00088936 0.00269524 -0.00037398
C 6.33235338 8.52866847 2.44017861 -0.00286617 -0.00290544 0.00364695
C 6.41669363 2.36700565 13.66248665 0.00048097 0.00473144 0.00213167
C 1.86105354 4.19236345 5.67616723 0.00045165 0.00038613 -0.00761718
C 6.03537710 2.49223244 4.42773944 -0.00911505 -0.00273214 0.00273197
C 2.39553349 3.87174136 12.89560302 -0.00933659 -0.00145651 0.00219119
C 2.11522675 10.17691992 4.03571660 -0.00091228 -0.00158697 -0.00814709
C 6.86523289 9.01414315 11.91757635 0.00208841 0.00156634 0.00459915
C 2.44302015 9.81284165 12.24635204 0.00196721 0.00230662 0.00038301
C 5.97607082 8.94209629 3.73043783 -0.00061375 -0.00499276 0.00737569
C 6.84705784 2.73752107 12.32805983 -0.00355247 0.00280853 -0.00777163
C 1.60141117 3.71375224 4.36667084 0.00627974 -0.00238484 0.00613995
C 6.57649350 1.95790456 3.24784311 -0.00276724 -0.00158235 -0.00123694
C 2.03524505 4.54031960 11.75441323 0.01081823 0.00128323 0.00261131
C 2.42437703 10.76293926 5.25324790 -0.00478858 0.00679433 -0.00032787
C 6.38118812 8.45801322 13.09330833 -0.00271384 0.00154031 -0.00048065
C 1.91611583 10.53432519 13.28173476 -0.00454901 -0.00146889 0.00263625
C 6.58465578 8.35767817 4.84813106 -0.00120467 0.00345212 -0.00005872
C 6.41752564 2.03662761 11.21408433 0.00822720 -0.00380980 -0.00157211
C 2.05148994 4.40567493 3.30346620 -0.00502226 0.00389086 -0.00356346
C 7.27449894 0.73012327 3.31616723 0.00197459 -0.00036652 -0.00274506
C 1.32584904 5.72968287 11.88547378 -0.00256524 0.00931567 -0.00086911
C 3.08774503 12.03784173 5.21725986 0.00325577 -0.00600457 0.00043671
C 5.68105993 7.19584876 13.09734091 -0.00631843 0.00020790 0.00794536
C 1.31477970 11.73483184 13.03535997 -0.00699034 -0.00082089 0.01403745
C 7.20702919 7.14432653 4.74377745 -0.00243400 -0.00489219 0.00108237
C 5.63059641 0.85074939 11.41590232 0.00551484 0.00781978 -0.00913548
C 2.78232268 5.61899006 3.41061268 0.00217300 0.00185855 -0.00745472
C 7.14918513 0.36971558 0.88341189 0.00123725 0.00443781 -0.00098512
C 1.41596238 6.33361855 9.60354625 -0.00194562 -0.00558802 0.01429972
C 2.76983733 12.54097386 7.59511376 -0.00302893 0.00618124 0.00335971
C 5.75036147 6.48487246 15.41740096 0.00565461 -0.00173182 0.00022634
C 1.53212938 12.51250049 15.40282903 0.00033262 -0.00218101 0.00107142
C 7.03482113 6.49666932 7.13334303 -0.00146676 0.01108281 -0.00146263
C 5.68554112 0.00611678 9.09571318 0.00011661 -0.00180710 0.00073374
C 2.48816579 6.24940102 1.03399561 -0.00246965 -0.00521576 0.00357433
C 7.04060178 11.74891986 17.11057076 0.00136046 0.00248222 0.00156724
C 1.23565059 7.49867336 8.62716713 0.00646846 -0.00189317 -0.00275658
C 2.96951667 1.09666536 7.76996829 0.00282180 -0.00201379 0.00476541
C 5.50403132 5.24010644 0.08180450 -0.00153024 0.00462889 -0.00422914
C 1.29590206 0.88667520 32.50081896 0.00905907 -0.00414124 -0.01249155
C 7.09465111 5.33012045 7.97611897 -0.00446728 -0.00460243 0.00190945
C 5.68769351 11.70206715 8.61218407 0.00396511 0.00779340 0.00312670
C 3.05586176 7.19334924 16.75437015 0.00561316 0.00461368 0.00380170
C 7.76416977 0.22393563 20.82319400 -0.00330722 0.00268354 -0.00410872
C 0.80198541 5.89202386 29.33054279 0.00163048 -0.00084425 0.00686467
C 3.40940043 12.15876408 20.12264904 -0.00078494 -0.00027056 0.00180366
C 5.35128409 6.57644068 28.32623920 0.00940368 0.00503602 -0.00534719
C 1.13590801 12.49154931 28.24650992 0.00558669 0.00032952 0.00638175
C 7.57732996 6.56793824 20.08855804 0.00187531 -0.00026441 0.00162399
C 5.08439599 0.78994577 29.53008393 -0.00197527 0.00763795 -0.00650295
C 3.46469926 5.96768100 21.37201801 0.00145279 -0.00434198 -0.01365334
C 7.37585714 0.85470298 22.03447235 -0.00400556 0.00338208 0.00262796
C 1.02656508 5.18849595 30.49592032 0.00195079 -0.00572258 -0.00540995
C 2.86065392 11.55304230 19.00117819 0.00113091 -0.00064168 -0.00282225
C 5.54540009 7.26818656 27.10764796 0.00277018 0.00303996 -0.00695577
C 1.55070783 11.74085034 27.16538807 0.00606490 -0.00084491 -0.00477233
C 7.19264890 7.21078470 18.92577372 0.00489262 0.00015892 0.00227413
C 5.65307961 1.44233083 30.56191736 0.00211429 -0.00187169 0.00001975
C 3.06959870 5.34221744 22.50348427 0.00368455 0.00434541 -0.00060056
C 6.50186144 1.98043566 22.04056485 -0.00621779 0.00394770 0.00671442
C 1.94003018 4.10724930 30.50590100 0.00076862 0.00166432 0.00585718
C 2.03007314 10.41799410 19.07030527 -0.00175787 -0.00143006 -0.00374303
C 6.35502329 8.47468781 27.25493910 0.00223339 -0.00443647 0.00845036
C 2.14551450 10.45131227 27.29397368 -0.00395161 0.00401610 0.00451775
C 6.36479264 8.30914170 19.02047525 0.00597955 0.00139626 -0.00294901
C 6.59907928 2.47995389 30.43929502 0.00584211 -0.00555265 -0.00047368
C 2.22973278 4.13765775 22.41983893 -0.00484066 -0.00140751 0.00083301
C 6.08591221 2.43507530 20.77269154 0.00105640 0.00358478 0.00422872
C 2.44539824 3.72971803 29.29483224 0.00243892 -0.00743861 0.00022649
C 1.83970430 9.87314249 20.34463584 0.00563146 -0.00150279 0.00923681
C 6.66293825 8.95607700 28.51705903 -0.00267824 -0.00525430 -0.00310274
C 2.33743220 10.04441472 28.59401883 0.00486639 -0.00080096 0.00367207
C 6.18262224 9.00196179 20.28821918 0.00003839 0.00914301 -0.00316366
C 6.80478710 2.95588997 29.07642576 -0.00585443 -0.00183573 -0.00188396
C 2.04140268 3.60429555 21.16945703 0.00582812 0.00152809 -0.00445864
C 6.42085858 1.76022628 19.63390910 -0.00016021 -0.00110301 0.00297914
C 2.14829441 4.34941465 28.08569781 -0.00005723 -0.00786096 -0.00121163
C 2.40427795 10.45706173 21.47394987 0.00356764 -0.01149507 0.00338245
C 6.36521013 8.21629209 29.67855563 -0.00563315 0.00100210 -0.00228579
C 1.94048982 10.82831213 29.73072988 0.00311522 -0.00384994 -0.00894317
C 6.67313390 8.36047199 21.43798654 0.00451859 -0.00360113 -0.00284593
C 6.21356350 2.27916729 28.05884879 -0.00444248 0.00258298 -0.00423199
C 2.54355924 4.15739449 20.04586321 -0.00080321 -0.00130337 -0.00471629
C 7.28162835 0.63680928 19.60982913 0.00502889 -0.00749540 0.00086656
C 1.31000420 5.43560901 28.06685413 -0.00712694 -0.00142686 0.00547684
C 3.08791115 11.66250664 21.36639740 0.00126721 -0.01037316 -0.00029141
C 5.72473590 6.98069499 29.55807313 0.00232926 0.00295914 -0.00161041
C 1.31980881 12.05671842 29.57916166 -0.00585324 -0.00321120 -0.00509993
C 7.22786078 7.05796252 21.34108306 0.00426652 -0.00547381 0.00096861
C 5.44960262 1.11489784 28.24821308 0.00237181 -0.00129789 -0.00664720
C 3.07374526 5.46248005 20.07420505 0.00048970 0.00062955 -0.00017534
C 6.85766335 0.01159497 17.30221083 -0.00773928 -0.00788053 0.00011037
C 1.69313304 6.11699889 25.73440077 -0.00943744 0.00409807 0.00080580
C 2.77109022 12.29266335 23.65615247 -0.00784802 0.00304000 0.00062997
C 5.69992802 6.35602082 31.96621455 0.00562132 -0.00000384 0.00191180
C 1.46841963 12.73085053 31.87230394 -0.00052081 -0.00875124 0.00722566
C 6.98258154 6.38792761 23.66280734 -0.00314822 -0.01203405 0.00027320
C 5.81387255 0.29728073 25.94103007 -0.00849251 -0.00239720 0.00173374
C 2.81904186 6.00702165 17.69199836 -0.00561826 -0.00146721 0.00373336
C 7.21967026 11.86952489 0.14306311 -0.00248354 0.00042421 0.00395857
C 1.49998998 7.27488716 24.71260981 -0.00222095 -0.00223312 0.00286318
C 3.23586742 0.70831223 24.17952809 0.00366415 0.00338728 -0.01053234
C 5.56491585 5.32967146 16.36746290 -0.00068396 0.00208681 0.00657482
C 1.28863915 0.63635073 16.04298866 -0.00087239 -0.00868518 0.00332967
C 6.87850544 5.11958358 24.49032951 -0.00336058 0.00162993 -0.00541224
C 5.52548820 11.78115344 25.00181953 -0.00807064 -0.00033019 -0.00391011