1920
Time=87000.00000006 pbc="T T T" Lattice="25.59577459 0.00000000 0.00000000 0.00000000 25.60002861 0.00000000 0.00000000 0.00000000 32.91254485" energy=-12245.95196056 virial="-35.09198438 -17.32621198 -17.75636122 -17.32621198 -25.00097957 -37.76275321 -17.75636122 -37.76275321 4.91689549" stress="0.00067546 -0.00079733 -0.00074548 -0.00079733 0.00120615 -0.00187736 -0.00074548 -0.00187736 0.00244182" Properties=species:S:1:pos:R:3:vel:R:3
O 5.97285781 3.12919069 6.43703898 0.00194684 -0.00387557 -0.00298968
O 2.61321140 3.90828305 15.08814914 0.00070504 -0.00098340 0.00486560
O 2.03400281 9.66335484 1.59945835 0.00175644 0.00887877 -0.00029327
O 7.19015671 8.88403186 9.55831198 -0.00224967 -0.00056334 0.00117715
O 2.91295064 9.92830955 9.86531339 -0.00044877 -0.00122844 -0.00293472
O 6.39050279 8.88475152 1.16132943 -0.00122226 0.00413086 -0.00661456
O 6.65485429 3.05814084 14.99983999 0.00138400 -0.00420550 -0.00056704
O 1.83462760 3.73078230 6.76373772 0.00441172 0.00396732 0.00043201
O 6.55509511 1.36991302 17.08226865 -0.00617363 0.00561310 -0.00002399
O 1.92840609 5.10960595 8.87104677 0.00064802 -0.00543013 -0.00174219
O 1.94818071 11.08496695 7.81177337 -0.00959452 -0.00464243 -0.00424439
O 6.56102628 7.48952164 31.91785967 0.00671076 0.00078193 0.00357674
O 2.21254872 11.41268821 32.63031868 -0.00221321 -0.00336265 -0.00007843
O 6.85636811 7.80748800 7.33979771 0.00067741 0.00003158 0.00527086
O 5.94399931 1.62564918 8.74414955 -0.00351722 -0.00224519 -0.00348923
O 2.24597489 5.56296603 17.11242001 -0.00104899 -0.00198076 0.00504023
O 5.58165314 3.27632368 22.97117806 0.00338910 -0.00212022 0.00515318
O 2.92629192 3.69509491 31.49887003 -0.00537090 0.00131332 0.00224554
O 1.63789206 9.94657900 18.37052889 -0.00103784 -0.00538960 0.00152700
O 6.58889563 8.98043782 25.68851698 -0.00417706 0.00235985 -0.00034414
O 2.37230539 9.57794766 26.53506825 0.00486907 -0.00166806 0.00399823
O 5.87301737 9.05714503 17.42585321 0.00046780 0.00227634 -0.00760793
O 6.76204390 2.30948054 31.45275246 -0.00444161 -0.00457421 0.00168896
O 1.82149786 3.56512468 23.10404110 0.00405044 -0.00384056 0.00639502
O 6.02775191 1.04103207 0.54385226 0.00192647 0.00377371 0.00237039
O 1.97141955 4.92967764 25.30618792 0.00045323 -0.00708196 0.00042074
O 2.24102997 11.48254871 24.48374107 -0.00513475 0.00120996 -0.00146284
O 6.68971894 7.46688474 15.53190605 0.00687611 0.00523607 -0.00488745
O 1.99886613 11.61469800 16.14357047 -0.00168572 0.00124795 -0.00029167
O 6.03236035 7.68380512 23.62478002 0.00302304 0.00198944 -0.00817444
O 6.23535705 1.67035039 24.94882844 0.00358306 0.00344647 -0.00657850
O 2.38767257 5.12807190 0.65118025 0.00312761 -0.00164565 0.00503811
O 5.88400976 15.45585143 7.26420674 -0.00367298 -0.00069048 -0.00483471
O 2.77017447 16.61247822 15.25594184 0.00435481 0.00208717 0.00068452
O 1.46913530 22.84928682 0.65167372 -0.00689180 0.00538334 -0.00037389
O 6.65138846 22.23911284 9.77689481 0.00011890 -0.00477959 -0.00193339
O 2.52221464 22.99100034 8.91237110 -0.00129062 0.00217269 -0.00301645
O 5.68991659 21.88065148 1.51644152 0.00506297 0.00294239 -0.00442355
O 6.68173047 15.19606097 15.35323511 0.00475632 0.00308725 -0.00203885
O 2.07933665 16.13938137 6.92941217 0.00391619 0.00018713 -0.00273306
O 6.03245047 14.10176741 17.50523353 -0.00149069 -0.00665730 -0.00453279
O 2.29085744 17.64918861 8.97304862 0.00075178 0.00705695 0.00276710
O 1.70921096 24.52343288 6.81256908 0.00317029 -0.00510604 0.00131543
O 6.47769870 20.44527149 32.56369247 0.00628919 -0.00314589 0.00415782
O 2.44427734 24.32009443 31.77203029 0.00108438 -0.00363737 -0.00880240
O 6.58490301 20.95830211 7.61796636 -0.00137891 0.00137778 0.00002301
O 6.57514056 13.83898884 9.07899052 -0.00348170 -0.00060294 -0.00286107
O 2.37074993 18.05016139 17.28747395 0.00260519 0.00271608 0.00268085
O 5.88598945 15.35699540 23.67873820 -0.00136083 -0.00124039 0.00246194
O 2.69721349 16.28701427 31.72749038 -0.00537930 -0.00263989 0.00084545
O 1.30762792 22.84736562 17.37243776 -0.00143599 0.00191207 0.00493586
O 6.85576641 22.34482386 26.35790813 0.00553861 0.00069280 -0.00406983
O 3.04331199 22.43149450 25.53333017 -0.00571982 0.00185668 0.00381620
O 5.52988728 21.90285689 18.12613618 0.00281974 -0.00664358 -0.00452828
O 7.33867550 15.51339162 31.84795748 -0.00796375 0.00156290 -0.00113392
O 1.34719942 16.48003748 23.27550958 -0.00326560 0.00161191 -0.00213088
O 6.34952367 13.90492790 1.04729689 -0.00494108 -0.00028225 -0.00414289
O 2.01372874 17.63891366 25.56371151 -0.00225100 0.00285139 0.00211675
O 3.02357253 24.09862972 23.55875003 0.00337003 -0.00091447 -0.00185796
O 5.73800272 20.43577147 15.79643990 -0.00040617 0.00997641 0.00156952
O 1.93634901 24.17641594 15.21420389 -0.00209592 0.00560964 0.00283096
O 6.52100484 20.48278880 24.30223278 0.00049369 -0.00021700 0.00964483
O 6.28999984 13.88760799 25.91564459 0.00033025 0.00625965 -0.00244634
O 2.65123720 17.99254940 0.86467950 -0.00367775 -0.00150568 0.00617103
O 14.69104377 2.57879717 6.89373839 0.00587926 0.00181588 0.00155903
O 10.92713816 3.79921289 15.43309907 0.00371636 -0.00602966 0.00135871
O 9.93745309 10.15757489 1.25963903 0.00044210 -0.00228036 0.00024319
O 15.69310518 9.15753575 9.00575137 0.00045299 0.00120423 -0.00212201
O 11.12105614 9.82472937 9.70764286 -0.00057739 0.00182786 -0.00021106
O 14.49935455 9.29205686 1.10077736 -0.00468235 0.00339794 -0.00510758
O 15.68816361 2.90088193 15.00993756 -0.00585176 0.00887202 0.00411165
O 10.24193356 3.82918525 7.15942026 0.00669232 0.00024590 0.00435824
O 14.80622597 1.43876498 17.09365927 0.00023687 -0.00584976 -0.00460164
O 11.21160034 5.16685192 9.22667531 -0.00125411 0.00391340 0.00689740
O 10.82754761 11.61555359 7.44469306 -0.00410909 0.00238979 -0.00438893
O 15.09356937 7.73857596 31.97887419 0.00373671 0.00096218 0.00208985
O 10.76527585 11.71626315 32.15829828 -0.00417596 0.00687809 0.00099692
O 14.80077274 7.58044890 7.21995220 -0.00573563 0.00109491 -0.00238236
O 15.51758676 1.01125776 8.80584994 -0.00169418 -0.00024235 -0.00240576
O 10.09040477 5.55186904 17.15660515 -0.00241937 -0.00208384 0.00303738
O 14.03916376 2.34711180 23.30779519 -0.00328279 0.00245173 -0.00278668
O 11.22613946 3.90786577 31.56654619 -0.00854644 -0.00019930 -0.00115738
O 9.69199998 10.31699157 18.11315892 0.00248818 0.00054335 -0.00096634
O 15.42488794 8.73695785 25.73686617 -0.00012464 -0.00748920 -0.00162701
O 10.67130336 9.86198499 26.17016441 -0.00258712 -0.00062317 0.00097075
O 14.29416563 9.21965754 17.69447556 0.00353289 0.00124150 0.00040654
O 14.88016740 2.96843387 31.36827249 0.00708365 -0.00769291 -0.00332654
O 10.07933488 3.33318810 23.10589324 -0.00519688 -0.00343679 0.00249739
O 14.96550706 1.41637470 0.48736819 -0.00195369 -0.00207388 0.00023006
O 10.61719135 4.79183214 25.22148482 -0.00531219 -0.00265804 -0.00438657
O 10.17893957 11.75433424 24.19010523 -0.00059030 -0.00334397 -0.00360591
O 14.45608368 8.00525229 15.28994703 -0.00816606 -0.01123719 0.00015602
O 10.43888099 11.30392520 15.78507380 0.00185179 0.00319177 0.00269764
O 14.76139273 7.43935022 23.67543223 0.00160472 0.00013486 -0.00320156
O 15.02934689 1.21752633 25.32479153 0.00234511 0.00016071 -0.00240643
O 10.62872736 5.11020190 0.88183754 0.00115627 0.00285066 -0.00298181
O 14.43058093 15.77956699 7.16048835 -0.00271817 0.00233781 0.00979532
O 11.16021095 16.30209154 15.27675959 0.00266262 0.00083009 0.00441589
O 10.58190034 22.78110144 0.97208159 0.00046303 -0.00337859 0.00002912
O 15.54247255 22.00317646 9.90449317 0.00148044 0.00000270 -0.00492628
O 11.19249108 22.90808959 9.11854829 -0.00178680 0.00494347 0.00112183
O 14.55832054 22.28986445 1.53735942 0.00313917 -0.00425068 -0.00024421
O 15.57313388 15.37343303 15.49619585 0.00178860 0.00300895 -0.00121032
O 9.91008356 16.61171729 7.12825553 0.00300504 -0.00291279 -0.00081805
O 15.34290989 13.97650190 17.76466479 -0.00217080 0.00129869 -0.00377527
O 10.70960952 18.07585340 9.06440493 0.00216982 0.00252964 -0.00094299
O 10.46055021 24.47107398 7.17849489 -0.00625686 -0.00165989 0.00055329
O 14.55520516 20.86214388 32.21259886 0.00129585 -0.00003110 0.00453379
O 10.80643724 24.56148672 31.94092674 0.00151605 -0.00197406 -0.00120671
O 15.08310884 20.61014096 7.65159389 0.00406353 0.00762241 0.00397093
O 14.62589193 14.15353348 9.16714781 0.00135413 -0.00496221 0.00557391
O 10.34160048 17.79009068 17.39274533 0.00341491 0.00062650 -0.00678738
O 13.82453613 15.57826842 23.93363170 -0.00095603 0.00065618 -0.00341661
O 11.27079496 16.23483638 31.84198067 0.01110825 -0.00029723 0.00015377
O 9.67815352 23.16502857 17.58986694 0.00016328 0.00355229 -0.00161171
O 15.28744685 22.23831626 25.97943444 -0.00335433 -0.00058563 0.00271093
O 11.32419366 22.83457966 25.80947620 -0.00271707 -0.00412668 -0.00078990
O 14.05133403 22.16706288 18.03186832 -0.00054176 -0.00508533 0.00374175
O 15.63059656 15.52405598 31.72124904 -0.00587670 -0.00237524 -0.00044455
O 10.33744569 16.41045742 23.79172859 -0.00555140 0.00330177 0.00087327
O 14.98122795 14.28795120 0.97165656 -0.00132337 -0.00147765 0.00024443
O 10.86145934 17.97566008 25.91259575 0.00461425 -0.00442901 -0.00145487
O 10.23708488 24.20582208 23.75554264 0.00009639 -0.00109885 -0.00354602
O 14.44128529 20.53990807 15.99964018 0.00240547 0.00231979 0.00160307
O 10.66323447 24.67425469 15.51075330 0.00225683 0.00801708 -0.00464742
O 15.46559621 20.48433714 24.01800267 0.00200606 -0.00381764 -0.00568139
O 14.44554499 13.77310966 25.66059393 0.00430633 -0.00431183 0.00143500
O 11.18178350 17.76784039 1.05091192 -0.00483587 0.00395457 0.00196483
O 22.81312417 2.88981479 6.71736082 -0.00043518 0.00072563 0.00703499
O 19.37566847 4.03226737 14.88847324 0.00307041 0.00351768 0.00258134
O 18.84618932 9.88589810 1.53502236 -0.00719825 0.00166657 0.00001959
O 24.14604372 8.86691984 9.43987060 0.00199320 0.00042317 0.00044563
O 19.66067956 10.08016652 9.67768830 -0.00258413 -0.00008454 0.00788838
O 22.80708984 9.00486562 1.10614199 -0.00296018 -0.00253790 -0.00149774
O 24.02724363 2.93685469 14.71209831 -0.00795577 0.00469882 -0.00690067
O 18.76506978 3.71516272 6.60129572 -0.00589930 -0.00232126 -0.00131741
O 23.55200160 1.30522734 16.79359696 -0.00110852 -0.00907752 0.00630824
O 19.44220458 5.40345394 8.54126152 -0.00333885 0.00400028 -0.00158819
O 19.78339198 11.59999026 7.67032843 0.00250751 0.00248863 -0.00388391
O 23.69731316 7.35325883 32.02107022 -0.00058893 -0.00391525 0.00379522
O 19.20346155 11.36850666 32.27841317 0.00099924 0.00684406 0.00542792
O 23.40947145 7.60913080 7.22354154 0.00074363 -0.00021061 0.00351925
O 23.62063525 1.26901126 8.59232041 -0.00482482 0.00628216 0.00646964
O 19.09925334 5.25211470 16.98907601 0.00472946 -0.00021431 -0.00001577
O 22.88187664 2.15690864 23.31171281 0.00432827 -0.00384901 -0.00187932
O 19.91664864 3.83666695 31.53515407 -0.00692744 0.00488326 -0.00314396
O 18.23108642 10.13086712 17.57423143 0.00127354 -0.01103979 0.00071021
O 23.85868269 8.85734691 25.91275349 -0.00155624 0.00316798 -0.00921958
O 19.75838153 9.69285569 26.15026543 0.00131638 -0.00030942 0.00072600
O 23.35148870 9.25867113 17.66562500 -0.00189039 -0.00339106 0.00490042
O 24.11955847 2.63716815 31.23208079 -0.00627185 0.00128564 -0.00259627
O 18.66934118 3.45560446 23.24243463 0.00235703 0.00169259 -0.00318661
O 23.61443068 1.43426931 0.60674994 0.00886332 0.00622049 0.00046189
O 18.81236696 4.94696618 25.25197403 0.00000696 0.00388719 0.00309650
O 19.73909313 10.86265111 23.80364730 -0.00115787 -0.00704370 -0.00322022
O 23.28418874 7.61038440 15.65293944 -0.00214368 -0.00179267 -0.00244237
O 19.30199963 11.41181726 15.65785436 0.00050862 0.00232700 0.00552732
O 23.21515867 7.27223599 23.81552497 0.00787954 -0.00158310 0.00110002
O 23.78912098 1.00358045 25.27898430 0.00058282 0.00149480 0.00167000
O 19.19401686 5.34079110 0.55436263 0.00323431 -0.00064015 0.00663648
O 22.64105513 15.57255422 7.14963362 -0.00648202 0.00106660 0.00645679
O 20.04719943 16.91955540 15.47079801 0.00225848 -0.00047684 0.00343907
O 18.60418030 23.76199821 1.11004318 -0.00584892 -0.00262586 -0.00300657
O 23.96295751 22.05515477 9.82656930 -0.00663877 -0.00014276 0.00267472
O 20.01331060 23.35571297 9.35560332 -0.00314597 -0.00332443 0.00454069
O 23.08197529 21.71317603 0.91802784 -0.00249812 -0.00027119 0.00105207
O 23.63124561 15.56615643 15.56158503 -0.00645193 -0.00392718 -0.00231815
O 18.62806469 16.82670755 7.26049676 0.00154282 -0.00712260 -0.00813112
O 23.04172916 14.04247460 17.66780427 0.00098120 0.00405380 0.00295376
O 18.61530488 18.14454114 9.42452337 -0.00491711 0.00318190 0.00196591
O 18.98007424 24.30660789 7.10025475 -0.00227596 -0.00150196 0.00238301
O 23.64449711 20.00505138 32.16131945 0.00663916 0.00011039 0.00227925
O 19.56804828 24.82120008 31.81668664 0.00168654 -0.00481686 -0.00141077
O 23.88287253 20.71689184 7.38754116 -0.00115099 0.00321289 0.00284728
O 23.26479752 14.07295364 9.33544021 -0.00544116 0.00217458 0.00307558
O 19.04898131 17.84360024 17.50468507 -0.00339762 -0.00396692 -0.00035539
O 23.25297338 15.55963471 23.96590060 0.00301107 -0.00361709 0.00667594
O 19.78040302 16.71444230 31.96859161 -0.00068513 -0.00090356 -0.00166850
O 18.80502288 23.00266162 17.49307940 -0.01004497 0.00457006 -0.00137555
O 23.75581596 22.24737278 26.05380693 -0.00076841 -0.00226263 0.00683000
O 19.71564874 22.76719233 25.85014339 0.00207278 -0.00577701 -0.00111792
O 23.08041204 22.25433410 17.88263818 0.01037107 -0.00067357 0.00236453
O 24.33768757 15.19265625 31.76979926 -0.00828179 -0.00170743 0.00457952
O 19.00626454 16.24761330 23.60817233 0.00364201 0.00048846 0.00219093
O 23.58593732 13.84686985 1.00248567 -0.00686385 -0.00617358 0.00382120
O 19.46048286 17.80083604 25.67822958 0.00099859 -0.00187204 -0.00024084
O 19.44386587 24.17798016 23.69889118 -0.00191668 0.00105437 0.00647285
O 23.05640863 20.66060588 15.94663427 0.00139992 -0.00442188 -0.00202382
O 19.26288629 24.61262301 15.48702898 -0.00042893 0.00704864 -0.00300363
O 23.95877317 20.67521589 23.92076714 0.00445305 -0.00885710 -0.00526780
O 23.04950884 13.86353946 25.79037885 -0.00369324 0.00265813 0.00121339
O 18.73023608 18.11819572 1.01468373 0.00653287 0.00698968 -0.00299410
N 7.56284958 12.84612602 2.59920461 0.00153083 -0.00517095 0.00045432
N 1.29664174 6.64735773 10.47640323 -0.00022469 0.00760774 -0.00555033
N 3.38113622 25.16495820 5.37953824 -0.00732309 -0.00177047 0.00133701
N 5.59194742 6.11893546 13.99317661 -0.00002364 -0.00706374 -0.00260013
N 1.06338665 25.58554330 13.59140172 -0.00556618 0.00548600 -0.00616585
N 7.58742359 6.27689576 5.82160077 0.00113386 -0.00065824 0.00061250
N 5.32716492 12.65769015 10.60004540 -0.00409738 -0.00178051 -0.00212291
N 3.07988988 6.63326347 2.15126905 0.00641569 0.00080270 0.00511578
N 7.37834936 12.98890895 19.02485108 0.00219746 -0.00653042 0.00187633
N 0.98125278 6.12338323 27.01806336 -0.00157005 0.00788712 0.00104513
N 3.31050712 25.55788916 21.82098550 0.00840632 -0.00455490 0.00596380
N 5.30356885 6.41106252 30.37054111 0.00787500 -0.00526508 0.00590105
N 1.28152041 25.29515534 29.99907559 -0.00198801 -0.00244140 0.00104905
N 7.47135883 6.69447639 22.22849442 0.00678721 -0.00070482 -0.00105609
N 5.26439347 12.72760995 27.50271179 0.00303922 0.00589030 0.00092656
N 3.01290000 6.87521522 18.78576574 -0.00041107 -0.00150393 -0.01175657
N 7.47853973 0.11278269 2.02522014 -0.00211970 0.00158847 -0.00177829
N 1.04224670 18.84630534 10.48463244 0.00459343 0.00315744 0.00177219
N 3.02897671 12.37867270 6.27881164 0.00403280 -0.00607124 0.00152582
N 5.41808948 19.03289078 14.01024634 -0.00232515 0.00653009 0.00059796
N 0.83697213 12.51900354 14.32902732 -0.00619542 -0.00004159 0.00104223
N 7.59294169 19.44254914 6.12671631 -0.00261162 0.00196483 -0.00067904
N 5.29460248 0.22724768 10.39459825 -0.00034546 -0.00126445 -0.00270088
N 3.26552834 19.33478750 2.56421556 -0.00330367 -0.00809940 0.00088710
N 7.18930418 0.10829590 18.81771675 -0.00030763 0.00646599 -0.00577219
N 1.19066444 19.04502823 27.26235721 0.00078690 -0.00668674 0.00411708
N 3.07309584 12.95098785 22.89121741 0.00631065 -0.00358401 -0.00413847
N 5.43858299 19.31978596 30.78500418 -0.00084244 -0.00496313 0.00351009
N 1.03897172 12.59628670 30.95251152 0.00523939 -0.00572686 -0.00444780
N 7.74068435 19.58482643 22.58645577 0.00496845 0.00116152 -0.00036124
N 5.56844795 0.10927621 26.45604116 0.00093928 0.00104112 -0.00567135
N 3.44268368 19.20437913 18.95524031 0.00992329 0.00112150 0.00270101
N 15.84461049 13.01160512 2.59985316 0.00194516 -0.00187192 0.00142062
N 9.68049619 6.26961638 10.62562567 -0.00130913 0.00360405 0.00326538
N 11.70675307 25.57113675 5.63650437 0.00419015 0.00664971 0.00190451
N 14.08728180 6.49290274 13.60880007 -0.00336965 0.00043608 -0.00220889
N 9.32045729 25.31317053 13.81773031 0.00382767 0.00294327 -0.00024831
N 16.35484989 6.76531436 5.72924539 -0.00427484 0.00494503 -0.00030960
N 13.99189948 12.83917751 10.87395556 0.00441624 0.00416013 -0.00106421
N 11.84936507 6.25825725 2.40263536 -0.00097731 -0.00536856 0.00432723
N 16.29329859 13.07249802 19.64667537 -0.00278477 -0.00553975 0.00269926
N 9.66031123 6.15243525 26.80564780 -0.00040016 -0.00051957 -0.01065921
N 11.49868909 25.51958081 22.27580956 -0.00380870 0.00279358 -0.00032407
N 13.67566987 6.57770163 30.56145048 0.00438831 0.00359290 0.00955812
N 9.37351477 25.35383694 30.34029639 0.00241300 0.00644196 -0.00572162
N 16.12434083 6.46940944 22.18637699 -0.00786185 -0.00179133 -0.00273385
N 13.49760079 12.76817489 27.50033069 0.00041369 0.00190329 -0.00192513
N 11.66271430 6.24408917 18.69229795 -0.00098597 0.00027608 0.00067274
N 16.06172228 0.14809599 2.09030687 0.00119843 0.00201608 -0.00009964
N 9.32282473 18.95392912 10.72438570 -0.00358812 -0.00447895 0.00577927
N 11.85287908 12.77050466 5.83871977 -0.00414281 -0.00036980 0.00057314
N 13.67415381 19.24300093 14.27448126 0.00004087 -0.00530615 0.00552493
N 9.74971278 12.73475786 14.20036289 -0.00261261 -0.00241547 -0.00775784
N 15.78837515 19.34237468 5.92863149 0.00030717 -0.00040032 -0.00514203
N 13.94820208 0.30506568 10.28384251 0.00164497 -0.00323038 -0.00579094
N 11.71489551 19.37179635 2.64549791 0.00249040 0.00332484 -0.00181782
N 15.91564745 0.17165090 18.61294703 -0.00266053 -0.00361262 -0.00222968
N 9.59351457 19.17519090 27.42433569 -0.00162343 -0.00101883 0.00327625
N 11.96311537 12.29223570 22.76833450 -0.00101503 0.00879343 -0.00595461
N 13.66761300 19.63780927 30.52026716 0.00087407 0.00116215 0.00046262
N 9.60838658 12.99891353 30.69429754 0.00075430 -0.00232183 -0.00226060
N 16.02982997 19.15688088 22.19002413 -0.00305583 -0.00260648 -0.00073456
N 13.73877697 0.13533974 26.74319651 -0.01147202 -0.00623495 0.00816680
N 11.58156234 18.89693503 19.04430820 -0.00001104 0.00032298 -0.00290143
N 24.73407940 12.86268833 2.76392106 -0.00454231 0.00155610 0.00607363
N 18.17529510 6.44878016 10.10394462 0.00146037 -0.00612378 0.00224818
N 20.48227717 25.56235737 5.80250295 0.00096998 0.00257466 0.00258809
N 22.72517250 6.12810521 13.93606991 0.00440900 -0.00014372 0.00579756
N 18.34258016 0.16287386 13.77899337 0.00461060 -0.00315491 0.00706500
N 24.77347285 6.61076744 5.61397433 0.00375830 -0.00038801 0.00455815
N 22.58987374 12.72787196 11.07738071 -0.00098804 -0.00136793 0.00485749
N 20.54052654 6.39039621 2.09253716 -0.00079946 -0.00076841 -0.00174085
N 24.43266001 13.01345693 19.06448200 0.00527876 -0.00043719 -0.00263043
N 18.18942971 6.28820006 26.89750527 0.00049073 -0.00009357 -0.00080838
N 20.41049355 25.53060520 22.20929074 -0.00209061 0.00398654 -0.00196836
N 22.18154467 6.38199616 30.60637344 0.00327426 -0.00135460 0.00037522
N 18.02578977 0.06558725 30.36104678 -0.00224001 0.00122322 -0.00970321
N 24.53584654 6.20656667 22.23165267 0.00014146 -0.00339267 -0.00089627
N 22.04600175 12.71170030 27.44846456 -0.00607419 0.00104960 0.00497188
N 20.46440757 6.09266648 18.69371023 0.00650281 0.00265924 -0.00462908
N 24.69671096 0.33633788 2.28818561 -0.00331083 -0.00151357 0.00282813
N 18.14239660 19.56164949 11.16880518 0.00083904 0.00503270 -0.00430590
N 20.51940320 12.81899013 5.88801271 0.00034239 -0.00308213 -0.00225152
N 22.09832667 19.42904050 14.30060221 -0.00211844 -0.00467863 -0.00328622
N 18.15326315 12.69245393 14.19806292 0.00039279 0.00457957 -0.00416615
N 24.64323715 19.38595512 5.70885216 0.00204197 -0.00850686 -0.00946949
N 22.59374850 25.53706851 10.26522040 -0.00072170 0.00748618 -0.00128279
N 20.07527570 19.19313116 2.54255632 0.00458220 -0.00609862 0.00115639
N 24.98650263 0.39293470 18.34095181 -0.00083899 -0.00351889 0.00091552
N 18.00032313 18.85640279 27.09577122 0.00049563 0.00325683 0.00577463
N 20.40661034 12.33917980 22.14966886 0.00755884 -0.00283899 0.00577874
N 22.48999742 19.07032587 30.39291067 0.00652995 0.00640454 -0.00487987
N 17.99319103 12.44567824 30.68684979 -0.00942337 0.00513560 -0.00678037
N 24.60665901 19.24138113 22.26138695 -0.00626253 0.00436743 0.00104635
N 22.50166231 25.38922289 26.71150947 -0.00018579 0.00212657 -0.00231904
N 20.36466755 19.05629810 19.05046807 0.00689498 -0.00225499 0.00074575
C 7.51315470 0.41144555 4.44615160 0.00196786 -0.00012568 -0.00271835
C 1.14672752 6.26868189 12.83556507 -0.00127333 -0.00562538 -0.00090935
C 3.16107266 12.26731786 3.90798144 -0.00586100 -0.00503611 -0.00171223
C 5.43114481 6.54616408 11.65130900 0.00481231 -0.00040713 -0.00042300
C 0.98272538 12.15485725 12.01928620 -0.00295590 -0.00570044 -0.00543352
C 7.63487393 6.30203999 3.42351827 0.00208009 -0.00537754 -0.00325855
C 5.17582638 0.60195207 12.75623730 0.00704750 0.00625550 0.00238805
C 3.51623642 6.15652365 4.51444506 0.00001121 0.00042193 -0.00499931
C 7.13916213 1.17604981 5.48246897 0.00392343 -0.00539993 -0.00205149
C 1.45586411 5.66010258 14.02758282 -0.00037050 0.00148576 0.00397873
C 3.03395793 11.56670019 2.73007931 -0.00784746 -0.01210182 -0.00180785
C 5.72761608 7.37093040 10.57418746 0.00063002 -0.00456200 0.00305699
C 1.33627737 11.42743918 10.89451712 0.00528102 -0.00222235 -0.00153157
C 7.24312125 6.93443210 2.23930968 -0.00567233 -0.00389191 -0.00206540
C 5.44499591 1.33337700 13.84208672 -0.00245950 -0.00371203 -0.00287083
C 3.12847976 5.54547369 5.69414820 -0.00342390 0.00094331 -0.00274798
C 6.40448939 2.44691941 5.27259296 0.00122057 -0.00056188 0.00097254
C 2.13482465 4.42082471 13.94645007 0.00130771 -0.00662857 0.00441209
C 2.27023737 10.30769131 2.77001085 -0.00298562 0.00286295 -0.00152535
C 6.61139749 8.45384144 10.65420771 -0.00086237 0.00587345 0.00093551
C 2.30334473 10.46445748 10.93645631 -0.00425751 0.00026758 0.00502986
C 6.70361832 8.21537282 2.29471028 0.00630103 0.00179957 0.00293558
C 6.28724164 2.50035400 13.83916411 -0.00490614 -0.00284648 0.00601832
C 2.34717819 4.38883441 5.66468274 -0.00040021 -0.00143110 0.00056864
C 6.02562781 2.85656577 4.01793797 0.00198072 0.00002562 -0.00934809
C 2.39202136 3.79638113 12.66607721 0.00359464 0.00553174 -0.00515115
C 1.94903633 9.67686504 3.97641848 -0.00577482 0.00463166 0.00236261
C 6.96341491 8.85741679 11.94797080 0.00061722 0.00277611 0.00142881
C 2.54386143 9.95194092 12.25323068 -0.00442004 0.01290183 0.00159893
C 6.40731352 8.80460485 3.51962665 -0.00145764 0.00823840 -0.00196366
C 6.67635591 2.95652187 12.61006556 -0.00195374 -0.00389567 0.00138553
C 2.17400509 3.78085341 4.40462889 -0.00315732 0.00704288 0.01162146
C 6.43116340 2.08676294 2.94595047 -0.00272710 -0.00233848 -0.00034000
C 2.09923301 4.49019794 11.50327210 -0.00627846 -0.00720643 0.00225905
C 2.18620677 10.34882390 5.14379423 0.00039452 -0.00680213 0.00305831
C 6.51133160 8.24776982 13.09775439 -0.00183153 0.00168396 0.00196600
C 2.00681798 10.52277830 13.39382633 -0.00146823 -0.00143314 -0.00357984
C 6.68114130 8.25567828 4.73033042 0.00432724 0.00440765 -0.00254519
C 6.36164453 2.30461019 11.44436120 -0.00305704 0.00406236 0.00008634
C 2.46497304 4.50454966 3.21390069 0.00031273 0.00004810 0.00286003
C 7.14621386 0.89194320 3.12188245 -0.00127167 0.00379467 0.00138325
C 1.49470622 5.74493904 11.57216024 0.00272779 0.00031379 -0.00137236
C 2.79466390 11.70490827 5.12202205 -0.00284120 0.00467898 -0.00515394
C 5.86998371 6.94619016 12.89665352 0.00170443 0.00254901 -0.00306175
C 1.33288315 11.76832671 13.29842403 -0.00299294 0.00247746 -0.00070647
C 7.34320181 6.99008736 4.68087534 -0.00046307 -0.01112719 -0.00873253
C 5.64970902 1.04658410 11.51518628 0.00136004 0.00221221 -0.00466415
C 3.00508308 5.77757271 3.27401426 -0.00342731 -0.00584013 0.00552578
C 6.77609866 0.12595903 0.88297759 0.00473183 0.00035339 0.00040146
C 1.44741963 6.25801242 9.21405532 0.00198552 0.00787990 0.00580283
C 2.47060428 12.16656421 7.48056017 -0.00076140 -0.00304473 -0.00717321
C 5.94754421 6.42984276 15.23069959 0.00054712 -0.00451694 0.00078117
C 1.50320255 12.54352113 15.53090288 0.00684989 -0.00389479 0.00580246
C 7.22720403 6.67845825 7.08438399 -0.00216132 0.00102226 0.00794963
C 5.64610175 0.49964485 9.09702794 0.00175899 0.00069984 -0.00073651
C 2.80779730 6.26872281 0.86886945 -0.00471676 -0.00772777 0.00224100
C 6.93763325 12.01899586 16.75387561 -0.00056833 -0.00247518 0.00445765
C 1.24919356 7.39442079 8.21300183 0.00116343 -0.00045626 -0.00285206
C 2.86096191 0.93023432 7.46141009 -0.00744595 0.00084732 0.00449215
C 5.92471595 5.19024978 32.43421519 -0.00243962 -0.00144079 0.00522493
C 1.53332900 0.89857897 32.09257646 -0.00123216 0.00353236 -0.00110788
C 7.31521674 5.58415609 8.13654853 -0.00774719 0.00143998 -0.00243380
C 5.61438571 11.69361459 8.38383277 0.00473812 0.00455012 0.00287961
C 2.75476908 7.75215586 16.51458018 0.00414103 0.00150457 0.00303924
C 7.40173291 0.77464267 21.07081505 0.00232693 -0.00547927 -0.00277984
C 0.79803230 5.59925385 29.34231128 -0.00128769 -0.00173037 -0.00543337
C 3.20183750 12.53356863 20.51270248 0.00702765 0.00632730 -0.00202905
C 4.97404681 6.69248382 28.09775429 -0.00115899 0.00121513 0.00098997
C 0.97707296 12.23644279 28.61942626 -0.00457499 -0.00298218 -0.00548974
C 7.41514772 6.90880500 19.76325006 0.00060219 0.00189412 -0.00069053
C 5.32270713 0.14420618 28.82316057 0.00306995 -0.00886966 -0.00396251
C 3.26548094 6.30090640 21.03111120 -0.00173240 -0.00571500 0.00608069
C 7.13773196 1.65216348 22.11573432 0.00444632 0.00348841 -0.00230352
C 1.37396716 5.14649613 30.50137634 0.00093815 0.00387434 0.00094729
C 2.96193532 11.72390917 19.40232194 -0.00010295 0.00524760 -0.00108224
C 5.34972176 7.23484797 26.86058852 0.00765922 0.01228211 0.00492259
C 1.21283334 11.46381825 27.48474160 -0.00619645 0.00421899 0.00152722
C 7.19285411 7.52088776 18.56272071 0.00132829 0.00410002 0.00179724
C 5.59322199 0.63992011 30.06158852 0.00667625 0.00632933 -0.00033232
C 3.03953138 5.48297971 22.12221576 -0.00481358 -0.00745877 0.00236582
C 6.18334369 2.66229591 21.95815836 0.01089828 -0.00427917 0.00653959
C 2.20767915 4.06003076 30.41403717 0.00130293 -0.00354721 -0.00571972
C 1.95904323 10.68290177 19.48603183 0.00376740 0.00354952 -0.00083813
C 6.11390258 8.41585310 26.77019537 0.00048024 -0.00816286 0.00809618
C 1.94797314 10.23976268 27.64493227 -0.00691210 0.00158925 -0.00191378
C 6.29715833 8.65861985 18.53822257 -0.00075263 0.00136879 -0.00168781
C 6.34294791 1.86710479 30.19455404 0.00741807 0.00213805 -0.00186605
C 2.25749021 4.29662808 22.04643713 -0.00546845 -0.00438278 -0.00389166
C 5.97638116 3.08755213 20.62593578 -0.00318335 -0.00048691 -0.00317359
C 2.41461483 3.40395396 29.14805046 0.00097924 0.00012943 -0.00248808
C 1.65346125 10.31313647 20.77186718 -0.00815449 0.00838300 0.00308896
C 6.43992276 9.05681684 28.00363976 0.00477812 -0.00436462 0.00116412
C 2.10550533 9.62569139 28.94569219 -0.00087287 0.00778867 -0.00374080
C 6.03800368 9.21263392 19.85231058 -0.00959343 -0.00206693 0.00106059
C 6.62087743 2.59332050 29.04296380 -0.00386050 0.00784399 0.00318248
C 1.91461326 3.87966756 20.74807081 0.00551084 -0.00710077 0.00675756
C 6.34922841 2.30772858 19.55117884 -0.00215374 -0.00803465 0.00269758
C 2.14510756 4.05024507 28.03070780 0.00436810 0.00183345 -0.00514159
C 2.07614968 10.96702371 21.90655600 -0.00777071 -0.00407428 -0.00548824
C 6.13080767 8.45643031 29.18473110 -0.00195305 0.00586131 0.00307854
C 1.81785644 10.43711209 30.02110659 0.01068834 0.00007224 0.00420839
C 6.30167033 8.56304674 21.01806255 -0.00782907 0.00935582 0.00010125
C 6.38932195 2.09686373 27.74972993 0.00172076 0.00496244 -0.00451380
C 2.20265260 4.66546454 19.60288478 0.00533060 0.00319662 0.00721909
C 7.00041669 1.02179231 19.80218142 0.00203878 -0.00523376 -0.00153961
C 1.35233580 5.28558769 28.10045045 0.00490354 0.00014104 0.00547326
C 2.76415445 12.18226390 21.77909871 0.00189716 -0.00442480 -0.00767383
C 5.45114748 7.19244384 29.29463128 0.00126571 0.00645691 -0.00331138
C 1.34908912 11.78760854 29.89707971 -0.00757504 -0.00507917 -0.00175965
C 7.05943992 7.37548832 21.02550781 -0.00413367 0.00096777 0.00385056
C 5.75470041 0.77617875 27.64763865 -0.00380254 -0.00153041 0.01122919
C 2.86849723 5.89315101 19.77644149 -0.00321173 -0.01166494 -0.00722260
C 6.85888827 0.25134800 17.50105736 0.00012420 -0.00164693 -0.00049288
C 1.48887192 6.00872911 25.76132758 0.00508477 -0.00123402 -0.00369961
C 2.63208723 12.57888011 24.14977743 -0.00075934 -0.00039773 0.00205815
C 5.97043034 6.46285809 31.53532665 -0.00105413 0.00630080 0.00161598
C 1.58452845 12.36082214 32.20817705 0.00338880 0.00924255 -0.00057357
C 6.88367750 6.79152357 23.41591775 0.00585620 0.00130425 0.00750436
C 6.05153764 0.50161069 25.28117688 0.00352168 -0.00037222 0.00470666
C 2.66106047 6.64553240 17.51182135 0.00658496 0.00146022 0.00010096
C 7.41596521 11.97697189 0.33949609 0.00756131 -0.00067365 -0.00462053
C 1.34050851 7.19780844 24.96501118 0.00134421 -0.00192580 -0.00663065
C 3.00863981 0.96457501 24.04080359 -0.00463760 0.00141448 -0.00337154
C 5.35084446 5.59629110 16.29860417 0.00489250 -0.00147389 -0.00062365
C 1.51846392 0.85035023 15.76474047 -0.00362050 -0.00051484 0.00082317
C 7.17533048 5.75868475 24.41523055 0.00240956 0.00278849 -0.00194286
C 5.38779851 11.70776480 25.26488517 -0.00021504 0.00085711 -0.00034227