1920
Time=95999.99999999 pbc="T T T" Lattice="25.65985776 0.00000000 0.00000000 0.00000000 25.55928169 0.00000000 0.00000000 0.00000000 33.00320715" energy=-12243.18487632 virial="-34.91066542 -3.15931241 -4.00908770 -3.15931241 -48.04243466 -31.36939651 -4.00908770 -31.36939651 42.36963757" stress="0.00066703 -0.00017331 -0.00017843 -0.00017331 0.00010196 -0.00151905 -0.00017843 -0.00151905 0.00412545" Properties=species:S:1:pos:R:3:vel:R:3
O 5.52751905 2.85317461 6.50963740 0.00143387 0.00598970 -0.00038192
O 2.71312467 3.42267375 14.80820162 -0.00387932 -0.00151335 -0.00919773
O 1.58244222 10.23564723 1.23825676 -0.00331328 0.00047394 0.00401370
O 7.03471714 9.37764192 9.47988145 0.00129895 -0.00388821 0.00712118
O 2.99642871 10.27529401 9.39208920 -0.00671602 -0.00619940 0.00404977
O 5.64220194 9.06456959 1.24452342 -0.00029095 0.00211601 -0.00281719
O 6.55954938 2.54136631 14.83837259 -0.00237808 0.00203819 -0.00017533
O 1.62846895 3.75822743 6.92410532 -0.00002341 -0.00088896 0.00611687
O 6.46152737 1.03209143 16.93941655 0.00184093 0.00771114 -0.00789509
O 2.31690810 5.22195198 9.03466366 -0.00013336 -0.00439845 -0.00462363
O 2.11536247 11.71643186 7.54669696 0.00184077 -0.00194823 0.01003969
O 6.14638998 7.78242151 32.16607954 0.00466861 0.00427211 0.00122624
O 2.18436116 11.73465675 32.17742095 -0.00718898 0.00155691 0.00148411
O 6.51863265 7.78783751 7.37353501 -0.00198748 0.00287209 0.00312926
O 6.03335775 1.23455268 8.51634967 -0.00112777 -0.00285288 0.00163443
O 2.35502466 4.85110457 17.19839280 0.00660175 0.00258558 0.00453270
O 5.84098774 2.59933027 23.03581500 -0.00215742 0.00289170 -0.00357266
O 2.42797598 3.58838355 31.87252283 0.00007592 0.00128051 0.00003004
O 1.31439865 10.01103798 17.99268800 -0.00043612 -0.00609211 -0.00045609
O 7.00292647 9.23305419 26.01224465 -0.00564714 -0.00040978 0.00234176
O 2.47749155 9.87540408 26.21532172 0.00256334 -0.00282627 -0.00290399
O 6.16075421 9.04094187 17.72900136 0.00059034 0.00196702 0.00017090
O 7.21002783 2.87438047 31.49400363 0.00427561 0.00166478 -0.00576011
O 1.26611942 3.74121439 23.47120078 -0.00042393 -0.00051704 -0.00453087
O 6.59568353 1.31795385 0.39948709 -0.00036769 -0.00460275 -0.00090843
O 2.05554330 5.18353358 25.59409970 0.00033192 0.00096592 -0.00028688
O 2.65701152 11.28517475 24.12826891 -0.00572172 0.00621367 -0.00029118
O 6.45129871 7.44015550 15.66508938 -0.00101549 -0.00735990 -0.00672439
O 2.20494136 11.29134941 15.85406596 0.00242413 -0.00291950 0.00060969
O 6.99947106 7.77139179 23.87641239 0.00746750 -0.00059991 0.00105390
O 6.43189812 1.49534365 25.34399010 0.00452746 0.00035347 -0.00070514
O 2.24281593 5.36846121 0.90677532 -0.00400622 0.00157055 0.00104206
O 5.78476683 15.44304839 7.18008081 -0.00552277 0.00140584 0.00236361
O 2.47014472 16.22930408 15.60388269 0.00299314 -0.00118405 -0.00538603
O 1.47599637 23.06094000 1.19615947 -0.00647671 -0.00668055 0.00048025
O 7.38091150 22.15638286 9.49249570 0.00236015 0.00011580 0.00372365
O 2.97170701 22.99282170 9.45178522 0.00031088 -0.00280909 0.00223068
O 6.00160335 22.17098504 1.49809682 -0.00400487 -0.00403482 -0.01128691
O 7.12676149 15.56334875 15.46607754 -0.00819410 0.00505604 0.00318661
O 1.50496316 16.66776274 7.17467306 -0.00272168 -0.00162993 -0.00578968
O 6.38304253 14.09935493 17.33521281 0.00253495 0.00208207 -0.00204190
O 2.08094098 17.66413885 9.47593043 -0.00564262 0.00148725 -0.00357097
O 2.12721627 24.47318858 7.33508448 0.00251936 -0.00261559 -0.00056177
O 5.93182398 20.72779691 32.08343216 0.00145334 0.00578079 -0.00111677
O 2.22185389 24.45505041 32.11817776 -0.00250570 -0.00034347 -0.00793406
O 6.45268656 20.43305312 7.57558237 -0.00355273 0.00161542 -0.00422231
O 6.73692542 14.17750124 9.27292895 0.00891195 -0.00138090 -0.00642911
O 2.00182782 17.92063620 17.59702910 -0.00098097 0.00154912 -0.00438288
O 5.60468259 15.23793719 23.62208525 -0.00094328 0.00217902 0.00055034
O 2.67981975 16.78395375 31.93434379 0.00029459 -0.00429171 -0.00421987
O 1.32517555 23.17148182 17.88999878 0.00080722 -0.00521950 -0.00277603
O 6.95459333 22.16727317 25.82045225 0.00047368 -0.00455196 -0.00028906
O 2.97061718 22.98905508 26.01390620 -0.00324698 0.00097486 0.00233286
O 5.42940895 21.79322266 17.58573544 0.00301458 -0.00417615 -0.00711725
O 6.74270896 15.68646414 31.96563905 -0.00570264 -0.00347280 0.00176707
O 1.41992630 16.58731535 23.56081933 -0.00160078 -0.00055277 -0.00156104
O 6.73238782 14.05478558 0.94335696 -0.00761267 -0.00089205 -0.00043072
O 1.85076910 17.98899283 25.68896061 0.00348529 -0.00404850 0.00228088
O 1.99084598 24.36454965 24.01837035 -0.00042641 0.00128780 -0.00241987
O 6.33024646 20.42389748 15.73664044 0.00678676 -0.00170907 -0.00355420
O 1.94134197 24.40186424 15.68891075 0.00492748 0.00940913 0.00408036
O 6.38632500 20.55140398 23.67665747 0.00151945 0.00342661 0.00105862
O 6.70286538 14.02991283 25.67639494 0.00332429 -0.00246424 0.00005512
O 2.10464320 18.27588672 0.96138147 0.00000875 -0.00347366 -0.00193991
O 14.42639035 2.76049345 6.81717316 0.00437420 0.01013995 -0.00350044
O 11.25930380 3.77580166 15.36836319 0.00317376 0.00000335 -0.00334967
O 9.98203204 10.13324088 1.66291987 0.00846975 -0.00133567 -0.00082650
O 15.19810008 8.96730828 9.93965996 0.00577670 0.00079205 0.00092042
O 11.36264833 10.31283195 9.78623316 0.00117347 -0.00080333 -0.00190065
O 14.52290267 9.67302111 1.76795337 -0.00211046 -0.00084789 -0.00018206
O 15.45367943 2.57215498 15.27254809 0.00359625 0.00338429 -0.00517066
O 10.55837415 3.60618875 6.85667224 -0.00293196 -0.00518193 -0.00377771
O 14.80670279 1.52557183 17.55300114 -0.00300133 -0.00107168 0.00117019
O 10.70382893 4.97781598 9.01436684 0.00680547 -0.00017284 0.00477240
O 10.64905946 11.83013238 7.85495529 -0.00262648 -0.00203044 -0.00171890
O 14.43480747 7.94647693 32.81708656 -0.00080043 -0.00107814 -0.00046580
O 10.32076633 11.55694882 32.57590007 0.00549946 -0.00412978 -0.00346709
O 14.73813003 7.63261706 7.60528147 0.00509539 0.00384691 0.00050823
O 15.20630194 1.35214050 8.93722128 -0.00688480 0.00036313 -0.00567547
O 10.44703291 5.15233383 17.35301214 0.00442973 0.00230240 -0.00234276
O 14.77539556 2.95648644 23.73530940 -0.00758440 0.00041666 0.00137033
O 11.13045477 3.85136353 31.58867865 0.00234556 -0.00138398 -0.00488421
O 9.82133490 10.20678686 17.92062126 0.00553045 -0.00574148 -0.00651936
O 15.47413396 9.19452506 26.57313340 -0.00034293 0.00448249 -0.00620875
O 11.12189993 9.75772730 26.60665556 0.00372471 -0.00624173 -0.00103351
O 14.29985992 9.07281775 18.29832017 0.00182934 -0.00293609 0.00054581
O 15.06400937 2.92250599 31.68607139 0.00596029 -0.00170849 -0.00162918
O 9.75120820 3.71102992 23.32239843 0.00607790 -0.00002632 -0.00586387
O 14.97931591 1.50220901 0.75448195 -0.00176261 0.00396518 -0.00029459
O 10.15137061 5.13921834 25.35756965 0.00211321 0.00230175 0.00259714
O 11.12162117 11.08330023 24.16142994 -0.00064565 -0.00260153 0.00450563
O 14.76310224 7.49493954 16.24158772 -0.00261480 -0.00334654 0.00347383
O 10.63530051 11.64377082 15.94434676 0.00649344 0.00571190 0.00624991
O 15.09287103 7.61184567 24.45738831 -0.00337191 -0.00138233 0.00452644
O 14.98667573 1.06621196 25.67852991 0.00069635 0.00501863 0.00036402
O 10.68781009 5.37933157 0.62302050 0.00147941 -0.00848636 -0.00027207
O 14.53094531 15.17823665 6.95713152 0.00076933 0.00178607 0.00668415
O 11.36898329 15.98530919 14.86042298 0.00651252 -0.00292945 -0.00169084
O 10.28082300 23.06117240 1.22368755 0.00400405 0.00445900 0.00169992
O 15.66651051 21.91442262 9.45434946 0.00264092 0.00165224 0.00117564
O 11.85831460 22.92714008 9.45475729 -0.00229365 -0.00051232 -0.00179101
O 14.15346174 21.61407104 1.18143962 0.00038743 0.00474808 -0.00078689
O 15.72945796 15.28488817 15.17966597 0.00256991 0.00189213 0.00134365
O 10.28149772 16.07617714 6.92745575 -0.00194511 -0.00206707 0.00216623
O 15.35508934 13.86198824 17.26440319 -0.00682597 -0.00396371 -0.00205697
O 10.53197794 17.87337734 8.80718509 0.00203229 0.00668139 -0.00456442
O 11.16461680 24.27113885 7.32994617 -0.00243513 0.00085222 0.00792555
O 14.38455315 20.41740506 31.83454494 0.00636509 -0.00259791 0.00514300
O 10.80243475 24.45707065 32.19837165 -0.00530368 0.00664952 0.00015651
O 15.68079015 20.40311227 7.27942050 0.00354962 -0.00590165 0.00153413
O 15.00158510 13.60593820 9.25876021 0.00200754 0.00080900 0.00378090
O 11.31578652 17.71728031 16.94176566 0.00406948 0.00303473 0.00164529
O 14.14899945 15.30885345 23.34523390 0.00392145 0.00101246 -0.00009921
O 11.19542329 16.43996792 31.40116305 -0.00278498 -0.00153667 0.00204998
O 10.04737424 22.76165583 17.46033136 0.00383523 -0.00445286 0.00261900
O 15.55468870 21.89903642 25.67541012 -0.00266948 0.00162259 -0.00244818
O 11.04893673 22.96798290 25.98855512 0.00202697 0.00812317 -0.00305832
O 14.39773215 21.76278662 17.53737353 -0.00405999 -0.00143944 0.00678891
O 15.53517322 15.40108259 31.58688583 0.00152318 -0.00058389 -0.00399395
O 10.23681979 16.11523537 23.10980662 0.00436234 0.00163082 0.00088338
O 14.69490177 14.25854518 0.68234567 -0.00060997 0.00304738 0.00499576
O 10.12886624 17.75895353 25.00446799 0.00358858 0.00557237 0.00660406
O 10.74498820 24.14426372 23.66620564 0.00576340 0.00059860 0.00123009
O 15.00399755 20.05436422 15.59926239 -0.00124897 0.00104887 -0.00435532
O 10.38986166 24.18560947 15.36966523 -0.00016708 0.00320752 -0.00641562
O 14.68282113 20.26588136 23.61038996 0.00645490 -0.00677459 -0.00352177
O 14.36998134 14.00888920 25.48369110 0.00046876 -0.00865875 -0.00215618
O 10.71105115 17.66791998 0.84118000 0.00343855 0.00326407 0.00318181
O 22.87363148 2.94508639 6.77297419 0.00225000 -0.00891750 0.00292651
O 19.79346857 3.88258737 15.41386767 0.00385679 -0.00464127 0.00451492
O 18.47866703 10.52217744 1.04462540 -0.00135121 0.00234428 -0.00617631
O 24.47123759 8.83297748 9.89485338 0.00497073 -0.00852842 0.00276348
O 19.90870934 9.92974195 9.40680529 0.00265837 0.00347167 0.00323840
O 23.10682495 9.21028564 1.68451477 -0.00160948 0.00080044 -0.00369432
O 24.10466360 2.93753462 14.83395732 0.00536522 -0.00616630 0.00334384
O 18.42704309 3.81600873 7.27184955 0.00335274 0.00205017 0.00463142
O 23.85336609 1.40428043 16.89408869 -0.00565440 0.00345850 -0.00283696
O 19.25131390 5.24443466 9.21326449 -0.00243952 -0.00319136 -0.00024042
O 19.68813858 11.25778772 7.24544063 0.00557021 -0.00211657 0.00348543
O 23.51330892 7.95817888 32.49016411 -0.00598042 0.00869007 -0.00548930
O 19.21277973 11.65590244 31.93250487 -0.00206638 0.00209402 -0.00278180
O 23.58773337 7.57152616 7.87733724 0.00050265 0.00668751 -0.00152842
O 22.90580504 1.03929225 8.84200010 0.00380144 0.00555270 0.00010864
O 19.20629204 4.77093838 17.65716510 -0.00266080 -0.00901359 -0.00339366
O 22.77771219 2.51224054 23.15169107 0.00532718 -0.00013535 0.00193436
O 19.81009843 3.65241995 32.00105948 -0.00635957 -0.00472984 0.00250199
O 19.06727427 10.06160882 17.69133933 -0.00176632 0.00006576 -0.00258176
O 24.22241446 8.77734392 25.89711365 0.00228592 0.00630324 0.00028812
O 20.07392475 9.87281062 25.95763117 0.00493859 -0.00150676 -0.00217894
O 22.68707425 8.99387584 17.84626145 -0.00501294 -0.00458715 0.00020091
O 24.32306452 3.16342417 31.35170506 -0.00230257 -0.00325205 -0.00315578
O 18.42755978 3.86446357 23.87259298 -0.01305133 -0.00097162 -0.00272080
O 23.67654774 1.57067854 0.51704536 0.00021398 0.00172323 -0.00145781
O 19.11554101 5.23192977 25.91847665 -0.00105309 -0.00652953 0.00217307
O 19.56087403 11.37999297 23.86666813 0.00534795 0.00195606 0.00327007
O 23.36926639 7.51932056 15.85233414 -0.00149290 0.00107745 -0.00052685
O 19.82556389 12.01901826 15.32063559 -0.00193227 0.00890939 -0.00051813
O 23.05557850 7.03021295 23.98629302 -0.00466537 0.00407588 -0.00178351
O 23.30946412 1.23050470 25.34322351 -0.00100912 0.00385362 0.00077899
O 19.97310411 5.21919471 1.04951849 0.00345921 -0.00029090 0.00560814
O 22.94181427 15.14877682 6.88859289 0.00605113 -0.00175285 0.00602156
O 20.22962851 16.35695041 15.00567731 0.00350106 0.00256997 0.00172702
O 18.35019483 23.01516383 1.36825782 0.00175954 -0.00003231 0.00729758
O 24.14669304 22.21156052 9.84383958 -0.00309864 -0.00210143 0.00358575
O 19.64194083 22.54764961 9.69113917 0.00147987 -0.00361951 -0.00410514
O 22.99756030 22.04212734 1.53755899 0.00000009 -0.00000807 0.00734966
O 24.32513143 15.28998981 15.32984951 -0.01095178 -0.00598938 0.00400807
O 18.84338979 16.08869824 6.59433853 -0.00060297 -0.00630866 -0.00986647
O 23.34824496 14.16493919 17.35635210 0.00388370 0.00438002 -0.00935953
O 19.00865065 17.67537354 8.79612893 -0.00524639 0.00131666 -0.00519641
O 19.09195914 24.16846853 7.66886638 -0.00643661 0.00045737 -0.00573040
O 23.35979645 20.44415394 32.40226108 -0.00088915 0.00380382 -0.00617518
O 19.15970699 24.27266108 32.08900576 0.00720183 -0.00018392 -0.00440895
O 23.85318436 20.82200191 7.68398241 -0.00216141 -0.00323444 -0.00358563
O 23.68686286 13.91901747 9.19362402 -0.00401588 0.00009985 0.00032032
O 19.58466919 17.82885208 17.18010939 0.00161872 0.00195181 -0.00212812
O 23.15197772 15.63307877 23.56582736 0.00671439 -0.00008219 -0.00168544
O 19.77131867 16.44960333 31.38390812 -0.00325111 -0.00082978 0.00267171
O 18.85288723 22.46076498 17.70778611 -0.00182310 -0.00210133 -0.00512430
O 24.20689483 21.90298602 26.30160456 0.00776875 -0.00357003 -0.00673269
O 19.97664086 23.07138505 26.03455771 -0.00718137 -0.00678070 -0.00012431
O 23.34650318 22.00480808 17.76842656 0.00120831 0.00033216 -0.00305784
O 24.24620023 15.27684867 31.62214573 0.00524138 0.00214279 0.00318256
O 18.28404892 16.75995861 23.18288515 -0.00499511 -0.00266545 -0.00372818
O 23.64764116 14.12171978 0.74515430 -0.00903808 0.00574961 0.00114659
O 19.19244577 18.16231623 25.43620271 0.00500496 0.00509027 0.00385897
O 19.26600892 24.35508638 23.83156616 -0.00171931 0.00635226 0.00665781
O 23.74655580 20.25005286 15.73549236 -0.00342271 -0.00246360 0.00499154
O 19.24479038 24.29332584 15.82927897 -0.00399662 -0.00306065 0.00009900
O 23.84218745 20.79530302 24.02552141 -0.00378384 0.00080189 0.00385316
O 23.59256041 13.63403600 25.46597605 0.00458929 -0.00810924 0.00138935
O 19.40316346 18.21868087 0.48025363 -0.00012103 -0.00562892 0.00255924
N 7.35446625 12.66136232 2.67605107 -0.00754777 -0.00721064 0.00652769
N 0.98199889 6.33240228 10.50149610 -0.00344833 0.00199151 0.00836384
N 3.07615749 0.15847883 5.70928796 -0.00291729 -0.00366370 0.00671046
N 5.38795371 6.42762068 13.91212218 -0.00675224 -0.00181612 0.00589872
N 1.11412177 0.04666785 13.86978523 0.00270159 0.00246168 0.00277986
N 7.62712894 6.50244828 5.82502797 0.00579867 0.00427662 -0.00782173
N 5.86277510 12.79606484 10.85051761 -0.00219094 -0.00878440 0.00743754
N 3.58457088 6.43221760 2.50539951 -0.00323460 0.00124597 -0.00202267
N 7.42578788 13.04310312 19.03769661 -0.00545223 0.00566200 0.00624603
N 1.05717401 6.48018119 27.27234238 0.00358637 0.00211834 0.00065309
N 3.18876631 25.51891232 22.42484808 0.00195875 -0.00212428 0.00483995
N 5.17264028 6.62518276 30.48107535 -0.00557916 0.00093970 -0.00620635
N 0.97459395 25.39262996 30.54231864 -0.00098717 0.00067036 -0.00880381
N 7.73135053 6.28591240 22.31500083 0.00208003 -0.00314279 0.00321923
N 5.39154082 12.93184138 27.20139964 -0.00393175 0.00537367 0.00195041
N 3.51446174 5.84436991 18.96691311 -0.00114238 0.00145089 -0.00436458
N 7.54667357 0.19381916 2.13158096 0.00090605 -0.00009424 0.00173341
N 1.09023412 18.95028082 11.09835465 -0.00367560 -0.00536652 -0.00958995
N 3.49022786 12.52456246 5.89915212 -0.01207025 -0.00051723 0.00148863
N 5.26380517 19.44728972 13.91966893 0.00147056 0.00582206 -0.00017070
N 0.72058374 12.01190925 14.28074155 -0.00930996 -0.00261576 -0.00098057
N 7.59399469 19.25764126 5.99650502 -0.00344848 0.00125774 -0.00042595
N 5.30627391 25.27493832 10.19290133 -0.00249594 -0.00084006 0.00396446
N 3.27315099 19.20995009 2.68670758 -0.00102574 0.00307189 -0.00618891
N 7.62887694 25.34797888 18.57929306 0.00004552 -0.00379554 -0.00189231
N 1.02036404 19.35890514 27.32572729 0.00581092 -0.00100629 -0.00062660
N 2.99779118 12.76734896 22.37648767 0.00618637 -0.00064092 0.00026865
N 5.39350208 19.38310666 30.33529792 0.00272802 -0.00102518 0.00637382
N 0.70731583 12.58570434 30.68343026 0.00359619 0.00339057 0.00210699
N 7.55474390 19.47723601 21.99049161 -0.00466236 0.01042515 0.00279400
N 5.37817211 0.31081674 27.06738729 0.00062362 -0.00283163 -0.00076672
N 3.24412593 19.00770490 19.08890342 -0.00615477 -0.00539815 -0.00126736
N 15.89701053 12.92546082 2.09225788 0.00428705 -0.00210026 0.00246725
N 9.72778017 6.20756241 10.67754914 0.00636696 0.00073020 0.00465824
N 11.83196848 0.19443993 5.74174685 -0.00430540 0.00335557 0.00047124
N 13.87556369 6.17586923 14.65528804 0.00306408 -0.00302569 0.00210017
N 9.56497295 25.55158453 13.74586564 -0.00281186 0.00612798 0.00172579
N 15.94837263 6.48457218 6.06022480 0.00885733 0.00225083 0.00292452
N 13.83134024 12.51967774 10.84148500 -0.00128178 0.00043708 -0.00521686
N 11.76599304 6.59575199 2.29557852 -0.00364430 -0.00203342 0.00029014
N 16.31462755 12.66767208 18.91053726 0.00313039 -0.00780313 0.00557055
N 9.87586997 6.61931549 26.97917827 -0.00112754 0.00021308 0.00031180
N 11.88772521 25.35451236 22.04798518 -0.00251395 0.00189189 0.00081046
N 14.03651942 6.41318411 31.18341543 0.00293076 0.00636453 0.00549665
N 9.40285984 25.46813637 30.72361999 0.00229728 -0.00933560 -0.00140409
N 15.96207733 6.29281262 22.82836768 0.00007926 -0.00041896 -0.00117759
N 13.61372435 12.69911207 27.18802223 -0.00492257 0.00535756 0.00264048
N 11.73942985 6.17816277 18.86959079 0.00030296 0.00020347 0.00695895
N 16.17343616 0.22801199 2.14792822 -0.00364419 0.00073174 0.00181288
N 9.50486896 19.04690074 10.58787588 0.00439140 -0.00145168 -0.00811838
N 11.75362690 12.94025279 6.12191239 -0.00403050 0.00220048 0.00661255
N 14.03794805 18.98263542 13.82060870 -0.00058994 -0.00130895 -0.00462049
N 9.58054214 12.83121301 14.41969129 0.00365010 0.00635761 0.00423910
N 16.61644179 19.28634331 5.59163678 -0.00103905 -0.00236462 -0.00036444
N 14.11692290 0.01868630 10.49984147 0.00631773 -0.00430610 0.00173398
N 11.66527734 19.02785809 2.41560881 -0.00282021 0.00115683 0.00000695
N 15.76157761 0.01790742 19.10113869 0.00534056 0.00888200 -0.00000212
N 9.43249580 18.90229227 26.85866044 0.00136646 -0.00169189 -0.00256201
N 11.90286377 12.59756522 22.49457887 -0.00339760 0.00192534 0.00132599
N 13.80268666 19.12287563 30.03145486 -0.00353081 0.00066794 -0.00522605
N 9.51859527 12.87451899 30.90204290 0.00163366 -0.00698582 0.00545261
N 16.18290365 19.29600027 22.12999331 0.00053039 0.00253543 -0.00154861
N 13.78787519 25.48910995 27.20287947 0.00649503 -0.00068089 0.00239826
N 11.90957852 19.00672605 18.68222543 -0.00277569 -0.00204540 -0.00444142
N 24.48378274 12.64906085 2.31527799 -0.00002271 0.00341288 0.00127639
N 18.05493978 6.36624250 10.75583818 0.00250005 0.00069933 -0.00018400
N 20.39904354 25.35708668 5.99801010 -0.00569743 0.00056198 0.00707286
N 22.36268067 6.24153383 14.27150981 -0.00392325 0.00516021 0.00296402
N 18.36239431 0.07600175 14.18951570 0.00013269 -0.00097477 0.00366968
N 24.49863002 6.44246735 6.11618345 0.00184543 0.00284196 0.00279015
N 22.44946875 12.85862226 10.74230127 -0.00307518 -0.00124865 -0.00459430
N 20.08836948 6.64421341 2.85285369 0.00194108 -0.00046778 0.00617378
N 24.61194952 13.11912581 18.91369608 -0.00985101 0.00077999 0.00808685
N 18.06049392 6.46123782 27.62363814 0.00091206 -0.00017727 0.00641487
N 20.35131665 25.50699769 22.11559825 0.00273388 0.00239098 -0.00192752
N 22.55466848 6.78877894 30.83419776 0.00219138 0.00252898 -0.00030007
N 18.12468696 0.01864237 30.50056893 0.00484605 0.00332435 -0.00006644
N 24.64171395 6.50651290 22.43592404 -0.01078939 -0.00341862 -0.00131199
N 22.39467999 12.62044818 27.16182589 -0.00127031 0.00184782 -0.00362719
N 20.15536247 6.21475967 19.23549837 -0.00455850 -0.00100512 -0.00914456
N 24.27001700 0.21737178 2.25581373 -0.00266978 -0.00401471 0.00068946
N 18.16883557 18.87763615 10.53337627 -0.00025745 -0.00214098 0.00176548
N 20.38901644 12.81114697 5.71172035 -0.00047338 0.00564329 0.00544008
N 22.71542488 18.98323970 14.06288489 -0.00047415 -0.00336892 0.00091591
N 18.36920705 12.98648876 13.86405358 0.00151393 -0.01027556 0.00293428
N 24.63091582 19.36903676 6.10313399 0.00236511 -0.00367784 0.00147188
N 22.57258722 25.24106641 10.70814864 0.00026982 0.00004592 -0.00532214
N 20.66900165 18.90653724 2.24339903 -0.00314469 0.00027737 -0.00197325
N 24.72661804 0.15109006 18.58025807 -0.00042903 0.00068399 -0.00533947
N 18.30544479 19.46052503 27.04462809 -0.00597803 -0.00030531 -0.00139276
N 20.19607549 12.88110565 22.33179943 -0.00233551 -0.00321587 -0.00443608
N 22.28614014 19.28666316 30.74564200 -0.00546735 0.00343130 -0.00713091
N 18.06985661 12.64457233 30.18699980 0.00158451 -0.00277515 0.00293203
N 24.64394459 19.35186941 22.39398459 0.00673824 -0.00150546 0.00016320
N 22.18087256 0.13737550 27.03776766 -0.00384739 -0.00070981 0.00148337
N 20.46289761 19.10990927 18.82875230 -0.00363882 0.00248326 -0.00142292
C 7.48493983 0.56196619 4.48259768 0.00654120 -0.00745673 0.00130159
C 0.90006107 5.78265043 12.80998107 -0.01708050 0.00462435 0.00106047
C 3.21802330 12.45814857 3.54507012 0.00793996 -0.00287678 0.00098838
C 5.29163075 6.91565980 11.50342750 0.00345768 0.00247505 0.00095963
C 1.02930867 12.19452803 11.83354306 -0.00558737 0.00059348 -0.00283619
C 7.41491652 6.84667901 3.37742254 -0.00181194 0.00437512 0.00210611
C 5.46915895 25.43421718 12.63417892 0.00395007 0.00506628 0.00610657
C 3.39020220 6.21126491 4.90420560 -0.00315625 0.00433182 -0.00452955
C 6.99519375 1.13455076 5.64785446 -0.00893189 0.00365143 0.00733629
C 1.27212721 5.11797894 13.89103132 0.00252695 -0.00474118 -0.00378442
C 2.63309229 11.93264759 2.42377063 0.00271524 0.00215059 -0.00057662
C 5.73314077 7.63243159 10.48559530 0.00586678 -0.00736294 0.00391239
C 1.57805107 11.78811400 10.64383514 0.00832888 -0.00337454 0.00367052
C 7.02150960 7.48895460 2.20042679 0.00342830 -0.01120849 0.00177429
C 5.63756014 0.62714920 13.77016780 0.00282670 -0.00166321 0.00689036
C 3.08763625 5.47233498 6.07196641 0.00099782 0.00223334 -0.00241427
C 6.26175421 2.33679373 5.50238058 0.00352220 -0.00184526 0.00202972
C 2.16267271 4.01681807 13.72820643 -0.00193963 0.00409433 -0.00360912
C 1.97512797 10.74740309 2.42672793 -0.00226029 0.00342713 -0.00501784
C 6.59709445 8.76015098 10.59037518 -0.00208378 0.00181674 -0.00368096
C 2.46543666 10.70103370 10.55504385 -0.00742880 -0.00119121 0.00950230
C 6.19420248 8.57746460 2.36243769 0.00123724 -0.00730825 0.00289419
C 6.24652417 1.89076011 13.71595173 0.00459887 -0.00156150 0.00477567
C 2.24687202 4.34962474 5.89213512 -0.00295473 0.00497912 -0.00548013
C 6.22359141 2.94168844 4.19042720 -0.00432523 0.00283622 0.00108209
C 2.55279075 3.58215600 12.41121272 0.00457076 -0.00280570 -0.00423222
C 1.82039187 10.04555415 3.65058678 0.00670033 0.00222030 0.00191997
C 6.96157208 9.11419184 11.92248443 0.00051119 -0.00624237 0.00391520
C 2.65535380 10.00372804 11.81328524 0.00182210 0.00120806 -0.00113390
C 6.02390449 9.11501635 3.65134164 -0.00488204 -0.01262327 0.00836683
C 6.62694317 2.39331210 12.45577835 0.00804317 -0.00514410 0.00742812
C 1.93738930 3.88716251 4.61171347 0.00425348 0.00653373 0.00407105
C 6.59297754 2.23622968 3.09910970 0.00087566 0.00924303 -0.00208218
C 2.03113481 4.24022665 11.35248064 0.00371057 0.01025399 -0.00999838
C 2.15068158 10.65051704 4.85395987 -0.00936221 0.00480313 -0.00020422
C 6.53752183 8.40327974 13.05443735 0.00872239 -0.01488959 -0.00226004
C 2.13008439 10.48789140 12.99961254 -0.00349698 0.00779268 -0.00326977
C 6.60018139 8.59384987 4.77702425 0.00032243 0.00629939 0.00520224
C 6.26690018 1.70294143 11.27267142 -0.00534852 -0.00397646 0.00429869
C 2.28200011 4.58410898 3.47442465 -0.00508221 0.00007148 -0.00006500
C 7.06432371 0.92505371 3.17234081 -0.00150460 -0.00974083 0.00133153
C 1.31496712 5.43117570 11.53397848 -0.00006547 0.00136107 0.00111254
C 2.96054096 11.85888565 4.80763139 0.00678451 -0.00446572 0.00062753
C 5.75531116 7.25142789 12.85111402 -0.00244228 -0.00003135 0.00068443
C 1.30468237 11.57635050 13.04773208 0.00192211 0.00784846 0.00352233
C 7.20958372 7.33861266 4.70307949 0.00304442 0.00249551 0.00085460
C 5.59768387 0.41445428 11.31418804 0.00909335 0.00118612 0.00115386
C 3.12512531 5.71716511 3.62072356 0.00194220 -0.01107558 -0.00880989
C 7.13178812 0.31283966 0.86934510 -0.00033147 0.00187086 -0.01372435
C 1.61015346 6.21570684 9.27724816 0.00180327 -0.00239476 0.00819999
C 2.69326007 12.67503536 6.98561739 0.00724462 0.00101518 0.00056871
C 5.78930525 6.52825839 15.24200138 -0.00076835 0.00558891 -0.00117014
C 1.43581417 12.14323868 15.45502475 0.00016796 0.00890281 -0.00366522
C 7.06605369 6.73452759 7.04602801 0.00419118 -0.00595226 -0.00116863
C 5.73989057 0.06578755 8.91766956 -0.00410640 -0.00625521 0.00120528
C 2.89849844 6.36158103 1.31064577 -0.00526526 -0.00546307 -0.00442002
C 6.80236061 11.77308214 16.94697187 0.00091129 0.00391524 -0.00343987
C 1.42918563 7.40104845 8.36496692 0.00324719 -0.00134328 0.00300499
C 2.76146377 1.12709814 7.98928410 -0.00377513 0.00172417 -0.00769365
C 5.83109213 5.37166728 32.44499677 -0.00412538 -0.00729759 -0.00331744
C 1.38534119 1.04723153 32.66788124 0.00767741 0.00511977 0.00431393
C 7.27317305 5.54876049 7.99139031 -0.00502599 -0.00158937 0.00526738
C 5.86450827 11.90369750 8.67928209 -0.00095461 0.00565632 0.00420701
C 2.74018390 7.19854301 17.14054390 -0.00721735 -0.00032191 -0.00216248
C 7.66850912 0.29739454 20.94263064 -0.00431754 -0.00543460 -0.00644620
C 1.03782985 6.15325510 29.67507150 -0.01094870 -0.00172019 -0.00104581
C 3.13898486 12.39618783 20.06590122 -0.00345239 0.00814736 -0.00224608
C 5.13610743 6.97465026 28.15453160 0.00709411 0.00465757 -0.00589426
C 1.01451979 12.40122062 28.33095996 -0.00567779 -0.00782864 0.00551751
C 7.58376078 6.49367558 19.87397875 -0.00032117 0.00738932 -0.00154887
C 5.31582343 0.51938708 29.40218624 -0.00309777 -0.01036512 0.00137297
C 3.22660336 5.85134430 21.32755985 0.00401119 0.00843778 0.00176716
C 7.30071003 0.91007673 22.09347757 0.00218067 0.00409664 0.00167769
C 1.43321464 5.49317099 30.80806589 0.00590823 0.00429366 -0.00033466
C 2.82276515 11.66245226 18.88696852 -0.00658022 0.00386483 0.00523981
C 5.50118843 7.67271178 27.01772733 -0.00457713 -0.00001138 -0.00213770
C 1.33326945 11.66193229 27.19274202 -0.00687412 0.00363158 0.00076233
C 7.28229032 7.19461114 18.76698574 0.01173078 -0.00289610 0.00252981
C 5.70340292 1.21457807 30.57287788 -0.00022598 -0.00425642 -0.00001276
C 2.68604444 5.28874462 22.46872231 0.00302475 -0.00529709 0.00194096
C 6.44624125 2.07459370 21.96963500 -0.00097293 -0.00491552 -0.00744543
C 2.06953545 4.25257973 30.72380639 0.00058360 0.00204366 0.00091766
C 1.98985763 10.55585226 19.02274132 -0.00652263 0.00604174 -0.00541776
C 6.40966347 8.67047225 27.13143459 -0.00128392 -0.00814572 -0.00220740
C 2.05706961 10.47539350 27.34296015 0.00196996 -0.00338276 -0.00220853
C 6.53843391 8.42003909 18.84055060 -0.00098495 0.00119384 0.00322302
C 6.65402026 2.25036911 30.46166292 -0.00151598 0.00078330 -0.00357730
C 1.97770312 4.08671329 22.35528954 -0.00369658 -0.00430614 0.00031143
C 6.17973180 2.51742763 20.67292775 -0.00504358 -0.00520945 0.00143392
C 2.29268333 3.73308788 29.47419308 -0.00068169 0.00075732 -0.00086534
C 1.79711485 9.99617359 20.30224967 -0.00224582 0.00728182 0.00119253
C 6.81242557 9.15040989 28.40668227 0.00090654 0.00054139 -0.00356701
C 2.24052958 9.88069475 28.64661869 0.00805650 -0.00038605 -0.00507604
C 6.25925300 8.94605534 20.08937239 -0.00622523 0.00221498 -0.00234669
C 6.80266475 2.88426794 29.23823267 -0.00048583 -0.00884039 -0.00546240
C 1.82877580 3.36945131 21.11593184 0.00155621 0.00471668 0.00516464
C 6.59403951 1.88765080 19.52960911 0.00272261 0.00246318 0.00164225
C 1.80769517 4.40243798 28.37515914 -0.00196964 -0.00384161 0.00151643
C 2.06380503 10.70007934 21.42934715 -0.00057711 0.00821245 0.00477313
C 6.36245641 8.59202768 29.55970511 -0.00355784 -0.00319249 -0.00742838
C 1.63658276 10.48108713 29.73722631 0.00232956 -0.00191072 0.00248272
C 6.70528177 8.29668687 21.17417698 0.00771343 -0.00359552 0.00037550
C 6.39976375 2.30483438 28.09512770 0.00544614 0.00139398 -0.00200998
C 2.32858211 3.95299706 19.99307130 0.00083017 -0.00335199 0.00091101
C 7.24923231 0.65550778 19.64101819 0.00415417 -0.00385249 0.00382464
C 1.25729609 5.69645076 28.40079433 -0.00723262 -0.00384708 0.00949801
C 2.69941390 11.94894605 21.29340685 -0.00468401 0.00141857 0.00635970
C 5.48973929 7.45886664 29.38748636 0.00440053 -0.00705695 -0.00387655
C 1.18884987 11.83649748 29.57987608 -0.00056201 0.00554303 0.00015377
C 7.37653148 7.03548171 21.16128852 -0.00184720 0.00318633 0.00943426
C 5.68783030 1.08098216 28.16704769 -0.00204432 0.01036982 -0.00013267
C 3.01104750 5.21706711 20.05250051 0.00520580 -0.00002690 -0.00054248
C 7.03194639 25.51590553 17.36534170 0.00151089 -0.00238443 0.00538854
C 1.46683184 6.24188628 26.00051434 -0.00539798 0.00326428 0.00128431
C 2.75778249 12.42572147 23.68069507 0.00044833 -0.00178990 -0.00241754
C 5.73882152 6.72956312 31.72367642 0.00154188 0.00389154 0.00795778
C 1.43991543 12.68608010 31.84342559 0.00519149 0.00334499 -0.00513567
C 7.25044810 6.60141072 23.57182236 -0.00560967 0.00374548 0.00305293
C 6.02420085 0.41864575 25.81125844 0.00047691 0.00469101 -0.00516594
C 2.81264336 5.84423543 17.79484587 -0.00396903 -0.00380283 -0.00240350
C 7.27544408 11.80177479 0.41197371 -0.00087927 0.00244451 0.00267870
C 1.34601976 7.33960268 24.94702128 -0.00795370 0.00717305 -0.00012786
C 2.34729365 1.13318786 24.39073040 0.00236722 -0.00708781 0.00349336
C 5.50124004 5.35738845 16.14671402 0.00001314 -0.00411029 -0.00154702
C 1.57469712 1.18974317 15.94215218 -0.00171337 -0.00406056 0.00217926
C 6.99469836 5.45762068 24.59985994 0.00340153 -0.00363629 -0.00120038
C 5.61727790 11.94554952 24.96061336 -0.00119042 0.00038827 0.00357743