1920
Time=98999.99999996 pbc="T T T" Lattice="25.45007284 0.00000000 0.00000000 0.00000000 25.61002870 0.00000000 0.00000000 0.00000000 32.93947742" energy=-12244.63870668 virial="-32.54210430 -8.57702148 12.83348052 -8.57702148 -27.15640942 -22.60987713 12.83348052 -22.60987713 -62.16129610" stress="0.00070810 -0.00042883 0.00057528 -0.00042883 0.00111822 -0.00106385 0.00057528 -0.00106385 -0.00053860" Properties=species:S:1:pos:R:3:vel:R:3
O 5.87894798 2.33599011 6.78139240 0.00203112 0.00536704 -0.00245065
O 2.81281448 3.73525586 15.00394284 -0.00151221 0.00156953 -0.00430882
O 1.24137725 10.33798252 1.17793562 -0.00123282 0.00789510 0.00211686
O 6.49407411 9.30213637 9.42457344 -0.00288834 -0.00160091 0.00134416
O 2.91764068 10.41040118 9.04169754 -0.00180754 0.00016975 -0.00628094
O 5.98604116 9.62605100 1.46654583 -0.00913817 -0.00738234 -0.00165090
O 6.62338696 2.55842949 15.19242215 -0.00008506 -0.00307831 0.00371200
O 1.90153483 3.64572728 6.99476490 -0.00313721 0.00053272 0.00229390
O 6.05099880 1.11445978 17.30384164 -0.00105323 -0.00471995 0.00292637
O 2.47007001 5.29164545 8.90727201 -0.00815719 0.00120164 -0.00630205
O 1.94244859 11.97525252 7.11186484 0.00595742 -0.00616050 0.00199441
O 6.01724723 7.69732696 32.48149713 -0.00371710 0.00402173 -0.00931117
O 1.87280202 11.67327818 32.11225828 -0.00171137 -0.00356594 0.01029004
O 6.15369492 7.53612775 7.50890173 0.00036075 0.00407318 -0.00090910
O 6.51175210 1.16367989 8.95597246 -0.00000034 -0.00725364 0.00112167
O 2.09616159 5.09384176 17.25262124 0.00168318 0.00373404 -0.00599564
O 6.21771094 2.66511987 23.62537677 0.00116249 -0.00130360 -0.00268751
O 2.66621141 3.73200013 31.51986363 0.00102443 0.00733263 -0.00630282
O 2.12053413 10.06756494 17.76323358 0.00311684 0.00608347 -0.00385372
O 6.91327944 9.63100499 26.43150352 0.00363778 -0.00740160 0.00187120
O 2.89029264 10.38342626 25.86077415 0.00123928 -0.00063192 -0.00211858
O 5.90008811 8.71668681 17.97192940 -0.00308573 0.00340837 0.00006245
O 6.57649262 2.91779667 31.91048591 0.00300529 -0.00051196 -0.00337879
O 1.44436881 3.42687082 23.31946667 -0.00489251 0.00087646 0.00065255
O 6.67637523 1.03064312 0.66132745 -0.00076544 0.00374134 0.00101130
O 1.88486691 5.31594867 25.32469288 0.00077135 0.00285441 0.00566308
O 1.90015903 11.96496935 23.77307353 -0.00075497 -0.00247583 -0.00115212
O 6.43929501 7.53462882 15.65867081 0.00093654 0.00132161 -0.00358345
O 1.88497394 11.34733566 15.42525738 0.00613575 0.00626305 -0.00173538
O 6.88478328 7.82891746 24.39268952 -0.00156822 0.00186598 -0.00318190
O 6.32227653 1.26229043 25.79530914 0.00037930 0.00019996 0.00857737
O 2.14232221 5.22535635 0.61517240 0.00270779 -0.00220554 -0.00309850
O 6.03351993 15.97870882 6.51178499 0.00672542 -0.00187830 0.00065659
O 2.46705769 16.41066818 15.55910611 -0.00184515 0.00054619 -0.00222078
O 1.39158312 23.29520808 1.31602774 0.00066948 -0.00103164 -0.00263795
O 6.22253569 22.27081306 10.09770778 -0.00354360 0.00404327 -0.00074162
O 2.75767839 23.20007612 9.22565495 0.00921257 -0.00192709 -0.00103502
O 5.96962611 22.20179109 1.35316576 0.00497225 0.00824059 -0.00017748
O 6.67529049 15.46626548 14.75383023 0.00302036 -0.00475426 -0.00546314
O 1.63067464 16.71965216 7.47158488 0.00752192 -0.00337286 -0.00118462
O 6.54468355 13.93254683 16.93226570 -0.00460405 0.00378961 0.00136030
O 2.61890333 18.16079798 9.44331726 -0.00248613 0.00345353 0.00453950
O 1.71210322 24.73260125 7.36868060 0.00450292 -0.00875409 0.00167632
O 6.33888363 20.58565303 32.27222696 -0.00055367 -0.00073552 -0.00365979
O 2.42810701 24.64780722 32.36311543 -0.00904829 0.00283987 -0.00751177
O 6.88009766 21.18296116 7.73726414 0.00092782 -0.00170381 0.00155816
O 5.81459321 14.26886056 8.56640845 0.00338515 0.00286232 0.00071868
O 1.67563446 17.96450901 17.44401115 -0.00035071 0.00257104 -0.00159542
O 6.12237692 15.04431288 23.41821213 -0.00630469 -0.00117475 -0.00203955
O 2.25063942 16.74543882 31.66221180 0.00688382 0.00290920 -0.00475905
O 1.62139230 22.84666801 17.69613183 -0.00036856 0.00532500 0.00391137
O 6.51341820 21.60504100 25.85433641 0.00299098 -0.00603126 0.00164163
O 2.54683534 22.77651243 26.34844561 -0.00657635 -0.00132118 0.00293618
O 5.29326033 21.60248313 17.94231177 0.00051734 0.00450357 -0.00295986
O 6.42283251 15.73711315 31.40609904 -0.00132826 0.00165812 0.00563188
O 1.76469844 16.26964401 23.58773165 0.00186582 0.00451857 0.00416640
O 6.22728610 14.28760392 0.38553087 0.00243315 -0.00097267 0.00111306
O 2.12641783 17.96377381 25.46368775 0.00498940 -0.00181389 -0.00476116
O 2.14491643 24.19477655 24.19901801 -0.00521204 -0.00239419 -0.00311755
O 5.96060578 20.05856454 16.07866308 -0.00110282 0.00282286 0.00337822
O 2.58744009 24.27892042 15.77901414 0.00114799 -0.00687808 0.00690074
O 6.18026499 19.98905543 23.85325106 0.00265203 0.00220403 -0.00287824
O 6.80967083 13.87222873 25.54386784 -0.00009030 -0.00061237 0.00321638
O 2.16520583 17.90475394 1.06042412 -0.00084989 0.00279329 0.00399544
O 13.96109794 2.79665785 6.94128289 -0.00338913 -0.00266625 0.00453640
O 11.44265904 3.24087623 15.02244268 -0.00031929 0.00024526 0.00148156
O 10.06581065 10.53312717 0.99039251 0.00394632 -0.00107671 -0.00450197
O 15.11647645 9.33174459 9.43623595 0.00746883 0.00217443 -0.00346141
O 10.96319406 10.36184230 8.99028638 -0.00126912 -0.00312738 -0.00043272
O 14.04743402 8.92441280 1.02870661 0.00138054 0.00290634 -0.00331244
O 15.21557876 2.39243889 15.38749065 -0.00703579 0.00001228 -0.00259153
O 9.62567467 3.73198975 6.70556989 -0.00380840 0.00692136 -0.00708838
O 14.60104799 0.96612276 17.40543201 0.00132490 0.00483371 -0.00321851
O 10.30062237 5.06444834 8.92509639 -0.00115758 0.00625530 0.00314358
O 10.21457017 12.11304487 7.22144590 0.00167390 0.00323762 0.00326410
O 14.78442198 7.60169073 31.92595077 0.00102540 -0.00144482 0.00249930
O 10.72650706 12.05803895 32.05102323 0.00185278 -0.00572826 0.00128369
O 15.01133789 7.67922006 7.33368633 -0.00140217 -0.00380842 -0.00610612
O 14.46787474 1.34144619 9.00111477 -0.01179300 0.00090361 -0.00242675
O 10.97219388 4.93129716 17.19000451 -0.00541581 -0.00194417 0.00224075
O 14.39925712 2.27625902 23.62199277 -0.00433315 -0.00245093 -0.00321817
O 11.41633149 3.66675211 31.58476457 0.00171487 0.00644487 -0.00522619
O 10.08427841 9.71815135 17.57336633 -0.00548428 -0.00922368 -0.00508574
O 15.31394419 8.89225980 25.67611183 -0.00318182 -0.00183231 0.00683620
O 11.19557733 10.22330208 25.86398733 -0.00122653 -0.00565775 0.00005575
O 14.38434424 9.14985991 17.73986860 0.00662878 -0.00031426 -0.00009274
O 15.98654144 2.70438981 31.24502571 0.00080699 0.00114833 -0.00441472
O 10.58352371 3.81093664 23.66764887 0.00014172 0.00004037 0.00475909
O 15.38646002 1.58564036 0.77981705 0.00450690 0.00173681 0.00363665
O 11.01968564 5.47764871 25.61917154 -0.00007572 -0.00395509 -0.00234685
O 10.86589393 11.51850096 23.64506062 0.00115951 0.00534543 -0.00265477
O 14.95099962 7.69598047 15.53425424 0.00175036 -0.00198363 0.00191265
O 10.03224582 11.22175736 15.53915062 -0.00411574 0.00155646 0.00427762
O 14.75956497 7.25793915 23.78454261 0.00249692 0.00425102 0.00622067
O 15.01679614 0.79416157 25.65655868 0.00783807 0.00063551 0.00454980
O 10.59350908 5.29513058 0.65755740 -0.00521737 0.00573398 -0.00419879
O 13.90956217 15.55388413 6.63224445 -0.00516040 0.00752523 0.00309988
O 11.71444662 16.22659203 15.18772077 -0.00464110 -0.00310180 0.00463255
O 10.34607415 22.83157501 1.41745001 -0.00604395 -0.00367422 0.00075962
O 15.28208694 22.31642865 9.80444983 -0.00087401 -0.00231745 0.00231775
O 11.55601634 22.81685612 9.68525056 -0.00192173 0.00609462 -0.00765190
O 14.90858906 22.09521980 1.77146600 0.00210507 -0.00491477 -0.00183881
O 15.75498643 15.11002316 14.62320977 0.00150908 0.00205664 -0.00081332
O 9.80843531 16.87957653 7.13524053 -0.00270381 0.00521082 0.00051493
O 15.14677055 14.50596653 17.00608743 0.00633448 0.00352298 0.00288369
O 10.64603135 18.05762366 9.33568852 0.00438066 -0.00078726 -0.00486861
O 10.56749692 24.42531418 7.49886912 0.00206196 0.00269529 -0.00648409
O 14.58717565 20.66183350 32.55036336 -0.00052011 0.00654668 0.00221803
O 10.75489517 24.35270497 32.40517290 0.00154576 0.00068819 -0.00234061
O 15.24771615 20.32154892 7.95825987 -0.00697513 -0.00318004 -0.00132398
O 14.31516997 14.08514677 8.62393384 -0.00656818 0.00058385 -0.00201237
O 11.17471070 17.57813082 17.30125778 -0.00170303 -0.00063919 0.00512849
O 14.39671114 15.57930751 23.28731380 0.00183890 -0.00111398 0.00200310
O 11.35259025 16.82491823 32.05385527 -0.00340326 0.00693332 0.00206171
O 9.91709593 22.50245305 18.07034795 -0.00244728 -0.00229052 -0.01222722
O 15.20386401 21.59334669 26.34105453 -0.00304791 -0.00119245 0.00119299
O 10.53776623 22.83670754 26.10250063 0.00227817 0.00222711 -0.00267165
O 14.08556258 21.54410905 17.88301939 0.00590209 0.00064860 0.00049429
O 14.96371209 15.54778742 31.79190183 0.00156937 -0.00408190 0.00223765
O 10.70703548 16.39636469 23.66288394 0.00738233 -0.00609245 0.00079385
O 14.59211638 13.81539075 0.66210913 -0.00137525 0.00329315 -0.00548830
O 10.33420727 17.63607876 25.98409930 -0.00416242 0.00588329 0.00013653
O 10.29108931 24.61334200 24.00025309 -0.00031630 -0.00199130 0.00011423
O 14.91174655 20.22853152 15.85253561 -0.00782356 0.00261950 -0.00091601
O 10.14708431 23.90073417 15.77984292 -0.00032038 -0.00725112 -0.00196184
O 14.27883262 20.26421921 24.18198837 0.00358768 0.00782090 0.00685915
O 14.82060048 14.19066410 25.25822760 0.00180613 -0.00897438 0.00363331
O 10.55832113 18.16280393 1.08154070 0.00651974 -0.00342890 0.00677288
O 23.39650439 2.72402518 6.96531227 0.00154135 -0.00144450 -0.00867330
O 20.03279648 3.59816661 14.87881165 0.00035265 -0.00252622 0.00773882
O 18.62197944 9.81569723 1.03288620 -0.00473488 -0.00153439 -0.00129234
O 23.82580466 9.28699435 9.80079294 0.00329030 0.00324727 0.00106099
O 19.52054497 10.16370826 9.47136686 -0.00410876 -0.00276973 -0.00120562
O 23.03172726 9.21089418 1.32337616 0.00676228 -0.00167813 -0.00091236
O 24.14202609 2.59593452 15.20822381 -0.00713237 -0.00227505 -0.00330510
O 18.80879860 3.80478301 6.91970133 -0.00018234 -0.00182860 -0.00173943
O 23.52931472 1.02114167 17.29073732 -0.00127460 -0.00109436 0.00440038
O 19.37279691 5.42926333 8.96181777 -0.00448163 0.00029573 -0.00211218
O 19.00205702 11.50580698 7.30499707 -0.00119136 0.00518103 0.00569898
O 23.48650030 7.59686303 32.16328889 -0.00020362 0.00208742 0.00377244
O 19.00416473 11.50636256 31.98163490 0.00229300 -0.00096887 -0.00124109
O 23.58701041 7.67183333 7.63499516 -0.00686171 -0.00110150 0.00535335
O 23.22411538 0.96479593 9.08641994 0.00015998 -0.00411302 -0.00526125
O 19.78134543 4.92376553 17.01036075 0.00077827 -0.00047037 -0.00688911
O 22.29944772 2.77130365 23.20079404 0.01105908 0.00394890 -0.00189204
O 19.91192034 3.80592427 31.15825701 0.00291313 -0.00485026 0.00022093
O 19.11741541 9.91346917 17.80354001 -0.00295364 -0.00809332 0.00549388
O 23.68385772 9.00943262 26.00535621 -0.00368028 0.00092870 -0.00049632
O 19.52612758 10.14443825 25.67837720 0.00224070 0.00062291 0.00264369
O 22.98083905 8.90778875 17.77817691 -0.00354551 -0.00052679 -0.00107151
O 24.15439261 2.60316099 31.41652145 0.00285086 -0.00312139 -0.00474313
O 18.77485458 3.42027289 22.95165141 -0.00400471 -0.00194153 -0.00475681
O 23.57101097 1.22842552 0.53465926 0.00038898 -0.00562380 0.00138414
O 18.68418964 5.23948700 24.87940290 0.00291453 0.00005252 0.00168587
O 19.12581514 11.91430600 23.70764317 -0.00628060 0.00032789 -0.00465530
O 23.69605335 7.42257039 15.75800967 0.00493748 0.00370168 -0.00176707
O 19.20318637 11.42527788 15.67738364 -0.00359803 -0.00134713 -0.00234743
O 23.20289005 7.69850711 23.88670149 0.00644595 -0.00388825 0.00238999
O 23.00598237 1.41278344 25.23010051 0.00435162 -0.00135165 0.00071052
O 19.24371949 4.91526373 0.57582564 -0.00065739 -0.00104486 0.00005981
O 22.72878225 15.72584510 6.65307605 0.00085039 -0.00100708 -0.00003017
O 19.65934570 16.69789507 15.48456378 0.00202989 -0.00757874 0.00924959
O 18.53894745 23.11657463 1.23176604 -0.00344907 0.00411277 0.00254312
O 24.02036245 22.01417484 9.78297136 -0.00212638 -0.00438724 -0.00039516
O 19.71458351 22.84245400 9.84525320 -0.00271343 -0.00075057 -0.00493824
O 23.09908470 21.77195950 1.50930719 0.00215529 -0.00701842 0.00210999
O 24.15688157 15.42452180 14.80603194 0.00326565 -0.00752451 -0.00159837
O 18.34713380 16.65282130 7.08777801 0.00206364 0.00341620 0.00039743
O 23.71443491 14.09317303 16.85375537 -0.00724958 0.00215381 -0.00501363
O 19.11515817 17.88782225 9.20216635 -0.00721866 0.00205394 0.00718757
O 18.99063948 24.45130708 7.53489317 -0.00014740 -0.00439716 0.00400450
O 22.49751692 20.58088012 32.28552570 -0.00563152 -0.00156969 -0.00292123
O 19.29144075 24.53167562 32.17339439 -0.00439072 -0.00003442 0.00359267
O 23.59493624 20.46680661 7.66905017 -0.00226354 0.00603720 0.00250708
O 22.93425226 13.92315177 8.64981447 0.00221314 0.00347517 -0.00342683
O 18.62029021 18.22175224 17.44670966 -0.00338130 -0.00221487 -0.00489135
O 23.05405661 15.79420125 23.09983244 -0.00146154 0.00547450 0.00623761
O 19.02257673 16.38795978 31.81055636 0.00127181 0.00076965 0.00730900
O 18.74414325 22.80991067 17.86666902 -0.00230290 -0.00396556 0.00388711
O 23.33973923 22.19229836 26.17159577 0.00262963 0.00130884 0.00191969
O 19.54932629 23.43877977 26.06565808 -0.00705235 0.00669093 0.00312505
O 22.96352004 21.95805027 17.69900517 0.00401299 -0.00071718 0.00161007
O 23.31970953 16.05046045 31.31625581 0.00431886 0.00171690 0.00104070
O 18.89667919 16.79430921 23.70706238 0.00093495 -0.00234372 0.00171295
O 23.20128121 14.24346353 0.36535011 0.00640210 0.00353356 0.00319621
O 19.21082237 18.49011654 25.66615096 0.00034842 0.00234109 -0.00426174
O 18.74168367 24.72830519 24.02243519 -0.00233762 0.00071831 0.00693672
O 23.57038192 20.29621465 15.88312343 -0.00507717 -0.00040115 0.00013666
O 18.94497934 24.40968181 15.94697540 0.00098488 -0.00020076 -0.00421992
O 23.06190896 20.53665182 24.15510540 -0.00092727 -0.00432103 0.00591596
O 23.38383797 14.23165937 25.26206674 0.00127938 -0.00403268 0.00053306
O 19.07069521 17.95558555 1.03654708 -0.00184107 -0.00051807 -0.00669599
N 7.14474341 12.96833193 2.08172545 0.00435337 0.00573686 -0.00574863
N 1.08742019 6.30152318 10.39568418 -0.00287030 0.00271973 -0.00886852
N 3.16683438 0.01969842 5.83075507 0.00125791 -0.00578954 -0.00548800
N 5.04833592 6.57243009 14.08963809 -0.00320822 0.00871981 -0.00500798
N 1.32263168 25.19156384 14.07550390 0.00594141 -0.00145676 -0.00285468
N 7.63500448 6.70268336 5.90704141 -0.00136419 0.00100314 -0.00483248
N 5.18678449 12.69048203 10.09151098 0.00266533 -0.00003229 -0.00217806
N 3.21960407 6.34745344 2.30214783 0.00404993 -0.00354559 -0.00343122
N 7.53930879 12.66010594 18.62362493 0.00758766 -0.00094075 -0.00543587
N 0.95072638 6.46514627 27.09064851 -0.00317882 -0.00721416 -0.00574380
N 2.98166715 25.40779139 22.46048193 -0.00157689 -0.00363697 0.00148778
N 5.20442341 6.49105852 30.77068305 -0.00640307 0.00745698 0.00339630
N 1.08854658 0.05219458 30.76972885 0.00144127 0.00055451 0.00015861
N 7.51752833 6.35883761 22.69564465 -0.00129238 -0.00128414 -0.00451395
N 5.33173863 12.81560809 26.92791341 0.00114421 -0.00093223 -0.00088691
N 3.43657689 6.20467266 18.90220616 -0.00242802 -0.00172801 -0.00123465
N 7.64239275 25.37330886 2.27010185 -0.00098121 0.00139646 0.00205996
N 1.11439391 18.97266283 10.85545775 0.00000153 -0.01080106 0.00294984
N 2.95915257 13.07744917 5.43110105 -0.00761931 0.00397323 -0.00218556
N 5.31844788 18.69615409 14.30660990 0.00124433 -0.00050208 -0.00289423
N 0.93367437 12.65785032 13.78249133 -0.00478361 -0.00066522 0.00838168
N 7.65197213 19.79933302 6.05856946 0.00008548 0.01438194 -0.01049644
N 5.21829542 25.55179609 10.34194559 0.00168414 0.00594763 0.00045403
N 3.26830384 18.97522528 2.81798111 -0.00134357 -0.00117208 -0.00123617
N 7.09122873 25.48261607 18.87430727 0.00572813 0.00540439 0.00701108
N 0.77395977 19.20432265 26.91703954 0.00317285 -0.00267356 -0.00360956
N 3.36826098 12.95392703 22.28881857 0.00113686 0.00043506 0.00059798
N 5.01915614 19.57490010 30.73721016 -0.00224696 -0.00167149 0.01056965
N 0.72694808 12.69012519 30.36208823 -0.00846201 -0.00076479 -0.00163885
N 7.55392100 19.04822546 22.29042046 -0.00169162 -0.00445268 -0.00758444
N 4.96768260 0.34570455 27.33866399 -0.00024190 -0.00211819 -0.00147488
N 3.15624374 19.01175614 18.96527579 -0.00680743 0.00052063 0.00431316
N 15.84964839 12.78577456 2.30257771 -0.00176124 0.00250993 -0.00362894
N 9.26043497 6.01696457 10.76178489 0.00583102 -0.00555084 0.00004663
N 11.88448865 25.58596649 5.97116672 -0.00299437 -0.00182450 0.00511631
N 13.64555143 6.57580424 13.97401891 -0.00338710 0.00412659 -0.00119757
N 9.51769751 25.26754287 14.05765708 0.00138483 -0.00242379 0.00632774
N 16.03952151 6.55151871 5.59233616 -0.00280711 -0.00717524 0.00407402
N 13.73470987 12.55774145 10.26282439 0.00196716 -0.00516687 0.00134882
N 11.54555706 6.37110625 2.36735587 -0.00675609 -0.00115338 -0.00274527
N 15.97313917 13.17028652 18.66372269 -0.00119548 -0.00027981 -0.00388507
N 9.36884800 6.13126542 27.16144293 0.00013980 -0.00779122 -0.00359335
N 11.41196316 0.12923214 22.33915441 0.00461177 0.00035101 -0.00074564
N 13.86212551 6.28115495 30.27619981 -0.00213467 0.00084093 -0.00144901
N 9.67145788 25.54002029 30.75984061 -0.00193461 -0.00136840 0.00029197
N 16.03862343 6.25331849 22.13820217 0.00917836 0.00806073 -0.00303813
N 13.55838968 13.14086412 26.91187041 0.00288875 0.00306672 -0.00135703
N 11.95216844 6.17097289 18.79480498 0.00120812 0.00218966 0.00173227
N 15.91691415 0.24326268 2.49438303 0.00212871 0.00187246 0.00339465
N 9.31125371 18.75072656 10.99107498 0.00046905 0.00180113 -0.00251095
N 11.60737071 13.14292667 5.66497137 0.00050352 0.00255952 -0.00878430
N 14.08806154 18.95937355 14.11168563 -0.00003237 0.00074009 -0.00003555
N 9.58091593 12.72682836 13.81454143 0.00541833 -0.00627884 -0.00280668
N 15.79405217 19.05454554 6.21527313 0.00365518 0.00213949 0.00044340
N 13.68265111 25.51704555 10.65098413 -0.00273422 0.00227016 -0.00201725
N 11.91633803 19.24065037 2.57746207 -0.00075475 -0.00077486 -0.00383619
N 15.84930846 25.42356888 18.84183291 -0.00088315 0.00138690 0.00600129
N 9.27795128 19.08149961 27.41917111 -0.00268497 0.00277468 -0.00641644
N 12.22098839 12.37031894 21.98472662 0.00896684 0.00380520 -0.00808633
N 13.61105394 19.18419208 31.14147082 0.00678480 0.00252662 -0.00174084
N 9.29756267 12.90929256 30.40457365 -0.00001581 -0.00060472 -0.00681673
N 15.91474892 19.50974758 22.80129578 -0.00118895 -0.00002582 0.00119226
N 13.68049185 25.49422587 27.22105342 -0.00181091 -0.00558675 0.00033093
N 11.63938055 19.13026002 18.94009711 -0.00348651 -0.00709657 0.00059358
N 24.14093958 12.99712531 1.96471589 -0.00032240 -0.00576264 -0.00222705
N 17.97696628 6.35266973 10.47485316 0.00003008 0.00149090 -0.01208262
N 20.20640161 25.58249114 5.87334573 0.00018151 0.00509263 -0.00304799
N 22.62772447 6.31538060 14.16246871 -0.00843554 0.00628212 -0.00128721
N 18.14081022 0.12387731 14.28959990 0.00049156 0.00164844 0.00653379
N 24.13370151 6.21068382 5.90905499 -0.00297719 0.00443717 0.00617512
N 21.90325134 12.82569007 10.35681510 0.00393149 -0.00916495 0.00945104
N 20.20434777 6.25913170 2.18504879 0.00515552 -0.00313197 0.00778343
N 24.53129248 12.94654892 18.64262912 -0.00071695 -0.00695828 0.01083892
N 17.75370336 6.34186620 26.72262481 -0.00124797 0.00458985 -0.00293329
N 20.01095850 0.21116586 22.44199166 0.00178631 0.00221638 0.00677388
N 22.22131402 6.38608915 30.65889010 -0.00465146 0.00210917 -0.00058839
N 18.19230638 0.24142755 30.66406706 -0.00348899 -0.00287401 0.01022604
N 24.38291980 6.28141119 22.42180126 -0.00131464 -0.00404950 -0.00269490
N 22.25879185 13.01956745 26.85167791 0.00520514 0.00129975 0.00575833
N 20.29332243 6.46011188 18.66630883 -0.00223508 -0.00903662 -0.00218751
N 24.58871890 25.53030436 2.22223785 0.00258695 -0.00012056 0.00348250
N 18.35728444 19.26895652 10.83750496 0.00683314 -0.00013432 -0.00366017
N 20.05071798 12.71897072 5.63331747 0.00139989 -0.00221129 0.00291167
N 22.22525528 19.24048844 14.30638544 -0.00321016 -0.00563931 -0.00497328
N 18.18718780 12.76117027 14.17303318 -0.00100198 -0.00859735 0.00110167
N 24.58032532 19.02819232 6.18067810 0.00570941 0.00755694 0.00242353
N 22.08499393 25.43499740 10.78631716 -0.00196040 -0.00978402 0.00265610
N 20.13052637 19.37402249 2.59194346 -0.00994037 0.00636463 0.00190481
N 24.54447360 25.52904054 19.06955227 -0.00440008 -0.00002306 -0.00312124
N 18.08033413 19.50055005 27.39192252 0.00343749 -0.00761611 -0.00011687
N 20.40340560 12.88564118 22.18051660 -0.00375428 0.00107848 -0.00729944
N 22.21125180 19.01745927 30.63096320 -0.00086683 -0.00711909 0.00190517
N 17.94579616 12.70801160 30.39115207 0.00333772 0.00485799 -0.00086568
N 24.41138942 19.57467864 22.53739370 -0.00557453 0.00898591 0.00426311
N 22.22329465 0.03913004 26.83582337 -0.00468517 -0.00728367 -0.00123743
N 20.15508536 19.21910574 18.80443868 -0.00105337 0.00263231 -0.00371884
C 7.61248721 0.04025003 4.61097374 -0.00081326 0.00078599 0.00576377
C 1.09776402 6.05980340 12.73672185 -0.00458362 -0.00495928 0.00611819
C 3.15869354 12.60478957 3.20620886 -0.00701842 0.00716109 0.00321550
C 5.15938382 6.75684301 11.65404435 0.00919546 -0.00120369 -0.00580133
C 1.04122001 12.51186552 11.33567322 -0.00325241 0.00131417 -0.00504531
C 7.64440487 7.18248629 3.53200433 0.00104433 -0.00404683 -0.00022837
C 5.34510963 0.07568317 12.79215267 -0.00045269 -0.00021690 0.00705614
C 3.26672455 6.05867698 4.57731056 -0.00040100 0.00156910 -0.00070050
C 7.33961162 0.77831328 5.76431462 0.00614071 0.00175386 -0.01120530
C 1.47424787 5.47244625 13.91070502 -0.00083752 -0.00391861 -0.00320509
C 2.81134254 11.84688582 2.11495320 0.00055902 -0.00314118 -0.00370716
C 5.31057609 7.47653633 10.53495906 -0.00169508 0.00514756 -0.00368162
C 1.45184714 11.92997465 10.13838205 -0.00486626 -0.00195585 -0.00520576
C 7.20282148 7.80134745 2.40852165 -0.00405207 0.00304264 -0.00487191
C 5.62865329 0.66376133 14.05301457 -0.00531618 -0.00491452 0.00568034
C 3.07425672 5.30917770 5.71686265 0.00508568 0.00735208 0.00155819
C 6.52005597 1.92662072 5.69995968 0.00431777 0.00178757 -0.00739079
C 2.30023669 4.32487131 13.88574311 -0.00015264 -0.00387202 -0.00216422
C 1.91580332 10.76715690 2.22403430 -0.00338683 -0.00197776 -0.00594952
C 6.11489399 8.66169772 10.54252063 0.00085844 -0.00226193 0.00218268
C 2.35996223 10.84981677 10.18283152 -0.00798573 0.00550794 0.00195118
C 6.43070869 8.92448132 2.54093062 -0.00175639 0.00336676 0.01036861
C 6.31077587 1.93493127 14.05086764 -0.00215713 -0.00393305 -0.00039411
C 2.20672656 4.20095706 5.74663625 0.00508378 0.00134420 0.00454161
C 6.25722784 2.47866909 4.39295069 -0.00272989 -0.00669025 0.00246762
C 2.59877854 3.79234843 12.59204687 -0.00765731 0.00183319 -0.00525608
C 1.81834278 10.24057342 3.51074274 -0.00254778 0.00531309 -0.00372284
C 6.50004905 9.17540295 11.75096499 0.00076280 -0.00608308 -0.00136995
C 2.57887646 10.23369392 11.48621899 0.00247815 -0.00426255 -0.00570261
C 6.04708815 9.38061342 3.86004009 -0.00074641 0.00089583 -0.00200340
C 6.52000453 2.53031979 12.77374185 0.00057511 0.00289370 -0.00701742
C 1.85122343 3.69121176 4.50556837 0.00336666 0.00235110 0.00049384
C 6.68253438 1.82921484 3.25919274 -0.00156910 -0.00504684 -0.00029235
C 2.08664805 4.33092429 11.42123761 0.01553156 -0.00860936 -0.00822261
C 2.07013438 10.93389602 4.65825125 -0.00271616 -0.00485450 0.00188500
C 6.09056946 8.48947533 12.96868377 0.00505082 0.00332342 -0.00136365
C 2.01634357 10.75697550 12.60648655 0.00563762 0.00511907 -0.00128190
C 6.31602099 8.63462147 4.95103346 -0.00582556 0.00386192 0.00294466
C 6.19677446 1.92100888 11.58692091 0.00222732 -0.00488368 -0.00088030
C 2.26768091 4.28683556 3.32730333 0.00581801 0.00743589 0.00170041
C 7.30826777 0.51653977 3.32184832 -0.00139643 0.00615540 -0.00452563
C 1.46436216 5.56069581 11.49332317 0.00317542 -0.00678710 0.00010320
C 2.71405520 12.20077401 4.45193650 0.00880729 0.00088017 -0.00630009
C 5.46912705 7.26660042 12.89056643 0.00007909 -0.00162802 -0.00112579
C 1.37835653 12.02544795 12.60413649 -0.00194017 0.00082339 -0.00230009
C 7.22392104 7.52407460 4.82271445 -0.00413442 -0.00142848 0.00071342
C 5.57815840 0.67399636 11.54064900 -0.00525363 0.00703191 -0.00262772
C 2.84273022 5.59072853 3.34740275 0.00375075 -0.00039642 -0.00016464
C 7.20136887 25.58674478 0.96287009 0.00487950 -0.00202309 -0.00769192
C 1.62168569 6.18935413 9.15461145 -0.00532859 -0.00523030 0.00241108
C 2.54811143 12.93769293 6.70594382 0.00552180 -0.00257506 0.00169147
C 5.76771289 6.58535656 15.22906069 -0.00040085 -0.00054169 -0.00365424
C 1.46623349 12.46815978 15.02639651 0.00271011 0.00820030 -0.00188676
C 6.91553042 6.64720043 7.07213208 -0.00069814 -0.00035540 -0.00403136
C 5.76881680 0.20511248 9.17433266 -0.00044630 0.00572404 -0.00111346
C 2.59109858 6.26864625 1.08213179 0.00092214 -0.00216654 -0.00829733
C 6.96246245 11.59232841 16.48560380 0.00584047 -0.00353456 -0.00304890
C 1.22488940 7.22319233 8.18340097 0.00258233 0.00376693 0.00211579
C 2.68297630 1.17440511 7.98570203 0.00299943 0.00137317 -0.00051327
C 5.58282115 5.40738141 32.87685486 -0.00414619 0.00012472 0.00181369
C 1.57134013 1.29196021 32.74639831 0.00612827 0.00409920 0.00073074
C 6.99340090 5.40348617 7.93277979 -0.00067398 -0.00665013 0.00560375
C 5.69132045 11.92146223 7.94948615 0.00334283 0.00271868 -0.00173685
C 2.98646121 7.30585503 16.93212613 -0.00872147 0.00307778 0.00343092
C 7.33761130 0.14515363 21.29676841 -0.00267446 -0.00199287 0.00316214
C 0.89124043 6.11020114 29.43366602 0.00019729 0.00018466 0.00117561
C 3.49198673 12.58347253 19.88164527 -0.00095526 -0.00100189 0.00073302
C 5.04858482 7.13945435 28.40300153 -0.00131395 -0.00322191 -0.00450041
C 0.83342114 12.46104093 27.97329563 -0.00266461 -0.00681816 -0.00649070
C 7.64582970 6.47511917 20.33467575 -0.00580776 0.00487584 0.00109179
C 5.28999734 0.35964007 29.71327246 -0.00285243 0.00513010 0.00261658
C 3.28704604 5.97420282 21.27070202 -0.00042100 0.00426334 -0.01012631
C 7.20500204 0.82283081 22.45611170 -0.00145702 0.00342275 -0.00264562
C 1.39226588 5.46838511 30.52120355 -0.00193723 0.00513511 0.00630617
C 3.22124867 11.86174740 18.72738974 -0.00303443 -0.00315950 0.00889559
C 5.49659984 7.93842993 27.42507537 -0.00077333 0.00710912 0.00307983
C 1.27217367 11.88246205 26.76966589 -0.00366485 0.00028703 0.00529626
C 7.20494398 7.07412190 19.22619248 0.00226372 0.00005215 0.00678948
C 5.67823792 1.00648088 30.86861209 -0.00636304 -0.00749718 0.00002109
C 2.67063260 5.29930955 22.34110486 -0.00669792 -0.00333024 -0.00717988
C 6.46706243 2.09920941 22.43008271 -0.00048195 0.00479585 0.00073994
C 2.31895749 4.43673219 30.44329076 0.00558066 0.00281604 -0.00617773
C 2.41708555 10.73800657 18.86083184 -0.00361869 0.00153297 0.00385069
C 6.43324138 8.95826755 27.58496760 -0.00393595 0.00563491 0.00343934
C 2.13781110 10.79611710 26.91367395 -0.00301594 0.00205871 0.00429407
C 6.44915344 8.29905156 19.15190476 -0.00847851 -0.00370802 0.00261594
C 6.40185135 2.23540116 30.83626592 -0.00152085 -0.00504894 0.00812782
C 1.96139037 4.07150179 22.19981228 -0.00450017 0.00589016 -0.00193756
C 6.15898405 2.67058481 21.19431473 0.00235356 -0.00094329 0.00197388
C 2.82176428 4.07338503 29.17101034 -0.00011808 -0.00568974 0.00359886
C 2.07905465 10.27077738 20.13220938 -0.00656784 0.00185051 -0.00598079
C 6.82455048 9.23743622 28.85181157 -0.00175468 -0.00273260 0.00050136
C 2.31834276 10.19153760 28.17562163 0.00188071 0.00004358 0.00317339
C 6.15869594 8.93933638 20.32620241 0.00733560 -0.00099338 -0.00130567
C 6.76429050 2.74955691 29.52669783 0.00158286 0.00436788 0.01210540
C 1.75571868 3.52331170 20.93349298 0.00146350 -0.00129328 -0.00218781
C 6.32410381 1.95614748 20.00441180 0.00423758 -0.00161813 -0.00386928
C 2.37228595 4.72622177 28.09476152 -0.00095903 -0.00341313 0.00062296
C 2.55491239 10.92131814 21.27319961 -0.00174064 0.00193684 0.00305895
C 6.35534081 8.50435289 29.95650980 -0.00189637 -0.00325480 0.00097513
C 1.87480634 10.80550663 29.37694143 -0.00380561 -0.00334464 0.00014240
C 6.51669377 8.33544432 21.54558980 0.00304062 -0.00544819 -0.00393497
C 6.33787668 2.11726590 28.39570479 -0.00513909 0.00402559 0.00442673
C 2.43939712 4.09726493 19.88738518 -0.00711519 0.00053682 -0.00012247
C 6.92412911 0.66884212 20.06432987 0.00937082 -0.00222263 0.00387389
C 1.40630639 5.76108190 28.18953589 -0.01165461 0.00228997 -0.00474403
C 3.14792065 12.17502788 21.15924532 0.00934268 -0.00506141 -0.01022242
C 5.55943191 7.35926473 29.69984844 -0.00352607 0.00688569 0.00591188
C 1.13148422 11.98312568 29.23562334 -0.00081618 0.00102804 0.00000164
C 7.17099791 7.01612665 21.57336781 0.01165410 0.00057505 -0.00599016
C 5.47660138 0.97393057 28.45335004 -0.00899245 0.00764045 0.00336531
C 3.07574411 5.41234003 20.00165036 -0.00012064 -0.01027899 -0.01106114
C 6.49381406 25.58116807 17.65625655 0.00171692 -0.00266472 0.00297039
C 1.40690912 6.34330526 25.80652738 -0.00097547 0.00658045 -0.00017157
C 2.78808201 12.78775791 23.53357682 0.00712266 0.00276406 0.00717905
C 5.61089586 6.61125737 32.04100078 -0.00091010 0.00158818 0.00311212
C 1.30821739 12.67873913 31.63796453 0.01028314 -0.00184377 -0.00739688
C 7.14893018 6.69672279 23.94625496 0.00089305 -0.00101224 -0.00101205
C 5.60596081 0.28433801 26.15502447 0.00573973 0.00330830 -0.00402711
C 2.80553166 6.08253423 17.67181112 -0.00156081 0.00096025 -0.00028826
C 6.95234130 12.01345260 32.81945512 0.00670406 -0.00989251 -0.00067741
C 1.14179776 7.50177695 24.95839981 -0.00205795 0.00257445 -0.00602129
C 2.64251073 0.92172234 24.50534730 0.00116357 0.00597860 0.00211820
C 5.63033919 5.33175599 16.02282034 0.00501848 -0.00076212 0.00159415
C 1.86167006 0.95026196 15.86232879 -0.00100477 -0.00166347 -0.00016058
C 7.35211313 5.55526674 24.86849339 -0.00707576 -0.00486560 0.00332812
C 5.82331656 11.76009987 24.85824842 0.00567351 -0.00611623 0.00230829