1920
Time=9000.00000000 pbc="T T T" Lattice="25.47667013 0.00000000 0.00000000 0.00000000 25.62236007 0.00000000 0.00000000 0.00000000 32.96086326" energy=-12245.68479860 virial="-55.17785106 24.97454807 5.93758286 24.97454807 -56.46565863 26.43536717 5.93758286 26.43536717 -72.55126395" stress="-0.00024784 0.00112638 0.00027124 0.00112638 -0.00027262 0.00130298 0.00027124 0.00130298 -0.00118124" Properties=species:S:1:pos:R:3:vel:R:3
O 5.52229794 3.07250970 6.27719609 0.00598188 0.00060834 0.00129772
O 1.83035589 4.16837815 15.52060925 0.00421173 -0.00170415 -0.00362404
O 2.06967335 9.99494834 1.28570407 -0.00284901 0.00657275 0.00279346
O 6.65250543 9.40627576 9.94042195 0.00200663 0.00001820 -0.00098912
O 2.75500572 10.46200570 9.69789923 -0.00017525 0.00096218 -0.01069172
O 5.73731454 8.67150275 1.26990130 -0.00112061 0.00200614 -0.00017745
O 6.42720272 3.20814965 14.80661898 0.00174391 0.00186807 -0.00437674
O 1.71014834 4.25491755 6.89581234 -0.00295762 0.00569688 -0.00595963
O 6.37144331 1.38352016 16.75216800 0.00019457 -0.00310536 0.00252358
O 2.55713719 5.48477779 9.19097824 -0.00285906 -0.00194392 0.00742320
O 2.27992948 11.58590501 7.56088448 -0.00265131 0.00611904 -0.00387553
O 6.52110654 7.44511638 31.93011787 0.00340715 -0.00017070 0.00552643
O 2.17392200 11.84551048 32.41452598 0.00028032 0.00130556 0.00197584
O 6.88979050 8.20087479 7.57067029 0.00152328 0.00117611 -0.00769674
O 5.87473172 1.32176647 8.50558615 0.00482032 -0.00032699 0.00220133
O 1.81007329 5.76228712 17.55582330 -0.00735103 -0.00710436 -0.00164880
O 5.83013768 3.07540178 22.73303026 -0.00086881 0.00076474 -0.00169860
O 3.13253919 3.88463246 31.63442002 0.00576987 -0.00589907 0.00379493
O 1.27939295 10.02157851 18.60616312 0.00764058 0.00354350 0.00165687
O 6.97858202 9.12889107 25.94745989 0.00824834 0.00289753 0.00657626
O 2.45089779 9.59002571 26.52623156 0.00904765 0.00340009 0.00106084
O 5.87700800 9.45152512 17.98892702 0.00641803 0.00377750 0.00287896
O 7.04292618 2.44024255 31.22736378 -0.00114046 -0.00340357 0.00292325
O 1.42505758 3.68981368 23.46938759 0.00043945 0.00850100 0.00058296
O 6.58836937 1.01576380 0.35158937 0.00270646 0.00149115 -0.00276933
O 1.65346990 5.24410802 25.67416833 -0.00346251 -0.00762817 0.00222015
O 2.47187986 11.64393731 24.47649103 0.00604656 0.00304815 0.00595374
O 6.21179731 7.98388088 15.99587988 0.00109950 -0.00136063 -0.00509343
O 1.32194858 11.00448623 16.29078101 -0.00089793 -0.00719069 0.00108988
O 6.06719565 7.58547477 23.96227634 0.00152157 -0.00053098 0.00014578
O 6.79642442 1.69366589 24.91442129 -0.00181417 0.00015898 0.00269734
O 2.29359684 5.19466711 0.62906626 0.00442036 0.00091946 0.00282730
O 5.89777018 15.03150077 7.32245759 -0.00457660 0.00106479 -0.00154101
O 2.25753589 16.46616593 15.19850725 -0.00380948 -0.00156083 0.00874874
O 1.79245158 22.71146926 1.03629663 -0.00256244 0.00721695 -0.00800218
O 6.42533288 21.84221807 8.86132642 0.00185803 -0.00092150 0.00356745
O 2.62180242 22.77289593 9.45531122 -0.00248835 0.00208004 0.00050578
O 6.09039211 21.95026938 1.22819508 -0.00461437 -0.00225529 0.00825092
O 6.91199910 15.24655669 15.39980550 -0.00366568 0.00347415 0.00564688
O 1.62355777 16.32686734 6.68509669 -0.00641045 0.00310057 -0.00089448
O 5.96825245 14.37333474 17.67998331 -0.00052429 -0.00177086 -0.00212301
O 1.85648074 17.81245981 8.89447993 -0.00452227 -0.00831261 0.00217269
O 1.86506332 24.51322090 7.22751607 0.00339135 -0.00727757 0.01157116
O 6.39037359 20.54474542 32.19219247 0.00846547 0.00451166 -0.00600406
O 2.27674625 24.33473886 31.96411542 0.00360420 0.00049073 -0.00078067
O 6.09180378 19.94935001 7.03401261 0.00420132 -0.00209043 -0.00197866
O 6.96257479 14.00432712 9.33222479 -0.00477494 -0.00426277 0.00283745
O 1.93511648 18.08258760 17.36576082 -0.00287789 0.00342500 0.00283334
O 5.93484781 15.40320734 23.91566794 0.00060238 -0.00040054 0.00007447
O 3.33518987 17.18221390 31.55760669 0.00267948 0.01050090 0.00026665
O 1.67718561 23.37040056 17.33236504 0.00644825 0.00172016 0.00172139
O 6.88180058 21.95048463 26.10590675 0.00869681 0.00128848 0.00399234
O 2.37882080 22.95431920 25.60682346 -0.00414197 0.00063624 -0.00072685
O 5.58639470 21.57107877 17.56560060 -0.00241654 -0.00627481 -0.00114278
O 7.14053572 15.72527434 32.05997982 -0.00139485 0.00334876 -0.00042835
O 1.32262315 16.40534883 23.38493564 0.00127322 0.00127269 0.00394717
O 6.89149374 13.82704539 1.07839467 0.00462996 -0.00133810 -0.00544963
O 2.17051518 17.56258319 25.50258696 0.00002212 0.00050388 0.00287617
O 2.61105531 24.60423883 23.69572580 0.00032364 -0.00325282 0.00098036
O 6.20956744 20.68239489 15.29893597 0.00078572 0.00268322 0.00334547
O 2.14744970 24.68934328 15.26188230 -0.00040273 0.01021255 0.00572586
O 6.69886517 20.48445512 23.84669145 0.00208558 -0.00461088 -0.00035853
O 6.79044336 13.97601146 25.96312841 0.00640299 -0.00718637 -0.00014677
O 2.22704626 18.08581027 0.74421037 0.00784736 -0.00219716 -0.00413982
O 14.54735792 2.37334652 6.60173105 0.00349334 -0.00493330 -0.00285387
O 11.18323689 3.59671953 15.11850372 -0.00476714 -0.00112074 0.00176449
O 10.76644952 10.24275313 1.47769103 0.00500926 -0.00241712 -0.00316714
O 15.13765841 8.55577032 9.60142150 0.00018343 0.00510190 -0.00401246
O 11.75365026 9.84343680 9.98917658 -0.00522714 -0.00042382 0.00040523
O 14.79466806 8.70167600 1.30547705 -0.00336878 0.00528818 0.00711487
O 14.99259196 2.60918860 15.03697418 -0.00327911 0.00266958 -0.00370396
O 10.21839057 3.63828965 7.35846292 -0.00214538 -0.00133189 0.00046039
O 14.70939126 0.97981847 17.01892407 0.00109179 0.00013050 0.00175496
O 10.95326025 5.42833294 8.94550927 -0.00232592 0.00433102 0.00372302
O 11.32206365 11.07288734 7.73080067 -0.00710091 -0.00332009 -0.00277775
O 15.04136338 7.11293919 32.25370378 -0.00323289 -0.00051697 -0.00438699
O 11.08401436 11.61737077 32.33005178 -0.00067696 -0.00026700 -0.00018283
O 14.35183080 7.31452596 7.53206473 0.00384237 0.00036130 -0.00358634
O 14.99235748 1.00540082 8.78461699 0.00329338 -0.00525724 0.01285258
O 10.91283109 4.89717082 17.26676396 0.00315377 -0.00691210 -0.00035677
O 14.26392071 3.20014992 23.01392332 0.00076314 0.00451799 0.00290038
O 11.24541867 3.86487737 32.01489077 0.00170458 0.00324899 -0.00025272
O 9.87232191 10.30426411 17.69951826 -0.00119352 0.00171994 -0.00119971
O 15.27734988 8.75849975 26.10790283 0.00146994 0.00571873 -0.00069544
O 11.01182394 10.05059862 26.12070559 0.00595924 0.00328246 0.00017688
O 14.17018869 9.27612976 17.95312387 -0.00170451 -0.00243714 -0.00636170
O 15.27272911 1.96138566 31.25106373 0.00005199 0.00566697 -0.00270939
O 10.11855135 3.74534659 23.46594051 -0.00444302 -0.00220556 0.00014098
O 14.60650152 0.56269896 0.60198817 -0.00520503 -0.00049377 0.00298718
O 10.51526722 4.96352170 25.69501635 0.00403048 0.00292874 0.00616329
O 10.63740345 11.44291377 23.89554275 -0.00377041 0.00410853 -0.00430316
O 14.58193336 7.57778483 16.02985420 0.00378618 -0.00509823 0.00631040
O 10.93465271 11.88223934 15.96419862 -0.00530016 0.00315179 0.00364902
O 14.99021681 7.56914855 23.79318961 0.00003352 0.00192148 -0.00406081
O 14.36748704 1.48817743 25.05107255 -0.00329295 0.00569523 0.00220049
O 10.41341160 5.04755022 1.18187463 0.00448846 0.00798933 0.00358932
O 14.78398418 15.15374807 7.18054995 -0.00150872 0.00224434 -0.00520286
O 11.21871316 16.78202742 14.92334205 0.00170095 -0.00278271 0.00434921
O 10.51944967 22.97709854 1.14753363 0.00512800 -0.00204768 0.00101509
O 15.52260921 21.89404718 9.48491181 -0.00607644 -0.00668321 -0.00406619
O 10.73322622 22.81251087 9.31732704 -0.00104145 0.00373248 0.00753836
O 14.89740671 21.80902923 1.37785848 0.00141164 -0.00477834 -0.00054026
O 15.38848213 15.44971572 15.79684362 -0.00240132 -0.00352972 0.00219479
O 10.52915545 15.96950399 7.05857097 -0.00131558 -0.00531273 0.00336965
O 14.50893723 13.85518703 17.66016065 0.00027927 0.00681722 -0.00376173
O 10.68773305 18.01899916 8.82610986 -0.00066285 -0.00130257 -0.00396865
O 10.13088078 24.60151413 7.34256930 -0.00811250 0.00089551 -0.00177221
O 14.76775534 19.98305597 32.32093880 0.00296839 0.00153649 0.00596719
O 10.43596513 24.60486046 32.12267701 -0.00196299 -0.00103448 -0.00169576
O 14.95787173 20.53534800 7.46147640 -0.00216182 -0.00953257 0.00295070
O 15.39734139 13.74986516 9.34527774 0.00159539 -0.00510060 0.00417046
O 10.73730524 17.85962321 17.15743620 0.00099968 -0.00462444 0.00411331
O 14.30944420 15.69067390 23.83107539 0.00171548 -0.00435915 0.00397704
O 11.35473160 15.84463403 31.48919787 0.00087779 -0.00082176 -0.00214810
O 9.92074228 23.26772419 17.58141071 -0.00357130 -0.00142007 -0.00293418
O 14.67963583 22.16986650 26.30724694 0.00183061 0.00186067 0.00256508
O 11.09707376 22.62866644 26.01037043 -0.00453021 0.00273615 0.00539073
O 14.08712823 22.09234142 17.73668690 0.00124448 0.00474119 0.00008097
O 15.85568947 15.01888052 31.84016351 0.00430649 -0.00495028 -0.00002552
O 10.32363703 16.09009011 23.22069566 -0.00603266 0.00099059 -0.00123261
O 15.51431810 13.73831746 0.96045464 0.00534342 -0.00107829 0.00487524
O 10.16830296 17.50464760 25.44862319 -0.00618583 -0.00360052 0.00154828
O 9.70794356 24.93296735 23.74267835 -0.00351550 -0.00126320 -0.00455014
O 14.51496166 20.53973988 15.61164835 0.00444903 0.00048461 0.00154676
O 10.36249466 24.49381994 15.41839707 -0.00652211 -0.00467376 -0.00026883
O 14.76163067 20.97445893 24.00675649 0.00972946 0.00097700 0.00006736
O 14.78093319 13.87380619 25.63368428 -0.00024772 0.00716230 0.00759351
O 10.88403075 17.78348051 0.78327020 -0.00082734 0.00707347 -0.00328544
O 22.98939065 3.21566666 6.49819735 0.00285709 -0.00196123 -0.00433900
O 18.71304260 3.96901218 15.35856119 0.00173440 -0.00447448 0.00114937
O 18.45260983 10.09383836 1.32877200 0.00229501 0.00165287 -0.00051053
O 23.37754139 9.60271717 9.30632170 -0.00586593 0.00191208 0.00234975
O 19.47037739 10.37949999 9.67872542 -0.00309437 0.00056300 0.00084070
O 22.51394889 8.90556568 0.91683698 0.00129815 -0.00101059 0.00670522
O 23.99527188 2.80425299 14.85314795 -0.00311440 0.00186299 -0.00340116
O 18.44625241 3.83038165 6.95545287 0.00718804 -0.00050853 0.00255176
O 23.36112224 1.38308521 17.00555792 -0.00151641 -0.00053270 -0.00671538
O 19.14670393 5.12940150 9.08443414 -0.00306061 0.00381100 -0.00099566
O 18.84590349 11.75196841 7.29483426 -0.00702209 0.00590039 0.00270490
O 23.29935116 7.33157192 31.96274476 0.00173024 -0.00272034 0.00249939
O 19.52424348 11.25911468 32.27050288 -0.01207897 -0.00359749 -0.00050238
O 23.82869238 8.07987292 7.22309869 -0.00559099 -0.00375635 0.00104409
O 23.07445715 1.42987541 8.71061154 0.00603716 -0.00052930 -0.00655018
O 18.89915099 5.72076372 17.16202248 -0.00377087 -0.00221600 -0.00162610
O 22.52227806 2.45064936 23.39060819 0.00401333 -0.00537066 -0.00395747
O 19.07928225 4.05762178 31.79001151 -0.00631619 0.00690582 0.00711017
O 18.45881312 10.14823396 17.97373546 -0.00319076 0.00139358 0.00402100
O 23.22369014 9.14787934 25.78749020 0.00552743 0.00060518 0.00029032
O 18.68558792 10.05873691 25.90877449 -0.00346654 -0.00081520 -0.00330547
O 22.88068699 8.95159579 17.71366953 -0.00036678 0.00345349 0.00985433
O 24.09786543 2.64744170 31.36743952 -0.00079054 -0.00322983 0.00665572
O 18.66014463 3.58129794 22.95832433 0.00372636 -0.00627618 -0.00634617
O 23.81334102 1.24181435 0.54561634 0.00203184 -0.00547502 -0.00507612
O 19.48828153 4.35331352 25.25884178 0.00027787 -0.00267749 0.00591717
O 18.39326014 11.97032439 23.90054903 -0.00537294 0.00031814 0.00090167
O 23.61096534 7.68094914 15.34917507 -0.00192669 -0.00363489 -0.00475844
O 19.05588904 11.53874315 15.80817547 0.00326082 -0.00559320 -0.00086724
O 22.74673629 7.28492901 23.95502219 -0.00022539 -0.00354601 -0.00303251
O 23.18246434 1.00501955 25.35518381 0.00053791 -0.00916770 -0.00561409
O 18.97782205 5.30120456 1.10405519 0.00546005 -0.00385750 -0.00439515
O 22.72308829 15.97751777 6.98402877 -0.00139337 0.00324433 -0.00034923
O 19.50789444 16.39293902 15.32973957 0.00362262 -0.00990283 0.00117679
O 18.72455034 23.31356374 0.46915047 0.00323685 -0.00633067 -0.00237521
O 23.77356833 21.96698189 9.40460666 0.00347073 -0.00017358 0.00700156
O 19.43504455 23.43187928 9.06720677 0.00061821 -0.00267470 -0.00186386
O 23.24947678 21.79625627 1.02331340 -0.00147144 0.00278119 0.00727890
O 23.64805303 15.55999221 15.93208133 -0.00540063 0.00287222 0.00777287
O 19.04725329 16.53231870 7.31562354 0.00245738 -0.00369211 -0.00039908
O 23.28178037 14.15973511 17.98425000 -0.00017014 0.00759166 0.00148121
O 19.06127731 18.26421142 9.16658575 -0.00212755 -0.01089376 0.00379156
O 19.26018067 24.44061120 6.77218519 0.00442602 -0.00289027 0.00009295
O 23.72499134 20.33005626 31.91620122 -0.00312856 -0.00349834 -0.00498363
O 19.69253789 24.49514252 31.37233029 0.00011679 -0.00427241 -0.00251351
O 23.24936565 20.46474498 7.19943976 -0.00533667 -0.00463167 0.00461642
O 22.95099385 14.34031142 9.17056526 -0.00107175 0.01037166 -0.00560259
O 19.63851164 17.77706410 17.71152606 0.00159537 0.00141531 0.00499465
O 22.36210877 15.12086539 23.92124163 -0.00729356 0.00002420 0.00401081
O 19.57483163 16.61657764 32.08311664 -0.00300198 -0.00292078 -0.00091924
O 18.80953208 23.07108556 17.13483396 0.00386801 0.00214530 0.00098278
O 23.47754504 21.80682994 25.69729934 -0.00635243 -0.00307108 0.00053682
O 19.33777591 22.82597795 25.46955990 0.00324631 -0.00233149 0.00852319
O 23.01162958 22.05373768 17.64729562 0.00325221 -0.00000885 0.00160750
O 23.83033765 15.24102953 32.42982084 -0.00283634 -0.00070189 0.00675227
O 17.85201838 17.02270874 23.69987802 0.00084204 0.00509015 0.00030571
O 23.08863259 13.62848844 1.35800606 -0.00381877 -0.00111034 -0.00395205
O 18.68103548 18.02528916 25.93722691 -0.00202508 -0.00220648 -0.00664357
O 18.60008555 24.35118877 23.45900488 0.01176883 -0.00166083 0.00130287
O 23.65754690 20.15466946 15.57607122 0.00765862 -0.00123117 0.00101555
O 19.03137906 24.68710882 15.10594939 0.00318686 -0.00415304 0.00721140
O 23.43992650 20.06156233 23.87609611 -0.00797974 -0.00535073 -0.00276244
O 23.19162264 14.13059015 26.10007406 -0.00181777 -0.00050876 -0.00262323
O 19.13691416 18.12537817 1.11740138 0.00495030 -0.00057192 -0.00293334
N 7.74064822 12.45957282 2.76692452 -0.00818357 -0.00613514 0.00188515
N 1.15306377 6.51476419 10.57008112 0.00167899 -0.00131804 0.00217145
N 3.09940842 25.59112325 5.60668868 0.00464469 0.01013881 0.00545991
N 5.22842266 6.53278483 14.46581404 -0.00678574 0.00388330 0.00372087
N 0.84961617 0.10598186 13.69720104 -0.00361807 0.00194677 -0.00177065
N 7.98835242 6.88865279 6.01920248 0.00266315 0.00369116 -0.00538375
N 5.59153091 12.81513179 10.70248289 -0.00584445 -0.00541029 0.00208455
N 3.56315173 6.37416566 2.15403560 0.00031617 0.00127311 -0.00214086
N 7.36988543 13.24380726 19.07871517 -0.00293457 0.00929421 -0.00629768
N 0.69879838 6.43562211 27.39443587 -0.00296857 -0.00208873 0.00510674
N 3.26772519 0.36854242 21.93215592 -0.00436448 0.00278806 0.00349257
N 5.33371942 6.28074954 30.42731362 0.00019994 0.00228209 -0.00499541
N 1.20134929 25.49782094 30.31979320 -0.00450339 0.00704627 0.00160309
N 7.30496812 6.56836107 22.39749921 -0.00316821 0.00039806 -0.00224012
N 5.41000684 13.03614197 27.54884150 -0.00452349 0.00646775 0.00581086
N 3.19694885 6.64691166 19.15731103 0.00125326 -0.00296189 -0.00000044
N 8.11035376 0.31117644 2.01765197 0.00317642 0.00198240 -0.00089002
N 0.72343797 19.05488366 10.46408012 -0.00608139 -0.00376517 -0.00231483
N 3.49599103 12.81978485 6.04098734 -0.00156000 -0.00426426 -0.00226508
N 4.91768164 19.58166310 13.77433235 -0.00304544 0.00221133 -0.00035831
N 0.62325719 12.40218237 14.46939744 0.00344102 0.00197966 0.00621530
N 7.79534487 19.22508511 5.65518651 -0.00290355 0.00201392 -0.00143751
N 5.02437389 0.21783994 10.28473544 0.00399303 -0.00483926 0.00005766
N 3.32371170 19.30716037 2.34474251 0.00131892 -0.00160725 0.00200823
N 7.47578533 0.23664073 18.41040093 0.00055297 0.00247776 0.00194780
N 0.95691191 18.80019533 26.91985858 0.00303798 -0.00132959 -0.00314459
N 3.36873844 12.91622505 22.76370450 0.00232527 -0.00023477 0.00405697
N 5.50854267 19.04812576 30.73687094 0.00321249 -0.00924333 -0.00125577
N 1.33302135 13.04421878 30.75755623 -0.00134852 -0.00185530 0.00071276
N 7.57453564 19.20184376 22.14193501 0.00328259 0.00276566 -0.00327549
N 5.54126120 0.31433581 26.32529384 0.00081057 0.00004065 -0.00164640
N 2.93025976 19.18178912 19.12425638 -0.00544327 -0.00492941 -0.00620334
N 16.44152689 12.57663528 2.62646731 -0.00864433 -0.00005982 0.00205624
N 9.43233630 6.27718943 10.48683843 -0.00654904 -0.00017116 -0.00154321
N 11.65841974 25.47671209 5.89155498 0.00647604 0.00089910 0.00192000
N 13.93059800 6.08856145 14.37868887 0.00911620 0.00194091 -0.00360337
N 9.46378060 0.20813239 13.76284423 0.00074173 0.00502793 0.00127318
N 15.84526924 6.14937836 6.22955015 -0.00516074 -0.00024388 -0.00271671
N 13.91403000 13.07663146 10.97799316 -0.00006876 -0.00075047 0.00034812
N 11.99991831 5.93017814 2.60794233 -0.00595629 -0.00042132 0.00185090
N 15.88942596 12.98664749 19.22173629 -0.00122049 0.00667147 -0.00133162
N 9.34433102 6.05015995 27.32635483 0.00286999 0.00338547 -0.00210562
N 11.38515107 25.61069658 22.42179986 0.00258645 0.00999501 0.00204125
N 13.86413893 5.98949159 30.62356849 0.00001485 0.00469171 0.00120961
N 9.28977680 25.57528808 30.39788273 -0.00314777 0.00316754 -0.00515169
N 16.24566124 6.38273710 22.25041688 -0.00009130 -0.00018818 -0.00264912
N 13.52457799 12.79562405 27.28832160 -0.00039913 0.00051599 -0.00056212
N 11.58506464 6.37074158 18.85127815 -0.00153794 -0.00488498 0.00187105
N 16.02254541 25.09391239 2.08602557 -0.00207833 -0.00422581 -0.00063088
N 9.26430640 18.88893063 10.41786942 0.00424767 -0.00426284 0.00040596
N 12.24311666 12.61895703 6.25286231 -0.00586988 -0.00315946 -0.00094419
N 13.35111852 19.46519790 13.91680768 -0.00167878 -0.00216135 0.00176472
N 9.55787575 12.58194726 14.14139510 -0.00146925 0.00352468 -0.00261364
N 16.18545793 19.15522966 6.09163771 0.00327584 -0.00003251 -0.00040916
N 13.63566003 25.61544217 10.34205865 0.00752293 -0.00246335 -0.00021200
N 12.15211801 18.85278424 2.40623645 0.01010537 -0.00209190 0.00290758
N 15.43820461 25.41640934 18.87725963 0.00409701 -0.00486894 -0.00056059
N 9.55324967 18.92684961 27.13759196 -0.00369496 0.00206421 -0.00662943
N 11.78490577 12.53448530 22.31528978 -0.00433324 -0.00147806 -0.00297170
N 14.17039669 18.60850014 30.55715280 -0.01127098 -0.00881873 0.00134945
N 9.79651626 12.87467647 30.94354020 -0.00284126 0.00497415 0.00846828
N 16.02077521 19.77730959 22.38319322 -0.00395162 -0.00843588 -0.00232361
N 13.55609459 25.57628009 26.51766048 -0.00366938 0.00067695 -0.00353969
N 11.58280026 19.19441489 18.90811511 -0.00650627 -0.00140132 -0.00057361
N 24.79487639 13.10186328 2.80158792 0.00483692 -0.00216634 -0.00351985
N 18.06572699 6.46769246 10.52950008 0.00023791 0.00330963 -0.00359067
N 20.61466970 25.37127835 5.24269563 0.00887636 -0.00135063 0.00483646
N 22.16043160 6.67069798 13.88061324 0.00426969 0.00520140 0.00259117
N 17.77834207 0.26527680 13.56117576 0.00488567 -0.00072699 0.00565191
N 24.88135271 6.98244310 5.43876055 0.00171266 0.00047557 -0.00139767
N 22.11585727 13.24316170 11.02820023 0.00232374 0.00495363 -0.00367119
N 20.11345315 6.44611742 2.59851028 -0.00655616 -0.00437009 0.00567756
N 24.61116332 13.00303603 19.45698555 -0.00133363 0.00434749 -0.00169062
N 17.97615847 5.61561475 26.56724939 -0.00240770 -0.00321653 0.00340285
N 20.13020992 25.43454648 22.07120278 0.00143803 -0.01119255 0.00348282
N 21.67539356 6.67172365 30.49816782 -0.00374058 -0.01084339 -0.00461281
N 18.10077969 25.46972085 30.12800372 0.00505129 0.00474694 0.00079438
N 24.36877280 6.64692202 22.54460041 -0.00292688 0.00191540 0.00028076
N 21.89734536 13.02795629 27.67692432 0.00465394 -0.00208097 0.00511415
N 20.29782989 6.62486009 18.72917166 0.00080009 -0.00307087 0.00116261
N 24.84201610 0.10435391 2.24208585 -0.00575636 -0.00641423 0.00529146
N 17.64923167 19.10624314 10.78798506 0.00513316 -0.00184452 -0.00720854
N 20.50837436 12.55123690 5.87577801 -0.00386160 -0.00145068 0.00266971
N 22.03895220 19.49438591 14.09358225 0.00506674 -0.00380497 0.00136370
N 17.90527859 12.89416800 14.34912125 0.00135338 0.00182881 0.00167343
N 24.35219411 19.20668348 5.71724877 0.00242483 -0.00284463 0.00192446
N 21.87939086 0.33582028 10.43144462 -0.00905158 0.00952424 0.00034161
N 20.48072950 19.16889169 2.63256562 -0.00269066 -0.00003872 -0.00040395
N 24.46225854 0.22201820 18.61337251 0.00617687 0.00479997 0.00310452
N 17.70892759 19.25600581 27.53872234 -0.00036749 -0.00475671 0.00545865
N 19.91426901 12.98663881 22.43681925 -0.00438130 0.00470300 0.00135902
N 22.26478696 19.32651498 30.52697985 -0.00518740 0.00580067 0.00048214
N 18.39068056 12.77922222 30.90987557 0.00480553 -0.00071019 -0.00501289
N 24.43667015 19.01491906 22.06962272 0.00274787 -0.00383098 -0.00400302
N 22.21283918 25.45765146 27.02717003 -0.00233745 0.00665355 -0.00056080
N 19.96730477 19.44707884 19.21822619 -0.00112639 -0.00680287 0.00191822
C 7.55066433 0.54246485 4.50638364 -0.00196372 0.00420121 0.00063793
C 0.99963328 6.55257727 12.89219855 -0.00886770 0.00546523 -0.00372565
C 3.47167595 12.63993919 3.57323812 -0.00114806 0.00608177 -0.00051004
C 5.29494047 6.82919575 12.10159526 0.00240100 0.00909917 -0.00168635
C 0.70960974 12.40493863 12.08570192 -0.00082501 0.00420195 0.00165118
C 7.64812621 6.73990437 3.57803674 -0.00432686 -0.00446574 -0.00275645
C 5.12641607 0.49342764 12.73126500 0.00220126 -0.00515171 0.00310173
C 3.63457583 6.16520576 4.47850814 0.00190839 0.00392826 0.00126781
C 7.00103214 1.29068400 5.49526732 -0.00002807 -0.00333670 -0.00436017
C 1.15131351 5.95425698 14.15891910 -0.00881858 0.00684841 -0.01023168
C 3.25195978 11.89020099 2.39693313 -0.00184425 0.00468519 0.00212458
C 5.68432582 7.48391790 10.95719403 0.00621519 -0.00185290 -0.00242270
C 1.14966021 11.90943507 10.89375310 0.00041469 -0.00283384 -0.00623686
C 7.21840504 7.20648827 2.33722629 0.00313283 -0.00245102 0.00159700
C 5.30626833 1.33118878 13.79868043 -0.00156373 -0.00440535 0.00871869
C 3.25861498 5.64354482 5.70713603 -0.00542917 0.00311590 -0.00326272
C 6.15410560 2.34605463 5.22227214 0.00167680 0.00192308 -0.00787744
C 1.69878762 4.67853982 14.29352159 0.00499218 -0.00116147 -0.00038591
C 2.42890262 10.66614960 2.41806800 0.00255920 0.00324403 0.00006907
C 6.31817677 8.74094579 11.03739207 0.00859986 0.00588269 -0.00346246
C 2.20536002 10.91278485 10.83221206 0.00296350 -0.00604171 -0.00460375
C 6.39252708 8.32583917 2.37594437 -0.00092860 -0.00090835 -0.00645676
C 6.04097579 2.50803525 13.72955001 0.00349533 -0.00144090 -0.00229194
C 2.35773895 4.57405532 5.72313269 -0.00846113 -0.00277179 -0.00724757
C 6.07882476 2.82428454 3.90857680 0.00038136 0.00780291 -0.00443032
C 2.15630380 3.99682664 13.08954920 -0.00902546 -0.00692446 0.00397878
C 2.11093793 10.24477755 3.71050587 -0.00788721 0.00193789 -0.00283392
C 6.73311269 9.09585777 12.31705365 -0.00955498 -0.00443019 0.00619982
C 2.44071510 10.26210251 12.04119908 -0.00370608 0.00620886 -0.00580238
C 6.25549981 9.07151283 3.56419936 0.01172638 0.00160422 -0.00177499
C 6.54542133 2.80294635 12.43184815 -0.00356084 0.00010736 -0.00129063
C 2.06899723 3.92633875 4.53460202 0.01346996 -0.00549808 -0.00404900
C 6.75304835 2.21668059 2.87553253 -0.00094796 0.00049670 -0.00311289
C 2.06795538 4.62140326 11.88608865 -0.00256493 -0.01019326 -0.00410892
C 2.58315278 10.78835343 4.88081457 -0.00203537 0.00265611 -0.00255042
C 6.15739952 8.57808237 13.46041586 -0.00983374 -0.00732429 0.00415360
C 1.97492295 10.63795354 13.30654216 0.00103695 -0.00507418 -0.00524645
C 6.80948383 8.64016400 4.75166676 0.00263300 -0.00218048 0.00389886
C 6.10634842 2.14931366 11.31691842 -0.00084890 -0.00045533 -0.00036258
C 2.53612384 4.42598020 3.28539669 0.00009634 -0.00024588 0.00364761
C 7.37871093 0.95288252 3.10467803 0.00167460 0.00564266 0.00875088
C 1.52677414 5.92905669 11.79564472 0.00614140 0.00341658 -0.00223592
C 3.20358158 12.11548850 4.86262394 -0.00732874 0.00770709 -0.00460033
C 5.51579941 7.32766649 13.38202396 0.01066016 -0.00206278 0.00603118
C 1.10619755 11.81006428 13.32643557 -0.00322216 0.00052762 0.00880188
C 7.47275459 7.41217745 4.79270035 0.00293018 0.00244121 -0.00216329
C 5.39051915 0.95470211 11.43163562 -0.00433745 0.00011020 0.00159057
C 3.27441235 5.61772715 3.28189566 -0.00356056 0.00070872 -0.00585856
C 7.35277386 0.19191500 0.82624354 0.00157114 0.00036350 0.00473852
C 1.83335551 6.43188431 9.40276698 0.00141090 -0.00119709 0.00122966
C 2.84895939 12.64526241 7.26804776 0.00125974 0.00905086 -0.00941435
C 5.69155778 6.89628382 15.72322375 0.00278536 -0.00266709 -0.00311302
C 1.20997038 12.12558885 15.73741699 -0.00616861 0.00120069 -0.00001036
C 7.24199115 7.08984418 7.16248062 -0.00205513 0.00254885 -0.00104882
C 5.55595620 0.29726967 9.05132654 0.00398575 0.00360324 -0.00033387
C 2.96035270 6.19749436 0.92438802 0.00671405 0.00283472 -0.00231419
C 6.87171862 12.23376480 16.98253338 -0.00134422 0.00120722 -0.00243285
C 1.66203723 7.60666258 8.43446208 -0.00237448 0.00427431 -0.00086210
C 2.72083235 1.07861951 7.57290920 0.00113408 0.00259553 0.00540788
C 6.03879718 5.21194325 32.56939601 -0.00475598 0.00173242 -0.00245250
C 1.54555952 0.98445120 32.39554263 -0.00406642 0.00381885 0.00737468
C 7.01250500 5.77359649 7.87261838 0.01090525 0.00068764 -0.00538870
C 6.11460823 11.92536138 8.51275081 -0.00064082 -0.00877741 -0.00481066
C 2.92082587 7.76368929 17.00464963 -0.00152524 0.00155801 0.00352591
C 7.48136314 0.63379365 20.80751605 -0.00147226 -0.00095615 -0.00901792
C 0.69708672 5.82835423 29.74002508 0.00080985 0.00058060 -0.00042223
C 3.10474218 12.54956098 20.36454175 0.00854707 -0.00365401 -0.00242059
C 5.04996387 6.88343122 28.10684140 0.00521289 0.00169433 -0.00030870
C 1.12946988 12.45710710 28.46283441 -0.00131417 -0.00965182 0.00310884
C 7.40959795 6.91794130 20.04983530 -0.00404863 -0.00080500 -0.00204083
C 5.25123614 0.36686297 28.74655550 0.00113897 0.00973309 0.01209797
C 3.20955877 6.16233414 21.56848136 -0.00053707 0.00108129 0.00257122
C 7.40770755 1.52215944 21.85420233 0.00527126 0.00398040 -0.00222668
C 1.28348954 5.22426921 30.86813269 -0.00028527 -0.00776264 0.00341072
C 2.80212593 11.80487477 19.27793759 -0.00221734 0.00360602 -0.00065004
C 5.40899768 7.58326700 27.00590922 -0.00296965 0.00206103 0.00507069
C 1.36807473 11.61457413 27.39331740 0.00103109 -0.00163288 0.00172235
C 7.14140951 7.70511406 18.96460553 -0.00191987 0.00526772 -0.00459972
C 5.58483245 0.81382125 30.02360257 0.00665703 -0.00463136 -0.00516001
C 2.84198678 5.38501618 22.63878154 -0.00367107 0.00493822 -0.00228089
C 6.51174940 2.57297688 21.63704036 0.00160825 -0.00017191 -0.00794873
C 2.36507189 4.32247344 30.61880943 0.01147726 -0.00423113 -0.00388444
C 2.03927656 10.59023143 19.51969413 0.00717510 -0.00089552 -0.00528894
C 6.42659343 8.59193798 27.08618134 0.00133666 0.00087708 0.00466407
C 2.03698694 10.38908421 27.65340381 -0.00254577 -0.00034300 -0.00334200
C 6.30542291 8.79007212 19.06492187 0.00171142 -0.00822042 -0.00158531
C 6.48795506 1.94641541 30.05976045 -0.00013545 0.00811920 0.00272784
C 1.95298687 4.33050340 22.42063884 -0.00215935 0.00082144 -0.00156617
C 6.24724298 3.02830554 20.39306759 -0.00279875 -0.00460039 0.00669691
C 2.62687241 3.86735052 29.33187049 -0.00627005 -0.00264630 -0.00166824
C 1.78167241 10.16190158 20.83629402 0.00299689 0.00564732 0.00354334
C 6.76909535 9.02380736 28.38220429 -0.00229459 0.00327225 -0.00197821
C 2.15508595 9.86221517 28.94429427 -0.00076689 -0.00546084 0.00541157
C 5.96200700 9.31262338 20.31055739 -0.00097047 0.00045175 -0.00097460
C 6.86599232 2.60935960 28.91440596 0.00041305 0.00324837 -0.00388688
C 1.79872118 3.88960871 21.13222903 0.00308208 -0.00553100 -0.00078760
C 6.68496568 2.35126911 19.28038464 0.00158947 0.00372608 0.00020359
C 2.02357503 4.45842625 28.25920822 0.01095984 0.00093894 0.00579946
C 2.31887872 10.81719144 21.93515936 -0.00038913 0.00410701 0.00791822
C 6.21249863 8.40367043 29.49555345 -0.00066439 -0.00938389 -0.00169620
C 1.84902105 10.71196489 30.04773088 0.00536755 -0.00441776 -0.00225123
C 6.12584308 8.44271404 21.39968857 0.00636425 0.00379949 -0.00333880
C 6.43631989 2.19300736 27.65565582 -0.00109806 0.00560428 0.00496340
C 2.23220722 4.56888374 20.01566164 0.00174351 0.00042224 -0.00434848
C 7.21488437 1.03874881 19.47618140 -0.00093407 -0.00216227 -0.00022355
C 1.08159988 5.58322058 28.44589584 0.00785453 -0.00777853 -0.00432571
C 2.91537696 12.10291230 21.70477376 0.00570435 0.00640936 0.00611727
C 5.56734822 7.14961810 29.35192651 -0.00657677 -0.01288894 -0.00629941
C 1.52796073 12.08076618 29.75340936 0.00214046 0.00868366 0.00152239
C 6.93152633 7.38164218 21.29879758 -0.00079764 0.00216650 0.00127154
C 5.79904426 0.94857787 27.55371029 0.00024300 -0.00072477 -0.00435008
C 2.84892218 5.82183038 20.23918221 0.00044771 -0.00337044 0.00948107
C 6.91083675 0.37948895 17.15718877 -0.00203701 0.00303688 0.00599442
C 1.14366890 6.27519945 26.11000238 -0.00919303 -0.00290431 -0.00109145
C 2.85572707 12.72650581 24.01472480 0.00643877 0.00288949 -0.00285679
C 6.00536686 6.40217680 31.60940358 0.00186932 0.00209649 0.00564021
C 1.94490151 12.96190706 31.93985716 0.00477524 0.00277782 -0.00758621
C 6.70338157 6.55947055 23.62527344 -0.00423092 0.00259798 -0.00318095
C 6.21515716 0.62785268 25.16791470 -0.00292185 -0.00199491 0.00799384
C 2.60124693 6.64396981 17.95685760 0.00330743 0.01592633 -0.00513207
C 7.37067870 11.57994801 0.54554788 -0.00051330 -0.01237994 -0.00878205
C 0.81122008 7.45343013 25.25543490 0.00199446 -0.00182520 -0.01025237
C 3.15572209 1.23617789 24.16936286 0.00052431 -0.00130556 0.00201165
C 5.59890062 5.82117867 16.74379396 0.00112773 -0.00076173 0.00909158
C 1.29217862 1.16739559 15.90902026 -0.00008060 -0.00346754 0.00316814
C 6.82163735 5.30131939 24.48930589 0.00553023 -0.00632686 -0.00142859
C 5.82829786 11.85750038 25.41639426 0.00028444 0.00417772 0.00709336