1920
Time=65000.00000006 pbc="T T T" Lattice="25.62245689 0.00000000 0.00000000 0.00000000 25.46040435 0.00000000 0.00000000 0.00000000 32.94267774" energy=-12247.35560715 virial="-82.95043167 15.23501130 -3.74413934 15.23501130 -62.99580870 1.29479193 -3.74413934 1.29479193 -40.97660527" stress="-0.00160578 0.00073305 -0.00021735 0.00073305 -0.00057510 0.00007439 -0.00021735 0.00007439 0.00041948" Properties=species:S:1:pos:R:3:vel:R:3
O 5.65947795 2.94154561 6.52894570 -0.00418727 0.00219175 0.00088988
O 2.77824301 3.94745212 15.20535991 0.00424963 -0.00197583 0.00763565
O 1.70328988 9.78461396 1.96147316 0.00365131 -0.00127332 0.00433523
O 6.75604386 8.55641427 9.60392984 -0.00226039 -0.00110376 -0.00073601
O 2.29119774 9.76679538 10.08178515 0.00547786 0.00667098 0.00479324
O 6.03565350 9.14743150 1.49291125 -0.00017339 0.00037728 0.00252416
O 7.08081431 2.68332612 14.66744933 -0.00374908 0.00444069 -0.00455766
O 1.61134002 3.70875529 6.84792902 -0.00466762 -0.00179506 -0.00512345
O 6.64362652 1.21132212 16.85356914 -0.00096534 -0.00925642 0.00378871
O 2.08483637 5.15710094 9.16564680 -0.00588439 -0.00292390 0.00258203
O 2.19666586 11.29002800 7.94306096 0.00231087 -0.00343820 -0.00370694
O 6.44686570 7.86476741 32.25026894 -0.00230969 -0.00231870 -0.00179579
O 1.96594941 11.22131707 32.54060788 -0.00348485 0.00436725 -0.00272221
O 6.33593711 7.18409984 7.41237218 -0.00378997 0.00532765 -0.00032494
O 6.18432479 1.23367317 8.51936614 -0.00174507 0.00013848 0.00516819
O 1.97018896 5.33528445 17.30214158 0.00189776 -0.00082682 -0.00071022
O 6.19568522 2.50334732 23.01956055 0.00597527 -0.00815529 0.00430539
O 2.66554074 3.91030179 31.53693203 0.00290987 -0.00083437 0.00326792
O 1.37106852 10.04793972 18.36270962 0.00459868 -0.00085544 0.00033367
O 6.87753987 9.02523342 25.93071630 -0.00261435 0.00430059 -0.00290677
O 2.64865594 9.72159405 26.14971298 -0.00328646 -0.00136843 0.00494038
O 5.74481607 9.08674453 17.93645408 -0.00448783 0.00286286 0.00463556
O 6.46685443 3.02412023 31.41052978 0.00240614 0.00632414 0.00385004
O 1.42743454 3.51471665 23.25281273 -0.00323363 -0.00039451 0.00367430
O 6.34101798 1.15214421 0.42551924 -0.00289607 -0.00323157 -0.00103038
O 1.84616233 4.98843259 25.28323894 -0.00122257 -0.00213184 0.00486254
O 2.48345838 11.73768988 24.34423602 0.00496680 -0.00339841 0.00220191
O 6.24692186 7.45609400 15.97453245 -0.00226549 0.00374152 0.00492249
O 2.07772902 11.44368767 16.26655819 0.00277958 0.00087618 0.00515060
O 6.30213282 7.35001740 24.04947892 -0.00296247 -0.00453150 0.00065422
O 6.48270729 1.19285657 25.25102035 -0.00251835 -0.00112672 0.00415454
O 1.82299224 5.35252150 0.66245716 0.00034265 -0.00106791 -0.00612277
O 6.11784864 15.63237957 7.56950664 0.00341438 0.00705551 0.00548746
O 2.44123856 16.34120657 15.25550195 -0.00519609 0.01083586 0.00073643
O 1.47006590 22.61244141 0.72270328 -0.00094765 0.00103963 -0.00260597
O 6.93105495 22.04891861 9.24395221 -0.00024573 -0.00592742 0.00007777
O 2.67753213 22.86711872 9.10056583 -0.00112359 -0.00120984 0.00313120
O 5.67547013 21.92515169 1.24762929 0.00029845 -0.00378496 -0.00152277
O 7.23607018 15.65107947 15.45977961 0.00680213 0.00188486 0.00055154
O 1.92855210 16.65923635 7.22123084 0.00163335 0.00185923 -0.00804759
O 6.80382319 14.29981939 17.62456416 0.00075971 -0.00130620 -0.00586283
O 2.58765583 18.15089397 9.22853859 0.00378746 -0.00139212 0.00081308
O 2.11925423 24.20914646 6.93088804 0.00304777 -0.00228066 0.00257346
O 5.78230016 20.02420306 32.42806605 0.00077405 0.00643507 -0.00221728
O 1.80261455 24.20230799 31.66557012 -0.00822937 -0.00571590 -0.00279408
O 6.36132145 20.45045260 7.24410803 0.00697525 0.00359778 -0.00043194
O 5.67370631 13.94130174 9.42498753 0.00231217 -0.00394391 0.00420684
O 1.94052751 18.05620918 17.23985686 -0.00359714 0.00409125 -0.00738075
O 6.16958384 15.78818433 23.80942317 -0.00377887 -0.00789673 0.00066909
O 2.55600383 16.27538630 31.78591905 0.00748064 0.00009016 0.00077247
O 1.26551048 22.81451131 17.33761292 -0.00225328 0.00166176 -0.00219280
O 7.51866805 21.51619610 26.44605292 0.00331042 0.00325395 0.00172942
O 3.16684619 22.81856883 25.61578861 0.00104107 -0.00048768 -0.00152857
O 6.08822962 22.06278644 17.89015556 0.00498033 0.00329489 -0.00384758
O 7.42349364 15.24267956 31.80771302 0.00012893 -0.00029111 0.00486369
O 1.52274420 16.48186585 23.42226346 -0.00116869 -0.00279936 -0.00176306
O 6.69628229 14.35669421 1.24918596 0.00666558 -0.00632830 0.00150549
O 1.74637556 17.82366247 25.70414893 -0.00752788 0.00061985 0.00520924
O 2.32692228 24.20104194 23.53757749 -0.00049426 0.00044218 -0.00382511
O 6.29540080 20.94762079 15.59176953 0.00745652 -0.00488877 -0.00347641
O 1.84684392 24.51996125 15.20628600 0.00321421 -0.00079786 -0.00358593
O 6.62727451 20.59934895 24.17923616 -0.00177085 0.00131585 0.00310250
O 5.88348037 14.05600986 25.65326299 -0.00173695 0.00281328 -0.00058109
O 2.06758108 17.77525230 1.00544132 0.00876828 -0.00453992 -0.00568858
O 14.42986183 2.32223779 6.60000740 -0.00531970 0.00096456 -0.00469534
O 10.82732947 3.82052892 15.26642893 -0.00176446 -0.00182233 0.00019850
O 10.16686449 9.48219928 1.67761515 -0.00122168 -0.00001892 -0.00428549
O 15.66814837 8.85375355 9.59116192 0.00685019 -0.00186052 0.00005134
O 11.19176151 10.20942439 9.83737355 0.00715298 0.00129466 0.00283554
O 14.45624357 8.90114075 1.37247131 0.00023649 0.00146551 0.00313113
O 14.99781836 2.91605912 14.82184732 0.00750427 -0.00164104 0.00158453
O 10.25223603 3.63389013 6.75762722 0.00528437 0.00228442 0.00183497
O 14.52945779 1.37857667 16.85087132 0.00243048 -0.00270255 -0.00012876
O 10.50076373 5.07190600 8.81390146 0.00072878 0.00427574 0.00107422
O 10.69861781 11.80158907 7.66185863 0.00024001 -0.00989494 -0.00794653
O 15.08253834 7.48504406 32.16058725 0.00456585 -0.00282273 -0.00437777
O 10.17706010 11.22267666 32.71598899 0.00676916 0.00289583 -0.00036773
O 14.72328530 7.63122694 7.66017146 -0.00090983 -0.00006213 0.00322228
O 15.11367733 1.21541589 8.73577735 -0.00006961 0.00631820 -0.00999063
O 10.09225900 5.24698479 17.25301437 0.00216515 0.00066220 -0.00407972
O 14.49896298 2.65757244 22.97550961 -0.00741123 -0.00321764 -0.00689348
O 11.24102476 3.88076580 31.64646578 -0.00365184 0.00191151 -0.00208864
O 10.03717757 10.06591308 18.16019072 -0.00449796 0.00394659 0.00091873
O 15.81168323 9.01901976 26.13898777 -0.00068359 0.00399018 -0.00292791
O 11.43599123 10.25748045 26.33792044 -0.00363996 0.00614303 -0.00024599
O 13.93860412 9.03634778 17.96367715 -0.00632421 0.00202126 0.00646390
O 15.37208217 2.69715980 31.42638205 -0.00493828 0.00141989 -0.00037787
O 10.30790878 3.57317165 23.25232183 0.00777594 0.00235113 0.00134305
O 14.33779855 1.09501988 0.35056116 -0.00084616 0.00353009 0.00507540
O 10.80458590 5.07936992 25.37970122 0.00641613 -0.00687197 0.00817967
O 10.40258741 11.62891487 24.26981440 -0.00286448 -0.00337847 0.00322670
O 14.38856075 7.79332188 15.87559871 -0.00494358 0.00292071 0.00474083
O 10.54487183 11.29234307 15.84766261 -0.00223391 -0.00526862 -0.00018381
O 15.34390518 7.37525652 24.14265451 0.00721480 -0.00203395 0.00110903
O 14.97168550 1.34506345 25.18203276 -0.00412689 -0.00439819 0.00211402
O 10.48606243 5.22184837 0.79119600 -0.00086261 0.00110173 -0.00488373
O 14.93929544 15.57688893 7.38266432 -0.00189174 -0.00393161 0.00583756
O 11.24364115 16.67966183 15.29539983 -0.00313773 -0.00460404 -0.00094360
O 10.38993210 22.86089081 0.81650865 -0.00337573 -0.00360804 -0.00409081
O 15.27915885 22.11958861 9.37536483 -0.01327483 0.00150733 0.00048412
O 10.81732141 23.13523393 8.87544056 0.00628684 0.00455127 0.00250907
O 14.61845729 22.22552158 1.28316204 -0.01051229 -0.00185449 0.00072703
O 15.58379424 15.60864290 15.41486903 0.00494511 -0.00339654 0.00284928
O 10.10208812 16.73936750 7.05918111 -0.00136431 0.00540280 -0.00641627
O 15.07543568 14.02602007 17.39701295 -0.00197514 0.00297835 0.00330801
O 10.59561375 18.24082906 9.13617022 0.00056265 -0.00007022 -0.00531796
O 9.98063727 24.53305806 6.97359913 -0.00340667 0.00274934 0.00494251
O 14.46254127 20.32898476 32.27319924 -0.01018725 0.00197472 -0.00390434
O 11.01496410 24.48832771 31.56920394 -0.00190034 0.00643164 0.00099638
O 14.77022512 20.43002376 7.36178279 -0.00261967 -0.00294956 -0.00519283
O 14.62015774 13.92988625 9.20638758 0.00556625 0.00450165 0.00245002
O 10.84281908 17.81646433 17.49319932 -0.00379455 -0.00517242 0.00123660
O 14.19284076 15.22235862 23.59649600 0.00013676 -0.00066812 -0.00014026
O 11.32814731 16.11498510 31.83778144 -0.00806734 -0.00357899 -0.00459631
O 10.00804566 22.86525219 17.11273719 0.00043188 0.00330155 -0.00482576
O 15.15960529 21.75521255 26.03883135 0.00044734 -0.00131640 0.00379443
O 11.53460952 22.79462954 25.64234337 -0.00044851 0.00188255 -0.00047592
O 14.46881756 22.30033524 17.84963964 -0.00218995 -0.00253428 -0.00170388
O 15.30092143 15.17446050 31.76107513 0.00105088 -0.00496525 -0.00483795
O 10.27195334 16.55887069 23.86104428 -0.00188713 -0.00244631 -0.00604668
O 15.29664731 14.03338506 1.17513325 0.00155551 -0.00742069 -0.00138105
O 10.97275924 17.92348357 25.83924850 -0.00477357 0.00323636 0.00321144
O 10.83818879 23.94541275 23.26152313 -0.00582472 -0.00020237 0.00463660
O 14.78493048 20.44053754 15.69055067 0.00211190 0.00177147 0.00460347
O 10.96734402 24.46025238 15.06505565 0.00228171 -0.00181930 0.00244150
O 15.18474390 20.20887956 23.93854667 -0.00096112 -0.00621700 0.00207526
O 15.23702335 13.80213035 25.67493459 0.00195618 0.00054673 -0.00104980
O 11.40884965 17.74323610 0.84753962 0.00463375 -0.00561615 0.00170437
O 23.38888064 3.14147474 6.37593703 -0.00305492 0.00505381 -0.00216192
O 19.71681507 3.98555584 15.21553225 0.00495422 -0.00210187 0.00477939
O 18.54784500 9.83775423 1.58169584 -0.00168758 0.00091416 -0.00129100
O 23.74532640 8.93500997 9.46377328 -0.00489285 -0.00415875 0.00275079
O 19.33009276 9.73280717 9.93404123 0.00002885 -0.00692922 0.00457819
O 23.25160308 8.89285927 0.86955825 0.00391053 0.00130113 0.00175785
O 23.68519429 3.08455003 14.64884545 -0.00297078 -0.00488485 0.00154093
O 18.08390992 3.35453445 6.70695938 0.00220710 0.00547151 -0.00156678
O 23.29508285 1.73539068 16.93917521 0.00194658 -0.00188199 -0.00157919
O 18.96973400 4.90184571 8.97648013 -0.00333942 -0.00266402 0.00011365
O 20.00482793 11.15032049 7.65412195 -0.00160159 -0.00378579 0.00541325
O 23.62574277 7.07837202 32.08596974 0.00096709 0.00524529 0.00009425
O 19.25436921 11.44057738 32.56017797 -0.00148358 0.00004019 -0.00243940
O 23.49016256 7.73427008 7.12698137 -0.00052630 0.00587707 0.00132026
O 23.50444378 1.57887053 8.42766554 -0.00782099 -0.00013072 0.00709029
O 18.77419240 5.37365267 17.25826501 -0.00087877 -0.00128479 0.00686744
O 23.03939805 2.77282470 23.25193777 -0.00236597 -0.00011187 -0.00757938
O 19.92399941 3.70940731 31.56504215 0.00076234 -0.00248544 -0.00245182
O 18.42930432 9.55420087 18.17599127 -0.00136189 -0.00014249 0.00130176
O 23.90961306 8.85788544 26.00929049 0.00182366 -0.00029531 0.00337650
O 19.79847714 9.48992065 26.57440235 0.00435000 0.00285905 -0.00212220
O 22.71835050 8.91947694 17.76736513 -0.00001818 -0.00143073 -0.00285443
O 24.25436588 2.64015378 31.31017690 0.00269583 -0.00426499 -0.00196365
O 18.96295104 3.58118205 23.39486770 -0.00003661 -0.00865693 0.00410200
O 23.85285634 1.07340833 0.47768927 0.00061247 -0.00342107 -0.00381385
O 19.37187235 5.11654846 25.44370465 -0.00220655 -0.00091600 0.00561923
O 19.30123037 11.25050025 24.18222429 0.00701863 0.00029064 0.00335899
O 23.38583773 7.59030872 15.65349297 -0.00243715 0.00299404 -0.00657378
O 18.37705738 11.35460526 16.24231045 0.00421597 -0.00190642 0.00129805
O 23.49255310 7.56498283 23.92743174 0.00540823 0.00712420 -0.01075889
O 23.47657987 1.09812528 25.19910653 -0.00057077 -0.00054939 0.00275590
O 19.49317977 5.01768346 0.76165907 -0.00751737 0.00326316 0.01012562
O 23.12549896 14.92152475 7.57090728 -0.00004157 -0.00071280 -0.00336051
O 19.88882334 16.48914956 15.56359300 -0.00699041 0.00046546 0.00198795
O 18.25463633 22.99493308 0.88207560 -0.00174773 -0.00807005 -0.00460725
O 24.01017433 21.93713778 9.53669924 -0.00238668 -0.00186188 -0.00159436
O 19.83305568 22.71799908 9.22707377 0.00670961 -0.00226085 0.00101456
O 23.08985185 21.64442454 1.40621417 0.00661539 0.00195802 -0.00018488
O 24.00812321 14.94918177 16.00401105 -0.00357605 0.00071093 -0.00164156
O 18.95176611 16.26106124 7.24222611 0.00072602 0.00093831 0.01445689
O 23.03106196 13.59114631 17.79655023 0.00330816 -0.00244880 0.00378027
O 19.49314653 17.76883675 9.30658588 -0.00103691 -0.00202404 -0.00454067
O 19.78737225 24.11159546 6.87461455 0.00051738 0.00240622 -0.00190177
O 23.49186653 20.25027414 32.22512030 -0.00742303 -0.00084014 0.00334542
O 18.93585405 24.39348074 31.84262439 0.00311716 -0.00048822 0.00116803
O 23.49903734 20.34874430 7.49187978 -0.00252400 -0.00848317 0.00215851
O 23.96057289 13.96978811 9.96039838 -0.00237358 0.00059294 -0.00570582
O 19.05377413 18.20732930 17.21596108 0.00526337 -0.00781466 -0.00674136
O 23.18682477 15.56712994 23.74609488 0.00175488 -0.00087017 -0.00313208
O 19.56578437 15.96861687 31.80440858 -0.00158313 -0.00295985 0.00335239
O 18.62562401 23.14797265 17.30057045 0.00540923 0.00283185 0.00303638
O 24.16333703 21.69823665 26.13058610 0.00349476 -0.00279038 0.00080111
O 19.31401398 22.85656907 25.66413288 0.00227895 -0.00376554 -0.00809548
O 23.21495252 22.48704809 17.89175305 0.00466654 0.00318507 -0.00101590
O 23.39736657 15.05304360 32.02729956 -0.00574593 -0.00047149 -0.00187400
O 18.97152853 16.21380755 23.26851756 -0.00304313 0.00001378 0.00053462
O 23.18710548 13.90635950 1.27785283 0.00195862 0.00726333 0.00233285
O 19.06423214 17.65755200 25.40912730 -0.00360358 -0.00085191 -0.00202514
O 18.87274874 24.19174411 23.52157112 -0.00345288 0.01170414 0.00595293
O 23.18404961 20.76994427 15.72001587 0.00001029 0.00057005 -0.00589802
O 19.34501761 24.43704445 15.21326920 -0.00082529 0.00882627 0.00182142
O 23.90590449 20.61485513 23.92778327 -0.00417329 -0.00209981 -0.00306841
O 23.81202269 13.95410934 25.71455051 0.00166966 -0.00678796 -0.00168331
O 19.16199782 17.87724244 0.96877219 0.00271644 0.00093453 0.00472664
N 7.60680226 12.92160877 2.84005653 0.00021565 -0.00234115 -0.00023755
N 0.74514901 6.31252575 10.67434719 0.00348631 0.00140689 -0.00012321
N 3.36189019 25.25883541 5.32640530 -0.00057147 0.00285235 -0.00645071
N 5.22083644 6.29922515 14.33313726 -0.00177214 0.00578813 0.00310342
N 0.91532496 0.23964847 13.51821122 -0.00421906 -0.00228381 -0.00766242
N 7.69689985 6.19434912 5.84918204 -0.00123518 0.00022373 -0.00217611
N 5.14032613 12.64987909 11.28291003 -0.00972222 -0.00557086 -0.00407396
N 2.97847543 6.50604325 2.28574481 -0.00012520 -0.00717568 -0.00490651
N 7.59819975 13.02298241 19.34997479 -0.01030905 -0.00743645 -0.00195646
N 0.98137328 6.43610392 26.87912544 -0.00152738 -0.00263311 0.00095791
N 3.26743344 25.36006900 21.87202298 -0.00779475 -0.00784334 -0.00279581
N 5.42025291 6.44280543 30.71911500 0.00448985 -0.00082262 0.00150218
N 0.98005058 25.32243304 29.85639133 0.00053928 -0.00255155 -0.00370537
N 7.38682996 6.25296039 22.29282142 0.00493681 -0.00386033 0.00127527
N 4.85368325 12.99639396 27.38416926 0.00273162 -0.00367529 0.00606620
N 3.29729450 6.34344472 18.88149452 0.00282402 0.00203492 -0.00024623
N 7.67512616 0.27156894 1.99015851 -0.00458979 0.00761540 0.00019294
N 1.07401517 19.11036111 10.64495734 0.00002762 -0.00098725 -0.00142315
N 3.45487995 12.46689074 6.44566311 0.00227873 0.00196509 -0.00448468
N 5.34531796 19.67035323 13.98370914 -0.00261882 -0.00471656 0.00052758
N 1.06697065 12.71076446 14.70035648 0.00087548 0.00048400 -0.00513879
N 7.66372951 19.29415233 5.76250877 0.00680865 0.00611887 -0.00050144
N 5.09949770 0.14714881 10.13088420 0.00284473 -0.00558226 0.00216820
N 3.44917021 18.86591319 2.37206014 0.00202526 0.00437866 0.00134138
N 7.45224416 25.25832832 18.43307641 -0.00743742 -0.00832862 -0.00173084
N 1.16579484 19.23072039 27.41139434 -0.00200352 0.00626492 0.00238933
N 3.16003089 13.00767230 22.55128012 -0.00178535 -0.00107525 0.00072487
N 5.53216257 18.66630601 30.65814356 0.00135926 -0.00391304 -0.00296406
N 1.13495167 12.35143745 30.72156487 -0.00202751 0.00106072 0.00468047
N 7.43959205 19.26659093 22.56145254 -0.00108100 -0.00195410 -0.00168360
N 5.53271974 25.30912270 26.88859107 -0.00430761 0.00107465 0.00318613
N 3.25959281 19.12874156 18.85326312 0.00529041 -0.00045423 -0.00595130
N 15.88849188 12.66907541 2.85404055 0.00295515 -0.00089234 0.00671127
N 9.27519812 6.08141449 10.51500589 0.00166980 -0.00415150 -0.00238679
N 11.43604532 0.07226097 5.54696836 -0.00105515 -0.00364120 0.00279823
N 13.62974340 6.59060941 14.09471881 0.00970895 0.00646413 0.00067885
N 9.53175232 0.08159130 13.62077507 0.00032656 -0.00048330 0.00524601
N 15.87084515 6.30071096 6.04498022 0.00226576 -0.00242442 0.00062364
N 13.62171131 12.83552117 10.94785198 -0.00125532 0.00003368 0.00481136
N 11.64489952 6.48265332 2.31447550 0.00200820 0.00037687 0.00254924
N 16.08975985 12.84635649 19.08954947 0.00272438 -0.00251582 0.00074839
N 9.58406017 6.09464626 26.96050909 -0.00046274 -0.00275597 -0.00663231
N 12.03068526 25.25705333 21.71710248 0.00209565 0.00484958 -0.00271747
N 14.05087443 6.35373712 30.53011568 -0.00379859 -0.00120461 0.00135240
N 9.33265057 25.19413170 30.16783750 0.00442848 -0.00772415 0.00292230
N 15.76787243 6.09648182 22.34767433 0.00469449 0.00260691 0.00358735
N 14.01147994 12.53927165 27.11545426 0.00522623 -0.00043683 -0.00076756
N 11.65582133 6.31202112 18.60752429 -0.00565112 -0.00254146 -0.00336615
N 15.79997760 25.44098900 1.84002549 0.00348783 0.00156897 -0.00384350
N 9.54866459 19.51777096 10.77080929 0.00286717 0.00536986 -0.00907902
N 12.22440834 12.34179672 6.03031977 0.00098550 -0.00827325 0.00314775
N 13.98815096 19.18353300 13.97417044 0.00504060 0.00537666 0.00515180
N 9.49762704 12.64847428 14.38918464 0.00596328 0.00036677 -0.00567290
N 16.10761998 19.39321772 5.83533577 -0.00272546 0.00115179 -0.00329909
N 13.84255826 0.05331875 10.20463177 0.00330186 0.00767828 0.00557278
N 12.12210893 19.11702611 2.48435941 -0.00397247 -0.00067198 -0.00098452
N 16.18402697 0.34220634 18.18859396 -0.00075235 0.00058138 0.00058943
N 9.57526103 18.91491819 27.43545282 -0.00015341 -0.00451205 0.00515932
N 11.79043159 12.70327290 22.75793166 0.00918509 0.00288890 -0.00009532
N 14.18396956 18.81726194 30.63813492 0.00420757 0.00086623 0.00029929
N 9.57334707 12.56448101 30.95892438 -0.00503497 -0.00089772 0.00496941
N 16.14884513 19.11953133 22.12138941 0.00112412 0.00211306 -0.00410064
N 14.01786592 0.03628539 26.78099696 0.00547049 -0.00290219 -0.00316521
N 11.87635811 19.08684445 19.14536540 0.00223523 0.00220756 -0.00666188
N 24.78464125 12.89506195 2.57616949 0.00066478 0.00147798 -0.00439812
N 17.97293799 6.21692924 10.47665731 0.00055168 -0.00866498 0.00002240
N 20.87978322 25.18661562 5.14090398 0.00026229 -0.00094039 0.00586455
N 22.28324891 6.40052551 14.08071162 -0.00249269 0.00511242 0.00088579
N 18.26692310 0.27311408 13.55990524 0.00298198 0.00176074 -0.01229642
N 24.78811575 6.60046228 5.66244070 -0.00189698 -0.00090958 0.00696480
N 22.38739352 13.00145807 11.21180885 0.00495200 -0.00503263 0.00038117
N 20.41350239 6.05983420 2.63687223 -0.00531600 0.00221198 0.00321740
N 24.46199766 12.53458301 19.16693036 0.00498947 -0.00322945 -0.00497201
N 17.89311629 5.99093910 26.93132616 -0.00518154 -0.00085190 -0.00392795
N 20.17122897 0.05435299 22.09750469 -0.00712651 0.00618248 0.00162945
N 22.55734088 5.89094964 30.39677168 0.00176480 -0.00434904 0.00463105
N 17.80461391 0.10536537 30.23727602 -0.00157918 0.00320958 0.00190875
N 24.60746690 6.40415625 22.37130423 0.00396723 -0.00484261 -0.00056166
N 22.69052866 12.49342735 27.16107173 -0.00903087 -0.00122057 0.00551991
N 20.20888179 6.43964357 18.67525499 -0.00207364 -0.00093212 -0.00142997
N 24.68780949 25.24302609 2.14754987 0.00125473 -0.00292749 0.00131861
N 18.25739693 18.87941910 10.82146296 0.00407887 -0.00187103 -0.00097200
N 20.43161075 12.61513949 5.97841441 -0.00656297 -0.00036593 0.00110399
N 22.68901246 19.21371028 14.10330105 -0.00095719 0.00039749 0.00209368
N 17.78609742 12.68078542 14.41145939 -0.00523368 0.00356591 -0.00430649
N 24.69263799 19.10183563 5.92217356 0.00163826 0.00537878 -0.00122990
N 22.59963492 0.21133737 10.01448650 -0.00105107 -0.00603202 -0.00179580
N 20.20342521 19.04194883 2.64162758 -0.00707071 -0.00019858 -0.00447133
N 24.39713513 0.28099176 18.44387432 0.00248047 -0.00010650 -0.00029945
N 18.15152340 18.83155472 27.20897233 0.00545356 -0.00396991 -0.00332429
N 20.29660497 12.51777217 22.52130218 0.00030903 0.00564527 -0.00331516
N 22.22748471 19.18188834 30.64890952 -0.00186270 -0.00075857 0.00309128
N 18.14559851 12.56494095 30.93100370 0.00198124 0.00253511 0.00582508
N 24.82949008 19.42081162 22.18309509 -0.00994504 -0.00296548 -0.00328091
N 22.20893652 0.05135286 26.76494546 0.00181010 0.00587183 -0.00123166
N 20.32363848 19.12079927 18.84418000 -0.00594282 -0.00014026 -0.00251715
C 7.51607217 0.64372512 4.35388028 -0.00108516 -0.00737269 0.00199372
C 0.81957623 6.10872392 13.03136899 -0.00241919 -0.00332156 0.00457268
C 3.30282343 12.22830483 4.08721833 -0.00020133 0.00721486 -0.00059604
C 5.01367625 6.56667981 11.99672890 0.00167143 0.01215627 -0.00637548
C 0.94665588 12.39849604 12.28768314 0.00160818 0.00350143 -0.00082192
C 7.61982902 6.54000707 3.41875707 -0.00556504 0.00342378 0.00817429
C 5.22895402 0.36717687 12.55927714 -0.00994969 0.00677694 -0.00274392
C 3.35467538 6.01061409 4.53829659 0.00656851 0.00403453 -0.00123779
C 7.08744939 1.29084273 5.47346671 -0.00479580 0.00216795 0.00366443
C 1.48225811 5.60131268 14.11891197 -0.00176019 0.00863669 0.00986355
C 2.95717123 11.52991451 2.94527895 -0.00574945 0.00294555 -0.00878668
C 5.30569569 7.16100741 10.81190364 0.00653968 -0.00707168 -0.00182997
C 1.16210770 11.53297266 11.20315768 -0.00121612 -0.00352902 0.00441193
C 7.22598831 7.33103083 2.38955832 0.00346762 0.00161109 -0.00000111
C 5.74665965 1.01738452 13.65839092 -0.00230243 -0.00317960 -0.00207056
C 2.99094209 5.37811165 5.75293724 0.00302625 0.00207005 -0.00100237
C 6.27034232 2.40894016 5.42326630 0.00392306 -0.00091773 -0.00756379
C 2.17372142 4.35329043 14.13798833 -0.00559555 0.00717648 0.00088070
C 2.27344305 10.28964997 3.06121944 0.00166310 0.00063835 0.00226207
C 6.17073440 8.21561777 10.72763416 -0.00304729 0.00205305 0.00415149
C 1.92428289 10.35801034 11.24055396 0.00739671 0.00547208 -0.00505735
C 6.41746415 8.45401392 2.56273854 0.00092435 0.00120162 0.00472450
C 6.50967372 2.19453846 13.54064200 0.00096641 0.00355649 -0.00131325
C 2.13920010 4.28026773 5.72907701 0.00041485 -0.00325906 -0.00038754
C 5.96410360 2.81490851 4.12224113 -0.00175397 -0.00256269 0.00551124
C 2.28325646 3.71823353 12.84634080 0.00313797 -0.00011060 0.00290780
C 2.09121771 9.68076743 4.30733790 -0.00282065 -0.00187473 -0.00660152
C 6.49630042 8.86145673 11.97527610 -0.00363327 0.00235094 0.00489280
C 2.23933214 9.89542387 12.53549558 -0.00188764 0.00895736 0.00179981
C 6.11891053 8.90876983 3.86763755 -0.00422735 -0.00291569 0.00287072
C 6.61800475 2.77037557 12.25117875 0.00225410 -0.00684918 -0.00244808
C 1.82812704 3.67259601 4.50701502 0.00219075 -0.00085653 0.00285496
C 6.34064755 2.12956684 2.93897714 -0.00561772 -0.00520654 -0.00165695
C 1.84756764 4.37642431 11.71167854 -0.00647555 0.00474731 -0.00612805
C 2.56070336 10.35770100 5.44837542 0.00514781 0.00111498 0.00530065
C 6.32487912 8.24673050 13.18222647 -0.00492524 -0.00107140 0.00231935
C 1.86928571 10.59800332 13.68766214 -0.00051023 -0.01166059 0.00433342
C 6.54927881 8.14666600 4.89849497 -0.00305223 -0.00617396 -0.00159587
C 6.15504527 2.08796707 11.12134324 -0.00032622 -0.00118972 0.00434985
C 2.08519679 4.34647273 3.31519284 0.00061359 -0.00114439 -0.00326224
C 7.09594882 0.97972600 3.06464238 -0.00173485 -0.00404593 0.00500593
C 1.07986284 5.55951116 11.73360359 -0.00502738 0.00486197 0.00061369
C 3.11561760 11.68204729 5.34092073 -0.00575287 0.00300651 0.01116598
C 5.49096901 7.06855448 13.19301350 0.00691906 -0.01000771 -0.00289078
C 1.28865569 11.89705644 13.59631356 -0.00659981 -0.00706091 -0.00284394
C 7.33690353 6.92942856 4.74301250 0.00277519 -0.00171074 -0.00459320
C 5.57397090 0.86150937 11.24713648 0.00399494 0.00574930 0.00227265
C 2.81752344 5.59714553 3.29229548 0.00509686 0.00001450 0.00355333
C 7.08381148 0.25115173 0.74503270 0.00456579 0.00410837 -0.00181124
C 1.39394409 6.15323031 9.45843288 -0.00320430 0.00640013 0.00432121
C 2.79112739 12.35071678 7.58806119 -0.00663349 0.00428421 -0.00420381
C 5.74680035 6.40525307 15.57808129 -0.00413900 0.00162925 -0.01056991
C 1.52918391 12.50165263 15.92837217 -0.00454374 0.00319999 0.00705087
C 7.04605334 6.25937892 7.07737208 -0.00277939 -0.00318248 0.00299049
C 5.65603807 0.21604341 8.91735539 0.00161473 -0.00056051 -0.00353604
C 2.47894191 6.32112787 1.01771762 -0.00407471 0.00258978 -0.00133902
C 6.83298610 11.98448951 17.30757541 -0.00569029 -0.00347190 0.00753307
C 1.00535939 7.29011101 8.59106449 -0.00498619 -0.00291784 0.00996815
C 2.93531553 0.95890719 7.45059317 0.00363865 0.01013704 -0.00134335
C 5.72290160 5.70672734 0.06808775 -0.00560439 -0.00853941 -0.00756574
C 1.29125824 0.98027026 31.91428507 -0.00097996 0.00453272 0.00040995
C 7.29673519 5.10042043 7.96529487 0.00771841 0.00123432 0.00425857
C 5.38971777 11.62810296 9.04657283 -0.00177352 -0.00131327 0.00356336
C 2.95990363 7.54103585 16.83182613 -0.00766231 0.00316870 -0.00162531
C 7.71459939 0.03951523 20.85304505 -0.00532131 -0.00047349 0.00522099
C 1.07584231 6.29551148 29.28892886 0.00189204 -0.00602452 -0.00197264
C 3.31590064 12.42609844 20.23196608 -0.00036859 0.00334440 -0.00279329
C 5.40521462 6.60385767 28.28116265 -0.00484178 0.00113563 0.00074653
C 1.17641981 12.16938036 28.37692397 -0.00008769 0.00143051 0.00322844
C 7.33257302 6.58918243 19.95107751 0.00055323 -0.00373664 -0.00170855
C 5.09072858 0.40335762 29.27116715 0.00495866 0.00111060 0.00060497
C 3.32470358 5.83942855 21.25100069 -0.00693479 -0.00269788 -0.00571701
C 7.47237318 0.77267489 21.98397237 -0.00636067 0.00654256 -0.01217269
C 1.37828816 5.58590513 30.39108574 0.00034575 0.00451479 -0.00257763
C 2.96336875 11.59808546 19.19414015 0.00159517 -0.00333638 0.00685767
C 5.65293066 7.26609203 27.06874231 0.00012499 0.00088576 -0.00647897
C 1.39675168 11.43759430 27.26621152 0.00598170 0.00577457 0.00939502
C 7.14577529 7.47066489 18.91115969 0.00632377 -0.00112332 -0.00271910
C 5.47185457 1.07682668 30.38680219 0.00005064 -0.00572679 0.00081517
C 2.93532256 5.12000207 22.37698944 -0.00031067 -0.00904898 -0.00981247
C 6.61554073 1.91120948 21.93121078 -0.00229676 -0.00367334 -0.00068311
C 2.20365263 4.42191802 30.34865337 0.00315342 0.00262189 -0.00347255
C 2.04712465 10.57485589 19.42887689 -0.00302305 -0.00805366 -0.00111548
C 6.38936595 8.43142160 27.06162262 -0.00279667 0.00367967 -0.00151266
C 2.25371743 10.31380710 27.30815868 -0.00021447 0.00472400 0.00421145
C 6.19268658 8.53321379 19.06129151 0.00268334 -0.00498164 -0.00269726
C 6.24919554 2.22686622 30.29331204 -0.00135810 -0.00476309 -0.01033693
C 2.01447058 4.03329297 22.22715945 -0.00174917 -0.00159391 0.00184997
C 6.20615356 2.37498689 20.68582543 -0.01069276 0.00021138 0.00867113
C 2.50665274 3.94345825 29.10575146 -0.00004260 -0.00349924 -0.00488716
C 1.85147740 10.15124505 20.74053466 0.00846494 -0.00460986 -0.00072887
C 6.59912285 9.02739620 28.34998796 0.00308145 -0.00234697 0.01054479
C 2.72346638 9.84278926 28.56340650 -0.00349064 0.00208372 -0.00101299
C 5.94770271 9.07743465 20.34025622 -0.00094724 -0.00222767 0.00108359
C 6.60952077 2.60160669 28.99488753 -0.00454256 -0.00298988 -0.00417415
C 1.76374312 3.56775989 20.92646504 0.00172006 -0.00138253 0.00140425
C 6.59078822 1.75317016 19.53860187 0.00071209 0.00423467 -0.00107430
C 1.98496978 4.51323301 28.00817632 -0.00716255 -0.00332549 0.00142064
C 2.22458317 10.95418937 21.79615958 0.00439242 0.00383921 -0.00092572
C 6.28372440 8.45708432 29.54237233 0.00069702 -0.00663296 -0.00182764
C 2.28510156 10.47969016 29.73452792 0.00096951 -0.00835052 -0.00217656
C 6.32236391 8.34067066 21.44782024 -0.00621153 -0.00297280 0.01057058
C 6.35712726 1.91695598 27.85418131 -0.00307349 -0.00020603 -0.00510713
C 2.16182771 4.34970358 19.86030344 0.00235991 0.00209674 -0.00457596
C 7.22881098 0.49375676 19.60717236 -0.00227584 0.00244577 0.00333520
C 1.34918636 5.76204659 28.03878389 0.00666055 -0.00036490 -0.00396249
C 2.93002941 12.12002415 21.52876799 -0.00254938 -0.00831456 0.00608245
C 5.73619149 7.14960830 29.51264033 -0.00422063 -0.00019959 0.00038418
C 1.56436291 11.63944613 29.61098997 0.00125127 0.00436570 -0.00270427
C 7.01252627 7.04167603 21.26360108 0.00242560 0.00048966 0.00296905
C 5.65748279 0.74646118 27.97700162 0.00600720 -0.00577319 0.00013819
C 2.90902172 5.51359837 20.00070199 -0.00612659 0.00456136 0.00410124
C 7.06040357 0.12837076 17.21831053 -0.00231036 -0.00063609 -0.00504385
C 1.42813577 6.10403727 25.62551446 -0.00743412 0.00212454 0.00677329
C 2.76510986 12.84677620 23.81657442 0.00662296 0.00482439 -0.00179998
C 5.91890786 6.77583350 31.99532293 0.00450727 0.00478188 -0.00138767
C 1.60560102 12.24936348 31.96139459 0.01026674 0.00257781 -0.00472643
C 6.89350985 6.37630370 23.57717867 0.00397773 -0.00619284 -0.00080512
C 5.99434497 0.09366931 25.63957207 -0.00086229 0.00308614 -0.00029139
C 2.71433748 6.29398316 17.65496602 -0.00106060 0.00056802 0.00863316
C 7.27157375 12.07767979 0.52642562 0.00695949 -0.00397410 -0.00645626
C 1.31885046 7.24001866 24.56150987 0.00769673 0.00430286 0.00515238
C 3.21263136 0.80974235 24.17547289 0.00240314 0.00508007 0.00275891
C 5.77073422 5.23676125 16.45126182 -0.00085247 0.00244467 0.00243441
C 0.78824972 1.14111993 15.69854562 -0.00605660 0.00715581 -0.00532531
C 7.27335122 5.29180568 24.49318899 0.00022207 0.00154166 0.00206934
C 5.50390848 11.73300371 25.34467605 0.00940572 0.00584547 0.00253785