1920
Time=8000.00000000 pbc="T T T" Lattice="25.51311018 0.00000000 0.00000000 0.00000000 25.38146780 0.00000000 0.00000000 0.00000000 33.11684112" energy=-12248.15073383 virial="-64.10235872 -6.21359717 1.17053622 -6.21359717 -93.64124947 -28.97411390 1.17053622 -28.97411390 -57.42744644" stress="-0.00036061 -0.00036947 0.00011107 -0.00036947 -0.00202412 -0.00131757 0.00011107 -0.00131757 -0.00032665" Properties=species:S:1:pos:R:3:vel:R:3
O 6.21913563 2.74514507 6.59344616 -0.00100942 0.00535220 -0.00322137
O 2.64383399 3.32732375 15.10379489 0.00190399 -0.00417153 0.00002607
O 1.39421000 9.98526338 1.59209655 0.00228048 -0.00196399 -0.00525748
O 7.08183054 9.09228611 9.65706303 0.00963628 -0.00182146 0.00415824
O 2.83404186 10.29141908 9.78123170 -0.00010244 -0.00372510 -0.00113049
O 5.58228050 9.13540940 1.39226833 0.00228214 -0.00190343 0.00085486
O 6.85427952 2.25254468 15.23440047 0.00107458 -0.00179392 0.00742756
O 1.41553431 4.06431511 6.89141492 -0.00378357 0.00001769 0.00327243
O 6.18355070 0.98103513 17.42766141 -0.00161875 -0.00432648 0.00198262
O 1.93861309 5.34386492 9.07444514 0.00534678 0.00152886 -0.00244510
O 2.15902593 11.65225515 7.71838319 0.00342989 0.00104660 -0.00648512
O 6.46032780 7.70256900 32.36714857 0.00227896 0.00421024 -0.00690154
O 1.60915117 11.41305262 32.63568094 0.00159358 -0.00215794 0.00364545
O 6.64352170 7.60803302 7.56863619 0.00265519 0.00596072 -0.00252013
O 6.27672914 1.21812947 8.86915235 0.00652614 0.00061255 0.00127138
O 2.44569869 4.82137437 17.34592552 -0.00294342 -0.00307489 0.00172141
O 5.69944437 2.50860635 23.31376787 0.00414434 -0.00377148 -0.00042071
O 2.49090844 4.03820775 31.87403014 -0.00226074 -0.00961462 -0.00350397
O 1.80955672 9.95477336 17.85244799 0.00199266 -0.00419343 0.00130790
O 6.31293013 9.01073431 25.98458093 -0.00201070 0.00010437 -0.00345139
O 2.83421709 9.94394374 26.33071514 0.00310042 0.00440037 0.00378188
O 6.06835325 8.74963570 17.88824225 -0.00040744 0.00793509 -0.00313681
O 6.29401996 2.98708708 31.42384264 -0.00308999 0.00084625 0.00608327
O 1.26237763 3.97874258 23.75808164 0.00404038 -0.00303202 0.00026720
O 5.83987411 1.28954389 0.41770595 -0.00263979 -0.00106888 -0.00750216
O 1.78434319 5.46053727 25.77190895 0.00378089 0.00191597 -0.00334386
O 2.09110729 11.30498933 24.13932431 0.00278359 0.00566851 -0.00337488
O 6.77576105 7.62158939 15.63833956 -0.00106285 -0.00310481 0.00360344
O 2.10863111 11.38370459 15.86313633 0.00287090 -0.00249216 0.00127182
O 6.89033070 7.51335398 23.97953896 0.00691087 0.00326520 -0.00357521
O 6.76458957 0.87007573 25.54925531 -0.00778251 -0.00444920 -0.00380665
O 2.31078607 5.54065511 0.86774911 0.00264252 -0.00301302 -0.00396157
O 5.68857871 15.31521314 6.88936392 0.00131939 -0.00417159 0.00244048
O 2.79770288 16.26867795 15.31768834 -0.00788507 -0.00199364 -0.00421767
O 1.75921889 22.97098754 0.66612975 -0.00653767 0.00281243 0.00760567
O 6.89033971 21.77410371 9.71904419 0.00483605 -0.00537523 -0.00272884
O 2.53503347 23.14774209 9.41736276 -0.00278224 -0.00023591 0.00652802
O 5.95377942 22.05844984 1.42456786 0.00191724 -0.00022148 -0.00170611
O 6.69052364 15.16591203 15.49992187 -0.00245671 -0.00852556 -0.00821302
O 1.28314406 16.39849771 6.84615552 0.00380540 -0.00467787 0.00433489
O 6.29744626 13.40831676 17.43949184 -0.00700223 -0.00467984 -0.00092248
O 1.76677596 17.60905992 9.03203660 0.00051329 0.00299261 0.00193229
O 1.94214179 24.28957273 7.19908880 0.00626307 0.00134061 -0.00113754
O 6.53923987 20.32877072 32.32282427 -0.00200644 -0.00091695 -0.00104067
O 2.35882506 24.64565352 31.92359522 0.00307171 -0.00124180 -0.00220909
O 6.43534366 20.27192109 7.57275742 0.00133480 -0.00133252 0.00093132
O 6.05814530 13.96021369 9.14410830 -0.00894334 0.00444333 0.00188194
O 2.04361431 17.77474446 17.49262931 -0.00548478 -0.00659352 0.00002189
O 5.54869337 15.04970594 23.60866627 0.00121622 0.00345199 0.00065915
O 2.39616095 16.42701506 32.01220854 -0.00266536 -0.00009543 -0.00200124
O 1.43610913 22.78827767 17.81300345 -0.00664371 0.00780812 0.00572069
O 6.52166602 21.71044334 26.11504939 -0.00312968 -0.00427706 0.00290052
O 2.53748223 22.53540278 25.92193750 0.00032774 -0.00821317 -0.00408356
O 5.75982227 21.78230707 17.78302794 -0.00103549 0.00563029 -0.00213027
O 6.74641225 15.60493373 31.88497654 0.00191065 0.00207712 0.00139460
O 1.79998238 16.34163606 23.60701377 -0.00216105 0.00064791 0.00205928
O 6.59804785 13.99983931 0.80474334 -0.00003438 -0.00505343 -0.00007963
O 2.08900060 17.83241581 25.66865435 -0.00364952 -0.00910214 -0.00046430
O 2.15686887 24.37657386 23.81307298 -0.00100185 0.00758825 -0.00336382
O 6.43216704 20.25233353 15.76708304 0.00394372 0.00619286 0.00289350
O 2.36096748 23.99361145 15.47416052 -0.00169777 -0.00218244 0.00584474
O 6.62040963 20.38132006 23.92363293 0.00366035 0.00288790 -0.00240020
O 6.37329345 13.97080877 25.80297537 0.00476639 0.00292964 0.00804882
O 2.52853974 18.09950351 1.01885549 -0.00680258 0.00872977 -0.00304532
O 14.22076755 2.91894309 6.69566234 -0.00537463 -0.00014339 -0.00790489
O 11.27609927 3.86631625 15.40553852 -0.00343088 -0.00162116 0.00133546
O 9.72658131 10.04808939 1.45639231 0.00006767 0.00664232 0.00065422
O 15.71293570 9.07098445 10.00623621 -0.00557483 -0.00109862 -0.00463343
O 10.89047007 10.10157450 9.75056004 -0.00772355 -0.00295205 -0.00008568
O 14.00707951 8.82985949 1.62021883 -0.00764087 0.00229751 0.00432381
O 15.78068127 2.64865172 15.08957924 0.00231781 -0.00037302 0.00084024
O 10.39649911 3.38547692 6.77288288 0.00314675 -0.00291502 0.00622713
O 15.56395727 0.94823977 17.04631589 0.00559667 0.00072222 -0.00364781
O 10.52379063 4.78800381 8.97355548 0.00527934 -0.00334792 -0.00522542
O 11.05214288 11.38410531 7.43505595 -0.00555924 0.00167342 -0.00282740
O 14.63562988 7.63341609 32.45849130 -0.00516670 -0.00461281 -0.00070150
O 10.39338376 11.52143791 32.48965332 -0.00302164 0.00500655 0.00144562
O 14.92172233 7.56567206 7.85829735 -0.00092227 0.00503889 -0.00039647
O 14.63113343 1.38420707 9.00322654 0.00469558 -0.00319184 0.00091173
O 10.79780691 5.18704147 17.43388607 -0.00769029 0.00023969 0.00885906
O 14.48360287 2.55181908 23.05925940 -0.00196870 0.00568300 -0.00064802
O 10.91827576 4.04660649 31.82299708 0.00446125 -0.00519290 0.00296338
O 10.41127563 9.52982160 18.26852107 -0.00501340 0.00459050 0.00658369
O 15.31316534 8.79396204 26.09113867 -0.00373133 -0.00323230 -0.00119938
O 11.29336657 9.97581034 26.40043541 -0.00118565 -0.00437699 -0.00152430
O 14.88105695 8.54704372 17.66581559 0.00323891 0.00245026 0.00425263
O 14.69266963 2.96184207 31.63686958 -0.00496478 0.00835899 0.00516842
O 10.10192894 3.78628191 23.58918983 0.00187662 -0.00062004 0.00274014
O 14.70652985 1.43869365 0.58891065 -0.00950239 -0.00375187 0.00171904
O 10.87699310 5.29665689 25.58469966 -0.00692363 0.00102571 0.00339617
O 10.81558898 11.45901283 24.31362175 -0.00271770 0.00347579 0.00134110
O 15.38096802 6.74223666 15.64120880 -0.00123037 -0.00011653 -0.00044462
O 10.50280520 11.28392907 16.12801364 -0.00643705 0.00391657 -0.00207513
O 14.40089472 7.40923152 23.93057176 0.00491204 -0.00135896 -0.00003583
O 14.96660174 1.14968274 25.45086191 0.00187222 0.00198891 0.00036005
O 10.15423141 5.39688724 0.72967209 -0.00263429 0.00021436 0.00620317
O 14.10495153 15.67574145 7.30535640 -0.00082911 0.00806296 -0.00243928
O 10.62479782 16.22245417 14.90771090 -0.00467302 0.00419751 -0.00528880
O 10.20541453 22.74593842 1.11578852 0.00494040 0.00427068 -0.00597891
O 15.02160667 21.69137148 9.11680107 0.00664217 0.00409095 -0.00926047
O 11.19509148 22.27344992 9.74788838 0.01019445 0.00353593 -0.01038150
O 14.26874812 21.94404726 1.00999523 -0.00558923 -0.00370314 -0.00234509
O 15.53685380 15.47596467 15.48642928 0.00112067 0.00509179 0.00450361
O 9.96090209 16.00251286 6.61455568 0.00128905 0.00026415 -0.00501626
O 15.21315626 13.74074427 17.55946875 -0.00293257 0.00174661 0.00507638
O 10.15512574 17.55588718 8.67447402 -0.00231536 0.00117195 -0.00604384
O 10.53344290 23.82117741 7.46309321 0.00254620 -0.00099294 0.00295685
O 14.87051991 20.53196707 31.85799661 0.00771558 -0.00472358 0.00122232
O 10.47381496 24.50032238 32.33026224 0.00248926 0.00406430 0.00373426
O 14.88456802 20.11546137 6.95439069 -0.00867906 -0.00835349 -0.00645377
O 14.68406605 13.91919415 9.35369298 -0.00170748 -0.00284374 -0.00153487
O 10.84012599 17.87861356 17.13678388 -0.00389318 0.00481155 0.00916616
O 14.00594048 15.11806610 23.79329632 0.00161668 -0.00847982 0.00638352
O 11.56639483 16.31508558 31.49258622 -0.00707873 -0.00823224 -0.00484295
O 10.00742413 22.57451759 17.67826837 -0.00716251 0.00728629 -0.00035026
O 15.08770529 21.81241357 25.56647831 -0.00459020 0.00319200 0.00381330
O 11.18762282 23.24259099 25.98922838 0.00220400 0.00386376 -0.00484168
O 14.23673671 21.23510425 17.33550797 0.00213983 0.00091705 0.00239108
O 15.34903040 15.29489846 32.40821012 -0.00288387 -0.00032775 0.00189961
O 10.26833369 16.58849299 23.33139817 0.00166091 -0.00053079 0.00036760
O 14.36538143 13.83562109 1.29887005 -0.00796717 -0.00770021 -0.00427495
O 10.31041884 18.14156111 25.44338794 -0.00190810 -0.00421234 -0.00009333
O 10.59940363 24.31026770 23.62852802 0.00219299 -0.00584644 -0.00979497
O 15.26944128 19.92987799 15.45226452 0.00509848 -0.00040870 0.00517303
O 10.07595241 24.16001701 15.78217714 -0.01105107 0.00272723 -0.00302605
O 15.08046215 20.33037501 23.53645758 -0.00052641 0.00018656 -0.00082133
O 14.97991220 13.93579972 26.10295942 -0.00402043 0.00254661 -0.00133848
O 11.43511251 17.75665772 0.46271063 0.00520107 -0.00090282 0.00109423
O 23.49352914 2.77799207 7.11078003 0.00083886 0.00225524 -0.00089775
O 19.18360618 3.41762317 15.08257634 0.01143022 0.00092547 0.00399039
O 18.37740759 9.96638103 1.60812188 0.00266313 0.00372965 0.00084186
O 23.69584438 9.47291197 10.08660048 0.00532245 0.00270029 -0.00323570
O 19.74218112 9.69578139 10.07862619 0.00442876 0.00328482 0.00524881
O 22.47542419 9.04491935 1.69895638 -0.01091961 -0.00141691 0.00095981
O 24.11653234 2.78988452 15.33507671 -0.00211607 0.00555814 -0.00195284
O 19.00362700 3.80237975 6.96229554 0.00290447 -0.00108608 -0.00115206
O 23.25412508 1.12049418 17.25052291 0.00085632 -0.00469165 -0.00368378
O 19.78955333 5.21155758 9.01130724 0.01503510 -0.00817838 0.00932088
O 19.29324061 11.43093233 7.72830714 -0.00481757 0.00075661 0.00294199
O 22.51492656 7.58223868 32.71256794 0.00183360 -0.00015597 0.00462166
O 18.74265715 11.54304012 32.65468042 -0.00399417 0.00123389 0.00478225
O 23.69716162 8.00135541 7.87291110 0.00574387 -0.00372225 0.00149423
O 23.79454465 1.34803317 9.23439731 0.00416073 -0.00205249 -0.00021982
O 19.25755461 4.94188636 17.04844323 -0.00132854 -0.00495692 0.00372795
O 23.10785079 2.55320125 23.34409646 0.00491964 0.00178515 -0.00543564
O 19.69878365 3.78136159 31.84694170 -0.00553694 0.00093982 -0.00315645
O 18.36509981 10.05486235 18.45084675 0.01282010 -0.00697537 0.00417188
O 23.88862364 9.23472034 26.55307348 -0.00102242 -0.00430453 0.00626963
O 20.02298955 9.77554677 26.67367754 -0.00226871 -0.00308946 0.00005640
O 23.09662175 9.11249519 18.12237760 0.00453715 0.00294368 0.01187676
O 23.65746137 2.67363965 31.48993687 -0.00202469 -0.00338732 -0.00049436
O 18.69474706 3.63691839 23.42226936 -0.00096083 -0.00364226 -0.00585268
O 23.35241020 1.59808240 0.79419427 -0.00653940 -0.00210780 0.00087305
O 18.87823417 4.79413788 25.73057514 -0.00660733 0.00369221 0.00208682
O 19.61664796 11.09196884 24.55423649 -0.00517826 -0.00058253 -0.00558062
O 22.79342077 7.61326132 15.99825182 -0.00465858 0.00058653 0.00388741
O 19.30648843 11.17699166 16.23417172 -0.00336922 -0.00251211 0.00034475
O 23.47830835 7.89838952 24.54597895 -0.00320653 0.00082051 0.00433733
O 23.64025938 1.00620718 25.50945977 -0.00698824 0.00196035 -0.00242729
O 18.90788074 5.30745312 0.76279945 -0.00508957 -0.00142918 -0.00401785
O 22.70256929 15.69183984 7.03394164 -0.00052467 -0.00150904 -0.00327058
O 19.25452174 16.10192207 15.27645307 -0.00065276 -0.00030989 0.00240296
O 18.57739368 22.70185810 1.30338433 -0.00317805 0.00150546 -0.00289487
O 23.90847587 21.42044693 9.68585744 0.00369620 -0.00260789 -0.00204260
O 19.80448768 23.06346588 9.22463870 0.00100089 -0.00236221 -0.00179441
O 22.93247844 22.20146616 1.48691674 0.00561157 0.00769904 0.00061153
O 23.75824522 15.06931517 15.28136160 -0.00160721 -0.00073598 0.00341225
O 18.83115800 16.37162540 6.60849443 0.00207506 -0.00718018 -0.00356883
O 22.99927656 13.65230290 17.25388668 0.00405624 0.00180295 0.00510848
O 19.02128324 17.72273836 8.87861078 0.00122176 0.01101509 -0.00692017
O 18.87424387 24.58568965 7.30332052 -0.00872478 0.00012559 -0.00781140
O 22.84091439 20.48589032 32.63236369 0.00181332 -0.00596099 0.00062557
O 19.24417681 24.04348298 32.34113810 0.00065806 -0.00229602 -0.00955436
O 23.50645465 20.38201341 7.44911394 0.00134772 -0.00423581 0.00711628
O 23.13354999 14.08496387 9.01543939 0.00028483 0.00053226 -0.00104621
O 19.04163974 17.75486653 17.34127168 -0.00132279 0.00115710 0.00754760
O 22.78221727 15.66182252 23.35624158 -0.00460624 -0.00031950 0.00617404
O 19.56038221 16.52697320 31.68063407 0.00105155 0.00837224 -0.00784424
O 18.76612061 22.67607562 17.43817620 0.00291808 -0.00001509 0.00113179
O 23.92688706 21.39996382 26.37570597 -0.00102657 -0.00603106 -0.00109825
O 19.41205934 22.65793830 25.89973623 0.00772046 0.00489494 -0.00290330
O 23.38746640 21.34497472 17.80050725 0.00384796 0.00203196 -0.00067812
O 24.03027573 15.49447869 31.73409666 0.00281297 0.00377140 -0.00887505
O 18.68841850 15.98892131 23.38145352 0.00041800 -0.00343304 -0.00034946
O 23.86027720 14.13375133 1.08516135 0.00061001 0.00135198 -0.00191416
O 18.53986117 17.72764899 25.45140934 -0.00287388 0.00170653 0.00166041
O 18.81660392 24.07305982 23.87032998 0.00254118 0.00247876 0.00088942
O 24.02733456 19.95998594 15.75444567 -0.00051890 0.00201569 -0.00333071
O 19.65684686 23.86634960 15.36541835 0.00519450 0.00007803 0.00186469
O 23.66355690 20.12794417 24.21385154 0.00370027 0.00177795 -0.00031331
O 22.60727170 14.30688955 25.60421326 0.00624878 -0.00145093 -0.00498436
O 20.00519108 18.08860384 0.53737304 0.00553158 -0.00004441 -0.00549745
N 7.65883300 12.80385115 2.41466535 -0.01171797 -0.00365545 -0.00835034
N 0.98587422 6.31603504 10.84767034 0.00601426 0.00398985 -0.00001469
N 2.42726631 0.31552988 5.44719056 0.00844913 -0.00390011 -0.00047257
N 5.23134180 6.70530571 14.21805495 0.00472858 -0.00045646 0.00408553
N 0.99385345 25.23344246 14.05925430 -0.00316745 -0.00372941 -0.00055858
N 7.59831569 6.57632791 5.75658874 0.00519780 -0.00957283 0.00202435
N 5.18736827 12.57087036 10.82279019 -0.00135192 -0.00067185 -0.00222765
N 3.28692245 6.81284252 2.52136484 -0.00214295 0.00256934 -0.00209927
N 7.79884881 12.68933794 19.12940764 -0.00128600 0.00472062 -0.00176257
N 0.76911569 6.79524069 27.41513346 -0.00336404 -0.00096540 -0.00282979
N 3.21389360 0.10092049 22.15287626 -0.00104318 -0.00189199 0.00104853
N 5.04869077 6.74338747 30.83981039 -0.00971848 -0.00032972 -0.00355033
N 0.75857488 25.33640904 30.41411069 -0.00466870 0.00003687 0.00360870
N 7.64559106 6.06664903 22.30080300 -0.00293725 0.00222502 0.00102050
N 5.16163409 12.85349544 27.41397750 -0.00329660 0.00056213 0.00281414
N 3.53781722 6.04601468 19.16508859 -0.00439606 -0.00706432 0.00029459
N 7.17410726 0.17568992 1.82440854 -0.00640100 0.00614204 0.00136846
N 0.91757471 18.88315342 10.73754073 -0.00319415 0.00347099 -0.00091720
N 3.35863096 12.62459716 6.09640017 -0.00132276 -0.00567780 -0.00241709
N 4.98064502 19.35691167 14.31192932 -0.00532515 0.00155507 0.00311618
N 1.03580108 12.77159881 14.34782184 -0.00324503 0.00009441 0.00441446
N 7.33166057 19.15797994 5.87124501 0.00008357 0.00082774 -0.00221643
N 5.22267760 25.28594763 10.40598706 -0.00159644 0.00372812 0.00547053
N 3.25487340 19.44296420 2.77818768 0.00384477 0.00028403 -0.00241514
N 7.70832338 25.34328166 18.83559688 -0.00033207 -0.00097049 0.00283171
N 0.78025073 18.88024825 27.32202449 -0.00173378 0.00307104 -0.00912619
N 3.26349795 12.54009857 22.63261676 0.00696018 -0.00802998 0.00329505
N 5.30105240 19.08238383 30.86327437 -0.00563919 -0.00372282 0.00606510
N 0.69385412 12.45102088 30.74128099 -0.00439038 0.00201191 -0.00417689
N 7.52385777 19.01671599 22.29064975 0.00510765 0.00236603 -0.00440043
N 4.98851883 0.19865351 26.84488858 -0.00795703 -0.00379204 -0.00209066
N 3.21509194 18.91105951 19.04104043 -0.00614510 0.00000585 0.00653963
N 16.04799103 13.20049057 2.84910837 -0.00006831 0.00737545 0.00453446
N 9.65833267 6.06212371 10.56470358 -0.00390871 0.00882753 -0.00010011
N 11.70390710 25.10229765 5.92694063 -0.00020057 -0.00227509 -0.00822787
N 13.62585337 6.22965514 14.21397932 -0.00541246 -0.00114120 0.00177595
N 9.67494922 0.15498138 13.93871384 -0.00166524 -0.00112869 -0.00182836
N 15.84052341 6.33873292 6.14940144 0.00275546 0.00027113 0.00783140
N 13.57752408 12.77231179 11.00444172 -0.00274091 0.00566694 -0.00299786
N 11.52010991 6.44801204 2.23024790 0.00016969 0.00412646 -0.00185101
N 16.15245486 12.58007050 19.33765683 0.00650153 -0.00217465 -0.00206922
N 9.45456354 6.41127896 27.08451682 -0.00025319 -0.00674400 -0.00268940
N 11.97860580 25.30551007 22.05990690 0.00349644 -0.00441746 -0.00524664
N 13.55070483 6.43488477 30.90163915 0.00783127 0.00165912 -0.00421881
N 9.43963400 0.38366892 30.69886118 -0.00591866 0.00327496 -0.00198135
N 16.02047904 6.39179166 22.63569642 -0.00106379 -0.00118859 -0.00106486
N 13.77882485 12.90500252 27.66314334 -0.00029091 -0.00352181 -0.00113318
N 12.14408509 6.29754438 19.01547093 -0.00097895 0.00049363 0.00273308
N 15.78451589 0.20383612 2.21151374 0.00462402 0.00426942 -0.00020678
N 9.60519856 19.03352852 10.31867898 0.00356842 0.00518074 -0.00319911
N 12.37522745 12.38500689 5.80999353 -0.00149977 -0.00489111 0.00546020
N 13.85384759 18.99523335 13.87914972 0.01002049 -0.00752905 -0.00152568
N 9.43178277 12.54914165 14.47196980 0.00050451 -0.00077029 0.00465834
N 16.06589988 18.93482565 5.48078541 -0.00417239 0.00376298 -0.00068181
N 13.64433999 0.05830238 10.61665899 -0.00000861 -0.00405136 0.00372782
N 11.71951047 18.96472173 2.31089865 -0.00305302 -0.00529488 -0.00364941
N 16.44203820 25.14185942 18.75275755 -0.00340150 -0.00267894 -0.00206139
N 9.50742286 19.30452225 27.34037989 -0.00954933 -0.00786283 0.00325772
N 11.70121593 12.75578866 22.61783016 0.00355895 0.00357296 -0.00298205
N 13.69842038 19.36201614 30.26084928 0.00047427 -0.00488985 0.00083045
N 9.21210831 12.63292167 30.80958774 -0.00737058 0.00417204 -0.00879315
N 16.15418210 19.04540908 22.01160337 -0.00292976 0.00509490 -0.00048378
N 13.65304843 0.07445336 27.00605722 0.00018080 0.00200007 -0.00194262
N 11.70642234 19.31526417 18.70066077 -0.00809237 -0.00410289 0.00273999
N 24.46934471 12.64616322 2.75721616 0.00256756 0.00679310 -0.00067677
N 18.52279987 6.35377983 10.54437785 -0.00536896 -0.00127179 -0.00346774
N 20.45366949 25.26015317 5.87318569 0.00136237 -0.01140645 -0.00190225
N 22.47977883 6.17180115 14.28496837 -0.00031846 -0.00111438 -0.00553696
N 18.02939223 24.87205295 14.22802620 0.00402693 -0.00533753 -0.00134414
N 24.50911471 6.58451332 6.11844564 -0.00225086 -0.00457679 0.00407131
N 22.03145741 12.79167661 10.62097014 0.00347320 -0.00851697 -0.00135046
N 20.36698720 6.46133987 2.22029103 0.00600605 0.00118046 -0.00839722
N 24.29563499 12.62570158 18.88457098 0.00231805 -0.00742944 0.00272391
N 17.97389987 6.17899367 27.29998550 -0.00661138 0.00603509 -0.00101394
N 20.20432666 24.98560170 22.29900465 -0.00467984 0.00570796 0.00045044
N 21.97188488 6.33719786 30.86317971 -0.00890525 0.00122261 -0.00786785
N 17.90430286 24.99000791 30.70649126 -0.00005635 0.00157976 0.00236678
N 24.47029898 6.49185075 22.92676323 -0.00032943 0.00099764 0.00575703
N 22.28120797 12.80016319 27.27701815 -0.00508468 -0.00080984 0.00250508
N 20.23910911 6.19139158 18.76475439 0.00064356 -0.00046986 0.00212199
N 24.37710370 0.21685326 2.32525334 -0.00155461 0.00004452 -0.00524335
N 18.13279867 19.06054855 10.61213599 -0.00305157 0.00541940 -0.00216474
N 20.31576718 12.66051454 6.00636146 -0.00100373 -0.00473428 -0.00264400
N 22.37610468 19.02777551 14.40053687 -0.00222989 0.00279049 0.00519310
N 18.40479634 12.45548274 14.58277172 0.00614004 -0.00185685 -0.00019317
N 24.50757569 19.08449058 5.84575622 0.00049539 0.00269336 -0.01029225
N 22.52317143 0.36316345 10.77331981 0.00169078 0.00303712 -0.00297096
N 20.81979058 19.22341837 2.33480573 0.00143637 -0.00224127 -0.00096186
N 24.67938663 0.07194888 18.63471193 -0.00716871 -0.00806759 -0.00112223
N 17.92103882 19.14799631 27.15380872 0.00411051 -0.00484728 0.00605811
N 20.31860424 12.49127439 22.89359446 0.00900502 0.00154510 0.00022452
N 22.14535663 19.01603302 30.93060049 -0.00887986 0.00181683 0.00026246
N 17.93891780 12.72982360 30.87668355 -0.00296902 -0.00590009 0.00915317
N 24.56860034 18.86317205 22.51197853 -0.00721477 0.00246828 0.00846954
N 22.28642362 25.24297947 26.96506337 0.00374225 0.00370793 -0.00270729
N 20.50175906 18.66621261 18.87631850 0.00334339 0.00098909 0.00489043
C 7.41044860 0.29132734 4.10063905 0.00450605 0.00054626 0.00163572
C 1.12801270 5.94106006 13.08644365 -0.01339541 0.00217604 -0.00313724
C 3.40640348 12.09557688 3.73898485 -0.00805933 -0.00010849 -0.00357961
C 5.22184233 6.84273599 11.80734774 0.00555370 0.00699143 0.00167994
C 1.02753229 12.60349666 11.90426206 -0.00163753 0.00181031 0.00881332
C 7.35138016 6.82673175 3.44308774 -0.00001721 0.00735433 -0.00500181
C 5.14016194 0.04054943 12.84700587 -0.00300746 -0.00221177 -0.00034603
C 3.39763061 6.31429932 4.83247404 -0.00155885 0.00051796 -0.00509474
C 7.24601590 1.01253017 5.28740865 0.00708785 0.01084741 -0.00381068
C 1.34959012 5.11176787 14.20641817 -0.01354769 -0.00439490 -0.00411506
C 2.79392077 11.56375241 2.62116840 0.00589971 -0.00005452 -0.01045420
C 5.68714329 7.47550350 10.69728404 -0.00063727 0.00010842 0.00007207
C 1.47402463 12.00295546 10.71974378 0.00265520 0.00185928 0.00013220
C 6.99935722 7.53698741 2.34394144 -0.01165801 0.00033235 -0.00042139
C 5.59668299 0.60880157 14.03635318 -0.00996503 0.00187688 0.00254028
C 2.96193257 5.59796421 5.96810474 0.00039474 0.00016994 0.00441286
C 6.39740591 2.09358198 5.38570796 -0.00476715 0.00187765 0.00383007
C 2.14153903 3.96049397 14.01985073 -0.00337634 -0.00186949 0.00495715
C 1.92712747 10.51598096 2.69703550 -0.00175344 0.00302995 -0.00244343
C 6.47462897 8.62402748 10.77706003 -0.00603153 0.00783148 -0.00448793
C 2.16568196 10.77080294 10.81514253 -0.00187536 0.00053574 0.00441299
C 6.04875196 8.57162343 2.51620071 -0.00750451 -0.00045900 0.00508858
C 6.40271815 1.76201270 14.03577915 -0.00076443 -0.00105230 -0.00310482
C 2.09058309 4.49482670 5.78978726 -0.00104434 -0.00002703 -0.00819349
C 5.84530867 2.62192738 4.19473333 -0.00125624 -0.00256406 -0.00323269
C 2.54283039 3.66126042 12.76243555 -0.00121313 0.00259724 -0.01046249
C 1.66521127 9.99973485 4.00775801 -0.00489148 -0.00586904 -0.00447818
C 6.59124112 9.33697881 11.96184978 0.00189254 -0.00191947 -0.00015343
C 2.25820044 10.12326964 11.99562601 0.00190651 -0.00786856 -0.00081525
C 5.92480095 9.18409175 3.77293012 -0.00586121 -0.01256619 0.00083105
C 6.56346553 2.43381582 12.78718652 -0.00280025 0.00148330 -0.00302526
C 1.98575763 3.90470160 4.49871540 -0.00424774 -0.00117787 0.00144831
C 6.05118839 1.98102037 2.99593152 -0.00306802 -0.00263338 0.00530830
C 2.18440418 4.24790976 11.54576648 -0.00292909 -0.00381219 -0.00829302
C 2.13579548 10.64207049 5.15613098 -0.00255937 -0.00016536 -0.00522183
C 6.11597359 8.70287300 13.10000578 0.00187760 0.01009766 0.00429688
C 1.98584993 10.77380403 13.21266193 0.00585096 0.00579781 -0.00700506
C 6.57633407 8.65359106 4.86761661 0.00871699 0.00646994 0.00501281
C 6.20315543 1.83446633 11.58224661 -0.00468927 -0.00161789 0.00367289
C 2.47884728 4.57768022 3.41431870 -0.00217903 -0.00200315 0.00461326
C 6.90356215 0.82161816 2.97749813 -0.00103326 -0.00863282 0.00723991
C 1.44896027 5.47449445 11.76951817 0.00776287 0.00379418 -0.00262387
C 3.02604362 11.79588896 5.06640968 -0.00298945 -0.00574896 0.00029024
C 5.46923954 7.40405710 13.06407924 0.00733140 -0.00016061 0.00259555
C 1.39036338 12.03296040 13.17066641 0.00101670 -0.00249943 -0.00041740
C 7.13017784 7.33589682 4.70785743 -0.00063904 0.00354960 0.00920995
C 5.56850129 0.58969983 11.58739726 0.00104968 0.00539766 0.00178979
C 3.03817395 5.86683800 3.58948079 0.00596049 0.00039642 0.00039270
C 6.56619278 0.29058889 0.66737812 0.00344946 0.00405225 -0.00167994
C 1.48166595 6.35031419 9.59064243 -0.00887713 -0.00042352 0.00239663
C 2.67646413 12.68159242 7.34451734 -0.00543022 -0.00542591 -0.00734829
C 5.88352429 6.82627178 15.37977351 -0.00031190 0.00225740 0.00379439
C 1.59245528 12.47904280 15.55614741 -0.00729361 -0.00308365 0.00239726
C 7.16832378 6.65952313 7.06207728 0.00485423 0.00790971 -0.00148171
C 5.65921809 0.19867658 9.16401321 0.00626612 0.01239450 0.00275300
C 2.71934256 6.60014126 1.28294327 0.00053196 -0.00561482 0.00233750
C 7.33600961 11.41463281 17.14566244 -0.00668062 0.00165809 -0.00858123
C 1.40925862 7.66238432 8.84583939 -0.00855278 -0.00320870 -0.00352755
C 2.44914541 1.23992206 7.75998022 0.00319631 -0.00114770 -0.00732903
C 5.53860445 5.64124460 32.99080823 0.00465996 0.00186314 0.00376698
C 1.07455991 1.20945234 32.51999509 0.00886070 -0.00045000 0.00376815
C 7.25085247 5.31312859 7.73425648 0.00453311 -0.00491079 0.00165343
C 5.64984797 11.65698466 8.73225381 -0.00594709 0.00195696 -0.00308243
C 3.00955383 7.14277649 17.06427653 0.00283502 0.00332001 -0.00297702
C 7.53490651 0.21999712 21.21449755 -0.00147342 0.00232121 -0.00593209
C 0.55387696 6.37341837 29.81996911 0.00543091 -0.00287225 0.00379743
C 3.34360046 12.46586923 20.20086210 0.00247315 -0.00377948 -0.00273607
C 5.10379835 6.69800359 28.45681769 -0.00268091 -0.00319060 -0.00432887
C 0.76876232 12.12337871 28.41350986 -0.00238071 -0.00054301 0.00199791
C 7.83611611 6.40372040 19.95613567 -0.00674822 -0.00556686 -0.00081704
C 4.76233942 0.45465115 29.27417290 0.00539178 -0.00097872 -0.00954950
C 3.49783981 5.85767571 21.62768553 0.00153740 0.00806298 -0.00589289
C 7.11982770 0.86261904 22.35041816 0.00648857 0.00168780 -0.00048228
C 0.92617819 5.70043889 30.94509762 0.00442326 0.00575537 0.00108251
C 3.07236817 11.76630458 18.99242741 0.01101118 -0.00197733 0.00710389
C 5.43945820 7.18579546 27.18742544 0.00027135 0.00164235 -0.00324551
C 1.15971515 11.38762448 27.29475164 0.00460085 -0.00184845 0.00254001
C 7.57709001 7.24673731 18.88737410 -0.00241930 0.00393503 -0.00247802
C 5.10036354 1.22262338 30.35032736 -0.00100471 -0.00315359 -0.00941490
C 2.98366252 5.30433711 22.74228896 -0.00262628 0.00310028 0.00353704
C 6.38496548 2.05578678 22.19058658 0.00720474 0.00422403 0.00066086
C 1.75926147 4.51440252 30.83692884 -0.00263280 0.00565021 -0.00423245
C 2.27460308 10.57329700 18.95575453 -0.00219123 -0.00121277 -0.00243630
C 6.10210105 8.41703225 27.13739574 0.00380299 -0.00156283 -0.00777611
C 2.08737403 10.32744844 27.37709925 0.01012746 -0.00738091 0.01138681
C 6.61008663 8.22176976 19.02315259 0.00293105 -0.00043739 -0.00081622
C 5.99091012 2.35735779 30.29258112 0.00055124 -0.00588518 -0.00414204
C 1.99952469 4.25353581 22.64602978 0.00475776 -0.00198737 0.00474335
C 6.38217738 2.70678855 20.94258236 -0.00366478 0.00616663 -0.00914279
C 1.87778217 3.96030065 29.53821229 -0.00188412 0.00217747 -0.00352362
C 1.81197112 10.09520480 20.20577114 0.00559835 0.00461763 -0.01228124
C 6.68558186 8.90970243 28.39234058 -0.00454381 0.00179516 0.00009417
C 2.18565453 9.75501419 28.64061775 0.00190366 0.00094988 0.00162775
C 6.07547616 8.63493997 20.24397222 0.00356036 -0.00803601 0.00837875
C 6.52626343 2.68389487 29.05587035 0.00438964 -0.00717515 0.00141097
C 1.87163432 3.61810373 21.40252156 -0.00255343 0.01010645 -0.00217883
C 6.73025590 2.04690319 19.76787726 -0.00448344 0.00389906 -0.00176811
C 1.62945882 4.74265473 28.40406869 0.00265151 0.00177413 -0.00134204
C 2.06015807 10.74057935 21.42135061 0.00060516 0.00494557 0.00383989
C 6.51004738 8.28453896 29.59094292 0.00126988 0.00219835 0.00051843
C 1.70438107 10.37963405 29.79817563 -0.00559372 0.00310293 0.00501041
C 6.54527804 8.03380963 21.36598161 0.00754937 -0.00045419 0.00487600
C 6.17430719 1.95895393 27.92219996 -0.00088360 -0.00260275 -0.00078039
C 2.54106074 4.07310787 20.26770356 0.00186421 0.00184495 0.00407730
C 7.29695497 0.74567823 19.93985564 0.00307336 -0.00096274 -0.00784370
C 0.99408576 5.99059513 28.53862557 -0.00456925 0.00102662 0.00059316
C 2.85009990 11.90821296 21.40471709 0.00597712 -0.00029982 0.00568241
C 5.54473107 7.25226244 29.64551332 0.00401987 -0.00130255 -0.00209197
C 1.05303322 11.58749624 29.70902677 0.00250489 0.00119034 0.00683936
C 7.32877198 6.83136522 21.20177108 -0.00657432 0.00131231 0.00560685
C 5.31082993 0.86314668 28.00354196 0.00207966 -0.00568078 0.00118294
C 3.21777898 5.29656343 20.33781851 -0.00048941 -0.00352320 -0.00009335
C 6.99332436 0.02275280 17.67291277 -0.00181518 -0.00085735 -0.00252504
C 1.30822865 6.52324276 26.15446804 0.00817489 -0.00008386 -0.00938174
C 2.59794336 12.35649535 23.78832905 -0.00021686 0.00580605 -0.00564942
C 5.71171145 6.78333032 32.02596902 0.00211896 0.00149676 -0.00281261
C 1.25455921 12.45181728 32.05991207 -0.00429776 0.00711252 -0.00242154
C 7.25370409 6.39524916 23.61334991 0.00207980 0.00198033 -0.00113112
C 5.76146305 0.11022825 25.72520404 -0.01351288 -0.00594796 -0.00224884
C 3.02036886 5.88136161 17.85776189 0.00321669 -0.00135798 0.01065902
C 7.05233865 11.70374125 0.30567191 0.00109915 -0.00606983 0.00157101
C 1.11132999 7.66383854 25.19445768 -0.00475940 -0.00404400 -0.00244728
C 2.97585057 1.19971526 24.41730902 -0.00675994 -0.00066081 0.00224969
C 5.76003611 5.54084437 16.17255530 0.00197223 -0.00375835 0.00004289
C 1.38870927 0.56567519 16.40954178 0.00298916 -0.00297113 -0.00425303
C 7.47946971 5.30670877 24.55249782 -0.00290927 0.00226974 0.00843996
C 5.41039409 11.88366148 25.21172440 0.00302177 0.00427620 0.00129508