1920
Time=43000.00000003 pbc="T T T" Lattice="25.48366345 0.00000000 0.00000000 0.00000000 25.69906742 0.00000000 0.00000000 0.00000000 32.96890473" energy=-12247.44050145 virial="-33.83394395 19.39264894 0.82335461 19.39264894 -9.44255421 -16.42004699 0.82335461 -16.42004699 -109.63667695" stress="0.00071653 0.00085252 0.00004990 0.00085252 0.00196742 -0.00081130 0.00004990 -0.00081130 -0.00275673" Properties=species:S:1:pos:R:3:vel:R:3
O 5.59483597 2.58180496 6.72153867 0.00857754 0.00603494 -0.00144146
O 2.52176490 3.61757085 14.87077811 -0.00986086 0.00616521 -0.00373274
O 1.49136536 10.34840671 1.64710641 0.00463078 0.00676527 0.00086774
O 6.48330069 9.31941783 9.48805444 0.00255868 -0.00416805 -0.00274894
O 2.43600611 10.03997173 9.69725985 0.00186212 0.00222447 0.00002445
O 5.80499654 9.27140485 1.57346644 0.00357123 0.00112497 0.00604065
O 7.10817905 3.15639365 14.83686348 0.00081738 0.00255754 -0.00020371
O 1.60532708 3.81727895 6.75515248 -0.00053685 0.00106501 -0.00270456
O 6.76967583 1.38244518 16.96100982 -0.00098210 0.00131917 0.00087097
O 2.05618836 5.19542069 8.80043255 0.00461040 0.00189171 0.00407372
O 1.61500831 11.62862913 7.80318411 0.00615376 0.00198087 -0.00008146
O 5.90796557 8.06117801 32.14844220 -0.00908424 -0.00225156 -0.00107873
O 1.95796709 11.59777713 32.48762914 0.00678424 0.00579068 0.00523055
O 6.09971472 7.57424641 7.53163086 -0.00387514 0.00559983 0.00352388
O 6.39973716 1.23234857 8.88098841 -0.00601934 -0.00137324 -0.00299713
O 2.19499402 5.02768235 17.00382222 0.00084390 0.00293666 0.00681667
O 6.13976626 3.19149576 23.03975304 0.00276522 -0.00086779 0.00269487
O 2.44897538 3.68575421 31.59484200 -0.00354920 -0.00053677 0.00518988
O 1.56327506 10.08626947 18.22957658 0.00362433 -0.00157313 0.00296592
O 6.82958848 9.14268031 25.87598495 -0.00213661 0.00217560 0.00123044
O 2.33424780 9.82671760 26.50175798 0.00339667 0.00134316 0.00071612
O 6.05106556 8.91501327 17.46848598 0.00356566 -0.00331403 0.00278290
O 7.07299559 2.73286856 31.22344091 0.00317620 -0.00016249 -0.00145486
O 1.76617702 3.87134917 23.20698931 0.00074233 0.00299912 -0.00170351
O 6.53540631 1.30661185 0.47821607 -0.00011078 -0.00490192 -0.00549684
O 2.11740333 5.31268431 25.54445266 0.00022059 0.00279281 -0.00066107
O 2.46425479 11.57887374 24.47438711 0.00519541 0.00061929 -0.00939345
O 6.69099844 7.44913107 15.56365083 -0.00014700 0.00111114 -0.00006690
O 2.11619331 11.60516261 16.05050201 -0.00638223 0.00575874 -0.00550727
O 6.14127719 7.81887361 23.78422256 0.00213491 0.00163072 -0.00452640
O 6.11074846 1.62363615 24.99490761 0.00524705 -0.00613229 0.00539471
O 2.16406101 5.44464970 0.63025218 -0.00499317 0.00126499 0.00257242
O 5.62734058 15.49692685 7.32490059 0.00085205 0.00112432 -0.00261889
O 2.39499613 16.37361992 15.44599437 -0.00030953 0.00704363 -0.00339213
O 1.43767785 22.89458335 1.17455331 -0.00318301 0.00336730 -0.00436674
O 6.91176018 22.01714977 9.21949140 0.00084783 0.00012229 0.00054656
O 2.92768956 22.94910964 9.31488413 -0.00346529 -0.00009520 0.00740181
O 6.02197238 22.15688990 1.12185391 -0.00351063 0.00226811 0.00357782
O 6.76166294 15.48779655 15.55008737 -0.00159698 -0.01104663 0.00065716
O 1.60257496 16.42929187 7.12359942 -0.00084736 -0.00272866 -0.00139831
O 6.19142777 13.81286133 17.72207589 -0.00103028 0.00285121 -0.00246346
O 2.34376440 17.89160772 9.25563115 -0.00307811 0.00350784 -0.00039791
O 1.94474353 24.50323561 7.24950084 0.00316692 0.00231077 0.00579487
O 6.24067277 20.64888004 31.98722235 0.00193058 -0.00038566 0.00367289
O 1.93232611 24.46859217 32.00523702 -0.00236270 -0.00240163 0.00086740
O 6.68886084 20.50091677 7.17924512 0.00551204 -0.00492866 -0.00147995
O 6.39342943 14.19120968 9.46747581 0.00031696 0.00011975 0.00333188
O 2.03665423 18.26966161 17.28245454 0.00344509 -0.00055273 0.00600529
O 6.06992503 15.15518608 23.95607116 -0.00322740 -0.00116838 0.00222247
O 2.05993087 16.24063111 31.60571277 0.00165861 0.00838561 0.00339550
O 1.57109618 22.95653042 17.47565290 -0.00545957 0.00059362 -0.00167633
O 6.94598407 22.10717604 25.74092740 0.00148108 -0.00191953 -0.00075455
O 2.89275804 23.34305151 25.72910047 0.00116293 0.00107377 0.00725602
O 5.89853157 21.98084537 17.50323407 -0.00128680 0.00130673 0.00647493
O 6.72794089 15.62783985 32.32239942 -0.00387455 -0.00448484 -0.00010303
O 1.62235014 16.45500892 23.29858150 0.00134615 -0.00021660 0.00366598
O 6.30822827 14.02427489 1.30991108 -0.00365236 0.00226110 -0.00788660
O 1.80597316 17.89430726 25.35254005 -0.00218658 0.00192303 -0.00202125
O 2.20508775 24.63411085 23.61690585 -0.00377116 0.00581798 -0.00550321
O 6.27179533 20.55479218 15.42047910 0.00695546 0.00155380 -0.00112835
O 2.22398595 24.73459233 15.59997593 0.00056010 -0.00601635 0.00097756
O 6.33246693 20.71546415 23.66922564 0.00161602 -0.00551750 0.00606395
O 6.34420290 14.09325213 26.33168028 0.00348409 0.00145991 -0.00295263
O 2.11839165 17.71727006 0.83533568 0.00099720 0.00525824 -0.00693682
O 14.97735413 2.99379727 6.97691765 0.00214017 -0.00561063 -0.00263135
O 11.19071879 3.73906739 15.30229332 0.00122265 -0.00308440 0.00250536
O 10.78193762 9.77138518 1.80288505 0.00366161 -0.00121733 0.00070048
O 15.24323874 9.24468269 9.34958645 -0.00366848 -0.00804448 0.00221788
O 11.21195770 10.65576756 9.69220243 -0.00111308 0.00564548 -0.00541264
O 14.77226435 8.99262527 1.31811309 -0.00304382 0.00391886 -0.00141662
O 15.39208348 2.43255134 14.93499199 -0.00274842 -0.00084506 -0.00161300
O 9.95971337 3.75940357 7.15629673 0.00552518 0.00552723 0.00001175
O 15.12456727 1.35566690 17.27064838 0.00360409 0.00387231 -0.00384663
O 10.71136414 5.40774880 9.07682770 0.00566197 -0.00682048 -0.00320466
O 10.34881267 11.95064019 7.73574529 -0.00107165 0.00848433 0.00451438
O 14.66620961 7.52014332 32.29010837 0.00216508 0.00389432 0.00045592
O 10.80585727 11.42947531 32.75249909 0.00097827 0.00644150 0.00230472
O 14.77902270 7.69314582 7.43993962 0.00611292 -0.00763491 0.00302466
O 15.17476953 1.14407247 8.86825284 -0.00120301 0.00580919 -0.00069096
O 10.74333698 4.81659320 17.66460756 0.00383083 0.00027613 -0.00525637
O 14.16267471 2.61424790 23.54676712 -0.00459368 -0.00252441 0.00027911
O 11.35248880 3.27467716 31.81903198 -0.00185165 -0.00662231 -0.00569171
O 10.50837238 9.65287391 17.73289780 -0.00148271 -0.00140553 -0.00229109
O 15.35704785 8.89308067 26.04485256 -0.00329156 0.00542988 -0.00148326
O 11.14762055 10.35601317 26.26477325 0.00377711 -0.00369486 0.00322625
O 14.42014802 8.73993582 17.43224038 0.00803613 0.00513707 0.00067698
O 15.60702482 2.49698013 31.65276208 -0.00618895 0.00509466 -0.00122210
O 9.68610628 3.71190437 23.85666976 0.00487271 -0.00465252 -0.00237640
O 14.72286949 1.03614053 0.91104818 -0.00273089 0.00262243 0.00583856
O 10.30663071 5.08017913 25.81231436 0.00047771 -0.00209662 -0.00197972
O 10.89796986 11.41413078 23.93757760 0.00456879 -0.00157276 -0.00136255
O 15.47856751 7.37835493 15.37088627 0.00004437 0.00296861 0.00389590
O 10.62859885 11.87893254 15.93466605 0.00352918 0.00075995 0.00125569
O 14.64350058 7.50080801 23.84001887 0.00667667 0.00941349 0.00233582
O 14.48899092 1.30966759 25.55580836 0.00235781 0.00100578 0.00480490
O 11.04292462 4.97891085 1.01589322 -0.00105227 -0.00544596 -0.00289337
O 14.61657124 16.06647636 6.79985635 -0.00058308 -0.00069932 0.00425228
O 11.24189363 16.62372260 15.29939638 -0.00392259 0.00291017 -0.00047889
O 9.83559778 22.98575888 1.13231231 0.00239314 0.00366248 -0.00122026
O 15.05004676 22.26961564 9.59471616 0.00341451 -0.00049264 0.00207122
O 11.12568038 22.83004784 9.28481795 -0.00054912 -0.00584979 0.00330358
O 14.16594065 22.16114580 1.41452037 0.00144329 -0.00949162 0.00262811
O 14.85960988 15.62904440 15.07465954 -0.00711755 -0.00555726 -0.00295502
O 10.68971376 16.65839206 7.25080349 0.00084759 -0.00558802 -0.00812150
O 14.75516210 13.79617581 17.23301845 0.00747299 0.00425061 0.00459925
O 11.18280177 18.29975053 9.14342479 -0.00404768 -0.00588599 -0.00694666
O 10.97252728 24.25352329 7.19272512 0.00668785 -0.00349577 -0.00277255
O 14.35061967 20.44530516 32.38152156 -0.00144214 -0.00091733 -0.00008427
O 10.63191141 24.29028931 32.06793441 0.00095910 0.00455134 0.00132171
O 14.32221190 20.45371741 7.48142757 -0.00397923 -0.00054293 0.00224161
O 14.68713549 14.29754041 8.65508041 0.00055058 0.00333502 0.00541962
O 10.70970315 18.28253125 17.42344116 -0.00199869 0.00233811 0.00435523
O 14.63094247 15.65695911 23.43463957 -0.00254651 0.00765412 0.00440276
O 10.73347507 16.35582078 31.96549892 0.00655566 0.00328639 0.00449754
O 9.72631107 23.27668576 17.63397730 -0.00073600 -0.00812428 0.00126938
O 15.79081392 22.17657037 26.31406842 0.00263358 0.00184176 -0.00805753
O 11.29498817 23.21294636 25.88195039 -0.00037916 0.00088288 -0.00283636
O 14.57987273 22.13625267 17.74277070 0.00420314 0.00172791 0.00119824
O 15.31860596 15.73097225 31.77180912 0.00282310 -0.01047264 0.00511742
O 10.13086666 16.15581751 23.42372553 -0.01032035 0.00692434 -0.00690435
O 14.44439298 14.08227500 0.66839556 0.00064724 0.00242479 0.00548469
O 10.31071029 17.84387914 25.56342398 -0.00161775 -0.00566692 -0.00937068
O 10.54094288 24.45484034 23.84714257 -0.00236298 0.00417498 -0.00286137
O 14.88945789 20.45417366 15.84883215 -0.00459966 0.00172657 0.00000267
O 10.52000365 24.51141826 15.52284670 -0.00317844 0.00083202 -0.00355670
O 15.24295694 20.88222735 24.20598640 -0.00221083 0.00061834 -0.00399298
O 14.69842484 14.04470898 25.41451949 -0.00572555 -0.00274581 0.00101590
O 10.45363517 18.32076469 0.87017669 0.00275061 0.00373272 0.00539096
O 22.85500632 2.93012407 6.52067777 0.00408423 -0.00156523 0.00227016
O 19.99176838 3.76087529 15.10073434 0.00074351 0.00463873 -0.00237764
O 18.56296098 10.12848133 1.21273184 -0.00543717 -0.00153345 -0.00413387
O 23.34442024 9.11314308 9.36680428 -0.00395785 -0.00010587 -0.00018275
O 19.77953898 10.35074494 9.26516813 0.00161316 0.00123874 0.00023412
O 22.82373806 9.50997785 1.25631582 -0.00362592 0.00132615 0.00417406
O 23.39949584 2.57941569 14.90542658 0.00006893 0.00100710 -0.00559976
O 18.64688681 3.97876802 7.09659469 -0.00446374 0.00357790 0.00224681
O 23.70588169 1.40150654 17.22569484 0.00071237 -0.00063164 -0.00306091
O 19.29263977 5.56812009 9.09330278 -0.00491134 -0.00274796 0.00235949
O 19.17595281 11.89121375 7.32792126 -0.00490133 -0.00320412 0.00244734
O 22.82902599 7.71777182 32.39152113 -0.00263480 0.00012989 0.00026365
O 19.16705499 11.36414999 31.90368224 0.00092441 -0.00850575 -0.00215922
O 22.96417981 7.52044211 7.40626819 0.00244276 -0.00259726 -0.00448766
O 23.11756903 1.31256133 8.63373436 0.00117241 0.00091105 -0.00360213
O 19.54134138 4.71907539 17.54064280 0.00258338 0.00096023 -0.00333070
O 22.63671193 2.72757397 23.25972045 0.01232951 0.00064015 -0.00046354
O 19.87667278 3.57760433 31.65663471 -0.00452074 -0.00233218 -0.00874451
O 18.25613089 9.90839442 17.77657477 -0.00227103 -0.00187837 -0.00266288
O 23.74358966 9.39791371 26.27818737 0.00143950 0.00064069 -0.00574428
O 19.63863046 10.37588437 25.73002772 0.00033807 0.00094485 0.00474509
O 22.93524769 8.68182723 17.69380115 -0.00595800 -0.00646921 0.00335900
O 23.71628200 3.25578831 31.34993330 -0.00557685 0.00444286 -0.00477675
O 18.51915361 3.58710496 23.80190291 -0.00257450 -0.00134907 0.00632559
O 23.53966017 1.47423000 0.29935308 0.00033934 -0.00743520 0.00330638
O 19.13712600 5.13138591 25.67612736 0.00225381 0.00418584 0.00473809
O 19.25037816 11.80046261 23.67266393 0.00231025 0.00030665 -0.00098093
O 23.74932433 7.51470589 15.49770084 0.00581890 0.00171352 -0.00127079
O 18.60109040 11.39704182 15.60029624 -0.00380266 0.00593817 0.00422617
O 23.06221377 7.70508671 24.00389554 0.00330855 -0.00427690 -0.00264799
O 23.53323343 1.29426481 25.27592302 0.00222807 -0.00188205 -0.00443588
O 19.36847960 5.05700828 0.70302320 0.00736873 0.00150991 -0.00147261
O 22.99449285 15.35718850 7.11489339 -0.00223159 -0.00395113 -0.01112915
O 19.49071994 16.14366326 15.22751689 0.00347277 -0.00323894 0.00077430
O 18.39898685 22.83712735 1.03683556 -0.00399299 0.00238396 0.00000879
O 24.34088005 21.92097234 9.58116644 0.00714362 0.00066527 0.00146497
O 20.21971470 23.16003353 9.62651864 0.00170356 0.00202399 0.00029608
O 23.16094751 21.96979367 1.27286965 -0.00024375 -0.00137437 -0.00280574
O 23.70298208 15.20611567 15.41913081 0.00672873 0.00711203 0.00225382
O 18.38115234 17.18193572 7.15204615 -0.00413968 0.00220983 0.00545860
O 23.06635904 14.01760841 17.62301368 0.00213779 0.00041670 0.00273248
O 19.38625019 18.36726006 9.14120994 -0.00373944 -0.00406317 0.00086341
O 19.78541507 24.30550454 7.42269003 -0.00178678 0.00136409 0.00136396
O 23.36895073 20.41337532 32.07611050 -0.00585817 0.00453652 -0.00268650
O 19.21525910 24.36940019 32.11606650 -0.00321672 0.00094121 0.01052340
O 23.66870382 20.43912345 7.32038620 0.00150636 -0.00291419 0.00043097
O 23.75450462 13.73808290 9.22266764 0.00224894 -0.00241021 -0.00310647
O 19.02516853 17.66643222 17.38850704 0.00274731 -0.00509473 0.00590708
O 23.69653007 16.05988415 23.54237538 -0.01141340 -0.00485637 -0.00324238
O 19.10249456 16.30819853 31.72552761 -0.00012593 -0.00405486 -0.00064664
O 18.76936388 23.01875284 17.63864026 0.00051629 -0.00424821 0.00005492
O 24.34649709 22.33827274 26.05019310 -0.00681080 0.00129339 0.00475858
O 20.42362738 23.33305244 25.98286087 0.00340877 -0.00113112 -0.00007129
O 22.68130528 21.62965572 17.65431177 0.00515935 -0.00008591 0.00215397
O 23.46364103 15.27452310 31.98893236 -0.00135022 0.00596822 0.00107348
O 18.49311199 16.62095519 23.71764700 0.00690470 0.00265870 0.00409400
O 22.69755345 13.83368124 1.01201006 -0.00364567 0.00608684 0.00406706
O 19.00525284 18.25194032 25.58943931 0.00659730 0.00071287 0.00110608
O 19.27635616 24.44800595 23.95037270 -0.00280677 0.00460210 0.00152066
O 23.65552070 20.22203969 15.62901144 -0.00646399 -0.00276268 0.00236140
O 19.12974333 24.33178243 15.47007912 0.00368843 -0.00794750 0.00445948
O 23.72209050 20.94996320 24.01747202 -0.00116309 0.00237235 0.00289885
O 23.08136398 14.46695714 25.51932821 0.00574544 -0.00014244 0.00408568
O 19.19608120 18.02176172 0.78519993 0.00088836 0.00577478 -0.00335484
N 7.85907930 13.17046538 2.79811977 0.00172449 0.00376830 0.00161877
N 0.76643406 6.29024153 10.45337034 0.00018315 0.00261490 0.00037259
N 3.10906835 25.67238834 5.62260815 0.00231287 0.00365148 -0.00201902
N 5.68395588 6.17352572 14.01299404 0.00021191 0.00377250 -0.00797701
N 0.92056504 25.51240372 13.90362117 0.00549412 0.00125957 -0.00027459
N 7.55505663 6.56578169 6.05803229 0.00051680 -0.00336263 0.00023388
N 4.98068887 13.14952978 10.81634386 -0.00515518 -0.00629526 0.00062553
N 3.17914979 6.64672106 2.28447545 0.00752899 0.00230861 0.00579072
N 7.63300004 12.85934676 19.23458840 0.00053404 0.00515685 -0.00053464
N 0.91338908 6.48936546 27.12556222 0.00909894 0.00069027 -0.00773376
N 3.11558621 0.13615742 21.97568450 0.00900838 -0.01506247 -0.00302742
N 5.20654688 6.62114557 30.57217051 0.00184417 -0.00430436 0.00416347
N 1.03213900 0.06891475 30.34553419 -0.00442380 0.00174621 0.00324814
N 7.56155811 6.66772155 22.35230341 -0.00461559 0.00298551 -0.00072674
N 5.24774648 12.90434702 27.88787704 0.00248661 -0.00231452 0.00156204
N 3.38605365 6.26490610 18.46104369 0.00190331 0.00065842 0.00425791
N 7.16985252 25.61282386 2.21003086 -0.00405652 -0.00814917 0.00034955
N 1.32433112 19.15877932 10.81131800 -0.00117627 0.00281698 -0.00205654
N 3.00560726 12.72991610 6.38381407 -0.00192434 -0.00176351 -0.00634966
N 5.11566346 19.43474184 13.77185612 -0.00389349 0.00416544 0.00401200
N 0.82326674 12.51157742 14.33315529 0.00374530 0.00823603 0.00371593
N 7.25127563 19.00072069 5.52192724 0.00140142 -0.00458694 -0.00037305
N 5.11394213 0.29034833 10.46369418 0.00354048 -0.00129144 -0.00187938
N 3.32289552 18.92938195 2.34275423 -0.01021633 -0.00671561 0.00084656
N 7.48792732 0.03066770 18.67913112 0.00258218 -0.00545748 -0.00402799
N 1.29362022 19.31277629 27.00090062 0.00408010 -0.00320301 -0.00387217
N 3.18005214 12.84256761 22.68110647 0.00234493 0.00560993 0.01547426
N 5.17221955 19.61175852 30.30091066 0.00249962 0.00317782 -0.00010069
N 0.74913309 12.88273683 30.90350040 -0.00054303 -0.00386207 0.00169242
N 7.27098185 19.25642551 22.14387382 0.00613582 0.00389239 0.00243072
N 5.20407212 0.32318994 26.67969444 -0.00852172 0.00794722 -0.00736479
N 3.07670218 19.48568558 18.82985839 0.00489397 0.00431928 0.00024703
N 15.64809721 12.84404778 2.21789279 0.00629025 -0.00418573 0.00162448
N 9.64448428 6.57185334 10.72155381 -0.00299785 0.00014373 -0.00009878
N 11.96532633 25.59552645 5.58047315 -0.00117504 0.00132935 0.00319400
N 13.87354865 6.60301344 14.01753083 0.00471058 -0.00065941 -0.00262308
N 9.48236544 0.00299405 13.77699024 -0.00427240 0.00065020 0.00122537
N 16.14997665 6.51876373 6.07464547 -0.00505560 0.00085710 0.00239167
N 13.75038246 13.00987005 10.34531577 0.00214195 -0.00014294 -0.00140319
N 11.85426335 6.29557936 2.65704232 0.00543684 0.00461748 0.00905125
N 15.89003485 12.53109670 18.85460172 0.00897894 -0.00838062 0.00091870
N 9.25265208 6.12283899 27.55422006 -0.00554407 0.00069980 0.00179320
N 11.76988581 25.52521613 22.32483358 0.00060588 -0.01531697 0.00140428
N 13.59587024 6.42452296 30.59238158 -0.00072052 -0.00461283 0.00275288
N 9.20551900 25.23373873 30.58975013 -0.00862090 0.00122848 0.00024818
N 16.04279684 6.28351940 22.25860139 -0.00407000 -0.00544274 -0.00029222
N 13.85966914 12.84370792 27.20384498 -0.00332364 -0.00223523 -0.00104086
N 11.82314049 6.06553870 19.25543627 -0.00235737 0.00468245 0.00341522
N 16.11989415 0.14581812 2.40763570 -0.00179405 -0.00171704 -0.00203537
N 9.60905631 19.09936114 10.59925223 0.00158395 -0.00212873 0.00603830
N 11.73027169 12.94100617 6.26321404 0.00740513 -0.00212891 0.00578210
N 13.43744242 19.73556311 14.24382126 0.00029291 -0.00089186 0.00242888
N 9.36601398 12.86715063 14.31409799 -0.00008980 0.00085061 0.00365188
N 16.07824663 19.85105885 6.11730445 0.00368706 -0.01112304 -0.00087376
N 13.59045400 0.04665420 10.20046047 0.00686525 0.00511366 0.00157682
N 11.90399377 19.24913241 2.37359007 0.00148012 -0.00056466 0.00842203
N 16.17665553 0.35100255 19.02517468 0.00476231 0.00325008 0.00512537
N 9.52688596 19.15261707 27.23403234 0.00725667 -0.00480340 0.00592266
N 12.00620525 12.59598609 22.29088629 0.00519673 -0.00216040 0.00189993
N 13.58658298 19.44863136 30.46673521 -0.00068500 -0.00122900 0.00385285
N 9.60298254 12.58257809 31.20311534 -0.00295697 0.00181064 -0.00532525
N 15.91054774 19.47010636 22.49745340 0.00030751 -0.00369550 -0.00341335
N 13.84912347 25.46428706 27.12443921 0.00294912 0.00208043 -0.00004538
N 11.73992452 19.41077897 19.18593258 0.00296273 0.00001817 0.00231721
N 24.16548109 12.65487128 2.34798218 -0.00328729 0.00247822 0.00552620
N 17.87787761 6.34384996 10.77519687 0.00752586 -0.00149796 -0.00015475
N 20.40389322 25.54125126 5.57233588 0.00037387 0.00063855 0.00576028
N 22.42589490 6.30318497 14.08476472 0.00202039 0.00890857 0.00013240
N 17.93022950 25.55859373 13.98213419 -0.00840473 -0.00446558 -0.00129994
N 24.26157260 6.57873465 5.82477234 -0.00893399 0.00235658 0.00240231
N 21.97194360 12.96394608 10.53075367 -0.00961175 -0.00032374 -0.00077789
N 19.75139766 6.55126067 2.42883067 -0.00590290 -0.00360691 0.00232583
N 24.57774187 12.97497876 18.96965708 0.00104510 0.00280987 0.00024923
N 17.80408385 6.13807151 27.18110424 0.00178186 -0.00021784 0.00364827
N 20.52293711 25.46002339 22.39076682 0.00027139 -0.00158937 0.00518947
N 22.25399671 6.33545288 30.71060603 -0.00262832 0.00343613 0.00163938
N 18.00316062 25.34986937 30.51557215 0.00360131 0.00292218 0.00220181
N 24.46273886 6.56600881 22.55397719 -0.00143905 -0.00822071 0.00298849
N 22.17580201 13.05956242 27.01652625 0.00459153 -0.00511099 0.00201506
N 20.41981836 6.04470591 19.19743657 -0.00333398 0.00050673 0.00577766
N 24.53972537 0.32895341 2.01072302 -0.00288005 -0.00684423 0.00286067
N 17.86241572 19.03516696 10.75689995 0.00093208 0.00010895 0.00347682
N 20.29162902 12.93038309 5.61452870 -0.00117980 0.00130633 -0.00388378
N 21.96637700 19.63646282 14.07008405 0.00090009 0.00558517 -0.00428945
N 17.88601120 12.75376438 13.93987499 0.00222457 -0.00506504 0.00150566
N 24.44798706 18.98066894 5.76319671 0.00800169 -0.00023387 0.00539931
N 22.13536243 25.63229120 10.16846169 -0.00125371 -0.00228561 0.00179293
N 20.36262274 19.07944994 2.45988709 -0.00515835 0.00313739 -0.00074326
N 24.64936529 0.15795526 18.84077910 -0.00472730 0.00140392 0.00172104
N 17.97436127 19.35001073 27.28534880 -0.00178200 -0.00709024 -0.00155126
N 20.14287191 12.97034718 21.90549592 0.00187565 0.00241719 0.00016236
N 22.24382801 19.45698389 30.31838086 -0.01162936 0.00200375 -0.00222159
N 17.86335041 12.62306537 30.57993605 -0.00023967 -0.00560396 0.00408981
N 24.58056195 19.55983497 22.44050547 -0.00668252 -0.00258483 0.00735026
N 22.53175224 0.12766607 27.01965154 -0.00077597 -0.00770154 0.00231486
N 20.01742287 18.97883106 18.99357920 -0.00936179 -0.00264219 -0.00153054
C 7.47339901 0.32594837 4.58895756 -0.00499908 0.00099395 -0.00968065
C 0.65836805 5.86730488 12.72378459 0.00285014 -0.00040622 0.00337393
C 3.25555433 12.39031735 4.01609509 -0.00395195 0.00661463 -0.00117712
C 5.23265335 6.69105248 11.72065242 0.00334194 0.00335298 -0.00654282
C 0.79331157 12.18231638 12.05740004 -0.00096870 -0.00076130 0.00424706
C 7.79846641 7.17047675 3.68411028 0.00182030 0.00013940 0.00475947
C 5.22698870 0.77194511 12.88540566 0.01009536 0.00132758 -0.00696413
C 3.27906886 6.21669795 4.63031574 0.00762205 -0.00307125 0.00284594
C 7.11703884 1.04184291 5.70228937 0.00288457 0.00168923 -0.00114094
C 0.94898682 5.14343792 13.89082224 0.00173831 -0.00036126 -0.00488127
C 2.91892592 11.85931150 2.80970690 -0.00508621 -0.01224737 -0.00012645
C 5.43641136 7.45917095 10.53641878 -0.00195096 0.00232846 -0.00495609
C 1.12464362 11.57504763 10.88124267 -0.00144247 0.00331803 -0.00040173
C 7.25118225 7.73317513 2.55199513 0.00108090 0.00122528 0.00243196
C 5.70440294 1.50801855 13.92643604 0.00447743 0.00366019 0.00232668
C 2.90517106 5.53109770 5.83307905 0.00105614 -0.00120657 -0.00139913
C 6.20050343 2.14206533 5.60111048 -0.00264927 0.00179326 -0.00804073
C 1.91948178 4.13154890 13.79913780 -0.00026974 0.00492367 0.00526858
C 1.99065156 10.76718942 2.82381889 -0.00183870 -0.00087787 0.00140303
C 6.16220507 8.65088553 10.65715985 0.00130757 -0.00446747 -0.00048314
C 2.03755564 10.52611385 10.87863986 0.00274451 -0.00026084 -0.00879335
C 6.41678650 8.81521003 2.64286286 0.00920369 -0.00125082 0.00117878
C 6.47874317 2.65934089 13.74182800 0.00211970 0.00039555 0.00726182
C 2.20076068 4.33168617 5.67121929 -0.00544025 0.00244101 0.00241677
C 6.08140364 2.72834803 4.34348741 -0.01030091 0.00409472 -0.00606232
C 2.12651329 3.53229718 12.52250966 0.00198234 0.00092559 0.00094009
C 1.65648571 10.16182714 3.99809658 -0.00048411 0.00727853 0.00666873
C 6.39635014 9.18901957 11.90500186 -0.00277390 0.00218088 0.00411445
C 2.50795229 9.98089026 12.13908381 0.00941833 -0.00564528 0.00932566
C 6.15660931 9.36740758 3.93565511 0.00150536 -0.00473082 -0.00172599
C 6.62952129 3.20216268 12.41502659 -0.00286437 0.00167949 0.00307616
C 1.98097017 3.78306854 4.33869088 0.00098287 0.00255214 0.00175758
C 6.40112298 1.99976547 3.18001168 0.00299768 0.00536882 0.00027780
C 1.65811236 4.19908054 11.38434865 -0.00652510 0.00801381 0.00355327
C 1.99216913 10.77179520 5.21207883 0.01034830 0.00203104 -0.00625605
C 6.17659028 8.47055910 13.08447762 0.00097565 0.00122442 -0.00033607
C 2.09491467 10.61474644 13.36045174 -0.00289577 0.00186818 0.00134713
C 6.49786401 8.65384663 5.07519530 0.00614437 0.00628191 0.00377570
C 6.23429489 2.38074457 11.33693649 -0.00057355 -0.00010518 -0.00473449
C 2.40786810 4.51785709 3.20598196 -0.00550417 0.00996236 0.00271269
C 7.08128841 0.75427058 3.29738288 0.00623055 -0.00036970 -0.00472026
C 1.02158065 5.44873115 11.49683403 0.00010398 0.00070577 -0.00428588
C 2.72546636 12.01176336 5.22843803 0.00491275 0.00046952 0.00130661
C 5.73623689 7.10600928 12.94447907 0.00225839 -0.00215400 0.00630717
C 1.25953442 11.70549638 13.29201163 -0.00042488 0.00016820 -0.00625779
C 7.29763404 7.47422518 4.98148840 -0.00005210 0.00240209 -0.00172791
C 5.59557371 1.15631047 11.55432052 -0.00085086 0.00581331 -0.00179081
C 2.96236446 5.79379913 3.32797820 0.00215209 -0.00516783 -0.00440510
C 6.82850982 0.24674321 0.95630137 -0.00646246 -0.00035312 -0.00477399
C 1.36965121 6.13909036 9.17675154 -0.00483104 -0.00541117 -0.00528921
C 2.32959734 12.60140050 7.52549641 -0.00097728 -0.00333542 0.00055192
C 6.08542965 6.41387051 15.24408357 -0.00765114 0.00419470 -0.00328592
C 1.41517278 12.51855428 15.57934664 0.00199678 -0.00062469 -0.00388244
C 6.83870437 6.61692067 7.23060591 -0.00501869 0.00195387 0.00019786
C 5.68285240 0.29358793 9.27238277 -0.00779991 -0.01213722 -0.00067885
C 2.73290629 6.50216133 1.02045922 -0.00014322 0.00073082 -0.00353706
C 7.38563771 11.92777970 17.04678780 -0.00432719 -0.00110517 0.00221290
C 1.24381123 7.39114457 8.39509665 0.00144622 -0.00081860 0.00054611
C 2.73439227 0.98734544 7.74569111 -0.00270389 -0.01377089 0.00448507
C 5.66576549 5.62449568 32.62041382 0.00572904 0.00341103 0.00149119
C 1.62326313 1.04590984 32.57492898 -0.00380024 0.00273178 -0.00091806
C 6.98896653 5.38186990 8.13309769 -0.00570137 0.00456813 0.00111059
C 5.25963118 12.13175599 8.68967512 0.01262887 0.00335143 0.00479469
C 3.18571371 7.01856858 16.15750891 0.00585744 0.00370622 0.00229817
C 7.18486806 0.41675873 21.06742386 0.00536573 0.00041747 -0.00019568
C 1.15659230 6.32013755 29.46841044 -0.00052522 -0.00107743 0.00164360
C 3.37969304 12.43672014 20.37785276 -0.00030105 0.00044934 0.00165851
C 5.06704880 6.89356981 28.05241889 -0.00234042 0.00090495 -0.00419615
C 0.91492154 12.53463650 28.50575409 0.00419481 -0.00893123 -0.00065790
C 7.70140969 6.68207207 19.92811541 -0.00582048 0.00497985 0.00082141
C 5.24646540 0.52509472 29.06773965 0.00062372 0.00397019 0.00322446
C 3.30726704 6.18074403 20.81908040 0.00097970 0.00239349 0.00347640
C 6.80650353 1.08424043 22.18738347 -0.00044488 0.00183779 0.00189043
C 1.34125483 5.49399901 30.57674831 -0.00478873 -0.00557149 0.00058551
C 3.10394407 11.66206872 19.30895232 0.00846134 0.00155451 -0.00142145
C 5.33113266 7.65882606 26.93263686 -0.00398568 -0.00137439 0.00021577
C 1.18859422 11.72446784 27.42797787 -0.00396816 0.00153109 -0.00422363
C 7.26956949 7.24300947 18.77845031 0.00531953 0.00520499 -0.00196582
C 5.70168056 1.12126269 30.17407760 -0.00840330 -0.00725033 -0.00371451
C 3.07273896 5.55554603 22.05424710 -0.01331680 0.00468447 -0.00910079
C 6.32798944 2.34935094 22.00127385 0.00188422 0.00081403 0.00145031
C 2.13125676 4.30572142 30.44443482 0.00391258 0.00615409 -0.00652021
C 2.14143286 10.60798373 19.33397119 0.00414552 0.00628141 0.00257206
C 6.29540988 8.64782919 26.98584662 0.00314666 0.00389292 -0.00594177
C 1.96060688 10.56008784 27.62265927 -0.00253031 0.00280253 -0.00089125
C 6.46743471 8.36575416 18.66057644 0.00030541 -0.00498911 0.00513891
C 6.43478535 2.28145613 30.11654400 0.00613619 -0.00375005 -0.00457046
C 2.20994063 4.41659373 22.05405962 -0.00194748 -0.00813245 0.00195400
C 6.15395049 2.80062489 20.72687983 -0.00538003 -0.00066861 -0.00500521
C 2.39511628 3.81243389 29.16434557 0.00795270 0.00225546 -0.00065736
C 1.85235755 10.05625524 20.61858811 0.00097735 0.00018999 0.00101592
C 6.66528409 9.07697944 28.30032226 -0.00021174 -0.00145257 0.00274689
C 2.22855295 10.09885379 28.93314319 0.00454519 0.00718264 -0.00690350
C 6.14470953 9.00864098 19.86723183 -0.00282440 0.00202699 0.00075298
C 6.48357910 3.01553198 28.95184479 0.00175359 -0.00419100 -0.00874177
C 1.85537631 3.84877587 20.73164366 0.00095874 0.00555321 0.00219338
C 6.41730762 2.10090526 19.54688373 0.00206464 0.00050851 0.00264744
C 1.81248802 4.43262031 28.06231535 0.00127889 0.00240288 -0.00059939
C 2.22153067 10.78740707 21.76958302 0.00470592 0.00086565 -0.00727867
C 6.30156277 8.44233885 29.45728885 -0.00165159 0.00148152 -0.00330453
C 1.79307973 10.86830435 29.99344821 -0.00523988 0.00739497 -0.00413540
C 6.30594870 8.35513517 21.08931803 0.00434447 0.00650248 0.00375437
C 6.07062864 2.41476580 27.77701359 -0.00727868 0.00450688 0.00170943
C 2.30463366 4.42338373 19.57576477 0.00254564 -0.00118167 0.00353634
C 6.95670856 0.80936441 19.72679664 0.00206817 0.00244176 -0.00084389
C 1.36169543 5.76896448 28.21131476 0.00172621 -0.00160663 -0.00542397
C 2.85601377 12.04539981 21.61925163 0.00511690 -0.00820402 -0.00224630
C 5.52516060 7.28394894 29.40911990 -0.00203949 -0.00441218 0.00884167
C 1.18317100 12.10400761 29.80109565 0.00133085 -0.00020130 -0.00323905
C 7.17617929 7.23672147 21.17152108 0.01302040 -0.00799550 -0.00787175
C 5.57939960 1.05614211 27.83194511 -0.00124669 0.00136442 0.00663274
C 3.01694130 5.60334191 19.58071532 0.00790958 -0.01033316 -0.00055141
C 7.14473489 0.26372375 17.35428678 -0.00210742 -0.00256710 -0.00058267
C 1.58916331 6.34442370 25.90784908 0.00461766 -0.00224620 0.00426813
C 2.70962178 12.66569170 23.95710525 0.00600309 0.00649910 0.00060274
C 5.63590877 6.87479805 31.80862527 0.00069664 0.00595602 0.00247371
C 1.30542472 12.67732697 32.17201968 -0.00359482 -0.00036150 0.00132984
C 6.85136034 6.86388578 23.55474938 -0.00381377 0.00471019 0.00080558
C 5.86394231 0.54306560 25.50093730 0.00222018 -0.00377847 0.00324941
C 2.87191260 5.99259236 17.23809984 0.00215583 0.00432191 0.00142343
C 7.35247217 11.94261790 0.82180393 -0.00627171 -0.00131008 0.00124419
C 1.45809930 7.46478003 24.88425213 -0.00307288 0.00027656 -0.01001564
C 3.05151966 1.13623037 24.12296902 0.00522086 -0.00256335 -0.00086180
C 5.79655998 5.36116983 16.23254716 0.00193803 0.00012114 -0.00377356
C 1.08313638 1.11239909 15.85903863 0.00286683 0.00291052 0.00447173
C 6.76334043 5.65437411 24.52627176 -0.00426564 0.00342383 0.00337180
C 5.48412824 11.84978459 25.74420667 -0.00223984 -0.00178523 -0.00027928
C 2.85608206 7.75272040 0.04883985 -0.00702502 0.00240048 0.00492037