1920
Time=56000.00000004 pbc="T T T" Lattice="25.33297129 0.00000000 0.00000000 0.00000000 25.74433501 0.00000000 0.00000000 0.00000000 32.94534059" energy=-12247.53244317 virial="-28.78444763 36.02963302 1.81249891 36.02963302 -85.02047864 3.97645511 1.81249891 3.97645511 -26.62671827" stress="0.00102529 0.00166496 0.00010591 0.00166496 -0.00166337 0.00017375 0.00010591 0.00017375 0.00105440" Properties=species:S:1:pos:R:3:vel:R:3
O 5.86154834 3.19787726 7.01184984 -0.00013808 -0.00599936 0.00296023
O 2.62738277 3.95317692 15.02964288 -0.00020645 -0.00445085 0.00007091
O 1.52419968 9.72902960 1.52243401 0.00350754 -0.00331706 -0.00309591
O 7.07752882 9.23575800 9.59828327 0.00080639 -0.00197077 0.00080700
O 2.55822038 10.15981081 9.49844716 -0.00352379 0.00500077 -0.00033799
O 5.56774327 8.77502783 0.87494158 -0.00174482 -0.00057790 0.00004583
O 6.76549935 2.55988495 15.10557436 -0.00472819 -0.00733267 -0.00318807
O 1.35631336 4.05674861 6.69985982 0.00087794 0.00362819 -0.00327491
O 6.18887102 1.39102320 17.25366625 0.00129026 0.00013602 -0.00144968
O 1.87891265 5.13824137 8.92750197 0.00229470 0.00031536 -0.00107521
O 2.39115668 11.72316045 7.47982411 0.00165805 0.00781864 0.00732226
O 6.23851055 7.25428655 31.87962530 0.00049354 0.00628094 -0.00193511
O 1.68711847 10.98705237 32.15280731 0.00012210 0.00150775 0.00156334
O 6.60400817 8.02348903 7.36083735 0.00023004 -0.00787104 0.00036886
O 6.24682684 1.64664435 8.96497547 0.00627923 0.00246714 0.00385713
O 1.79339358 5.20067371 17.13626331 0.00253784 0.00237391 0.00105564
O 5.82034379 2.66193939 23.48602638 -0.00173280 -0.00628481 0.00094090
O 2.42511512 3.38082442 31.32816922 0.00230362 0.00346668 0.00253669
O 1.86430555 10.19390617 17.90552571 0.00613870 -0.00422765 -0.00221217
O 6.84036002 9.00718947 25.85016715 -0.00357526 0.00016406 0.00019239
O 3.03335541 10.25879225 25.91923713 -0.00163108 -0.00157637 0.00265249
O 5.40807704 9.08653735 17.50332445 -0.00271052 0.00172075 -0.00721649
O 7.28809095 2.17887480 31.58725566 0.00001624 0.00083386 0.00547699
O 1.70631223 3.63916733 23.34339703 0.00182256 0.00084387 -0.00549781
O 7.02424849 1.42553001 1.07232955 0.00313033 -0.00318961 0.00534584
O 2.09683751 5.23971221 25.28875405 -0.00425597 -0.00537005 -0.00764699
O 2.20966744 11.72493721 24.01841502 -0.00384115 0.00759485 0.00429015
O 6.40851690 7.78208226 15.58680419 0.00264881 0.00006312 0.00054575
O 2.15421409 11.74640391 15.71080142 -0.00517851 0.00421429 0.00124475
O 6.18405583 7.61535119 23.74644851 0.00173433 -0.01051766 0.00313491
O 6.39587382 0.98852253 25.47144287 0.00497450 -0.00220660 0.00777068
O 2.55924759 4.74245815 0.55282432 -0.00767329 0.00221849 -0.00043335
O 5.82952565 15.44555266 7.13800583 -0.00512957 -0.00235978 -0.00123473
O 2.51380723 16.66373380 15.57452042 0.00169528 0.00448177 0.00257519
O 1.53405124 22.89519450 1.29097537 -0.00074123 -0.00237669 -0.00560752
O 6.72538756 22.34361874 9.45928280 -0.00004241 -0.00283485 0.00029861
O 3.04655890 23.57118796 9.03273286 0.00042718 0.00439969 -0.00498027
O 5.98872152 21.91580651 1.48367473 0.00008496 -0.00563487 0.00523904
O 6.67698859 15.73165277 15.62701358 0.00715348 -0.00282271 0.00014546
O 1.88873335 16.94870599 7.44131971 0.00739592 -0.00411252 0.00194972
O 6.70115045 13.92353918 17.52813838 0.00521268 -0.00058175 -0.00239960
O 2.76089877 18.82495271 9.47562847 -0.00503223 -0.00085618 -0.00527077
O 1.90448340 24.93920217 7.24893695 0.00413236 0.00190171 -0.00313758
O 6.50854629 20.34765293 32.32218385 0.00379732 -0.00425226 -0.00616180
O 2.45384377 24.30271870 32.15744307 0.00073846 -0.00043472 -0.00091617
O 6.87364649 20.51065981 7.66454320 -0.00454280 -0.00022909 0.00372804
O 6.34743381 14.28085885 9.37988121 0.00303568 -0.00101551 -0.00483617
O 2.03665696 18.28259305 17.56174998 -0.00328349 0.00164633 -0.00449289
O 5.95309603 15.54150475 23.87391581 0.00567836 0.00320326 -0.00678186
O 2.98443661 16.45383650 32.28270279 -0.00417423 0.00560252 0.00349817
O 1.87565664 23.11948177 17.50748235 0.00107353 0.00008786 0.00373296
O 6.53286674 21.97916413 26.25550687 0.00535912 0.00714323 0.00043372
O 2.58358442 22.89482119 25.88132978 -0.00300792 0.00474554 -0.00220685
O 5.77739652 21.99303816 18.07400055 -0.00422285 -0.00773133 -0.00244863
O 7.11675405 15.39350268 31.78235426 0.00182797 0.00043601 0.00080523
O 1.13627203 16.25966349 23.51489744 0.00072430 -0.00595241 -0.00122090
O 6.49672718 14.16735655 0.92712549 0.00080796 0.00276689 -0.00078928
O 1.72773158 17.48794386 25.90743400 -0.00008047 -0.00292401 0.00047410
O 2.14190037 24.53595183 23.75446058 0.00606893 -0.00174880 0.00498716
O 5.99872227 20.88964645 15.61729514 0.00465415 -0.00277795 0.00446711
O 2.08211522 24.58067198 15.35309350 0.00231851 0.00461838 0.00250012
O 6.26180626 20.42577178 24.31009070 0.00114822 -0.00275296 -0.00303813
O 6.57498993 14.00746437 25.92099610 -0.00447882 0.00189530 -0.00153330
O 2.19091459 18.11787613 1.06287539 -0.00408898 -0.00009035 -0.00044171
O 14.77345402 3.13109612 6.52876471 -0.00451269 -0.00433362 0.00051207
O 11.07294451 3.77692884 14.85007649 0.00408527 -0.00834951 0.00606956
O 10.10563684 9.72275295 1.56872896 0.00230791 0.00117493 0.00115974
O 15.52410692 9.32149903 9.39187799 0.00250447 -0.00524043 0.00025967
O 11.04710132 10.16856920 9.20344778 0.00467085 -0.00343892 -0.00188948
O 13.84363978 8.88840241 0.88624111 -0.00660352 -0.00274773 0.00822949
O 15.39235003 3.03120445 14.71764125 -0.00029586 -0.00684431 -0.00417634
O 10.30110868 3.66957192 6.77154649 -0.00409795 0.00340403 -0.00214306
O 15.09608869 1.35205882 16.91393072 -0.00395967 0.00289631 0.00154942
O 10.55995115 5.34360879 8.79047163 0.00286925 0.00327696 0.00876393
O 10.17022152 11.66418730 7.38638518 0.00223428 0.00256098 0.00244673
O 14.64001759 7.83848943 31.74229383 -0.00501795 -0.00371737 -0.00259706
O 10.14637698 11.24904672 32.52028838 -0.00241508 0.00491880 0.00433676
O 15.53551836 8.07531809 7.05129105 -0.00174350 -0.00233916 0.00525569
O 14.42665831 1.42142425 8.56465148 -0.00492481 0.00208098 0.00135774
O 10.81973858 5.15810228 17.03718779 -0.00549123 -0.00291841 0.00129727
O 14.05022052 2.66387883 23.07269765 -0.00198513 0.00172576 0.00855842
O 11.22546225 3.73669225 31.47878736 -0.00117538 0.00156083 -0.00651334
O 10.26524292 9.62492636 18.08634506 -0.00952093 -0.00310868 0.00043776
O 15.60625344 8.91872561 25.56109685 -0.00137947 -0.00101960 -0.00109326
O 10.52243892 9.70058729 26.46864208 0.00343252 0.00157087 -0.00285652
O 14.64726900 9.12545083 17.79099078 -0.00056316 0.00227563 0.00397928
O 15.16255159 2.54020490 31.29408493 0.00599738 -0.00315828 -0.00279185
O 10.34243192 4.02393580 23.34799329 0.00126971 -0.00016450 0.00950186
O 14.33505450 1.19597459 0.53452843 -0.00055401 0.00441439 0.00431934
O 10.94972430 5.09152402 25.53438182 0.00066500 0.00496398 0.00469230
O 10.84472608 11.33654390 24.38459972 0.00330216 -0.00118336 0.00043211
O 14.54504938 7.90870782 15.51951165 0.00470644 0.00461392 0.00007577
O 10.23989368 11.06766555 15.57640036 0.00715345 -0.00369351 -0.00153988
O 14.79541506 7.34272487 23.80594854 0.00895690 -0.00265777 -0.00457293
O 14.75022986 1.16964902 25.07389380 -0.00099454 -0.00385383 0.00081312
O 10.69681860 5.12707894 0.54207352 -0.00684907 0.00598468 -0.00351709
O 14.19089941 15.35783936 7.21691343 -0.00774368 0.00032395 0.00219299
O 10.82125913 16.25764729 15.40688702 -0.00022892 0.00475612 0.00557334
O 10.50043300 22.86364531 1.15073023 -0.00066737 0.00062686 0.00328744
O 14.71102897 22.41778811 9.50448489 -0.00601153 -0.00707704 -0.00032624
O 10.97000509 23.11776887 9.41296314 0.00691171 0.00016011 0.00154923
O 14.43829154 22.40078424 1.35196068 -0.00958747 0.00090169 0.00105202
O 14.79732653 15.54656529 15.70197127 -0.00179504 0.00014409 -0.00884101
O 10.01287991 16.47742354 7.23373884 0.00056707 -0.00171399 0.00089249
O 14.27816478 14.07139399 17.80449164 0.00357977 -0.00270320 -0.00040681
O 9.89380912 18.03439294 9.18070343 0.00467823 0.00606732 0.00172714
O 10.14247310 24.55674394 7.33586409 -0.00024080 -0.00152470 0.00112060
O 14.47153579 20.47789254 32.39529008 -0.00142751 -0.00103968 0.00078491
O 11.26338316 24.47278117 32.23101832 0.00031640 0.00607970 -0.00047547
O 15.00591568 20.59187598 7.53860049 0.00108410 -0.00374529 -0.00370769
O 14.89368901 14.23026291 9.42088103 -0.00624742 0.00156795 -0.00162151
O 10.68249778 17.81413242 17.41242358 0.00230844 0.00641935 0.00308025
O 14.17619401 15.46192930 23.77643268 -0.00118822 -0.00008636 0.00479831
O 10.70359863 16.26609007 31.85771645 0.00731345 0.00255331 0.00163994
O 10.32342452 23.06451525 17.62444722 0.00822641 0.00629157 -0.00178419
O 15.34035088 22.08880161 26.26610160 -0.00477850 0.00345536 -0.00607479
O 10.57577232 23.26113923 25.87771792 0.00750786 0.00246176 -0.00946332
O 14.39113752 22.18657614 17.94537739 -0.00237437 -0.00013203 0.00416760
O 15.31376367 15.38918883 31.91356806 0.00027065 0.00240594 0.00624532
O 10.21898318 16.41383166 23.72562150 0.00117074 -0.00301343 0.00556646
O 14.96283535 13.95484113 1.00723461 0.00318916 -0.00689024 0.00029155
O 10.54270683 18.06772731 25.65031131 0.00177618 -0.00511003 -0.00362003
O 10.19511873 24.81554216 23.75933282 0.00184154 -0.00662765 -0.00166444
O 14.67376307 20.78975130 15.81218290 0.00020275 0.00169623 0.00385188
O 10.42102485 24.64575844 15.64666051 0.00437102 -0.00590149 -0.00027611
O 14.87101601 20.67236024 24.12446940 0.00749122 0.00044979 0.00111319
O 14.83251172 13.93928962 25.63619006 0.00718735 0.00968744 0.00154483
O 10.57651330 17.94586352 1.07824400 0.00202159 0.00428549 -0.00311240
O 22.83171878 3.31647370 6.47714881 0.00083853 0.00222522 0.00050743
O 19.69156229 4.22663592 14.95217671 -0.00116623 0.00461304 0.00129370
O 18.39388627 9.95060301 1.46314133 0.00012880 0.00479249 -0.00173844
O 23.81176481 9.10699015 9.45152577 -0.00051672 -0.00203715 -0.00127224
O 19.26683624 10.00096124 9.67809342 0.00242445 -0.00312120 0.00589547
O 22.77781361 9.00113010 1.34144829 0.00916774 0.00426611 0.00249385
O 23.15494483 2.94293471 14.71218162 0.00075616 -0.00558039 0.00629230
O 18.81934278 3.88182732 6.78716663 0.00196816 -0.00600613 0.00482063
O 23.12657917 1.42432281 17.01452990 0.00290874 -0.00099534 0.00124728
O 19.35492396 5.33014170 8.72346946 -0.00371927 0.00256711 -0.00132130
O 19.31576067 11.68007923 7.49240157 -0.00270238 0.00235636 -0.00453473
O 23.41790853 7.62061430 32.32499476 0.00185655 -0.00045685 0.00453645
O 19.20968753 11.51058182 32.25346193 0.00129356 0.00359635 0.00637027
O 23.34399411 7.69844338 7.47527555 0.00303589 -0.00566547 -0.00045495
O 23.14039202 1.48218785 8.52496221 0.00418258 -0.00220093 -0.00581790
O 18.87556312 5.59398387 16.94701023 0.00525810 -0.00276603 -0.00446891
O 23.02506854 2.94856895 23.26023211 -0.00801603 -0.00449650 -0.00568686
O 19.44977696 3.63128571 31.15467599 0.00546885 0.00625767 -0.00593895
O 18.64324577 10.41732238 18.01229588 -0.00238522 0.00399871 0.00435333
O 23.65697722 9.21642746 26.09855890 -0.00264247 0.00534477 0.00645953
O 18.94707712 9.58194864 26.05010624 -0.00081831 0.00025679 -0.00159589
O 22.74767374 9.36441041 17.88305701 0.00309439 -0.00014633 0.00195018
O 23.97464784 2.49244588 31.37962233 0.00336485 -0.00092598 0.00048588
O 18.70810607 3.47200503 23.02311719 0.00049218 0.00397980 -0.00125915
O 23.01532139 0.96974971 0.46264969 0.00992844 -0.00291745 0.00433956
O 19.08905982 5.03245405 24.96778646 -0.00734172 -0.00038189 -0.00207657
O 19.28595780 11.50384130 24.30770389 0.00084044 0.00325128 0.00099083
O 23.01963086 7.82816828 15.71360732 0.00187018 0.00483711 0.00017352
O 19.11188324 11.66024562 15.81459127 -0.00259390 -0.00086653 -0.00282013
O 23.18720432 7.83190661 23.97233393 -0.00292914 -0.00783296 0.00241392
O 23.07330589 1.15164750 25.23920194 0.00850283 0.00181667 0.00113942
O 19.42166713 5.13076083 0.42722386 -0.00178636 0.00099922 -0.00102161
O 22.54688482 15.70539919 6.90228726 0.00059321 0.00278912 -0.00001493
O 19.33066543 16.61302850 15.34549447 0.00283551 -0.00043543 -0.00030466
O 18.40779090 23.11908704 0.73016813 0.00337331 -0.00427382 -0.00020035
O 22.92904081 22.24008619 9.56319657 0.00396522 0.00226611 0.00220086
O 19.37788953 23.08415033 9.22832657 -0.00194822 -0.00236396 0.00162646
O 22.70127658 22.15501286 1.37933466 -0.00362868 0.00270839 0.00535126
O 23.36274759 16.08630136 15.38629888 0.00106704 0.00268897 -0.00114240
O 18.21861894 16.82640567 7.11016907 -0.00260611 0.00441599 -0.00298448
O 23.34849164 14.57438237 17.53951832 0.00196800 0.00407141 0.00017323
O 18.66969581 18.13064342 9.20039066 -0.00251682 0.00535941 0.00228432
O 18.98952501 24.46818013 7.07234481 -0.00039984 0.00364038 -0.00317577
O 22.73909752 20.42571959 32.47546532 0.00447134 -0.00238575 0.00524280
O 19.13828230 24.80467455 31.83474436 0.00404490 0.00147526 0.00459683
O 23.39413419 20.66858992 7.48852956 0.00504003 0.00467193 -0.00017208
O 23.00483298 14.45097131 9.10845328 -0.00687225 0.00001668 0.00210177
O 18.84033114 18.23292303 17.31511450 -0.00047889 -0.00559021 0.00608444
O 22.40889235 15.68267657 23.77034575 -0.00029161 0.00606169 -0.00788506
O 19.14206450 16.47611941 31.82405169 0.00269480 -0.00195921 0.00411338
O 18.58806201 23.20081341 17.27187484 0.00140849 -0.00503843 0.00168123
O 23.70400113 22.29508869 26.34829714 -0.00341536 0.00254794 0.00483117
O 19.50689718 23.22755759 25.86611958 -0.00343091 0.00242953 0.00323042
O 22.77716924 22.33049658 18.15590440 0.00185272 -0.00490957 -0.00426265
O 23.82470375 15.35455979 31.98272463 -0.00103995 -0.00159913 -0.00088720
O 18.32131672 16.51022552 23.52743001 0.00060253 -0.00413831 0.00479985
O 23.09324924 13.89749294 1.02685566 -0.00286673 0.00267273 -0.00423344
O 18.81224140 17.95403058 25.57750907 -0.00185254 0.00412261 -0.00409244
O 19.44557046 24.21042858 23.56052948 0.00285581 0.00293990 0.00273326
O 23.17919930 20.95190295 15.77616372 0.00466562 -0.00279460 0.00563515
O 19.27658653 24.91140405 15.41083163 0.00338694 -0.00161801 0.00328913
O 23.54396834 20.52888773 24.24988654 -0.00512185 -0.00482888 0.00141613
O 22.81181525 14.12079584 25.70236004 0.00219695 0.00073931 -0.00017914
O 18.70335941 18.02017163 1.06428254 -0.00264812 0.00402183 0.00710172
N 7.60207990 12.94659856 2.57479254 0.00697757 -0.00287856 -0.00054075
N 0.89112423 6.48632527 10.49776068 -0.00407210 -0.00281342 0.00319364
N 3.22884855 25.68606009 5.56643470 0.00323888 -0.00131804 -0.00043342
N 5.05349430 6.65237811 14.03545764 -0.00640309 -0.00507883 0.00424583
N 0.83885847 25.60573900 13.73131896 -0.00022850 0.00162261 0.00381061
N 7.38592157 6.66847295 5.62993636 -0.00446948 -0.00050967 -0.00100785
N 5.05849247 13.21519780 10.96977026 0.00150549 0.00292857 0.00456795
N 3.50985238 6.10893211 2.11191720 -0.00433505 0.00439269 0.00492181
N 7.14398905 12.57691581 19.28353702 -0.00554448 0.00478872 0.00483835
N 1.24858046 6.56580042 26.99993914 -0.00412373 0.00630814 0.00295176
N 2.91917761 0.21602671 22.06507427 -0.00160642 -0.00491766 0.00172680
N 5.24065331 6.04834874 30.20532111 -0.00473310 0.00005882 -0.00579579
N 1.31423010 25.50250289 30.63651762 0.00696721 0.00012065 -0.00063390
N 7.46046508 6.67189114 22.14941807 -0.00368560 -0.00598783 0.00495034
N 5.24056122 12.88243568 27.33185522 -0.00546344 -0.00085455 0.00351991
N 3.15882520 6.33008311 18.64028840 -0.00319401 0.00464809 -0.00441083
N 7.73642423 0.12773853 2.82013248 0.00285753 -0.00105747 -0.00156291
N 1.14244065 19.52181194 10.94903683 -0.00399342 0.00748062 -0.00005320
N 3.46489280 12.72102112 5.80307138 -0.00382080 -0.00526187 -0.00156119
N 5.35778700 19.50205456 13.95907402 0.00241486 0.00176650 -0.00266092
N 0.71513532 12.54559459 14.13708073 -0.00763758 0.00272365 0.00093436
N 7.42741477 19.03613112 5.95314839 -0.00210713 -0.00556384 0.00270239
N 5.32540322 0.09673374 10.36604982 0.00320557 -0.00000521 0.00144039
N 3.42271272 19.24753541 2.62337927 0.00388155 -0.00358857 0.00151976
N 7.42418244 0.25339675 18.83302148 -0.00243108 -0.00236785 -0.00010882
N 0.83183072 18.70683239 27.66098617 0.00788700 -0.00295678 0.00626034
N 3.01188484 13.16787766 22.44772942 0.00031737 0.00186318 -0.00444461
N 5.29971633 19.07202742 30.84547025 0.00926698 -0.00967522 0.00392446
N 0.63183333 12.29358880 30.53016823 -0.00060641 -0.00387820 -0.00105402
N 7.40993826 19.23384508 22.64249971 0.00376724 0.00086959 -0.00374565
N 4.86021065 0.12347094 27.02861457 0.00419181 -0.00407666 0.00318252
N 3.38336298 19.09275537 19.27805195 0.00178856 0.00392429 0.00232925
N 16.05120881 12.75802879 2.64370810 0.00870600 -0.00077875 -0.00395661
N 9.44852730 6.51344834 10.44691787 0.00013007 0.00873411 -0.00095123
N 11.63233441 25.51342943 5.93727766 0.00181747 -0.00415977 -0.00132063
N 13.74881710 6.56036717 13.90691836 0.00143195 0.00447356 -0.00133520
N 9.21998055 25.70055390 14.03782656 -0.00220907 -0.00520396 -0.01188830
N 15.84168937 6.49922500 5.34820821 -0.00352729 -0.00463863 0.00019983
N 13.69835353 12.99466172 10.91564409 -0.00149700 -0.00498792 0.00493070
N 11.67829022 6.51056077 2.09755919 -0.00173837 0.00219711 -0.00719193
N 15.95791220 13.20936978 19.08710320 0.00313650 0.00062985 -0.00386901
N 9.40439284 6.01832907 26.92944778 0.00469015 -0.00561633 0.00441198
N 11.53862190 0.06462865 22.27376624 0.00186016 0.00317223 -0.00429130
N 13.79239005 6.47466877 30.16744780 -0.00097380 -0.00715547 0.00313194
N 9.66808861 25.39384263 30.84509744 -0.00251388 -0.01227911 -0.01159938
N 15.79707575 6.04053460 22.19829380 0.00986923 -0.00598164 0.00443409
N 13.53119802 12.87552219 27.23385852 -0.01057197 -0.00242430 0.00271215
N 11.54264792 6.66100742 18.69663213 0.00335343 0.00487261 -0.00357266
N 15.63335307 0.00540669 2.00784321 0.00175382 -0.00796592 -0.00022125
N 9.39825936 19.38525998 10.97267851 -0.00804618 -0.00816286 -0.00296073
N 11.43596750 12.85655578 5.92244011 -0.00242771 0.00432630 -0.00695221
N 13.61964420 19.56354629 14.17293824 0.00890310 0.00883834 0.01056168
N 9.19484145 12.35339525 13.98248489 -0.00690945 0.00027601 0.00188283
N 15.92674451 19.39053230 5.86347586 0.00378924 -0.00763670 0.00228158
N 13.72069565 0.08909784 10.29970112 -0.00502067 0.00602550 0.00077675
N 11.99029592 18.84409893 2.59579020 -0.00008705 0.00997133 0.00649481
N 15.89058381 0.02801833 18.52788478 -0.00008571 -0.00080089 0.00124762
N 9.23733623 19.04701840 27.17458856 -0.00594896 -0.00060408 0.00755796
N 11.75584821 12.45276885 22.60583883 0.00057361 -0.00212593 0.00436834
N 13.54828952 19.33122317 30.69207385 0.00414372 0.00334371 0.00660375
N 9.41802212 12.75434181 30.97624208 0.00191460 0.00081571 0.00693295
N 15.66858198 19.40103063 22.46679466 -0.00067534 -0.00655894 0.00006421
N 13.58551067 0.15021829 26.68617464 0.00072889 -0.00613375 0.00064142
N 11.70917225 18.87619217 19.11303525 0.00488610 0.00266307 -0.00255698
N 24.32375068 12.84013570 2.67780340 0.00324998 -0.00013857 -0.00497599
N 17.88588264 6.36165342 10.17053717 0.00356657 -0.00491297 0.00559815
N 20.23914323 25.48907044 5.46827291 -0.00264143 0.00167294 -0.00219875
N 22.01027123 6.59092312 14.07157526 -0.00673716 -0.00071425 -0.00783065
N 18.04156190 0.17059678 13.75089637 0.00276632 -0.00105330 0.00431735
N 24.38438388 6.47183182 5.84965341 -0.00224948 -0.00207546 -0.00370063
N 22.11883880 13.20672265 10.87097867 -0.00496149 -0.00331174 -0.00079752
N 20.43117747 6.40079004 2.09137207 -0.00297520 0.00213494 0.00363789
N 24.40775331 13.29560488 19.09383123 0.00416713 0.00170336 0.00244767
N 17.98840287 6.28449087 26.55395094 -0.00665202 0.00159551 0.00393048
N 20.19741813 25.67009918 21.95499263 0.00138941 -0.00212531 0.00118227
N 22.74962639 6.27922603 30.57907751 0.00539941 0.00393058 -0.00634907
N 17.71569509 25.69559393 30.35320150 -0.00110869 -0.00699779 0.00423814
N 24.39936406 6.75851383 22.38491102 -0.00430287 -0.00396873 0.00569251
N 22.02637427 12.81030596 27.40697137 -0.00100885 -0.00250489 0.00067515
N 20.11866804 6.57260348 18.69626851 -0.01357552 0.00329337 0.00237436
N 24.30655783 0.06473365 2.19413046 -0.00618702 -0.00661638 0.00714992
N 17.70789972 19.39427902 10.83695018 0.00094275 0.00367052 -0.00086809
N 20.44289130 12.75893644 5.84243567 -0.00620115 0.00310316 -0.00495984
N 22.27997332 19.44302313 14.28719069 -0.00287684 0.00549066 0.00488531
N 17.85051896 12.84185169 14.28582674 0.00782792 -0.00786633 0.00386374
N 24.64271797 19.55901505 5.90574479 -0.00202783 0.00354009 0.00183941
N 22.31456355 0.05608677 10.11876726 -0.00429529 -0.00119296 -0.01070560
N 20.09573389 19.14719722 2.47134779 0.00266082 0.00414942 -0.00280356
N 24.08230699 0.02927314 18.65971136 -0.01100098 -0.00271136 -0.00486352
N 17.75937579 19.09854928 27.17015655 -0.00002437 -0.00190693 0.01326146
N 20.11161959 12.99815298 22.67098699 0.00571272 -0.00043182 0.00445878
N 21.98372138 19.20886520 30.61994148 0.00269921 -0.00934840 0.00170139
N 17.87417544 12.55253214 30.70730575 0.00222472 0.00863964 0.00253637
N 24.28087830 19.30952526 22.53098278 -0.00907255 0.00305051 0.00133680
N 22.14990179 25.68510047 26.94259590 0.00337129 0.00197442 -0.00350545
N 20.11550625 19.04155179 19.01436966 -0.00638783 0.00215321 -0.00617242
C 7.54166688 0.65858100 5.11144251 -0.00400312 0.00609899 0.00545170
C 0.77768962 6.21952850 12.90098456 0.00305383 -0.00130190 0.00093682
C 3.16473830 12.33107154 3.45426482 -0.00634702 -0.00568982 -0.00592208
C 5.05621085 7.05780991 11.70783348 -0.00165282 0.00355564 -0.00474326
C 1.03080125 12.57561712 11.71946133 0.00177008 -0.00238041 -0.00203984
C 7.36315625 6.64006773 3.20615607 -0.00686840 0.00371708 0.00186034
C 5.04142451 0.28337864 12.82615313 -0.00548883 0.00137019 -0.00253755
C 3.52513182 5.94669684 4.52169448 -0.00460494 0.00066559 0.00361138
C 7.21465691 1.46229124 6.15463820 -0.00505471 -0.00290785 -0.00579498
C 1.18369078 5.63471623 14.08175574 0.00031792 -0.00725303 -0.00081735
C 2.72097207 11.56826775 2.41994098 -0.00366896 -0.00258488 -0.00424072
C 5.51671462 7.73299471 10.60327492 0.00023659 0.00264655 0.00059979
C 1.41684272 11.91219604 10.55033022 -0.00190239 0.00252679 -0.00039094
C 6.86556466 7.18819779 2.06115646 -0.00454099 0.00908519 -0.00237982
C 5.41984571 0.93763459 13.97484687 -0.00455128 -0.00540145 0.00122267
C 2.93695000 5.48261148 5.72325832 -0.00450044 0.00338043 -0.00629059
C 6.30825419 2.53878802 5.95529821 0.00058807 0.00532334 0.00692741
C 1.99490099 4.46250326 14.00146007 -0.00026520 -0.00405150 -0.00413383
C 2.07744668 10.34186085 2.58595716 -0.00056671 0.00221966 0.00019419
C 6.46162550 8.80696911 10.67078143 0.00006980 0.00177493 0.00501465
C 2.09513582 10.65985482 10.61148606 0.00388981 -0.00305138 0.00169235
C 6.04707056 8.34579451 2.04065366 -0.00066857 0.00219718 -0.00305200
C 6.24868249 2.04581243 13.96175919 -0.00222687 -0.00483738 0.00405784
C 2.07954096 4.38956587 5.68330242 0.00200215 0.00513760 0.00153504
C 6.05461119 2.91626941 4.64956837 0.00246405 0.01233035 -0.00080486
C 2.28666305 3.87519584 12.67345885 0.00750773 0.00274713 -0.00555597
C 2.01571057 9.84341785 3.89324687 0.00185258 0.00274940 0.00139974
C 6.77127630 9.30680547 11.97495229 0.00527328 0.00358236 0.00115127
C 2.32850332 10.04434401 11.84472711 -0.00066963 0.00017039 -0.00267868
C 5.86805233 9.06039513 3.22942099 0.00540283 -0.00723674 -0.00144823
C 6.52436194 2.67913765 12.77704371 0.00137252 0.00101627 0.00260841
C 1.82855698 3.78753338 4.44698180 -0.00870464 0.00355678 0.00102649
C 6.54214443 2.22064784 3.56301582 -0.00525771 0.00349481 0.00677894
C 1.87038690 4.51291180 11.49957814 -0.00200004 0.00873821 -0.00193716
C 2.46508041 10.61834831 4.96931969 -0.00530461 0.00605859 0.00163333
C 6.28245035 8.67736353 13.05743977 -0.00032908 -0.00026565 0.00092678
C 1.77037958 10.60913551 12.94783768 0.00127468 0.00320474 0.00600547
C 6.31278368 8.56938249 4.43082608 0.00327493 -0.00322007 0.00250304
C 6.03527346 2.11711865 11.61930604 -0.00449365 0.00210688 0.00394356
C 2.33746439 4.29497562 3.24069601 0.00602675 0.00217434 0.00766881
C 7.34258114 1.00390185 3.77203117 0.00765954 -0.00069697 0.00332585
C 1.15365750 5.71185567 11.61559819 0.00331348 0.00367038 0.00105899
C 3.04867796 11.89369635 4.75939974 0.00333428 0.00310774 -0.00434195
C 5.44046912 7.50766567 12.94766008 -0.00409989 0.00012352 -0.00673255
C 1.16853601 11.88971581 12.93073018 -0.00102329 -0.00120785 -0.00340808
C 6.98753560 7.28549579 4.45134487 0.00048841 -0.00326922 -0.00358476
C 5.41426207 0.85046511 11.56579344 -0.00498823 0.00821568 0.00760020
C 3.08743944 5.48111686 3.26647914 0.00047491 -0.00355063 -0.00637428
C 7.44881686 0.31091186 1.46776277 0.00361754 0.00268503 -0.00697307
C 1.54419515 6.29905214 9.34518219 -0.00678602 0.00354631 0.00078873
C 3.00167635 12.70385340 7.00717124 0.00120277 -0.00145564 -0.00086222
C 5.71519335 6.80148934 15.21550773 -0.00340299 -0.00722529 0.00161525
C 1.51224515 12.70808242 15.22664982 -0.00268934 0.00185432 0.00043612
C 7.10653004 6.95839577 6.92180013 0.00158552 -0.00162523 -0.00339370
C 5.90816290 0.47627526 9.19016152 0.00172344 -0.00132683 -0.00040244
C 2.89667469 5.85299893 0.84230343 -0.00106079 -0.00231157 0.00345453
C 6.95128452 11.48074490 17.09328877 0.01085612 0.00487701 0.00159709
C 1.80141247 7.53091238 8.54586711 -0.00711970 0.00647702 -0.00892931
C 2.97116975 1.33565374 7.63191489 -0.00513781 -0.00009962 0.00123704
C 5.49589612 4.91515448 32.22191823 0.00662782 0.00003455 -0.00997357
C 1.70714202 0.76778729 32.77056655 0.00086768 0.00089063 -0.00281658
C 7.32981355 5.77005840 7.89371820 0.00726877 0.00046980 0.00756204
C 5.68251945 12.07846112 8.84295538 -0.00230352 0.00002650 -0.00153019
C 2.46298680 7.43799347 16.66958023 -0.01033171 0.00375374 0.00440036
C 7.41812812 0.46443612 21.17046496 -0.00174488 0.00745630 -0.00810918
C 0.96050592 5.90834839 29.28589702 -0.00333591 -0.00223476 0.00527488
C 3.13617178 12.81532493 20.12800017 0.00049313 -0.00500595 0.00239982
C 5.17504454 6.44117943 27.80716353 -0.00040558 0.00262464 0.00046616
C 0.85751402 12.21820090 28.15984846 0.00370992 -0.00131341 -0.00004379
C 7.61994934 7.13764725 19.76835390 0.00113069 0.00025461 0.00028425
C 5.08459718 0.27056560 29.36126279 0.00849439 0.00256373 0.00588999
C 3.23469988 6.05047495 21.08813410 0.00136488 -0.00134996 -0.01048115
C 7.12158120 1.00921983 22.38942504 -0.00508452 0.00322766 0.00181257
C 1.13374721 5.12715154 30.39673814 0.00352463 0.00528713 0.00045016
C 2.92130173 12.04444293 18.98093984 -0.00545224 0.00244120 0.00565116
C 5.65150439 7.10693731 26.72380010 -0.00410703 -0.00520820 -0.00325890
C 1.54717876 11.81894585 27.02952036 -0.00788446 -0.00403429 -0.00078121
C 7.03198381 7.77916231 18.63044615 -0.00525954 0.00023609 -0.00340283
C 5.68103277 0.76494857 30.55237054 0.00078249 -0.00725737 -0.00181390
C 2.96646887 5.34625514 22.23804164 0.00411423 0.00754737 0.00462235
C 6.29105119 2.15624583 22.32002476 -0.00598603 -0.00013281 0.00078416
C 1.99492592 4.02289462 30.27917179 -0.00485186 -0.00036835 0.00452109
C 2.20309544 10.85635040 19.04665324 0.01183132 0.00462202 -0.00208907
C 6.34521820 8.32084522 26.86150831 -0.00648537 0.00185275 0.00272557
C 2.35333634 10.65112176 27.04757744 -0.00865025 -0.00626911 0.00351223
C 6.00488380 8.70485187 18.64668966 -0.00783933 -0.00150779 0.00105210
C 6.57883474 1.79886123 30.50325562 0.00887527 0.00796056 -0.00115960
C 2.14755070 4.16603738 22.23626175 -0.00363429 -0.00252799 -0.00092608
C 6.11593301 2.84591523 21.10089416 0.00195507 -0.00443922 0.00706158
C 2.44634832 3.62589427 28.96362998 -0.00041137 -0.00577533 0.00045444
C 2.03056588 10.25539120 20.31092415 0.00040370 0.00140769 0.00396369
C 6.55721211 8.82103308 28.19021242 0.00122147 0.00175284 0.00273250
C 2.33966002 9.88289403 28.18977248 -0.00559677 -0.00066002 -0.00056067
C 5.77771365 9.20471079 19.92191489 0.00000271 0.00351870 0.00799486
C 6.82278927 2.39424440 29.25571949 0.00224571 -0.00929338 0.01023043
C 1.66661749 3.78776746 20.93061520 -0.00492492 -0.00559737 0.00163105
C 6.60667817 2.37947381 19.93070559 -0.00077096 0.00259484 -0.00170762
C 2.14648192 4.42140086 27.84237215 -0.00522595 -0.00914763 -0.00060235
C 2.27020109 10.95884557 21.50174493 0.00040361 -0.00076113 0.00452107
C 6.14492875 8.08834400 29.31297951 0.00483647 -0.00727709 -0.00682601
C 1.67762809 10.32049052 29.37843181 0.00196876 0.00378547 -0.00140620
C 6.26772930 8.60960942 21.08705340 0.00053328 -0.00416677 -0.00243008
C 6.26331029 1.86083200 28.10317429 0.00104021 0.00227164 -0.00132842
C 2.00783530 4.42567072 19.72792077 -0.00245780 0.00975936 -0.00397467
C 7.16088038 1.05161739 19.95072687 0.00305729 0.00041925 -0.00174295
C 1.45231196 5.64703408 28.04491204 0.00216889 0.00153343 -0.00207688
C 2.74355328 12.29673051 21.38408583 0.00321613 0.00454260 0.01026992
C 5.52449311 6.83886419 29.10965149 -0.00036526 -0.00130613 0.00142471
C 1.10447951 11.66096363 29.39554204 -0.00385208 -0.00374523 -0.00826581
C 7.11752079 7.48324448 21.06042342 -0.00005152 -0.00919813 0.00206303
C 5.42976385 0.68627252 28.13754667 -0.00147034 -0.00009086 -0.00611650
C 2.77474866 5.62671892 19.79757218 -0.00015122 0.00035644 0.00031606
C 6.85953837 0.36885154 17.61181790 0.00584904 -0.00355468 -0.00169425
C 1.57397292 6.32575225 25.69003139 -0.00240882 -0.00138436 -0.00836241
C 2.66234096 12.87522104 23.71020538 -0.00239580 0.00612003 -0.00325147
C 5.71512502 6.18971712 31.44478669 0.00642673 -0.00333263 0.00407042
C 1.29316682 12.06987180 31.76521550 0.00234411 0.00247616 -0.00058614
C 6.88705329 6.69884989 23.33346006 0.00075620 0.00377333 0.00552518
C 5.58425502 0.12975704 25.86466168 0.00951302 0.00738345 0.00052763
C 2.40130854 6.20672619 17.52049068 -0.00237541 -0.00082725 0.00797166
C 7.07766889 11.91787625 0.29451725 0.00054338 0.00929293 -0.00020378
C 1.45881423 7.50473540 24.69282988 0.01276950 -0.00330550 -0.00089332
C 2.76442492 0.98118729 24.29856275 -0.00219683 -0.00378686 0.00384956
C 5.60992246 5.68320763 16.23736247 -0.00100434 -0.00650586 -0.00156965
C 1.23568340 0.93443718 15.85183352 -0.00704125 0.00468762 -0.00394850
C 7.21812994 5.44735247 24.14159954 -0.00268732 -0.00076604 -0.00311094
C 5.68147945 11.86796094 25.24885227 -0.00293506 -0.00327770 -0.00264889
C 2.61994586 7.10930812 32.85255001 0.00088394 -0.00402730 0.00596819