1920
Time=34000.00000001 pbc="T T T" Lattice="25.64169305 0.00000000 0.00000000 0.00000000 25.48316863 0.00000000 0.00000000 0.00000000 32.90709590" energy=-12246.76070821 virial="-54.46967989 -18.98330455 -0.70783616 -18.98330455 -47.64563462 27.35102859 -0.70783616 27.35102859 -64.28749916" stress="-0.00024000 -0.00096547 -0.00003312 -0.00096547 0.00017519 0.00130644 -0.00003312 0.00130644 -0.00080238" Properties=species:S:1:pos:R:3:vel:R:3
O 6.15977206 2.63491489 6.88377834 0.00544662 0.00428147 -0.00111935
O 2.66327709 3.98073139 15.12130727 -0.00644321 -0.00204574 0.00030448
O 1.51129882 9.95918833 0.90102472 -0.00475278 -0.00294738 -0.00772905
O 6.91536218 8.78505585 9.26235901 0.00212901 -0.00618789 0.00107617
O 2.18692028 10.03174625 9.03750063 -0.00168417 -0.00215391 0.00045960
O 6.09794088 8.82788628 1.21632511 -0.00019827 -0.00296605 -0.00085632
O 6.71348972 3.01530580 14.85538771 0.00115877 -0.00427720 -0.00166585
O 0.93414878 3.53577230 6.73026456 -0.00264618 0.00029077 -0.00403637
O 6.84192699 1.54084419 17.05323152 -0.00309776 -0.00030203 -0.01053594
O 1.53096147 4.93252201 8.83615778 -0.00215196 -0.00076154 0.00506195
O 1.87530098 11.76847722 6.91202433 -0.00266370 0.00077319 0.00268908
O 6.25425000 7.33618694 32.09673077 -0.00334063 0.00132902 0.00029788
O 2.04848487 11.42271532 31.78087849 0.00106774 0.00099123 -0.00555541
O 5.84306878 7.04674194 7.36527624 0.00374668 -0.00546044 0.00526920
O 6.42435845 1.09532052 8.88758193 -0.00487537 -0.00467031 0.00022723
O 1.98443034 5.50144053 17.11364747 -0.00156602 0.00454120 -0.00438836
O 6.16416021 3.03748141 23.30228686 0.00006618 0.00215486 -0.00125983
O 2.30785314 3.16269644 31.44626843 -0.00585656 -0.00201057 -0.00011047
O 1.82945803 10.38300797 17.72077110 -0.00158688 -0.01126069 0.00360277
O 7.03135676 9.39342247 26.19798260 0.00664377 -0.00475269 -0.00307060
O 2.70584843 9.99534720 25.57805684 -0.00358398 0.00121829 0.00345373
O 6.33142379 9.91892746 17.94318136 0.00323501 0.00603234 0.00041703
O 6.57363419 2.39378437 31.57407782 -0.00048443 -0.00775271 0.00488625
O 1.45514157 3.88782390 22.92585773 -0.00019801 0.00499556 -0.00563067
O 6.43060727 0.80469416 0.74656728 0.01226296 0.00424953 -0.00136773
O 1.79208357 5.04809457 25.41246962 0.00110265 0.00458975 0.00892497
O 1.97377635 11.74486162 23.80267510 -0.00143527 0.00340070 -0.00615173
O 6.08930744 8.04103104 15.98132076 0.00384478 -0.00055430 0.00446293
O 2.33342081 11.39049202 15.41759671 -0.00043592 -0.00628196 0.00175056
O 6.23234963 7.88630095 24.01512906 -0.00274943 -0.00058989 0.00194204
O 6.21612360 1.42660153 25.43295139 -0.00195971 0.00542039 -0.00358523
O 2.04251983 4.82996087 0.61721971 -0.00487824 0.00216722 0.00978664
O 6.02777614 15.23453376 6.66791680 0.00211097 -0.00142408 0.00415245
O 2.62272562 16.25689606 15.24825947 -0.00525771 -0.00390924 -0.00031206
O 1.29341737 22.56172099 1.49573576 -0.00772707 -0.00007280 0.00300041
O 6.81501681 21.88558567 9.19077859 -0.00049858 -0.00122237 0.00037203
O 2.67279925 22.89581451 9.54229992 -0.00231343 -0.00206569 -0.00030256
O 5.66719072 21.39711632 1.17920020 0.00372230 0.00150905 0.00669306
O 6.91612970 15.65914872 14.78879328 0.00174054 0.00211193 0.00379265
O 1.77976609 16.58515652 6.83960782 0.00324463 0.00305825 -0.00484970
O 7.01049474 14.42316657 16.97165615 -0.00166454 -0.00034344 0.00777495
O 1.97595906 17.75639648 9.09147235 0.00244642 -0.00039168 -0.00225760
O 1.96983129 24.42082407 7.43659795 0.00218939 -0.00094858 0.00265260
O 6.50500309 20.41039925 31.73850369 -0.00696465 0.00356817 0.00353761
O 1.92324714 23.74824103 32.14889883 -0.00110688 -0.00129714 -0.00463283
O 6.38977415 20.36677861 7.24511736 0.00344401 0.00142385 -0.00206270
O 6.36627927 13.84167056 8.78623135 -0.00262407 -0.00259957 -0.00717889
O 1.98232132 17.74602717 17.19275733 0.00061054 0.00057215 0.00281219
O 5.72353780 15.38668317 23.04164019 0.00279841 0.00175653 0.00255837
O 2.86942386 16.50214715 31.54799595 0.00225065 -0.00097369 0.00113679
O 1.74233408 22.72067430 17.61009899 0.00113736 0.00352115 -0.00387386
O 7.20892316 22.12812603 25.71211607 -0.00030139 0.00336105 -0.00217925
O 2.66246723 23.05171921 25.97671735 0.00659398 -0.00032821 0.00544832
O 5.88514689 22.08057648 17.62796208 0.00293808 -0.00020412 -0.00114574
O 7.15173765 15.66655835 31.39480554 0.00156751 -0.00234345 -0.00302528
O 1.48474936 16.26726334 23.40305239 -0.01318598 0.00486478 0.00160839
O 6.61435007 14.00690181 0.48086001 -0.00160297 -0.00203448 -0.00208017
O 2.39045637 17.78478409 25.22806282 -0.00073293 0.00018199 0.00547853
O 1.99347888 24.31331721 23.80535012 -0.00634445 0.00014646 -0.00452213
O 6.24846472 20.49372305 15.64484919 -0.00379244 0.00564802 -0.00754939
O 2.20417495 24.36966637 15.69699968 0.00350359 0.00157031 0.00013030
O 6.81042060 20.49912797 23.85172194 -0.00432201 -0.00229565 -0.00407738
O 6.42722972 13.95829907 25.27618765 0.00041763 -0.00151367 -0.00718502
O 2.20200071 17.97066243 0.46282254 -0.00124912 -0.00165012 -0.00254944
O 14.65523212 2.74169912 7.15815832 -0.00016407 -0.00374195 0.00544973
O 11.40955535 3.74818032 15.21912933 -0.00295022 0.00200614 0.00239448
O 10.21009043 9.97105340 1.26470195 0.00023325 -0.00594433 -0.00089959
O 15.96334648 8.89848260 9.88094929 -0.00356995 -0.00860064 -0.00709193
O 10.84859600 9.63603121 9.41174372 0.00093772 0.00320897 -0.00480579
O 14.43585522 8.83825585 1.65225580 0.00334020 0.00107822 -0.00036327
O 15.75570436 2.66657461 15.14497702 0.00441955 -0.00010614 0.00318616
O 9.96288907 3.50437879 7.17282888 -0.00819482 0.00146412 0.00234998
O 15.08092446 1.21949128 17.31544652 0.00474952 0.00117559 -0.00747242
O 10.84105795 5.08289051 8.98664643 -0.00467421 0.00368535 -0.00586061
O 10.51875850 11.26768949 7.41648655 0.00165006 -0.00412165 -0.00133035
O 14.78035789 7.49057660 32.47662445 -0.00147864 -0.00075674 -0.00110982
O 10.88595065 11.41761905 32.19161151 0.00186999 0.00125547 0.00392846
O 15.06595998 7.49798995 7.92255055 0.00603126 0.00224923 -0.00210492
O 15.41077884 1.10653186 9.08588866 0.00330054 0.00448702 0.00100799
O 11.01943573 5.32832488 17.16799134 -0.00514193 0.00154558 0.00105475
O 14.33869010 2.99766221 23.38191735 -0.00215145 0.00243121 -0.00418871
O 11.00532692 3.27992261 31.69482333 0.00311715 -0.00235698 0.01340189
O 10.30159995 10.20793046 17.68125478 -0.00576074 -0.00191839 -0.00227369
O 15.50490299 9.13668556 26.54414074 0.00162339 -0.00353500 -0.00074455
O 11.53724241 9.94298846 26.03660004 0.00054239 0.00278349 -0.00748333
O 14.51351527 9.22884171 18.08121288 0.01007577 0.00135488 0.00101864
O 15.69290765 2.59822115 31.80395313 -0.00044982 0.00410910 -0.00012194
O 9.92360332 3.75049519 23.39240467 -0.00013142 -0.00010195 0.00209111
O 14.92860061 0.95156470 1.05811552 -0.00206401 -0.00533774 0.00472668
O 10.66298695 5.33061837 25.59662429 0.00009063 -0.00009674 -0.00508062
O 11.35769926 11.75137612 23.95465929 -0.00309339 0.00260304 -0.00104389
O 15.28203531 7.60685075 16.02618642 0.00218147 0.00613522 0.00187015
O 10.80677132 11.62519608 15.58565929 0.00077006 0.00207311 -0.00354523
O 14.72690286 7.94295171 24.28405484 -0.00290856 0.00312347 -0.00538481
O 14.67482726 1.26197529 25.56887785 0.00511571 -0.00081597 0.00269458
O 10.72545458 4.78093676 0.78288803 0.00093347 -0.00115956 -0.00393506
O 14.41245325 15.45454543 7.10746213 0.00618034 0.00318881 0.00696127
O 10.97321018 16.69766537 14.94056369 0.00119537 0.00676496 0.00335022
O 9.90732335 22.71154027 1.59323069 -0.00420219 0.00465812 0.00500227
O 15.83523430 21.71544113 9.51989222 0.00465969 -0.00222281 -0.00192182
O 11.04903789 22.31536297 9.61280516 -0.00616947 -0.00307314 -0.00063363
O 14.70524213 21.41888366 1.06892291 0.00022601 -0.00158168 -0.00682160
O 15.37632152 15.57047484 15.16828409 0.00173673 0.00439200 -0.00080229
O 9.74675818 15.97479583 6.42090087 -0.00125394 -0.00247650 0.00580646
O 14.75923091 14.32976487 17.32809525 0.00274350 -0.00600912 -0.00229854
O 9.95930829 17.73311150 8.52009009 0.00085864 -0.00287628 -0.00003722
O 10.78327457 24.23004936 7.68813988 -0.00173188 -0.00103612 -0.00106521
O 15.54737423 19.89563192 31.97263076 0.00371316 0.00259177 -0.00621043
O 10.62729223 23.98265503 32.28761194 -0.00184828 -0.00086335 0.00493806
O 15.03650951 20.28797227 7.55291651 -0.00207125 0.00233603 0.00767084
O 14.79040880 13.75324220 9.06132687 0.00158681 -0.00230507 0.00453322
O 10.46180361 18.04058106 17.16856117 -0.00085572 0.00266759 -0.00213160
O 14.62849817 15.60066424 23.55353324 -0.00369302 -0.00164365 -0.00000432
O 10.98001661 16.34836000 31.29390893 0.00264636 -0.00709251 0.00108988
O 10.01566259 22.77710034 17.68699168 -0.00341728 0.00161098 0.00109739
O 15.68323379 21.68942983 26.11478493 -0.00007018 0.00002906 0.00040611
O 11.00055664 22.40755257 25.96635829 0.00297709 0.00286215 -0.00261243
O 14.61861362 21.74683487 18.01512646 0.00594150 0.00203793 -0.00006750
O 15.78382844 15.42241406 31.59759059 0.00199075 -0.00304120 -0.00660945
O 10.28951268 16.34415584 23.28133862 0.00302195 0.00325301 -0.00055968
O 15.33868266 14.03193889 0.87469130 0.00489104 0.00855392 -0.00643825
O 10.97692903 18.04690737 25.08532928 -0.00343950 -0.00600256 -0.00140564
O 10.92834328 24.24108542 23.83543613 -0.00752366 0.00597749 -0.00542044
O 14.58222630 20.34403868 15.84319357 0.00027885 0.00024450 0.00342247
O 10.63238596 24.27175491 15.75029606 0.00153171 -0.00238197 0.00295949
O 15.13958145 20.23881767 24.14595698 -0.00204068 -0.00384945 -0.00223437
O 15.30796504 13.97580123 25.40705319 -0.00105082 0.00166134 0.00133351
O 10.69935328 17.92138179 0.48846273 -0.00559380 0.00006054 0.00510971
O 22.81071531 2.80426398 6.80311492 -0.00659197 -0.00074557 -0.00517064
O 19.64976693 4.43127896 15.74366616 0.00150509 -0.00047128 -0.00379646
O 18.56808021 9.61295279 1.35548673 0.00322693 -0.00660253 -0.00005415
O 23.95019575 8.82647316 9.43594048 0.00201151 -0.00485992 0.00245369
O 19.81189522 10.33880348 9.55744629 -0.00302103 0.00566426 0.00044767
O 23.27086339 9.17373990 1.39470580 -0.00615690 -0.00435634 0.00103828
O 23.50152953 3.03756210 15.07601744 -0.00604081 -0.00510085 -0.00118407
O 18.98975134 3.41854837 7.45911115 -0.00589024 0.00601466 -0.00557335
O 23.36213604 1.40791978 17.19038383 0.00432525 -0.00035621 -0.00575450
O 19.15989236 5.05107096 9.42547118 0.00888434 0.00506251 -0.00430463
O 19.21278499 11.73147382 7.36978718 0.00185176 0.00381286 -0.00601285
O 23.41770901 7.20699958 32.47076581 0.00202165 0.00039480 0.00294835
O 19.39302581 11.38240239 32.30396926 0.00155629 -0.00139733 0.00056696
O 22.78864884 7.40112404 7.51048025 0.00330421 -0.00365746 0.00197695
O 23.28701292 1.21524752 8.95139005 0.00369589 0.00437085 -0.00689075
O 19.00783524 5.63456251 17.91482763 0.00394630 0.01102162 0.00018596
O 22.82394339 2.85987026 23.30878265 -0.00350436 -0.00535229 -0.00028668
O 19.89091409 3.69768197 32.01400928 -0.00623827 -0.00563481 -0.00016421
O 18.56899065 10.67529707 17.53705071 -0.00156859 0.00460042 0.00741916
O 24.20006760 8.89315504 26.22223472 -0.00174749 0.00317851 -0.00074033
O 20.01375837 10.17484554 26.10637580 -0.00233813 0.00460804 0.00157889
O 23.33797328 9.48468892 18.12912838 -0.00255664 -0.00166582 -0.00354822
O 24.47200298 2.16111917 31.77783976 -0.00067064 0.00106201 0.00509701
O 18.04337350 4.10322317 23.90081887 -0.00326922 0.00375734 0.00509618
O 23.07232571 0.99348266 0.71793918 0.00735429 0.00035152 -0.00260564
O 19.09039837 5.32257742 26.08018941 -0.00695861 0.00312674 -0.00294012
O 19.30577248 11.25839572 23.80830945 -0.00471246 0.00155122 0.00615183
O 23.74943808 8.08837791 15.97064824 -0.00170005 -0.00317608 -0.00556998
O 19.56014406 11.99697911 15.66255438 0.00036178 -0.00777598 0.00019583
O 23.58611368 7.56080913 23.99245221 0.00046498 -0.00102136 0.00093911
O 23.26767243 1.69279870 25.50992743 0.00220968 -0.00158144 0.01117242
O 19.00763490 4.85539270 1.22104884 0.00089623 0.00538790 -0.00419573
O 23.40937097 15.22459507 6.72133003 -0.00018451 -0.00108418 -0.00147095
O 19.97110892 16.53454668 14.88293684 0.00049720 0.00032292 -0.00622934
O 19.25133494 22.38016458 1.28707588 -0.00190313 -0.00072171 -0.00411090
O 23.86361733 21.80297411 9.35055033 -0.00186972 0.00428067 0.00187183
O 19.69708016 22.80027328 9.92863818 -0.00015544 -0.00425149 -0.00392864
O 22.96452003 21.21830073 0.99584409 -0.00127710 0.00497603 -0.00016069
O 24.12390320 15.48927658 14.91804934 -0.00273229 -0.00180930 -0.00183001
O 18.65351502 16.47324659 7.16680350 0.00168628 0.00190569 -0.00415958
O 23.66019024 14.05455778 17.01572073 0.00221492 0.00821835 0.00053552
O 19.61756893 18.24358243 8.84220754 0.00130572 -0.00982522 0.00141185
O 19.09250782 23.82418818 7.71022912 -0.00345954 -0.00135497 0.00029956
O 24.29165299 19.96288641 31.81861933 0.00142892 0.00287086 0.00583066
O 19.16761172 24.16981636 32.24501823 0.00083190 0.00432572 -0.00428557
O 23.37202254 20.13438460 7.29358663 -0.00019621 -0.00257314 -0.00102915
O 23.84038844 13.71069282 8.81165598 0.00426192 -0.00125168 -0.00068615
O 19.64393060 17.78734432 17.08218846 -0.00004213 0.00070699 -0.00747281
O 23.49868025 15.41119493 23.11658637 0.00633686 0.00774707 0.00356233
O 19.67722750 16.18496703 31.34775349 -0.00619683 0.00624652 0.00068719
O 18.69237018 22.70031209 17.96349046 0.00318439 0.00421928 0.00355680
O 24.32734765 21.98280279 25.82958607 -0.00211912 -0.00363558 0.00388321
O 19.96921915 23.04458987 26.09579986 0.00271567 -0.00299774 -0.00630750
O 22.99206300 21.57024790 17.75920455 0.00629959 -0.01049973 0.00798581
O 24.06843739 15.71604384 31.30649152 -0.00397575 0.00165073 0.00398762
O 18.61507483 16.43593999 23.43330075 -0.00632404 0.00289929 0.00113930
O 23.80872460 14.10812218 0.35840382 -0.00377033 -0.00008193 0.00346205
O 19.46073414 18.08369721 25.53328585 -0.00049168 0.00134864 -0.00167160
O 19.02341268 24.58992718 24.09165004 -0.00645586 -0.00422151 -0.00195772
O 23.72008728 20.23950404 15.56725163 -0.00829254 -0.00117132 -0.00010642
O 19.40381444 24.59806672 15.97932838 -0.00367216 0.00155134 -0.00027077
O 23.69264987 20.32013529 23.88754787 0.00053349 -0.00150718 -0.00102975
O 23.43847719 13.91164784 25.21515574 0.00123098 0.00250219 -0.00052454
O 19.23228506 17.64778530 0.75557289 0.00085784 -0.00267786 0.00343931
N 7.48577520 12.65001255 2.06512610 -0.00549291 -0.00651911 0.00004154
N 1.09147879 6.44033424 10.52297538 -0.00633891 0.00256109 -0.00621822
N 3.28911948 25.37087780 5.81043201 -0.00422419 0.00036848 0.00317544
N 5.50285243 6.65521884 14.17955365 0.00447663 0.00182117 -0.00005190
N 0.84385392 25.34657398 14.20984131 0.00446214 -0.00638880 0.00082880
N 7.14358901 5.96161615 5.88022286 0.00096387 0.00445963 -0.00203185
N 5.21541116 12.74563447 10.42748963 -0.01076156 0.00543301 0.00097504
N 2.86576366 6.11878746 2.32107722 -0.00186126 -0.00437396 -0.00126700
N 7.84427022 12.94637143 18.64147636 0.00555324 -0.00336907 -0.00342010
N 0.86556996 6.25185370 27.12962162 -0.00071859 -0.00174021 0.00090519
N 3.02508776 0.08010126 22.15802720 0.01282256 0.00142406 0.00289647
N 5.10164936 6.34484069 30.34246651 0.00180583 0.00444053 -0.00315906
N 0.65836293 25.02543105 30.68220623 -0.00140039 -0.00040893 0.00267537
N 7.44193759 6.78714426 22.39224734 0.00027671 -0.00352109 -0.00232770
N 5.41484897 12.85108948 26.90623805 0.00827794 -0.00461175 -0.00221019
N 3.50144992 6.49767173 18.47768288 0.00329143 0.00017939 0.00853485
N 7.45961531 25.11662048 2.38852390 0.00035301 0.00014099 -0.00423223
N 0.72427091 18.80552732 10.74168242 0.00512227 -0.00305202 -0.00162633
N 3.44619006 12.50487895 5.43430172 0.00240856 -0.00365450 -0.00598337
N 5.25313037 19.30562305 13.86190035 -0.00571314 -0.00796441 -0.00644833
N 1.19289106 12.59480992 13.81391522 -0.00054227 -0.00852710 0.00267626
N 7.57341181 19.17993664 5.67213927 -0.00416247 -0.00065202 -0.00161167
N 5.48949383 25.19319487 10.50136158 -0.00406370 0.00068818 0.00133096
N 3.33638869 19.10973414 2.10586224 0.00057518 0.00358982 -0.00080602
N 7.39940773 0.11070767 18.75489433 -0.00453149 0.00380457 0.00067491
N 1.32036510 19.01519319 26.85898631 0.00104825 -0.00015658 0.00223335
N 3.27235248 13.02315749 22.34298195 -0.00018955 0.00176142 -0.00152436
N 5.18081429 19.47977495 30.16424345 0.00234356 -0.00246577 -0.00069515
N 1.15746626 12.62054795 30.15943325 0.00088272 -0.00376022 -0.00590252
N 7.56992695 19.34568988 22.10057837 -0.00035928 -0.00445986 -0.00009870
N 5.16458883 0.09397835 26.87613456 0.00448507 0.00415102 -0.00132878
N 3.28015071 18.84151471 18.76211553 -0.00279184 0.00162586 0.00244534
N 16.00387436 12.69355751 2.66536905 0.00057457 0.00280369 0.00293085
N 9.55169297 6.16265471 10.57858999 0.00494357 -0.00478526 0.00593920
N 11.82023741 25.40263270 6.03846892 0.00086622 0.00276363 0.00250613
N 13.88349295 6.69535153 14.36642254 0.00400731 0.00046631 0.00548524
N 9.62175352 25.40575999 14.01355702 -0.00054331 0.00191482 0.00389785
N 16.02700606 6.18509301 6.29774971 0.00149041 0.00478543 0.00086607
N 13.58338574 12.68935627 10.77219444 0.00495696 0.00476611 0.00107384
N 11.35906825 6.18286131 2.49067899 0.00278215 -0.00914994 -0.00609772
N 16.30617193 13.31048404 18.77589505 -0.00270041 -0.00330798 0.00392475
N 9.43367444 6.30417321 27.20941318 0.00150303 0.00210098 -0.00018075
N 11.76977953 0.05549484 22.06482305 0.00491462 -0.00182991 0.00152234
N 13.50581271 6.53845902 30.92338271 -0.00030202 -0.00500746 -0.00161305
N 9.54061392 25.13950738 30.61424171 -0.00005430 -0.00069427 0.00142644
N 15.79541367 6.66570168 22.76500078 0.00117327 0.00463761 -0.00144627
N 14.19710410 12.75322539 27.06354568 0.00503298 -0.00297963 -0.00458192
N 12.03350188 6.40725234 18.91331795 0.00523331 -0.00790604 -0.00896952
N 16.31024548 0.09147819 2.57339265 0.00444678 0.00276297 0.00222138
N 9.43855069 19.23968316 10.22708980 -0.00089495 0.00248839 0.00477706
N 11.70472316 12.52389275 5.89933191 -0.00001539 0.00147827 -0.00755162
N 13.51781823 19.43280605 14.05593435 -0.00138883 0.00169108 0.00168130
N 9.45784764 12.40418704 13.89384346 -0.00419738 0.00325310 -0.00453895
N 15.98855965 18.93646970 5.87090836 0.00527420 0.00847583 0.00108634
N 13.77556124 0.27125146 10.60329943 0.00640156 -0.00377623 0.00335342
N 11.82178540 18.97379391 2.18525447 0.00600571 -0.00102786 -0.00203508
N 16.06191831 0.10891353 19.00587537 0.00585107 0.00264276 0.00298840
N 9.74852600 19.08935927 26.65771878 0.00192663 -0.00218825 0.00088316
N 12.09305051 13.04903669 22.13458203 0.00075724 0.00703108 -0.00725235
N 13.91835841 19.02505916 30.59592291 -0.00213506 -0.00059715 0.00073720
N 9.68790970 12.55401407 30.66567500 0.00312898 0.00134147 -0.00169663
N 16.35526509 19.08422807 22.57144521 -0.00034366 0.00345546 0.01139896
N 13.52590360 0.28093388 27.26529247 0.00344653 -0.00381218 0.00700913
N 11.77229796 19.17989786 18.68587706 -0.00366757 -0.00319350 -0.00569242
N 24.61823363 12.72799986 1.93858397 -0.00439508 0.00207291 0.00239451
N 18.34336787 6.57623239 10.93221520 -0.00182356 -0.00123535 -0.00342662
N 20.13619545 25.04426572 6.12136420 -0.00670713 -0.00622263 -0.00226853
N 22.53062097 6.98912698 14.43363054 -0.00555371 -0.00333865 -0.00783278
N 17.99325246 0.18323339 14.43814868 -0.00173780 0.00062749 0.00148422
N 24.22692886 6.29088238 6.11713190 0.00697156 0.00266051 0.00501755
N 22.46669405 12.83065498 10.43541920 0.00543070 -0.00199886 -0.00394395
N 20.08033577 6.09791713 2.78052020 0.00418157 -0.00164263 0.00120317
N 24.65354165 12.61093178 18.49598060 -0.00067644 0.00226344 0.00050412
N 17.93406366 6.42490100 27.68158831 -0.00306403 0.00457427 -0.00800232
N 20.03060304 0.36595471 22.47119967 -0.00155023 0.00308355 0.00228619
N 22.35016267 6.19243025 30.80028836 0.00012350 0.00390702 -0.00022115
N 18.06246614 0.06740483 30.74495412 0.00306700 0.00090982 -0.00051994
N 24.51525670 6.21061468 22.32812024 0.00013772 -0.00435500 -0.00187389
N 22.35918653 12.73352969 26.92848993 -0.01029770 -0.00222332 0.00091587
N 20.23276188 6.59749705 19.55472846 0.00446671 0.00521967 0.00110984
N 24.12143245 25.24975107 2.30352626 -0.00053456 0.00121246 0.00203812
N 18.26005122 19.27115666 10.43415743 -0.00080292 0.00791033 -0.00087589
N 20.49250384 12.60786531 5.74789398 -0.00298357 -0.00111820 -0.00045346
N 22.51521014 19.11367305 13.97862295 -0.00683973 0.00424832 -0.00612074
N 18.21889248 13.00192954 14.10422347 -0.00461909 0.00264968 -0.01243524
N 24.67839006 18.96908028 5.86260797 0.00252876 -0.00327662 0.00086475
N 22.50000300 25.27139219 10.65118502 -0.00423056 0.00369198 0.00177226
N 20.65325731 18.49426704 2.33135708 -0.00771192 -0.00065824 -0.00182828
N 24.23452451 0.01940707 18.81485534 -0.00056281 0.00714015 0.00092105
N 18.28793469 19.29806751 27.04710041 -0.00277962 -0.00226340 0.00009807
N 20.54295840 12.47259267 22.32424380 0.00255288 -0.00432111 0.00057560
N 22.51805016 19.46735952 30.47960696 -0.00020492 -0.00780797 -0.00133447
N 18.35321365 12.73104833 30.77885425 0.00437614 -0.00468040 0.00105402
N 24.73051973 18.95983814 22.38140936 0.00233617 -0.00846620 0.00371360
N 22.02761127 0.51926852 27.02240592 0.00334177 0.00181165 -0.00248317
N 20.38007285 19.10266414 18.77845277 -0.00363543 -0.00358849 -0.00422810
C 7.63612365 0.06672927 4.75666503 0.01114909 0.00633367 0.00410837
C 0.80052390 6.13710497 12.83746142 -0.00538189 -0.00575885 0.00463625
C 3.35630135 12.22911503 3.08486570 -0.00842042 0.00028834 -0.00360115
C 5.19218356 6.78558562 11.82629174 0.00339073 -0.00825416 -0.00222758
C 0.90213541 12.38191375 11.46222787 0.00896951 0.00052913 0.00612192
C 7.18045661 6.28302847 3.55629504 0.00362443 -0.00051783 0.00190237
C 5.38613330 0.25835201 12.86362793 -0.00581352 0.00379423 0.00385849
C 2.88007037 5.70811269 4.58247150 -0.00320688 0.00174740 -0.00166664
C 7.33851671 0.85481432 5.86626191 0.00412837 0.00077548 0.00667552
C 1.19472564 5.49492684 14.05808952 0.00324730 -0.00412844 0.00352998
C 2.91980078 11.62674886 1.94653298 -0.00188545 -0.01275263 0.00318882
C 5.64881992 7.20096957 10.56303167 -0.00065959 0.01020808 0.00098991
C 1.15436234 11.76890588 10.26863159 -0.00402581 -0.00029250 -0.00691468
C 7.15228954 6.99000394 2.36102831 0.00204598 0.00313828 -0.00268322
C 5.70360158 1.07062846 13.91661437 -0.00433533 -0.00028573 0.00317096
C 2.50448227 4.99367558 5.72385877 0.00460108 0.00167897 0.00118257
C 6.51868072 2.01396675 5.74044861 -0.00895043 -0.00518535 -0.00045052
C 2.05011953 4.33996988 14.02975507 0.00536103 0.00163645 0.00134742
C 2.10348284 10.46667403 2.01147750 -0.00067935 0.00464534 0.00588033
C 6.45332889 8.37045829 10.47159729 -0.00462330 0.00367280 0.00541381
C 1.88759399 10.60057265 10.22665904 0.00435612 -0.00930036 -0.00151936
C 6.45088354 8.14510013 2.37469217 -0.00840939 0.00319201 0.00383934
C 6.38294180 2.34078962 13.74916039 0.01027160 -0.00530135 0.00388247
C 1.62262318 3.90977799 5.63533920 -0.00435716 0.00936517 0.00911458
C 6.11192576 2.42131775 4.49122792 0.00736101 0.00835300 -0.00235358
C 2.30543847 3.83786828 12.73070704 -0.00392655 -0.00052393 0.00228026
C 1.92657547 9.88193021 3.25874862 0.00217467 0.00850532 0.00809652
C 6.72362846 9.06586499 11.69021742 0.00016536 -0.00229742 -0.00166905
C 2.20225003 9.97118253 11.42622302 0.00059456 -0.00196951 -0.00561769
C 5.99501477 8.67565469 3.59512443 -0.00116108 0.00489722 0.00090315
C 6.61847334 2.72563048 12.43722375 0.00359871 0.00998841 0.00310401
C 1.41938500 3.37197347 4.39013072 -0.00661305 0.00430684 -0.00347214
C 6.61311823 1.71265804 3.41219093 -0.00325016 -0.00191470 0.00125899
C 1.95637917 4.48136554 11.58173291 0.00297008 -0.00032579 0.00565607
C 2.35189676 10.52183027 4.42343997 -0.00317126 -0.00478597 -0.00321792
C 6.50958800 8.52284031 12.92540154 -0.00021598 -0.00578120 0.00000151
C 1.91181992 10.57959290 12.63668393 0.00327098 -0.00310257 -0.00514179
C 6.38409659 8.10914832 4.77695926 -0.01013912 -0.00658341 -0.00686088
C 6.29531623 1.88369884 11.28746183 -0.00105370 0.00537879 -0.00011631
C 2.01123726 3.97840752 3.19458150 -0.00372657 0.00125950 -0.00296771
C 7.19692526 0.38787743 3.48563473 0.00972845 0.00030452 0.00538597
C 1.20435993 5.64279738 11.62572019 0.00648984 0.00140918 -0.00160476
C 3.04316898 11.77128605 4.32716436 0.00061985 0.00305896 0.00274691
C 5.75551855 7.32603300 12.99713400 0.00391294 -0.00586077 0.00491453
C 1.29801200 11.85683534 12.68571941 0.00475937 -0.00405697 0.01112130
C 6.81368270 6.79868286 4.83556489 0.00530177 0.00344841 -0.00122047
C 5.70603028 0.63371511 11.51588949 0.00194961 -0.00693188 -0.00450830
C 2.47946124 5.29933528 3.31874068 0.00059694 0.00330286 0.00171602
C 6.79724493 25.21699838 1.16477149 -0.00147027 0.00138716 0.00216404
C 1.38201047 6.07340749 9.25385070 0.00193944 -0.00193057 -0.00378542
C 2.76745378 12.52076508 6.60752103 -0.00094903 0.00526596 -0.00080367
C 5.92129033 6.96323539 15.43228977 0.00357936 -0.00702555 -0.00518614
C 1.67465669 12.35227311 15.05205005 0.00063666 0.00314712 -0.00141412
C 6.61488987 6.16740541 7.11355796 0.00326699 -0.00408091 -0.00009388
C 5.94524929 0.00755167 9.22511937 -0.00325311 -0.00221141 0.00063525
C 2.53524684 5.83904499 1.06730859 -0.00441749 -0.00569844 0.01190314
C 7.31534520 12.15274961 16.37748393 -0.00617951 -0.00123850 0.00202921
C 1.40915728 7.20993651 8.28668506 0.00538899 0.00972060 0.00332035
C 3.11611690 1.01576660 8.00640480 -0.00181931 -0.00090381 0.00811522
C 5.40392358 5.05129542 32.27077887 -0.00034287 -0.00246203 0.00957490
C 1.07981130 0.29677630 0.09401341 -0.00445604 0.00984762 0.00120244
C 7.05642740 5.17051011 8.16145621 0.00118308 0.00377639 0.00433319
C 5.63626390 11.66996845 8.29042034 -0.00283300 -0.00705170 0.00649630
C 3.02000931 7.60733292 16.37647595 -0.00612350 0.00247665 0.00186568
C 7.50823157 0.53986999 21.07363796 0.00492385 -0.00313406 -0.00153802
C 0.99700412 5.94949331 29.47568227 0.00026329 0.00397415 -0.00087940
C 3.50422189 12.69809950 19.94032483 -0.00613640 -0.00316873 -0.00509971
C 4.90457713 7.24125339 28.09305646 0.00049828 0.00818622 0.00207727
C 1.11439071 12.27268336 27.82440576 -0.00552253 -0.00539076 -0.00787874
C 7.62967252 7.34264978 20.13716135 -0.00001462 -0.00678879 0.00278846
C 4.98645691 0.27704530 29.21201657 -0.00420832 -0.00390452 -0.00267383
C 3.39720933 6.21145347 20.89843459 0.00479047 0.00820278 -0.00154340
C 7.18304309 1.21489614 22.23537388 0.00026662 0.00338515 0.00152075
C 1.28456232 5.10317515 30.51284530 0.00369730 0.00128140 0.00366325
C 3.23411921 12.01254933 18.79660642 -0.00051492 -0.00270293 0.00392992
C 5.45096531 7.93473204 27.03986326 0.00377685 -0.00388567 0.00045904
C 1.48980278 11.70574986 26.63239937 -0.00565708 0.00411709 0.00501288
C 7.31101960 8.03594561 18.99634631 0.00400647 -0.00201106 0.00503847
C 5.27305837 0.98110106 30.36073665 -0.00037497 -0.00962813 0.00262534
C 2.90018070 5.61486924 22.07060950 -0.00172735 -0.00850944 0.00056484
C 6.48706708 2.40327799 22.18325783 -0.00108015 -0.00218480 0.00579253
C 1.97676351 3.86254780 30.30394315 0.00023051 0.00104738 0.00394228
C 2.34447300 10.89280083 18.79702479 0.00586740 0.00184490 0.00256738
C 6.50784574 8.76838339 27.25536666 0.00076077 0.00006942 0.00548005
C 2.26371967 10.58376896 26.72030046 -0.00440407 0.00378005 -0.00260566
C 6.56008654 9.18371839 19.13555516 0.00425608 0.00499019 -0.00856850
C 6.22755361 1.97936514 30.40073891 0.00137673 0.00351890 0.00324356
C 2.12738416 4.40981133 21.92921620 0.00504018 0.00844023 -0.00237151
C 5.97727608 2.79159020 20.92194092 -0.00252676 0.00098591 -0.00584645
C 2.23741116 3.43294567 29.02860913 -0.00713189 0.00009710 0.00907875
C 1.95329541 10.39931297 20.08535209 0.00263337 -0.00812782 0.00418919
C 6.90837437 9.00991003 28.60821177 0.00732592 -0.00510633 0.00255579
C 2.46226356 10.00205492 28.05659433 -0.00016982 0.00066877 -0.00415209
C 6.08417786 9.56710741 20.34507303 0.00017032 -0.00241384 -0.00604149
C 6.59149884 2.60858502 29.21057428 0.00779517 0.00461066 0.00493810
C 2.00340941 3.80440957 20.66232415 0.00299681 -0.00417984 0.00318856
C 6.32226666 2.15433233 19.78910642 -0.00124049 -0.00181091 0.00691669
C 1.90589618 4.21850446 27.96279552 -0.00085664 0.00512762 -0.00318094
C 2.34822989 10.95021335 21.24789986 0.00241877 -0.00506864 -0.00432917
C 6.50528985 8.22113197 29.59354202 -0.00101670 0.00489385 -0.00417206
C 2.26582780 10.63216953 29.22277388 -0.00237050 0.00549688 -0.00407024
C 6.41314448 8.86428666 21.51631924 0.00633846 -0.00571313 -0.00580794
C 6.20498954 2.00823552 28.05005764 0.00555613 -0.00160105 0.00317198
C 2.49227234 4.39427771 19.53096727 0.00342145 0.00099516 0.00187688
C 7.00344354 0.90856965 19.84170021 -0.00422200 0.00173319 0.00037748
C 1.24339610 5.44847730 28.15970865 -0.00019359 -0.00391633 0.00475014
C 3.01259350 12.26283732 21.22007806 -0.00289976 0.00179305 -0.00087726
C 5.46861763 7.29359631 29.39392593 -0.00189812 -0.00112487 0.00381812
C 1.50106594 11.81047985 29.06035032 -0.00156884 -0.01283968 0.00456731
C 7.14346698 7.66011885 21.41416782 0.00306350 0.00437413 0.00111216
C 5.44267076 0.79871809 28.01960371 -0.00105804 0.00175045 0.00411020
C 3.11208450 5.70446211 19.57802874 -0.00252066 0.00029278 -0.00595554
C 7.10247327 0.43669654 17.45992670 0.00070355 0.00460210 0.00195047
C 1.34953472 6.09063541 25.82035132 0.00871933 0.00343543 -0.00154636
C 2.64738044 12.76154604 23.56863003 -0.00132944 -0.00939397 -0.01338512
C 5.65385702 6.37146350 31.56005591 -0.00518090 0.00052109 -0.00873019
C 1.72619436 12.52986167 31.36437656 0.00396853 -0.00812662 -0.00339930
C 6.88369692 6.96698754 23.63730283 -0.00245750 0.00497196 -0.00019795
C 5.64697898 0.38729967 25.71555745 -0.00513584 -0.00385323 -0.00502273
C 2.76111302 6.43020865 17.28608947 -0.00066042 0.00661841 -0.00158724
C 7.21931765 11.73393789 32.83776672 0.00096579 -0.00007629 -0.00154064
C 1.25344398 7.36269195 24.97952453 0.00107195 -0.00474812 -0.01045096
C 2.76912568 1.06459249 24.22943960 0.00357281 -0.00348037 -0.00499669
C 6.02304210 5.69157851 16.23824901 0.01452127 0.00064798 -0.00300010
C 1.06573896 0.89088305 16.40645056 -0.00084546 -0.00002039 -0.00050034
C 7.04334040 5.76029596 24.53120058 -0.00149035 0.01110525 -0.00070849
C 5.33823008 11.93937824 24.64297324 0.00025900 -0.00284001 -0.00262604