1920
Time=60000.00000005 pbc="T T T" Lattice="25.48706285 0.00000000 0.00000000 0.00000000 25.99567708 0.00000000 0.00000000 0.00000000 32.89606151" energy=-12246.37833703 virial="-76.58861952 18.79362871 6.67966142 18.79362871 -118.71367126 -4.14487295 6.67966142 -4.14487295 -89.21867667" stress="-0.00131875 0.00083031 0.00020145 0.00083031 -0.00317518 -0.00025303 0.00020145 -0.00025303 -0.00172666" Properties=species:S:1:pos:R:3:vel:R:3
O 5.86578888 2.48299381 7.06828202 -0.00459440 -0.00415165 -0.00757812
O 2.74876508 4.02303735 15.44029249 -0.00427584 -0.00364180 -0.00354914
O 1.77684212 10.30247180 0.98708921 -0.00093970 0.00832125 0.00331376
O 6.61313065 9.20227611 9.30640147 -0.00107808 0.00195568 0.00581853
O 2.33965361 10.17924118 9.25474852 -0.00624929 -0.00172401 0.00076748
O 5.86508049 9.37396272 1.32967596 -0.00173870 0.00490316 -0.00503692
O 6.47792666 2.78557061 15.48674514 0.00349919 -0.00225928 -0.00178200
O 1.60190707 3.40955662 7.21534669 0.00093213 0.00805245 0.00119210
O 5.98991541 1.22455405 17.44222925 -0.00183527 0.00565286 -0.00424692
O 1.91138360 5.22704252 9.26814729 -0.00872805 0.00434484 -0.00187201
O 1.79058361 11.81156060 7.22716625 0.00070616 -0.00382205 -0.00773920
O 6.09678550 7.61519008 32.21180473 -0.00021669 -0.00058509 -0.00175457
O 2.03430708 11.99175691 31.89741569 -0.00019681 -0.00267647 -0.00087080
O 6.16431182 7.38206778 7.41811703 -0.00285786 -0.00238668 0.00407788
O 6.35197963 1.16094302 9.22428865 -0.00053511 0.00033716 0.00267616
O 1.97707987 5.36892643 17.51927574 -0.00385357 0.00120688 -0.00204331
O 6.02010253 2.71219187 23.75856966 -0.00148924 0.00144075 0.00058862
O 2.46199714 3.75521299 31.81679071 -0.00268542 0.00497312 -0.00254302
O 2.05561746 10.30575035 17.25748512 -0.00076429 0.00472344 -0.00746637
O 7.17562911 9.23128693 26.03162388 -0.00153813 -0.00432790 0.00083994
O 2.80376549 10.42284262 25.86827852 -0.00088245 0.00145326 -0.00265990
O 6.05813805 9.07117700 17.61099771 0.00156523 0.00586195 0.01000266
O 7.08830789 2.78550486 31.70753052 0.00062037 -0.00188440 0.00405503
O 2.02157474 3.74376256 23.68134321 -0.00352610 0.00361208 0.00249767
O 6.60921739 1.43114548 0.80464991 0.01076915 -0.00274119 -0.00609810
O 2.51870945 5.63599797 25.52200853 0.00138471 -0.00084102 -0.00260440
O 1.90351324 11.47685781 23.60432457 -0.00479983 0.00463303 -0.00382265
O 6.50454735 7.86698514 15.48146927 -0.00389553 0.00342644 -0.00295605
O 2.58812011 12.21809682 15.33745464 0.00661103 0.00071486 -0.00288208
O 6.48095490 7.95515845 23.85763610 0.00169389 -0.00039130 -0.00637244
O 6.85298716 0.93119739 25.69585861 -0.00116557 0.00044725 0.00093601
O 1.79622920 5.07792661 1.05747448 0.00333355 -0.00009614 -0.00306454
O 5.79980005 15.97630591 6.53069750 0.00571587 -0.00301943 0.00038152
O 2.91341366 17.34614044 15.14621928 -0.00341882 0.00324321 0.00180542
O 1.63468201 23.46946175 1.34574834 0.00051026 0.00023664 0.00673591
O 6.99195017 22.07653624 9.55453633 0.00199103 0.00066683 0.00006906
O 2.43001590 23.29772322 9.54912155 0.00161351 0.00520099 0.00463407
O 5.65637402 22.55192593 1.55923778 -0.00805059 -0.00643585 0.00461172
O 7.07023785 15.61732066 14.93590450 0.00195582 0.00276976 0.00226016
O 1.49241199 16.91918049 7.02766031 0.00180283 -0.00263552 -0.00037478
O 6.35757061 14.06939631 16.89195404 0.00446798 -0.00360275 0.00146631
O 2.27814127 18.37804441 9.05684376 0.00314167 -0.00079883 -0.00647016
O 1.73362103 24.94316638 7.44167056 -0.00161756 0.00966005 0.00085681
O 5.71981238 21.02692347 32.34008973 -0.00951957 0.00182617 -0.00235041
O 2.26447818 24.68810074 31.98558610 0.00225615 -0.00458617 0.00012463
O 6.20293631 20.59633731 7.46709869 0.00048515 -0.00066343 0.00300876
O 5.99190202 14.45764037 8.72807471 0.00096261 0.00058307 0.00321945
O 2.06861447 18.31779454 17.29966085 -0.00018065 0.00883273 -0.00192476
O 5.44846298 15.53771300 23.18645371 -0.00156821 -0.00026968 0.00376059
O 2.69350852 17.19188959 31.68989766 -0.00214124 0.00196099 -0.00015210
O 1.21981560 23.52472114 17.88359179 -0.00038117 0.00129076 -0.00188584
O 6.93729609 22.19358916 26.11460236 0.00270696 0.00067010 0.00439076
O 2.97287773 23.30831527 26.03563327 0.00343548 -0.00314240 0.00384981
O 6.15588139 22.39063232 17.51007690 -0.00305871 0.00050045 0.00012243
O 7.05057388 15.70162898 31.26838479 -0.00585859 -0.00531642 0.00131257
O 1.29203932 16.63331846 23.34638871 0.00460958 0.00726152 0.00595444
O 7.10092356 14.17586435 0.46144834 0.00430073 -0.00006782 0.00389522
O 1.86069828 18.13103756 25.44654902 -0.00047357 0.00018029 -0.00228550
O 2.32921121 24.70015983 23.83229608 0.00361458 -0.00242843 0.00207081
O 6.42998909 20.64407176 15.59267376 0.00497043 -0.00483811 -0.00193033
O 1.68132620 24.90874813 15.85652352 0.00516239 -0.00061346 -0.00066556
O 6.70165323 20.88131803 23.97864463 -0.00125758 -0.01072861 0.00535241
O 6.29352503 14.08015988 25.22328016 -0.00302245 0.00129365 -0.00046113
O 2.30217745 18.54517266 0.91867180 -0.00189114 -0.00186543 -0.00842767
O 14.52852434 2.73534203 7.07035640 -0.00268604 0.00159075 -0.00191954
O 11.25813225 3.75063160 15.24137726 0.00496398 -0.00468698 -0.00154029
O 10.38990802 9.95376045 1.08541168 -0.00261057 0.00302922 -0.00402152
O 15.22908732 9.27451030 9.58156802 0.00133661 0.00196559 0.00314905
O 10.71159047 10.12063801 9.34155555 0.00062435 0.00254594 -0.00401796
O 14.47656806 9.10108616 1.17185118 -0.00320243 0.00249813 0.00454070
O 16.03002708 2.49744447 15.43815380 -0.00198137 -0.00646887 0.00065984
O 10.65928529 3.53246306 6.93030357 -0.00230459 -0.00401937 0.00279760
O 15.05526497 1.27718325 17.62998275 -0.00298957 -0.00563897 0.00075197
O 10.17750097 5.06304981 9.07368727 -0.00450987 0.00546281 0.00039052
O 10.72966316 11.62915670 7.28537315 -0.00675624 0.00246349 0.00749656
O 14.64195480 7.53624561 31.89638503 -0.00254023 0.00490796 0.00045456
O 10.34981777 11.56516087 31.87228719 -0.00413979 0.00099615 -0.00224136
O 15.08632831 7.89178315 7.45991123 0.00536788 0.00413339 0.00236674
O 14.32975467 1.28998967 9.19046312 0.00538903 0.00139384 0.00539037
O 10.70174238 5.36823492 17.17321942 0.00280974 0.00280477 0.00057300
O 14.32728312 2.69156452 23.66343944 -0.00379879 -0.00368122 0.00199145
O 11.20808403 3.44303221 31.52555545 -0.00174584 0.00955768 -0.00090901
O 10.59792380 10.05716866 17.32873882 0.00282675 0.00614105 -0.00133684
O 15.13131056 9.51386119 25.91569143 0.00375672 -0.00032626 -0.00276671
O 11.44842339 10.39689597 25.74246365 0.00836255 0.00552371 -0.00685724
O 14.62970206 8.95118892 17.68958646 0.00187786 -0.00373775 -0.00158018
O 15.55524263 2.58480396 32.08190079 0.00814295 0.00369038 -0.00146260
O 9.88998435 4.12767094 23.20846017 -0.00006128 0.00433544 0.00580114
O 14.79601034 1.02036057 1.10662719 -0.00263928 0.00287272 -0.00136610
O 10.45204494 5.36475023 25.63175093 -0.00274205 0.00179054 0.00222325
O 10.49434378 11.70611179 23.53423281 0.00129275 -0.00345262 -0.00510521
O 15.01285104 7.62037411 15.43539532 -0.00084778 0.00227846 0.00180389
O 10.21774229 11.72596327 15.45439039 -0.00393434 -0.00308686 -0.00104589
O 15.38246068 7.75037306 23.90650856 -0.00253530 -0.00674410 -0.00733567
O 14.75976344 1.36659183 25.86790323 -0.00384321 0.00672025 0.00120566
O 10.67308738 4.73087218 0.75676321 -0.00203574 0.00316691 0.00112274
O 14.10538791 15.81580608 6.61555991 0.00295973 0.00232034 -0.00244535
O 11.17844454 16.86149463 15.43675128 -0.00075089 0.00636378 0.00317377
O 10.25129489 23.18513593 1.53066854 0.00175683 -0.00122960 0.00523207
O 15.42902994 21.92396906 9.29706081 0.00678384 0.00379752 0.00471876
O 10.88080251 23.03266464 9.58825106 -0.00388669 0.00459515 -0.00436704
O 14.42683209 21.97592166 1.22246642 0.00642729 -0.00289086 0.00115877
O 15.38219891 15.98272946 14.75277290 -0.00586088 -0.00307098 -0.00285038
O 9.97577524 16.75327191 6.85653308 0.00194753 0.00165423 -0.00045586
O 15.10338451 13.89583340 16.94675365 0.00426092 0.00508826 0.00744279
O 10.49329512 18.12462241 9.06015662 0.00406653 -0.00241786 -0.00501957
O 10.42710175 24.71194815 7.69671738 0.00346656 -0.00310064 0.00053815
O 15.06980303 20.59297628 31.85134517 -0.00514884 0.00513223 -0.00315888
O 10.56419563 24.55754254 32.34899624 0.00367822 -0.00164620 0.00017935
O 14.48963056 20.34460209 7.39829273 0.00166563 -0.00328390 -0.00168234
O 14.52042826 14.42908553 8.66038388 -0.00287005 0.00104098 0.00017058
O 10.86333850 18.42427031 17.44072086 0.00514640 -0.01027224 -0.00078018
O 14.65167756 16.13366483 23.03057715 -0.00610855 0.00255631 -0.00316505
O 11.02421182 16.70867641 31.74705869 0.00547985 -0.00243691 -0.00135576
O 10.54621500 23.67002002 17.91937666 -0.00029184 0.01207302 -0.00158265
O 15.72786383 22.28604037 25.89814381 0.00292791 -0.00310185 0.00501544
O 10.64636718 23.37404902 26.14147980 -0.00103585 0.00499055 0.00384691
O 14.44448881 22.43258604 17.79664939 -0.00606069 0.00458371 -0.00014533
O 14.99457281 15.90842408 31.33691867 0.00187025 0.00008307 -0.00078823
O 10.06950281 16.45913988 23.62650819 -0.00349671 -0.00753632 0.00181987
O 15.16233388 14.19063409 0.47099573 -0.00016003 -0.00034810 0.00123813
O 10.43973465 18.29898391 25.54418183 0.00356257 -0.00483504 0.00175730
O 10.50082483 25.05238424 24.20350591 -0.00389431 0.00289849 0.00213501
O 14.52204314 20.93823759 15.71408359 0.00552172 0.00601267 0.00024215
O 10.61985520 25.14323814 15.59475917 -0.00070204 -0.00334493 -0.00146265
O 14.88470612 20.96427210 23.92920960 -0.00741542 0.00060617 0.00271609
O 14.89772323 14.31808919 25.09668409 0.00444000 0.00012942 0.00010573
O 10.57632567 18.37101195 0.76667040 0.00125128 0.00651905 0.00180666
O 22.75984913 2.92126439 6.74249286 -0.00224070 0.00103167 0.00737166
O 19.76044347 4.02904442 15.34794120 -0.00583391 -0.00451940 0.00090575
O 18.45202674 10.23102601 0.87708880 0.00280251 0.00068720 0.00193876
O 23.73783089 9.60472919 9.91464375 -0.00365501 0.00391992 0.00384800
O 19.14241884 10.34319055 9.05934997 0.00048317 0.00002119 0.00265096
O 22.24589365 9.43879179 1.76392391 0.00537965 0.00178954 -0.00433081
O 24.00270461 2.81057225 14.90840415 0.00605688 -0.00265247 -0.00114131
O 18.17969896 4.06891503 7.29087329 0.00280385 0.00738410 -0.00419936
O 23.55629459 1.46155551 17.24604681 0.00090326 -0.00509405 0.00012479
O 18.75505577 5.33356397 9.30088164 0.00436340 0.00291022 0.00076044
O 18.83705948 11.77512167 7.02061472 -0.00212836 0.00444649 -0.01015207
O 22.98904458 7.81463897 32.37111271 0.00215704 -0.00058774 0.00097439
O 18.84587309 11.75167703 31.74315843 -0.00509077 0.00815061 -0.00263654
O 23.91745457 7.93366874 7.75806191 0.00533827 -0.00582562 0.00109316
O 23.09631438 1.30580259 8.84747696 0.00555385 -0.00322108 -0.00382379
O 19.39037048 5.20344856 17.62900822 0.00572545 -0.00082412 0.00519948
O 23.03104207 2.63546862 23.47828793 -0.00571735 0.00219157 -0.00169399
O 19.59530592 3.41667294 31.76792149 0.00619021 -0.00085956 -0.00618122
O 19.06600765 9.95745259 17.38128823 -0.00210848 -0.00241249 0.00147800
O 23.48149378 9.48348554 26.08813681 0.00143381 -0.00198264 0.00959383
O 19.78273732 10.33300822 25.42782813 0.00278740 -0.00049650 0.00155154
O 23.28360851 9.60686662 18.00624599 0.00495884 0.00177227 0.00249849
O 23.96875964 2.76464640 31.83211452 -0.00179181 0.00084782 0.00005140
O 18.78025380 3.74942129 23.70811112 -0.00266954 -0.00440944 -0.00015880
O 23.54070569 0.98965168 0.84571861 -0.00257994 0.00152950 -0.00796245
O 19.18804515 5.34449402 25.74749057 0.00098005 0.00321404 -0.00129739
O 19.28486703 11.89439283 23.45903315 -0.00182365 -0.00364522 0.00037215
O 23.33473207 7.86996824 15.93417249 -0.00765044 0.00725072 -0.00262433
O 19.30019932 11.79915183 15.54984224 0.00103625 0.00414257 -0.00038251
O 23.80648835 7.67180866 24.09950098 0.00244686 0.00368657 -0.00207321
O 23.46203612 1.18114195 25.59693880 0.00029231 0.00792731 -0.00148579
O 19.89796525 4.61714927 1.14006323 0.00113146 -0.00351037 -0.00286154
O 22.73738266 15.94630653 6.39008183 0.00076782 -0.00555952 -0.00537703
O 19.97093762 16.48686565 15.02050827 0.00117197 -0.00081813 -0.00535861
O 18.84994682 23.14149281 1.61814866 0.00342158 0.00394897 0.00812950
O 23.41590584 22.38566883 9.48691888 0.00279560 0.00352129 -0.00148164
O 19.04040613 22.97632466 9.43715186 0.00047339 0.00202911 -0.00235879
O 23.27617577 22.17989639 1.46002202 -0.00530804 0.00452051 0.00111966
O 24.20533535 15.39127442 14.54089096 -0.00410081 -0.00322819 0.00219894
O 18.59145646 16.88804533 6.90917538 0.00102665 -0.00125020 0.00053379
O 23.67568677 14.09867694 16.72727729 -0.00230821 0.00131597 0.00095679
O 19.43087517 18.22786517 8.94389459 0.00444294 -0.00371198 0.00017116
O 18.65527466 25.03197461 7.72668492 0.00416349 0.00719898 -0.00369480
O 23.35669532 20.57679695 32.23598946 -0.00047201 0.00503409 -0.00449061
O 18.65531814 24.56115480 32.17839108 0.00032815 0.00005365 -0.00127136
O 23.30849945 20.65349480 7.66592150 -0.00040997 0.00484446 -0.00226492
O 23.10802009 14.04474980 8.32926186 -0.00048605 0.00209936 -0.00298102
O 19.23995379 18.17139563 17.19908250 -0.00028683 -0.00277648 0.00519897
O 22.59061976 15.71418802 22.78436260 -0.00194279 0.00091478 0.00188554
O 19.48797512 16.99230369 31.76268573 -0.00538668 0.00205662 0.00103812
O 18.81657060 23.28175014 17.85547489 0.00576090 -0.00123688 0.00019476
O 24.03870591 22.06471688 26.11672057 0.00271082 0.00145165 0.00497993
O 19.47744316 23.23289668 26.05560449 0.00008258 -0.00329598 0.00490586
O 22.92439131 21.82469611 17.45560798 -0.00034646 -0.00664383 -0.00539728
O 23.66778412 16.06368129 31.16946352 0.00029928 0.00554546 0.00125934
O 18.63430463 16.87821591 23.39753543 0.00493003 -0.00085174 0.00114182
O 23.74774956 14.43032717 0.27862988 -0.00923172 0.00312322 0.00011968
O 18.90544532 18.08068831 25.59366583 0.00225291 0.00460487 -0.00688190
O 19.18575988 24.82149345 24.05277817 0.00075826 -0.00441455 0.00318734
O 24.10231202 20.24703239 15.62967719 -0.00147855 0.00011735 -0.00942813
O 19.16842087 24.75392671 15.61131514 0.00122779 -0.00038062 -0.00617445
O 23.33704223 20.69293677 23.80358263 -0.00406957 -0.00194100 0.00052311
O 23.42753132 14.35018925 24.89421427 0.00158903 -0.00197852 0.00272614
O 18.67990570 18.49517802 0.89481739 0.00496460 -0.00243093 -0.00621844
N 7.46211232 12.75651321 2.23863440 0.00010151 0.00496278 0.00447087
N 0.78008091 6.44347223 10.87234620 0.00310028 0.00086849 -0.00965118
N 3.27018436 0.01797171 6.08263139 -0.00117017 -0.00005799 0.00120222
N 5.43600919 6.48061651 13.95701242 0.00236812 -0.00540457 -0.00647860
N 0.97911733 0.20740789 14.02480671 0.00013097 0.00559045 -0.00169586
N 7.56833948 6.50084471 5.75697141 -0.00292536 -0.00619161 0.00453490
N 5.09930509 13.26843850 10.47818912 -0.00408355 -0.00698689 0.00307480
N 3.02812873 6.13766588 2.68577743 0.00422983 0.00083564 0.00146564
N 7.62523464 13.22750863 18.73636974 -0.00073771 -0.00070803 0.00031792
N 1.13328072 6.45317975 27.14646055 0.00328892 -0.00151943 -0.00229794
N 3.55957064 25.85837443 22.23633097 -0.00157756 0.00956996 -0.00076252
N 5.14006292 6.58835865 30.43815899 0.00093303 -0.00513961 -0.00314933
N 0.99933981 25.81365465 30.52105912 -0.00238817 -0.00336428 -0.00138328
N 7.56658923 6.70474847 22.29118115 -0.00612812 -0.00103753 0.00445167
N 5.20122933 12.95950810 26.82557631 -0.00013471 0.00254208 0.00473186
N 3.50007151 6.32608913 18.94982598 -0.00164523 -0.00020509 0.00296165
N 7.36931045 0.12908007 2.44850887 -0.00699318 0.00315879 -0.00465639
N 0.73853000 19.28555779 10.54912883 0.00216470 -0.00119581 -0.00043365
N 2.96854886 12.94141465 5.67580486 0.00050732 -0.00085883 0.00033742
N 5.16903582 19.51669985 14.07919932 -0.00009217 -0.00179616 0.00339217
N 1.16996237 13.21309548 13.78718290 0.00422127 -0.00182816 -0.00531622
N 7.68167113 19.77676007 5.93342747 0.00365877 -0.00085942 -0.00637784
N 5.22021566 25.96584260 10.79654076 -0.00661673 -0.00501040 -0.00843231
N 3.40349074 19.72145538 2.67420591 -0.00235060 0.00375023 0.00403667
N 7.52739723 0.35681891 18.89092892 -0.00324345 0.00214404 0.00405076
N 0.75383584 19.46378650 26.98764220 -0.00358972 0.00372346 -0.00176259
N 3.20380992 12.75415521 22.16501022 0.00081776 -0.00286138 -0.00268668
N 5.07064594 19.64340840 30.58269726 -0.00068646 -0.00376625 0.00666521
N 0.75968695 13.03277720 30.42350860 0.00865641 -0.00324324 0.00118380
N 7.62617571 19.69907936 22.21935244 -0.00270472 0.00359112 0.00266971
N 5.23193974 0.13248736 27.22177127 0.00176805 0.00737059 -0.00280342
N 3.17669417 19.40753319 18.95917394 0.00111085 -0.01055641 0.00420220
N 15.91234163 12.93226403 2.31998160 -0.00425868 -0.00005922 0.00007030
N 9.16374926 6.18143465 10.72624149 0.00048449 -0.00238702 -0.00574897
N 11.68842214 25.89648563 6.18347363 -0.00090104 -0.00410526 0.00589989
N 13.68938342 6.41766440 14.01972993 -0.00453242 0.00100507 -0.00124053
N 9.41532862 0.07584678 13.91548136 -0.00028786 -0.00192287 -0.00080550
N 16.10377993 6.56758174 5.78118341 0.00342361 -0.00029468 0.00341846
N 13.94898569 12.92881384 10.31786437 -0.00445481 -0.00162473 0.01169966
N 11.86250895 5.92746958 2.24733748 0.00000446 0.00087279 -0.00451627
N 15.94314026 12.73647781 18.71847377 0.00134870 -0.00206812 -0.00187686
N 9.52077739 6.61868982 27.34233595 -0.00350906 -0.00577348 0.00549006
N 11.77228158 0.13567661 22.69880875 0.00217550 -0.00134479 0.00523121
N 13.63439054 6.42088323 30.25872070 0.00128852 -0.00232632 -0.00866574
N 9.55603246 25.99395977 30.89156383 0.00131130 -0.00096375 -0.00190726
N 16.11472523 6.28061758 22.34309484 0.00811368 -0.00096684 0.00123575
N 13.88999422 13.04183772 26.65644609 0.00401694 0.00406968 0.00002761
N 12.04352504 6.40699924 18.70558131 0.00230202 0.01065958 -0.00503497
N 15.80309195 25.64865514 2.71327572 -0.00266173 0.00136075 0.00296340
N 9.48730450 19.30984010 10.74748091 0.00809820 -0.00219366 0.00561411
N 11.78926831 12.84271880 5.57999206 0.00375642 0.00093714 0.00323150
N 14.00423600 19.37690856 14.03831178 0.00065737 -0.00506190 0.00291961
N 9.24825443 13.04696212 13.86368278 0.00001125 0.00230528 0.00110888
N 15.67778358 19.17043487 5.77306258 0.00117295 -0.00534709 0.00148436
N 13.55994104 0.13710882 11.10491033 0.00028516 -0.00455666 -0.00441988
N 11.47332974 19.65160147 2.49774804 0.00395592 -0.00207506 -0.00467073
N 15.97986974 25.97862310 19.27643703 0.00695724 0.00875005 0.00540335
N 9.36775061 19.38575590 27.25250367 0.00203053 -0.00326459 -0.00663655
N 11.77741223 12.80504464 22.04356670 -0.00847867 -0.00389972 0.00616806
N 13.53240916 19.77736831 30.35547290 0.00338557 -0.00214375 -0.00216643
N 9.57758323 12.92818103 30.22457875 -0.00228947 0.00156395 0.00034017
N 15.69153530 19.62809428 22.31710844 -0.00111166 0.00324144 -0.00182564
N 13.43939513 0.37756661 27.35255045 0.00409383 0.00728623 -0.00203174
N 11.66474083 19.60197329 19.25742903 -0.00158079 -0.00184096 -0.00145901
N 24.37437158 12.99768359 1.97418617 -0.00845626 0.00915142 -0.00099701
N 17.67506559 6.59479118 10.85967800 -0.00657966 -0.00144265 0.00764169
N 20.01854293 0.19973556 6.21205764 -0.00099583 0.00094085 -0.00317506
N 22.24188668 6.62666145 14.32945190 -0.00097401 -0.00188913 -0.00143979
N 17.95001859 0.04923217 14.09707744 -0.00330280 -0.00350334 0.00471112
N 24.70210055 6.70105445 6.01093477 -0.00103903 0.00240425 0.00325967
N 22.30518775 12.89229248 10.08037196 0.00127036 0.01081920 -0.00318113
N 20.41745672 6.21638820 2.67991145 0.00084399 -0.00296660 0.00981223
N 24.45541373 12.70650889 18.47265110 0.00472909 -0.01050886 -0.00316810
N 18.07584518 6.40642046 27.45052568 -0.01251831 0.00319678 0.00038604
N 20.62310040 25.86886161 22.51101644 -0.00372592 -0.01085068 0.00096267
N 22.01796705 6.63404303 30.66001720 -0.00250473 0.00356646 -0.00822469
N 18.14976039 0.08587411 30.58369315 0.00368313 0.00551883 0.00695505
N 24.47172410 6.29958533 22.36166390 0.00334339 0.00209752 0.00556513
N 22.18856397 13.34917790 26.53009324 0.00081630 0.00043549 0.00201034
N 20.67988635 6.23643129 19.28460034 -0.00194189 0.00356184 -0.00120440
N 24.38468773 25.73780684 2.53622278 0.00486047 -0.00108415 -0.00297560
N 18.10439070 19.29760851 10.54491540 -0.00360575 -0.00197060 0.00526113
N 20.06372718 12.90426259 5.49212996 0.00017562 0.00509928 0.00456261
N 22.68054852 19.20687194 14.07957155 -0.00161903 -0.00315891 -0.00164675
N 17.96958647 12.69186334 14.01490307 -0.00049778 0.00752942 -0.00574692
N 24.13275273 19.22228243 6.14717844 -0.00080346 0.00053715 -0.00018544
N 21.71030063 0.56172499 10.53469421 0.00194746 0.00073125 -0.00451338
N 19.92299942 19.66591788 2.37617107 0.00118174 0.00381449 -0.00381783
N 24.81179319 0.33647018 18.76983582 0.00299959 -0.00713497 -0.00280977
N 17.69645916 19.30992469 27.07470140 -0.00175858 -0.00031542 -0.00094889
N 20.28124989 13.03666339 21.76948847 -0.00202168 -0.00095254 -0.00332920
N 21.93473295 19.66366959 30.66862173 -0.00224004 0.00248417 -0.00067944
N 17.79605717 12.84746297 30.03227069 -0.00294091 -0.00702472 0.01218529
N 24.25921657 19.33918131 22.21296076 -0.00020117 -0.00036437 0.00029192
N 22.33494124 0.09447545 27.26240625 0.00438792 0.00895452 -0.00833657
N 20.11779710 19.53612750 18.85148362 0.00242368 0.00445685 0.00655460
C 7.61010859 0.37905089 4.79785322 0.00433210 -0.00897610 -0.00106488
C 0.76015480 6.14389910 13.26456229 0.00673969 0.00060509 -0.00228225
C 3.16906419 12.67230012 3.33252662 0.00294102 0.00097391 0.00478570
C 5.15295079 6.70425795 11.55864174 0.00420370 0.00148982 -0.00132013
C 0.95584252 12.74027965 11.44294487 -0.00225277 -0.00540548 -0.00257314
C 7.64345759 6.91826804 3.36280355 -0.00508497 0.00077714 0.00443843
C 5.09343648 0.26965739 13.20689141 0.00090736 -0.00074144 -0.00083886
C 3.32669376 5.77895709 5.05967059 -0.00173244 -0.00074770 0.00492377
C 7.29108826 1.00511966 5.96722531 0.00335819 -0.00314362 0.00252197
C 1.27162054 5.62894002 14.45608869 -0.00228158 0.00504322 0.00603183
C 2.80422935 11.97457870 2.12383773 -0.00096944 0.00236602 0.00561238
C 5.44908477 7.38079629 10.41784327 0.01200425 -0.00513906 -0.00075054
C 1.10460132 11.86944539 10.36088575 0.00528190 -0.00583128 -0.00705975
C 7.31987227 7.70421349 2.27289555 0.00399976 0.00167331 0.00885007
C 5.33849948 0.94966238 14.38687853 -0.00302077 0.00458185 -0.00668530
C 3.07722755 4.99181341 6.14487064 0.00988190 -0.00058492 -0.00180445
C 6.38398197 2.05166269 5.95404397 0.00706425 0.00150948 -0.00269561
C 2.18344848 4.55401962 14.33037592 0.01031138 0.00337827 -0.00856103
C 2.06048856 10.87519352 2.14521087 0.00674956 -0.00548253 0.00032190
C 6.26969449 8.55435024 10.45516444 -0.00212061 -0.00125939 0.00383657
C 2.03018544 10.85771388 10.37090142 0.00044981 -0.00535913 0.00504379
C 6.33588976 8.75560321 2.40373707 0.00488517 0.00019743 0.00168511
C 6.08734943 2.14624634 14.34798082 0.00432553 -0.00641310 -0.00061986
C 2.06445927 4.00082664 6.12567552 0.00774178 -0.00078107 -0.00569940
C 5.98759679 2.68344161 4.74669137 0.00019049 0.00031060 0.00033250
C 2.54444477 4.04173948 13.05463734 0.00735444 -0.00346775 -0.00872376
C 1.79198662 10.28489049 3.38881871 -0.00333146 0.00434193 0.00022735
C 6.47268656 9.21949691 11.73782437 0.00248948 -0.00341876 0.00450462
C 2.48276190 10.43568312 11.63002761 0.00538647 -0.00233600 0.00147806
C 5.96363718 9.10602267 3.70529926 0.00144978 -0.00310915 -0.00005922
C 6.47190516 2.66377593 13.10410336 -0.00966918 0.00252299 0.00257745
C 1.53032380 3.59755065 4.81396742 0.00129146 -0.00858020 -0.00542451
C 6.35063137 2.08135226 3.57764170 -0.00852613 0.00263727 -0.00356756
C 1.97708200 4.53402378 11.90246131 -0.00437080 0.00179062 -0.00125067
C 1.97637948 11.01474097 4.55266837 0.00561778 0.00370482 -0.00617788
C 6.21728164 8.53170225 12.86938399 0.00227637 -0.00000124 0.00755305
C 2.22962385 11.14098797 12.79994658 0.00688764 -0.00243395 0.00205098
C 6.41164587 8.44045299 4.85453079 -0.00359721 -0.00186877 0.00509261
C 6.24853365 1.90885644 11.93973136 -0.00006908 0.00082730 0.00775969
C 1.82756007 4.29948035 3.71740670 0.00730752 -0.00180977 -0.00061646
C 7.09991007 0.88752588 3.59679483 0.00213048 0.00193525 -0.00357095
C 1.14592784 5.70861007 11.98929883 -0.00179058 -0.00685703 0.00622989
C 2.69189731 12.18246790 4.57441594 -0.00984615 -0.00705793 0.00382007
C 5.63255850 7.25257799 12.81128034 0.00869145 0.00560018 -0.00323297
C 1.45732908 12.41190750 12.67168484 -0.00875101 0.00043834 0.00110006
C 7.18402899 7.32277930 4.65609311 -0.00602624 -0.00658713 0.00270766
C 5.57052949 0.68493082 11.97552261 -0.00170646 -0.00041715 0.00106123
C 2.75053950 5.40484284 3.80211526 0.00813978 -0.00286551 -0.00215826
C 6.98476213 0.35547092 1.18987522 0.00829407 -0.00186175 0.00624087
C 1.40236201 6.29867887 9.62278268 -0.00307496 -0.00347543 -0.00726352
C 2.46301569 12.78883204 6.94547288 -0.00538277 0.00280667 0.00034135
C 5.90665881 6.79152512 15.18740226 -0.00121562 -0.00298692 0.00702513
C 1.89605634 13.18251494 14.94340372 0.00431266 0.00090965 0.00179121
C 6.90920304 6.45515029 6.98243079 0.00674340 0.00469019 0.00263846
C 5.75392979 0.10654358 9.53728959 -0.00170048 0.00522037 -0.00338699
C 2.39354397 6.04291035 1.50314185 -0.00615558 0.00220729 0.00297720
C 7.35811074 11.91339730 16.74683860 -0.00725092 -0.00020666 -0.00568652
C 1.49309294 7.54091796 8.76164839 -0.00459229 -0.00121875 -0.00039562
C 2.83272466 0.90200433 8.36328535 -0.00580061 -0.00246617 0.01031272
C 5.19326223 5.41654039 32.55978156 0.00037441 -0.00239134 -0.00396319
C 1.27001625 0.73694334 32.73683367 -0.00084784 0.00073731 0.00000047
C 7.20882590 5.24354269 7.85944257 -0.00984258 -0.00120703 0.00106594
C 5.48606566 12.26734720 8.25862089 0.00241195 -0.00249442 -0.00521891
C 3.08915761 7.38531913 16.86721874 0.00277327 0.00139194 0.00262197
C 7.76430099 0.59596109 21.24869079 0.00484259 -0.01085374 0.00004491
C 0.85824924 6.14394630 29.49933402 0.00108780 0.00014167 0.00042650
C 3.37843003 12.65254853 19.72642499 0.00065914 0.00223255 -0.00457290
C 5.45925371 6.84389654 28.09987581 -0.01241443 0.00049790 0.00271391
C 0.71750274 12.63108407 27.97526712 0.00249469 -0.00270295 0.00334345
C 7.60501269 6.76347100 19.85926644 -0.00324730 -0.00216489 -0.01310533
C 5.27128183 0.49808606 29.61891030 -0.00214909 0.00059726 0.00102936
C 3.41126051 6.17874514 21.31345179 -0.00694078 0.00011956 0.00289872
C 7.33643318 1.11229001 22.43612812 -0.00508980 -0.00198573 0.00179527
C 1.11162722 5.42187373 30.69322126 -0.00034956 0.00509830 -0.00688976
C 3.29364733 11.89744995 18.59068453 -0.00835243 -0.00163000 -0.00349912
C 5.84015758 7.55056732 26.99058696 0.00002719 0.01008171 -0.00006554
C 1.20799865 11.98518418 26.94149203 -0.00239208 0.00339375 -0.00018772
C 7.30693556 7.49468283 18.74910844 0.00417221 0.00411170 0.00618525
C 5.64990558 1.18915732 30.75634808 0.00143087 -0.00518868 0.00020034
C 3.08698854 5.55035045 22.49413715 0.01094770 0.00502246 -0.00453548
C 6.47346516 2.28108989 22.55681816 -0.00224311 -0.00281653 0.00578153
C 2.05935600 4.31398908 30.66085683 -0.00160012 -0.00093756 0.00261151
C 2.41048144 10.82164978 18.49093964 -0.00074378 -0.00124384 -0.00209597
C 6.62588990 8.69765068 27.12730425 -0.00876089 -0.00513650 0.00572018
C 2.12408955 10.90633806 26.99469495 -0.00180246 -0.00667821 0.01113751
C 6.51408694 8.62564121 18.78885292 -0.00003482 -0.00411506 0.00182990
C 6.53807774 2.27497342 30.60687357 -0.00242817 0.00006539 -0.00028913
C 2.32229466 4.34381434 22.50761538 0.00871728 0.00600702 -0.00184111
C 6.08076354 2.82743528 21.32517502 -0.00007000 -0.00224473 0.00004487
C 2.47941921 3.84353416 29.38555962 0.00376629 0.00451649 -0.00474215
C 2.06726206 10.21714004 19.69053316 0.00316277 0.00671326 -0.00196817
C 6.71979907 9.24844234 28.45655146 -0.00352670 0.00617036 0.00276831
C 2.39691666 10.40748055 28.27035656 -0.00476589 0.00221604 0.00108017
C 6.30028262 9.23835226 20.06220497 0.00151889 -0.00653267 -0.00182119
C 6.71342291 2.79351829 29.36942265 0.00065196 -0.00210142 -0.00156607
C 2.00614764 3.77960939 21.26457770 0.00384291 -0.00173092 0.00202050
C 6.48879343 2.31142527 20.10689132 -0.00398892 0.00056876 0.00372045
C 2.09674302 4.51813793 28.17989280 -0.00703837 -0.00220113 -0.00315864
C 2.35050061 10.77627769 20.91034494 -0.00023061 -0.00068731 -0.01067884
C 6.25274972 8.58663583 29.58210335 0.00762167 -0.00203609 0.00423451
C 1.93077418 11.08890366 29.37435755 -0.00018693 0.00466052 -0.00654370
C 6.72623869 8.62832339 21.16739211 -0.00137783 -0.00208906 0.00424274
C 6.21736612 2.16569843 28.26858459 -0.00567460 -0.00162580 -0.00703429
C 2.37640744 4.46569587 20.07936205 0.00250040 -0.00033047 -0.00389546
C 7.24595209 1.08329286 20.01963617 -0.00238210 -0.00138167 0.00016579
C 1.42435458 5.74451734 28.24836103 -0.00080226 0.00890340 -0.00039213
C 2.96607013 12.10391828 20.95753885 0.00154403 -0.00068217 0.00138670
C 5.60365268 7.32058931 29.42377179 0.00232913 0.00654944 -0.01097655
C 1.15005460 12.25822308 29.32060959 0.00282026 -0.00141493 0.00196531
C 7.30374149 7.32777764 21.06370579 -0.00124400 -0.00124298 0.00129335
C 5.56746351 0.88163406 28.30737454 0.00048912 -0.00069240 0.00660241
C 3.11230373 5.61134426 20.08421432 0.00284175 -0.00247784 -0.00262744
C 6.83758760 0.32334052 17.74762859 0.00401412 -0.00662884 0.00562601
C 1.66462278 6.41852944 25.88024398 -0.00061619 -0.00022934 0.00738043
C 2.68758290 12.45451232 23.39459268 -0.00013188 -0.00266762 0.00246955
C 5.47960656 6.67549782 31.77245033 -0.00235112 -0.00659230 -0.00051193
C 1.39244430 12.96442178 31.60310941 -0.00655139 -0.00630416 0.00337529
C 7.03397614 6.89118520 23.50160316 0.00407468 -0.00214417 0.00301264
C 5.98691759 0.06333306 26.00315993 0.00434072 0.00290842 0.00367849
C 2.80930870 6.26349786 17.80997144 0.00361702 0.00224976 -0.00143119
C 7.04478280 11.81799508 0.01664982 -0.00392883 -0.00061777 0.00439356
C 1.24592008 7.57510751 24.94034595 0.00481085 -0.00356510 0.00294163
C 3.11889367 0.87002751 24.55706189 0.00090076 -0.00887840 -0.00035871
C 5.73535705 5.67257857 16.26556263 -0.00350078 0.00687705 -0.00039956
C 1.31183616 1.22605553 16.16410126 -0.00292242 0.00241791 0.00131403
C 7.21959374 5.71227613 24.33658514 -0.00707161 0.00161971 -0.00273418
C 5.91332857 11.67955830 24.92744467 0.00545359 0.00368864 0.00211496