1920
Time=42000.00000002 pbc="T T T" Lattice="25.55178855 0.00000000 0.00000000 0.00000000 25.71499015 0.00000000 0.00000000 0.00000000 32.74953702" energy=-12249.16498828 virial="-49.68369948 -17.12681165 7.14118258 -17.12681165 -41.36545835 -6.60679601 7.14118258 -6.60679601 0.60849289" stress="-0.00007728 -0.00075488 0.00040372 -0.00075488 0.00045231 -0.00035206 0.00040372 -0.00035206 0.00226946" Properties=species:S:1:pos:R:3:vel:R:3
O 5.80285832 2.69512455 7.15643056 -0.00231362 0.00412364 0.00020253
O 2.71386853 3.43672091 15.20672598 0.00011591 0.00016283 0.00352297
O 1.65019675 10.13246382 0.83340517 0.00401930 0.00328356 -0.00062179
O 6.90891120 8.76868786 9.53074240 0.00088678 -0.00511283 -0.00030461
O 2.41641694 10.35059433 9.08268706 -0.00113896 -0.00412001 0.00762739
O 6.27076462 9.51664695 1.44890134 0.00751567 0.00756821 0.00636049
O 6.51849525 2.81147472 15.02406887 -0.00080516 -0.00018770 0.00517893
O 1.64965384 3.48253266 6.80942898 -0.00746898 0.00115111 0.00186204
O 6.06042602 1.37425356 17.20681763 -0.00277582 0.00396639 -0.00578298
O 1.84427045 5.11979219 9.07501499 -0.00126408 0.00588913 0.00051833
O 1.78388952 11.91822354 7.00622211 -0.00239414 0.00921991 0.00339301
O 6.15806732 8.04712511 32.15543349 -0.00508614 0.01204644 0.00156783
O 2.46153605 11.66776595 31.56397352 -0.00265125 0.00408772 -0.00340018
O 6.11272540 7.74375857 7.23875836 0.00606317 0.00279891 -0.00034455
O 6.47898800 0.82883466 9.00108851 0.00522472 -0.00469680 0.00568845
O 2.65343182 5.10874739 17.27692511 0.00377932 -0.00403569 0.00080455
O 5.96074195 2.63243328 23.39157943 0.00318250 -0.00979698 0.00142692
O 2.70234789 3.89439342 31.54911318 -0.00216304 0.00308042 0.00119720
O 1.56286822 9.93384727 17.21157489 0.00076338 -0.00135355 -0.00159334
O 6.55810664 9.77434988 25.95850502 0.00465373 -0.00275457 -0.00070255
O 2.56952641 10.22805024 25.31461957 -0.00361136 -0.00719430 -0.00208973
O 6.12002743 9.23333065 17.73789546 0.00104247 -0.00630521 -0.00298212
O 7.01274548 3.02060422 31.27496720 0.00094265 -0.00007050 -0.00310485
O 1.08308065 3.97567576 23.33463176 -0.00135463 -0.00258592 0.00397831
O 6.61887394 1.53387690 0.78870064 0.00178974 -0.00014168 0.00344567
O 2.03950019 5.37163341 25.33212783 0.00075620 0.00408899 -0.00106169
O 1.80307009 11.59606217 23.37201699 0.00471521 -0.00753471 0.00029704
O 6.36049098 7.59790072 15.67373052 -0.00219184 -0.00079557 -0.00191297
O 2.22654507 11.54739032 15.27191311 0.00414969 0.00425637 0.00076716
O 6.10827888 7.96067951 24.02803993 -0.00049592 0.00069322 0.00058340
O 6.68512673 0.93015609 25.36901867 -0.00606370 0.00539881 -0.00091421
O 2.55228017 5.54032376 0.92597373 0.00989246 0.00495158 0.00180274
O 6.10793779 15.78550081 6.57350052 0.00161064 0.00037255 -0.00404268
O 2.67264703 16.47894543 15.41766367 -0.01002994 0.00618330 0.00550001
O 1.92190359 23.33782704 1.15313224 -0.00108502 -0.00331248 -0.00501345
O 7.01320492 21.59512865 9.70319085 -0.00199409 0.00181309 -0.00142066
O 2.92346155 22.74229833 9.80869640 0.00578051 -0.00206536 0.00613329
O 5.99774812 22.35475364 1.51892676 -0.00607824 -0.00218255 0.00089025
O 6.87707996 15.92001379 14.75062326 -0.00667930 -0.00484095 0.00264656
O 1.67722375 16.51083033 7.13951663 -0.00155310 0.00058783 0.00281692
O 6.48840923 14.14704490 16.67645708 0.00320425 0.00145607 -0.00696233
O 2.08334038 17.78211926 9.26954933 0.00082126 0.00322640 0.00328758
O 2.54134017 24.16449655 7.54335256 -0.00096573 0.00465009 -0.00171622
O 6.43170442 20.44500238 32.17274739 -0.00155356 0.00171302 0.00628117
O 2.70122877 24.74867354 31.96678966 0.00596488 -0.00255764 -0.00321491
O 6.20172491 20.22347932 7.45280488 0.00178173 -0.00456613 0.00287997
O 6.12057407 14.00460599 8.56848258 0.00339201 -0.00325505 0.00724964
O 2.19839878 17.91399334 17.44386875 -0.00364107 0.00203963 0.00260290
O 5.73498942 15.49305373 22.90609969 -0.00542948 -0.00060539 0.00225641
O 2.90198923 16.65771149 31.73391968 -0.00572369 0.00171141 0.00154167
O 1.51681477 22.74858779 18.00584645 -0.00300815 -0.00010488 -0.00466325
O 7.14731805 21.96328185 25.91015915 0.00524180 -0.00115782 0.00084919
O 3.29185582 23.03358318 26.19270222 -0.00285918 -0.00090176 0.00197834
O 4.93417376 22.25930911 17.93505796 0.00191114 -0.00082965 0.00471045
O 7.20886426 15.01335593 30.99225253 0.00011661 -0.00246827 0.00702267
O 1.47961301 16.81084717 23.57101852 -0.00033716 -0.00100423 0.00329363
O 6.45323274 14.25966053 0.42559871 0.00116210 0.00080335 0.00207694
O 2.43735416 18.40287298 25.49733829 0.00131085 0.00048866 0.00590196
O 2.48813832 24.68928762 23.98192116 0.01146927 0.00196787 0.00574909
O 5.43230775 21.01921165 15.79677896 0.00427348 -0.00020242 -0.00204248
O 1.32175963 24.22410147 15.92752312 0.00337702 -0.00110226 0.00043597
O 7.17230316 20.44182465 23.66298917 -0.00488820 -0.00061416 -0.01018518
O 6.62050008 14.01167005 24.74631888 -0.00144849 -0.00212867 -0.00321330
O 2.00015477 18.24148242 0.93231638 -0.00187525 0.00166820 0.00373904
O 14.27550855 2.96370950 6.58647013 0.00765431 0.00205314 0.00396247
O 11.39767388 3.64220722 15.17774508 -0.00142573 0.00092313 -0.00031863
O 10.15977158 10.22819866 1.17973347 -0.00695368 0.00247157 -0.00070178
O 15.41476729 9.09643420 9.24841551 0.00250792 0.00251448 0.00321613
O 11.42202111 9.87797564 9.31160230 0.00119290 -0.00890768 -0.00304033
O 14.41697945 8.91747030 1.08223850 -0.00093533 0.00379750 -0.00315394
O 15.39686759 2.72360141 14.97991668 -0.00152997 0.00178029 0.00029244
O 9.70468921 3.65958310 6.92962648 0.00994784 0.00168042 0.00639546
O 14.80606350 1.18842745 17.13735993 -0.00006602 -0.00657800 0.00280816
O 10.67191661 5.00437190 9.14157860 -0.00368252 -0.00355196 -0.00367283
O 11.13616290 11.65538546 7.29109565 -0.00209761 0.00320958 0.00506737
O 15.08640005 7.35122858 31.91140954 0.00467501 0.00275494 -0.00015002
O 10.76302833 11.60837222 31.83972792 -0.00314278 0.00214275 0.00164686
O 14.79927031 7.60959835 7.22048946 0.00383621 -0.00680666 0.00234914
O 14.61428152 1.05899647 8.65399366 -0.00111208 -0.01128052 -0.00169296
O 10.67704414 5.09152431 17.18220350 -0.00375117 0.00622182 -0.00426363
O 14.77086317 3.05957892 23.19575451 -0.00293294 -0.00033411 -0.00517299
O 11.17504741 3.68200172 31.76918978 0.00148771 0.00116783 -0.00513778
O 10.36685453 10.11689321 17.70219841 0.00312717 -0.00574909 -0.00304949
O 15.38306676 9.21924396 25.86642069 0.00591978 -0.00283939 0.00753329
O 10.75288435 9.78477079 25.70681876 -0.00301506 0.00150101 -0.00007835
O 14.08421898 8.73444329 17.69129998 -0.00398723 0.00061491 0.00232187
O 15.98172654 2.34618954 31.27870727 -0.00536735 -0.00296411 -0.00524382
O 10.27686785 3.78520685 23.57291753 0.00097305 -0.00253834 0.00679546
O 15.12465514 1.19157729 0.61540203 -0.00309822 0.00458874 -0.00759255
O 10.70664679 5.10809649 25.57646663 -0.00158683 -0.00065269 0.00116092
O 10.56096384 11.72112908 23.90141081 -0.00609001 -0.00047435 -0.00151975
O 14.96623233 7.71008130 15.43498431 -0.00104438 -0.00556771 -0.00205230
O 10.58949196 11.63861366 15.57282374 0.00215100 0.00280525 0.00148913
O 14.94065553 7.74436917 23.90430966 -0.00504101 0.00482353 -0.00053217
O 14.75673820 1.28596913 25.20681449 -0.00558391 -0.00212240 -0.00343823
O 11.73279854 5.12368841 0.98565918 -0.00664837 -0.00765259 0.00471045
O 14.57631835 15.61109382 6.94937421 0.00269312 -0.00291008 -0.00192089
O 10.83311254 16.53686282 15.12376360 0.00554476 -0.00007384 -0.00346476
O 10.14909296 23.06352370 1.31039737 0.00684594 0.00229768 0.00026939
O 15.96471182 22.09455042 9.46174065 0.00091833 -0.00290589 -0.00504428
O 11.19797834 22.71473486 9.65125981 -0.00282527 -0.00056366 -0.00767686
O 14.14654318 22.01511971 1.04995721 0.00199329 0.00434023 -0.00338401
O 15.18733355 15.40375403 15.51782973 0.00019301 -0.00527772 0.00356917
O 9.82584762 16.80259708 6.92909830 0.00202224 0.00102174 -0.00041428
O 14.58540209 13.76385747 17.34742979 0.00187648 -0.00008128 0.00034904
O 10.92556381 18.05114476 8.91708562 0.00292746 0.00014012 -0.00018053
O 11.26386670 24.40039343 7.65319021 -0.00371494 0.00524508 -0.00288282
O 14.95118644 20.93006941 31.67137387 -0.00005532 0.00070193 -0.00105572
O 10.72658215 24.31365326 31.82412610 -0.00778274 -0.00386902 -0.00207610
O 15.17936177 20.75767196 7.20427870 0.00177563 -0.00372113 -0.00006446
O 14.65526907 14.37455302 9.27141091 -0.00921309 0.00095314 -0.00240697
O 10.78215841 18.13359286 17.22808720 -0.00389067 0.00306639 0.00440630
O 14.58500902 15.86034392 23.48011523 -0.00088658 -0.00061994 -0.00054219
O 11.02990999 16.66537060 31.49620948 -0.00084465 0.00498791 0.00280848
O 9.67151291 23.22580821 17.70058133 0.00298254 -0.00444800 0.00230841
O 15.28910385 22.01596557 25.24034665 -0.00209259 -0.00284184 -0.00369692
O 11.25499358 22.80624015 25.74608143 -0.00296278 0.00594455 -0.00024775
O 14.55377999 22.18423441 17.43612255 -0.00231323 0.00637385 0.00256386
O 15.22816891 15.64912536 31.46781433 0.00123396 -0.00790984 0.00173135
O 10.13402278 16.32714040 23.38737527 -0.00024035 0.00100577 -0.00103072
O 14.74596517 14.26884747 0.92813347 0.00078621 -0.00830761 -0.00134942
O 10.60172456 18.15163737 25.30546316 0.00135388 -0.00663287 -0.00408809
O 10.94823999 24.31503523 23.75061504 0.00311518 -0.00189122 -0.00215690
O 15.13676447 20.30316534 15.39192191 -0.00232414 0.00135118 -0.00803408
O 10.66726022 24.47342407 15.67049572 -0.00135472 0.00571589 -0.00048533
O 14.62260576 20.49862692 23.35697854 0.00016123 0.00283875 0.00247606
O 15.05165123 14.15971887 25.39521889 0.00535354 0.00321426 0.00329120
O 10.28790299 18.16489524 0.67721457 0.00451845 0.00157133 -0.00572409
O 22.61322704 2.24438446 6.96086066 -0.00107498 -0.00146926 0.00405960
O 19.65165792 3.31682597 14.93284808 0.00455120 0.00192404 0.00122450
O 18.90191274 9.59935670 1.69331660 0.00131028 0.00008619 0.00178074
O 23.79604317 8.81655738 9.47274946 -0.00268468 -0.00426001 -0.00229272
O 19.67456135 10.21491524 9.65624150 -0.00102326 0.00147184 0.00041239
O 22.95775694 9.23484079 1.53251472 0.00707240 0.00101324 0.00286344
O 23.64342224 2.91662688 14.91770253 -0.00077459 0.00497494 -0.00490119
O 18.54587243 3.53286995 6.89985498 0.00331722 0.00314802 0.00084332
O 24.11884233 1.23250992 16.97539145 -0.00572963 -0.00399717 -0.00687724
O 18.88091939 5.17884750 8.73183420 0.00349130 -0.00266534 -0.00305039
O 19.38024705 11.60899267 7.63284184 -0.00172078 -0.00221239 0.00036874
O 23.52486381 7.70517294 32.25210533 0.00556042 0.00134847 -0.00393839
O 18.95879205 11.54738556 32.48167230 0.00066068 -0.00209119 0.00642587
O 23.31320681 7.31061533 7.66498691 -0.00061415 -0.00127848 0.00058528
O 23.74799038 0.93131978 8.92168541 0.00667368 -0.00324834 0.00294425
O 19.07410740 4.99705595 16.88546319 -0.00021490 0.00173969 -0.00450812
O 22.85767825 3.09189850 23.13290864 -0.00033179 -0.00027600 -0.00253030
O 20.06474178 4.09476944 31.56447700 0.00570035 0.00711637 0.00011044
O 18.93821204 9.67723735 18.32414572 0.00255280 -0.00134496 -0.00155321
O 24.07581352 9.65455805 26.20878530 0.00055601 -0.00054258 0.00209324
O 19.76722585 10.01853633 26.43150548 0.00296005 -0.00175826 -0.00362539
O 22.66985624 8.80465449 17.84087411 0.00361154 0.00880529 -0.00115571
O 24.19172606 2.50801323 31.45437527 0.00257259 0.00051774 -0.00653298
O 18.45582642 3.86012068 23.29467103 0.00460016 -0.00268285 -0.00393552
O 23.55771345 1.10459144 0.78449350 -0.00237631 0.00124142 -0.00341428
O 19.36801623 5.06081843 25.32378673 0.00095552 -0.00011979 0.00485272
O 19.04186808 11.48176821 24.34874316 0.00809972 0.00150605 -0.00635430
O 23.59709111 7.66766144 15.61937966 0.00347807 0.00057007 0.00907369
O 18.75012760 11.48358810 16.06599018 0.00240270 -0.00234325 0.00805863
O 23.48751666 7.88586693 24.10075661 0.00355916 0.00163841 -0.00839263
O 23.03565176 1.42154992 25.25256808 0.00566194 0.00172536 0.00156924
O 19.28506521 5.27767586 0.92846580 -0.00135644 0.00304921 -0.00049314
O 23.24211668 15.61932737 6.93766930 0.00268835 -0.00452019 -0.00436162
O 19.50950329 16.51339504 14.91630453 0.00121465 -0.00424572 -0.00041120
O 18.98324827 22.83931872 0.94134775 0.00095471 -0.00209017 0.00361024
O 23.87949242 22.19642700 9.70774843 -0.00223043 -0.00349025 -0.00123957
O 19.45051911 22.57770543 9.25582045 0.00021245 0.00529050 -0.00394922
O 23.03818032 21.95590319 1.25968678 0.00018827 -0.00294800 0.00358746
O 23.78241699 15.38534075 15.33642178 -0.00013235 -0.00354541 0.00843048
O 19.05521947 16.35764489 6.34972830 0.00108747 -0.00166999 -0.00217255
O 22.87192525 13.96073280 17.18335160 0.00265663 0.00633809 -0.00274364
O 19.03808347 17.67991377 8.75835210 -0.00116699 -0.00242272 -0.00023712
O 19.14185078 24.05309222 7.23154463 0.00304593 -0.00343863 -0.00580239
O 23.44743101 20.69570542 31.84725419 0.00508010 0.00266559 -0.00310426
O 19.69236308 24.50856905 32.04941405 0.00769216 0.00476590 0.00011817
O 23.82440255 20.67170853 7.56974789 -0.00181975 -0.00209244 0.00209090
O 23.05896677 14.09877785 8.97265759 -0.00288531 0.00516360 -0.00322793
O 18.94691715 18.36211395 16.70164625 -0.00463468 -0.00089221 0.00484864
O 22.73505357 15.30038599 23.46946435 -0.00282852 0.00201512 -0.00247175
O 20.01049674 16.56295952 30.99889674 -0.00550292 -0.00255381 -0.00041869
O 18.62630397 22.98358004 17.63535519 0.00160761 0.00067766 0.00346295
O 23.82609361 22.18480613 25.59122063 0.00652462 0.00483148 0.00223400
O 19.78500383 23.37419979 25.94492450 -0.00761227 -0.00435585 -0.00891009
O 22.80707216 22.12821858 17.70236974 0.00072884 0.00179297 -0.00149840
O 24.10869559 15.81011874 31.34629626 0.00552928 -0.00141274 -0.00299133
O 19.21579742 16.55628637 22.95323884 0.00116187 0.00367185 -0.00313108
O 23.48865524 14.24616648 0.52566264 0.00424125 -0.00505176 -0.00104169
O 19.22149577 18.22044245 25.07571580 -0.00037374 -0.00395476 -0.01158966
O 19.38003856 24.58912689 23.74631435 -0.00222441 0.00377852 -0.00202596
O 23.10213086 20.48405872 15.66078401 0.00299756 0.00321203 0.00219532
O 18.96144258 24.17669390 15.35714782 -0.00202202 -0.00270859 -0.00246676
O 24.05210288 20.37850473 23.89851926 -0.00324914 -0.00111158 -0.00033353
O 23.49054010 13.96938722 25.46366847 0.00171547 0.00107218 0.00034633
O 19.89184345 18.11470203 0.38948123 0.00225458 -0.00292328 -0.00328858
N 7.42872178 12.95578901 2.04271862 0.00217956 -0.00201675 -0.00479307
N 0.97069408 6.31561520 10.81927335 -0.00329394 -0.00518500 0.00502109
N 2.99987495 0.04463192 5.97814508 -0.00325276 -0.00266523 -0.00572860
N 4.97635391 6.56056826 14.18389593 -0.00107667 0.00377041 -0.00298406
N 0.97062218 25.66717190 14.17326940 0.00103007 0.00012802 -0.00330938
N 7.68136938 6.78016115 5.92374109 -0.00688868 -0.00300621 -0.00139525
N 5.23299739 12.86849058 10.42006912 -0.00033302 -0.00089353 0.00266730
N 3.85844450 6.37511449 2.54921169 0.00485091 -0.00010884 0.00276957
N 7.43501617 12.96299123 18.30477761 0.00507266 0.00229137 0.00008156
N 0.93497839 6.36727452 26.96874970 0.00322128 -0.00202481 0.00049292
N 3.26630807 0.24234230 22.25717918 0.00346366 -0.00256092 -0.00123795
N 5.14641526 6.80753215 30.51828675 -0.00587731 0.00996695 -0.00926126
N 1.25175840 0.03523473 30.52668491 0.01066739 -0.00146724 0.00673776
N 7.09759237 6.57356708 22.53827108 -0.00595878 0.00382013 -0.00169018
N 5.13734016 13.01118735 26.25377096 -0.00255308 -0.00090776 0.00718173
N 3.32513786 6.40602539 19.04234445 -0.00249901 -0.00836141 -0.00195367
N 7.54151735 0.26646476 2.46348216 -0.00165775 -0.00018990 -0.00047863
N 0.77166083 18.90880381 10.80577304 -0.00513433 -0.00102673 0.00566922
N 3.42257348 12.51798645 5.54425294 0.00102087 0.00488341 -0.00055448
N 5.17285348 19.24751658 14.35009220 0.00273462 0.00482126 0.00308896
N 0.86922362 12.56958255 13.83517401 -0.00074092 -0.00372288 -0.00015451
N 7.37144601 19.12531910 5.85068966 0.00281685 0.00599797 0.00195935
N 5.48671587 25.31346025 10.55103846 0.00139624 0.00091801 -0.00493363
N 3.14885684 19.23163460 2.71259505 -0.00131400 0.00017900 -0.00421661
N 7.38079937 0.17184609 18.66455922 -0.00347723 0.00180879 0.00322471
N 0.90795314 18.99091657 27.06634629 0.00015190 -0.00319119 0.00378019
N 2.76746060 12.83527895 21.71464227 -0.00064566 -0.00220817 0.00199040
N 5.31979205 19.29569446 30.47863571 -0.00363942 -0.00901689 0.00154823
N 1.13580225 12.81919667 29.97145359 0.00278713 0.00039239 -0.00043659
N 7.94880818 19.51495449 21.68592695 -0.00518444 -0.00275917 -0.00563177
N 5.28562064 0.08763614 27.03309475 -0.00213365 -0.00200157 -0.00518552
N 3.19735626 19.26944058 18.98062989 0.00545550 -0.00029021 -0.00357035
N 16.13109566 13.05398714 2.23991104 -0.00607156 -0.00529528 -0.00805950
N 9.35772521 6.02138821 10.67597858 -0.00256455 -0.00242528 -0.00119485
N 11.62928687 0.01786072 5.85623656 0.00423357 -0.00173700 0.00602151
N 13.70808377 6.55051599 13.93518642 -0.00430269 -0.00447433 -0.00762837
N 9.43764223 25.57055684 14.06138564 0.00499419 -0.00254761 -0.00026727
N 16.24463522 6.57314509 5.78321983 0.00353906 -0.00355361 0.00222157
N 13.55903433 13.10153071 10.86098189 0.00203569 0.00952341 -0.00194740
N 12.19745276 6.45544457 2.76343475 0.00336242 -0.00994503 0.00508923
N 15.96546108 12.85590347 18.85774666 -0.00801911 -0.00692424 -0.00602199
N 9.24714845 5.98944202 27.09124109 0.00110112 0.00316124 -0.00510454
N 11.95923706 25.62185944 22.21114086 0.00225020 -0.00032380 0.00530554
N 13.56608436 6.54342229 30.31893469 0.00717936 0.00567238 -0.00539358
N 9.37111086 25.40005881 30.26397974 -0.00003331 -0.00338939 -0.00418470
N 16.02536135 6.58386199 22.35319997 -0.00209318 0.00182723 0.00359396
N 13.81323935 12.83836876 26.86456381 -0.00276862 0.00161916 -0.00548162
N 11.75127720 6.32186266 18.81569029 -0.00051899 0.00119055 -0.00214741
N 16.15311316 0.00577430 2.20652759 -0.00157989 0.00020977 0.00359814
N 9.72314039 19.21802113 10.46371763 0.00106968 -0.00116554 0.00522305
N 11.86791871 13.02829887 5.60621488 0.00332510 -0.00110337 0.00197936
N 13.66318229 19.55561647 13.83767277 -0.00270478 -0.00092410 -0.00166506
N 9.46701452 12.56767472 13.78132749 -0.00110615 0.00497577 0.00655635
N 15.99993543 19.42318115 5.55252500 0.00006152 -0.00142103 0.00043812
N 13.76167586 25.60834053 10.49455167 -0.00209871 -0.00122683 -0.00180708
N 11.72105186 19.08708089 2.18148030 -0.00683154 -0.00644095 -0.00390249
N 15.91905213 25.64544593 18.74776234 0.00121318 -0.00287709 -0.00509218
N 9.37772957 19.29857247 26.92435311 -0.00324304 -0.00960697 0.00377135
N 11.68008218 12.92898128 22.30465823 0.00498766 0.00577910 0.00319154
N 13.87282994 19.67624225 29.99488765 -0.00218335 0.00095885 -0.00397123
N 9.72283511 12.92508703 30.22156895 0.00002008 -0.00493975 0.00421174
N 16.15678141 19.52858159 21.97443091 0.00235558 0.00599255 0.00365930
N 13.86605524 25.70430743 26.87007712 -0.00427188 0.00780864 -0.00005177
N 11.58416257 19.30909856 18.94220903 -0.00077287 -0.00201603 -0.00041489
N 24.27388606 12.89056212 2.19629664 0.00020310 0.00206154 0.00674968
N 18.21205721 6.38315672 10.62669382 0.00522579 0.00015280 -0.00298833
N 20.36366893 25.28640754 5.77687981 0.00178053 0.00145369 -0.00000749
N 22.14926819 6.59194502 14.18915696 0.00664824 0.00325640 0.00406280
N 17.99428976 25.49032876 13.74533731 -0.00006553 -0.00277336 -0.00329780
N 24.54113157 6.36706655 6.01302484 -0.00058520 0.00428181 -0.00546838
N 22.19314032 12.86936465 10.61171960 -0.00341175 0.00525720 -0.00665515
N 20.41527461 6.28999721 2.56811173 0.00047079 -0.00030133 0.00056131
N 24.49961871 13.15895241 18.60795474 0.00260697 0.00457436 -0.00085775
N 18.13402526 6.28507605 26.93532072 -0.00521856 0.00499856 -0.00044616
N 20.38489004 0.03568055 22.11710866 -0.00909397 0.00451105 0.00354865
N 22.66044960 6.44468927 30.56403565 0.00081035 -0.00034349 0.00287361
N 17.99739315 25.42134776 30.71011163 -0.00541650 0.00014661 0.00361487
N 24.33136165 6.49172231 22.51947346 0.00954303 0.00428477 0.00051650
N 22.28678587 12.79739392 27.12528419 -0.00142252 -0.00260457 0.00136925
N 20.09922363 6.20090523 18.57732972 0.00000355 -0.00685179 0.00016670
N 24.92002749 0.15718062 2.39055103 0.00439212 -0.00511369 0.00098707
N 18.04449368 19.02284667 10.31981059 -0.00095652 -0.00335082 0.00018273
N 19.96408878 12.98047171 5.81921416 -0.00257280 -0.00381287 0.00412658
N 21.86421227 19.41073523 14.04384064 -0.00235249 0.00275676 0.00238689
N 18.04355695 12.74840126 14.30231310 -0.00713881 -0.00634201 0.00216621
N 24.46948865 19.21678779 5.87722562 0.00009216 0.00084157 0.00547349
N 22.35733609 25.59890601 10.39788688 0.00278271 0.00210128 -0.00313435
N 20.30370175 19.61585379 2.08607359 0.00373769 -0.00371654 0.00676343
N 24.52365898 25.66028719 18.91824373 0.00637260 0.00778228 -0.00087659
N 17.84346414 19.30307216 26.53921353 -0.00007965 -0.00054870 -0.00120686
N 20.01963045 12.76528941 22.78426342 0.00232003 -0.00306433 0.00334103
N 22.46358065 19.44907823 30.24192242 0.00055813 -0.01026717 0.00034375
N 18.41632883 13.08534745 30.84798870 -0.00197043 0.00219212 0.00260011
N 24.77948617 19.28526129 22.07624484 0.00578525 0.00442262 0.00006776
N 22.30525944 0.02945784 26.91695191 -0.00169289 0.00441760 0.00333665
N 19.99469927 19.64495836 18.37038410 0.00170933 0.00918638 -0.00702207
C 7.55015033 0.43625158 4.82337224 -0.00008646 0.00580784 0.00396747
C 0.81725403 5.74258446 13.13806907 -0.00701444 0.00694576 -0.00223586
C 3.26654221 12.48589740 3.14423293 -0.00710682 0.00072753 -0.00167472
C 4.92942744 6.78070905 11.81178847 -0.00467422 0.00475912 0.00330273
C 0.87722353 12.49884137 11.48467034 0.00448247 -0.00116069 -0.01070172
C 7.96562943 7.05065161 3.53740031 -0.00091539 -0.00271459 0.00609773
C 5.24414205 0.15318748 12.86918652 0.00412968 -0.00345573 0.00480460
C 3.38040818 6.08744467 4.84915786 0.00029649 -0.00585410 -0.00847219
C 7.24122546 1.01490127 6.04430753 -0.00334724 0.00245992 -0.00100234
C 1.30468188 5.15272919 14.27673345 0.00080585 0.00341828 -0.00140652
C 2.87958196 11.92236802 1.94607534 0.00205690 0.00336380 0.00963682
C 5.38366091 7.38036298 10.65943818 0.00360162 0.00187658 -0.00691362
C 1.12710857 11.97648561 10.25323597 -0.00608178 -0.00174533 0.00455344
C 7.66819075 7.81097092 2.41203687 -0.00463221 -0.00141436 0.00006317
C 5.38094072 0.99574416 13.94732238 0.00031868 -0.00744088 -0.00253809
C 2.79510038 5.41458496 5.95148092 0.00017630 0.00507050 0.00004262
C 6.30455004 2.10980538 6.02468746 0.00512775 0.00336790 0.00196005
C 2.16188016 4.03320063 14.13244548 0.00116285 -0.00013605 -0.00313641
C 2.08669785 10.71300005 1.97033732 -0.00375549 -0.00281320 0.00376438
C 6.30389550 8.38721900 10.64732908 0.00170804 0.00129745 0.00103124
C 2.00373322 10.82677079 10.22696098 0.00262117 -0.00778459 0.00493098
C 6.70992796 8.83736659 2.51086308 -0.00110806 -0.00413412 -0.00617281
C 6.22652749 2.11908569 13.86879485 -0.00620861 -0.00515173 0.00429852
C 2.05474690 4.25837006 5.77352118 0.00605389 0.00587679 0.00960863
C 5.90347649 2.64025797 4.75565533 0.00239767 -0.00227799 0.00635031
C 2.49198895 3.58743351 12.84811123 0.00205284 -0.00365646 0.00418258
C 1.84748019 10.13027038 3.20482978 -0.00053500 -0.00835407 -0.00877075
C 6.48873776 9.08048275 11.90369604 0.00045015 -0.00458165 -0.00242912
C 2.34464465 10.18206849 11.41987096 -0.00357622 -0.00828344 -0.00254212
C 6.32344855 9.33679836 3.73939048 0.00509288 -0.00085949 0.00757307
C 6.65121157 2.53357650 12.56570726 -0.00266925 0.00097511 -0.00038095
C 1.83539503 3.78249235 4.48770822 -0.00172499 0.00855266 0.00618472
C 6.42648560 2.13897974 3.55696166 -0.00691501 -0.00495055 -0.00759823
C 1.93474598 4.24048047 11.74371957 -0.00418291 0.00345536 -0.00497948
C 2.24497422 10.72011568 4.43551081 -0.00591757 0.00029221 0.00194518
C 5.99626195 8.48310363 13.04417898 0.00602224 0.00482789 -0.00564439
C 1.88265025 10.56882541 12.63576946 -0.01181101 -0.00200268 0.00155268
C 6.67876596 8.69626249 4.89616296 -0.00570844 0.00019370 0.00502563
C 6.41558769 1.70836006 11.50873243 0.00963294 0.00335548 -0.00071799
C 2.38970182 4.48082012 3.39038210 -0.00128547 -0.00488144 -0.00401414
C 7.15496039 0.92802906 3.60554750 -0.00102638 0.00454401 0.00336047
C 1.26066070 5.46599586 11.86861307 -0.00145194 0.00123714 -0.00227777
C 2.98620764 11.90470033 4.37578327 -0.00997123 -0.00138353 -0.00308504
C 5.24753503 7.30825544 13.05598542 0.00123903 -0.00621857 -0.00392992
C 1.24623568 11.85968484 12.67597632 -0.00172654 -0.00055474 -0.00161593
C 7.46982859 7.49892179 4.79464605 0.01083568 -0.00458352 -0.00981596
C 5.73743706 0.48452493 11.62151665 0.00310337 -0.00183777 0.00561306
C 3.20248287 5.59875602 3.58460111 -0.00125787 0.00081815 0.00432400
C 7.03304182 0.48871796 1.19882448 0.00609827 0.00519519 -0.00412352
C 1.52952089 6.20498448 9.58270872 -0.00073369 -0.00308050 0.00204100
C 2.55751776 12.74440737 6.55557109 0.00037908 -0.00652403 -0.00455786
C 5.69549114 6.62237431 15.31338774 0.00302020 -0.00020221 0.00079701
C 1.47188717 12.50512241 15.01053931 0.00585442 -0.00445367 0.00072644
C 6.80253786 6.76474141 7.01343615 -0.00036162 0.00262151 -0.00397450
C 5.91186960 25.48675942 9.29241790 0.00467224 -0.00399841 0.00924017
C 3.18853735 6.47974808 1.35606811 0.00051306 -0.00372550 -0.00369729
C 6.94544891 11.81064024 16.15923901 -0.00401142 0.00533940 0.00430111
C 1.50524614 7.45087879 8.84685256 0.00557722 0.00357423 -0.00005815
C 2.46343393 0.77086729 8.20130142 -0.00200808 0.00160524 -0.00612343
C 5.72623804 5.68970933 32.49607112 0.00523919 0.00904802 0.00538473
C 1.70032883 1.03447603 0.03442716 0.00122215 -0.00083186 0.00718190
C 6.83521281 5.64154870 8.00710105 0.00083000 0.00469564 -0.00408488
C 5.50999133 11.74417040 8.20624159 -0.00081174 -0.00326183 -0.00564171
C 3.01742099 7.43936864 16.81292338 0.00422805 0.00621038 -0.00412972
C 7.64195701 0.40992542 20.97682157 0.00027187 0.00394290 -0.00419097
C 0.88548017 6.13736118 29.29533255 0.00204721 0.00083714 -0.00049039
C 3.25201550 12.31995342 19.39643610 0.00234740 0.00138612 0.00029783
C 5.03116334 7.23919845 28.13789654 0.01272825 0.00464168 -0.00398694
C 0.84934704 12.40004446 27.68847383 -0.00130223 0.00219317 -0.00388399
C 7.38778042 6.79502020 20.16641639 0.00790676 0.00067584 0.00126899
C 5.39477075 0.39442534 29.34096540 0.00364877 -0.00009565 0.00131395
C 3.09732199 6.16872333 21.38257599 -0.00114995 -0.00124931 -0.00216681
C 7.30254751 1.07266434 22.14029726 -0.00757469 -0.00320427 0.00360056
C 1.35878540 5.56368100 30.44322971 -0.00332577 0.00272998 -0.00069185
C 2.96846134 11.53544516 18.26893947 -0.00341693 0.00485449 0.00211535
C 5.36211180 7.95887136 27.03435231 -0.00452082 -0.00724154 -0.00445571
C 1.23208026 11.81126872 26.51543901 -0.00226820 0.00138178 -0.00128688
C 7.23256653 7.49748020 18.97404636 -0.00081426 0.00716363 -0.00302341
C 5.71885710 1.20057152 30.38457230 0.00304854 -0.00756646 0.00273675
C 2.57322066 5.56281691 22.45198319 -0.00068257 -0.00116963 -0.00490265
C 6.47416956 2.18028676 22.21763084 -0.00020309 -0.00129053 -0.00533853
C 2.14807744 4.39517285 30.42650160 -0.00076800 -0.00464925 -0.00328030
C 2.11578381 10.36691970 18.34636646 0.00316997 0.00682812 -0.00224193
C 6.20571313 9.10133866 27.15269533 -0.00282155 0.00029219 -0.00164909
C 2.14524633 10.72945490 26.47839973 0.00079025 -0.00342928 0.00574988
C 6.40079202 8.59462362 18.91678081 -0.00401897 0.00067368 -0.00139448
C 6.48950097 2.37401855 30.20562440 0.00014547 -0.01147311 -0.00273306
C 1.78096417 4.46579887 22.31739143 0.00302486 -0.00173842 0.00186415
C 6.10703281 2.77742997 21.00144019 -0.00690184 0.00221654 -0.00555636
C 2.53431806 3.78910617 29.18151716 0.00118908 0.00171272 0.00388985
C 1.65568430 10.10705946 19.63859617 0.00379167 -0.00156464 0.00076576
C 6.57448202 9.51462836 28.38310072 0.00349726 0.00678882 0.00541240
C 2.40142875 10.09977836 27.75454906 0.00056892 0.00023499 0.00109119
C 5.95604154 9.23303644 20.10871627 -0.00170160 0.00388617 -0.00279927
C 6.75275404 2.87084109 28.90106710 0.00971112 -0.00249251 0.00355897
C 1.72503436 3.84723200 21.03979273 -0.00299411 -0.00280393 0.00291722
C 6.38872737 2.12473279 19.79843498 -0.00059025 0.00436928 -0.00589997
C 2.13591264 4.50737437 27.99647899 0.00824541 0.00153852 -0.00340777
C 2.00777117 10.79076696 20.79007081 -0.00508684 0.00041886 -0.00243277
C 6.30870271 8.72192955 29.47830669 0.00192354 0.00630066 -0.00206869
C 2.14073158 10.82141657 28.88361256 -0.00106375 0.00174668 0.00085655
C 6.33102516 8.61177937 21.29387644 0.00524005 0.00306850 0.00672539
C 6.40087979 2.07849933 27.84358736 0.00513592 -0.00463211 -0.00077640
C 2.28689825 4.36555341 19.92945636 -0.01279891 -0.00751772 -0.00326699
C 7.16736952 0.97449927 19.80211932 -0.00920654 0.00563423 -0.00530848
C 1.32714211 5.65299035 28.02540103 0.00220171 -0.00224008 -0.00217948
C 2.64634917 11.99413645 20.67777559 -0.00361731 -0.00475343 -0.00288419
C 5.48302800 7.57934043 29.39262250 -0.00412437 0.00391625 -0.00326886
C 1.40169834 12.01363573 28.90289264 -0.00419176 -0.00246901 -0.00503948
C 7.01771632 7.35677950 21.32123956 0.00284003 0.00422039 0.00348878
C 5.65340124 0.87970292 28.09639273 -0.00590588 -0.00180129 0.00639259
C 2.88455579 5.67393920 20.09664004 -0.00808427 0.00268993 0.00241695
C 6.78109374 0.40621723 17.46828358 -0.00700178 -0.00161648 -0.00128968
C 1.43530310 6.33767700 25.75428937 -0.00490467 -0.00757706 -0.00334932
C 2.32012504 12.67473894 22.98399998 -0.00276462 -0.00098863 -0.00439947
C 5.71396605 6.96479872 31.73888560 0.00028266 -0.00124530 0.00309983
C 1.63851515 12.56287493 31.24507762 -0.00551446 0.00074453 0.00213530
C 6.58508297 6.84602204 23.68260063 0.00281834 0.00841044 0.00012437
C 5.92215925 0.07538776 25.81817107 -0.00574083 -0.00487775 -0.00617446
C 2.93783723 6.21306637 17.71586437 0.00293784 -0.00869264 0.00199179
C 7.12093370 11.98783279 32.55459837 -0.00037915 -0.00396626 0.00429345
C 1.17334983 7.54315631 24.90941658 -0.00011153 -0.00595040 0.00900416
C 2.99447092 1.25133289 24.55529467 -0.00103563 0.00342950 0.00590685
C 5.62626367 5.35043531 16.06557184 0.00089780 -0.01151126 0.00248402
C 1.34852924 0.88488899 16.32132610 0.00236065 -0.00080084 -0.00616879
C 6.40089467 5.56609933 24.55745053 0.00021225 -0.00287488 -0.00292658
C 5.50445466 12.00092825 24.10341274 -0.00875988 -0.00525300 -0.00691633