1920
Time=80000.00000008 pbc="T T T" Lattice="25.33208063 0.00000000 0.00000000 0.00000000 25.76521461 0.00000000 0.00000000 0.00000000 32.99187867" energy=-12245.49150717 virial="-42.65081354 4.29409916 37.53603926 4.29409916 -59.40868628 4.61636614 37.53603926 4.61636614 -100.93008319" stress="0.00031293 0.00018615 0.00175893 0.00018615 -0.00057588 0.00018468 0.00175893 0.00018468 -0.00233054" Properties=species:S:1:pos:R:3:vel:R:3
O 6.30667600 2.96509967 6.75352501 -0.00605722 0.00399816 0.00343591
O 2.65433664 3.64761206 14.92406533 0.00236874 0.00287310 0.00454039
O 1.69338090 10.33216958 1.24438028 -0.00400442 0.00219397 0.00620084
O 7.08662324 8.76423315 9.43558147 0.00358469 -0.00182721 0.00079501
O 2.66635599 9.99865698 9.56791525 -0.00144974 -0.00369982 -0.00438904
O 5.72762454 8.96115757 0.93367331 -0.00751230 -0.00669849 0.00014619
O 6.72337024 2.77225890 14.98232844 0.00455928 0.00191921 0.00096667
O 1.95070440 4.00060396 7.02218348 -0.00499703 0.00260667 -0.00451532
O 6.31335705 0.97386359 16.77407647 0.00027210 -0.00607650 -0.00082615
O 2.41900787 5.65562261 9.06997372 -0.00058820 0.00196379 0.00140502
O 1.85245402 11.62098302 7.56260747 -0.00032641 -0.00371145 0.00103544
O 6.27404521 7.75471923 31.77911309 -0.00709163 0.00366246 -0.00385558
O 2.30401729 11.51802909 32.05185534 0.00347647 -0.00223247 0.00000894
O 6.64966125 7.64614685 7.19334216 0.00638861 -0.00392637 -0.00119151
O 6.80726633 1.23156782 8.81680584 0.00290709 0.00166448 -0.00049947
O 1.89442655 5.08222166 16.77251366 0.00381291 -0.00404374 -0.00508519
O 6.04767641 2.80385248 22.91579974 0.00120326 0.00229885 -0.00431782
O 2.41712613 3.94381565 31.49499790 0.00322921 0.00266032 -0.00404015
O 1.70501333 10.15440785 17.50335356 -0.00225490 0.00306322 0.00036121
O 6.81242373 9.46008103 25.69484599 0.00450809 -0.00327671 -0.00392052
O 3.06765397 9.91780297 26.05311811 -0.00343471 0.00172490 0.00739981
O 5.97056021 9.21229880 17.40663445 0.00875392 0.00083506 0.00820686
O 6.19099398 2.88114077 31.26044962 0.00301460 -0.00380089 -0.00274463
O 1.92670314 3.23584244 22.90825223 0.00053471 0.00238680 0.00316861
O 6.34540370 1.32192439 0.55428564 -0.00222259 0.00497011 0.00265891
O 1.92521458 5.15850239 25.08683676 0.00054076 -0.00311592 0.00244994
O 2.34914785 11.23293221 23.91989197 -0.00193476 0.00234106 -0.00176701
O 6.43113695 7.53757542 15.52143905 0.00137328 0.00163160 0.00514573
O 2.45248430 11.75371492 15.68895403 0.00014530 -0.00172888 0.00719916
O 6.69782366 7.78174557 23.77707298 0.00192975 0.00178332 -0.00030159
O 6.57457453 1.11200497 25.06278819 -0.00126375 0.00851081 0.00496616
O 1.99401985 5.26493433 0.65282816 -0.00159041 0.00259360 0.00109755
O 5.60420621 15.60383547 7.07403178 -0.00424719 -0.00041874 0.00079633
O 2.73503677 16.70341213 15.75520371 0.00610065 -0.00877051 0.00173829
O 1.41460525 23.34858351 1.17222109 -0.01028323 -0.00318648 -0.00253167
O 6.89349304 22.13175174 9.36710636 -0.00098015 -0.00320104 -0.00075441
O 2.72808294 23.14664373 9.43841259 -0.00667301 -0.00003704 0.00245287
O 5.60506943 22.11268433 1.29980546 0.00475862 0.00188789 -0.00611911
O 6.71607189 15.66315338 15.23178969 0.00298977 0.00065250 -0.00494939
O 1.23519025 17.02035245 7.50933311 0.00144530 0.00228330 -0.00492334
O 5.98386057 14.30025380 17.33373249 0.00137285 0.01371568 -0.00084560
O 2.02649117 17.92293462 9.67956821 -0.00745465 0.00214456 0.00504922
O 2.40994521 24.74850092 7.45660855 -0.00240923 -0.00302608 -0.00460753
O 6.34878098 20.57574779 32.17655192 0.00482511 0.00633362 -0.00193589
O 2.17273060 24.75306366 31.92460404 -0.00248451 -0.00112766 -0.00082829
O 6.49773283 20.47779021 7.58346518 -0.00260949 -0.00834857 -0.00718663
O 6.17298708 14.06733008 9.12399318 0.00392892 0.00068898 0.00693481
O 2.51521597 18.15241995 17.81224295 0.00452356 0.00305900 -0.00204029
O 5.42420690 15.49404957 23.35627062 0.00303255 -0.00424657 0.00306223
O 2.74182371 16.68969601 32.01700546 0.00372152 0.00966853 0.00142294
O 1.52744113 23.15559509 17.64828850 0.00084705 -0.00433659 -0.00220325
O 7.04589306 21.83623124 25.87892667 0.00155771 0.00170156 0.00255417
O 2.54522004 22.81150689 25.98519520 0.00520487 0.00267921 -0.00092275
O 5.73439153 22.22550293 17.75345229 0.00585731 0.00181430 0.00487135
O 6.81250633 15.66044028 32.04315650 0.00105469 -0.00180870 -0.00421393
O 1.26669842 16.44231142 23.96475033 0.00456094 -0.00256346 0.00639397
O 6.23396987 14.15380676 1.03505758 -0.00135754 -0.00936352 -0.00327015
O 1.94093383 17.89316345 25.90267560 0.00238494 0.00896254 0.00680440
O 2.25488321 24.63170725 23.99049095 -0.00434607 -0.00163703 -0.00176753
O 6.22486786 20.74226216 15.73621509 0.00029531 -0.00031010 0.00342513
O 1.95920142 24.68294882 15.63485910 -0.00056500 -0.00055767 -0.00693195
O 6.28898478 20.47195029 23.77272994 -0.00088720 -0.00403602 0.00241817
O 5.92839761 14.60234236 25.77506422 0.00020519 0.00044696 0.00318004
O 2.11333259 17.99520967 1.29260265 -0.00854075 0.00193117 -0.00828919
O 14.71299715 2.86286576 7.17377705 -0.00024782 -0.00339836 -0.00082753
O 11.12710447 3.65093779 15.00519790 -0.00752482 0.00911204 -0.00258110
O 10.03971750 10.29372764 1.49105694 -0.00094785 -0.00722002 0.00143764
O 14.85196461 9.58972212 9.39602389 -0.00488616 -0.00225222 -0.00023820
O 11.51308422 10.56280441 9.80302668 -0.00090452 0.00168940 0.00139596
O 14.46198636 8.71276929 1.25222752 0.00104440 0.00128646 -0.00020969
O 15.27632412 2.52146973 15.14667616 -0.00025502 0.00010185 0.00013336
O 10.31774953 3.67689336 7.00502437 0.00306308 0.00124226 0.00004140
O 14.92927873 1.17270550 17.22808660 0.00359668 0.00150442 0.00275123
O 10.78288014 5.38752299 8.85427904 0.01113998 0.00248009 -0.00494845
O 10.87862822 11.80345290 7.64864269 0.00580021 -0.00142272 0.00323517
O 14.64047065 7.60763811 32.03958817 -0.00073955 0.00534717 -0.00001375
O 10.41451440 11.52950364 32.16009251 -0.00204152 0.00115178 -0.00169485
O 14.58140612 7.81102715 7.48183871 0.00105148 0.00545675 0.00343786
O 14.86482657 1.05951413 9.01568125 0.00031839 -0.00181438 -0.00093208
O 10.44577138 5.17101621 17.19637805 -0.00394709 0.00436007 -0.00436608
O 14.24216501 2.85879271 23.41820873 0.00179207 0.00587389 -0.00879371
O 10.90082553 3.86924606 31.85164123 0.00685272 0.00473209 -0.00215570
O 10.03405719 10.04446991 18.06118696 -0.00121013 0.00481681 -0.00503988
O 14.78136911 9.31957349 25.99207098 -0.00731429 -0.00592276 0.00244887
O 11.01284856 10.38643247 25.96621864 0.00069024 0.00105652 -0.00075645
O 14.36199061 9.05732915 17.74913451 0.00092810 -0.00291784 -0.00057673
O 14.96866248 2.60017896 31.74834479 -0.00072408 -0.00073156 -0.00307615
O 9.90354657 3.86107926 23.20149729 -0.00614774 0.00246209 0.00324497
O 14.39002315 1.47835756 1.09377189 0.00298177 0.00301644 -0.00003578
O 10.72495176 5.44752394 25.35694001 0.00195472 -0.00004231 -0.00401972
O 10.31499678 11.84459764 24.03402669 0.00515439 -0.00561713 -0.00083528
O 14.91707524 7.59357658 15.58285970 0.00859628 -0.00191724 -0.00089115
O 10.46921971 11.59372729 15.98464351 -0.00521421 0.00313302 0.00579646
O 14.80235054 7.69842124 24.08040477 0.00355255 -0.00071976 -0.00527750
O 14.54695380 1.25412580 25.58240399 -0.00335958 0.00415471 -0.00388679
O 10.43902010 5.50142825 0.89299158 0.00637091 0.00114377 0.00303150
O 14.55902891 15.95450761 6.71169063 0.00459911 -0.00564675 -0.00402619
O 11.07301217 16.75310702 15.39269065 -0.00258429 -0.00244680 0.00438926
O 10.15916462 23.03336805 1.07812320 -0.00492765 0.00215172 -0.00640882
O 15.09005847 22.00203499 9.67192803 0.00523535 -0.00103345 -0.00451375
O 10.92354636 23.01874020 9.12904466 0.00581083 0.00233654 0.00081606
O 14.36064372 22.22704519 1.04092327 0.00477606 0.00062687 0.00183757
O 15.27587904 15.44737542 15.27204852 -0.00666273 0.00541431 -0.00037487
O 10.26846121 16.56438357 6.80469038 0.00369673 -0.00522654 0.00355556
O 14.72150586 13.97833388 17.30470806 0.00037514 -0.00052765 0.00213499
O 10.49025734 17.97506717 9.11946928 0.00295827 -0.00425333 0.00087738
O 10.36789930 24.49454275 7.24753968 -0.00184039 -0.00101068 -0.00009583
O 14.56497257 20.67478095 31.88065069 -0.00111954 0.00360994 -0.00210483
O 10.49500234 24.80105931 32.09720307 -0.00445916 0.00219357 0.00077266
O 14.98935256 20.94227287 7.28706482 0.00053714 -0.00134673 0.00390549
O 14.63577212 14.51043690 8.96396414 0.00404214 -0.00057451 0.00148519
O 11.14404783 18.20409054 17.43795734 -0.00217058 0.00070905 0.00295383
O 14.77550710 15.64808156 23.48947008 0.00416132 0.00019670 -0.00264094
O 10.70801524 16.29463898 31.54642206 -0.00079442 0.00506555 -0.00304065
O 10.38068093 23.20346394 17.47383852 0.00250197 0.00119183 0.00132657
O 15.69874142 22.07540406 25.65724623 0.00295387 0.00346115 -0.00440654
O 11.10369927 23.36237275 25.79576276 0.00257382 0.00010715 -0.00058921
O 14.05630463 21.88300174 17.61480679 -0.00155988 0.00769617 0.00079125
O 14.81263823 15.65057929 31.73569919 -0.00109701 -0.00480196 -0.00228079
O 9.89887555 16.56811270 23.39391318 0.00361243 -0.00359282 0.00625784
O 14.44466621 13.81148530 0.71131040 -0.00886059 0.00315025 -0.00589505
O 10.53133632 17.89780884 25.42970380 0.00016107 -0.00213389 0.00091959
O 10.09573116 24.60357726 23.77371817 0.00315503 0.00094525 -0.00143559
O 14.93537323 20.31512147 15.65204053 0.00311262 0.00149425 -0.00009605
O 10.65699126 24.67006407 15.39779087 -0.00160091 0.00428378 0.00427255
O 15.20919248 20.63135451 23.63538521 0.00749332 0.00616865 0.00043988
O 15.11095300 14.11276267 25.71054729 -0.00480287 0.00120226 0.00099304
O 10.36499806 17.95647827 0.48801394 -0.00224662 -0.00053028 0.00275990
O 22.59353169 2.67182028 6.89482606 -0.00111264 0.00546497 0.00061387
O 19.85984081 3.66115852 15.40384107 0.00162066 -0.00046077 -0.00512738
O 18.22771323 10.02852416 1.54563296 0.00576683 -0.00258366 -0.00123124
O 23.79035290 8.82731917 9.54912990 0.00131296 -0.00005906 0.00119664
O 19.77888050 9.99111922 9.80994172 -0.00842391 0.00460016 -0.00698824
O 22.34212878 9.30146177 1.53621366 0.00059330 0.00149422 0.00019838
O 23.67671739 2.92543989 14.86820519 0.00401220 0.00280571 0.00454234
O 18.70668920 3.84189797 7.49252094 -0.00825473 -0.00234297 -0.00005084
O 23.63199838 1.48538990 17.05951660 0.00254212 -0.00020493 0.00512113
O 19.13438721 5.38897496 9.43517752 -0.00144286 0.00237312 -0.00049893
O 19.42743471 11.34467924 7.62999564 -0.00773703 0.00016648 -0.00418254
O 23.08526545 8.09432889 32.15941400 -0.00540173 -0.00597436 0.00766290
O 18.74440185 11.52426003 32.35310540 -0.00060466 -0.00030173 -0.00186181
O 23.09618817 7.54804626 7.45604580 -0.00175889 -0.00487416 -0.00565387
O 23.28719470 1.02447149 8.91983527 -0.01140174 0.00226293 0.00290499
O 19.76617722 5.20892455 17.53941505 0.00155623 -0.00223063 -0.00103970
O 22.56126419 2.74184426 23.34589597 -0.00365933 0.00151289 -0.00818777
O 19.74581115 3.80845021 31.93341671 -0.00234315 0.00447463 -0.00370811
O 18.10369658 9.99747962 17.82664644 -0.00156457 -0.00159967 -0.00057575
O 24.08141795 8.89116526 26.06353905 -0.00408397 -0.00561861 0.00075656
O 19.88438291 10.23470795 26.23532383 0.00166274 -0.00019072 0.00222871
O 22.66961432 9.33671939 17.87815330 -0.00609359 0.00235834 -0.00699949
O 23.48670052 2.69988954 31.65506377 -0.00105402 -0.00110341 -0.00571351
O 18.59968928 3.80750453 23.51190193 0.00110759 -0.00578502 -0.00866642
O 22.97531101 1.35048580 0.87355056 0.00367805 -0.00533779 0.00711819
O 18.83924831 5.05255408 25.72579574 0.00098586 -0.00166593 -0.00326840
O 19.20753769 11.07372559 23.84204739 0.00314814 -0.00319013 -0.00388372
O 23.59388508 7.67735619 15.77238584 -0.00129163 -0.00251726 -0.00320511
O 18.68822366 11.36415062 15.70299579 -0.00628158 -0.00761861 0.00262253
O 23.79596972 7.47443386 23.86799639 0.00987307 -0.00065234 0.00113945
O 22.86881749 1.38318683 25.40460343 -0.00416979 -0.00065791 -0.00446863
O 19.18997032 5.25685908 1.37973667 0.00119018 -0.00028311 0.00544808
O 22.36857800 15.51838300 7.18967926 -0.00131583 -0.00597323 0.00781593
O 19.21938986 16.35504791 15.42521588 0.00342888 -0.00010384 -0.00467032
O 18.14658102 23.33681801 1.15607749 -0.00164412 0.00632719 -0.00139198
O 24.02954152 22.21680192 9.96193992 0.00201096 0.00259115 0.00356844
O 19.75450753 23.00119384 9.34468012 -0.00008073 -0.00011352 0.00124023
O 22.68453007 21.90891349 1.72926464 0.00006639 -0.00198801 -0.00731424
O 23.86797695 15.68988424 15.46163563 0.00931246 0.00872302 0.00041675
O 18.79985696 16.64337183 7.08487703 -0.00206385 0.00237300 -0.00230443
O 23.73757696 14.14096969 17.40331925 0.00555447 -0.00298955 -0.00282774
O 18.87311533 17.90880001 9.27933689 -0.00136941 0.00174514 -0.00126297
O 19.06522361 24.39663193 7.43495904 -0.01008480 0.00365429 0.00362985
O 23.39112568 20.25564951 32.54833219 0.00344419 0.00004920 -0.00402512
O 19.10630129 24.57939043 32.09299641 0.00253412 -0.00162134 0.00314775
O 23.72381594 20.53761078 7.94276256 0.00097754 -0.00012773 -0.00603167
O 22.74052668 14.04249382 9.30434403 0.00201679 0.00190371 0.00190700
O 19.18761428 17.75083777 17.70153763 0.00180841 -0.00034951 -0.00210908
O 22.98610883 15.46212131 23.69899954 0.00544666 0.00713305 -0.00096140
O 19.40939991 16.78871231 31.91181673 -0.00209547 -0.00161502 -0.00146890
O 18.30256266 22.85077990 17.48815600 0.00194629 0.00319975 -0.00380310
O 23.48205905 21.95161096 26.35646248 -0.00170835 -0.00024355 0.00036238
O 19.43095522 23.31074606 25.84616170 0.00224146 -0.00111610 0.00378020
O 22.94947812 22.17530849 17.90846184 -0.00706471 0.00257345 0.00356934
O 23.28052533 15.84454048 31.80432538 0.00011810 -0.00222457 -0.00033405
O 18.72592942 16.07846651 23.91821856 0.00334766 0.00253571 0.00748778
O 23.71766534 14.43808224 1.14127832 -0.00208722 0.00391522 -0.00258326
O 19.29342089 17.89085253 25.79602406 0.00040877 -0.00230557 0.00058609
O 19.08575392 24.50453260 23.58306191 0.00294117 0.00000406 0.00201141
O 23.25535570 20.57957263 15.87311513 0.00179730 -0.00246437 0.00009610
O 18.69494881 24.51745896 15.46716499 0.00572539 0.00154779 -0.00130868
O 23.28625553 20.69621040 24.15568086 0.00026831 0.00002976 0.00155920
O 23.45908202 13.79908497 25.79725897 0.00130697 0.00071496 -0.00376382
O 19.04547845 18.35921563 0.99737451 -0.00076646 0.00459333 -0.00634763
N 7.55015361 13.05293529 2.57411979 -0.00315018 -0.00453224 -0.00063942
N 0.86379971 6.49233409 10.48019797 -0.00210232 -0.00089807 -0.00119446
N 3.41847502 0.19512174 5.81140907 -0.00169354 -0.00160974 0.00324311
N 5.12598883 6.49855982 13.96522640 0.00015595 -0.00284133 0.00798373
N 1.20311033 0.19261450 13.89308557 0.00132244 0.00099227 0.00360237
N 7.90972272 6.61711162 5.54746013 -0.00009294 0.00580447 0.00268282
N 5.07760470 12.91033461 10.79639408 0.00313522 -0.00106802 0.00400488
N 3.29625661 6.29660604 2.21107806 -0.00441968 -0.00090055 -0.00428692
N 7.33433507 13.06937027 18.80528908 0.00105514 -0.00392736 0.00701235
N 1.09350135 6.52430091 26.83907632 0.00503994 0.00113927 -0.00375450
N 3.32579623 25.74295530 22.21520468 0.00282940 0.00507352 0.00067464
N 5.19204197 6.47459324 30.21315055 -0.00002503 0.00090826 0.00391052
N 0.68996735 25.68032536 30.33498755 0.00173574 0.00001648 -0.00729167
N 7.61492739 6.51596845 22.12391324 0.00630676 0.00535882 -0.00504516
N 5.30764622 12.99550117 27.28058159 -0.00546217 0.00171849 -0.00020391
N 3.13786370 6.17481361 18.32869668 -0.00704418 -0.00123036 -0.00766440
N 7.52439838 0.17200045 2.15322583 0.00252910 -0.00556630 0.00033357
N 0.77221355 19.03906951 11.19177079 -0.00299115 0.00079438 0.00272469
N 3.25039379 12.81744044 6.05344444 -0.00615534 0.00182862 -0.00521803
N 5.17569419 19.50838793 14.11585046 -0.00013869 0.00778894 0.00505225
N 0.94622979 12.55950413 14.16126878 -0.00703361 0.00522814 -0.00066050
N 7.56239776 19.49374687 5.80889435 0.00951939 -0.00622333 0.00367397
N 5.32303889 0.31017265 10.30667656 0.00440009 -0.00049858 -0.00227990
N 3.24570469 19.15726560 2.83908850 -0.00223388 -0.00727304 -0.00189361
N 7.35255105 25.51109684 18.42925916 0.00583204 -0.00342801 0.00321378
N 0.69379111 18.85273330 27.50109258 0.00520303 -0.00734440 0.00295711
N 3.62720208 12.17559090 22.28135087 -0.00008102 0.00901010 -0.00099050
N 4.99134900 19.62390553 30.56439870 0.00196745 -0.00051036 0.00460470
N 1.02429382 12.50935959 30.57313022 0.00102852 0.00330133 0.00502834
N 7.49692206 19.53463223 22.08568329 -0.00341672 0.01045169 -0.00537172
N 5.92445670 25.37951562 26.75668693 -0.00276291 0.00429023 -0.00239713
N 3.14940506 19.32319966 19.66245014 -0.00584511 0.00571424 0.00408318
N 15.89674128 12.94336848 2.26446351 -0.00402341 0.00169828 0.00067304
N 9.47142202 6.45543379 10.45706046 -0.00231707 0.00470903 -0.00177796
N 11.67562979 25.74443809 5.71710894 0.00358554 -0.00023327 0.00109895
N 13.87282947 6.45058717 13.93520763 0.00294785 0.00623381 -0.00167678
N 9.26937395 25.69988581 13.86142100 -0.00246752 0.00387724 0.00322299
N 16.26034395 7.11983582 6.14146713 0.00425706 -0.00435938 0.00829808
N 13.45923751 13.19181451 10.52515255 0.00090599 -0.00313803 -0.00070541
N 11.47656287 6.76109246 2.53730066 -0.00085609 -0.01064026 0.00528241
N 15.72279311 12.72776899 18.91441216 0.00164037 -0.00706366 -0.00371710
N 9.29977955 6.12940217 27.10177719 -0.00013770 0.00604023 -0.00205529
N 11.72396173 25.37441764 22.40764189 0.00158769 -0.00083421 0.00186802
N 13.40805478 6.49813051 30.58042845 -0.00117918 -0.00693723 0.00714110
N 9.13429909 25.70747134 30.58665342 -0.00353834 0.00054007 -0.00114684
N 15.72183389 6.41110864 22.43223839 0.00422467 -0.00151521 0.00415248
N 13.74355480 12.87568582 27.06695502 -0.00553085 0.00131521 0.00087491
N 11.53526444 6.49552199 18.73541607 0.00075514 0.00031838 -0.00349696
N 15.72396341 0.23324220 2.40775243 0.00064774 0.00076658 -0.00124011
N 9.25060930 19.04760185 10.72510566 0.00100206 0.00165349 0.00264528
N 12.08824233 12.73027183 6.03503785 -0.00046390 -0.00225128 0.00117008
N 13.40178592 19.50893693 14.23935364 0.00606439 0.00691388 -0.00512812
N 9.30490310 12.76314617 14.36940837 0.00382378 0.00521818 -0.00501310
N 16.13909859 19.70772446 5.78497884 0.00177116 0.00086404 -0.00881598
N 13.50732546 0.03806158 10.58368320 0.00130701 -0.00242861 -0.00047026
N 11.44503053 19.25751589 2.08611385 0.00081445 -0.00426116 -0.00296919
N 15.76098081 25.68963564 18.94922965 0.00392608 0.00276310 0.00559582
N 9.26242367 19.07223609 26.95798837 -0.00725249 -0.00361596 -0.00445119
N 11.81781910 12.80721765 22.54932856 -0.00477382 -0.00133300 -0.00480343
N 13.51712436 19.57291683 30.17529791 -0.00437473 0.00300455 -0.00641988
N 9.66873255 13.14777745 30.63058265 0.00034995 0.00183243 0.00128787
N 16.32028597 19.37269349 22.06580374 0.00343143 0.00404291 0.00221502
N 13.42395016 25.74892833 27.11827518 -0.00100167 -0.00504721 -0.00610970
N 11.80448885 19.44963027 19.19196596 0.00442921 -0.00065450 0.00124224
N 24.39043515 12.94017833 2.71119211 0.00022572 0.00453062 0.00717360
N 17.63134824 6.22110197 10.97280017 0.00478419 -0.00159221 -0.00465128
N 20.25713819 25.62236849 5.83022579 -0.00167587 0.00539873 -0.00048965
N 22.06150271 6.75979477 14.30114295 0.00615361 -0.00598715 -0.00313493
N 17.71585993 25.65254665 13.75340105 -0.00142407 0.00592755 -0.00128902
N 24.39395690 6.56288878 5.89855936 -0.00292578 -0.00595064 -0.00403104
N 21.91317394 12.88115353 11.08767516 0.00430159 -0.00196384 0.00303935
N 20.43767526 6.35697596 2.83961156 -0.00236476 0.00888549 0.00491948
N 24.52614926 12.73921419 19.02892470 0.00393221 -0.00003372 0.00414255
N 17.49528597 6.04944972 27.43003326 0.00210857 0.00145505 -0.00487234
N 20.10579468 0.03839928 21.95082300 -0.00238036 0.00010651 -0.00046037
N 21.79930756 6.95648418 30.67643926 -0.00088133 -0.00604813 0.00067200
N 17.79730656 25.73575923 30.62259694 0.00498786 0.00146554 0.00450946
N 24.46879332 6.22997970 22.10498299 -0.00522099 0.00331269 0.00430876
N 22.07489551 12.76036234 27.31341552 0.00713114 -0.00305469 -0.00320353
N 20.22635296 6.70428079 19.15495048 -0.00330779 -0.00089253 0.00305771
N 24.53737686 0.31578253 2.34597975 -0.00672524 -0.00016438 -0.00312327
N 17.87409566 19.20422250 10.94856830 0.00751265 0.00014005 0.00162218
N 20.25561745 12.63558019 5.96097510 -0.00470028 -0.00254780 0.00221792
N 21.91434985 19.58174158 14.37820993 -0.00144986 0.00318436 0.00118590
N 17.57852054 12.74649369 14.25858685 -0.01026164 0.00874312 0.00266502
N 24.47793940 19.13945275 6.18096287 -0.00003361 -0.00226830 -0.00117150
N 22.16649568 25.68048801 10.48347237 0.00476927 0.00220685 -0.00314998
N 20.30011411 19.54644141 2.55507191 -0.00219705 -0.00283343 -0.00040830
N 24.11514895 25.74282777 18.79752442 0.00248715 -0.00613522 0.00204207
N 18.07168412 19.21996429 27.17663036 0.00692569 -0.00137568 0.00623555
N 20.44444223 12.15896305 22.22001470 -0.00110095 0.00269039 0.00150131
N 22.00685728 19.25824689 31.01157042 -0.00064080 0.00552839 0.00408668
N 17.68453651 12.71084629 30.67191086 -0.00593375 -0.00162232 -0.00009613
N 23.95008267 19.25132411 22.48409066 -0.00064494 -0.00456732 -0.00568804
N 21.62021001 0.34896290 26.99529397 0.00245426 -0.00330974 0.00419224
N 20.08629981 19.06717601 19.39178886 -0.00261386 0.00623215 -0.00361164
C 7.76454086 0.60082094 4.48412341 0.00055003 -0.00510457 -0.00379502
C 0.78600985 6.04110813 12.87274928 -0.00165197 -0.00053987 -0.00603476
C 3.44919966 12.49182455 3.63223653 -0.01087465 -0.00473019 -0.00261999
C 5.08848736 6.62012848 11.57027050 -0.01403317 -0.00386303 0.00168373
C 0.91779065 12.23528317 11.77100615 0.00231971 0.00142556 0.00035627
C 7.70164272 6.73673294 3.10112561 0.00210523 -0.00645049 -0.00298784
C 5.20626717 0.45657857 12.66611543 -0.00695763 -0.00585431 -0.00195801
C 3.52552170 6.13688754 4.58773921 -0.00811238 0.00405662 -0.00082832
C 7.45842645 1.20302076 5.66266447 -0.00008466 -0.00167270 -0.00334816
C 1.23861932 5.36928208 13.97785391 -0.01206548 -0.00172966 0.00122336
C 3.05577533 11.97198533 2.45413679 0.00545719 -0.00471480 0.01061399
C 5.62764546 7.16473576 10.44622090 -0.00230577 0.00315849 -0.00045543
C 1.24362024 11.55615762 10.59080049 0.00736733 0.00097913 0.00238043
C 7.19698463 7.33063411 1.94032560 0.00876174 0.00231701 0.01051732
C 5.39481507 1.12839352 13.81478825 0.01080601 -0.00430168 -0.00284776
C 3.28327822 5.57082526 5.81746597 0.00665454 0.00068116 -0.00666763
C 6.62473723 2.34742282 5.64797653 0.00894890 0.00614850 0.00212213
C 2.12294529 4.19805687 13.80458588 -0.00020965 0.01030036 0.00490577
C 2.18898163 10.77860086 2.43079288 0.00406236 0.00070547 -0.00541741
C 6.36521811 8.33573096 10.50493587 0.00110379 0.00077269 -0.00553971
C 2.11653138 10.52314084 10.67314330 -0.00128936 0.00402743 0.00484216
C 6.36453066 8.44258731 2.00214964 0.00331635 0.00459594 -0.00268635
C 6.23737773 2.25816455 13.84090485 -0.00102644 0.00249496 -0.00605838
C 2.40449664 4.48727907 5.83786446 -0.00172023 -0.00451665 0.00541448
C 6.18065146 2.85390444 4.40004878 0.00045682 -0.00203579 -0.00170228
C 2.29302213 3.67328297 12.57671100 0.00131268 -0.00651503 -0.00255971
C 1.87097900 10.22519270 3.71842756 -0.00533938 0.01222679 0.00563746
C 6.48785661 9.01190010 11.73090665 0.00425926 -0.00083572 -0.00133066
C 2.49829203 10.08215258 11.90842835 0.00087035 -0.00538208 0.00023385
C 6.26282531 9.06321357 3.29574381 0.00411268 0.00382503 -0.00175493
C 6.70157164 2.80144302 12.62162921 -0.00681679 -0.00290439 0.00188078
C 1.80644860 3.95954441 4.63274214 -0.00246712 0.00662998 -0.00691285
C 6.36095159 2.09206752 3.26329192 0.00640394 -0.00139515 -0.00147918
C 1.80070936 4.40572719 11.53154704 -0.00076017 -0.00379247 -0.00709980
C 2.42392342 10.78400309 4.88981510 -0.01096380 -0.00174275 -0.00350188
C 6.08909679 8.36945290 12.91103575 0.00021041 -0.00353134 0.00517595
C 2.08974492 10.69804502 13.12033440 -0.00035912 0.00695292 0.00288040
C 6.78228994 8.48404243 4.41861459 -0.00350973 -0.00157362 0.00515291
C 6.47933995 2.22389978 11.38846880 0.00035553 -0.00325376 -0.00069747
C 2.18638452 4.49186075 3.44773459 -0.00092448 0.00156743 0.00354884
C 7.13096517 0.93075738 3.30844416 0.00657047 -0.00463872 -0.00445053
C 1.14258450 5.60200038 11.61965064 -0.00295633 -0.00844058 0.00048520
C 3.06650588 12.01671935 4.90801304 -0.00180810 -0.00126451 0.00023122
C 5.40413407 7.16502479 12.81787413 0.00438113 -0.00271158 -0.00082138
C 1.31651991 11.80795598 13.01797918 0.00381167 0.00051400 -0.00032244
C 7.45356672 7.27719322 4.37342486 0.00412853 -0.00152702 -0.00018421
C 5.72583883 0.99116875 11.45608274 0.00177180 0.00577336 -0.00067878
C 3.00996345 5.66177590 3.38770087 -0.00985552 0.00297780 -0.00432057
C 6.96357933 0.31331764 0.88323225 0.00253093 -0.00813995 -0.00123832
C 1.63243180 6.52502327 9.34803160 0.00469647 -0.00277259 0.00074832
C 2.61970550 12.56965292 7.27552957 -0.00218678 0.00377588 -0.00519337
C 5.75597827 6.57377044 15.13271989 -0.00304931 0.00120543 0.00294029
C 1.62026102 12.61789363 15.32255363 0.00012991 0.00401248 0.00567344
C 7.33325322 6.67269417 6.80200142 0.00032461 0.00530927 -0.00467853
C 6.06051508 0.30566641 9.15043042 0.00419470 0.00262778 -0.00572161
C 2.57801963 6.25740523 1.04211978 0.00271593 -0.00515136 0.00306256
C 6.75262133 12.10597320 16.67322472 -0.00232495 0.00203354 0.00136617
C 1.40626840 7.62309116 8.41823801 -0.00427675 0.00103951 -0.00009026
C 3.14741899 1.19802002 8.01192918 -0.00161902 -0.00445581 0.00898929
C 5.40771004 5.59550451 32.38784276 0.00520540 -0.00208915 0.00624833
C 0.99289931 1.01351865 32.32327447 0.00354872 -0.00227057 0.00398385
C 7.51055446 5.54971615 7.77657722 -0.00728726 -0.00180162 0.00326652
C 5.56892885 11.81392544 8.76234556 0.00406157 -0.00260322 -0.00468882
C 2.49238072 7.39460538 16.30794010 -0.00592798 -0.00471030 -0.00358023
C 7.56468974 0.23241267 20.81920241 0.00404073 0.00598497 0.00359463
C 0.89093177 6.21521682 29.21374350 0.00795121 -0.00511515 -0.00228847
C 3.22494732 12.36129190 19.88293103 0.00656665 0.00444627 0.00722219
C 5.06497140 6.95811003 27.80537225 0.00740629 0.00090478 0.00224251
C 1.35327809 12.39819330 28.11972474 0.01007326 0.00435531 0.00115452
C 7.48194458 6.73697838 19.63353786 -0.00196648 -0.00202693 -0.00338902
C 5.22684530 0.18589130 29.03599191 0.00163275 0.00438428 -0.00108895
C 3.27130717 5.74701962 20.70589053 0.00309801 0.00331371 0.00421078
C 7.33398296 0.99991061 21.91990031 0.00317141 0.00732706 0.00667449
C 1.23752638 5.66068568 30.36304919 -0.00389491 -0.00568276 -0.00491398
C 2.86848623 11.81718063 18.69763626 0.00375928 -0.00147938 0.00401611
C 5.45405455 7.74704703 26.76908467 0.00579701 -0.00052758 0.00290291
C 1.67586808 11.65118351 27.04832196 -0.00445705 -0.00166341 0.00076387
C 7.06971638 7.46032064 18.51040276 0.00106652 0.00420800 -0.00249134
C 5.28600512 0.98688437 30.16303466 -0.00361410 0.00504033 0.00463017
C 3.04579903 5.03154019 21.84307430 -0.00409977 -0.00378289 -0.00453076
C 6.51029676 2.12704112 21.84192891 0.00428842 0.00088722 -0.00303087
C 2.02433464 4.47411564 30.34988315 -0.00437418 0.00022816 0.00051187
C 2.07001797 10.65895903 18.68406385 0.00928185 0.00475574 0.00047095
C 6.40966809 8.75359570 26.77040327 -0.00006727 0.00776432 0.00681867
C 2.48538460 10.51056762 27.13908902 -0.00055516 0.00537794 -0.00790869
C 6.36134482 8.64003459 18.53000576 0.00347237 -0.00483683 0.00209156
C 5.95985032 2.23112186 30.08196599 -0.00058922 -0.01542810 0.00534815
C 2.22014221 3.90723081 21.76749669 -0.00284559 0.00634752 0.00434735
C 6.16756526 2.52439445 20.53475371 -0.00586916 -0.00004995 0.00182492
C 2.22250770 3.83333430 29.09564009 0.00076674 0.00094147 0.00350299
C 1.78495427 10.06124663 19.97062344 0.00196505 0.00041411 0.00086950
C 6.85276131 9.11070587 28.06174611 0.00297761 0.00330618 -0.00485408
C 2.61599302 9.95021510 28.41358146 -0.00216204 0.00710860 0.00050470
C 5.95186695 9.05590168 19.83581048 0.00204900 0.00052296 0.00132630
C 6.39740521 2.68046317 28.84608150 -0.00596189 -0.00065968 -0.00681164
C 1.65693826 3.54030888 20.48759853 0.00160712 0.01040628 0.00371564
C 6.40164992 1.81953239 19.40061052 -0.00675140 -0.00072367 -0.00427441
C 1.81010530 4.41806238 27.94494578 0.00214229 -0.00397529 0.00267526
C 2.22171303 10.54342402 21.14065339 -0.00052388 0.00446917 0.00288973
C 6.26569388 8.43319198 29.15442480 0.00461187 0.00221716 0.00589993
C 2.06783968 10.57721292 29.50766980 -0.00487569 0.00240308 -0.00101124
C 6.40826175 8.40223713 20.99935434 0.00523712 0.00345885 -0.00722566
C 6.27254858 1.88113225 27.67117787 -0.00475816 0.00696151 0.00315530
C 2.09133825 4.18789786 19.36840035 -0.00624054 -0.00725805 -0.00420216
C 7.11745607 0.57617206 19.51999685 -0.00010184 -0.00546758 -0.00462723
C 1.27500299 5.70652648 27.97152339 -0.00500891 -0.00410361 -0.00074559
C 3.03723462 11.72039729 21.10415585 -0.00355163 -0.00309315 0.00551527
C 5.47886325 7.29451525 29.11115437 0.00572142 0.00479286 0.00372857
C 1.53713700 11.89877557 29.43865568 -0.00174483 -0.00608995 -0.00071946
C 7.12043474 7.19480373 20.96074411 -0.00501435 -0.00668511 0.00208417
C 5.79407265 0.58293140 27.80149428 -0.00045220 0.00761101 -0.01365904
C 2.85867982 5.33886006 19.44758976 0.00313811 0.00128293 -0.00296324
C 6.91205096 25.71927504 17.18065793 0.00118241 0.00698910 0.00170383
C 1.60613930 6.28446202 25.55413938 -0.00432193 -0.01275454 0.00174755
C 2.99018179 12.19040083 23.49772856 -0.00516215 0.00426838 0.00785691
C 5.62879236 6.71043834 31.45088463 -0.00566813 -0.00094567 0.00260976
C 1.62601486 12.48619417 31.73763475 0.00461664 0.00075929 0.00800704
C 6.96182961 6.66407446 23.31917103 0.00245732 0.00886610 -0.01203250
C 6.22225828 25.74511606 25.48111811 -0.00225393 -0.00299793 0.00681208
C 2.45538304 6.12546192 17.16704890 0.00165612 0.00906356 0.00928554
C 7.20615865 12.01873586 0.40549783 0.00619536 0.00194722 -0.00409723
C 1.55884822 7.50453867 24.73928762 0.00651094 0.00205724 -0.00350857
C 3.24198633 0.97397003 24.45247867 -0.01015528 -0.00193318 -0.00875727
C 5.52365977 5.44964295 16.05089334 0.00551994 0.00561512 -0.00185166
C 1.33569137 1.13353417 16.16128357 0.00254930 0.00753286 -0.00547967
C 6.85569615 5.41195035 24.16434914 0.00248529 0.00224390 -0.00551659
C 5.86675638 12.24449285 25.05269348 -0.00257438 -0.00498578 -0.00088245