1920
Time=94000.00000000 pbc="T T T" Lattice="25.55629444 0.00000000 0.00000000 0.00000000 25.71948843 0.00000000 0.00000000 0.00000000 32.76989620" energy=-12245.25130492 virial="-54.66241166 8.92526243 -2.66940926 8.92526243 -39.57125986 12.46382825 -2.66940926 12.46382825 -35.88850497" stress="-0.00031823 0.00050960 -0.00011503 0.00050960 0.00046443 0.00055803 -0.00011503 0.00055803 0.00056679" Properties=species:S:1:pos:R:3:vel:R:3
O 5.52303401 2.80302379 6.65570594 -0.00220379 0.00265587 0.00586776
O 2.63404617 3.48049008 14.78480957 0.00178129 -0.00044628 -0.00739536
O 1.71926211 10.16325746 1.38569409 0.00028540 0.00851778 -0.00053821
O 7.12828453 9.20025055 9.06363870 -0.00099324 0.00018591 -0.00519567
O 2.51937961 9.89656085 9.50888669 0.00250035 0.00012685 0.00042365
O 5.71359695 9.42482943 1.13956651 0.00559037 -0.00489844 -0.00225621
O 6.81084274 2.44636736 15.10068452 0.00282901 0.00343243 -0.00343433
O 1.77599384 3.23245295 6.60215648 0.00252692 0.00280338 -0.00141471
O 6.36283355 1.39240481 17.27566808 -0.00074338 -0.00126465 -0.00495234
O 2.19704899 5.02377199 8.51480119 0.00472089 0.00060981 -0.00347436
O 2.98709350 11.60365704 7.55882228 -0.00001099 0.00364928 0.00340962
O 6.06897167 7.62892545 31.88178822 0.00137304 0.00185597 -0.00716993
O 2.26362351 11.69194400 32.03052880 -0.00224938 -0.00135408 -0.00174902
O 6.57554795 7.59507971 7.21880162 -0.00209755 0.00027637 0.00260725
O 5.63709159 1.35071507 8.77593238 -0.00361837 0.00712979 -0.00052589
O 1.94787668 4.71227772 16.90388888 -0.00380747 0.00474015 0.00475506
O 6.22057548 2.76617636 23.33578571 -0.00249526 -0.00426712 0.00373017
O 2.74540821 3.48367247 31.13457738 0.00219904 -0.00025763 -0.00094674
O 1.55864633 10.04601681 17.64264439 0.00117731 -0.00352454 0.01043400
O 6.61502560 9.13010215 25.62303175 0.00405950 -0.00267413 -0.00225601
O 2.72493749 10.26953296 25.79533107 -0.00958336 -0.00261945 0.00148566
O 5.37555441 8.97990153 17.28982987 0.00376905 0.00478108 -0.00209396
O 6.80999364 2.54857464 31.39387555 -0.00354787 -0.00816935 0.00365190
O 1.39788067 3.65982230 23.16390922 -0.00107686 0.00472028 -0.00653165
O 6.69338089 0.99837806 0.74553371 -0.00356978 0.00799520 -0.00669264
O 2.11187169 5.36588369 24.95752141 0.00417226 0.00143580 -0.00693968
O 2.01852187 11.54245002 23.69943424 -0.00647334 -0.00037636 -0.00243195
O 6.35390654 7.67231102 15.26193969 0.00427265 0.00304701 -0.00129262
O 2.12467806 11.57609599 15.57784453 -0.00194149 -0.00048247 -0.00282139
O 6.54461161 7.83136242 23.42335187 -0.00077739 -0.00033756 0.00090053
O 6.89126078 0.95367905 25.42023981 -0.00386820 -0.00199933 0.00010601
O 2.27759730 4.95903732 0.50434988 -0.00320721 0.00133939 0.00256173
O 6.05866414 15.96825953 7.34973119 -0.00208130 -0.00632339 -0.00100825
O 2.83921379 16.47625660 15.29401213 -0.00107318 0.00460012 -0.00945866
O 1.35180571 23.20677309 1.29800643 -0.00335314 0.00408148 -0.00526605
O 6.86097987 22.26294793 9.58751054 0.00166386 0.00579755 0.00149993
O 2.33318073 22.75488074 9.97282043 -0.00054531 -0.00361778 0.00712910
O 5.55118189 21.76588786 1.41576944 -0.00289708 0.00162300 0.00190163
O 7.31339370 15.86420589 15.11426824 -0.00446300 -0.00254189 -0.00257123
O 1.83109238 16.68700449 7.24764204 -0.00753793 0.00017008 -0.00297224
O 6.86496371 14.14388253 17.32684189 -0.00483984 0.00079347 0.00788773
O 2.62036120 18.07229058 9.27028437 0.00022438 -0.00011223 0.00085452
O 2.41677934 24.03503816 7.51570291 -0.01019175 -0.00268897 0.00029051
O 5.92903881 20.46865956 32.06345628 0.00317577 0.00375409 0.00349958
O 1.79561809 24.67297610 31.93539004 0.00289924 -0.00132296 0.00125199
O 6.41064169 20.83539591 7.61726819 -0.00296376 0.00048635 0.00062902
O 6.78829329 14.06939554 9.08146054 -0.00108611 0.00320548 0.00181906
O 2.67851247 18.24479352 17.34134211 0.00019627 -0.00019739 0.00357102
O 6.08782645 15.74017767 23.44991348 0.00128980 0.00474431 -0.00031288
O 2.77581746 16.76357142 31.76852521 -0.00586221 -0.00637997 0.00022926
O 1.43739402 22.98669811 18.12681202 0.00012130 -0.00105525 0.00327740
O 6.89618209 21.82884664 25.89282772 -0.00308412 -0.00162039 -0.00452091
O 2.63186641 22.93343297 25.91806472 -0.00585854 0.00197579 -0.00424230
O 6.12616633 22.36435583 17.80545929 0.00439464 0.00305655 0.00423680
O 6.77394133 15.60248985 31.91483555 -0.00207405 -0.00199563 -0.00346076
O 1.61343244 16.54179170 23.54614624 -0.00268549 -0.00147496 -0.00236998
O 5.93467614 14.12598913 1.20916039 -0.00053112 -0.00106622 0.00178643
O 2.00858432 18.10955284 25.73945817 -0.00054561 -0.00006758 -0.00817648
O 2.31524916 24.58730803 24.07892702 0.00794871 -0.00518599 0.00536359
O 6.69404023 20.82759119 15.75459671 0.00090925 -0.00219887 -0.00001774
O 2.01488273 24.61352101 16.08562852 0.00645146 -0.00801386 0.00047749
O 6.05868403 20.54155996 23.84466122 -0.00536881 -0.00702689 -0.00505329
O 6.19560431 14.44885754 25.74399812 0.00082483 0.00027884 0.00024034
O 1.85581549 18.12867340 1.08643343 0.00189675 -0.00114422 0.00324357
O 14.83481909 2.74458955 7.14169233 -0.00382906 0.00368222 -0.00271128
O 11.12647372 3.50432963 14.53556909 0.00681807 0.00441750 -0.00457830
O 9.98242097 9.98613560 1.37673872 0.00694063 0.00728105 0.00529159
O 15.95472857 9.25945218 9.52422299 0.00123750 -0.00145906 -0.00194758
O 11.02956558 10.05152666 9.24678476 0.00186040 -0.00279892 -0.00623001
O 14.66467403 9.42370557 1.04396037 0.00257293 -0.00761198 -0.00012110
O 15.62665145 2.24595336 15.04503429 0.00179568 -0.00198624 -0.00169844
O 10.20841986 3.60240901 6.52776560 0.00785756 0.00598009 -0.00178959
O 15.31859046 1.29327574 17.32405480 0.01088231 0.00210987 0.00228233
O 10.82965852 5.12087018 8.46440686 -0.00002213 0.00201334 0.00102023
O 10.95658941 11.94669113 7.26302902 0.00397069 0.00077540 0.00707590
O 14.88578730 7.79248626 31.89583412 -0.00043195 0.00374200 -0.00167924
O 10.19766100 11.46541719 32.07620972 0.00362861 -0.00120278 -0.00850638
O 15.38657744 7.97499662 7.40174984 0.00238260 0.00189029 0.00606160
O 15.58226892 1.05558608 9.08308455 -0.00071014 -0.00303326 -0.01046961
O 11.00399466 4.84809388 16.73855114 0.00247402 0.00070178 0.01024273
O 13.98361998 2.28260147 23.54369502 0.00515511 -0.00182138 0.00029397
O 11.12312183 3.57118393 31.21453573 -0.00215938 0.00595925 -0.00691910
O 10.51537994 9.76145023 17.69066446 0.00184385 0.00386582 -0.00428793
O 14.72322043 9.29066127 25.37560197 -0.00103481 -0.00592563 -0.00443584
O 11.16532197 9.96104300 25.95397608 -0.00269537 -0.00365957 -0.00014157
O 14.36578236 8.88061806 17.53680618 -0.00429310 0.00738227 0.00260752
O 15.39396742 2.37034592 31.55838760 -0.00006881 -0.00135019 0.00276454
O 9.89865131 3.75979021 23.05256350 -0.00021785 -0.00303298 0.00124174
O 14.83242793 0.88316650 0.91884325 0.00081557 0.00164510 -0.00608280
O 10.68677312 5.19610718 25.18156796 0.00026337 -0.00714063 0.00001424
O 10.86751029 11.72310005 23.94444861 0.00095883 0.00134084 -0.00140172
O 14.72354194 7.40116806 15.54551301 0.00258212 0.00453621 -0.00373672
O 10.52081635 11.47963858 15.58280698 -0.00381977 -0.00445411 -0.00737317
O 14.95045011 7.60568453 23.57556545 0.00956647 0.00127518 -0.00380867
O 14.82840855 1.18507166 25.68037191 0.00027036 0.00510381 0.00253061
O 11.33188244 5.29125259 0.33726212 0.00221692 0.00256677 -0.00102492
O 14.32868322 15.84665082 6.90893624 0.00399612 0.00171861 0.00408650
O 11.25453195 16.64120111 15.31221397 -0.00678169 0.00408645 0.00008683
O 10.09977533 22.90219321 1.75747461 0.00140013 -0.00216451 0.00222441
O 15.62212913 21.83187453 9.48871643 0.00338090 0.01105714 0.00169310
O 10.72507234 22.89887971 9.65133742 0.00275988 -0.00424151 -0.00482980
O 13.98104972 21.93435489 1.13364341 -0.00089920 0.00169618 -0.00009045
O 14.99818052 15.67157909 15.04708024 0.00132857 0.00408831 -0.00125987
O 10.07246998 16.89914259 6.90724774 0.00053653 -0.00335535 -0.00257433
O 15.12236173 13.98522337 16.96788497 0.00674821 -0.00132174 -0.00283482
O 10.45820578 17.90637967 9.33937694 0.00006351 0.00011631 0.00114381
O 10.81975612 24.79250327 7.75168488 -0.00101652 0.00176600 -0.00430227
O 14.75390526 20.81133457 31.76067724 -0.00250466 -0.00044863 0.00458763
O 10.58412943 24.43199699 32.36843952 0.00338453 -0.00068421 -0.00381532
O 14.93781843 20.68979151 7.18973827 -0.00041309 -0.00452069 -0.00125784
O 14.66517120 14.14212785 8.87746162 0.00034779 -0.00467894 0.00562326
O 10.38085405 18.32937603 17.38152718 0.00455588 0.00436449 0.00548242
O 14.29214079 15.52983539 23.26131446 0.00554485 -0.00452288 -0.00226839
O 10.88034174 16.68382115 31.38959165 -0.00493045 -0.00675518 0.00557559
O 10.37559770 22.72234922 17.75994373 0.00069341 -0.00409224 -0.00392623
O 15.21041939 22.26146838 25.58345252 0.00177393 0.00098855 -0.00377370
O 11.18217899 23.20388670 26.29438524 0.00045819 0.00135458 0.00295906
O 14.35221770 21.67308983 17.60109160 -0.00136229 -0.00768604 -0.00403035
O 15.21835183 15.66248515 31.85697770 -0.00159617 0.00000256 -0.00074708
O 10.05501967 16.74110421 23.32555684 0.00177264 0.00180596 -0.00110779
O 14.51607766 14.02725908 1.05016793 -0.00175715 -0.00250789 0.00102349
O 10.39348913 18.41607785 25.28099291 0.00278291 -0.00648057 0.00508545
O 10.78760969 24.23322360 23.89047043 -0.00084201 0.00288299 -0.00480803
O 14.89337583 20.32455577 15.50351794 0.00170599 -0.00435668 -0.00164015
O 10.81826229 24.44705064 15.70451586 -0.00282151 0.00778537 0.00511946
O 15.26128667 20.53040151 23.73230126 -0.00135445 -0.00135462 0.00063685
O 14.65239961 14.27597929 25.51239504 0.00585837 -0.00548891 0.00362727
O 10.76936978 18.06394252 0.71319122 -0.00463666 -0.00016021 -0.00210008
O 22.50946403 2.60442045 6.91128011 -0.00023852 0.00064389 0.00402138
O 19.57883062 3.07673341 14.88901204 0.00255621 0.00064557 -0.00173801
O 18.89429377 10.23211005 0.80017019 0.00685570 0.00283336 0.00306491
O 24.45051982 9.07874544 9.19812677 -0.00091925 0.01095205 0.00277796
O 19.99630274 10.45424871 9.23798058 -0.00048680 0.01045023 -0.00859805
O 22.72279406 9.23871798 1.24671934 -0.00476927 0.00060573 0.00474900
O 23.82380897 2.49793207 15.31044668 -0.00045099 -0.00004776 -0.00312904
O 18.92646795 3.92784448 6.84472706 -0.00045627 0.00277866 0.00240991
O 23.64854311 1.24687091 17.46523949 0.00421009 -0.00775264 0.00636948
O 19.53615081 5.20427924 9.08920395 -0.00226000 0.00227636 -0.00081013
O 19.70855873 11.75343071 7.16855977 0.00144334 -0.00068929 0.00387591
O 22.93744474 7.80029531 31.84016749 0.00045823 0.00039304 -0.00453176
O 18.55408195 11.82956324 31.47112936 -0.00278784 -0.00392421 0.00179848
O 23.95465813 7.50521197 7.11601173 -0.00257632 0.00258846 0.00026870
O 23.53391599 1.21500009 8.82597467 -0.00007559 -0.00076218 -0.00151264
O 19.31678388 4.84350653 17.02385021 -0.00926201 -0.00092178 -0.00159505
O 23.00500138 2.50594005 23.72544093 0.00215320 -0.00301717 -0.00445565
O 19.77136712 3.58228499 31.28080825 0.00540465 0.00008311 0.00461791
O 18.41518215 9.79222095 17.36266369 -0.00002022 0.00880108 0.00429671
O 23.71497177 8.65699518 25.53290377 0.00198932 -0.00620304 -0.00072356
O 19.61125392 9.94599399 25.70615251 0.00169471 -0.00074424 -0.00250970
O 22.55280486 8.88605591 17.35865303 0.00192274 0.00231745 0.00304159
O 23.80868521 2.52060109 31.83748517 0.00191247 0.00203424 -0.00256305
O 17.97278816 3.66132992 23.15111287 -0.00264233 -0.00168537 -0.00739435
O 23.00674835 0.97098605 0.91223809 0.00121773 -0.00403271 -0.00598753
O 19.03089482 5.09420266 25.19326110 -0.00380193 -0.00114215 -0.00495533
O 19.50090042 11.57256803 23.44247125 -0.00154983 0.00441602 0.00481658
O 23.40352003 7.73544122 15.24869920 0.00085330 0.00733305 -0.00309715
O 19.18724589 11.53751442 15.54136946 -0.00216331 -0.00203556 -0.00148244
O 22.98825156 7.38194166 23.31426758 -0.00540662 0.00292572 0.00432398
O 23.11142598 0.97008119 25.81385557 0.00294119 -0.00288393 -0.00310683
O 19.39850546 5.14486314 0.49504970 0.00350603 -0.00128432 0.00343572
O 23.04128047 15.83364987 6.72782809 0.00336406 -0.00060370 0.00379865
O 19.58368160 16.63189769 15.03088120 0.00247844 0.00244637 0.00270504
O 18.81958242 22.88086628 1.77458486 0.00290921 0.00534392 0.00342624
O 23.94649034 22.22102812 9.87136536 -0.00069579 -0.00074290 -0.00576049
O 19.83609878 22.85191733 9.58597911 0.00087251 -0.00044053 0.00148624
O 22.94987384 21.94366352 1.70228203 0.00027718 -0.00194499 0.00203221
O 24.56282133 15.67463106 14.99995720 -0.00089048 -0.00168445 -0.01375157
O 18.71643770 16.80218300 6.88388715 0.00158766 0.00221873 -0.00209385
O 24.46802516 14.09219016 16.93260421 0.00257835 -0.00179892 0.00295718
O 19.31787849 18.48137955 8.79035806 0.00116158 0.00373570 -0.00100483
O 19.41977494 24.68875331 7.88699394 -0.00358815 -0.00123421 -0.00772073
O 23.27050802 20.49846228 32.35308412 0.00206529 0.00096335 -0.00287123
O 18.63558833 24.49949044 32.57751353 0.00017011 -0.00376905 0.00327075
O 23.76857260 20.76262469 7.88945763 -0.00953329 0.00111655 0.00086954
O 23.58764427 14.20335364 8.85571152 -0.00437449 0.00591900 0.00210395
O 19.03206040 18.07909215 17.18645041 -0.00091413 0.00032140 0.00159329
O 23.21633341 15.83292230 22.98942965 0.00529076 -0.00309422 -0.00413410
O 19.81286869 16.60256575 31.19107538 -0.00499422 0.00377491 0.00817774
O 18.34995080 23.07525587 18.03607288 0.00390054 0.00062713 0.00346106
O 24.24465566 22.29199266 26.42500423 0.00094490 0.00793884 -0.00591611
O 18.94615520 23.04265267 26.20214507 0.00213276 0.00061970 -0.00304379
O 22.87445045 22.09106989 18.09729163 -0.00016451 -0.00045587 -0.00216911
O 23.92120057 15.43548696 31.64360304 0.00163370 -0.00539460 -0.00278199
O 18.76131184 16.63479514 23.32416509 -0.00297545 0.00334301 -0.00181638
O 23.02727128 13.88307965 0.69247255 -0.00104575 0.00181652 0.00698114
O 19.19604395 18.19704485 25.17780119 0.00150020 -0.00334085 0.00010921
O 18.82330590 24.41061387 24.04917823 -0.00762431 0.00146781 -0.00030513
O 23.44740734 20.40622278 15.97656536 -0.01011246 0.00837401 -0.00335530
O 19.21513312 24.12848071 15.74909762 -0.00050401 0.00237546 0.00188477
O 23.71571620 20.53552488 24.29202471 0.00027526 -0.00594472 -0.00000076
O 23.66108976 14.42826476 25.41934955 -0.00247288 -0.00039797 -0.00565491
O 19.18807170 18.17436506 0.53589482 0.00555126 -0.00050901 -0.00245256
N 7.48635876 13.21870195 2.61971048 0.00770933 -0.00031768 -0.00388962
N 1.30738543 6.21222850 10.25389399 0.00226067 0.00531278 -0.00177468
N 3.25199838 25.46817131 5.96838552 0.00062236 -0.00126939 -0.00649325
N 5.33933680 6.57680036 13.49702389 0.00047792 0.00093178 0.00411617
N 0.89427160 0.01146111 14.39055313 0.00163131 0.00030756 0.00094865
N 7.62341057 6.42227857 5.48017155 0.00289689 0.00042831 0.00592352
N 5.38470761 13.13783093 10.76371116 -0.00096174 0.00274462 -0.00310323
N 3.11965959 6.15079128 2.19789795 0.00162699 0.00267359 0.00325171
N 7.63615441 12.86952069 18.95597348 0.00253255 0.00677398 -0.00093627
N 0.77665943 6.29069231 26.72231723 0.00533188 -0.00344135 -0.00073447
N 3.51939298 25.66074430 22.50999219 0.00334740 0.00147581 0.00258108
N 5.03937435 6.51311072 30.23960649 -0.00259493 0.00391890 -0.00356273
N 0.81130512 0.19375989 30.28695573 -0.00392883 -0.00294440 0.00749962
N 7.63189083 6.67804564 21.79694895 0.00268618 -0.00107922 0.00041000
N 5.24411548 13.09913159 27.23309056 -0.00010458 -0.00336914 -0.00126909
N 3.22980921 5.84213220 18.43807676 0.00412354 -0.00573105 -0.00930357
N 7.54674415 25.47443531 2.49197656 0.00338770 -0.00286829 -0.00283234
N 1.31985338 19.16249332 10.69675925 -0.00077698 -0.00245616 -0.00290589
N 3.41366464 12.92708627 5.78942560 -0.00536107 -0.00213250 0.00425699
N 5.42316563 19.61845812 14.17894696 -0.00317306 -0.00258139 -0.00624842
N 1.05579964 12.74680570 14.00219687 0.00460201 0.00527923 -0.00231187
N 7.65205745 19.70608157 6.08227087 0.00261452 0.00037840 -0.00824061
N 5.19589341 25.55912675 10.48599859 -0.00328083 0.00673350 -0.00637581
N 3.40740862 19.07416351 2.45491037 -0.00833307 0.00334702 -0.00222599
N 7.89736953 0.40505514 18.60699608 0.00011736 -0.00270294 -0.00500726
N 0.86104442 19.36782856 27.26743821 -0.00521745 -0.00015391 0.00127239
N 3.50354761 12.45240273 22.20372888 0.00098223 0.00255565 -0.00183117
N 5.15706242 19.09378034 30.35209137 0.00555085 -0.00140050 -0.00064091
N 0.93585129 12.71805981 30.47889607 -0.00567037 0.00523045 0.00512261
N 7.44306420 19.52240261 22.38482817 0.00252695 0.00178722 -0.00360171
N 5.52275595 25.61273373 26.84416230 0.00158419 0.00654057 0.00170632
N 3.49213116 19.33453557 19.18335510 -0.00175743 -0.00071084 -0.00268670
N 16.07216927 13.12533342 2.51574984 -0.00281506 -0.00472480 0.00243030
N 9.67740640 6.37928769 10.09339085 -0.00145253 0.00379454 0.00114147
N 11.94264633 0.07507160 6.04183724 0.00053666 0.00029558 -0.00191333
N 13.75635856 6.34659828 13.70814466 0.00475792 -0.00438060 0.00045471
N 9.73055668 0.20839727 14.25725058 0.00597531 0.00002605 -0.00437067
N 16.13473564 6.72868642 5.68392400 0.00249268 -0.00276265 0.00021683
N 13.86679991 12.81031227 10.56553492 -0.00078468 -0.00167512 0.00005748
N 11.89869395 6.61447359 2.19639295 0.00189319 -0.00086915 -0.00191376
N 16.22765369 12.97350367 18.72995321 -0.00067425 0.00125870 0.00579326
N 9.20983502 6.07715948 26.69299025 0.00696747 -0.00317564 -0.00056447
N 11.38723105 0.01276130 22.27807176 -0.01002327 0.01317697 -0.00215220
N 13.83744879 6.64265619 30.19206308 -0.00477469 -0.00532517 0.00319783
N 9.35866266 25.54626919 30.78755631 0.00325440 -0.00960645 -0.00335562
N 15.88925038 6.14021152 22.09972430 0.00288920 -0.00304464 -0.00158679
N 13.70588013 13.00092923 27.20581429 -0.00483689 0.00164098 0.00100527
N 11.74073814 6.20313279 18.53123325 -0.00093538 0.00081838 -0.00576748
N 16.35802142 0.25411882 2.49234318 -0.00415519 0.00204106 0.00463059
N 9.46953462 19.28553903 10.79159351 -0.00450216 0.00524657 -0.00008805
N 11.74178655 13.19836593 5.53166098 -0.00167997 -0.00813225 -0.00106763
N 13.43303621 19.39997818 13.91354948 0.00112656 -0.00199334 0.00282357
N 9.45583627 12.66889836 13.90373313 0.00498265 0.00320688 0.00052066
N 16.24736955 19.66619810 5.54897355 -0.00183574 -0.00239551 0.00232507
N 14.01395467 0.03332619 10.43392181 0.00022077 0.00057218 0.00362437
N 11.46871773 19.58201722 2.32454613 -0.00171955 -0.00221998 -0.00230814
N 16.11690430 25.63379051 19.06887407 -0.00338751 -0.00029562 -0.00578118
N 9.19704759 19.45584834 26.95983661 -0.00202726 0.00261691 0.00364329
N 11.72856053 12.91345051 22.17671264 -0.00490934 0.00445884 -0.00966107
N 13.54067446 19.75682549 30.19013657 0.00033891 -0.00341782 0.00614727
N 9.47446488 12.78409239 30.34670523 0.00647527 0.00174455 -0.00356553
N 16.11952546 19.14175472 22.15454641 -0.00436377 -0.00786633 -0.00308724
N 13.55283668 25.67124684 27.14459404 0.00628146 0.00965467 0.00017343
N 11.73297198 19.43252401 18.90586377 -0.00140090 0.00288274 0.00387253
N 24.58724751 12.96570013 2.15097038 0.00125224 -0.00293745 0.00221183
N 18.17881164 6.29080918 10.59436525 -0.00017025 -0.00486625 -0.00263634
N 20.34099246 0.31600648 6.18284966 0.00296969 -0.00419985 -0.00123174
N 22.22263465 6.60536232 13.61305508 -0.00741742 -0.00710176 0.00219222
N 17.89651370 25.23667129 14.22997350 -0.00320819 -0.00665269 0.00150868
N 24.64490709 6.27941881 5.33350001 -0.00199835 -0.00320956 0.00269116
N 22.51846664 13.04803725 10.53987065 -0.00266352 -0.00054856 -0.00236466
N 20.42196815 6.48008166 2.12775975 -0.00319885 -0.00215242 0.00784180
N 24.59590814 12.58663499 18.65084462 0.00046581 -0.00214222 -0.00476572
N 17.64793462 5.98572445 26.76708559 -0.00658516 -0.00374339 0.00145148
N 20.08627849 25.50139687 22.56572477 0.00062588 -0.00039543 0.00773173
N 21.93769779 6.60768061 30.20570473 -0.00116481 0.00451936 0.00313185
N 17.84223706 0.15262873 30.89948692 0.00286287 -0.00430509 0.00023700
N 24.56123749 6.44548690 21.93497217 -0.00120267 -0.00253711 0.00256713
N 22.45908787 13.15310194 26.87895499 -0.00154386 -0.00264731 -0.00115918
N 20.20321802 6.04627794 18.73774443 -0.00014903 -0.00072813 0.00729846
N 24.40461141 25.65944179 2.36844347 -0.00234771 -0.00544713 -0.00103269
N 17.75555854 19.19106244 10.41690492 0.00000147 0.00469992 -0.00054653
N 20.46753384 13.05398326 5.44321626 -0.00329115 0.00123023 0.00388419
N 22.28722166 19.34509461 14.32932201 -0.00045321 0.00194208 -0.00044369
N 18.25963991 12.90696187 13.96007974 0.01441230 0.00166236 -0.00247897
N 24.61169755 19.33898458 6.33400008 -0.00569213 -0.00108896 0.00008120
N 22.33138792 0.09492832 10.52567267 0.00922671 -0.00817224 0.00040344
N 20.20202092 19.37048952 2.16493787 -0.00163127 -0.00390684 -0.00124294
N 24.78134513 0.07718028 19.10034513 0.00228764 0.00636848 0.00323140
N 18.08469455 19.40593374 26.72423805 -0.00121039 -0.00063210 0.00362155
N 20.40315778 12.75007715 21.68448643 0.01063551 0.00001653 0.00032291
N 22.11208766 19.50238208 30.65061441 0.00201022 0.00040224 0.00046730
N 17.59981938 13.03564425 29.84337115 -0.00021565 0.00340663 -0.00203675
N 24.73390489 19.40519084 22.63415130 0.00334150 -0.00400387 0.00400996
N 21.97723082 25.53818700 27.36432756 -0.00336211 -0.00172740 -0.00192782
N 20.46836796 19.07982741 18.71703587 0.00184528 0.00383528 -0.00247411
C 7.42425052 0.36852172 4.80372157 0.00874867 -0.00829058 -0.00284580
C 0.98555688 5.75453027 12.50997401 0.00248754 -0.00271981 -0.00889377
C 3.46552317 12.53445130 3.46801022 0.00147744 0.00632522 -0.00062467
C 5.34754718 6.92456717 11.15541192 -0.00209612 -0.00187932 -0.00010719
C 1.22354984 12.45928323 11.66099544 0.00083670 -0.00136598 -0.00278529
C 7.52229811 6.81216295 3.11544029 0.00384026 -0.00561807 -0.00480050
C 5.33734306 0.07600395 12.83536722 -0.00124915 0.00163841 -0.00712546
C 3.27226108 5.74489545 4.52542203 0.00095692 0.00215836 -0.00238272
C 7.12485067 1.21138944 5.87336614 -0.00533536 -0.00274110 0.00343446
C 1.42356112 5.14831159 13.63439725 -0.00236779 -0.00594986 0.00002633
C 3.01417268 11.91015271 2.27829040 0.00798858 0.00549792 0.00212354
C 5.59812013 7.72670879 10.07687367 0.00023324 -0.00416238 -0.00105202
C 1.51574950 11.80807579 10.49738079 -0.00663862 -0.00078017 -0.00547396
C 7.02347207 7.47251319 2.02391191 -0.00674010 0.00305787 -0.00033800
C 5.68127537 0.70990954 13.96564001 0.00780622 -0.00300095 -0.00419738
C 3.11085340 4.91991477 5.54552365 0.00030797 -0.00146139 0.00252216
C 6.20369043 2.22422416 5.64303461 -0.00457680 -0.00046373 0.00815608
C 2.26343812 4.06832665 13.63710429 0.00122552 0.00543240 0.00649980
C 2.25167599 10.76380317 2.43781297 0.00361543 -0.00082957 -0.00316068
C 6.57611048 8.72248225 10.19077747 0.00081907 -0.00822761 -0.00434635
C 2.17050187 10.54051168 10.57492777 -0.00596547 -0.00472825 0.00531088
C 6.32655437 8.69971133 2.16582384 -0.00453416 0.00056917 0.00290580
C 6.44083591 1.90653694 13.93164951 -0.00354189 -0.00297542 -0.00114510
C 2.20288100 3.81261396 5.48817119 0.00757130 -0.00466575 0.00138024
C 6.00373638 2.62309537 4.28172881 0.00058042 0.00317694 0.00413953
C 2.67025956 3.54935638 12.42322485 0.00181591 -0.00427409 0.00194216
C 1.96997252 10.26381180 3.73192171 0.00162003 0.00192486 -0.00191809
C 6.93439296 9.18682809 11.48973329 -0.00564979 0.00204266 0.01184498
C 2.34489636 9.90879402 11.88138681 0.00423798 -0.00091724 0.00235734
C 6.18758645 9.22487236 3.45694265 -0.00905206 0.00469031 -0.00471044
C 6.65866295 2.45389552 12.65065128 -0.00287190 0.00021797 -0.00187737
C 1.83157998 3.35778443 4.21523715 0.00723917 -0.00475904 -0.00213614
C 6.50464593 1.86454366 3.24924174 0.00336064 0.00386448 -0.00046226
C 2.34450728 4.19780219 11.25665915 -0.00169475 0.00259900 0.00347543
C 2.43363031 10.86983531 4.88321737 0.00639222 0.00658755 -0.00811936
C 6.43289429 8.57581084 12.60777193 0.00230263 0.00353540 -0.00404865
C 1.84472131 10.52826380 13.00594839 0.00152758 0.00421856 -0.00068510
C 6.51230620 8.49787418 4.58553995 -0.00249140 -0.00996226 0.00075730
C 6.33285532 1.76896765 11.50556118 0.00052066 -0.00192674 -0.00352483
C 2.11915449 4.08978864 3.10503727 -0.00010136 0.00793974 0.00239712
C 7.20749730 0.71740730 3.45301961 -0.00229763 0.00576406 -0.00834488
C 1.52594105 5.38600787 11.30816033 -0.00604825 0.00645123 0.00605473
C 3.12774464 12.09085379 4.76839984 -0.00299265 -0.00636244 -0.00717133
C 5.63655154 7.38815980 12.44461407 0.00394626 -0.00049404 -0.00588110
C 1.41378768 11.89210489 12.91425377 0.00104816 0.00362072 0.00481024
C 7.25935991 7.23252064 4.46839877 0.00365799 0.00104878 0.00085801
C 5.64051583 0.53829310 11.59761703 0.00677603 -0.00247969 0.00297175
C 2.87134629 5.33298259 3.21726900 0.01033641 0.00147992 0.00101706
C 7.05277727 25.59221737 1.23397194 0.00525705 -0.00603683 0.00009800
C 1.64513970 6.06472879 8.93296279 0.00088955 -0.00084878 -0.00619910
C 3.10370688 12.73334533 7.11447710 0.00024523 -0.00059989 0.00085568
C 5.86474504 6.62383415 14.76555610 -0.00649545 0.00048814 0.00207267
C 1.57961701 12.64104098 15.23425513 -0.00285211 -0.00129034 0.00424942
C 7.23302303 6.63536314 6.80573389 0.00234078 0.00146678 -0.00704634
C 5.45376209 0.18741875 9.19610384 0.00026564 -0.00207160 -0.00796564
C 2.49701744 6.06167549 0.95072154 0.00266037 0.00095588 -0.00309433
C 6.94125913 11.84921730 16.92322426 -0.00983530 0.00425559 -0.00284271
C 1.59760870 7.30455713 8.18649794 -0.00253284 0.00576990 -0.00054558
C 2.82617826 0.54514448 8.27561419 -0.00630643 -0.00502633 -0.00161593
C 5.41471207 5.36323440 32.27443517 -0.00318414 -0.00283944 0.01416114
C 0.96024073 1.02121124 32.61214263 -0.00221155 0.00151755 0.00528936
C 7.40886091 5.41124509 7.66071025 0.00014058 -0.00182523 0.00548517
C 5.84503762 12.01113151 8.69450952 0.00507102 -0.00038565 -0.01018242
C 2.48763305 7.07200597 16.44670080 -0.00821680 -0.00071197 0.00186356
C 7.70144498 0.36850120 20.97774322 -0.00688029 0.01046706 -0.00285185
C 0.74194618 5.74314251 29.09227331 -0.00246705 0.00184118 0.00749416
C 3.19097059 12.41888494 19.83294413 0.00056846 0.00583397 0.00526736
C 5.26463914 6.62671640 27.86054942 -0.00541392 0.00504790 0.00174311
C 0.79736963 12.45007396 28.07991266 0.00502719 0.00398160 0.00552509
C 7.43308096 6.87760118 19.47231739 0.00155206 0.00389946 -0.00134894
C 4.98825962 0.40355224 29.15476092 -0.00275625 -0.00176854 -0.00165769
C 3.28153294 5.77475233 20.89905779 0.00206738 0.00160867 0.00545242
C 7.28827235 0.93102251 22.16051660 -0.00558045 0.00271596 0.00043332
C 1.19726986 4.95433220 30.15823410 0.00049234 -0.00147663 -0.00360148
C 2.86697956 11.77079467 18.65571460 0.00209494 0.00109358 0.00215499
C 5.46828463 7.30165437 26.67781796 0.00002557 0.00090809 0.00210336
C 1.26984199 11.87833915 26.89586748 -0.00109609 -0.00246535 0.00289173
C 6.93040561 7.49965203 18.31952181 -0.00990856 0.00418244 -0.00204181
C 5.33840483 1.06507593 30.28258155 -0.00264079 0.00177831 -0.00049385
C 2.89899616 5.16658554 22.05265195 0.00397075 -0.00265266 0.00392497
C 6.58275818 2.11993090 22.17634838 -0.00572631 0.00092622 -0.00137874
C 2.11825800 3.95031284 30.01536654 -0.00218295 -0.00136161 0.00309390
C 2.06983828 10.63157643 18.77604581 0.00835157 0.00303463 0.00124345
C 6.19656223 8.52012473 26.73700203 -0.00365118 -0.00134648 0.00277266
C 2.07360810 10.66155337 26.90345681 0.00384189 -0.00134679 0.00100087
C 6.11300720 8.62097261 18.42930425 -0.00200802 -0.00036541 0.00315250
C 6.23919071 2.12776816 30.23740418 -0.00074971 -0.00016297 0.00152388
C 2.03928159 4.06732603 22.04035896 -0.00324830 0.00146658 0.00440318
C 6.32604577 2.79210035 20.95651332 -0.00189874 -0.00210681 -0.00269754
C 2.43715721 3.56829932 28.71192735 0.00000756 -0.00183726 0.00550980
C 1.71681365 10.13294402 20.05912938 0.00342931 -0.00123276 0.00443591
C 6.53913344 9.07128576 27.98506443 -0.00783804 -0.00927748 0.01079094
C 2.24623956 10.02127911 28.13183159 -0.00294042 0.00559698 0.00060578
C 6.03566370 9.29297903 19.65026746 0.00334674 0.00764744 0.00929185
C 6.63625711 2.63175579 29.03519237 -0.00312112 0.00054156 -0.00055727
C 1.86806180 3.37221379 20.72675238 -0.00280305 0.00657623 0.00244564
C 6.76287198 2.25795564 19.76952038 0.01019961 0.00697367 0.00151474
C 1.95144105 4.29544220 27.64634700 -0.00276700 -0.00172165 -0.00189844
C 2.17846558 10.69718168 21.21017065 0.00498921 0.00124624 0.00972153
C 6.03762284 8.51196785 29.07951869 0.00241132 -0.00142266 -0.00184442
C 1.80197258 10.65538248 29.29211401 0.00210089 -0.00261710 0.00839484
C 6.40885224 8.64668271 20.76054713 -0.00485750 0.00109137 0.00887817
C 6.35306306 1.89297591 27.87934557 0.00109279 -0.00257707 0.00136620
C 2.39247658 3.89440955 19.61672489 0.00484758 -0.00805157 -0.00385084
C 7.38505673 0.99377615 19.80199566 -0.00016470 -0.00489553 0.00806558
C 1.16065344 5.40601487 27.78616424 -0.00127360 -0.00600346 0.00015822
C 2.90268556 11.84881949 21.11953454 -0.00144744 0.00683093 0.00124385
C 5.46433550 7.23557940 29.10888744 -0.00479112 -0.00191992 -0.00456707
C 1.20214043 11.93044015 29.34577532 -0.00065563 0.00172946 -0.00034533
C 7.13142911 7.43329834 20.71085109 -0.00077102 0.00738697 -0.00019228
C 5.66078577 0.73516705 27.96120179 -0.00348829 0.00310313 -0.00614066
C 3.05243095 5.13071987 19.67263432 -0.01121777 -0.00007391 -0.00705692
C 7.09417401 0.39763328 17.46754224 -0.00312709 -0.00957063 0.00412293
C 1.38813834 6.26502787 25.46031606 0.00551995 -0.00397590 -0.00053871
C 2.74187741 12.49473642 23.33458319 -0.00478573 -0.00470853 0.00334623
C 5.54888117 6.61550325 31.53153595 0.00001338 0.00405034 -0.00292395
C 1.58034509 12.66527743 31.68453490 -0.00180363 0.00171676 -0.00486939
C 7.00517143 6.75266463 23.02117866 -0.00122875 -0.00253590 0.00410595
C 6.09321160 0.00438570 25.62451012 -0.00954888 -0.00902440 -0.00515051
C 2.57843748 5.72671086 17.23857057 -0.00134148 -0.00183489 -0.00420075
C 7.17427020 12.30861038 0.41259157 0.00561428 0.00260247 0.00002525
C 1.23281090 7.50915537 24.55090906 -0.00112260 0.00195313 -0.00089101
C 2.95184546 1.08631193 24.55767439 0.00358661 -0.00532865 0.00159263
C 5.96521984 5.31571213 15.43204107 0.00106062 -0.00593775 0.00060081
C 1.33550405 1.12969574 16.43290246 0.00742276 -0.00033759 0.00042196
C 7.02359121 5.45068568 23.84208912 0.00548607 -0.00288231 0.00352769
C 5.59694394 12.20732138 25.02864692 -0.00339291 0.00691969 0.00409889