2160
Time=71000.00000007 pbc="T T T" Lattice="20.57348873 0.00000000 0.00000000 0.00000000 29.05698592 0.00000000 -4.72847049 0.00000000 35.55113438" energy=-13796.06876737 virial="-12.68272995 4.34187421 36.23332438 4.34187421 -5.21372523 24.10607775 36.23332438 24.10607775 22.69513792" stress="0.00190755 0.00010267 0.00169020 0.00010267 0.00220803 0.00114565 0.00169020 0.00114565 0.00341948" Properties=species:S:1:pos:R:3:vel:R:3
O 0.94244116 8.45965466 2.59036665 -0.00190138 -0.00228534 -0.00825191
O 1.83475124 3.85977703 3.60224780 0.00411627 -0.00181133 -0.00073282
O 4.49163204 1.30305207 9.30180517 -0.00285244 -0.00724733 -0.00347733
O 3.17636909 5.88316949 8.48768159 -0.00263903 0.00478860 -0.00061286
O 1.31269457 4.70761416 9.88053118 -0.00226123 -0.00613627 0.00155026
O -0.10672959 9.88474166 8.42684102 0.00146902 0.00577794 0.00014942
O 4.07931014 4.62446685 2.31270483 -0.00089401 0.00284647 -0.00243670
O 5.47293625 28.74898162 3.17337202 -0.00103857 0.00253343 -0.00945252
O -1.01640802 8.51040006 14.34926884 0.00491831 -0.00182037 -0.00025924
O 0.51987161 3.93043660 15.35082628 -0.00476701 -0.00031957 0.00402295
O 2.97711677 1.17248662 21.18218094 0.00057353 -0.00447151 0.00003968
O 1.42865029 6.05123353 20.71883712 -0.00285335 0.00718463 -0.00553920
O -0.41267873 4.55967293 21.61816501 0.00994810 0.00009576 -0.00206829
O -1.81291664 9.74887253 19.99678890 0.00232022 0.00348139 -0.00276864
O 2.56548614 4.63397453 13.96174463 -0.00325122 -0.00036361 -0.00422363
O 3.87133155 28.52890110 15.22056484 0.00104038 -0.00063661 0.00329922
O -2.48626308 8.40323922 26.34288175 -0.00404657 0.00000688 0.00398634
O -1.55022440 3.64693381 27.49010343 -0.00076319 0.00738928 0.00204016
O 1.52747149 1.15253476 33.24027517 0.00312337 -0.00032316 -0.00054656
O 0.10069092 5.96640504 32.16921579 -0.00167879 0.00052090 -0.00948118
O -1.95662869 4.85512140 33.32352190 0.00357925 0.00801844 0.00055661
O -3.39700225 9.58023925 31.75082524 0.00345274 -0.00149691 -0.00214640
O 0.72506714 4.12913761 26.27933158 -0.00434205 0.00474971 0.00508652
O 2.41391042 28.89730434 27.47734021 -0.00777463 0.00636295 -0.00110698
O 0.84531076 18.23713536 2.46480745 -0.00176886 -0.00145752 0.00120124
O 1.55519952 13.29171878 3.44039681 0.00320314 0.00356338 -0.00000909
O 4.41160226 10.47926087 9.46326550 0.00015432 -0.00186032 0.00074115
O 3.32982262 15.47183842 8.38170074 0.00188387 0.00423016 -0.00244793
O 1.28621880 14.26860056 9.38830387 -0.00295020 0.00895102 -0.00033342
O -0.13605489 19.22185949 8.04935105 0.00426721 -0.00410573 -0.00720606
O 3.81243891 14.24438018 2.45980173 0.00493959 -0.00397586 0.00031683
O 5.77122789 9.76335348 3.84223053 -0.00159184 -0.00226638 0.00419508
O -0.68219252 18.29473469 14.07341433 -0.00311984 -0.00174128 -0.00374695
O 0.51585112 13.56903208 15.26326895 -0.00468333 -0.00358473 -0.00255128
O 3.06551804 10.42987332 21.18853133 -0.00421512 -0.00397520 -0.00384408
O 1.76835155 15.56721050 19.99240865 -0.00385107 -0.00131256 -0.00199144
O -0.56835455 14.72547768 21.24157225 0.00477252 -0.00107326 0.00056867
O -1.97292778 19.52841349 20.02075980 0.00628665 -0.00422825 0.00164972
O 2.73475085 14.35436054 14.46379369 -0.00128696 0.00382331 0.00203904
O 3.74634546 9.13540274 15.59654232 -0.00421478 0.00075586 0.00038946
O -2.44180789 18.06522480 26.26142828 0.00007922 -0.00941116 0.00372067
O -1.28136161 13.48332407 27.26712340 0.00067854 -0.00019925 0.00015193
O 1.37984423 10.64381582 33.06125082 -0.00560063 -0.00091730 -0.00366166
O 0.03594388 15.77470586 31.91698972 0.00315130 -0.00453233 -0.00196154
O -2.20240956 14.87736931 32.87252114 -0.00001276 0.00620503 -0.00701743
O -3.19859357 19.44870306 32.03585959 0.00090695 -0.00133676 -0.00043831
O 0.79470677 14.20553388 25.99727735 -0.00125514 0.00016508 0.00349580
O 2.17871861 9.70470767 27.11294174 0.00625571 -0.00748465 -0.00215878
O 0.58903972 27.85788288 2.40588682 0.00495098 -0.00113246 0.00331213
O 1.97542950 23.24158358 3.45944743 -0.00247680 -0.00565168 -0.00381887
O 4.58533855 20.28986394 9.52711863 -0.00980605 0.00218461 -0.00172338
O 3.47431539 25.13894067 7.94862453 0.00232072 -0.00170726 0.00103884
O 1.22694598 24.65404251 9.50056304 0.00043545 -0.00273767 -0.00105919
O -0.38761798 0.04477484 8.40762326 0.00112942 -0.00302648 0.00306834
O 4.30296081 23.60115611 2.45475069 0.00159987 -0.00273110 -0.00458224
O 5.48236376 19.34136690 3.72513237 0.00427820 -0.00379127 -0.00211470
O -0.91574122 27.94474789 14.33879872 0.00049489 0.00116125 -0.00715012
O 0.72603058 23.18980382 15.58981247 0.00848779 0.00077824 0.00134846
O 3.08612173 20.32689172 21.43105638 -0.00613804 -0.00172299 -0.00277535
O 1.62021884 25.57570736 20.40042214 -0.00133860 -0.00395702 -0.00055193
O -0.18510824 23.90060588 21.37797548 0.00155172 0.00472984 -0.00495623
O -1.90359117 0.39260789 20.24120249 0.00262265 0.00616192 0.00571042
O 2.58771876 24.24206802 14.05533420 0.00078065 0.00494885 -0.00251108
O 4.08120491 19.38474835 15.47059080 0.00174220 -0.00499575 -0.00319056
O -2.22998398 27.87881626 26.02067196 0.00258488 -0.00097887 -0.00063706
O -1.16085248 23.04516944 27.08609237 0.00451139 0.00332192 -0.00891163
O 1.66652450 20.34095320 32.95214299 -0.00302468 -0.00065057 -0.00088913
O 0.07766895 25.41339500 32.15710779 -0.00048827 0.00116670 -0.00434269
O -1.89130540 23.99809460 33.28924577 -0.00005051 -0.00312611 0.00253238
O -3.26073261 0.08508824 32.19870523 0.00081470 0.00081321 0.00122381
O 0.87717150 24.28135812 25.77869438 0.00319582 -0.00115135 -0.00592854
O 2.27017143 19.05064239 27.15580156 0.00352857 -0.00170696 -0.00864714
O 7.67097995 8.53606272 2.61844210 0.00120389 -0.00403982 0.00065782
O 8.66102004 4.27254842 3.50370084 -0.00276897 -0.00320797 -0.00562789
O 11.18990458 0.62807217 9.65792477 0.00303559 -0.00000317 0.00104943
O 10.24430049 6.07093524 8.23288357 -0.00370216 0.00472649 0.00513385
O 8.31775408 5.00918132 9.39588953 0.00610162 0.00350056 -0.00802922
O 6.54496358 9.99311530 8.03706371 -0.00055738 0.00020937 0.00343993
O 10.95556046 4.99206909 2.15697775 0.00352490 0.00675156 -0.00636400
O 12.50592631 28.84300332 3.73102308 0.00338338 -0.00095952 -0.00517514
O 6.05367651 8.28653029 14.49073854 0.00192395 -0.00387751 0.00045479
O 6.90747810 4.03001823 15.53148116 -0.00255404 -0.00131099 -0.00128545
O 9.52411930 1.00360021 21.26794686 -0.00213117 0.00341707 -0.00064913
O 8.63166990 6.00851553 20.42143901 -0.00051852 -0.00592551 0.00525400
O 6.54586182 5.00879822 21.51624361 -0.00105422 0.00284954 0.00185712
O 4.95486488 9.39836202 19.86003532 0.00299451 0.00341904 0.00673778
O 9.33571267 4.34818536 14.17756905 0.00354969 -0.00024721 -0.00292236
O 10.93273224 0.09350936 15.36396229 0.00635989 0.00470609 0.00026068
O 4.54363166 8.79180592 26.16824496 0.00799800 -0.00108190 -0.01194280
O 5.69661340 3.53642646 27.12750768 -0.00257634 0.00196994 0.00284308
O 8.34932459 0.92649441 33.19276123 0.00212373 -0.00168479 -0.00599485
O 7.03647366 5.62411003 32.14203332 0.00262126 0.00034853 -0.00715797
O 4.96702758 4.89455851 33.52961162 0.00132660 -0.00162221 -0.00051721
O 3.52514050 9.54687874 31.96725600 0.00499166 -0.00381809 0.00259281
O 7.72189726 4.79936622 26.14348591 -0.00374499 -0.00158692 -0.00209745
O 9.28045669 0.10864424 27.22675208 0.00663496 0.00446059 0.00154433
O 7.53784210 18.08892353 2.48551700 0.00668132 -0.00094620 0.00468561
O 8.61887396 13.83640043 3.38914500 -0.00232882 -0.00398218 0.00273913
O 11.24630068 11.07901564 9.36355956 -0.00422744 0.00452166 -0.00384171
O 10.46590835 15.86187055 8.41809090 -0.00349967 0.00053565 -0.00530207
O 8.32503482 14.84987309 9.40509042 0.00407404 -0.00143564 0.00203228
O 6.50818373 19.52141191 7.96128298 0.00053571 0.00055066 0.00010483
O 10.77523405 14.30016344 2.26486295 0.00327733 0.00282844 0.00176857
O 12.37093444 9.53829716 3.43165975 -0.00109680 0.00038835 0.00007935
O 5.97919278 18.12846943 14.40039003 0.00540224 0.00515122 0.00343473
O 7.12512301 13.41302633 15.48328912 -0.00093106 0.00010518 0.00379981
O 9.82246818 10.92354022 21.31488023 -0.00027134 -0.00442793 -0.00111977
O 8.53816260 16.02206014 20.15541601 0.00613932 0.00931741 -0.00088653
O 6.64095442 14.92267960 21.17919699 0.00225900 0.00555972 0.00200395
O 5.24093073 19.72470967 19.90267752 0.00438655 0.00256693 0.00441808
O 9.12300168 14.64809376 14.23339902 0.00289512 0.00049859 0.00383732
O 10.78443220 9.68755031 15.42219753 -0.00139061 0.00964482 0.00171380
O 4.27940927 17.82704167 26.23035377 -0.00299507 0.00008178 -0.00110206
O 5.78006363 13.17932862 27.12707611 -0.00122357 -0.00359589 -0.00579578
O 8.22078970 10.44126929 33.49595494 -0.00230072 0.00067773 0.00179073
O 7.12312610 15.22034403 31.75058229 0.00785010 0.00070630 -0.00003668
O 4.89996965 14.73508390 32.87224239 -0.00097637 -0.00263371 0.00120339
O 3.62029710 19.05758936 31.77357520 0.00572065 0.00427601 -0.00492155
O 7.77536153 14.39176338 26.05700876 -0.00662840 -0.00342047 -0.00827202
O 9.25819126 9.65471039 27.55836606 -0.00377305 -0.00332205 -0.00128744
O 7.73422510 27.96000638 2.21857231 0.00727071 0.00009232 -0.00969954
O 8.91570242 22.67114962 3.04930027 -0.00253150 0.00277731 0.00191616
O 11.34561521 20.49869457 9.46251833 0.00001047 -0.01003732 -0.00243062
O 10.04383480 25.18532711 8.37751866 -0.00333612 0.00171121 0.00093726
O 7.92280518 24.16631191 9.57506958 0.00921401 -0.00742954 0.00053679
O 6.28396168 0.18020392 7.93899985 0.00398408 0.00000802 -0.00053854
O 10.77403281 24.33067350 2.24326045 -0.00831447 -0.00171812 0.00775719
O 12.38857422 19.52104053 3.83467105 -0.00797057 0.00056377 -0.00204645
O 6.22170124 28.15449198 14.15570164 -0.00321893 0.00461652 0.00631497
O 7.36902525 22.90458125 15.02737799 0.00438051 0.00083953 0.00205054
O 9.96098895 20.37071027 21.56177016 -0.00104540 0.00202455 -0.00593356
O 8.57395630 25.28764003 19.78569618 -0.00021684 0.00156071 -0.00270035
O 6.70719376 24.39178434 21.51170045 -0.00002294 0.00417603 -0.00073980
O 4.94592853 29.03604482 20.09127500 -0.00158281 -0.00433616 0.00726450
O 9.34543543 24.25509552 13.86912611 0.00372846 -0.00019996 0.00652234
O 10.83809327 19.38229953 15.25557472 -0.00239051 -0.00063137 0.00284918
O 4.43583212 27.96800670 26.23242340 -0.00342145 0.00052477 0.00404344
O 5.59566027 23.01378488 27.26975205 0.00081061 -0.00245099 -0.00348147
O 8.42638480 20.68551906 32.97227738 -0.00003126 -0.00010994 0.00052745
O 7.21045028 25.14937999 31.79975563 -0.00324117 -0.00028328 -0.00039939
O 5.01203064 24.42992960 32.92783925 0.00134491 0.00239418 0.00309190
O 3.47401186 0.12238918 31.92854637 -0.00298065 -0.00734945 0.00442858
O 7.62769132 24.10657186 25.98168901 -0.00213678 0.00350611 0.00130182
O 9.29263964 19.35891483 27.54530184 -0.00283782 -0.00460759 0.00528353
O 14.46335791 8.45842231 2.55402686 -0.00334540 -0.00053571 -0.00080171
O 15.56532935 3.93191622 4.00508853 0.00165553 0.00151688 0.00203774
O 18.31654219 0.76923812 9.88414930 -0.00203887 0.00125298 -0.00008693
O 16.86198661 5.97652682 8.63087139 -0.00631522 0.00164360 -0.00581594
O 14.98576164 4.70673216 9.67427278 0.00011724 0.00314834 -0.00260814
O 13.33080625 9.76470214 8.27768099 0.00713899 -0.00128967 -0.00098470
O 17.66623807 4.40693677 2.48913475 0.00429937 0.00140232 0.00419778
O 19.22366567 28.96432832 3.44042633 0.00262461 -0.00170335 0.00170281
O 12.86390324 8.90786712 13.83433012 -0.00341485 0.00414574 0.00064429
O 14.03796630 3.94466500 15.49391104 0.00161701 -0.00219634 -0.00122147
O 16.54207835 1.06607789 21.59658287 0.00632079 -0.00270721 0.00092001
O 15.51472449 6.18569097 20.21962471 -0.00263778 -0.00001833 -0.00103656
O 13.22161243 5.49005606 21.29797842 -0.00270415 -0.00692469 -0.00519929
O 12.19613508 10.06691588 20.29300926 -0.00303317 -0.00048364 0.00461115
O 15.93479565 5.03513945 14.09815372 0.00282192 0.00648127 -0.00353529
O 17.65956903 0.09193593 15.57229591 -0.00290776 0.00059443 0.00236290
O 11.11744779 8.63582788 26.19886904 -0.00479917 -0.00065610 0.00013478
O 12.49531848 3.96100627 27.60048768 -0.00146596 0.00274685 -0.00071685
O 15.06206830 1.17546812 33.07550618 0.00318964 -0.00249672 -0.00072616
O 14.00076344 5.93789880 31.93309240 -0.00706379 0.00997676 0.00074878
O 11.92088376 4.97394073 33.20448865 -0.00598765 -0.00316211 0.00032520
O 10.23618838 9.72727857 31.90628682 -0.00360930 -0.00045276 -0.00093433
O 14.35691017 4.78898291 26.15592570 -0.00258232 -0.00447778 -0.00380133
O 16.19820739 28.71120450 27.32756222 -0.00108987 -0.00476049 -0.00556132
O 14.15395265 17.87938901 2.77404530 -0.00063469 -0.00217148 0.00718263
O 15.34240342 13.58187235 3.66648254 0.00298352 -0.00267855 0.00408581
O 18.15816153 10.58404308 9.45829237 -0.00393158 0.00004344 0.00125718
O 17.09826858 15.30740561 8.34963749 -0.00620604 -0.00021370 0.00043427
O 15.03010782 14.62006587 9.64584652 0.00024126 -0.00484092 0.00815291
O 13.38018730 19.47277459 8.19835430 0.00019315 0.00304640 -0.00055567
O 17.70532244 14.08661225 2.73120841 0.00056082 0.00845770 -0.00528222
O 19.14894603 9.29567877 3.62159134 0.00766139 -0.00123585 0.00018239
O 13.10755638 18.57354760 14.27050273 -0.00043252 -0.00176798 -0.00062131
O 13.99105196 13.44903883 15.26584662 0.00072710 -0.00640567 0.00634782
O 16.79553464 10.90379525 21.34763718 -0.00121898 -0.00291005 0.00120504
O 15.46239823 15.71456093 20.19301510 0.00198129 -0.00325263 0.00245391
O 13.14193317 15.14621897 21.20367359 0.00661958 -0.00316372 0.00513732
O 12.02384660 19.76170292 19.95311650 -0.00370991 -0.00059827 -0.00817281
O 16.30259908 14.99103606 13.57124328 0.00385007 -0.00322877 -0.00553374
O 17.65432338 9.76598078 15.43605045 0.00478973 -0.00440244 0.00167251
O 11.21679485 18.61993303 26.01597485 -0.00241763 0.00190188 0.00267549
O 12.58676934 13.44596305 27.20155546 -0.00030364 -0.00005105 -0.00323848
O 15.10450857 10.62123961 33.03433767 0.00294389 0.00157790 -0.00419873
O 13.76396868 15.62002754 32.06646631 -0.00349395 -0.00275345 0.00096354
O 11.95698478 14.39626716 33.57560929 -0.00534311 0.00406350 0.00208487
O 10.14509085 19.18047854 31.69154122 0.00722720 -0.00443274 0.00090212
O 14.69448544 14.72501214 25.98283950 0.00167383 -0.00202733 0.00417108
O 15.81106484 9.66449745 27.06468329 -0.00407244 -0.01005272 -0.00043594
O 14.64356767 27.81552331 2.36313604 0.00214044 -0.00327640 0.00516487
O 15.48869730 23.22944688 3.46692310 -0.00209135 0.00348433 0.00365289
O 18.30631968 20.56831974 9.55513219 0.00152352 0.00270288 -0.00735705
O 17.09520387 25.18938792 8.21462932 0.00057359 -0.00198024 0.00157177
O 15.15383190 24.01463339 9.79607223 0.00272352 -0.00294603 0.00111001
O 13.41217167 28.96577430 8.40741355 0.00034297 0.00232919 0.00278344
O 17.85607966 23.81542271 2.52442795 -0.00349098 -0.00065634 -0.00025218
O 19.27489391 19.42931220 3.80702588 -0.00059148 -0.00238972 -0.00299120
O 12.98210393 28.20768033 14.06378569 -0.00093818 0.00603851 -0.00273478
O 13.78864818 23.59575137 15.38189450 0.00214607 -0.00125980 -0.00329258
O 16.66572484 20.96030194 20.96628802 0.00453432 -0.00145860 -0.00401661
O 15.49856976 25.32093384 19.99212187 -0.00118487 -0.00075330 -0.00379708
O 13.53126902 24.44498005 21.58001344 -0.00420382 0.00070675 0.00009518
O 11.74837367 0.15821562 19.97204271 -0.00132111 0.00741074 -0.00201750
O 15.94937641 24.33094946 14.04727705 0.00211971 -0.00007992 -0.00073404
O 17.99943925 19.41786754 15.56856515 0.00172828 0.00048459 0.00119648
O 11.28426034 28.11582029 25.99494565 -0.00558625 0.00258090 0.00588303
O 12.39493868 22.95786993 27.28309650 -0.00182673 -0.00414514 -0.00205884
O 15.11240720 20.34995757 33.16014576 0.00261475 0.00818645 -0.00143866
O 14.01972739 25.25274771 32.06901115 0.00324178 0.00386251 0.00155168
O 11.99623876 24.17836453 33.17983705 0.00618209 0.00130154 -0.00082599
O 10.31062969 28.98903302 31.82461256 0.00342066 0.00006313 -0.01079477
O 14.66304889 23.80491297 26.30539360 0.00127847 -0.00406872 0.00095396
O 16.15414685 19.06218357 27.45004911 0.00695710 -0.00463359 -0.00193936
H 0.08538432 8.89528055 2.84190269 -0.02410000 0.01841323 0.02776344
H 2.74616480 4.05388922 3.30023193 -0.02186863 -0.00745099 -0.00652222
H 5.33233606 0.87587766 8.98781194 -0.01869975 0.02319466 -0.00105751
H 2.33923775 5.44910014 8.85614281 0.00714969 -0.01994540 0.00719644
H 5.64217617 8.40970710 0.78105424 0.01214750 0.01497238 -0.01327663
H 3.78749392 3.18559394 5.16752701 -0.03390205 -0.00969676 0.01991093
H -0.48008381 1.05391308 11.49359432 0.02701578 -0.00836105 0.00556039
H 1.38943920 6.33448321 6.61535152 0.01145338 0.02211291 -0.00387167
H 4.09456327 6.47628923 10.87965885 -0.00221364 -0.02901534 0.02418233
H 3.59759376 1.48798024 7.11145265 0.00786180 -0.00116067 0.02733713
H 1.01712610 3.13155597 1.27052525 -0.00316264 0.02946488 0.00012919
H 1.52481319 7.95442871 4.82108707 -0.00656248 0.00874792 0.00613612
H -1.97029827 5.56680310 35.20490128 -0.01020746 -0.00211921 0.02811348
H -0.26173513 0.54333100 6.02640558 0.00245733 -0.00338232 -0.00544040
H 2.61470088 4.16079976 12.11864048 -0.02710571 -0.01312548 -0.00345042
H 5.54194351 8.79722957 5.94107787 0.01846833 -0.02537921 0.02839832
H 2.82519875 6.99909861 1.68733739 0.01790019 0.00171534 0.00621536
H -0.19938142 2.35239674 4.03644000 -0.00059529 -0.01118853 0.00480948
H 2.52738713 2.54371984 10.20977921 0.01126654 0.00167544 -0.00772171
H 5.23383362 7.46505527 7.99950842 0.02961826 -0.00181381 0.00122504
H 5.20698074 4.90189275 9.58731594 -0.00791543 -0.01473427 -0.00982412
H 2.78421066 28.82774959 7.92925067 -0.00578069 -0.02883243 0.01232700
H 0.05858316 5.08257612 2.04372180 0.00629546 0.01055066 -0.01474030
H 2.65720838 9.64795400 3.74677575 0.01132930 -0.00866015 0.00352324
H 7.68180490 3.90413015 7.27414255 0.04663323 -0.00902724 -0.01400632
H 0.91224743 7.53544619 9.52853719 0.00731601 -0.00836888 -0.00675475
H 18.16318338 5.92287089 4.31299958 -0.00242244 0.00307105 -0.00478740
H 5.05377678 1.82903031 1.95642875 -0.01258129 -0.00583466 -0.00027451
H 19.40546773 3.25304374 8.66473707 0.01598039 0.00112222 -0.01127351
H 1.10621424 8.92493146 10.60407823 -0.00269418 -0.01584269 0.00594205
H 4.66423923 6.90898129 3.30569413 0.00168279 -0.02414652 -0.00525535
H 4.02683110 0.60979168 1.15857869 -0.01977906 0.02160168 -0.00058693
H 0.37012117 2.62899600 8.53410494 -0.02984559 -0.01827636 0.02530291
H 2.52900571 8.36475781 9.56150069 -0.00721283 0.00566310 0.00734392
H 5.10101433 5.73399472 4.49251999 -0.00125525 0.01205064 -0.00409089
H 3.25591321 1.84831708 2.26429163 0.01918365 -0.00055215 0.00099419
H -1.76977930 9.15183115 14.52080729 0.00612071 0.01774998 0.00533215
H 1.46165560 4.13337736 15.23832208 0.00707234 0.01791683 -0.00474714
H 3.75189847 0.59388789 21.02839991 0.01609304 -0.01604330 -0.00290890
H 0.67865947 5.43036905 20.72441201 -0.02830438 0.01172225 -0.02938086
H 4.03689319 7.91150077 12.79309669 0.02540885 -0.02262166 -0.00228627
H 2.36328605 3.38433060 17.08360735 -0.00222730 -0.03218325 -0.02754152
H -2.05287265 1.49803920 23.31764404 0.02481359 0.01544108 0.01522187
H -0.43292064 6.08937464 18.54878641 0.01737170 -0.02079073 -0.01208951
H 2.49996620 6.64090027 22.70495208 0.00780732 0.01975569 0.01051257
H 2.29728444 1.45053373 18.78098303 -0.00578497 0.00047264 0.00074106
H -0.30193329 2.97769719 13.22712573 -0.02141341 0.00910011 -0.01703601
H -0.21372680 7.70405751 16.71531028 -0.00225912 -0.00358340 -0.01766598
H 1.16179591 5.46006485 11.91561680 0.01782382 -0.00999481 0.00242450
H -1.76733330 0.80462650 17.76905939 0.01714671 -0.00827225 -0.02116719
H 0.85375767 4.09062078 23.80908483 0.02269328 -0.00003243 -0.00848666
H 3.58801516 9.08250401 17.95409834 -0.00849283 -0.01391739 0.01992086
H 0.91503321 7.10523543 13.76018980 0.01199622 0.00523637 -0.00251567
H -1.63304099 2.42320915 16.03276691 -0.02795797 -0.01639536 0.00661289
H 0.87834147 2.47352498 21.89300233 0.02291204 0.00766819 0.01660694
H 3.48978107 7.59472964 19.99045259 0.01363463 -0.00981385 -0.02189626
H 3.42596119 4.79089048 21.83138570 0.00927365 0.00874081 -0.01348895
H 1.27691433 29.04429581 19.91842457 -0.03812400 0.00258353 0.00031700
H -1.38602296 4.65225424 14.27088912 0.02149028 -0.00289327 0.00140413
H 0.70726727 9.79450227 15.94204544 0.01166692 -0.00807281 0.01091942
H 3.97036062 3.62918315 19.74211325 0.00908027 -0.00363211 0.01192565
H 0.86393514 8.60737432 21.44553156 -0.01257834 -0.02267473 0.01687564
H 18.44781359 6.67547676 15.29305760 0.00990569 0.01659340 -0.00726473
H 3.17034925 1.08103002 13.21437187 -0.00010470 -0.01771155 -0.00894662
H -1.22621844 2.71454734 20.04748873 0.01307057 -0.00020325 0.00523303
H -0.43708122 7.49974272 20.92961952 -0.00157852 -0.02930537 -0.00749961
H 4.49227986 5.54409770 16.50869554 -0.01037118 -0.01966703 -0.01902544
H 1.53345820 0.56246373 13.41256209 0.00755701 0.01936372 -0.01424698
H -1.68771504 4.16173723 19.18750767 0.00952734 -0.00928327 0.00896984
H -0.84743546 8.64097111 22.15514768 -0.01115284 -0.01251462 0.01257021
H 4.52040678 6.76437420 15.31734668 -0.00796194 -0.00950222 -0.00570096
H 2.02767499 1.93029419 14.35372176 -0.00127420 0.00385832 0.01269133
H -3.35595245 8.89076548 26.54585436 0.01352910 0.00050015 0.00916131
H -0.67519787 3.79488162 27.08927775 -0.02855504 0.00594699 -0.01504772
H 2.39328977 0.84411941 32.82975240 0.01334050 -0.01786640 -0.01614683
H -0.75231424 5.49920761 32.18503934 -0.00853467 -0.00863035 -0.00408354
H 2.43082905 8.17759898 24.51721672 0.01461233 -0.00364567 0.01184577
H 0.31944796 3.60558070 29.05603935 -0.01363693 -0.00604135 -0.00012241
H -3.52520845 1.55125945 34.77560699 0.03273093 -0.00388468 -0.02975747
H -1.82211542 6.32925926 30.47827510 -0.01523340 0.00225118 -0.01831793
H 0.87507642 6.71063066 34.53316026 -0.00728354 -0.02507064 -0.00625800
H 0.66278293 1.88060148 31.00837466 0.00332165 -0.00570711 0.00199723
H -2.04593189 2.99438667 25.09289092 -0.00248680 0.00025239 -0.01766339
H -1.74577303 7.64115337 28.47470800 -0.01943790 0.00427092 0.01176373
H -0.65673367 5.08159257 23.85136029 0.02570048 -0.01029418 -0.00137220
H -3.09473668 0.20139542 29.96199523 -0.01098328 0.02744779 -0.00524709
H 4.30989000 4.46850803 0.08540429 0.00453358 0.01126336 -0.02389110
H 2.12403744 9.20064673 29.60095300 0.00959414 0.01761558 0.00595917
H -0.55707584 6.76536836 25.75323233 0.00231677 -0.01887985 -0.00369262
H -3.39939828 1.86563217 28.15499947 -0.00742585 0.01144457 0.00799459
H -0.42885219 2.60405368 33.92456822 -0.02004787 -0.01260714 0.01741611
H 2.21117823 7.40854823 31.24921230 0.01912414 0.01312734 -0.01218202
H 1.75554088 5.03545262 33.47792592 0.00490153 -0.04245651 -0.00802619
H -0.09871730 29.01303505 32.05640603 -0.00048776 -0.01895027 0.00902653
H -3.10210856 4.59716074 26.15140961 0.00023856 0.01459578 0.00153857
H -0.88344983 9.54063801 27.52365055 0.03286763 0.00833382 0.00709428
H 2.51789828 3.70128933 31.51731973 -0.00125474 -0.00164902 0.00954860
H -1.89993187 7.34480190 32.98048118 -0.00196596 0.01857286 -0.02207546
H 16.34377408 6.82652920 27.58343529 0.02530545 -0.00723534 -0.00849331
H 1.85668975 0.97156251 25.34422961 -0.00475956 -0.00555988 0.00093395
H -2.64584282 2.84499176 31.83128177 0.01035616 0.02136587 -0.02595271
H -2.56347422 8.62456150 33.96419886 -0.00999085 0.00425149 -0.01779594
H 2.98855365 6.12594519 27.58263975 -0.01012601 -0.02265143 0.01122922
H -0.01127629 1.00572921 25.71987737 0.00816626 0.03532966 0.01169068
H -3.11729619 4.17412090 30.87889845 0.02985476 -0.00559972 0.02235926
H -0.89594995 8.72853681 33.43790597 -0.00061668 0.00809424 -0.00213174
H 1.45227420 6.82559325 27.09693274 0.01246908 -0.02350664 -0.00528240
H 1.31559036 2.12586714 26.41132622 0.01610273 0.00625837 -0.02176359
H -0.08681394 18.46889778 2.70356989 -0.01484698 -0.03053479 0.02205028
H 2.43732925 13.58195905 3.13151028 0.01352474 0.00009977 -0.01346825
H 5.29848605 10.26577242 8.98711254 0.00519991 -0.02564649 -0.00689505
H 2.45849757 15.06034677 8.76944547 -0.01474873 -0.00200011 0.01550094
H 5.68736524 18.08043451 0.77460748 0.01957001 0.01906177 0.01174534
H 3.50152487 13.25823521 5.22977407 -0.00754572 0.01275018 -0.00729981
H -0.27376042 11.29823432 10.80095391 -0.00352947 0.00852617 0.01860692
H 1.36633819 15.88251823 6.79051937 -0.01616478 -0.01098379 0.01346513
H 4.17768126 16.43589096 10.77750870 -0.00533651 -0.00852535 0.00908505
H 3.82001406 11.44574394 6.97820982 0.00996593 0.01346457 -0.00529424
H 1.27016951 12.61536394 0.98844149 -0.01241599 -0.01219537 0.00185341
H 1.50166313 17.27705641 4.76770366 0.01221092 -0.01986883 0.02265893
H -2.10252148 15.13171567 35.16174186 0.00403375 0.03757131 -0.01035270
H -0.00200671 9.83489221 5.84335808 0.01249663 0.02743137 0.00600777
H 2.68749921 13.97081316 11.65739687 -0.01142814 -0.00139969 -0.01104764
H 5.37625472 18.61512138 5.80361739 -0.02467821 -0.01291964 0.00057645
H 2.82914445 16.76786681 1.56457028 0.01540004 -0.01493113 -0.00383024
H -0.23932259 11.61010499 4.17854588 -0.00020288 0.00917159 -0.00597763
H 2.52063822 12.25686240 10.04092175 -0.01707118 0.01290521 -0.00098753
H 5.40248897 16.95964009 7.72759704 -0.01542455 -0.02064889 0.01188701
H 5.15121290 14.58577842 9.76340947 0.01181566 -0.00797347 0.00487918
H 2.91481472 10.16550182 8.19595863 -0.00890495 0.00705899 0.01927116
H 0.17165104 14.54592722 1.87431803 -0.00103877 -0.01036025 -0.02481919
H 2.30316343 19.06919019 3.68722539 0.00073717 -0.00542021 -0.02797808
H 5.68659759 13.59742707 8.01008254 -0.01611434 0.00875552 -0.01115342
H 2.28941060 18.80834759 10.07768932 0.02269189 -0.00931646 -0.00763498
H 18.81511188 15.86365242 4.40439583 -0.02228668 -0.00777239 0.01088509
H 4.51184575 11.96915093 2.85435406 0.01857966 0.01483273 0.01988712
H 0.13762892 12.28203329 8.03191815 -0.01291849 0.00650807 -0.02913157
H 1.81708476 17.30766215 9.40190535 0.03119158 -0.00031262 -0.01069303
H 4.65131139 15.22296613 4.53508385 -0.01298382 0.00867930 0.00773529
H 4.93968235 10.84483825 1.65985882 0.00251431 0.02577896 -0.00949938
H 0.13790525 13.79659848 7.04459079 0.00577893 -0.00403901 -0.00998189
H 0.65829146 18.22445277 10.32666532 -0.01142653 0.01012812 -0.00526035
H 6.39860187 14.83975408 4.20658068 -0.02024763 0.00009109 -0.01519389
H 3.28141659 10.75799025 2.13449064 0.00181284 -0.00695247 0.00002714
H -1.49872347 18.65025413 14.45189318 0.00870364 0.00271035 -0.00213711
H 1.44474787 13.97229690 15.15281702 0.01425377 -0.00332736 0.00571313
H 3.92366580 10.11130495 20.79337589 -0.00693912 -0.00873003 -0.00949342
H 0.89022785 15.24015156 20.38900775 -0.00228531 -0.02246358 0.00206323
H 4.01863091 17.79184323 12.79780494 -0.00170965 0.00835929 0.00824091
H 2.35813697 13.40137862 17.07792890 0.02094079 0.02587102 -0.00663221
H -1.73834745 11.17234498 23.01795141 -0.01865119 0.01434648 -0.01210345
H -0.15792870 15.98591358 18.37327823 0.00415040 -0.01504876 0.00257714
H 2.44214158 16.26747159 22.42854911 -0.01053152 -0.00320082 0.00429145
H 2.33933820 11.70564526 18.88119728 -0.01731855 -0.04169552 0.02399567
H -0.14076388 12.93371277 12.67899414 0.01332356 -0.01434908 -0.00888645
H -0.06728620 17.69615009 16.50987905 -0.00051728 0.00378276 0.00162614
H 1.07755483 15.05685429 11.36107352 0.00317449 0.00680452 -0.03465357
H -1.77282950 10.72872120 18.10556198 -0.01031710 -0.01541603 0.00288486
H 1.11845691 13.85398609 23.64241111 -0.00927936 -0.00027233 -0.01844724
H 3.96820083 18.60847611 17.42861575 -0.00113775 0.00435037 -0.01028301
H 1.16919107 16.53497279 13.39857939 0.01616976 0.01050628 0.00045007
H -1.55610437 12.01696567 16.09371576 -0.02590942 0.00954695 0.00285375
H 1.02906731 12.04247207 21.84893280 -0.00485029 0.00694507 -0.01660890
H 3.87114865 17.04927503 19.45961065 0.00037071 -0.01641642 -0.00274032
H 3.57200645 14.32216301 21.27512117 -0.01301990 0.02753954 0.00428672
H 1.38235248 9.92857926 19.95177503 0.00962811 -0.01129836 0.01181304
H -1.32688674 14.14600619 14.24949245 -0.01521063 -0.01862815 -0.00676566
H 0.91582293 19.34706451 15.65983639 0.00193090 0.04246267 0.00333272
H 4.82941086 14.08347227 19.18224668 -0.00361301 -0.01508382 0.01656705
H -0.12207842 17.44592966 21.40679560 0.00620439 0.02024641 0.03801678
H 16.67057685 15.49551337 15.99211708 0.02264710 0.00253566 0.01278128
H 3.15064408 10.87208703 13.69616270 -0.00761928 0.00544013 0.01894708
H 17.54647432 13.00066153 19.85847669 0.00402462 0.00299341 0.00931820
H -1.69345264 17.92602349 22.03976788 0.01708306 -0.01733831 0.01763524
H 4.19220057 14.86371302 16.62516040 -0.01473754 -0.00815502 0.01183111
H 1.54068972 11.16300049 14.34995437 -0.01005013 0.00406957 0.01877385
H -1.21735440 12.55030293 20.26910769 -0.01212810 0.00318665 0.00852519
H -0.19293426 18.80513314 22.44432539 0.01051732 -0.00431317 -0.02877814
H 5.69153332 15.44882854 15.54625553 -0.01569269 0.00876045 -0.01907791
H 3.03350423 11.95163693 15.13513101 -0.01899384 0.00442639 0.00166382
H -3.25384040 18.44818836 26.58762628 0.01746059 0.01356291 -0.00173905
H -0.35167469 13.68452333 26.87475520 0.00543490 -0.01184252 0.02995353
H 2.14972010 10.03916883 33.02231756 0.00908205 -0.01053545 -0.01026866
H -0.92431750 15.51460572 32.05064049 0.01699383 -0.00839452 0.00261703
H 2.29248796 17.59234759 24.43075988 0.02585585 0.02046366 0.00027875
H 0.61873611 13.05207895 28.86465210 0.00082375 -0.00697217 -0.00370754
H -3.43999465 11.22544771 34.61031355 0.00599864 -0.00661196 0.02754851
H -2.04531720 16.33579251 30.34064585 0.00084554 0.00127197 -0.03230291
H 0.99624661 16.68751452 34.13474295 0.00395436 -0.02905023 -0.00689342
H 0.68622588 11.44440657 30.67490373 -0.00725112 -0.00014940 -0.02580109
H -1.77677545 12.56076651 24.97387448 0.03679873 -0.02336259 0.00909708
H -1.76883921 17.62566470 28.23420041 0.00303059 0.00667124 -0.00755424
H -0.62662238 14.92420024 23.50977678 0.02300351 -0.00555625 -0.01257521
H -3.35413409 10.16460283 29.58753611 0.00396358 -0.00368571 0.01250601
H 4.00336817 13.80644395 0.05174168 -0.00748185 0.01574169 -0.00507192
H 2.27081068 18.66214478 29.40615438 -0.02733857 0.02132958 0.02108330
H -0.50637821 16.66679019 25.49666033 0.01293450 -0.00508217 -0.01427455
H -3.33135793 12.12981406 27.94498161 0.00684847 0.01813041 -0.00339061
H -0.75601895 12.02830553 33.78935529 -0.02866924 0.00747320 -0.02277226