2160
Time=37000.00000002 pbc="T T T" Lattice="20.63502618 0.00000000 0.00000000 0.00000000 28.88540669 0.00000000 -4.73852646 0.00000000 35.70250721" energy=-13799.41264856 virial="-84.76565288 13.05361151 75.34800588 13.05361151 -55.28484853 -26.03303855 75.34800588 -26.03303855 -74.82779191" stress="-0.00154180 0.00056413 0.00353936 0.00056413 -0.00021301 -0.00129732 0.00353936 -0.00129732 -0.00111411" Properties=species:S:1:pos:R:3:vel:R:3
O 0.49553349 8.41974092 2.61215183 -0.00275075 -0.00160476 -0.00337419
O 1.95470413 3.62452326 3.36626944 0.00425572 -0.00108214 -0.00684031
O 4.49391908 1.22193488 9.17236229 -0.00094893 -0.00087025 0.00455623
O 3.41427926 5.88777450 8.61474157 0.00225058 0.00572585 0.00092352
O 1.37892005 4.80424765 9.65521757 0.00134442 -0.00636264 0.00140590
O -0.39828839 9.84036528 8.49311642 0.00150190 -0.00954139 -0.00086271
O 3.86152410 4.88614312 2.10371976 0.00685433 0.00215435 0.00613081
O 5.66852106 0.03876093 3.98215001 -0.00331328 0.00106225 0.00114690
O -0.94176308 7.98144441 14.75803430 -0.00429094 -0.00042627 -0.00229259
O 0.37498517 3.97133227 15.39987282 -0.00013762 -0.00008552 -0.00038860
O 3.13000483 1.27390723 21.20793936 -0.00298083 -0.00175063 0.00081114
O 1.99661955 5.75928687 20.43309164 0.00103604 -0.00804401 -0.00083276
O -0.35682877 4.83290979 21.60527601 0.00379930 0.00097039 -0.00337312
O -1.49317085 10.00658893 20.16520704 0.00283705 0.00197787 0.00668166
O 2.51953880 4.62817009 14.31117506 0.00061225 -0.00511114 0.00590660
O 4.03801499 28.42226410 15.38821473 -0.00083280 -0.00369485 0.00413667
O -2.41101713 8.48979134 26.31934727 0.00057941 -0.00223903 -0.00119270
O -1.21645582 3.59852185 27.35414854 -0.01019719 0.00348079 0.00071460
O 1.41190712 1.07151582 33.31461369 -0.00214429 0.01052532 -0.00287025
O 0.23946854 5.61567189 32.04820229 -0.00006909 -0.00303986 -0.00814531
O -2.16434915 5.14795876 33.17015260 -0.00174451 0.01370017 -0.00151579
O -3.60331695 9.36010847 31.87363120 0.00340419 0.00598397 0.00402165
O 0.78645807 4.86510068 26.15667864 -0.00159466 -0.00151546 0.00576009
O 2.49866180 28.73192261 27.54899169 0.00094158 -0.00099199 0.00394937
O 0.72546119 18.22324481 2.31965722 -0.00322020 0.00220067 0.00189980
O 1.70427272 13.35820990 3.57600494 -0.00422302 0.00274788 0.00259647
O 4.53145388 10.99706669 9.27240132 0.00207040 -0.00375328 -0.00175396
O 3.29420326 15.77951605 8.63399565 0.00155322 -0.00211343 0.00379773
O 1.31218233 14.55777671 9.76920672 -0.00962969 0.00665713 0.00106289
O -0.29183776 19.50848749 8.14986507 0.00225808 -0.00378261 -0.00583158
O 3.86834730 14.47601675 2.37369001 0.00237433 -0.00095453 -0.00350201
O 5.14323031 9.06993852 3.54380705 0.00171887 0.00104908 0.00318818
O -0.85895037 18.35328787 14.25318300 0.00527520 -0.00123472 -0.00238135
O 0.56117677 13.20153253 15.29790418 0.00569265 0.00702045 0.00350062
O 3.19837336 10.91267665 21.40930771 -0.00382503 -0.00633878 -0.00153752
O 2.05833918 15.35281293 19.94418823 -0.00458621 -0.00359728 0.00684867
O -0.12148708 15.00797320 21.22137579 0.00104943 -0.00286381 0.00668897
O -1.57166903 19.43667893 20.17895177 -0.00251100 0.00423401 0.00585437
O 2.59681714 14.42446512 14.39244731 0.00148901 -0.00006090 0.00025689
O 3.78247932 9.13768562 15.41558661 -0.00389352 0.00138540 -0.00203329
O -2.58993122 18.55267178 25.99242497 -0.00090086 0.00528848 -0.00608128
O -1.38296209 13.63452740 27.36767386 -0.00101080 0.00278929 0.00014436
O 1.18560350 10.36484348 33.55021139 0.00115772 -0.00502210 0.00266904
O 0.12976903 15.30579532 32.62226522 0.00075743 0.00419455 0.00328615
O -2.02547164 13.98920481 33.63153700 0.00333723 0.00268137 -0.00310771
O -3.63890893 19.13688501 32.12795552 0.00099192 -0.00361868 -0.00420957
O 0.85228538 14.33661006 26.32332687 0.00898444 0.00169114 -0.00211773
O 2.19406227 9.70412554 27.42575056 0.00403003 -0.00098137 -0.00263023
O 0.67843827 27.83918629 2.60572331 0.00329839 0.00138218 -0.00002998
O 1.97800600 23.15609533 3.47784600 -0.00628162 0.00288188 -0.00099280
O 4.48002635 20.19891837 9.23220984 -0.00752161 0.00356846 0.00214986
O 3.43926350 25.02635990 8.20492864 -0.00023467 -0.00219458 -0.00695696
O 1.50803909 24.18049042 9.71317196 0.00564270 -0.00099854 -0.00158689
O -0.24127173 28.83652705 7.98119486 0.00012857 0.00076066 0.00001294
O 4.19658325 24.00701792 2.55665743 -0.00180516 0.00675591 -0.00405417
O 5.45774772 19.18502267 3.82761536 -0.00247420 -0.00385500 -0.00174319
O -0.69078039 27.70671035 14.63571411 -0.00099681 -0.00091913 -0.00296122
O 0.78230308 22.87199581 15.14528988 -0.00206161 -0.00034574 -0.00186010
O 3.14675704 20.32997616 21.27885125 0.00345803 -0.00203170 0.00875240
O 1.47467551 25.39738971 20.55922620 0.00122360 0.00232966 -0.00545969
O -0.38352617 23.99272935 21.37528544 -0.00089273 0.00408445 0.00016299
O -1.88830315 0.27495312 19.94427577 -0.00243218 -0.00256454 0.00294428
O 2.82012783 23.95274434 13.99988208 0.00955324 -0.00524151 0.00465291
O 4.09482295 19.31767760 15.49994279 -0.00325982 0.00045487 -0.00060609
O -2.46071301 27.80821536 26.20143258 -0.00127058 -0.00196064 0.00094870
O -1.23720300 22.78196784 27.24434590 0.00074588 0.00562487 0.00065577
O 1.28532054 20.62659547 33.02118321 -0.00137408 0.00047586 -0.00026224
O 0.08533597 25.00586059 32.12360130 -0.00393375 -0.01041854 -0.00702674
O -2.04455838 24.43369906 33.25912628 -0.00072005 -0.00146230 -0.00758573
O -3.34361704 0.19046284 32.26567641 0.00089155 -0.00233445 -0.00092180
O 0.74812874 23.98458718 25.97679454 0.00121438 0.00085349 -0.00005051
O 2.09838590 18.75592265 27.91138383 0.00139135 0.00661682 0.00106902
O 7.45355944 8.79554384 2.36916740 -0.00058501 0.00654762 0.00125004
O 8.58855276 3.98185193 3.54552025 -0.00171036 -0.00015244 0.00713754
O 11.43171022 1.08024833 9.13349031 -0.00061290 0.00136701 -0.00015852
O 10.59702275 5.89544234 8.40484148 -0.00081000 0.00751504 -0.00036966
O 8.42411410 4.91126624 9.51132707 0.00005164 -0.00375133 0.00369594
O 6.75251276 9.28370641 8.27417365 -0.00215348 -0.00121156 -0.00373047
O 10.72604919 4.84761206 2.39545241 -0.00394276 0.00008120 -0.00398908
O 12.39161025 0.17032084 4.01789523 0.00163065 0.00423775 -0.00678345
O 6.09611066 8.35481998 14.23301990 0.00124925 0.00623309 -0.00153878
O 7.20787625 3.45682781 14.99104055 -0.00056956 -0.01082677 0.00069600
O 9.86957662 1.33203595 21.03552773 0.00395129 0.00250849 0.00059515
O 8.66698655 6.01304757 20.28703988 -0.00172353 0.00406136 -0.00050521
O 6.70654895 5.03194200 21.55365785 -0.00417353 0.00373505 0.00049851
O 5.24526984 10.02982669 20.20309011 -0.00262978 0.00231161 -0.00234029
O 9.26787158 4.46007182 13.96314282 0.00845246 0.00334124 0.00288967
O 10.91945159 28.81290989 15.51240253 0.00560523 -0.00421391 -0.00298569
O 4.20592480 8.50344677 26.46147907 0.00112858 -0.00333921 -0.00297730
O 5.54104880 3.82918280 27.40451845 0.00142755 -0.00466437 -0.00326587
O 8.47177847 0.98953964 33.44837715 -0.00102926 -0.00686413 0.00608822
O 6.89295211 6.05346152 32.23910514 -0.00029483 0.00164294 0.00002174
O 5.02748053 4.99186899 33.43088958 -0.00092341 -0.00450346 0.00223609
O 3.20932916 9.50787798 31.87765621 0.00137388 -0.00282322 -0.00735561
O 7.66991084 4.68782804 26.17827858 0.00109293 0.00179160 -0.00384712
O 9.16311846 28.76911751 27.52591699 -0.00210296 -0.00334889 0.00052124
O 7.56072545 17.99904031 2.66662242 -0.00393347 0.00719486 0.00400974
O 8.44404203 13.47293476 3.62576028 -0.00133330 0.00354444 0.00192573
O 11.35003443 10.85586872 9.43073145 0.00674682 -0.00332078 -0.00228551
O 10.04019088 15.32185504 7.93827825 -0.00255766 0.00320504 -0.00245170
O 8.15078703 14.77004713 9.61974377 -0.00539581 -0.00008593 0.00663039
O 6.77913248 19.41295681 8.14694293 0.00233296 0.00609329 -0.00464265
O 10.74659082 14.39416032 2.42443156 -0.00017108 0.00994028 0.00377194
O 12.39982499 9.64799274 3.82237086 -0.00261645 0.00070269 -0.00046493
O 5.99489973 18.14411419 14.53140764 0.00012102 -0.00297059 0.00171867
O 7.47333513 13.24112622 15.26918867 0.00382096 0.00092806 -0.00149601
O 9.87450592 10.72713278 21.18359249 0.00720965 -0.00244063 0.00480020
O 8.60825205 15.61488635 20.15231417 -0.00098962 -0.00101389 0.00032536
O 6.61736324 14.67611985 21.56299025 -0.00273100 -0.00501334 0.00310556
O 5.27478410 19.21570863 20.07492145 -0.00279110 -0.00119948 0.00733154
O 9.51029064 14.41513654 14.24932091 -0.00730239 0.00072097 -0.00177119
O 10.63358321 9.65873681 15.48671342 0.00441737 -0.00340521 0.00247983
O 4.24670798 18.26819726 26.25117285 0.00062358 -0.00190046 0.00101738
O 5.49687334 13.44872975 27.36440683 0.00024777 -0.00028048 0.00299441
O 8.05691720 10.37045441 33.47831731 0.00151576 -0.00184955 0.00082928
O 6.79548755 15.58506745 32.36540216 0.00637824 0.00305412 -0.00485629
O 4.90986864 14.29132614 33.55634111 0.00528214 0.00301080 -0.00969620
O 3.36948604 19.26321517 32.07253727 -0.00423012 -0.00967190 0.00029043
O 7.47012865 14.34794675 25.90086293 0.00181942 0.00549789 -0.00251730
O 9.13290435 9.73806137 27.65518790 0.00290252 0.00483299 0.00246542
O 7.60722222 27.69393645 2.47454274 0.00093364 0.00421109 0.00267621
O 8.98188758 22.90711592 3.39771125 0.00224731 -0.00090629 0.00432645
O 11.93143157 20.01723627 9.63346848 0.00009557 0.00034248 -0.00288615
O 10.36070606 25.02803118 8.49351929 -0.00083303 0.00535893 -0.00436387
O 8.49877482 23.61223778 9.51468806 -0.00190881 -0.00264715 -0.00048337
O 6.72667031 0.25458419 8.59837346 0.00175778 -0.00525903 -0.01343032
O 10.96489596 24.32163831 2.10445069 -0.00098417 0.00411083 -0.00450860
O 12.40356397 19.12059067 3.52602353 -0.00123026 0.00071070 0.00243789
O 6.39393946 27.53438492 14.10332354 0.00743447 -0.00559885 0.00333422
O 7.42951433 22.65643306 15.04420460 0.00093774 -0.00583109 0.00006857
O 10.07717737 20.65792504 21.19405762 -0.00076197 0.00079164 -0.00144417
O 8.68764955 25.44942233 20.27577132 -0.00087528 0.00074174 -0.00013661
O 6.73705464 24.25851626 21.58136557 -0.00414821 -0.00362031 -0.00452285
O 5.13767456 0.28981511 20.01502576 0.00520574 -0.00171884 -0.00321705
O 9.52123047 24.00221061 13.97284224 -0.00176036 -0.00008206 0.00039585
O 10.84330654 19.11392805 15.31934522 0.00291611 0.00247310 0.00119552
O 4.56287238 27.78346761 26.38627608 0.00300661 0.00454816 0.00023402
O 5.69876147 22.89389754 27.23891092 0.00153044 0.00179861 0.00255345
O 8.09919182 20.19038395 33.62426146 0.00043218 0.00123551 -0.00391067
O 7.16567199 25.09260650 32.03832282 0.00151407 -0.00667775 0.00023640
O 4.99928948 23.96613211 33.34067949 0.00320345 0.00477754 0.00437072
O 3.48036932 28.82753358 32.29561673 0.00154311 -0.00074422 0.00831119
O 7.52958025 24.08144314 25.94074119 -0.00523498 0.00197925 -0.00393303
O 9.18664726 19.02236722 27.64183062 0.00019725 0.00196901 -0.00351823
O 14.42847884 8.46185017 2.53339964 0.00104480 0.00030438 0.00708909
O 15.64860311 3.76039048 3.57400942 -0.00048613 0.00095557 -0.00169402
O 18.53140397 0.90255939 9.32064736 0.00016683 0.00076691 0.00098612
O 17.26331025 5.98206140 8.62614719 -0.00663215 0.00294546 -0.00036767
O 15.21803182 4.73741689 9.57506593 0.00291910 -0.00345595 0.00672142
O 13.67607730 9.99413743 8.71373962 0.00450120 0.00288046 0.00012354
O 17.66169154 4.79341060 2.32471948 -0.00314365 -0.00375893 -0.00011863
O 19.21220038 0.11994695 3.48811817 0.00238804 -0.00012947 0.00191230
O 13.01252016 8.36746342 14.48639165 0.00267381 -0.00419293 -0.00831239
O 14.12211720 3.98268874 15.63952225 0.00292852 -0.00086768 -0.00718450
O 16.59105210 1.28369405 21.25686337 0.00335498 -0.00332450 -0.00455153
O 15.53340568 5.96593624 20.47966822 0.00305755 0.00318379 0.00181288
O 13.41644911 4.65648483 21.32549640 0.00476047 0.00477984 -0.00137231
O 12.18955940 10.08425371 20.27818755 -0.00212176 -0.00286527 -0.00143746
O 16.27535227 4.21553946 14.24409452 0.00356024 0.00169768 0.00668536
O 17.73320814 0.21941620 15.68882130 -0.00638737 0.00332299 0.00020715
O 11.12820499 8.72557004 26.17185763 0.00115132 0.00246247 0.00160984
O 12.53226249 3.90878583 27.21223211 -0.00287547 -0.00547388 -0.00134251
O 15.05044127 1.10000694 33.14360644 -0.00208914 0.00084990 -0.00120773
O 13.96033568 5.92111875 32.10285124 -0.00404465 -0.00074523 0.00134824
O 11.76960108 4.98000529 33.27469832 0.00124917 0.00005869 -0.00101151
O 10.19297332 9.73197526 32.11751600 0.00166906 -0.00324378 -0.00333336
O 14.52579980 5.02208659 25.96269656 -0.00610738 -0.00342502 0.00542024
O 16.09866178 28.86966080 27.36650970 0.00869405 -0.00530054 -0.00109096
O 14.39676644 17.87340792 2.36731005 -0.00967176 -0.00568858 0.00274022
O 15.53591228 13.23852455 3.74630404 -0.00509649 0.00378009 0.00240508
O 17.96222647 10.58328441 9.91688547 0.00058474 -0.00464837 -0.00234422
O 17.03965649 15.62967539 8.40834506 -0.00336551 0.00116500 0.00913941
O 15.27522776 14.13966950 9.73851972 0.00652576 -0.00011690 -0.00580586
O 13.67946180 19.10173378 8.08291518 -0.00254187 0.00241989 -0.00132412
O 17.68496655 14.18028152 2.35094594 -0.00009354 0.00130843 0.00044950
O 19.14754016 9.66126744 3.65857508 0.00291828 -0.00133939 0.00329524
O 12.94231359 18.23874291 14.08072685 -0.00780749 -0.00284998 -0.00289482
O 14.50561048 13.19501973 15.24433361 0.00011634 -0.00190945 0.00461879
O 16.98558069 10.68642599 21.35985647 -0.00323103 0.00669890 -0.00398075
O 15.65335303 15.74560269 20.28757426 -0.00436175 0.00586594 0.00488274
O 13.45677298 14.54855542 21.37606571 0.00210520 -0.00279297 -0.00422744
O 12.10120926 19.43868586 20.12826504 -0.00300062 0.00198956 0.00806407
O 16.44089229 14.81059752 14.49920345 0.00156676 0.00528690 -0.00332763
O 17.53193722 9.28874607 15.38869248 0.00569993 -0.00170012 -0.00121265
O 10.96173836 18.10863130 26.21138757 0.00375475 0.00090259 -0.00069722
O 12.47590103 13.18405728 27.26954546 -0.00269578 -0.00077785 0.00193376
O 14.91456669 10.39220894 33.35435435 0.00216078 0.00094910 0.00155710
O 13.49711033 15.85806695 32.32358083 0.00227495 -0.00396301 0.00071083
O 11.78484822 14.20559058 33.39271486 0.00363296 -0.00430986 -0.00009276
O 10.35529421 19.88171998 32.43311287 0.00004516 -0.00949188 0.00621373
O 14.33367329 14.42830597 25.81437090 -0.00169942 0.00122124 0.00970817
O 16.22896828 9.88723668 27.53755181 -0.00911782 -0.00100602 -0.00120085
O 14.21905233 28.08105700 2.58669766 -0.00014654 -0.00311789 -0.00241049
O 15.87469259 23.20562744 3.86028846 0.00019861 -0.00019848 0.00399161
O 18.35029422 20.44255401 9.57150535 -0.00082337 0.00442100 0.00870090
O 17.52874965 24.99431690 8.11859363 -0.00237249 -0.00319540 -0.00049441
O 15.53926622 24.17929524 9.52314245 0.00222165 -0.00303278 -0.00546515
O 13.62674610 28.76422049 8.22453153 -0.00288209 -0.00102210 0.00581409
O 17.75351746 24.10973767 2.49296114 0.00461104 -0.00592314 0.00257952
O 19.19099076 19.10011616 3.48224721 0.00350636 -0.00305547 0.00350258
O 12.88908485 27.79998904 14.18762253 -0.00628492 -0.00072714 0.00263923
O 14.47963063 23.04730651 15.27097632 0.00010336 -0.00416445 -0.00105721
O 16.77346170 20.37831559 21.23207027 0.00174638 0.00481735 0.00567690
O 15.44735093 25.48850823 20.26443370 0.00018758 0.00428096 0.00233010
O 13.43457168 24.28515767 21.22721292 0.00397540 0.00191155 0.00244276
O 11.90604680 0.22120229 20.09843017 0.00320987 0.00610255 -0.00147431
O 16.53194808 24.43475802 14.23282744 0.00178330 -0.00011496 0.00384497
O 17.91954746 19.56346397 15.58699960 -0.00267775 -0.00041897 0.00306260
O 11.36512124 27.70261575 26.12575302 -0.00325845 0.00491917 0.00510232
O 12.33500661 23.11709117 27.34678940 -0.00379310 0.00789042 -0.00210259
O 14.92294405 20.42427695 33.23350990 -0.00462802 -0.00162219 0.00035488
O 13.79925701 25.20707329 32.14427339 -0.00383943 -0.00106481 -0.00011968
O 12.00347406 24.11563193 33.73140914 -0.00433975 -0.00005075 0.00432299
O 10.04638296 0.07810308 31.69507380 -0.00288424 -0.00079525 0.00437975
O 14.61878060 23.81607077 26.20409880 -0.00150669 -0.00118844 0.00091856
O 15.93094211 19.05626039 27.43530622 -0.00160055 -0.00276638 -0.00768379
H -0.35819408 8.91054411 2.88186058 -0.00585007 0.00100418 -0.00761314
H 2.77079043 4.09658438 3.12087533 -0.00527860 -0.01154117 0.03021523
H 5.33871644 0.63753323 9.09312718 -0.01351270 0.01320314 0.00287451
H 2.54914460 5.45926566 9.01908548 0.02955009 -0.00035211 -0.01402594
H 5.34481064 8.09417165 1.00431062 0.01835012 0.00649010 -0.04266118
H 3.99637733 3.45848508 4.92829488 -0.00354503 0.00612663 0.02145819
H -0.15183956 1.33121766 10.85239074 -0.00660070 0.01764394 -0.03689763
H 1.23411493 6.51314237 7.20755867 -0.00552727 -0.01910723 -0.00865795
H 4.41778058 6.61453533 10.47775928 0.02954385 0.01126621 0.00087404
H 3.87725571 2.34328179 7.21589717 -0.00836884 -0.00885634 -0.02670890
H 1.19118410 2.91625563 1.02489225 -0.00502342 -0.01025149 -0.02810523
H 1.23659837 7.45207362 5.06864299 0.01850824 -0.02729004 -0.02311547
H -2.20268842 5.41582940 35.57854826 0.00118268 0.01228560 0.02500581
H 0.03175730 0.80211398 6.23886210 -0.00548582 -0.00581677 -0.00807661
H 2.55693828 4.23922444 11.87666006 -0.01730348 -0.01527609 -0.00564961
H 5.02996150 9.25488013 5.88659627 0.01274343 0.01005229 0.00091337
H 2.60131189 7.17987171 1.66408527 -0.02467537 0.00071486 -0.00171613
H 0.08946872 2.10850200 4.11250997 -0.01869403 0.00657646 -0.00725942
H 2.55289854 2.61066147 9.93088674 -0.02155078 -0.00190934 0.00471399
H 5.33759930 7.55063320 7.76231629 -0.02169489 -0.00739150 -0.03016975
H 5.26397064 4.90821138 9.41558723 0.01620004 0.01043384 -0.00485745
H 2.91940110 0.48024650 8.39866915 0.02089296 -0.00715990 0.00367703
H 0.16919300 4.55965261 2.26581506 -0.00081251 -0.00689548 -0.00512832
H 1.93532103 9.48239080 4.09087965 0.01701631 0.00618725 -0.00511318
H 7.74602258 3.47681804 7.42555233 0.01159095 -0.00391408 -0.00129736
H 0.10884059 8.21694810 10.29463638 -0.01182953 -0.00417797 -0.00120349
H 18.93783858 7.30417211 3.21903319 0.00298599 0.00717089 -0.01364980
H 4.64614454 0.44264128 1.51596547 -0.01279191 0.00037279 0.00219543
H -0.97847695 4.60355242 7.59049125 -0.01221757 0.01459510 -0.01496462
H 1.81556299 8.92780631 10.44234796 -0.00676619 -0.00252006 0.01054312
H 4.41018432 5.98168637 4.52432799 -0.00280568 0.00062107 0.02958677
H 3.34821571 1.49866234 2.28911930 -0.00006915 0.00357747 0.00897534
H -0.09368929 3.06712738 7.85009340 -0.01796879 0.01722416 0.00371558
H 1.60654946 7.60537683 9.36877149 -0.00026708 0.02791611 -0.00553966
H 6.14574609 5.28219797 4.19291124 -0.03979351 0.00305745 -0.01781394
H 5.10193687 1.96649285 2.27360662 -0.00287523 -0.00607540 0.02843356
H -1.77319387 8.56866638 14.95168120 -0.01179639 0.02663450 0.02991311
H 1.25776310 4.16162470 15.02908657 -0.01507803 -0.00564830 0.01749017
H 3.99697300 0.77322002 21.13786753 0.00976214 -0.03311144 -0.01285168
H 1.10547591 5.57433157 20.76503274 -0.01685414 0.00801583 -0.00595901
H 4.31613811 8.25430744 12.29621291 0.00426446 0.00689539 0.01033482
H 2.24461074 3.62962588 17.08533845 0.00486681 -0.00560547 -0.04161844
H -2.00124686 1.53059419 22.93926611 -0.00234811 0.01301269 -0.01428933
H -0.24486791 6.36420629 19.15078476 0.00034365 -0.03667835 0.01526954
H 2.66866198 6.60210252 22.72852617 0.00620848 -0.00832474 0.01228250
H 2.40001402 1.65356438 18.69541062 0.01812065 -0.01063274 -0.00795317
H -0.27736002 2.81233140 12.96333210 0.01231137 0.00080036 -0.01673725
H -0.41136886 7.67218979 17.20526398 -0.00530424 -0.01018355 0.00623299
H 1.18976981 5.40829995 11.67423573 0.01999824 0.00189830 -0.01371038
H -1.67590796 0.62139566 17.96953961 0.01665702 -0.01569214 0.01096210
H 1.15675158 4.40743881 23.93048268 -0.02687555 -0.01846097 0.00622740
H 3.78327531 8.56797078 17.33782406 -0.00349365 -0.01132011 -0.00769306
H 1.13343481 6.63158398 13.85737367 0.01445355 0.01953737 0.00464286
H -1.58315034 2.18069182 15.91888528 -0.01941887 0.00694789 0.00987804
H 1.19900546 3.03110947 21.93675612 -0.00611313 -0.02541075 -0.00364934
H 3.96059787 7.12626054 19.47044247 0.01891322 -0.02191380 -0.00267317
H 3.61969306 4.96763593 21.71370477 -0.00124121 -0.00501510 0.02701277
H 1.27377921 0.11777119 20.11481310 -0.02787260 0.00113244 -0.00314668
H -1.28260553 4.26024748 14.01366681 -0.00441516 0.00329313 0.01109893
H 0.62803820 9.15261698 15.52041285 -0.01862214 -0.01055736 0.03376487
H 5.46369244 2.68376962 20.52098003 0.01412518 0.03806651 0.01324683
H 0.41916160 7.79982588 21.54043220 -0.00862947 -0.00996288 -0.01622528
H -1.73153067 5.73861296 15.54103275 0.00591561 -0.01493668 0.00866030
H 2.98794290 0.85301094 13.30220443 0.01384830 -0.01463188 -0.00023525
H -2.39398604 4.51886099 19.28732682 0.01611149 -0.01565269 -0.02727763
H -1.23201330 8.27259261 21.83801116 -0.01088787 0.00579736 -0.00352268
H 5.22641165 5.81349953 15.75904518 -0.01152109 -0.01425765 -0.00757805
H 1.55870039 1.26439861 14.27052676 0.00066659 0.01826880 0.01416251
H -2.18517722 2.95691969 19.96773049 -0.02771340 -0.02360923 0.00482447
H 0.05199957 9.24180567 22.52884076 -0.01365534 0.00110834 -0.00410423
H 3.77103205 6.77145136 15.48135980 0.00020006 0.01393138 -0.00205844
H 3.23057496 2.05040491 14.62744295 0.01529664 0.00140888 0.03327992
H -3.20970663 9.05941946 26.53473057 -0.02189096 -0.00321545 0.00711482
H -0.31672091 3.98990493 27.11128285 -0.01123974 -0.02199394 0.00265901
H 2.27367517 0.71254076 32.99894940 -0.01430559 -0.00926792 0.00233620
H -0.63879435 5.17990500 32.22352602 0.00233427 -0.01888133 0.04612894
H 2.47718828 8.21659180 24.55061185 -0.01081255 -0.02714620 0.02047175
H 0.75004553 3.12079376 28.95645093 -0.01447863 0.01354961 -0.00669772
H -3.58800630 1.41276630 34.96139126 -0.00798833 0.00802759 -0.00436993
H -1.70341867 6.16399369 30.53537921 0.00786823 0.01704828 -0.01505919
H 0.79403756 6.51652847 34.66356770 0.00933664 -0.01604130 0.00199350
H 0.60344236 1.89358512 31.08937055 -0.00257972 -0.02033768 -0.01839769
H -2.02784910 3.01669059 24.94024559 0.00874930 -0.00080097 0.01471390
H -1.83591568 7.88907444 28.69141862 0.01606927 -0.00719009 -0.01447418
H -0.30895381 5.51475945 23.50662094 -0.01961570 0.02969710 -0.00928365
H -3.24718638 0.34182731 29.79667078 -0.00963741 -0.00752908 0.00377910
H 4.06059806 4.16262140 0.18302721 0.03914172 0.01638040 -0.00882969
H 2.24684159 8.97008353 29.67592537 0.00045584 0.01823914 -0.02727969
H -0.45907198 6.86026596 25.49394810 -0.00417036 -0.00815761 -0.02706103
H -3.44907870 2.08108377 28.10612221 -0.00480078 0.00520246 0.00260654
H -0.64336510 2.36630606 34.03614055 0.00602043 -0.02359646 0.00379200
H 2.26764091 7.25459033 31.51272586 0.00263301 -0.00020382 0.02960851
H 1.76162738 5.06065680 33.61924159 -0.05391427 0.00573925 0.00606214
H -0.28311889 0.18132534 31.92392468 -0.00977398 0.00620766 0.01240726
H -2.95319823 4.84669921 25.93252764 -0.00247304 0.00229426 0.00450565
H -0.89207465 9.64321445 27.75550729 -0.02259301 0.01488351 -0.03429005
H 2.44709927 3.42988899 32.30830030 0.01011413 -0.00880501 -0.01114912
H -2.68339610 8.63792659 34.20833783 -0.00127113 -0.02520469 -0.00276441
H 16.33482081 4.75630409 28.20787628 -0.01221840 -0.01478703 -0.02316561
H 1.48863405 0.77093671 25.20969996 -0.00104313 0.01890927 -0.02645857
H -2.61721909 2.77723992 32.06579607 -0.00263700 -0.00013475 0.02330051
H -0.98598018 8.52270501 33.57254513 -0.00920776 0.00282945 -0.01272478
H 1.70449317 6.12906459 28.16918928 -0.02030542 -0.00533837 0.00747245
H 0.01742620 1.10524298 25.94563722 -0.00850243 -0.01780005 -0.03052032
H -3.33946209 3.89178079 31.05748325 0.00849225 0.00079700 0.00422595
H -2.21300425 7.33608091 32.99511750 -0.01801658 -0.00563286 0.02754356
H 3.37347840 6.23568033 27.47406371 -0.01467599 -0.01975068 0.01199932
H 1.42313874 2.13361761 26.29134359 0.01926567 0.00731883 -0.01443626
H -0.06363881 18.55294448 2.72251089 0.01804312 0.02072670 -0.00952087
H 2.54350205 13.72560773 3.36945762 -0.01983925 0.01044146 -0.00896080
H 4.97586730 10.10471885 9.35259191 0.01643100 0.01465608 -0.02981465
H 2.51113498 15.24891348 8.85877907 -0.01145534 0.01827825 -0.01524532
H 5.41923880 17.48577130 1.06746896 -0.00466004 -0.00162570 0.01274479
H 3.72107224 13.03442488 5.26063581 -0.01174230 0.01901516 -0.00092606
H -0.56892895 10.85435371 11.64114383 0.00659366 0.00532025 0.01536794
H 1.30383917 16.09339513 7.00758170 -0.04546743 0.00296111 -0.00941035
H 4.12823263 16.25289957 10.84146841 -0.00442449 0.00699303 0.00429303
H 3.79134098 11.63510783 7.12146536 0.01571665 0.00321902 0.01186524
H 1.12783191 12.45322167 1.03864710 0.00352468 0.00462844 -0.03230834
H 1.36298061 17.22139832 4.84475965 -0.01744600 -0.01406024 -0.01775724
H -2.10684208 15.17566881 35.51493661 -0.00586497 -0.01061472 0.01625764
H -0.10238839 10.03664696 6.01901509 0.00181794 -0.00090392 -0.01708210
H 2.56902923 13.52157770 12.57048677 -0.00772357 0.00221265 -0.00683134
H 5.35484325 18.59873170 5.67790278 -0.04660421 -0.02459255 0.01270662
H 2.53410551 16.71436534 1.61467258 0.01400724 0.01698694 -0.01634521
H -0.23926683 11.67381222 4.22709649 -0.00352501 0.03065701 0.00298064
H 2.51841469 12.12262106 10.40598115 -0.01345056 -0.01779064 0.00317531
H 5.28666522 17.23138934 7.88732126 0.02047339 -0.00245721 0.03210042
H 4.99688015 14.51306136 10.03227122 -0.00783524 -0.01556106 0.03415275
H 2.77810756 9.80899956 8.34656184 0.00823466 -0.00928945 -0.01654663
H 0.23049757 14.42631914 2.08493899 0.01637944 -0.00653976 0.02877364
H 2.27117913 19.02793792 3.52929456 0.05427816 -0.02315465 0.02741940
H 5.98116934 13.82972060 7.53043497 -0.00375257 -0.01527435 0.00923868
H 0.67188943 18.14409292 10.31623026 0.02382113 0.01140634 -0.01288541
H 20.05812252 16.12598833 3.44806099 0.00570419 0.01053612 -0.01369049
H 4.29414619 10.45090895 1.69648873 -0.02253892 0.00526840 0.02010108
H -1.07668409 12.62395932 8.63416305 0.01612328 0.01442471 -0.00018758
H 2.26712858 18.02282677 9.56444519 0.01949845 -0.01317543 -0.01552146
H 6.40712348 15.04069195 4.11885260 -0.01373478 -0.00470422 -0.00191647
H 2.60513400 10.56540600 2.25914667 -0.01721437 0.00651479 -0.01232287
H 0.70877709 12.45012932 8.36716262 -0.00667979 0.01523606 0.02369395
H 1.04572131 17.00314365 9.11655322 -0.00150894 -0.00312276 -0.01256953
H 5.49981821 16.48691467 3.47681447 -0.00951967 -0.01573871 0.01234974
H 3.81460237 11.72391320 2.76354881 -0.00416860 0.01145954 0.02046147
H -1.72895011 18.78257345 14.54893891 -0.02603485 -0.00152210 0.03413818
H 1.39805860 13.59843778 14.99953156 -0.00204328 0.01926922 0.01107560
H 4.08170770 10.48101199 21.14133826 0.00574498 0.01274380 -0.01331195
H 1.21415284 15.02284432 20.32259542 -0.01686416 0.00491724 -0.02300099
H 3.83482572 17.60057609 12.96223899 -0.01247444 -0.00468364 0.01083749
H 2.57421849 12.86071869 16.90314893 0.01961482 0.02992086 0.00328861
H -1.86665332 11.18389381 23.23707928 0.00538499 -0.00948243 0.00633659
H -0.03069460 15.89131280 18.37541277 -0.00202037 0.00116627 -0.00199886
H 2.53064553 16.45758879 22.54638924 -0.00924971 0.00575331 -0.02774446
H 2.67557193 11.30646080 18.83995084 -0.01186916 0.00575086 -0.00762145
H -0.24387445 12.79085745 13.06513907 -0.01445094 -0.00378001 -0.00499539
H -0.01871824 17.69210578 16.63180196 0.01440876 -0.00806137 0.00876319
H 1.14310794 15.13310021 11.87852766 0.00415225 -0.01656910 -0.01834538
H -1.39214226 9.99139084 17.87147976 -0.00501747 -0.01961172 0.01739806
H 1.05002370 13.87395044 23.93619646 0.01314413 -0.00298874 0.00769099
H 3.93079286 18.77453816 17.62014815 -0.02054153 -0.00894169 -0.00681786
H 1.02882881 16.45859295 13.79803657 0.00615387 -0.01132117 0.00505486
H -1.42312671 11.64847972 15.97856683 0.01405731 -0.03008835 0.00703715
H 1.10850769 12.32562018 22.22845118 -0.00776330 0.01402607 -0.01399654
H 3.97672418 17.09771291 19.42153138 -0.00365049 0.01109203 -0.01979642
H 3.47420993 14.41597076 21.69388552 -0.00449214 -0.01585283 -0.01108689
H 1.61714182 9.73562324 20.13524012 0.00863278 -0.01906963 0.02180513
H -1.11650823 14.52688833 14.19995094 -0.00279441 -0.01012543 0.02565360
H 0.94828930 19.30946703 15.60380761 0.02223411 -0.01366693 0.03123395
H 6.09581162 13.45257690 19.38494259 -0.01316641 0.01984860 -0.02211985
H -0.40867889 17.01427409 20.73770525 0.00131136 -0.00741689 -0.00759929
H -1.32933206 15.85786975 15.68742339 0.00396638 -0.00523913 -0.02068427
H 2.68582448 9.95988366 13.24197670 0.01443482 0.00791074 -0.00388125
H -1.49603480 13.83472143 19.16896013 0.00244776 -0.00920700 -0.02404573
H -0.98968678 18.07664615 22.01272696 0.01592574 -0.00178776 0.00029225
H 3.40354584 15.95206269 16.12232824 0.00126083 -0.03277008 -0.02185208
H 1.39367113 10.79916139 14.22765700 -0.01165896 -0.00741343 0.00401224
H -2.24151049 12.66559581 20.36611143 -0.00572756 -0.01533183 -0.01384555
H 0.75347879 18.04351096 21.73887471 0.01514089 -0.00411200 -0.00732162
H 4.60512678 14.74939321 16.66966545 -0.02368709 0.00723449 0.00052195
H 3.17317345 11.20693079 14.30703418 0.00502546 0.00374326 -0.00437570
H 17.10742641 18.51188341 26.36062353 0.00328987 0.01095053 -0.00252621
H -0.45946372 13.98360968 27.22487515 -0.03342034 0.01297631 -0.05169539
H 2.03365388 10.14846751 33.11039669 -0.00169870 -0.00216795 0.02261002
H -0.67939820 14.64486990 32.89878312 0.02379678 -0.03410905 0.00234361
H 2.41674613 17.91067210 24.43684496 0.00774922 -0.01587937 0.02247211
H 0.32855525 13.51271732 29.28121365 0.00642407 -0.01266190 0.00871243
H -3.73016965 10.85213805 34.84603100 -0.00261661 -0.00102569 0.00629777
H -2.04296877 15.90847700 31.21280338 -0.00515041 0.01174605 0.00845543
H 0.61757773 16.06595621 34.96920117 -0.01143175 0.00744385 -0.01535735
H 0.55854151 11.74331674 31.04363878 -0.00241266 -0.01608422 -0.01050137
H -2.15435330 12.80821264 25.06057201 -0.00408322 -0.02699442 0.01857130
H -1.98127533 17.08514781 29.00072157 0.00088338 -0.01705814 -0.00867244
H -0.42380398 15.12770778 23.89478668 -0.02191889 -0.00214082 0.01069700
H -3.31258825 10.29738883 29.98472149 -0.00022174 0.01483267 0.00048129
H 3.94436644 13.72606473 0.20298197 0.00039524 0.00222439 0.00137977
H 1.97463503 18.26560220 29.82985023 -0.01170842 -0.00907183 0.00507139
H -0.52395768 16.99148870 25.65477913 -0.00312663 -0.00912602 -0.02428738
H -3.41070274 12.16794478 28.08275668 0.00730191 0.03280709 -0.01456725