2160
Time=70000.00000007 pbc="T T T" Lattice="20.57026282 0.00000000 0.00000000 0.00000000 28.97731640 0.00000000 -4.73532027 0.00000000 35.65420951" energy=-13794.91535205 virial="-26.56109944 40.19777959 58.76645753 40.19777959 -72.65375818 -5.64101369 58.76645753 -5.64101369 -48.39622500" stress="0.00133996 0.00186171 0.00274983 0.00186171 -0.00108960 -0.00029875 0.00274983 -0.00029875 0.00023041" Properties=species:S:1:pos:R:3:vel:R:3
O 0.83011251 8.69528425 2.60929435 0.00048727 0.00538097 0.00948374
O 1.75285073 3.71490425 3.34725266 0.00425638 -0.00006479 0.00147932
O 4.52961075 1.26435728 9.08399548 -0.00330530 -0.00037174 -0.00078642
O 3.52645936 5.93036823 8.23145653 0.00645481 -0.00450075 0.00215908
O 1.28335700 4.81068882 9.22152314 0.00052817 -0.00396375 0.00141299
O -0.15737969 9.52814730 7.99849581 0.00040159 0.00049996 -0.00306237
O 3.81797889 4.77536086 2.17737531 0.00614074 -0.00228916 0.00211428
O 5.50272734 0.10770106 3.78338089 0.00035818 0.00038589 0.00257747
O -0.62585737 8.48234716 14.23407983 0.00151704 -0.00334582 0.00415109
O 0.27444126 3.64365072 15.53062649 -0.00291334 -0.00227347 0.00318372
O 2.72757162 0.96792839 21.35001766 -0.00514687 0.00078756 0.00396417
O 1.42817920 5.68514997 20.26092296 -0.00118248 0.00816400 -0.00106455
O -0.50789013 4.72780892 21.78682331 -0.00094438 0.00990644 0.00246965
O -1.93890082 9.52751279 20.04210223 -0.00543906 -0.00430420 0.00084596
O 2.34283585 4.55961251 14.12541126 0.00728804 0.00006933 -0.00013033
O 3.79594515 0.00173807 15.55503722 0.00456900 -0.00377884 0.00571922
O -2.43465696 8.63535976 26.18370403 0.00122531 -0.00135832 0.00222098
O -1.32816161 3.73942649 27.37489796 -0.00300046 -0.00473166 -0.00170828
O 1.33233266 0.72209637 33.63793300 -0.00111871 -0.00226736 0.00486840
O 0.36201161 6.04446035 32.31471331 0.00626361 -0.00024486 -0.00615944
O -1.70864965 5.00993743 33.56426444 -0.00367578 -0.00123581 -0.00076519
O -3.23116895 10.01723568 31.83642821 -0.00383326 0.00539630 -0.00295561
O 0.76370479 4.76150463 25.96386194 0.00113651 0.00126550 0.00063718
O 2.49576631 0.01174983 27.52309983 0.00235962 0.00290888 -0.00005720
O 0.90978007 18.26809148 2.54132872 0.00030175 -0.00153260 0.00303484
O 2.08634527 13.37642131 3.52376052 0.00420854 0.00062975 -0.00289180
O 4.61443546 10.42609979 9.56131073 0.00575463 0.00062173 -0.00363975
O 3.46166811 15.33027113 8.21568083 -0.00662989 0.00472306 -0.00745163
O 1.29825767 14.70732581 9.54855620 0.00214777 0.00311664 -0.00450650
O -0.33447395 19.65341054 8.49588843 -0.00050856 -0.00467426 -0.00437845
O 4.17638120 14.53402074 2.38183132 0.00001742 0.00665534 -0.00036568
O 5.51983307 9.60887686 3.34265682 -0.00521944 -0.00064366 -0.00416150
O -0.71273002 18.18334343 14.28103507 0.00337085 -0.00145208 -0.00357595
O 0.50522850 13.17775442 15.31818904 0.00532223 -0.00414054 -0.00403795
O 2.86488833 10.60829749 21.33662932 0.00243798 -0.00003813 -0.00376047
O 2.11941939 15.19509132 20.17987348 0.00015581 0.00238087 -0.00178754
O -0.06389928 14.69720988 21.50563231 -0.00272093 0.00000066 -0.00143483
O -1.93335783 19.26359052 20.27489936 0.00597462 0.00580736 -0.00240291
O 2.58545395 14.16672841 14.27764904 -0.00322280 0.00121488 0.00267688
O 3.99323576 9.29394640 15.65157259 -0.00077006 -0.00303854 -0.00205115
O -2.25747915 18.15231449 26.28245461 -0.00088894 0.00152167 0.00664273
O -1.08046275 13.28106336 27.13256696 -0.00305954 0.00159712 -0.00512669
O 1.34144114 10.82014830 33.06399149 -0.00002661 -0.00504479 -0.00207411
O 0.16346616 15.73432312 32.12768747 0.00284105 -0.00270773 -0.00368154
O -1.86068578 14.57057422 33.35959227 0.00280927 0.00062199 -0.00332310
O -3.29855609 19.37277753 32.00725841 -0.00012903 0.00223990 0.00498646
O 0.82279415 14.37317724 25.93260875 -0.00263290 0.00476609 -0.00058732
O 2.18868133 9.53963428 27.09480063 0.00403964 0.00516654 -0.00315616
O 0.77890077 28.04520266 2.58072486 0.00290660 0.00130255 -0.00459353
O 1.68871832 23.32436820 3.72106573 0.00247108 -0.00346420 0.00064524
O 4.47158717 20.42150901 9.13795126 0.00089200 -0.00143338 0.00302747
O 3.44633972 25.07932009 8.32929012 -0.00218331 0.00113888 0.00423310
O 1.25282408 24.50195485 9.63454624 -0.00260497 -0.00014093 -0.00289630
O -0.16945526 0.16990693 8.34032249 0.00407706 -0.00025517 0.00005137
O 4.13407487 24.15849622 2.53558416 0.00493573 -0.00132326 -0.00470576
O 5.55002448 19.19260223 3.56603045 -0.00875353 -0.00419882 0.00372747
O -0.75561085 28.11781716 14.36920493 -0.00334803 -0.00016403 0.00057966
O 0.28016446 22.99209709 15.40062241 -0.00566437 -0.00447751 0.00827959
O 2.93771666 20.48726185 21.31756516 0.00492014 0.00265657 0.00590873
O 1.87549657 24.96701301 20.06961978 -0.00273828 0.00310072 0.00281912
O -0.26229226 24.14685341 21.47243524 -0.00396540 0.00300967 0.00095063
O -1.89146621 0.02988770 20.38672646 -0.00781293 -0.00201071 0.00837204
O 2.43866976 23.62088352 14.14051834 -0.00464986 0.00370493 0.00059881
O 4.00183051 19.00255863 15.61820633 0.00582484 0.00000018 -0.00320732
O -2.17230402 27.79000717 26.40276138 0.00064790 -0.00430660 -0.00133408
O -1.32351553 23.30273378 27.68579289 -0.00032057 -0.00371701 -0.00159648
O 1.35102050 20.53205366 33.16556834 -0.00463176 -0.00262417 0.00029833
O 0.26171635 25.41266430 32.29083286 -0.00148153 -0.00218046 0.00525001
O -2.13144446 24.95079861 33.03238679 0.00492710 0.00256742 -0.00252072
O -3.46157202 0.35450669 32.21809091 0.00378233 -0.00095635 -0.00409246
O 0.89937452 24.14951649 25.99382384 -0.00657337 -0.00172436 0.00531437
O 2.40877203 19.27047288 27.33677946 -0.00362291 0.00526871 -0.00230255
O 7.63336195 8.50907864 2.35606434 0.00086309 -0.00280587 0.00175605
O 8.80067745 4.16741246 3.82037790 0.00160553 -0.00116245 0.00766988
O 11.03040887 0.70313704 9.39895933 -0.00099456 -0.00057746 -0.00418850
O 10.29773903 6.08253660 8.41428811 0.00635511 -0.00273775 -0.00290113
O 8.16464631 5.01752918 9.42703764 0.00606863 -0.00308743 -0.00745873
O 6.57533794 9.44881896 8.07894303 -0.00106629 0.00174288 -0.00025621
O 11.12734519 4.56553569 2.73010773 0.00022440 -0.00108201 -0.00486223
O 12.42236459 28.69498005 3.78596673 -0.00314990 0.00092771 -0.00452572
O 6.01303059 8.46846936 14.25810242 0.00411199 -0.00450981 0.00430666
O 7.16325503 3.82317471 15.27731789 0.00979044 -0.00002962 -0.00465457
O 9.75144452 0.91041778 21.43937251 -0.00272468 -0.00366711 -0.00021658
O 8.56131090 6.19234427 20.19318021 0.00033990 -0.00381447 -0.00013220
O 6.35675111 5.42884161 21.07212694 -0.00082830 0.00078515 -0.00573174
O 5.02961192 9.85105843 20.09180120 -0.00677904 0.00061600 0.00064807
O 9.16437589 4.94392047 13.70677630 0.00083812 0.00453364 -0.00215392
O 10.75780626 28.84931217 15.32296186 -0.00636383 0.00482473 -0.00172468
O 4.42154480 8.66006254 26.31371420 -0.00155449 -0.00419958 -0.00499205
O 5.55803061 3.74181143 27.33202254 -0.00428916 0.00333916 -0.00784747
O 8.03609288 1.29315878 33.43576511 0.00236287 0.00333995 0.00440351
O 7.03793588 6.11748632 32.21431275 0.00129447 0.00750456 -0.00317733
O 4.93269069 4.92013621 33.16333507 -0.00211985 -0.00271365 -0.00139374
O 3.43444540 9.88001245 31.91870437 0.00086653 -0.00220632 -0.00045047
O 7.75650021 4.66181598 26.30906539 0.00248707 -0.00231267 -0.00146260
O 9.28503386 0.23499810 27.78887762 0.00232390 -0.00045086 -0.00094231
O 7.72970403 17.83198702 2.47619978 0.00645813 -0.00598969 0.00347499
O 8.79675539 13.26313571 3.48837317 0.00135320 0.00370153 0.00014353
O 11.29238473 10.64916991 9.51546846 -0.00628604 0.00250907 0.00295918
O 10.33379703 15.91980755 8.48092272 -0.00601564 0.00018737 0.00012258
O 8.12721104 14.81153928 9.34004851 0.00203396 0.00033330 0.00633935
O 6.57242350 19.13255025 8.06667943 -0.00080309 -0.00089597 -0.00010640
O 10.86229495 14.28813504 2.34448204 -0.00696767 0.00304565 0.00508505
O 12.16100787 9.63250386 3.49309741 0.00296164 -0.00270029 -0.00320169
O 6.05626420 18.11504946 14.17761309 -0.00542037 -0.00050294 -0.00286755
O 7.13408070 13.60882928 15.64555941 -0.00169745 -0.00648162 0.00315515
O 9.88591555 10.83735952 21.32012815 -0.00320786 0.00138996 0.00615670
O 8.53790468 15.56650693 20.15723543 -0.00828668 -0.00086125 0.00366518
O 6.69479065 14.47320860 21.69564161 0.00086628 0.00388616 -0.00423512
O 4.89692983 19.41244564 20.10953850 -0.00149639 0.00465616 -0.00069273
O 9.38479611 13.92898646 14.44420473 0.00274819 -0.00405113 -0.00830742
O 10.83050618 9.65316828 15.27734748 0.00123067 0.00318983 -0.00105168
O 4.48474651 18.13042947 26.23320083 0.00967866 -0.00264211 -0.00249535
O 5.52696446 13.53630294 27.08348352 -0.00780765 -0.00631923 -0.00045198
O 8.07397690 10.86861834 33.11507089 -0.00317112 0.00965831 -0.00576797
O 7.04863392 15.92212005 32.23822137 0.00695356 0.00081990 0.00251921
O 4.91220301 14.61830039 33.07787368 0.00692542 -0.00688137 0.00471922
O 3.47473508 19.66840060 32.05706956 -0.00328672 -0.00118800 0.00169667
O 7.80922590 14.72971252 25.98181126 -0.00297747 0.00404696 -0.00532332
O 9.28456998 9.94561085 27.67870355 -0.00281046 0.00196232 0.00277214
O 7.63706996 27.84860371 2.68245203 0.00604708 -0.00209427 -0.00317982
O 8.85749373 22.84784670 3.42099786 -0.00046231 -0.00427356 0.00147647
O 11.37646445 20.44588025 9.35911444 0.00049112 0.00805774 0.00363409
O 10.18683460 24.56876242 7.83221948 -0.00140897 -0.00479439 -0.00339205
O 8.29027030 24.32624098 9.47012189 0.00191450 -0.00157685 -0.00848606
O 6.32984499 28.82921704 7.66148986 0.00099858 -0.00039485 0.00324427
O 10.71381274 24.11096394 2.13889566 0.00635816 0.00606133 -0.00279181
O 12.43440088 19.07746600 3.36817788 0.00013669 -0.00229318 0.00512046
O 5.73042176 27.89484183 14.06081645 -0.00710741 -0.00580802 0.00498086
O 7.19346796 22.78026874 15.18460263 0.00519232 0.00449704 -0.00256484
O 9.76581685 20.65681341 21.22217790 -0.00174739 -0.01070277 -0.01146840
O 8.72772310 25.13299883 19.92764659 -0.00923748 -0.00049707 0.00109589
O 6.51607494 24.31839289 21.30365177 -0.00063838 0.00210846 -0.00207264
O 4.98440345 0.38565327 20.06292846 0.00026217 0.00395350 0.00389682
O 8.93309507 24.29776786 13.90033326 -0.00315423 0.00103832 0.00441130
O 10.72074390 19.51051761 15.47995700 -0.00079734 0.00220118 0.00318006
O 4.45760935 28.26127246 25.87025179 -0.00336236 -0.00328841 0.00194465
O 5.43280542 23.21942391 27.24518174 0.00104123 -0.00545783 -0.00411200
O 8.12918914 20.72990602 32.92046437 -0.00233889 0.00425768 -0.00080865
O 6.83557124 25.18901937 32.11716268 0.00665819 0.00100714 0.00626228
O 4.79313412 24.26864629 33.37756727 -0.00254028 -0.00147915 -0.00151420
O 3.47408474 28.86850894 32.18010197 0.00396262 0.00416205 0.00832966
O 7.49957035 24.44306166 25.86049632 0.00342173 -0.00453752 0.00660238
O 9.13972157 19.57337308 27.53392996 -0.00675682 -0.00507822 0.00115601
O 14.46786362 8.71909090 2.72539447 0.00365158 -0.00222996 0.00069314
O 15.62835852 3.52411086 3.66716959 0.00289542 0.00417280 -0.00151899
O 18.16672139 0.93120395 9.51074181 -0.00375636 -0.00420288 -0.00226297
O 17.02889233 5.64675286 8.44109213 -0.00100279 -0.00005422 0.00383149
O 14.97106158 4.55534248 9.62445927 0.00954038 0.00605461 0.00238005
O 13.53796900 9.70819152 8.56278046 -0.00071952 0.00210284 -0.00218955
O 17.51255330 4.64077133 2.37994475 0.00147577 -0.00570757 0.00295657
O 19.19702612 28.75745024 3.69069384 -0.00102338 -0.00136966 -0.00039067
O 12.83089771 8.36195272 14.23361283 -0.00303054 0.00173907 0.00431704
O 14.04231374 4.09964309 15.29980723 0.00398673 0.00144225 0.00186373
O 16.55794265 1.03144148 21.43562372 0.00142894 -0.00510189 -0.00609523
O 15.41121031 6.14177606 20.30687126 -0.00001985 -0.00213847 0.00659153
O 13.33189651 5.13107094 21.35038244 -0.00125658 -0.00257912 -0.00669415
O 12.04638059 9.88137716 20.00337832 0.00221549 -0.00256169 -0.00129859
O 16.18585360 4.61582543 14.25025406 0.00416792 -0.00422433 0.00108358
O 17.50877101 0.00880139 15.50109531 0.00510450 -0.00336167 0.00057480
O 10.99556785 8.68089389 26.16245091 -0.00387092 -0.00330534 0.00593593
O 12.48520450 3.78284310 27.47675780 0.00107458 0.00467255 0.00378173
O 15.13295084 1.06619385 33.61898861 0.00468508 0.00179479 0.00683679
O 13.85446781 6.32642480 32.49531074 -0.00338019 -0.00238751 0.00680953
O 11.85834345 5.32881126 33.67822063 -0.00112820 0.00139069 0.00164197
O 10.32280588 9.67286605 31.89191754 0.00287954 0.00498463 -0.00250323
O 14.63931012 4.83582473 26.03465889 -0.00209190 -0.00541922 0.00120027
O 16.22800857 0.09237415 27.74213825 -0.00395051 -0.00278507 0.00385779
O 14.61388830 18.32270718 2.18614555 0.00162392 -0.00169821 -0.00639674
O 15.63804372 13.50098893 3.79184707 0.00270868 -0.00146890 -0.00691123
O 18.62833549 10.66225832 9.38540677 0.00394307 0.01106022 -0.00677672
O 17.01502129 15.58300799 8.35907246 -0.00601414 0.00056978 -0.00187265
O 15.13306832 14.23854648 9.79249664 0.00194416 0.00373345 0.00617760
O 13.41634425 19.44447472 8.31230101 -0.00104934 -0.00531598 0.00018771
O 17.69829019 14.39104610 2.30084747 -0.00065362 0.00363603 0.00154916
O 19.16054753 9.43427641 3.81059837 0.00309691 0.00120562 -0.00367395
O 12.85300190 18.08725162 14.61078642 0.00029658 0.00180178 0.00264008
O 14.09342110 13.38324934 15.15219288 -0.00149076 0.00039203 0.00399016
O 16.86053121 10.69541494 21.22870734 0.00145900 0.00127139 -0.00461868
O 15.53148536 15.11277073 20.12885240 0.00325832 -0.00064867 0.00420758
O 13.37084384 14.75835819 21.55250334 0.00134794 0.00468050 0.00466882
O 11.89837928 19.25356805 19.83159801 0.00352157 -0.00586229 0.00175271
O 16.18470013 14.29085257 13.95933143 0.00300902 -0.00630830 0.00200934
O 17.72779105 9.42583431 15.36646628 -0.00260292 0.00271592 -0.00305390
O 11.09966276 18.31778994 26.37337532 0.00250844 -0.00494270 -0.00174994
O 12.64565440 13.33540309 27.11452554 0.00283362 -0.00264408 0.00340408
O 15.34013941 11.00638625 32.95737956 0.00012772 0.00032058 0.00415357
O 14.10203895 15.58856065 31.82739835 0.00086666 0.00309979 0.00445471
O 11.92677032 14.72228099 33.23891831 0.00175564 -0.00472734 0.01140826
O 10.33455109 19.58028638 31.84052070 -0.00246365 -0.00070259 -0.00462403
O 14.74621422 14.18366129 25.91514278 -0.00317493 0.00212019 0.00354104
O 16.04939731 9.85514896 27.47054097 0.00917256 0.00731792 -0.00604792
O 14.57986890 27.77363104 2.55712280 -0.00050521 0.00460830 -0.00107068
O 15.68154511 23.11975156 3.48915571 0.00180058 -0.00192100 -0.00171801
O 18.10075401 20.26828540 9.67138077 0.00493916 -0.00076495 0.00196900
O 17.03369343 25.10276822 8.59381874 -0.00365573 -0.00031048 0.00246078
O 14.93566862 24.16498647 9.73390345 -0.00441682 0.00024515 -0.00136428
O 13.34963083 0.08361762 8.56754924 0.00045420 -0.00106022 0.00572971
O 17.63391607 23.94444162 2.21714529 -0.00222744 0.00182965 -0.00410399
O 19.31328983 19.17130267 3.67959513 -0.00074685 -0.00272325 -0.00332964
O 12.86489689 27.59735033 14.53100215 0.00098580 0.00042176 -0.00795252
O 13.70635837 23.42479895 15.42602122 -0.00430485 0.00310679 0.00596346
O 16.50162370 20.60723318 21.29820061 0.00440233 -0.00122121 -0.00289417
O 15.57620947 25.41989879 20.47495169 -0.00553758 -0.00206892 -0.00213861
O 13.45561654 24.58023969 21.69264843 0.00058063 0.00297173 -0.00174342
O 12.01968893 0.52313060 20.10260658 0.00061678 0.00381430 -0.00164144
O 16.00808353 23.88551883 14.22288635 -0.00474931 -0.00226979 0.00681250
O 17.92665304 18.88220395 15.86088835 0.00285568 0.00013507 0.00006807
O 11.16172612 27.76584869 26.55868325 -0.00078417 0.00191896 0.00102020
O 12.44141293 23.15054769 27.24280886 -0.00470554 -0.00244281 -0.00226487
O 15.14045703 20.36594218 33.18442589 0.00195003 0.00200122 -0.00229142
O 13.96231649 25.34432352 32.37771140 0.00526175 0.00282716 -0.00030895
O 11.76539452 24.23301642 33.39616484 0.00282949 0.00296336 0.00864858
O 10.18094750 0.23676074 32.21079290 -0.00524017 -0.00171663 0.00393733
O 14.77716295 24.15646713 26.34958154 -0.00008835 -0.00002437 0.00047302
O 16.15838571 19.24614748 27.18334764 -0.00141548 -0.00377078 0.00544442
H -0.03107905 9.10701513 2.88362819 -0.01487171 0.01536794 0.00974152
H 2.63702860 4.16000291 3.02468384 0.01640770 0.00271538 -0.01975071
H 5.37672299 0.78263563 8.78405109 0.00179561 0.00847002 0.01289294
H 2.67702384 5.35438986 8.39897643 0.01981905 -0.01409476 0.00687896
H 5.55736369 8.12139320 0.79600275 -0.01627243 0.00987439 -0.02957821
H 3.65593866 3.78796323 5.19809568 -0.00195228 0.01556705 -0.00935041
H -0.61436448 0.93634414 11.49321308 0.00920752 -0.01092750 0.01888607
H 1.41634360 6.47987009 6.69289245 0.03650027 0.01094428 -0.00609742
H 4.00362652 6.39747555 10.89552619 0.01353578 -0.01875388 0.00159263
H 3.78000771 2.12493947 7.11808227 0.01134163 0.03239454 -0.01540990
H 1.14132744 3.49444322 1.22444685 0.01668028 -0.05447382 -0.01536328
H 1.41076617 8.00533373 4.80355442 0.01367185 -0.03223636 -0.02730503
H -2.05244119 5.65737551 35.52123747 -0.00949674 -0.01435932 -0.02781169
H -0.00969280 0.44280669 5.88022601 -0.01250016 0.01104621 0.00844244
H 2.58057524 4.10757366 11.86430242 0.00331019 -0.01717988 -0.01791550
H 5.39277187 9.20241288 5.58403731 -0.02317078 0.00168139 -0.00805879
H 2.89230394 7.06021688 1.67900145 0.03066197 -0.00677667 0.01410343
H -0.19961465 2.02970262 4.06517607 -0.00379335 0.01757514 0.00890108
H 2.60728377 3.01650909 9.83753956 0.02800083 0.01877532 0.00082417
H 5.56141018 7.44662116 7.40753738 -0.00694037 -0.00491204 -0.01464021
H 4.96828811 4.81832549 9.60102624 -0.02448150 -0.03040012 0.00792546
H 2.94398914 0.00692893 7.98846263 -0.00917187 0.02154182 -0.00589682
H 0.09966980 5.02896843 2.23479409 0.00952264 -0.00098258 -0.00039344
H 2.32935903 9.52819801 3.54901125 0.00346544 0.00924348 -0.00938114
H 7.26590536 2.80564472 8.14583462 0.00139838 -0.00295890 0.01911390
H 2.40118046 8.48273987 9.70064527 -0.01663449 -0.02273691 0.01202784
H 18.23162432 5.14227695 4.68643240 0.00681101 -0.01628863 0.00894474
H 4.28328528 0.80830524 1.47015806 -0.02366322 -0.02056533 0.02985562
H -0.51575791 2.63760070 8.13499555 0.00664581 0.01239176 0.01279858
H 1.18980695 7.34723739 9.00169111 0.00084941 -0.02346598 0.00571997
H 4.81342533 7.02410348 3.15171175 0.00328006 -0.02409779 -0.00711259
H 2.79259888 1.42531366 2.30781491 -0.00768615 0.00803348 -0.00847822
H 0.16986538 3.96252457 7.03164359 -0.01097422 0.00405992 0.01677314
H 0.70749697 8.29493785 10.34261802 0.00152928 -0.01560222 0.00991347
H 4.37206456 5.87969728 4.32577523 0.00371887 -0.00842305 -0.03645905
H 4.28950585 2.24647113 2.53010662 0.01048178 -0.01172771 -0.00164405
H -1.46802164 9.03809941 14.38609581 -0.00372832 -0.01916133 0.00749656
H 1.12721188 4.07831569 15.25512758 -0.03885037 0.01664368 0.00293504
H 3.51185099 0.76952530 20.82266682 0.00975220 -0.00933373 -0.00620683
H 0.56952542 5.35141668 20.71280948 0.00947719 0.01072188 0.00622269
H 3.96204774 8.08038830 12.85024884 -0.02272559 0.02342027 -0.02485747
H 2.37291584 3.25967873 17.24446503 0.00107983 -0.00510126 0.02528873
H -2.01247164 1.32498670 23.05210623 0.02022925 -0.02302981 -0.01866627
H -0.47049279 6.08739797 18.56812083 -0.02774115 -0.01264811 0.01230687
H 2.29932443 6.60541333 22.86452445 0.01535459 -0.00829655 -0.00914619
H 2.34429796 1.67011510 18.95667162 -0.00072594 -0.00930073 -0.00086989
H -0.32116339 2.54298063 13.06232318 0.01353567 -0.01566362 -0.03390958
H -0.18507495 7.36642589 16.52408638 0.02166570 -0.02113027 0.01424625
H 1.41524146 5.34600242 11.67092085 -0.01770346 0.01007044 -0.01133053
H -1.77911144 0.81115920 18.14685456 -0.03098591 0.00217265 0.01754432
H 0.93618130 4.38720796 23.81209285 0.01565351 -0.02341981 0.00285158
H 3.70820172 8.60073294 17.76070940 0.01185584 0.00523203 -0.01368627
H 1.53152386 7.11759779 13.26961680 0.01964935 0.03494834 -0.01176148
H -1.70591491 2.16351614 16.23370586 0.01762116 -0.00795467 -0.01454914
H 0.83307421 2.76818977 21.99888151 0.00503720 -0.01849334 -0.00153674
H 3.52097364 6.94900222 19.61803763 0.00019022 -0.00266962 -0.00496329
H 3.37961984 4.74955651 21.76170529 0.02347104 -0.00133100 -0.00236688
H 1.21940772 28.78848206 20.17012775 -0.02793969 0.01232816 -0.04910706
H -1.24591589 4.73618131 14.02241216 0.03342164 -0.01668135 0.00077665
H 0.86869338 9.11047364 15.46956726 0.01634260 0.00534172 0.00018720
H 4.02276676 3.48644338 20.10770277 0.00751165 0.01468301 -0.00437833
H 0.63617187 7.84406025 21.44008374 -0.03086517 0.00269204 0.00736266
H 18.43714861 6.78501776 15.34391013 0.02507163 0.02306207 0.00747701
H 2.91505688 1.37102095 13.48197482 0.00093900 -0.00258944 0.01825299
H -1.75444485 2.52253679 20.68452454 -0.00794082 -0.00475231 0.00259298
H -1.02234327 7.21089612 21.17652374 0.00188745 -0.00040561 0.04676354
H 4.28045947 5.33433371 16.31315152 -0.01252084 0.00612026 -0.00634055
H 1.20540653 1.36146940 14.20406437 0.00811077 0.00376330 0.01201125
H -0.91811556 3.72315783 19.64847264 0.00129752 0.02698727 -0.00740153
H -0.77669725 8.54424198 22.34697921 -0.01706380 -0.00289358 0.00359189
H 4.42632641 6.76805865 15.17187799 -0.02578578 0.00019268 0.03057746
H 2.62999411 2.35870761 14.87004942 0.01767251 -0.00908058 -0.01111969
H -3.30680835 9.04558333 26.54817227 -0.01286660 -0.01636243 -0.00791485
H -0.41391620 4.14158225 27.11581980 0.00161897 -0.00557335 -0.01052256
H 2.09457449 0.47258197 33.00606511 0.00065528 0.00323510 -0.00870616
H -0.35520666 5.41234890 32.52975262 0.00602472 0.01630687 -0.02325098
H 2.41409413 8.31435030 24.50572645 0.01634824 0.00463178 0.00589135
H 0.70012939 2.93022979 28.68829877 0.00204319 0.00842178 -0.00527142
H -3.53499160 1.60699104 35.30006696 -0.00460293 0.00607672 0.00318377
H -1.75781229 6.29694010 30.64601296 0.00032414 -0.01198110 -0.00508600
H 0.70997090 6.61499080 34.52673855 -0.00730847 0.02277352 0.01070103
H 0.69867689 1.56502114 30.67767570 -0.00063295 -0.00441251 -0.03442322
H -2.07235984 2.80269844 25.09067997 0.01287511 0.00843758 -0.01549533
H -1.69985284 7.64372432 28.59711928 -0.00280428 -0.01742186 0.01608084
H -0.74843451 5.23664446 23.74671027 0.02569680 -0.02066754 -0.00629308
H -3.52326809 0.84924457 30.17517102 0.01029298 0.00397293 0.02029290
H 4.10610256 4.15813561 0.23042777 -0.01361647 0.01039791 -0.02242160
H 2.20927984 9.05252956 29.42005911 0.02240954 0.00635453 0.00615093
H -0.48666981 6.98382672 25.45697596 0.01053063 0.03757816 0.01099945
H -3.51411750 2.32286453 28.23311206 0.00482787 -0.00461096 -0.00742185
H -0.47182868 2.54781777 33.89901699 -0.00267416 -0.00307231 -0.00753070
H 2.43319042 7.52310387 31.33355774 0.01274194 -0.01245950 -0.00733048
H 1.93039867 5.12994240 33.00962862 0.01527411 -0.01545022 -0.00776376
H -0.35514171 28.91961992 32.02278972 -0.01287111 0.01498714 -0.02163483
H -2.73580538 4.81321244 26.02016029 -0.00923524 0.01767339 -0.00087549
H -1.02015400 9.76151039 27.59938214 0.01709474 -0.01353446 0.02203913
H 2.76048188 2.61984163 32.44976539 0.02194539 -0.01728455 0.00467841
H -1.87693209 7.55597589 33.03798888 0.02073143 0.00448205 -0.01651490
H 15.11579261 6.04555853 28.11777478 0.00405602 -0.01365580 -0.00941847
H 1.01919164 2.17178312 26.21567386 0.01070399 -0.03079891 -0.00777248
H -4.24049742 3.30354809 32.20340912 0.00601052 0.00200865 -0.02757576
H -2.70064865 8.81344635 34.05653211 -0.00627666 0.02453885 0.01628104
H 3.17249899 5.78895489 28.00410467 0.01981216 0.01027741 -0.01457017
H 1.72167070 0.83287500 25.22044290 0.01618836 0.00655232 0.03520581
H -2.48187876 2.86227293 32.20814474 0.01314803 0.00291800 0.02728649
H -0.91624308 8.90925413 33.69759521 -0.01243679 -0.01112718 -0.02335754
H 1.62415681 6.78155663 27.54187207 0.01635320 0.00348127 -0.00487433
H -0.01576450 0.79578009 25.59028780 0.01358174 0.01495759 -0.02742495
H 0.13264358 18.69699444 2.92516161 -0.02730799 -0.00377355 0.02284069
H 2.98737677 13.58461448 3.20297235 -0.00179011 -0.00117971 0.00769876
H 5.41675547 10.10241934 9.10703997 -0.01476494 -0.00539026 0.00614669
H 2.53859663 15.08709867 8.66930569 -0.00576638 -0.01790483 0.00026922
H 5.69741037 17.66922745 0.79802382 -0.00291338 -0.01364973 -0.01210478
H 3.92877492 13.19118461 5.31389660 0.00444898 0.00259454 0.01879269
H -0.04315518 10.79111571 11.30971216 0.02407700 -0.00037316 -0.01704658
H 1.34946544 15.82114024 6.56728949 0.01903469 0.01094633 -0.00969482
H 4.10042430 16.12034939 10.66401935 -0.00476603 -0.00787812 -0.00033687
H 4.06249153 11.70941501 7.10218580 -0.01952557 -0.00748627 0.00553422
H 1.17888056 12.55350771 1.13988225 -0.02440407 0.01124819 0.02502644
H 1.30387982 17.51136149 4.90768789 0.02534812 -0.01665461 -0.01652937
H -1.79510715 15.30712580 35.43022752 0.00288431 0.00868011 0.01901404
H 0.07012603 10.33998596 6.11807729 -0.01473238 -0.00348217 -0.02674165
H 2.63721040 13.61637845 12.02041700 -0.01311861 0.01295423 -0.02012565
H 5.35489971 18.54594983 5.72238315 0.02825430 -0.02147627 0.00493271
H 2.93417434 16.95828295 1.61852533 0.03038362 0.03090940 0.01311779
H 0.08009665 11.84497639 4.08138330 -0.00318623 0.01216555 -0.00571117
H 2.68890145 12.24115119 10.17479140 -0.00369940 0.00342410 0.00530762
H 5.29021669 16.79298710 7.55825959 0.00763384 0.02076941 -0.02021462
H 5.04121884 14.30946316 9.79761935 0.00505892 -0.00771176 -0.00062297
H 2.97038427 10.00627565 8.41382386 0.00261619 -0.00519494 0.00584383
H 0.27439133 14.66990592 2.09123114 0.00373850 0.01211315 0.00769568
H 2.43579164 19.41257478 3.68556954 -0.00329634 -0.01550763 0.01301884
H 5.81165388 13.39357839 7.52619420 -0.01434355 0.00144598 0.00107290
H 2.02469782 17.70365192 9.26610028 0.00967310 0.02007655 -0.00217912
H 19.94027894 16.27649965 3.55366291 -0.01113749 0.01046516 0.02209947
H 4.68019223 12.03191260 2.56088956 -0.00511309 -0.04147160 -0.00905801
H -0.96009432 13.34512324 7.75835369 0.00876805 0.02505098 -0.01473637
H 0.29945599 17.23780042 9.34821004 -0.02220140 -0.00592640 0.01628235
H 5.21381045 15.33915225 4.72730049 0.00317530 0.01608605 0.02669528
H 4.40148840 10.84688294 1.30859475 0.00983191 0.01432276 0.01122973
H 0.08597655 12.16037605 8.67287489 -0.02363252 0.00083832 0.01220805
H 0.80915748 18.31407781 10.49254878 -0.01309633 0.00631874 0.00235810
H 6.82392564 15.24221438 3.93538945 -0.00791300 0.01783871 0.01886790
H 3.01017060 11.27234166 2.32254569 0.01088750 0.00390851 0.01449258
H -1.64807571 18.48663889 14.61166551 -0.02786871 -0.01366820 0.01512561
H 1.40693995 13.60482724 14.89593660 0.00624856 -0.00682739 0.00208215
H 3.75244546 10.33098321 20.88302707 -0.01897222 -0.01190498 -0.02127273
H 1.25264723 14.89626556 20.55313644 0.01977997 0.00302155 0.00218112
H 3.98416643 17.63443556 12.47692249 0.00472023 0.01008371 0.01564448
H 2.39419252 12.91281573 17.17457933 0.01168547 0.01134128 -0.00341860
H -1.82468051 10.80858885 22.89645067 0.01147779 0.02098544 0.00633084
H -0.16072617 16.06558752 19.04283532 0.01097466 0.01584353 -0.00845068
H 2.60857485 16.13189374 22.50989984 -0.01645580 -0.01178943 0.01350120
H 2.40778578 11.05677608 18.78972951 0.00881405 0.01021009 0.00397732
H -0.26090382 12.18606168 13.23872782 -0.00216906 0.00218783 -0.00401087
H -0.11102080 17.21604428 16.80063206 0.01397917 0.00790451 -0.00371838
H 1.20799733 14.81468046 11.96832343 0.01204419 0.00465034 0.00377112
H -1.57204481 9.96348973 17.83671103 0.01155220 -0.00954929 -0.01843552
H 1.07524940 13.90696052 23.78347561 -0.01126316 -0.01576144 0.00698364
H 3.83920671 18.47908194 17.63996063 0.01083482 -0.02350014 0.01514078
H 1.25082128 16.28753678 13.92109604 0.00033725 -0.00813021 -0.00720345
H -1.39293494 11.46163626 15.86044138 -0.01377667 0.02300289 -0.02910074
H 0.97282081 12.54571484 21.90853658 0.01277728 0.00610242 0.00394645
H 3.97226257 17.01051280 19.53861418 -0.02247532 -0.00332050 0.02040670
H 3.63934265 14.15895450 21.83508660 0.00736834 0.00704702 -0.00870767
H 1.24161402 9.43688128 20.07452788 -0.03446452 -0.00213025 0.00039202
H -1.32007240 13.53679091 14.49121480 0.01469504 0.00441186 0.02039402
H 0.78037714 19.14499610 15.81194798 -0.00972867 -0.03501061 0.02783462
H 4.34221848 12.71635294 20.27104558 0.01414867 -0.00325188 0.00107448
H -0.58326462 16.95556334 21.06887158 -0.00686443 0.00831044 -0.03235427
H 16.65949048 15.15228444 16.36700836 -0.00168557 0.02384189 0.02573025
H 3.05303561 11.52372272 14.78869699 0.00448459 -0.01767725 0.00688539
H -2.33052417 13.40184819 19.69940831 0.01099897 0.00871936 0.04542675
H -0.61031709 17.92091257 22.52777787 -0.00586159 0.00853792 0.00441035
H 3.66773540 14.91451707 16.63282458 0.00517094 -0.02069223 -0.03056126
H 2.99797145 10.39165125 13.41265216 0.00846550 0.00993162 0.01161903
H -1.28922506 12.30724314 20.51535345 0.01750352 -0.00896287 -0.00848184
H 0.82580793 18.03617776 21.41091072 -0.01618087 -0.00533114 0.03035328
H 5.10882670 15.34021301 15.89624937 -0.02323311 -0.01677440 -0.01414697
H 1.48796054 10.88093931 14.21132645 0.02469830 0.00308876 0.03885368
H -3.11340162 18.63858548 26.46286008 0.01961967 0.01199199 -0.04081448
H -0.21053461 13.54443542 26.81327184 0.01710912 -0.00547895 0.00880364
H 2.14013231 10.19816062 32.93358657 -0.02522558 0.02270225 0.01141080
H -0.66752103 15.13306622 32.34049302 0.00312073 -0.00790652 -0.00619231
H 2.49825485 17.54623583 24.58132428 0.00204797 0.00839688 -0.00972934
H 1.02016561 12.95425053 28.81921521 0.00406569 -0.00671224 -0.00899079
H -3.44866357 11.17817536 34.85430417 -0.01126781 0.01704464 -0.00032531
H -1.65796717 15.71474211 30.19809506 0.00367657 -0.02265265 0.01277419
H 1.16979523 16.46756355 34.28824967 -0.05086810 0.01331651 0.01917745
H 0.85915939 11.52849159 30.87694704 0.01640799 -0.02293804 -0.01294278
H -1.70662375 12.54857803 24.71809416 -0.02186227 0.00920043 -0.00090037
H -1.46167691 17.45542321 28.34164240 -0.00419840 0.00300730 0.00925431
H -0.27471991 15.17830841 23.59661092 -0.00364100 -0.00616119 -0.02303581
H -3.11128952 10.38332664 29.84126556 0.00294998 0.01409505 0.00052311
H 4.17697666 13.96391419 0.15280104 0.01309426 0.02085566 -0.00687592
H 2.40563495 18.43168804 29.26482579 -0.02088967 -0.02904532 0.00799423
H -0.38837836 16.51169007 25.55915754 -0.01121163 0.01281606 -0.01428722
H -3.15299632 12.03606730 27.98349718 -0.01994543 -0.01178585 -0.00082151
H -0.54017272 12.45429696 33.81692196 -0.01620900 0.00510048 -0.02590512