2160
Time=43000.00000003 pbc="T T T" Lattice="20.58540811 0.00000000 0.00000000 0.00000000 29.25532799 0.00000000 -4.71422922 0.00000000 35.33731001" energy=-13793.88222951 virial="-59.58952426 -11.62750730 34.08110497 -11.62750730 -69.69954569 -10.69817319 34.08110497 -10.69817319 -71.08300556" stress="-0.00039501 -0.00054532 0.00156341 -0.00054532 -0.00095140 -0.00048407 0.00156341 -0.00048407 -0.00082753" Properties=species:S:1:pos:R:3:vel:R:3
O 0.81943732 8.69071478 2.43589832 0.00353804 0.00335498 0.00001743
O 1.85324365 3.81008922 3.64268287 -0.00303506 0.00355007 0.00048418
O 4.53850471 1.18819403 9.14423585 -0.00139345 0.00083548 0.00027404
O 3.38785011 5.95042411 8.29438548 0.00463858 -0.00187857 -0.00395687
O 1.14134036 4.99218161 9.09995415 -0.00600276 0.00009288 -0.00100685
O -0.27840712 9.67513911 8.01651112 0.00127974 -0.00018775 0.00408669
O 3.93130557 4.86303115 2.33209324 -0.00401993 -0.00852268 -0.00333985
O 5.43595986 0.18042876 3.34634666 0.00324835 -0.00018401 0.00225337
O -0.79353147 8.71519360 14.20651966 0.00525330 0.00222764 -0.00317487
O 0.30336284 3.79882158 15.21520587 0.00127851 0.00520521 0.00208911
O 2.71023255 0.72391503 21.12623830 -0.00164176 0.00360729 0.00324171
O 1.96047919 5.73095436 19.90207728 -0.00257029 -0.00448644 0.00147029
O -0.36051164 4.96423458 20.98517662 0.00290436 -0.00258942 -0.00424367
O -1.97167337 9.99819740 20.07639989 -0.00335897 0.00202902 -0.00205671
O 2.33111630 4.72388675 13.95483076 0.00004387 -0.00027051 -0.00126572
O 3.87247037 28.90575362 15.20962416 -0.00483002 -0.00243323 -0.00244706
O -2.47797743 8.47548456 25.84652473 -0.00079487 0.00284404 0.00031553
O -1.19313843 3.55685150 27.16128444 -0.00171120 0.00422140 0.00383138
O 1.43299938 1.00223859 33.27601410 -0.00439288 -0.00403190 -0.00423684
O 0.41342799 5.65033874 31.66690463 0.00483039 0.00010510 0.00531717
O -1.80867950 5.31314804 32.74528624 0.00162267 -0.00348370 -0.00194249
O -3.37600470 9.59922453 31.93866996 -0.00103095 -0.00056518 -0.00621019
O 0.90105159 4.78143108 25.80040519 0.00105371 0.00256493 0.00235267
O 2.37874373 29.07078076 27.33693461 -0.00183759 0.00571428 -0.00496021
O 0.65996519 18.91885519 2.07452693 0.00262194 -0.00695940 0.00074399
O 1.80521356 13.72201217 3.78094052 -0.00076186 0.00583812 0.00179090
O 4.54282844 10.91978666 9.52745062 -0.00372155 -0.00233354 -0.00763835
O 3.53648720 15.54100987 8.02942581 -0.00142232 -0.00334348 0.00509747
O 1.37828987 14.88592337 9.46644729 -0.00133424 0.00443798 -0.00183226
O -0.32996627 19.57194956 8.12408490 0.00203673 -0.00351857 0.00101114
O 3.83394046 14.67117781 2.58611129 -0.00168813 0.00225299 -0.01042877
O 5.38845173 9.72074088 3.54209145 -0.00481080 0.00074518 0.00549234
O -0.73606306 18.45119226 14.28492088 -0.00319569 -0.00439989 -0.00318391
O 0.45194921 13.44758956 15.19550351 -0.00220932 -0.00002746 0.00404431
O 2.93178472 10.69173587 21.31717644 -0.00609452 0.00423164 0.00163176
O 1.63430762 15.76877291 20.26973610 -0.00147984 0.00258896 0.00851652
O -0.36034208 14.43464921 21.38857051 0.00405920 -0.00094257 -0.00257490
O -2.05896176 19.63153223 20.01485150 0.00172134 0.00037446 -0.00032017
O 2.26062903 14.70801805 13.88876359 0.00581853 -0.00247200 0.00133295
O 4.09864977 9.43724263 15.40452522 0.00157762 -0.00202156 0.00215764
O -2.68561881 18.21920409 26.05453717 -0.00093631 -0.00789771 -0.00836929
O -1.17020186 13.47256558 27.07259020 -0.00274153 -0.00070951 0.00006593
O 1.31294032 11.33531331 32.89361541 -0.00236040 0.00458187 0.00127637
O 0.16370405 15.63860908 31.69135927 0.00566071 0.00501828 0.00119321
O -2.12508994 14.66516880 32.79124036 0.00378569 -0.00258267 -0.00307479
O -3.48241288 19.73098564 31.71932124 -0.00398295 -0.00028032 -0.00079168
O 0.85954365 14.76403204 25.84129476 0.00017332 0.00236529 0.00275205
O 2.46750967 9.91531179 27.31770262 0.00374419 0.00033127 -0.00046196
O 0.80341598 27.97661498 2.49755125 0.00144203 -0.00086179 -0.00105852
O 2.02995445 22.96856912 3.44484972 -0.00385430 0.00282104 -0.00484047
O 4.91564454 20.54314874 9.44062632 -0.00252882 -0.00930138 -0.00089332
O 3.66935536 25.35149356 7.90822061 0.00640926 0.00312033 0.00125224
O 1.31820055 24.69564729 9.37933009 0.00140291 -0.00559218 0.00534465
O -0.03260042 0.34710304 8.31808127 0.00143403 -0.00055583 0.00009055
O 4.20853264 24.12471299 2.27173784 0.00062189 -0.00044470 -0.00586101
O 5.62961045 19.53396336 3.53955931 0.00539859 -0.00333587 0.00046470
O -0.73664930 28.09061886 14.30365623 0.00197698 -0.00239008 0.00275425
O 0.35377286 23.42912174 15.65168990 0.00448924 0.00152012 0.00466103
O 2.85364743 20.49306760 21.23021824 0.00441310 -0.00487005 -0.00399118
O 1.77347245 25.38464614 20.13053431 0.00210471 0.00543119 -0.00325930
O -0.20592077 24.07894356 21.42705627 -0.00226727 -0.00091477 0.00310600
O -1.87164782 28.79087114 19.58278669 0.00278230 -0.00021987 0.00365978
O 2.50632187 24.08855816 14.20041534 -0.00451745 -0.00403251 -0.00186302
O 4.04633993 19.01488856 15.46445596 0.00016575 -0.00160335 -0.00486440
O -2.31155146 28.03183502 25.93394230 0.00032610 0.00005285 0.00044678
O -1.18796937 23.50787563 27.17770347 0.00146275 -0.00330512 -0.00326735
O 1.81160571 20.81311539 32.54073991 0.00370795 0.00267687 -0.00332876
O 0.07862515 25.48964714 32.01765536 -0.00033969 0.00203062 0.00415972
O -2.07952562 24.43090395 33.01916718 0.00025858 -0.00444339 -0.00520572
O -3.36070777 0.33302005 32.11380520 0.00379922 -0.00147809 -0.00206221
O 0.86600417 24.30513590 25.65413181 -0.00006373 -0.00284846 0.00204387
O 2.31389164 19.41966552 27.08614719 -0.00109260 -0.00115032 -0.00166399
O 7.44533375 8.69170364 2.34898675 0.00155917 -0.00744256 0.00116803
O 8.91194802 3.92610028 3.53388315 -0.00148387 0.00076808 -0.00399683
O 11.35000258 1.46839687 9.01011168 -0.00121579 -0.00523297 0.00030085
O 10.27171749 5.85333026 8.30112361 0.00071468 -0.00483962 0.00292025
O 8.23026042 4.84543425 9.48168505 0.00271180 0.00560455 0.00255793
O 6.64384371 9.93869524 8.08007282 0.00719386 -0.00481663 0.00275458
O 10.69542005 5.20805582 2.09601346 -0.00125711 -0.00059442 -0.00235984
O 12.35046220 0.34575824 3.70707810 0.00174199 0.00349736 0.00858691
O 6.11281239 8.46730685 14.24485075 0.00842790 -0.00302977 -0.00136828
O 7.21180724 3.74316359 15.17209595 0.00073246 0.00726978 0.00580959
O 9.81912105 1.07452144 20.82974995 0.00026184 -0.00325014 -0.00473836
O 8.75468997 6.14139975 20.14908685 0.00101780 -0.00530236 -0.00545332
O 6.73831200 4.93770451 21.22717419 0.00072944 0.00071822 0.00225895
O 5.02349344 9.59896254 19.94998063 0.00638594 0.00488897 -0.00397131
O 9.12111719 4.71051521 13.99054507 -0.00189761 0.00144135 -0.00336731
O 10.86807626 29.07593202 15.48130450 0.00830559 -0.00015685 0.00358050
O 4.35600484 8.30920428 26.24536160 -0.00169164 0.00060252 0.00505446
O 5.57476376 3.75051814 26.84001533 -0.00139193 -0.00004757 0.00187883
O 8.18038760 1.36803053 32.77379525 -0.00233087 -0.00040422 0.00679276
O 7.15190876 5.99504934 31.98453506 -0.00202079 0.00410388 -0.00295539
O 4.91049902 5.27713551 32.87089707 0.00111340 0.00130849 -0.00354445
O 3.30096907 9.93091883 31.82343215 0.00271774 -0.00011092 0.00475868
O 7.96380037 3.99656126 26.07110576 0.01062768 0.00143675 0.00314236
O 8.91429920 28.44055425 26.55409082 0.00667002 -0.00643583 -0.00576001
O 7.90441221 18.80520465 2.15212244 0.00291815 0.00096683 0.00021650
O 8.69736706 13.68387522 3.59716185 -0.00012979 0.00485879 0.00422196
O 11.47095676 11.08896877 9.28093049 -0.00116209 -0.00374240 -0.00138425
O 10.57747245 15.71859127 8.57463058 -0.00158741 0.00290602 0.00216372
O 8.12755090 14.79886591 9.25644054 -0.00228806 0.00301285 -0.00366984
O 6.72124152 19.24722781 8.26448704 -0.00469901 -0.00490388 -0.00458947
O 10.79797379 14.63054701 2.29823586 -0.00347543 -0.00269222 0.00277070
O 12.40681850 9.83421424 3.76313070 0.00311444 -0.00536602 -0.00519470
O 6.06638740 18.51235272 13.95097173 -0.00334185 -0.00320537 -0.00403139
O 7.28942958 13.32921161 15.21258087 -0.00377486 0.00146975 -0.00039548
O 9.93868742 10.89397436 21.07354229 -0.01062523 -0.00018714 -0.00250387
O 8.33647244 15.71085308 20.26743809 0.00746854 -0.00577411 0.00618424
O 6.74273546 14.32284333 21.53025507 0.00456050 -0.00085624 0.00226343
O 5.02853169 19.70935701 20.27157455 -0.00412380 0.00452977 0.00394356
O 9.12899383 14.42894402 13.96640295 -0.00463623 0.00166534 0.00039891
O 10.79405931 9.76250990 15.29480993 0.00484718 0.00394951 -0.00237902
O 4.49326654 18.21605591 26.07753760 0.00177949 -0.00396413 -0.00918240
O 5.70690648 13.43856748 27.18551504 -0.00329524 -0.00118085 0.00382241
O 8.16522740 10.89012270 32.69260526 0.01109517 -0.00230961 -0.00348274
O 7.38401547 15.59689134 31.46671266 0.00710252 -0.00012927 -0.00040083
O 5.17809140 15.16348941 32.75973946 0.00185034 -0.00251029 -0.00140790
O 3.61697560 19.26812027 31.53344116 0.00174909 0.00183045 0.00260496
O 7.70845503 14.47860370 25.72269892 0.00143546 0.00502240 -0.00359205
O 9.27417739 9.22133311 27.12139943 0.00146054 -0.00108463 -0.00769843
O 7.81029704 28.63035658 2.32698233 -0.00254514 0.00683939 -0.00123779
O 8.81118803 22.97045197 3.26619773 0.00069563 0.00313529 0.00120066
O 11.46466323 20.90232879 9.59445501 0.00180274 -0.00383678 -0.00039222
O 10.23334566 25.77997831 8.27436753 -0.00060872 -0.00558942 0.00219872
O 8.19400940 24.49381607 9.09357735 0.00128018 -0.00359983 -0.00349788
O 6.52105811 29.11073971 7.84652393 0.00220522 -0.00391659 0.00012752
O 10.86578398 24.54417172 2.11000405 0.00211301 0.00566020 0.00195630
O 12.55138507 19.58866667 3.92254553 0.00156148 -0.00032352 -0.00326576
O 6.19271685 28.23630329 13.95569685 0.00043476 0.00207698 -0.00405872
O 7.25235321 23.23394792 15.42344451 0.00703247 0.00479137 0.00467989
O 9.48878319 20.18807112 21.44761901 0.00358888 -0.00162593 -0.00947380
O 8.83708614 25.54684955 19.85659307 0.00301965 -0.00513742 -0.00350314
O 6.72690647 24.18172004 20.91085543 -0.00077947 0.00476765 0.00391512
O 4.86268581 29.24211691 19.61015652 0.00439110 -0.00025833 -0.00280209
O 9.30731768 24.14449991 14.36418148 0.00135997 0.00159635 0.00696905
O 10.77695580 18.76951043 15.27384062 -0.00062037 0.00262429 -0.00240519
O 4.42992772 28.03566936 25.82058980 -0.00253654 0.00281365 0.00259388
O 5.59783700 23.36052120 26.89227540 -0.00103506 0.00242655 0.00257744
O 8.19244988 20.51047132 33.03253096 0.00608238 -0.00079805 0.00519513
O 7.09273316 26.01749079 32.24656024 0.00014252 0.00010920 -0.00012533
O 4.84071771 24.75165277 33.02941340 -0.00487463 0.00210120 -0.00010097
O 3.23599369 0.05062881 31.66887959 -0.00482395 0.00387016 0.00030776
O 7.73060231 24.37818337 25.74925154 0.00327808 -0.00181040 0.00224947
O 9.36394084 19.80215535 27.26014561 0.00245364 0.00090148 0.00535017
O 14.20501999 8.60181978 2.53429960 0.00202150 -0.00797424 0.00514210
O 15.54511620 3.90525681 3.57055194 0.00242710 -0.00021545 0.00166854
O 18.30241187 1.03353706 9.56442083 0.00096315 0.00201080 0.00053250
O 17.06639020 6.06747954 8.33362573 -0.00479802 0.00348743 0.00071879
O 15.08786440 4.80273493 9.41925915 -0.00595932 0.00062879 0.00039139
O 13.42162912 9.87962342 8.14626329 -0.00387107 -0.00044855 0.00458283
O 17.61173743 5.00959864 2.23816524 -0.00508467 -0.00287805 -0.00341639
O 19.37953132 0.02551835 3.85767433 0.00139793 -0.00100348 0.00266306
O 12.88263560 8.94805050 13.92393478 0.00532677 -0.00752668 0.00148018
O 13.90995646 3.84895439 15.03620697 -0.00401328 -0.00214532 -0.00620405
O 17.01147970 1.25147096 20.75398266 0.00312237 0.00179171 0.00132100
O 15.40444570 5.98510813 19.93576455 -0.00096701 -0.00070933 -0.00722109
O 13.60925473 4.57502978 21.23049960 -0.00352507 0.00134116 -0.00239629
O 11.71704329 9.59095589 19.86067915 0.00343658 0.00047231 -0.00127561
O 16.11253762 5.32831725 14.01119141 0.00647430 -0.00192334 -0.00387234
O 17.72743630 0.11909203 15.38261049 -0.00240167 -0.00054909 0.00452637
O 11.27189251 8.03817704 25.88714437 0.00239910 0.00469331 0.00506097
O 12.75187296 3.85038491 27.01301998 -0.00435071 -0.00690750 -0.00038783
O 14.90736256 1.19460255 32.94874585 -0.00001045 -0.00315139 -0.00130006
O 13.74725380 5.82433638 31.95892674 -0.00411304 0.00261607 -0.00300101
O 11.83004235 4.91956029 33.40592398 0.00404120 0.00292569 0.00318818
O 10.28946100 9.63839259 31.83156082 -0.00334084 -0.00224752 0.00047441
O 14.78080357 4.49765050 25.73919735 0.00238454 -0.00184204 -0.00822312
O 16.27586481 29.01578716 26.98301701 0.00044137 -0.00165681 -0.00226677
O 14.64787384 18.49800170 2.38659623 -0.00233633 0.00334526 -0.00396196
O 15.76654228 13.60545225 3.51638379 -0.00445387 0.00055704 0.00021749
O 18.48084922 11.09360057 9.03317068 -0.00398519 -0.00147011 0.00483729
O 17.11882968 15.33428677 8.21041763 0.00176914 0.00036121 0.00395418
O 15.16736390 14.83706122 9.68644475 0.00512755 0.00441813 0.00221854
O 13.61314651 19.90139450 8.49617250 0.00626296 -0.00395156 0.00470507
O 17.55809785 14.83834875 2.17329814 -0.00593479 0.00071517 -0.00095045
O 19.12464665 9.57819642 3.59982830 -0.00028391 0.00063498 0.00048531
O 13.16502725 18.61978157 14.31108172 0.00021413 -0.00207607 0.00547071
O 14.13304304 13.56800914 15.48052339 -0.00166405 -0.00213461 -0.00014665
O 16.30067815 10.57208790 21.15265552 0.00962564 0.00023555 -0.00211749
O 15.61145911 15.56320735 20.08472951 0.00663145 -0.00190151 -0.00720558
O 13.37778065 14.75686017 21.34688382 0.00298041 -0.00022571 -0.00010521
O 11.74872683 19.68259995 20.03779117 -0.00135742 0.00627497 0.00654415
O 16.37871453 14.10175231 14.28520548 0.00003156 0.00177417 0.00150760
O 17.51331306 9.95121636 15.05333733 0.00551727 0.00115230 -0.00000330
O 11.19429558 18.12711554 26.30599788 -0.00054414 -0.00283514 0.00238219
O 12.44771912 13.21704759 27.13210620 -0.00183102 0.00034683 -0.00252675
O 15.28217792 10.77789446 33.21545051 0.00000774 0.00459473 -0.00204439
O 13.73544996 15.82512740 31.79188536 -0.00151531 -0.00631367 0.00079284
O 11.95075410 14.61233187 32.92956576 0.00162561 -0.00021824 -0.00290481
O 10.31598894 19.87343696 31.48392586 -0.00203242 -0.00034880 -0.00185531
O 14.61963841 14.28610064 26.12478881 0.00396062 -0.00153234 -0.00352893
O 16.09327433 9.34855771 27.30288948 0.00262029 0.00267654 0.00219940
O 14.36824614 28.36670443 2.53976615 -0.00040200 -0.00038398 -0.00410776
O 15.71156687 23.19485916 3.50318149 -0.00163718 0.00403152 0.00175706
O 18.26989685 20.51282570 9.61596100 0.00940771 0.00528402 -0.00408668
O 17.29858214 25.78924684 8.70663910 -0.00550130 -0.00323455 0.00191509
O 15.18067020 24.38885548 9.83426878 0.00388930 0.00029372 0.00091183
O 13.42929203 0.24972615 8.19050307 0.00235534 0.00762469 -0.00330839
O 17.88421087 24.65865561 2.41484577 -0.00615574 0.00253438 0.00157231
O 19.29025324 19.31201920 3.86893096 0.00213394 0.00088167 0.00018887
O 12.94515956 28.49722993 14.02771150 0.00014712 0.00688715 -0.00518857
O 14.09297754 23.28039524 15.43636153 -0.00393509 0.00449174 0.00520591
O 16.63201968 20.58983523 21.21999632 0.00421452 -0.00447544 -0.00523812
O 15.50750013 25.48915560 19.81288355 0.00724495 -0.00732793 -0.00255633
O 13.35943476 24.59108082 20.93507107 0.00285082 -0.00219809 0.00161442
O 12.12260243 0.23442018 19.74128402 -0.00361981 0.00587035 0.00113067
O 16.20550713 24.12721540 14.27418214 0.00250905 0.00328825 -0.00119848
O 17.84995755 19.59450492 15.48187198 0.00150018 -0.00457615 -0.00339371
O 11.49030896 28.25217588 25.68506741 -0.00034840 -0.00010983 -0.00067281
O 12.58362273 23.25544936 26.86166347 -0.00109841 -0.00616537 0.00845561
O 15.03250084 20.54084643 33.11397476 -0.00259099 -0.00418808 -0.00165670
O 13.73621867 26.01226071 32.11984597 -0.00353350 0.00219501 0.00118062
O 11.82483514 24.43203481 33.22125498 0.00028086 0.00836460 -0.00134112
O 10.20848367 0.32319485 31.69657163 -0.00533699 -0.00012496 0.00217286
O 14.54692301 24.39523334 25.58203351 -0.00270747 -0.00295227 0.00123767
O 16.14399988 19.72986081 27.16631870 -0.00179596 0.00829173 -0.00544837
H -0.06727332 9.10029048 2.77246939 -0.03346432 -0.01952321 0.00547320
H 2.67486283 4.18535295 3.20917009 -0.00378257 0.00386048 -0.00647398
H 5.36478512 0.66733677 8.97264512 0.01764232 -0.00361536 -0.00115941
H 2.50795091 5.47153599 8.62152350 0.00272763 0.03496874 0.00500012
H 5.53367783 8.33331877 0.79750548 -0.00627422 0.00738819 0.02173165
H 3.92691588 3.44277997 5.12793382 -0.00999354 -0.02348987 0.01484472
H -0.45446119 1.39688949 11.30355567 -0.01520311 -0.00056701 -0.01362530
H 1.38580317 6.33024437 6.52007723 -0.01037211 0.00173495 -0.00191512
H 4.03751809 6.71342339 10.63672201 -0.00533986 -0.00774220 -0.00859318
H 4.06347058 1.78544912 7.05731295 0.00600714 0.01609040 0.00095658
H 1.08441241 2.74462890 1.30728847 -0.00798946 0.02356930 -0.00970017
H 1.35100560 7.83501830 4.69270267 -0.01448755 -0.00900752 0.01192695
H -2.02752189 5.34895417 35.24517095 0.00176383 0.00205742 -0.00960326
H 0.11979114 0.48291289 6.22397880 0.02097410 0.02749061 -0.00530550
H 2.40725559 4.17102253 11.53551990 -0.00865139 0.02303260 0.02686080
H 5.13455575 9.36341205 5.82009033 -0.01272594 0.01862745 -0.00256613
H 2.56462394 6.77799978 1.96892609 0.00818325 -0.00994649 0.01313829
H -0.04131933 2.13073723 4.26109698 -0.02682427 -0.01877627 -0.02332236
H 2.58305927 2.92256224 9.78239650 0.00976316 0.00373497 0.01207764
H 5.31644611 7.47118161 7.53912755 -0.00786887 -0.00876982 0.02461415
H 5.10707320 4.90837235 9.34953672 0.01680848 -0.01205221 -0.00422951
H 3.08066034 29.20346114 8.00246221 0.01454969 0.00498826 0.00452774
H 0.15672241 4.61873522 2.46126191 -0.01995564 0.01929154 -0.00658173
H 2.20695629 9.75859758 3.89960535 0.00758335 -0.00076161 0.02150848
H 7.85094458 3.21190129 7.82023199 0.01707911 0.00589142 0.00003824
H 0.39941238 8.72674562 10.27997851 0.00710961 -0.01279578 -0.01019374
H -0.43939023 6.08028349 4.11892889 -0.00573944 -0.00149536 -0.01244431
H 4.60847345 1.93246730 1.80803539 0.01755469 0.00785286 -0.02800614
H -0.22440221 3.84066746 7.10607972 0.00358763 -0.01210695 -0.03107635
H 2.11744249 8.48290937 9.87171043 -0.02249854 0.01657368 -0.02339111
H 4.25809033 6.60136574 4.13540121 -0.01188672 -0.00114452 0.02599620
H 3.58034600 0.46279584 1.26206088 -0.01832476 -0.01484817 0.01531646
H 18.96406223 3.57985528 8.17812065 -0.00530221 0.00228775 0.01689621
H 0.90858082 7.37705981 9.18687660 0.01923124 0.02634209 -0.02365586
H 5.71081577 5.45927666 4.74379384 -0.00486092 -0.00053495 0.01374678
H 2.86525585 1.82261915 2.30803680 -0.01574934 0.00781292 -0.00898443
H -1.60666222 9.28694348 14.37337961 -0.00274311 -0.00138276 0.00662182
H 1.11778527 4.15567492 14.81919716 0.01597254 0.00568821 0.04171495
H 3.58603035 0.27394726 20.87266229 0.01397414 -0.00101016 -0.03184809
H 1.04418092 5.57629371 20.38606603 -0.01819421 -0.01426602 -0.01792677
H 4.08810727 8.11082239 12.41397438 -0.00609165 -0.01243644 -0.03480552
H 2.27585937 3.44755382 16.84410784 -0.00063622 -0.01203242 -0.03105212
H -1.70112328 1.24638209 22.67477307 0.02409592 0.01309956 0.00896133
H -0.14021478 6.41770916 18.52514081 -0.02445857 -0.00314336 -0.02431149
H 2.67602662 6.69639014 22.40039151 0.00401567 0.00871054 0.03237628
H 2.17129499 1.93017147 18.91518323 0.01201795 0.01175742 -0.01114999
H -0.52875148 3.13508811 13.14002591 0.01634307 0.00806845 -0.02580582
H -0.29108455 8.10674836 16.74582449 0.00366926 -0.00991685 -0.00681091
H 1.11326718 5.47607909 11.58089506 0.01096869 -0.00280912 0.00647827
H -1.66763390 0.55804288 17.84732371 0.00641507 0.00739535 0.01528856
H 1.01721098 4.33495676 23.40088179 0.00407784 -0.02206493 -0.01528312
H 3.86342050 9.06404446 17.59524812 -0.02122230 -0.02246628 0.00292006
H 1.37447741 7.28137060 13.51448749 0.01754472 -0.01534395 0.00929938
H -1.70730427 2.10578430 15.84753318 0.01207047 -0.01172101 -0.01457963
H 0.91189687 2.60705482 21.65954550 -0.03492113 0.01525941 0.00336710
H 3.97068223 7.36198663 19.16183619 0.02925328 -0.00710324 -0.00143420
H 3.60811529 4.91835490 21.27860223 0.00619473 -0.00421674 -0.02304866
H 1.24017985 0.18956698 19.96068271 -0.00513533 0.00212835 0.00416812
H -1.31687106 5.01690428 13.93862321 0.00372145 -0.00156200 -0.01562011
H 0.89323859 9.94032930 15.62725227 0.00990981 0.01129628 0.00877150
H 6.13506901 3.71492372 19.09294273 0.00203408 0.02563238 0.00782175
H 0.41267704 8.84047458 21.91051364 -0.01636837 -0.00274490 0.04242533
H 17.27856490 5.52406201 16.45736087 -0.00383693 -0.00759528 -0.01850641
H 1.46268729 1.36106973 13.85977356 0.01809940 0.03871934 -0.00096402
H -1.05914057 3.57205255 19.03043242 -0.00586034 0.00251753 -0.00803678
H -0.48990620 7.61689458 20.87520581 0.01018404 -0.00041952 -0.00102505
H 3.39129256 5.71192762 16.25722036 -0.00181487 0.00219536 0.00273754
H 2.94472898 2.13495668 14.40923195 0.00268969 0.00134207 0.01349425
H 17.84061391 3.96368699 19.01093993 0.00192414 -0.01260490 -0.01058962
H -1.29880897 8.61160520 22.12381614 -0.00740601 0.00648554 -0.00281575
H 5.06170342 5.95200274 15.48637761 0.00470965 -0.01559125 -0.02016282
H 3.16395049 1.03063007 13.18761214 0.00586087 0.00560446 -0.00318833
H -3.32132008 8.81323395 26.25522213 0.01528639 0.00188128 -0.02698422
H -0.30917269 4.00082660 26.85983485 0.00580660 -0.00547394 -0.01877863
H 2.31548821 0.60099774 32.91410757 0.00619749 -0.01191291 -0.00637702
H -0.46884580 5.49089926 32.13918908 0.02383843 -0.00479162 0.00563987
H 2.41792727 7.79657777 24.72217677 -0.03033317 -0.01358591 -0.00613800
H 0.76989909 3.20428832 28.72916742 -0.00109239 0.00168450 -0.01372419
H -3.75348813 1.30725452 34.59785520 -0.00368583 -0.01822296 0.00533171
H -1.47696440 5.98905466 29.93947652 -0.00022554 0.00375695 0.01411801
H 0.70381530 6.87372899 34.16426119 0.01770045 0.00284033 -0.00181608
H 0.78081479 1.79090707 30.84333478 0.00521397 0.00373814 0.01622397
H -1.84763415 2.68319867 24.66503009 0.00016447 0.00309665 -0.00848273
H -1.60831397 7.75702016 28.24466335 0.00523554 0.00909355 0.00950405
H -0.43889528 5.57983489 23.05285357 -0.00820933 -0.00467426 -0.00924968
H -3.12224055 0.38831412 29.70411603 -0.00383081 -0.02726722 0.02018503
H 4.27865825 4.52542720 0.00432481 0.01216406 -0.01265996 0.00636446
H 2.23445409 9.14526474 29.47876446 -0.00166667 0.01307482 0.00974196
H -0.43324725 7.03220997 25.09194678 0.00122692 0.02761840 -0.00866126
H -3.20034068 1.91583758 27.77356584 -0.01507074 0.01913917 0.00201383
H -0.58095258 2.42999848 33.92502990 0.02011696 0.00165340 -0.00075684
H 2.43156913 7.20232898 31.10310868 -0.00332167 -0.01480396 -0.01929687
H 1.91509977 5.16086441 32.84113158 -0.01960284 0.01242873 -0.03683832
H -0.15534346 0.07016906 31.85657577 -0.01834409 0.00634131 0.01832666
H -2.71909724 4.61799630 25.65642316 0.01122830 0.00697221 -0.00354561
H -0.70908913 9.59991243 27.34450965 0.02219019 0.00132510 0.03708655
H 2.66729515 3.02061856 32.06565924 -0.00958535 -0.00940716 -0.00011890
H -1.87934582 7.63199786 33.14760668 0.00448784 0.00391196 0.02125677
H 16.07341518 6.88182346 26.91313726 0.01334779 -0.00859618 0.00289306
H 1.38941434 0.24786676 24.90402650 -0.01129627 -0.04192329 -0.02140681
H -3.91266657 3.78757726 31.06238790 0.00681037 0.02260140 0.01016143
H -2.14576876 9.02786891 34.21947438 0.02204170 0.00110899 0.01823509
H 3.22810611 6.30445249 27.09403523 0.01113661 0.01299685 0.00032160
H -0.12124330 0.91710655 25.63560733 -0.00710562 0.00661684 0.01142020
H -3.53069637 2.62972177 32.24561253 -0.00770576 0.01366470 0.00952864
H -0.61459059 8.82122968 33.22163510 0.02065603 0.03202841 0.01085888
H 1.74781807 5.72574508 27.93617308 0.01813082 0.00494735 0.00680292
H 1.62415216 1.74032985 25.61913726 -0.01019936 -0.02823137 0.00501457
H 0.03516329 19.16474188 2.84468055 0.00537610 0.00438617 0.03816813
H 2.66739553 14.15122232 3.42190210 -0.02697527 0.00838038 0.01392702
H 5.35537310 10.56206661 9.14236883 -0.00502249 -0.00946646 -0.02651052
H 2.74538114 15.34544902 8.49152743 0.00518046 -0.02376766 -0.02280897
H 6.02704890 18.60312290 0.29417425 -0.01016628 -0.00946540 0.01414304
H 3.85016980 13.18651376 5.37511290 -0.00178875 -0.00879109 0.01837701
H -0.22579278 11.30182335 10.88676828 0.01497684 0.01266794 -0.02390116
H 1.37509898 16.32472473 6.63445900 0.01446369 -0.00455360 0.00604551
H 4.08556339 16.66283894 10.48415727 -0.00415486 0.02195340 -0.00581020
H 3.92937207 11.70209249 7.25466614 0.01551862 0.03074892 0.01461416
H 1.00805890 12.81971313 1.70258799 -0.00951602 -0.01167625 -0.01210042
H 1.38584238 17.58813897 4.69010082 0.02159582 0.01397529 -0.00756959
H -2.23595069 15.36659036 35.03759362 -0.03513874 0.00006124 -0.00176479
H -0.05499972 10.41888427 6.06201395 -0.00849197 -0.02050225 0.01181118
H 2.59988913 14.20281736 11.85670844 0.00356636 -0.00612080 -0.01875331
H 5.44073815 18.86848308 5.44788448 -0.00411557 -0.00778085 -0.03335512
H 2.74756129 16.95319308 1.42085448 0.00972106 0.01570749 0.00163033
H -0.02111748 11.89103435 4.29580473 0.00512404 -0.00935960 0.01129944
H 2.47772968 12.35788246 10.21798931 -0.01018098 0.02823381 0.00400834
H 5.53067552 17.08299350 7.23630227 0.03336559 -0.00363970 -0.01800659
H 4.90947916 14.68725198 9.60771332 -0.00369673 -0.02887748 -0.01085528
H 2.92772238 9.77346638 8.12295761 -0.04149711 -0.02168658 0.02310349
H 0.14529087 14.71823935 2.40789743 -0.02238109 0.01758602 -0.01282436
H 2.41599857 19.24204509 3.34422382 0.03145231 -0.00040873 0.03432177
H 6.81235154 14.01763880 7.01410585 0.01070609 -0.00572040 -0.00824617
H 0.11938298 18.80270367 10.51561189 0.00254849 -0.00077131 0.00080293
H 17.74481540 15.81652082 4.27507684 0.01065053 -0.00073901 -0.02837846
H 4.72622657 10.88861533 1.35801792 0.01267194 0.00145838 -0.00641538
H 0.81866807 13.47676359 7.50452821 0.01471819 -0.00568145 -0.00196294
H 1.79313021 18.34718831 10.08569006 0.02636528 0.00666687 -0.00389177
H 4.51942111 16.01543307 4.54022115 0.00532917 0.00024729 0.03368164
H 2.94718918 10.62709183 1.74647696 -0.01297173 -0.03541051 0.01548960
H -0.92200054 13.64258941 7.71200628 0.02071948 -0.02614159 0.00125358
H 0.44296420 17.36779304 9.44519070 -0.00478909 0.02568973 0.00298413
H 6.19648356 15.42639516 4.54563875 -0.02099604 -0.01124673 -0.00500530
H 3.77372619 11.92356473 2.58992767 0.00326255 0.00487788 0.00253534
H -1.62107243 18.95488170 14.42905734 0.01119732 0.02237622 -0.01152497
H 1.28593292 13.90400542 15.02039548 -0.00983066 0.00999960 0.02797844
H 3.81076537 10.27814724 21.08346854 -0.00883264 -0.00986211 0.00200458
H 0.81748317 15.19640053 20.49562102 0.00016279 -0.03207499 0.00418016
H 4.08358796 18.28773646 12.31345922 0.00130426 0.01800746 -0.02577209
H 2.38682507 13.00437747 16.82171000 -0.02366969 -0.01912216 -0.02321147
H -2.05782808 11.04796066 22.67741887 0.01156051 0.01622870 0.01008444
H 0.07732905 15.55591504 18.24865337 -0.01079119 -0.01417076 0.01861132
H 2.56405542 16.00750747 22.54499581 -0.00958098 0.00607874 -0.02089135
H 2.25227309 11.64192830 18.89059170 0.00492423 -0.00166636 -0.00307839
H -0.20515708 12.67084202 12.94588082 -0.00246228 -0.01971535 0.01672520
H -0.15649184 17.33273766 16.44535574 -0.01432649 0.00906229 -0.00480191
H 1.17199646 15.41298483 11.61347479 -0.00644321 0.00034892 0.02000785
H -1.75913366 10.52251141 17.85022381 -0.01405325 0.00913404 0.01574593
H 0.93174519 13.79048173 23.85132372 0.01094859 0.00205040 -0.03239306
H 3.69536441 18.79771426 17.68404816 0.02504981 -0.01497385 0.01516395
H 1.27733103 17.01145928 13.42959265 -0.02050311 -0.00778209 0.00507181
H -1.57818081 12.22676808 15.91557618 0.02577536 -0.00862332 0.00153488
H 1.09985022 12.35607792 21.98052780 0.01172824 -0.00323086 0.02518772
H 3.80440855 17.09402448 19.50674999 0.00841723 -0.00239349 0.00863690
H 3.61860075 14.38754507 21.39486377 -0.01607930 0.01591860 0.00011822
H 1.22122048 9.72810349 19.78873778 -0.00455593 0.00793230 -0.01450298
H -1.15850551 14.66105889 14.00477571 0.01054250 -0.01557121 -0.02153841
H 0.85868232 19.63702816 15.61151736 0.00094058 -0.01369369 0.01477485
H 5.05012398 12.35143755 20.13608573 -0.02997326 0.01145969 0.00474672
H -0.10511325 17.51166518 21.15140573 0.01359109 -0.00048845 0.00223242
H 16.60126536 15.73588058 15.95750933 -0.01327819 -0.01107145 -0.00312932
H 1.94819440 11.54752906 14.14339135 0.00801594 -0.00184666 0.00216807
H -2.42730835 12.43920186 20.28178414 -0.00188834 -0.00500176 -0.00736756
H -1.54602597 18.13475736 21.95275298 -0.01961397 0.00719401 0.01135654
H 3.69896686 15.37164075 16.25448493 0.02716762 -0.01689434 0.00949598
H 3.73078116 11.54383270 14.03753993 -0.01225453 0.01504602 0.00784268
H -0.91742102 13.06584528 19.50701490 0.02100479 0.00535924 0.00138021
H -0.01620440 18.96559661 22.32340912 -0.00378187 0.00408963 0.00674062
H 4.57881838 16.51111423 15.14753918 0.01670035 0.01763464 0.01820627
H 2.78034729 10.36789444 13.11786481 -0.00531089 -0.00971834 -0.00771655
H -3.39331895 18.86247209 26.15301948 0.01237715 -0.03464813 0.03014900
H -0.38294653 14.08318808 26.97816555 0.01906641 0.01431625 0.01406429
H 2.15115417 10.85864352 32.60953134 -0.03610480 -0.00532102 -0.01578310
H -0.72027096 15.26865976 31.94301240 0.02055412 0.02202298 0.00368163
H 2.46600038 17.67930544 24.47549212 -0.00532081 0.01694415 -0.01643413
H 0.79485812 13.13718591 28.99543186 -0.01342538 0.01821713 -0.00005194
H -3.36609248 11.22755505 35.08008264 -0.01368139 0.00268048 0.02738916
H -1.96408941 16.21129824 30.13863757 0.00710266 0.00081294 0.01031308
H 1.05325916 16.69805972 34.02181867 -0.00162475 -0.01900518 0.01280418
H 0.92818124 11.41947984 30.61100098 0.00705190 0.01620196 -0.01071451
H -1.89792570 12.43959462 24.69702284 0.01064970 0.00006535 -0.00882706
H -1.87110661 17.63846039 28.12829344 -0.00393771 0.03857393 0.02741760
H -0.47506420 15.18828533 23.52748371 0.00944248 0.00755967 0.00814066
H -3.18749921 10.38082214 29.79546530 -0.00076425 -0.00522980 -0.03211248
H 3.94921510 14.17700742 0.32609657 -0.01183414 0.02140266 0.00088316
H 2.09409682 18.72941871 28.99967950 0.00533833 -0.01257090 0.00431702
H -0.56352087 16.86839764 25.24836626 0.00774261 -0.00059931 -0.00300469
H -3.26735704 11.98129014 27.85109934 -0.01102094 0.00489593 0.00565611
H -0.71040649 12.80630923 33.59140062 0.01411935 -0.00804629 0.00954313