2160
Time=27000.00000000 pbc="T T T" Lattice="20.60420382 0.00000000 0.00000000 0.00000000 29.05965844 0.00000000 -4.73212741 0.00000000 35.60614488" energy=-13797.12214088 virial="-83.62928877 0.58560893 61.47478061 0.58560893 -45.80172043 -34.05055190 61.47478061 -34.05055190 -82.36458744" stress="-0.00131139 0.00004511 0.00297471 0.00004511 0.00023098 -0.00160662 0.00297471 -0.00160662 -0.00144878" Properties=species:S:1:pos:R:3:vel:R:3
O 0.96332026 8.66735141 2.13709589 -0.00698577 -0.00032502 0.00185352
O 2.07622562 3.84719468 3.63052695 -0.00033294 -0.00044469 -0.00863987
O 4.63920716 0.96864641 9.45180041 -0.00631147 0.00037171 -0.00132466
O 3.64713521 5.74535527 8.11770896 0.00081055 0.00171131 0.00068936
O 1.44985599 5.13734817 9.50934715 0.00475851 0.00652587 0.00947516
O -0.23466899 10.16450195 8.40524320 -0.00425926 0.00556808 0.00139143
O 4.01800016 4.80829362 2.37088476 0.00230641 -0.00268044 -0.00471944
O 5.51505318 0.03752935 4.00723899 -0.00077206 -0.00031846 0.00496712
O -0.56013673 8.70759311 14.20116298 0.00251809 -0.00431123 -0.00302569
O 0.37885480 3.79722734 15.22824467 0.00103320 -0.00034721 0.00010511
O 2.62413442 0.70342273 21.47412780 -0.00518408 -0.00586314 -0.00301964
O 1.72856049 5.74900753 20.22866736 0.00207654 0.00342659 0.00051006
O -0.15533605 4.52556148 21.52968471 0.00799918 0.00243587 0.00541875
O -1.80775823 9.84682638 20.01024126 0.00958833 -0.00161835 -0.00307168
O 2.74128487 4.83933561 14.05450650 0.00106156 0.00260495 -0.00180256
O 3.87152208 28.69042175 15.35016088 -0.00325391 0.00229717 0.00157465
O -2.31150978 8.64880480 25.86012153 0.00087915 -0.00185989 -0.00005307
O -1.06516996 3.70590952 27.46519737 0.01561507 0.00237592 0.00939642
O 1.29607572 1.04458864 33.16545089 -0.00233427 0.00049466 -0.00294459
O 0.45216809 5.97459972 31.96865045 0.00460023 0.00768582 -0.00594836
O -1.93332015 5.21075982 32.95495121 -0.00221781 0.00104768 0.00139366
O -3.32203911 9.74399987 31.81058207 -0.00447916 0.00476636 -0.00215079
O 1.01278646 4.58115168 25.92924580 0.00058605 0.00463613 -0.00030285
O 2.50907462 28.70476006 27.48050103 -0.00145295 0.00590449 -0.00817094
O 0.75133834 18.41834649 2.09447779 0.00708745 0.00144568 -0.00256368
O 2.05092139 13.18006250 3.20053208 -0.00515387 -0.00354222 -0.00161793
O 4.47223076 10.37930825 9.25082156 0.00278998 -0.00175927 -0.00791907
O 3.27421750 15.52690097 8.50814228 -0.00693764 0.00171096 -0.00473788
O 1.12094371 14.52028365 9.50696096 -0.00065547 -0.00159486 0.00643111
O -0.32127611 19.29002076 8.09770003 -0.00201486 -0.00051958 -0.00316563
O 4.06879776 14.50713016 2.01345906 0.00059235 -0.00376600 0.00191358
O 5.61759112 9.30986729 3.39594740 0.00347991 0.00141395 -0.00399774
O -0.96855103 18.31603141 14.32095339 0.00264552 -0.00310341 0.00669483
O 0.61396361 13.58882653 15.60325450 0.00335036 0.00590770 0.00000049
O 2.94725852 10.59386970 21.39944818 -0.00061765 0.00775197 0.00266524
O 1.73032104 15.37341811 20.16433760 0.00048770 -0.00075911 0.00189999
O -0.38396953 14.51226204 21.45325541 -0.00362815 0.00091978 0.00052743
O -1.90357969 19.07501964 20.03993135 0.00502594 -0.00286568 -0.00302539
O 2.58263116 14.03358533 14.01993583 -0.00773721 -0.00042272 -0.00084028
O 4.13833434 9.69050675 15.79866156 0.00984516 0.00489872 -0.00250218
O -2.42828041 18.59571864 25.94253526 0.00501522 0.00289251 -0.00047755
O -1.49249227 13.57282623 27.14210226 -0.00822583 0.00110178 -0.00001865
O 1.60437010 10.81410874 33.01895862 0.00577904 0.00227209 0.00005480
O 0.37610052 15.49501871 31.80622273 -0.00043727 0.00329791 -0.00325661
O -1.65122547 14.60607949 33.18886134 0.00581987 -0.00530338 -0.00382444
O -3.44265397 19.31091920 31.87746731 0.00551879 0.00412074 0.00049999
O 0.79820798 14.46065143 26.02881988 0.00103639 -0.00293364 -0.00385686
O 2.36772646 9.88906292 27.34222585 -0.00186387 0.00831499 0.00400591
O 0.83920258 28.09187555 2.19431716 0.00224388 0.00001524 0.00160624
O 2.01568399 22.93364688 3.34107328 -0.00784156 0.00043521 0.00140080
O 4.46246830 20.12638000 9.72680209 0.00163385 -0.00367169 -0.00069572
O 3.15349261 25.11006828 8.47043329 -0.00351981 -0.00239408 -0.00199392
O 1.20282948 24.00724587 9.70049686 0.00569531 -0.00815705 0.00674835
O 0.00846730 0.23659821 8.34111998 0.00245020 0.00513043 -0.00343500
O 4.10022473 24.24105723 2.15457643 -0.00133521 0.00151237 0.00666831
O 5.52633829 19.25512812 3.94293802 -0.00366249 0.00049858 -0.00650936
O -0.86977947 27.82484600 14.28209975 -0.00003344 -0.00461058 0.00582767
O 0.13040058 23.06611633 15.54911654 -0.00434906 0.00094443 -0.00238383
O 2.71886764 20.80962537 21.30919564 -0.00343790 0.00095030 0.00696573
O 1.85508686 25.20072614 19.90106914 -0.00097040 -0.00734298 0.00308349
O -0.32341809 24.75515069 21.29666687 0.00563894 -0.00125436 -0.00276384
O -1.84800634 0.33936729 20.15243562 0.00260967 -0.00369608 -0.00109149
O 2.34361044 24.01117017 14.30565124 -0.00380315 0.00419562 -0.00241872
O 3.91146468 19.30490216 15.54338262 -0.00082252 -0.00271341 -0.00061864
O -2.39565464 27.90646486 26.42855848 -0.00773717 0.00384973 0.00639241
O -1.40110771 22.90780740 26.98135335 -0.00457843 0.00563016 0.00088793
O 1.11194435 20.05629484 33.44075695 0.00598612 -0.00108259 -0.00311933
O 0.37800685 25.00773075 32.05031056 -0.00149459 0.00578666 0.00283593
O -1.76286402 24.21800099 33.20144914 -0.00740185 -0.00459642 -0.00139582
O -3.44254452 0.06227292 31.86355885 0.00046240 -0.00121261 -0.00174884
O 0.98582267 24.06987874 26.52246512 0.00212695 0.00277250 -0.00036925
O 2.52070367 19.44547082 27.48522186 0.00060300 -0.00080802 -0.00427564
O 7.83864834 8.53117245 2.37591610 -0.00068956 0.00174408 0.00032045
O 9.14522412 3.82859423 3.83739161 -0.00132001 -0.00021789 0.00195103
O 11.69963424 1.37981366 9.58658317 -0.00152310 -0.00365735 -0.00021602
O 10.30129441 6.19715647 8.47077016 -0.00203637 -0.00045988 0.00047016
O 8.48870620 4.85413539 9.57322389 -0.00504836 -0.00240791 0.00173194
O 6.62016727 9.60015514 7.92030223 -0.00257262 -0.00026540 -0.00099875
O 11.03904542 4.83507089 2.57743399 0.00074575 -0.00194960 0.01114655
O 12.29028168 29.02198303 3.64118593 -0.00113208 0.00157063 -0.00001653
O 6.04048313 8.37940274 14.37535998 0.00222791 -0.00360639 0.00028730
O 7.14476683 3.90950608 15.78496290 -0.00493741 0.00343536 -0.00159652
O 9.65270196 1.11730383 21.70209508 -0.00966869 0.00774390 -0.00366826
O 8.99505218 6.22775699 20.38707929 -0.00122152 -0.00077383 0.00270139
O 6.63369209 5.24008402 21.15088312 -0.00297719 0.00337056 0.00107524
O 5.13751943 9.79974958 20.09301956 -0.00311597 -0.00245842 0.00653650
O 9.50851591 4.84556240 14.44244035 -0.00249775 0.00364429 -0.00221916
O 10.69307461 0.08289997 15.45881540 0.00402450 -0.00040487 0.00638827
O 4.34540946 8.72116446 25.98557649 -0.00688367 0.00093366 0.00725934
O 5.51129087 3.78633265 27.48701685 0.00384131 0.00381799 0.00285526
O 8.09116805 1.12156206 33.40278947 0.00804330 -0.00111157 0.00748413
O 7.02559418 6.02237539 31.80003612 -0.00658720 -0.00310744 0.00159189
O 4.99992056 5.04920633 32.89938055 -0.00077885 0.00050206 0.00490935
O 3.55603567 9.69637090 31.76099003 -0.00117077 -0.00069166 0.00056672
O 7.62849854 4.73034615 26.39161494 -0.00648134 -0.00403274 -0.00390800
O 9.38397369 29.04104527 27.66150477 -0.00453940 -0.00370065 0.00774187
O 7.53752409 18.38613935 2.42112578 -0.00281987 -0.00220619 -0.00047682
O 8.68119682 13.51676236 3.50355619 0.00233550 0.00159911 -0.00226467
O 11.42984502 10.90048920 9.59789627 0.00489256 0.00500865 0.00892384
O 10.25925245 15.38632754 8.32164660 -0.00308423 -0.00060105 0.00025554
O 8.11412739 14.43453818 9.41308665 0.00421324 -0.00611196 0.00665252
O 6.52525612 19.48348190 8.25189099 0.00252106 0.00033831 -0.00021708
O 10.78199707 14.40584262 2.45511067 0.00598534 -0.00362572 -0.00073853
O 12.57908415 9.52404185 3.59898712 0.00254476 -0.00040726 0.00424299
O 5.93690853 18.29015434 14.15578412 -0.00495517 0.00284975 0.00655452
O 7.11339245 13.64605421 15.55680208 0.00422794 0.00190129 -0.00879052
O 9.92727568 11.03408875 21.17094081 0.00084598 0.00115659 0.00466723
O 8.40330818 15.74386615 20.12419155 -0.00249598 -0.00344101 -0.00464769
O 6.36810334 14.56541702 21.35157313 0.00319350 -0.00131468 0.00118990
O 4.77787104 19.51524994 20.46194196 -0.00575134 0.00392328 -0.00217691
O 9.23486619 14.53155307 14.31183177 -0.00113253 0.00220340 0.00331238
O 10.79765461 9.76138583 15.44598698 -0.00025418 0.00308000 -0.00051390
O 4.26305905 18.26280344 25.99421591 0.00011959 0.00112925 0.00143072
O 5.54953600 13.53605661 27.19955144 0.00661710 -0.00319287 -0.00014522
O 8.25905399 10.75996263 33.09622958 0.00559088 0.00166768 -0.00256968
O 6.97411587 15.39777343 32.42670270 -0.00264093 -0.00027931 -0.00180201
O 5.02193364 14.14627597 33.63380843 -0.00138718 0.00114439 -0.00102968
O 3.37603464 19.40763403 32.31008825 0.00134961 0.00160318 -0.00171116
O 7.77262459 14.49683489 26.11276632 0.00010273 0.00184700 0.00572685
O 9.30512579 9.86393267 27.20249303 -0.00020765 0.00243341 0.00032480
O 7.56944296 27.95176081 2.32438215 -0.00198645 0.00037797 0.00569512
O 8.67281852 23.09309752 3.60693127 -0.00550445 -0.00284779 0.00206889
O 11.32034460 20.42186851 9.38841212 -0.00555077 -0.00184029 0.00074749
O 10.06305581 25.16548771 8.43880809 -0.00413981 0.00143763 -0.00054887
O 8.05737034 24.05645338 9.62393716 -0.00102643 -0.00026331 0.00315375
O 6.69800071 28.99651401 8.35293228 0.00135791 -0.00723803 0.00114674
O 10.88823030 24.13562937 2.44881239 0.00537136 0.00124623 -0.00051849
O 12.43865981 19.37280765 3.62285017 0.00149425 -0.00117737 -0.00328421
O 5.92749541 27.90345785 14.09029286 0.00170557 -0.00131207 0.00869650
O 6.95032089 23.36457681 15.84089811 -0.00342332 0.00035716 0.00221122
O 9.85142654 20.72515503 21.19432606 -0.00424942 0.00326621 0.00099083
O 8.78435620 25.40316894 20.22193194 -0.00013531 0.00213828 -0.00092243
O 6.64816574 24.20963493 21.50593149 0.00035827 0.00383164 0.00438497
O 5.09678154 0.08167154 20.39169055 -0.00322881 0.00021091 0.00031891
O 8.91545710 24.15030281 14.22953697 0.00125516 -0.00129461 -0.00118856
O 10.75259426 19.26550944 15.41154522 0.00155053 0.00411715 0.00303826
O 4.64091097 28.01898652 26.08149660 0.00407160 0.00612112 -0.00138468
O 5.58992071 23.36880055 27.77700555 -0.00385098 0.00176670 0.00265034
O 8.12320441 20.46448774 33.29432375 -0.00290414 0.00396097 0.00167997
O 6.96010636 25.37098151 32.21948404 0.00365508 -0.00025966 0.00010306
O 4.95307298 23.98832916 33.17136863 -0.00060442 0.01041345 0.00281752
O 3.34928289 29.02166187 32.04008466 0.00697797 0.00385697 0.00030463
O 7.77476694 23.99103291 26.27903986 -0.00547907 -0.00275418 0.00042474
O 9.26155713 19.13106144 27.61514092 -0.00337701 0.00155344 0.00769022
O 14.63549683 8.51759624 2.15797419 -0.00760569 -0.00366205 0.00056061
O 16.05788832 3.61908425 3.18353070 0.00041489 0.00033929 -0.00105031
O 18.40370978 1.22540403 9.24371551 0.00205740 0.00794262 -0.00278387
O 17.12346448 5.84736048 8.27337165 0.00053884 0.00098017 -0.00397740
O 15.23334871 4.69975354 9.81863399 -0.00032934 -0.00097757 0.00460057
O 13.47645562 9.67500583 8.01876558 -0.00230388 -0.00135992 -0.00119084
O 18.02102032 5.34316591 2.13339526 0.00429800 -0.00079473 -0.00306144
O 19.15405125 28.65271872 3.47877625 0.00347175 0.00233878 -0.00170752
O 12.88192022 9.07407232 13.98096698 -0.00303585 -0.00275777 0.00430985
O 14.27928184 3.74060076 15.21811133 0.00630121 -0.00075077 0.00043274
O 16.60988672 1.45844708 21.15563578 -0.01093395 0.00182801 0.00101611
O 15.63593147 6.09731428 20.20733255 -0.00682551 0.00520152 -0.00610668
O 13.46385081 5.39989814 21.34703860 0.00078407 0.00166665 0.00154459
O 12.02052113 9.85143918 20.26212846 0.00152634 -0.00728909 0.00697220
O 15.94838592 5.12516650 13.87056746 0.00128922 0.00027439 -0.00205351
O 17.45111520 28.55150123 15.20064403 -0.00236495 0.00490660 0.00216618
O 11.49607922 8.92533994 26.07501791 0.00165090 -0.00020081 0.00177183
O 12.45548244 3.37766265 27.17946130 0.00337159 -0.00262384 0.00252552
O 15.21762072 1.02269765 33.28202827 0.00112410 0.00305518 0.00014366
O 13.85031494 5.80788983 31.74074978 -0.00672181 0.00208721 -0.00025167
O 11.71898418 4.79414632 33.03622137 0.00567082 -0.00235579 0.00063023
O 10.38338278 9.81507781 31.93357547 0.00442895 0.00349556 -0.00228411
O 14.68977402 4.68832898 26.22681393 -0.00005645 -0.00129952 0.00083881
O 16.17210907 29.00334630 27.76231783 -0.00408553 -0.00145587 -0.00013356
O 14.40445030 18.18374809 2.46745731 0.00036736 -0.00366893 0.00021652
O 15.60050791 13.37413479 3.32429784 -0.00031373 0.00248881 -0.00075107
O 18.21957344 10.86363449 9.63246924 -0.00129603 0.00129962 -0.00033318
O 16.91603593 15.23346818 7.78567624 -0.00170291 -0.00538038 0.00226930
O 14.90905604 14.86708069 9.36251934 0.00360144 -0.00225928 -0.00487379
O 13.52366276 19.61182636 8.46116972 -0.00013363 0.00453477 -0.00382616
O 17.93091214 13.94380311 2.37909082 0.00153416 0.00261216 -0.00071346
O 19.45707989 9.47661043 3.51948351 -0.00240893 -0.00372807 -0.00126583
O 12.75985467 18.21857051 14.17346010 0.00181057 -0.00126156 -0.00722255
O 14.38389373 13.55362659 15.50431853 0.00300099 -0.00075396 0.00507801
O 16.83570718 11.08302040 21.03980006 -0.00462551 0.00491928 0.00111125
O 15.14876557 15.89025900 20.18172641 -0.00220347 -0.00553699 -0.00413885
O 13.13545301 14.86282437 21.33269496 0.00434716 -0.00419257 0.00106000
O 11.92707400 19.86461051 20.02868535 -0.00716397 -0.00437057 0.00078051
O 16.21879677 14.69652105 14.37898052 0.00176555 -0.00819924 0.00606136
O 17.65129099 9.81059326 15.41203270 0.00438660 -0.00464723 0.00530756
O 11.36217697 18.34654530 26.01498098 -0.00270081 -0.00214700 -0.00094627
O 12.59278797 13.45174139 27.38562132 -0.00607221 0.00102203 0.00114061
O 15.29485944 10.74028228 33.11448172 0.00082070 0.00022294 0.00212555
O 13.86878178 15.53941369 31.99911223 0.00305660 0.00138183 0.00140316
O 11.91048437 14.73057039 33.26185460 -0.00321544 -0.00294739 0.00313494
O 10.29931527 19.59606105 32.16563837 0.00183403 -0.00124948 -0.00611408
O 14.22799754 14.53752953 25.70960550 0.00455700 0.00251687 -0.00171791
O 16.20969403 9.80100552 27.28647701 -0.00163414 0.00042624 -0.00124761
O 14.46170731 28.02538736 2.48882108 0.00010729 0.00183502 -0.00286724
O 15.79696378 23.02281538 3.64205820 0.00324271 -0.00134089 -0.00294598
O 18.43904765 20.64037291 9.40538962 -0.00060794 0.00036850 -0.00126754
O 17.13721116 25.37253098 8.47326942 -0.00391514 0.00073777 0.00308928
O 15.03212627 24.16844818 9.58680742 0.00230285 0.00070897 0.00184120
O 13.68482723 0.36092598 8.11663244 -0.00702568 -0.00098588 0.00335807
O 17.76889869 23.99508627 2.32271743 -0.00572180 -0.00273710 0.00434522
O 19.16237001 19.04941879 3.39424703 -0.00042390 -0.00198712 -0.00165484
O 13.07415868 28.35761634 14.16394575 0.00367187 -0.00354347 0.01002589
O 13.70774794 23.37574104 15.30529380 -0.00326121 -0.00098413 -0.00018285
O 16.91299695 20.68603209 20.98199039 -0.00103648 -0.00368833 0.00909858
O 15.39753645 25.84360637 20.60892703 -0.00167462 0.00152251 -0.00039246
O 13.47868761 24.32840244 21.65568598 -0.00352022 0.00604216 -0.00167239
O 11.65509609 0.58291829 19.96505741 -0.00145823 0.00129716 0.00352168
O 15.96279573 24.21464996 14.13348716 -0.00051223 -0.00158563 0.00056450
O 17.40847392 19.49670288 15.39230572 -0.01041162 0.00087431 -0.00504290
O 11.40223503 27.84726007 26.43430943 -0.00342881 -0.00079992 0.00001605
O 12.27034382 23.13010461 27.25475058 0.00058456 0.00691849 0.01077164
O 15.16305005 20.24099565 33.38129269 -0.00222377 0.00370560 0.00380254
O 14.03396237 25.25716291 32.46703193 0.00008267 0.00432342 0.00097855
O 11.81993690 23.94491858 33.60785935 0.00262754 0.00381428 -0.00308796
O 10.08638867 28.87921612 32.21941875 0.00275065 0.00146212 0.00095410
O 14.44469878 24.13794619 25.91934272 0.00413317 0.00221583 -0.00646282
O 16.00940435 19.10751324 27.33875184 -0.00093630 -0.00054446 -0.00192600
H 0.03941103 9.00227201 2.55960283 0.00344332 0.01311919 0.02891422
H 3.01717722 4.16887854 3.25516755 -0.00310788 0.01057112 0.00202210
H 5.44559091 0.59711771 9.10796135 0.01495293 0.00879440 0.00344339
H 2.75649368 5.52633801 8.65067034 0.01531689 0.00825794 -0.00404907
H 5.85850873 8.50385845 0.56132474 0.00006664 -0.00055127 -0.01986451
H 4.16114132 3.24421509 5.14996488 -0.00101537 -0.02520609 -0.00559561
H -0.29824033 1.48715606 11.18294235 -0.02904570 -0.03279706 -0.00911315
H 1.53752731 6.10503773 6.52101587 -0.01144415 0.02563668 -0.01120753
H 4.34925267 6.65953991 10.52955717 0.01237971 0.01181718 -0.00722111
H 4.03504833 1.69842986 7.09604220 0.01516147 0.01410126 0.00647187
H 1.45330499 2.85127291 1.22156718 0.00011707 -0.01038560 -0.00150579
H 1.59388544 7.57002275 4.51739161 -0.02070215 -0.00074496 -0.00226572
H -1.89289126 5.49331406 35.12258073 0.04277551 -0.00683140 -0.02803186
H 0.17734235 0.51929265 5.95771969 0.00046851 -0.01327564 0.00562199
H 3.00566126 4.44551379 11.92655029 0.00636534 0.00883188 0.00036905
H 5.33272510 9.13380529 5.55875267 0.00604045 -0.00776910 -0.01119040
H 3.04720333 7.31487636 1.20807756 -0.01403888 -0.00102633 0.00895060
H 0.21596459 2.18357240 4.04737655 0.01111127 -0.00166745 -0.00057934
H 2.80878015 2.71943263 10.09406556 -0.01692214 -0.01457123 0.01951703
H 5.52236488 7.29471558 7.39588515 -0.00080856 -0.00965247 0.00774726
H 5.32603176 4.65295508 9.47188956 0.00089356 0.00537776 0.01540326
H 2.98662812 28.98100272 8.34762560 0.01977967 0.01529203 -0.00531605
H 0.48016333 4.49021999 2.62823708 -0.04192803 -0.00051797 -0.01890727
H 2.42931822 9.60612639 3.51509221 -0.00321547 -0.00126340 0.01683131
H 7.40141547 4.15521715 7.26542565 -0.00410122 0.00137081 0.02537596
H 1.54141199 9.27422922 10.44457497 -0.00765719 -0.02058380 -0.00534909
H 0.00014937 6.59768692 3.51110973 -0.00266063 0.01505157 0.01380917
H 5.30341987 0.97630241 1.68004886 -0.03113096 0.00462066 -0.00425401
H -1.06049104 3.88340851 7.99791124 -0.01772566 -0.00401421 0.00323690
H 1.96815048 7.96590399 9.35786880 0.00254079 -0.01526860 -0.00018821
H 5.24566949 6.93475525 3.60820223 0.01043552 -0.01726954 0.01157940
H 3.34307934 0.72310458 1.76747231 -0.01131602 0.01276037 -0.00382187
H 0.20742847 2.74879973 8.68035914 -0.00045775 -0.02107721 -0.01710349
H 0.21445323 8.20077342 9.87792347 -0.01772687 -0.00089721 -0.00613468
H 5.08693368 5.50356781 4.63994704 0.00703773 0.00435161 -0.01130454
H 4.24103222 2.07404611 2.41025783 -0.03097975 -0.02979267 0.00887223
H -1.47786000 9.01658538 14.46983787 0.01898995 -0.00130288 -0.01138792
H 1.28247144 4.22802745 15.05422906 -0.00000176 -0.02035592 -0.00743575
H 3.53610467 0.52367750 20.98389517 0.01354437 -0.00018726 0.00383172
H 0.90635177 5.34525604 20.68323652 0.01813839 -0.01412283 -0.01006880
H 4.14736020 8.04696297 12.63589365 0.00736669 0.02238765 -0.00669341
H 2.20360350 3.59999820 16.95282193 0.00477492 -0.01204013 -0.00204294
H -2.06924006 1.42558027 22.93167766 0.00441174 -0.00233432 -0.00987398
H -0.23409104 6.35064481 18.53909011 0.00408234 -0.00057796 0.01311573
H 2.31088945 6.69184031 22.64804492 -0.00018977 -0.00477544 -0.00789955
H 2.34954349 1.83110029 18.70022408 0.00529082 -0.01261197 0.01844968
H -0.37740512 2.85915158 13.09274655 -0.02957382 -0.01199275 -0.00245895
H 0.05565821 7.75759581 16.49614598 0.00276925 -0.00765011 -0.00751056
H 1.40157111 5.56360020 11.59153982 0.00944365 -0.01652671 0.00595220
H -1.59059967 0.66888739 17.91444220 -0.00520360 -0.00134332 -0.02687119
H 1.12902798 4.17715805 23.80814376 -0.02932872 0.00368792 -0.01964056
H 3.86094259 8.98919209 17.88393206 0.01960560 -0.00855766 0.01224940
H 1.35618484 7.23160627 13.51446028 0.00767422 0.02734362 -0.01968955
H -1.66355827 2.16634704 15.98645120 0.00866819 0.02064111 0.02572605
H 0.78023541 2.38646977 22.08489456 0.01145007 -0.01916951 -0.00123188
H 3.71341519 7.37586809 19.75615375 0.01922997 -0.00697255 0.00073812
H 3.46626023 4.76783285 21.45910957 0.01605227 0.02113476 0.02853105
H 1.25636999 0.19303601 19.99116996 0.01428216 0.00200262 -0.00247417
H -1.47694127 4.95097718 14.11528768 -0.00863053 -0.00408607 0.00209648
H 0.93115506 9.67924227 15.65999928 0.00732651 0.02079216 -0.00898638
H 5.00052902 2.67353638 20.65140997 0.00594162 0.03385213 0.01022742
H -0.32742200 7.43582223 21.28771924 0.00394232 -0.01299722 -0.01809860
H 18.42952903 5.63095100 15.97450127 -0.01556698 0.00801359 0.00054871
H 3.44800179 0.93481541 13.15735334 -0.00421946 -0.00851395 0.00664041
H -2.03210894 2.87232205 19.97644003 0.01336224 0.00524814 -0.03926034
H -1.53592713 8.50710673 22.06499314 -0.00498382 0.00474946 -0.03384366
H 4.24471060 5.32289838 16.60320954 -0.01288331 0.01571749 0.00233513
H 1.76904260 0.25128597 13.12980047 0.00224389 0.01954861 0.00469616
H -0.75118350 3.87275868 19.13708141 -0.02889986 -0.00249192 -0.01928953
H 0.20286981 8.84144738 22.24675078 0.02552941 -0.02014272 -0.00082742
H 5.23358974 6.35302934 15.49939994 -0.00350005 0.02356538 -0.01453560
H 2.08348307 1.78259846 13.89345735 0.01280752 -0.01015476 0.00820720
H -3.15655401 8.92229932 26.24959441 0.03796916 0.01409794 0.00720511
H -0.21072173 4.02288720 27.19847928 -0.00215521 -0.00853842 -0.02105780
H 2.13746643 0.63927927 32.93481401 -0.01350132 0.02463519 -0.01014652
H -0.36839485 5.36662552 31.97367094 -0.02418740 -0.01738199 0.01391303
H 2.31370936 8.04608767 24.58534518 -0.01508359 -0.00921786 -0.01164093
H 0.88545952 3.16944763 29.14821521 0.00223978 -0.02290063 0.02327666
H -3.52486624 0.97139526 35.02569227 0.01861659 -0.01098516 0.01826748
H -1.74781611 6.45147270 30.66537779 0.01106941 -0.01232602 0.01072210
H 1.11751009 6.81339117 34.24116277 -0.00854128 0.04417053 -0.01475965
H 0.93507878 1.56251881 31.00913571 -0.00460171 0.01541711 0.00189619
H -1.84149811 2.81373461 24.84694282 0.01734474 -0.01122288 -0.00967927
H -1.70037553 7.99565110 28.53846201 -0.01755477 -0.00761697 0.01006085
H -0.37126288 5.40452720 23.52053811 -0.01469248 -0.00743348 0.02822824
H -3.13401704 0.32783946 29.78934112 -0.01734263 0.00675443 -0.02471746
H 4.31063569 4.29461218 0.27622412 0.00547817 -0.00676085 0.02381412
H 2.03194837 9.51343465 29.50734159 -0.00448255 0.00089197 -0.04470586
H -0.55258155 7.01415035 25.47149950 -0.00388502 0.01367318 -0.02192480
H -3.09033019 2.03948502 28.07290301 0.01088936 0.00799018 -0.01528993
H -0.51558000 2.77357721 33.61825051 0.01206522 0.00955158 0.01328450
H 2.28987962 7.62930902 31.31206144 0.02660736 0.00759441 0.00337470
H 1.93663649 4.89335783 33.41335778 0.01742365 0.00604402 0.00766972
H -0.26846128 28.95318462 32.22661977 -0.01364274 -0.00883229 0.01555320
H -2.81954748 4.73645207 26.18022485 -0.00899726 -0.00331094 -0.00719666
H -0.72770410 9.55321059 27.15440508 0.02043800 -0.02046056 0.02567100
H 2.73764109 4.38011877 31.20893995 0.00350131 0.00308116 0.00759212
H -1.48804431 9.01164108 33.99420291 -0.00122550 -0.01281194 -0.01619873
H 15.25702043 5.76731230 28.32736329 0.01294558 0.01240156 -0.00074849
H 1.47022232 1.87922732 26.27881086 0.02328000 -0.01017837 -0.02048072
H -3.83619738 4.28228492 31.00528634 0.01082869 0.01944779 -0.01019494
H -1.17023656 7.72823547 32.77840059 -0.01106399 -0.01128205 0.02717079
H 1.59354778 6.11174546 27.98635245 0.00889023 0.00342945 -0.01508809
H 1.18040033 0.55516209 25.19388371 -0.01914302 0.01216196 0.03238946
H -3.88997886 2.85304929 32.05829270 0.00538322 0.01336954 0.00311775
H -2.87588771 7.92899385 33.37791182 -0.01044069 -0.00064464 0.00780827
H 3.15747078 5.23130527 28.05383729 0.00779775 0.02253867 -0.00113458
H -0.13235837 1.18265593 26.18568674 0.01120158 -0.00169548 -0.00559281
H -0.10325794 18.73466339 2.51955840 -0.02751560 0.00917199 0.00336335
H 2.85604574 13.73018416 2.96871331 0.02880794 0.02445029 -0.00895980
H 5.25573524 9.86685340 8.93795948 0.01943603 0.00863421 0.00586375
H 2.61422715 14.87146128 8.41092465 0.00835719 0.00021163 0.00259989
H 5.47130392 17.66172231 0.87094121 0.00846001 -0.00591801 -0.04165614
H 4.08171347 12.83376423 5.01248307 -0.01440965 -0.01113301 0.02404496
H -0.37917228 11.20915442 11.21777687 0.00797648 -0.00395469 0.02963818
H 1.37159646 15.85525072 6.83721480 -0.00959304 -0.01443649 -0.00114473
H 3.94315788 16.15699452 10.83625039 -0.03303486 0.00609161 -0.00103263
H 3.90322191 11.44875940 6.84526850 -0.03547953 -0.01724642 0.00120937
H 1.49585656 12.59700294 1.06336742 0.00343331 -0.00869587 0.01611102
H 1.45894928 17.30658337 4.85115664 -0.03458502 0.00845180 0.00531384
H -1.84736007 15.16163131 35.47571622 0.00027393 0.01648381 0.00018494
H -0.22887713 10.47784387 6.08002311 -0.00927504 0.00704758 0.00142773
H 2.63748062 13.39637141 12.17848768 -0.01075585 -0.00342438 -0.02851171
H 5.39181373 18.67250727 5.94490281 0.01915970 0.01172391 -0.00579621
H 2.78343993 16.97755353 1.50165502 -0.00116595 -0.00268211 -0.00277571
H 0.05397203 11.70180049 3.99170959 0.00222254 0.00488604 -0.00353467
H 2.72416365 12.08094180 9.93633270 0.01736914 -0.00663958 0.00828073
H 5.40925699 17.00668760 7.76522412 0.00136144 0.00488782 -0.00891751
H 4.98358713 14.28593207 9.82149862 -0.00266451 0.01728257 -0.00809038
H 2.82708174 9.67016505 8.07067049 0.00332334 0.03569601 0.00292479
H 0.28293201 14.80032266 1.84451539 -0.03739947 -0.02556636 0.02045776
H 2.35801744 18.70614795 3.49756056 0.02625517 0.02074947 0.02781110
H 6.59536569 12.06442187 8.50305396 0.00386118 0.00373178 -0.00899610
H 0.85331232 17.09099267 9.14357400 -0.00760600 0.01167211 -0.02521141
H -0.42140483 16.08561784 3.37639578 0.02951460 0.02789525 -0.00655927
H 4.00271958 11.73959687 2.36707948 0.00635856 0.02259961 0.00118011
H 18.98996836 13.28303092 7.99088325 0.00429835 -0.01178031 -0.01441404
H 0.71897800 18.30500289 10.47851263 -0.02079781 0.01090070 0.00986774
H 6.39514792 16.05555293 3.63848689 0.02085907 -0.00341877 0.00251204
H 5.01096226 10.75575289 1.40316675 0.02656309 0.00500393 -0.00247078
H -0.29704744 12.19961636 8.63187576 -0.00497452 -0.01042969 0.02669521
H 2.31205957 18.14205335 9.56775025 0.00101416 -0.00553870 -0.01512540
H 4.81535416 16.32495859 3.46750256 0.00406827 -0.01151993 0.00023158
H 3.27124006 10.42036484 1.45378224 -0.00401277 0.00058669 0.00905832
H -1.90144845 18.60062300 14.61399359 0.00471445 -0.01365275 0.00798934
H 1.49049726 13.85522043 15.13908945 -0.04602311 -0.01884812 0.00471735
H 3.86047072 10.29583600 21.16322204 -0.01947986 0.01167027 -0.00897154
H 0.78937774 15.13061868 20.25466009 0.02922561 -0.01280947 0.00667047
H 3.97849080 17.83974463 12.41649056 0.00018465 0.00613643 -0.00300612
H 2.42377785 13.22694951 17.52658011 -0.02436723 -0.00369673 -0.01809423
H -1.87706463 11.41842825 22.99898341 0.02828004 0.02177358 -0.01545620
H -0.28426047 15.91001289 18.55025556 0.02338815 -0.02234687 0.00164265
H 2.19894718 16.07792034 22.57029767 -0.00564077 0.03002294 -0.00605885
H 2.43490313 11.30947965 19.05731555 -0.00927879 0.00519002 0.00757419
H -0.20261743 12.91138874 13.08640112 0.01223797 -0.03196259 -0.00043325
H -0.35037101 17.56674420 16.78307308 -0.00406537 -0.01199320 -0.00062372
H 1.01055803 15.36647187 11.60649384 0.00256707 -0.01014217 0.00651860
H -1.52824093 10.32579769 17.90639052 -0.02945105 0.00446312 0.01820534
H 0.87079155 13.90318743 23.80057519 0.01466468 -0.00460344 -0.01596395
H 3.71763323 18.73513931 17.70751070 0.00646085 -0.01022923 -0.01230792
H 1.02232440 16.85213236 13.48547150 -0.01816929 0.01292101 0.02423625
H -1.11736766 11.70712139 15.74520823 0.01667178 -0.00228679 0.01062751
H 0.91661173 12.23082245 21.97990625 0.01695180 -0.00716054 -0.00117697
H 3.54408918 17.15597083 19.73355867 0.01691737 0.03474140 0.01442591
H 3.18601935 14.52941656 21.32676336 -0.00895887 -0.01333707 0.00661000
H 1.37527166 9.46230065 19.91941145 -0.01977929 -0.01113182 -0.01056163
H -1.14246893 14.64129190 13.99324073 -0.00016518 0.00274806 -0.00374747
H 0.71797905 19.29637597 15.64934876 -0.04438900 0.00772322 -0.00302759
H 4.94965553 12.39603579 20.14050433 -0.01803346 -0.02613363 -0.02518425
H -1.02396227 18.41976256 22.40880495 -0.01465978 -0.02818450 -0.02178053
H -1.91112901 15.00543777 16.22639434 0.00069440 0.00415225 0.00024376
H 1.64617059 10.45627759 13.88003724 -0.01968460 -0.02408141 0.00189665
H 17.75118916 13.50073853 19.48938065 -0.00251850 0.00154795 0.00163983
H 0.81180459 18.45390723 21.93153271 0.02854648 0.00918712 -0.01729681
H 3.41596033 16.59057402 14.80276546 -0.00846131 -0.01305103 0.01457401
H 2.66776480 11.79334890 14.47786460 -0.00598952 -0.00490037 0.00990520
H -1.89338916 12.42071413 20.31244693 0.01598313 -0.01824285 -0.01412457
H -0.39471992 17.19937101 21.31008148 -0.03047017 -0.02268240 0.01337284
H 3.35425609 15.36003274 16.06621920 0.01043194 -0.01775450 0.02433762
H 3.43311967 10.49671975 13.48403133 -0.00556588 0.02220143 -0.00471017
H -3.37719927 18.84808086 26.32228699 0.01706008 0.01404859 -0.00091952
H -0.58075406 13.78507653 26.81328438 0.00266187 0.03513898 -0.00928586
H 2.42588360 10.45989823 32.73545053 0.00916102 0.00604620 0.00551516
H -0.48310369 15.17162049 32.26669381 -0.00945534 -0.00417293 0.02238723
H 2.14727898 17.61620985 24.38016678 -0.01088120 -0.00671232 0.00546162
H 0.71165799 13.19430193 28.84046233 0.00012524 0.03068669 -0.01099973
H -3.39487011 11.02075275 34.71127393 -0.00133059 -0.01033721 0.00689047
H -1.61954972 15.78860918 30.21867998 0.02400390 0.01853381 0.01699159
H 0.86945515 16.42418589 34.43680191 -0.00292753 -0.00773000 -0.02423146
H 0.72194370 11.85869510 30.65003173 -0.01042822 0.00650573 0.02065587
H -2.26372934 12.63279357 25.09150406 0.00988579 0.00331689 -0.00281399
H -1.70528979 17.56464616 28.37313975 -0.00964536 -0.01313419 0.00303069
H -0.66682700 15.04676484 23.51933497 0.02457598 -0.01092012 -0.01130241
H -3.25612007 10.22379273 29.56697181 -0.01801318 0.00284337 -0.00358285
H 4.24003632 13.90637571 0.03850510 -0.00656980 -0.00534559 0.00681632
H 2.21966731 18.68307610 29.26862064 0.00188712 0.00096642 0.01381560
H -0.67247972 16.60158698 25.58811398 0.00439439 0.02320459 0.01758086
H -3.16731194 11.83851050 27.59733810 -0.02279369 0.00163581 -0.00412530
H -0.46892198 12.39667734 33.70640098 0.03638791 -0.02311428 -0.00298297