2160
Time=67000.00000006 pbc="T T T" Lattice="20.59930293 0.00000000 0.00000000 0.00000000 28.98800253 0.00000000 -4.73423749 0.00000000 35.63790596" energy=-13795.71452647 virial="-79.55773834 13.32926188 68.53369933 13.32926188 -49.86784707 -8.26568782 68.53369933 -8.26568782 -57.25197624" stress="-0.00139149 0.00058294 0.00326752 0.00058294 0.00001041 -0.00035477 0.00326752 -0.00035477 -0.00036737" Properties=species:S:1:pos:R:3:vel:R:3
O 0.76751285 8.43668232 2.82767894 0.00034117 0.00554823 -0.00461566
O 2.10448291 3.37114161 2.81824907 -0.00046511 -0.00289171 0.00195372
O 4.64809831 0.56527572 9.38815200 0.00103970 0.00207077 -0.00084632
O 3.55165002 5.75625515 8.12837525 -0.00253378 0.00218423 -0.00113794
O 1.36217124 5.06812312 9.78471617 0.00283277 -0.00905743 0.00104550
O -0.33741571 9.73791987 8.32924728 0.00864775 -0.00144966 0.00033413
O 4.18557951 4.87014389 2.10530394 -0.00113420 0.00134709 0.00528240
O 5.50059103 28.68490127 3.63984940 0.00532069 0.00055577 -0.00342056
O -0.86044260 8.42733699 14.80861040 0.00608454 -0.00377131 0.00664248
O 0.34424199 3.69119017 15.29268520 -0.00300119 0.00056343 0.00590204
O 2.86430251 1.21246101 21.30745225 -0.00635834 -0.00324729 0.00070066
O 1.84445591 5.78075060 20.46815461 -0.00261133 -0.00223390 0.00044830
O -0.39198130 4.71518454 21.45794084 -0.00079625 -0.00222342 0.00025355
O -1.70062323 9.79289793 20.51546626 -0.00009469 -0.00480055 -0.00265624
O 2.30426023 4.51763769 13.80059620 -0.00007121 -0.00339608 -0.00049161
O 3.87313911 28.67570255 15.67055013 0.00117084 -0.00069603 0.00062351
O -2.38706512 8.74300932 26.08698244 -0.00517218 0.00547025 -0.00070936
O -1.39625503 3.95099958 27.25567672 0.00343286 -0.00415881 -0.00606270
O 1.54585195 1.41454059 32.79177554 0.00250636 0.00103333 0.00381033
O 0.26121642 6.00547432 31.85811398 -0.00634168 0.00841466 0.00324114
O -1.77917123 5.30074221 33.27657414 0.00043973 0.00696856 -0.00295814
O -3.32661811 10.03092289 32.36822197 0.00760426 0.00261335 -0.00094554
O 0.99621039 4.66137356 26.36550442 -0.00354752 -0.00214648 -0.00243803
O 2.44388581 28.79602417 27.59718595 -0.00011193 -0.00203569 0.00030338
O 0.61292581 18.17378016 2.55286645 0.00078128 -0.00608799 -0.00221473
O 2.12565470 13.38795492 3.41922639 0.00003636 -0.00241902 -0.00348062
O 4.45932240 10.40965711 9.49850162 -0.00107878 0.00021540 -0.00062202
O 3.08196890 15.45478517 8.28142241 -0.00105810 0.00335006 0.00463287
O 1.09051409 14.18178824 9.76191797 -0.00218403 0.00011626 -0.00194527
O -0.14992771 19.57555956 8.51476529 -0.00336248 -0.00121515 0.00143554
O 4.04993734 14.53665537 2.21193499 0.00192667 -0.00560589 -0.00011416
O 5.60472371 9.80207185 3.75916879 -0.00476381 -0.00737801 0.00058816
O -0.79766027 17.99347155 14.66442528 0.00179763 -0.00159329 -0.00387286
O 0.40719906 13.41134097 15.54959254 -0.00519756 -0.00127448 -0.00031089
O 3.21103481 10.77797879 21.25363077 -0.00136186 0.00108273 0.00180383
O 1.86741081 15.65626149 20.41969069 -0.00007965 -0.00218890 -0.00149786
O -0.45612598 14.92629302 21.28748362 -0.00109535 -0.00700138 0.00260795
O -2.06079340 19.55286925 20.18595308 -0.00469257 -0.00633873 0.00565054
O 2.46405208 14.27122729 14.20846773 0.00008459 0.00280657 0.00031908
O 4.09281746 9.16931100 15.61809321 0.00363695 -0.00066553 -0.00031684
O -2.00628042 18.66497896 26.12755441 -0.00339337 0.00217934 -0.00037295
O -1.41126398 13.78496770 27.46141075 -0.00203584 0.00154519 -0.00259227
O 1.06682735 10.59722511 33.35807652 0.00349677 -0.00291316 -0.00300909
O 0.26768599 15.67008068 32.21005660 0.00070705 0.00188564 0.00100118
O -1.88924887 14.81049746 33.37289589 0.00726261 0.00104427 -0.00132875
O -3.37320932 19.31527589 31.99431378 -0.00215069 -0.00092395 -0.00508815
O 0.67198781 14.72552901 25.81962358 0.00049784 0.00130673 -0.00225066
O 2.46672369 9.99060846 27.42749797 -0.00114803 -0.00176746 0.00103078
O 0.67822147 28.34520862 2.35740573 -0.00331237 0.00245687 0.00467854
O 2.04217640 22.81550748 3.32095992 0.00107939 0.00504600 0.00015540
O 4.47815200 20.27834085 9.25989997 -0.00056849 0.00499777 -0.00115665
O 3.33034443 25.22625308 8.43893797 -0.00535253 -0.00040861 0.00223189
O 1.20519236 24.26712356 9.69100912 0.00314341 0.00530526 0.00125376
O -0.06827047 0.26074340 8.04073337 0.00076486 0.00121231 0.00172283
O 3.87420615 23.88851627 1.90061047 0.00204284 -0.00029099 0.00062580
O 5.40776135 19.38962031 3.58091380 -0.00064800 0.00227813 0.00153253
O -0.83901040 27.68769360 14.48995943 0.00106114 0.00261122 -0.00346683
O 0.53262568 22.82380650 15.28012871 0.00043169 -0.00549856 0.00000029
O 2.90145444 20.16503910 21.60178573 0.00144041 0.00181281 0.00424378
O 1.80725633 25.22464091 20.51915698 0.00411380 0.00047985 -0.00003549
O -0.26049394 24.20965098 21.68270917 0.00768931 -0.00140079 0.00118125
O -1.89953673 28.93316414 20.13464120 -0.00180775 0.00217756 -0.00244225
O 2.51914601 24.18499557 14.04596818 0.00160678 -0.00552533 -0.00192351
O 4.01272390 19.01741448 15.33326983 -0.00404578 -0.00622854 -0.00196927
O -2.42923307 27.90799981 26.53880929 0.00054586 0.00382938 0.00197836
O -1.10706722 23.10838106 27.56904169 -0.00303855 0.00415599 0.00309198
O 1.63159156 20.71377532 32.93467461 0.00022757 0.00294653 0.00433722
O 0.22069746 25.00294836 32.29468823 -0.00013002 -0.00218571 0.00263193
O -1.95495866 24.40360046 33.53621372 -0.00112323 -0.00201985 -0.00097620
O -3.60888266 0.25443012 31.79443153 -0.00439425 -0.00078535 -0.00426841
O 0.72220927 23.95890879 26.06308123 -0.00314951 0.00305334 -0.00098167
O 2.49141750 19.36429200 27.11862360 0.00484809 -0.00166474 -0.00094275
O 7.49359514 8.22814774 2.67062370 0.00165402 0.00431017 0.00084839
O 8.80184127 3.82566126 3.62188025 0.00094003 0.00214383 0.00129705
O 11.31228884 0.93356267 9.61742689 0.00470685 0.00093798 0.00739364
O 10.10347949 6.05845874 8.43015451 0.00859717 0.00300943 0.00553495
O 8.18545360 4.67368116 9.58808466 0.00261970 0.00176097 0.00248515
O 6.59837502 9.77008409 8.29636819 -0.00599076 0.00393431 0.00180852
O 11.00937356 4.67046328 2.48257307 0.00341308 0.00120207 0.00038398
O 12.41714908 28.62510616 3.54529657 0.00002608 -0.00243698 0.00083523
O 6.16544038 8.73250902 14.14482159 -0.00487157 0.00047596 -0.00234678
O 6.94151089 3.66283335 15.30949452 -0.00108786 0.00151211 -0.00469980
O 9.71361781 1.01200118 21.40035403 -0.00004676 -0.00787329 -0.00255319
O 8.70481789 5.58884853 19.95248246 0.00167426 -0.01045401 0.00316620
O 6.66428015 5.12054372 21.61103393 -0.00187288 0.00003907 -0.00844382
O 5.27951767 9.57912769 20.11516896 -0.00113651 -0.00356266 0.00056747
O 9.16928989 4.49904233 14.42427362 -0.00457306 -0.00620101 -0.00384684
O 10.81133086 28.78457946 15.41375484 0.00044680 0.00007428 0.00293745
O 4.41252647 8.67249237 26.60147133 0.00477194 0.00050547 -0.00140486
O 5.55293488 3.73283417 27.06256144 0.00538554 -0.00220794 0.00163813
O 8.45572812 1.64422697 33.02895461 0.00635529 0.00439994 0.00892230
O 7.32244804 5.54333789 31.98330461 0.00232053 -0.00199652 0.00215626
O 5.08669888 5.35049169 33.19654032 0.00108869 -0.00388343 0.00225716
O 3.35640814 9.94054165 32.18552982 -0.00014843 -0.00207077 -0.00359820
O 7.65101728 4.97693445 26.04811485 0.00027786 -0.00249881 0.00036026
O 9.21660203 28.88640189 27.25180799 -0.00044091 -0.00146723 -0.00443185
O 7.59885674 18.29256583 2.46742001 0.00103936 -0.00397627 -0.00537862
O 8.77491200 13.37562699 3.49930490 -0.00538466 -0.00787756 -0.00277169
O 11.52460841 11.01950517 9.28204864 0.00130226 0.00031338 0.00212334
O 10.28640806 15.44364487 8.16787627 -0.00209164 0.00380519 0.00167102
O 7.98271052 14.45742898 9.22287133 -0.00095364 -0.00030367 0.00119049
O 6.81878702 18.97397722 8.13051904 -0.00020316 -0.00275576 0.00256649
O 10.90286683 14.47566130 2.58975674 -0.00352470 0.00038331 0.00436811
O 12.24042741 9.50631947 3.59552375 -0.00201218 -0.00335590 0.00040840
O 6.09583687 18.13041946 13.97437059 0.00354388 -0.00358429 0.00572713
O 6.97554873 13.12472931 15.13989654 -0.00315255 0.00551721 -0.00568564
O 9.75911426 10.32984859 21.38656792 0.00136119 0.00017730 0.00284024
O 8.55049379 15.62832810 20.24194137 0.00644906 -0.00624104 0.00282873
O 6.76585757 14.45679601 21.57604350 -0.01438717 -0.00185259 -0.00144541
O 4.98446649 19.33972835 20.20735790 -0.00097604 0.00271319 0.00411379
O 9.40060680 14.10319137 14.47822321 -0.00096570 -0.01007710 -0.00175896
O 10.91079732 9.53271621 15.49653400 -0.00325067 -0.00236780 0.00239343
O 4.44855736 17.94308263 26.43719415 -0.00193099 -0.00141839 0.00156842
O 5.51207986 13.75421481 27.54645417 0.00481697 -0.00046306 -0.00341896
O 8.16809905 11.06931814 33.17791299 -0.00229945 0.00106436 0.00550681
O 6.98894446 15.58176448 32.16986718 0.00022845 0.00009792 -0.00164652
O 5.15228508 14.52718738 33.72113526 -0.00928218 0.00318833 0.00369379
O 3.64512621 19.34768958 31.95869313 0.00434530 0.00423595 0.00016977
O 7.76625060 14.37645584 26.14907209 0.00086263 0.00216349 -0.00226484
O 9.33093745 9.66441652 27.28661960 0.00467237 0.00343350 0.00015953
O 7.66187212 27.87337267 2.43552532 0.00394096 -0.00434607 0.00122409
O 8.69534257 22.96950511 3.56957375 0.00222021 -0.00181373 0.00382374
O 11.24800090 20.44091631 9.50227591 0.00532188 -0.00453995 -0.00453011
O 10.06597190 24.84153052 7.97687218 0.00483695 0.00609619 0.00606990
O 8.23739336 24.12176725 9.65012415 0.00449157 -0.00037701 0.00343872
O 6.64092821 28.80391120 7.96686961 -0.00297613 0.00356215 0.00125019
O 10.80270859 24.05470880 2.16411608 -0.00940767 -0.00645958 0.00168315
O 12.36398199 19.21051768 3.28833589 -0.00430526 -0.00553425 0.00545367
O 5.90436967 27.72598004 14.37857218 0.00149817 -0.00376155 -0.00414864
O 6.87240957 22.98801634 15.35605668 0.00206641 -0.00274084 0.00075464
O 9.75639611 20.06814731 21.63802818 -0.00595766 0.00547456 -0.00008206
O 8.78839124 25.14387902 20.11660618 0.00445943 -0.00670495 -0.00761769
O 6.77924014 24.19760391 21.48575838 0.00134690 -0.00325445 0.00396352
O 4.95727606 28.90139307 20.04309450 -0.00195557 -0.00360302 0.00867244
O 9.16539802 24.01137471 14.12602841 0.00415006 0.00241253 -0.00659144
O 10.83251560 19.05989662 15.45312940 -0.00372779 -0.00264722 0.00212458
O 4.42182475 27.89965344 26.28933242 -0.00226372 0.00432947 0.01026543
O 5.78044611 22.91493326 27.18107403 -0.00247210 -0.00449387 0.00233482
O 8.43988001 20.76265779 33.07041276 -0.00062811 0.00056100 -0.00078290
O 7.05365788 25.06377797 31.76568365 0.00153696 -0.00089542 -0.00316179
O 5.05891378 24.69723189 33.17562725 -0.00795130 0.00358885 0.00299693
O 3.45615119 0.12524496 31.69008427 0.00421061 -0.00009840 0.00026210
O 7.82228616 24.34959848 25.98976297 0.00667649 0.00077952 -0.00327286
O 9.31532562 19.33419093 27.68643007 -0.00317469 0.00125939 0.00169674
O 14.54737348 8.72056450 2.65061651 -0.00091953 -0.00145893 -0.00481359
O 15.72345907 3.82487832 3.64423959 -0.00373818 0.00384637 -0.00779584
O 18.23487605 0.89652871 9.35807443 -0.00188748 0.00514093 -0.00815298
O 16.74349540 5.94398199 8.79987652 -0.00265708 0.00015927 -0.00182703
O 14.75375052 4.47714762 9.47686037 -0.00113346 0.00389218 0.00014736
O 13.37249244 9.61307258 7.92590589 0.00052863 0.00263092 0.00302294
O 17.72347726 4.47893922 2.28950737 -0.00112915 0.00228819 -0.00108435
O 19.20062392 0.17465083 3.81545332 0.00198550 -0.00145411 -0.00157335
O 12.93384819 8.71537179 14.04900599 -0.00213858 0.00324443 -0.00189949
O 14.07994981 3.52932353 15.35459980 0.00774474 -0.00391555 0.00944833
O 16.74388234 1.25749310 21.22728756 0.00070968 -0.00564728 -0.00337762
O 15.48485853 5.65005802 20.11948030 -0.00374015 0.00378988 0.00052278
O 13.42831266 4.74740611 21.60163145 0.00467291 0.00091395 0.00481736
O 11.83378605 9.56291995 20.03469797 0.00075011 -0.00091063 -0.00360284
O 16.09026692 4.61674256 14.16979495 -0.00082457 0.00680942 0.00171479
O 17.53430005 28.66863515 15.55989073 0.00303621 0.00390681 0.00030978
O 11.35608169 8.30129044 26.55086974 -0.00328872 -0.00394467 -0.00150650
O 12.36692287 3.69074049 27.06770090 -0.00446568 0.00526288 -0.00194823
O 14.92609135 0.94586224 33.12839961 -0.00184609 0.00202009 -0.00287482
O 14.11585333 5.65050179 32.05853332 0.00053367 -0.00653929 0.00055316
O 11.98520242 5.01397784 33.26979067 0.00471557 -0.00167644 0.00070212
O 10.39963609 9.95860618 32.47630040 -0.00382631 -0.00392750 -0.00306789
O 14.51439742 4.72823472 26.10198383 -0.00451121 -0.00138280 -0.00229719
O 16.19614039 0.08612446 27.39836229 -0.00239704 0.00392403 -0.00287500
O 14.76931898 18.72914606 2.31969945 -0.00564760 0.00298959 0.00696173
O 15.90172336 13.24862602 3.41408944 0.00290298 0.00088650 0.00252356
O 18.30229452 10.77866447 9.40959360 0.00176736 0.00332910 0.00258900
O 17.04220555 15.70764325 8.34741091 -0.00528723 0.00050874 -0.00800408
O 14.97215395 14.74642618 9.59888215 -0.00584423 0.01165233 -0.00185129
O 13.46510157 19.65301678 8.54919406 0.00150156 -0.00081756 -0.00065276
O 17.69199462 14.90942067 2.56617364 0.00707540 -0.00551110 0.00365206
O 19.37571393 9.57798827 4.11986045 -0.00260103 0.00284280 -0.00344817
O 12.80409260 17.81774984 14.57869121 -0.00586500 0.00326055 0.00343267
O 14.15368528 13.40459559 15.52075221 0.00553450 0.00859350 0.00271103
O 16.50987452 10.75482786 21.38376794 0.00037789 -0.00055958 -0.00278915
O 15.54459919 15.76625139 20.38434646 -0.00453253 0.00212294 -0.00676400
O 13.35576705 14.60012419 21.39322637 0.00050823 0.00160255 -0.00001910
O 12.07234536 19.81752406 20.37041959 -0.00551320 0.00377969 -0.00264347
O 16.24206172 14.20627991 14.37078164 0.00096728 0.00373103 0.00365426
O 17.77448550 9.70112167 15.69119408 0.00680914 -0.00010214 -0.00726312
O 11.09786039 17.88032663 26.35222108 -0.00367402 0.00474710 0.00228283
O 12.37642182 13.42208724 27.53602201 -0.00633374 0.00056552 -0.00417341
O 15.14776330 10.88557279 33.54426595 -0.00849186 0.00423141 -0.00053609
O 14.32369596 15.41549726 31.76264979 -0.00272650 0.00227012 0.00031642
O 11.97094921 14.49877218 33.49651834 -0.00666502 -0.00167752 0.00061246
O 10.42889759 19.35960477 31.77947224 0.00203424 0.00410248 -0.00338370
O 14.27167764 14.45791809 26.16418991 -0.00356259 -0.00221958 0.00487124
O 16.08184749 9.95492850 27.65977946 0.00060110 -0.00811921 -0.00026281
O 14.39617131 27.76104391 2.25787570 0.00633131 -0.00464039 0.00661343
O 15.46526655 23.14732973 3.61706513 0.00003460 0.00418427 0.00036968
O 18.10838972 20.19151925 9.52005248 0.00426050 -0.00221004 0.00562323
O 16.97028418 25.31263006 8.28573579 -0.00355508 -0.00009475 0.00347449
O 14.96248143 24.05131355 9.32236332 0.00165126 -0.00165595 -0.00525685
O 13.40899578 0.21890072 8.30174876 -0.00139345 -0.00012565 -0.00042577
O 17.62799154 24.22373297 1.99520922 -0.00188039 0.00436577 -0.00049004
O 19.32389949 19.40040121 3.73398300 -0.00154627 -0.00523503 0.00076708
O 12.84648670 27.44559505 14.41016973 0.00060023 -0.00527361 0.00004517
O 13.87187400 22.99713022 15.28551675 0.00265205 -0.00023746 0.00014081
O 16.61008849 20.25296953 21.82250422 0.00024479 0.00297162 0.00076582
O 15.67727808 25.07258610 20.29555301 -0.00563678 0.00141825 -0.00108513
O 13.53790986 23.87552414 21.52650991 0.00068523 0.00547030 0.00272138
O 11.68355297 0.29978175 19.98009039 -0.00465154 0.00511572 0.00053198
O 16.07536035 24.05431773 14.11337282 0.00384631 -0.00572426 -0.00026132
O 17.88505596 19.41079112 15.57092964 0.00589364 0.00389896 -0.00180969
O 11.24028187 27.87281959 25.88462441 -0.00416734 -0.00001223 0.00374750
O 12.66950696 22.88971115 26.95774828 -0.00322177 -0.00902734 0.00024609
O 15.20527530 20.53327493 33.11860124 -0.00034616 0.00454000 0.00589181
O 14.01617181 25.31915222 31.99989584 -0.00015058 -0.00698431 0.00270845
O 12.00157659 24.35611427 33.17884565 -0.00208027 0.00402990 -0.00053477
O 10.13054496 0.18179121 31.92702328 -0.00295521 0.00222952 0.00366020
O 14.54201323 24.34557562 26.05803241 0.00240731 0.00234455 0.00668427
O 16.31121421 19.55834595 27.11222917 -0.00131057 -0.00717829 -0.00209221
H -0.14437111 8.56827676 3.07547410 -0.01776088 -0.00230432 0.00982519
H 2.68847491 4.13226268 2.87428433 0.02867693 0.01836146 0.01088093
H 5.49870678 0.33225810 8.99244166 -0.00558716 -0.00218882 -0.00866080
H 2.68595831 5.75830107 8.62574670 -0.01074614 0.01246897 0.00090416
H 5.74812825 8.40836026 0.71515044 -0.00602246 -0.02012144 -0.00377754
H 4.03624279 3.30911704 4.65574324 -0.02129231 -0.00209643 0.00346995
H -0.30339390 1.55481510 10.85035987 0.01859744 -0.01323963 0.01184855
H 1.37293653 6.61309106 6.63216080 -0.01781485 -0.00512094 0.01387399
H 4.23798836 6.78955279 10.57463807 0.00726142 0.00479957 0.02272575
H 4.13211358 1.96313444 6.60769921 -0.01321775 -0.00014726 -0.01225852
H 1.30413435 3.29547628 0.66993687 -0.02101321 0.00775720 0.00704595
H 1.38810676 8.21493918 4.96666683 -0.01092672 -0.00634086 -0.01133562
H -1.90187337 5.86043731 35.44313144 0.00738384 -0.00108397 0.01337578
H 0.02406120 0.78982251 5.87403219 -0.00781064 0.00302153 -0.01081024
H 2.53490828 3.82080931 11.65489932 0.01199102 -0.00067269 -0.00920648
H 5.65695678 8.92441414 5.98666569 0.02108889 0.01377427 -0.01111060
H 2.65813868 6.88811197 2.07960405 -0.03706904 0.03321647 0.01990666
H 0.18322869 1.89115341 3.67913052 0.00641793 0.01769384 -0.00779335
H 2.51735709 2.10671174 9.98511863 -0.00089185 0.02108541 -0.02773139
H 5.63672165 7.11311533 7.37550144 -0.01887537 0.00795036 0.00914732
H 5.02603637 5.14633042 9.64465036 -0.01851788 -0.00185937 -0.01333843
H 3.07683037 0.55255190 8.12963928 0.00205799 0.00607368 -0.00031575
H 0.15925449 4.64375079 2.00716149 0.00543897 -0.01246897 -0.01932464
H 2.37834709 9.73434557 3.88886245 0.00451027 -0.02131431 0.00057440
H 7.27105838 3.61654780 7.39031953 0.01601553 -0.00246480 -0.01617422
H 1.16475464 7.65755474 9.52071208 0.00516940 0.01535418 -0.00251282
H 19.35701560 5.30167548 4.42183081 0.00757924 -0.02803252 -0.00031732
H 3.17735884 0.60981407 1.68833017 -0.00951544 -0.01370999 0.00860258
H 0.40962218 4.41349195 7.44434534 -0.00950301 -0.01049253 0.00933851
H 0.73707051 8.89590679 10.61568331 -0.00351553 0.01310877 -0.00020125
H 4.79118791 5.71360695 4.42764744 0.00541195 -0.02958702 0.01470200
H 3.95871825 2.01200219 2.53338729 -0.00320466 -0.02560337 -0.01221534
H 19.45913941 3.81215832 8.01791745 -0.01477708 -0.00304733 -0.00671128
H 2.37688959 8.83443788 9.77768861 -0.00898442 0.01268826 0.01875915
H 6.51379163 6.10943868 3.96562029 0.01018815 -0.00947345 0.00628550
H 4.97783953 0.88082835 1.51099877 0.01220596 -0.01814019 0.01670145
H -1.77253199 8.90869612 14.94553621 -0.02540799 0.00321672 -0.01193752
H 1.16980679 3.84667671 14.79191211 -0.00395540 0.00214566 -0.01711487
H 3.80591196 0.85236260 21.12929455 -0.00929385 -0.00163643 0.00510763
H 1.07833502 5.19142594 20.65333201 0.01496775 -0.01620495 -0.02098344
H 4.09206780 8.19818957 12.41593287 0.00599478 0.00358876 -0.00695727
H 2.19546719 3.44755949 16.95270487 0.01265527 0.01399396 -0.01083848
H -2.07806989 1.34431744 23.32035602 -0.02211107 -0.00100052 0.00777460
H -0.26495640 6.33521168 18.75253385 0.00264504 0.02822905 0.01176630
H 2.47514418 6.92205358 22.89760178 0.01658152 -0.01035013 0.00929535
H 2.03471758 2.07691269 19.17232334 -0.00872990 0.01570464 0.01672340
H -0.59788407 2.75644338 12.99910992 0.00333228 0.00055753 0.00367676
H -0.08756132 7.65311662 16.94611979 -0.03235757 -0.02080995 -0.00322921
H 1.26944745 5.84929177 11.78165005 -0.01691093 -0.01009548 -0.01753672
H -1.59354294 0.43441623 17.77042948 -0.00789013 -0.00866048 -0.01464364
H 1.09450712 4.48467579 23.83467907 0.01394702 0.00692834 -0.01821937
H 4.00983017 8.86717142 17.97613438 -0.01055231 -0.02435386 -0.01442510
H 1.25085095 7.27558816 13.66659631 0.00787101 0.00403270 0.01835038
H -1.67554249 2.20564105 15.88760811 0.01843178 -0.00365555 0.01825771
H 0.80353031 2.74061510 22.19135940 -0.02163820 0.00655805 0.01163001
H 3.85184896 7.24348020 19.71837550 0.00644959 0.01634224 0.02512120
H 3.43868797 5.05224011 21.74051754 0.02459512 0.01528805 -0.01250348
H 1.27030314 0.21476802 20.00441155 -0.04418674 0.00333678 -0.00922172
H -1.41730077 4.83787180 13.73956276 -0.01301482 0.01507412 0.01162462
H 1.01045130 9.79662533 15.98154717 -0.00406384 0.00558936 0.01115571
H 4.66973613 2.89070644 20.61791745 -0.00884376 -0.01811018 -0.02721620
H 0.95107511 8.99169124 21.88279995 0.01173560 -0.01106217 -0.01016238
H -1.79671126 5.71178270 15.42410483 -0.01988400 -0.01733884 0.01179856
H 1.42799076 0.92563595 13.91670352 0.00758318 0.02280352 -0.01512597
H 17.89267922 4.48441311 19.18062073 -0.01592706 -0.02832631 0.01020833
H -0.04867157 7.57586755 21.37314477 -0.01746788 0.00169851 -0.00999604
H 3.05605208 5.87809753 15.78291791 0.01859861 0.00895541 -0.00379022
H 2.65959160 1.93091884 14.51780252 -0.02165764 0.01000766 -0.00848111
H -2.21061996 2.93418089 19.76275203 -0.00453797 0.01077212 0.01915214
H -0.58472120 8.66687997 22.59665482 0.01017399 0.00504965 0.02260336
H 4.55378039 6.49858812 14.96353421 0.01521801 0.00303476 -0.00607220
H 3.19377522 0.57980536 13.34463746 -0.02291646 0.02345761 -0.01392378
H -3.14508103 9.31051405 26.06742539 -0.00427880 0.00677162 -0.01875991
H -0.50986165 4.25632458 26.93435215 0.01798626 0.00590250 -0.00551681
H 2.31768348 0.80246897 32.68366631 0.00128436 -0.00482183 0.00115440
H -0.63588331 5.76892395 32.25684650 0.00822814 -0.00374920 0.00960164
H 2.46384072 8.49600478 24.90316943 -0.00006233 -0.00248392 -0.00884443
H 0.57775634 3.57464417 28.93977381 -0.01214387 -0.00964483 0.00937736
H -3.37671636 1.97780390 34.29815726 0.01473962 0.00333762 -0.00329336
H -1.86234051 6.93458968 30.63170326 -0.00914971 0.00148923 -0.01104666
H 1.12391729 7.31391448 34.18233957 0.00243828 -0.01211055 -0.02417471
H 0.46521405 2.14045251 30.97903660 0.00886302 -0.00892175 0.00095989
H -1.90723518 3.16090722 24.83317616 0.00252332 -0.00601201 0.00070353
H -1.78283854 8.12924682 28.48774262 -0.00880574 0.00167042 -0.02552972
H -0.32722936 5.52633778 23.60894034 0.00436667 -0.00164087 -0.02229522
H -3.48541353 0.82344659 29.62089848 -0.01576315 -0.01486163 -0.00824786
H 4.29506627 4.21718639 0.19454070 -0.00303683 0.02203135 0.01553410
H 2.33991912 9.15383063 29.45214135 -0.01017992 -0.01025139 -0.00160672
H -0.34825764 7.19863716 25.30022278 -0.01853588 -0.00094928 -0.03522347
H -3.42755577 2.60753153 27.98277311 -0.00830118 0.02582762 -0.00177240
H -0.46485530 3.00129152 33.68837599 -0.01366021 -0.01208347 0.01149492
H 2.40621012 7.18695952 30.93820422 -0.00275325 -0.00742476 -0.01330441
H 2.02146207 4.91373668 33.25969927 -0.01976368 0.00297846 0.00030660
H -0.41552553 0.13826597 31.86104944 -0.00533472 -0.01106117 -0.00463338
H -2.98963253 4.96478323 25.73132511 -0.00147485 0.01750137 -0.01968913
H -0.65816229 10.00028207 27.43349288 -0.00051817 -0.01628589 0.00292034
H 2.80595615 3.82714442 31.50792411 0.02248064 0.01562694 -0.01086696
H -1.09626863 8.16664122 33.43643621 -0.01151365 -0.00621182 -0.00162225
H 15.37403628 5.78916930 28.30805610 0.00617151 -0.01739472 -0.01786268
H 1.68884672 2.07764534 26.66916367 0.00832991 0.01303949 -0.01414441
H 16.29656664 4.12740914 31.73462191 0.01630039 0.01334876 0.00002038
H -2.63119179 8.78472281 34.37469698 -0.00623755 -0.00385828 0.00657681
H 1.72546904 6.08415934 28.35678489 0.01226042 -0.01311883 -0.00037361
H 1.36298613 1.00474458 25.48006219 0.01704115 -0.00578322 0.01382302
H -2.96312872 3.00023713 32.22664695 0.00695550 0.00100763 0.01473283
H -1.02928409 9.54866952 34.37704957 0.01169060 -0.03345418 -0.00374123
H 3.36712285 6.62955957 27.45997471 -0.01781855 0.02199026 -0.01552881
H -0.05819096 1.57900648 26.56619837 -0.01965315 -0.00845005 0.01335170
H -0.19752229 18.71039251 2.81870313 0.00611967 0.03837292 0.02311258
H 3.00973034 13.72875294 3.12771308 -0.02811922 -0.01133536 -0.03120448
H 5.27469035 10.01375185 9.06866215 0.00593092 -0.01228239 0.00800153
H 2.25417533 15.03842435 8.61461083 0.02206627 0.00837976 0.00972526
H 5.63375545 17.97768863 0.47587808 -0.00953127 -0.03026591 0.01187909
H 3.98746171 13.11269167 5.28803446 -0.02073067 -0.01184883 0.00272532
H -0.35002399 11.18150298 10.87964564 0.00422890 0.00822690 -0.01927419
H 1.15532417 15.87538436 6.46368969 -0.00214142 0.01968911 -0.00654232
H 4.09818310 16.28602550 10.43944122 -0.00490165 -0.01052074 0.00193206
H 3.75864112 11.84145806 7.23340647 -0.00105496 -0.03336006 -0.00026432
H 1.21911440 12.78769893 1.53333715 -0.00528815 0.00723968 -0.00251564
H 1.19504588 17.39956940 4.65070313 -0.00732623 -0.01059747 -0.01929563
H -2.11666910 15.11407531 35.61172651 0.00580735 -0.01256422 0.00570497
H -0.16408419 10.53929655 6.12224769 -0.01363704 -0.00366774 -0.00002570
H 2.41781962 13.67084989 11.88576454 0.01187448 -0.01657034 -0.02559302
H 5.23691273 18.57251559 5.68855365 0.01433749 0.00629018 -0.01636984
H 2.63360997 16.69593481 1.93048575 0.00034704 0.03115603 0.02064345
H -0.01508197 11.90246710 4.16261959 -0.00805324 0.02265587 0.00962849
H 2.45745228 11.87914809 10.21115695 0.02393751 0.00303810 0.01134326
H 5.21696965 16.98707763 7.49820584 -0.02878048 -0.01763714 -0.01397935
H 4.86646810 14.27240738 9.50660407 -0.00233817 0.01226996 0.01509255
H 2.87051275 9.92198942 8.18779565 -0.00076978 0.00534092 0.00016724
H 0.28082869 14.48097971 2.43137170 -0.01858355 -0.00657688 0.01488654
H 2.22507608 19.05960261 3.55024451 -0.01064197 -0.00646967 -0.02174258
H 5.46939350 13.74341326 7.48493932 -0.00000694 0.00484471 0.02591499
H 0.85345763 18.10670624 10.50296562 -0.00743405 -0.01087775 -0.04629945
H -0.22348605 15.06989595 4.59415162 -0.00294306 -0.00258121 0.00029474
H 4.88297388 11.47420882 2.02652730 -0.01927866 0.00094437 0.00903674
H 19.07164610 13.96591165 7.85119494 0.01354189 0.01072556 -0.01133770
H 2.33488723 17.70772131 9.40721791 0.00368057 -0.00810335 0.01305232
H 5.14870400 16.83670120 3.17547862 -0.00650325 -0.01881957 -0.00954652
H 4.00830646 10.20425336 1.39311589 -0.02635097 0.01337618 -0.00873677
H -0.50726130 12.51751237 8.21295538 -0.02550145 -0.00654492 0.00221674
H 0.75123194 17.02221048 9.24741117 0.01079277 -0.00559522 -0.00169101
H 4.81109581 15.46515211 4.40643258 -0.01796588 0.03078947 -0.00393320
H 3.17404374 11.54672395 2.41815524 0.01085967 0.01928859 0.00576548
H -1.50031214 18.57504793 14.96998413 -0.01543350 0.00299299 -0.00414319
H 1.37527761 13.79503583 15.28631094 -0.00884733 -0.00085067 -0.00763944
H 4.07536445 10.31794907 21.24833728 0.00826285 -0.00198868 -0.01584274
H 0.88783188 15.41493031 20.64080153 -0.02229175 0.02490871 -0.03636952
H 4.27158544 18.04141759 12.12081684 -0.00295884 0.02236140 0.00192012
H 2.59731795 12.91394912 17.09989743 -0.02870010 -0.00376054 0.01134312
H -2.08394658 11.21840623 23.03984045 0.03211838 -0.00048450 -0.00562654
H -0.09906015 15.91963663 18.78376293 0.00920965 -0.00930852 0.00904254
H 2.60152833 16.62064260 22.66112884 -0.00570640 -0.00741258 -0.00415195
H 2.54809090 11.32295662 18.98728622 -0.00611370 0.02143861 -0.02392378
H -0.23618487 12.51502121 12.98187598 -0.00909022 -0.01920892 0.00582073
H 0.02055041 17.39391882 16.73072376 -0.01274471 -0.00156265 0.02782544
H 0.91721778 15.10250075 11.53509290 0.00114077 -0.00716980 0.02155108
H -1.73783055 10.67898890 18.47383282 0.00968946 -0.01356452 0.01483226
H 1.02020417 13.94058096 23.67418956 -0.02224246 0.00928881 -0.00202857
H 4.09488337 18.41896074 17.55437566 0.01013384 -0.01141093 0.00345733
H 1.09896652 16.42472352 13.71232998 0.01266324 0.00091540 -0.02496108
H -1.65111427 12.27237927 16.60148713 0.00588241 -0.00987824 -0.00002988
H 1.00964258 12.20693843 22.01361471 0.01571075 0.01916771 0.03380469
H 4.02524350 16.87068992 19.49215982 0.00847889 0.01432261 -0.01079290
H 3.55587810 14.51385355 21.57755954 -0.00182746 -0.02237895 0.00644121
H 1.38872665 9.66069432 20.08262917 0.01158612 -0.01624899 0.00592371
H -1.22438784 14.23346334 14.23232689 0.03201095 -0.01589026 0.00359569
H 0.79736611 19.04189769 15.62328714 0.00406568 -0.00189973 -0.02517099
H 5.82737536 12.27738023 20.40591561 -0.00932017 -0.00104992 -0.02229781
H -1.31082823 18.54993395 22.39019687 0.00982444 0.02350669 0.00045746
H -1.75159106 15.67009904 15.83013462 -0.02111536 0.00210553 -0.00843660
H 1.57490361 10.10430312 13.82288773 0.02286291 -0.01646750 0.00217388
H -1.27179268 13.60115270 19.44388971 0.01530573 -0.00451491 -0.03217523
H 0.34669294 19.24679573 22.14414800 0.01261846 0.00599902 -0.00917309
H 3.51727582 16.80986920 14.69041516 -0.00193788 0.01185270 0.00798285
H 2.64680166 11.45029691 14.23744493 0.01112184 -0.00988120 0.01516290
H 17.62187388 13.63707111 19.94409217 -0.00166072 0.02558185 0.00225114
H 0.01113086 17.59969071 21.62561265 -0.00071932 0.00772275 -0.01354410
H 3.46859684 15.74323905 16.12029604 -0.00814349 -0.00817115 0.02484597
H 3.27904930 10.05346393 13.22597719 0.01010679 0.00325094 0.01263627
H -2.92596432 18.84646236 26.52744007 0.01443871 0.00205284 0.00721920
H -0.50635305 14.03369021 27.09788304 0.00750056 0.00887848 0.00702372
H 1.95348908 10.19642712 33.13834024 0.01794607 -0.00205428 0.00950496
H -0.56199230 15.23394357 32.55725580 0.02837096 -0.00355113 -0.03020678
H 2.48606723 17.53723795 24.76775480 -0.00688636 0.01313376 -0.00233848
H 0.61972797 13.24599932 28.89393372 0.00066400 0.02750003 0.00811452
H -3.45046404 11.28227253 35.26031541 0.01495826 0.01608750 -0.01356923
H -1.57590261 15.81707314 30.33372877 0.01776319 -0.02032153 -0.00280824
H 0.98128805 16.42035844 34.43649208 -0.00141727 -0.00903202 0.00549788
H 0.79119299 11.82304221 30.77819625 -0.01905707 -0.00675254 -0.00337421
H -2.15582995 12.71751649 25.06803700 -0.00726288 0.00988638 -0.00725461
H -1.44228198 17.44122029 28.35790393 0.01652636 -0.02432878 -0.01131963
H -0.44100082 15.21933632 23.66188430 -0.00748067 -0.00414935 0.00154103
H -3.25166829 10.43820290 30.30535669 -0.00208464 0.00829223 -0.01454531
H 4.05943235 14.09620709 0.13537193 0.01695883 0.00503005 0.01753080
H 2.31467739 18.77387965 29.60098267 0.00297753 -0.01796914 0.02341133
H -0.18486128 16.92585686 25.44905463 -0.02462531 -0.00083592 -0.01376272
H -3.43329517 12.24934212 28.39448029 -0.00405896 0.00501890 -0.01909110
H -0.69318446 12.50458866 33.90191982 -0.01026851 -0.00595797 -0.02863756