2160
Time=36000.00000001 pbc="T T T" Lattice="20.63542644 0.00000000 0.00000000 0.00000000 29.00295909 0.00000000 -4.72525718 0.00000000 35.50283199" energy=-13796.37881052 virial="-40.04312410 -7.94837395 74.20726574 -7.94837395 -39.52633892 -13.76796741 74.20726574 -13.76796741 -18.77038610" stress="0.00069015 -0.00046274 0.00360343 -0.00046274 0.00054620 -0.00071250 0.00360343 -0.00071250 0.00156566" Properties=species:S:1:pos:R:3:vel:R:3
O 0.75013073 8.81677970 2.48065073 0.00650866 -0.00001991 0.00662578
O 2.36432690 4.59654094 4.03076514 0.00435384 0.00084413 0.00116980
O 4.58976573 0.78391936 9.25172678 0.00016514 0.00310402 -0.00574393
O 3.04660578 6.04136912 8.20467662 -0.00154180 -0.00182793 0.00213251
O 1.14548972 4.84223752 9.42680002 -0.00349573 0.00002865 -0.00265631
O -0.25221099 10.08418808 8.15019946 0.00306700 -0.00177229 -0.00288711
O 4.19067186 5.03074109 2.07859832 0.00218175 -0.00026877 0.00246833
O 5.47033818 28.51288125 3.21665819 0.00358307 -0.00516809 0.00041797
O -1.07799485 8.22690154 14.47256502 0.00640038 0.00197136 -0.00098948
O 0.59388997 3.78216622 15.41586810 -0.00084792 -0.00681299 0.00314507
O 2.79482041 0.98326314 21.54402991 0.00023107 -0.00261241 -0.00282785
O 1.92174875 5.87417938 20.06921553 -0.00404966 -0.00709077 -0.00185404
O -0.35792568 5.14340501 21.05025211 -0.00294658 -0.00485084 0.00248913
O -1.76607888 9.51542076 19.98922599 0.00292167 -0.00093867 0.00289106
O 2.39967446 4.83752286 13.54676369 0.00231807 0.00008915 0.00229444
O 3.49173661 28.78697207 15.06606284 -0.00013424 -0.00793779 -0.00315160
O -2.22671349 8.35980703 26.12115747 -0.00081365 -0.00312261 -0.00683660
O -1.13814707 3.56164544 27.14734347 -0.00188968 0.00021704 0.00262254
O 1.39375231 1.17491263 32.96643080 0.00222372 0.00158764 -0.00205420
O 0.33281097 5.66909112 31.73346043 0.00563409 -0.00366781 -0.00257713
O -1.76810407 5.02649599 33.18526581 0.00011889 0.00654411 0.00099904
O -3.36671172 9.97194003 32.00627494 0.00013961 -0.00159419 -0.00024158
O 0.92156761 4.86006223 26.03753772 0.00010441 -0.00268092 -0.00500202
O 2.49147278 28.98964267 27.46331589 -0.00223823 0.00239998 0.00159988
O 0.64879366 18.34500267 2.20159470 -0.00058287 -0.00185008 -0.00168340
O 1.82210199 13.64613893 3.27696818 0.00187156 0.00025290 -0.00182050
O 4.73069743 10.69937937 9.49316484 -0.00436594 -0.00138561 -0.00464827
O 3.41345195 15.82172524 8.31061085 0.00202290 0.00395930 -0.00375863
O 1.49277552 14.99080471 9.86655737 0.00331477 0.00247001 0.00067105
O -0.30931383 19.65537480 8.19640797 -0.00110475 -0.00584062 -0.00062971
O 4.07260206 14.60360332 2.11990746 0.00295052 -0.00636709 -0.00127443
O 5.42161494 9.53873799 3.23255872 0.00123071 -0.00464921 0.00504873
O -0.99129576 18.16407903 14.35099536 -0.00159651 -0.00179426 -0.00196238
O 0.46356584 13.31728935 15.36837934 0.00220432 -0.00155610 -0.00528023
O 2.83364930 10.79635277 20.90317268 0.00056527 -0.00052878 0.00048168
O 1.94285292 15.30839442 20.09572343 -0.00358647 -0.00408759 -0.00203037
O -0.22302582 14.13689782 21.50383031 0.00200759 -0.00011193 0.00013154
O -1.66453732 19.20387419 20.11845160 -0.00626048 -0.00139581 0.00066591
O 2.65428437 14.32743632 14.39982690 -0.00354240 -0.00237880 0.00366894
O 3.75163115 9.65524040 15.24554400 -0.00358599 -0.00034071 -0.00335405
O -2.39993246 18.00612090 26.18509641 0.00107486 0.00708389 0.00045419
O -1.30907483 13.32599118 27.18181535 -0.00014098 -0.00060910 -0.00228768
O 1.39860219 10.79272740 32.83985841 -0.00129851 0.00837762 -0.00265873
O 0.24215563 15.47986099 31.95717491 0.00347551 0.00224850 0.00316393
O -1.90061026 14.72468036 33.05429450 0.00057694 0.00330181 0.00179005
O -3.21025104 19.58701358 32.20116317 0.00404410 0.00642394 -0.00397993
O 0.96341828 14.11848863 26.09446371 -0.00186426 0.00300811 -0.00267044
O 2.63997779 9.56705372 27.57838889 -0.00231429 -0.00340035 0.00183185
O 0.74911286 28.07426432 2.34682269 0.00419010 -0.00610703 0.00003470
O 2.04840871 23.21759908 3.74029933 0.00301703 0.00393083 0.00275478
O 4.48946825 20.52308242 9.24454906 0.00198876 -0.01038253 0.00918173
O 3.22454689 25.09448718 7.68410410 -0.00263140 -0.00181038 0.00029976
O 1.38578547 24.42807063 9.33287642 -0.00157100 0.00576071 0.00469656
O -0.17379942 0.36868850 8.11713812 -0.00146369 -0.00149784 -0.00075962
O 4.04445943 24.33857229 2.37343762 0.00011333 0.00031373 -0.00164422
O 5.70505775 19.25310685 3.36749328 -0.00464383 0.00728517 -0.00589395
O -1.11525668 28.13043662 13.96916563 -0.00270490 0.00073013 0.00177029
O 0.30200031 23.39826159 15.69819112 -0.00393359 0.00528877 -0.00502706
O 3.00397601 20.34332497 21.40909863 -0.00148999 0.00156746 0.00110728
O 1.87669909 25.43924797 20.19306010 0.00274001 0.00190905 0.00240919
O -0.23868403 24.37722262 21.38920152 0.00173879 0.00773249 0.00361170
O -1.98380338 28.94898032 19.93613392 0.00114964 -0.00118008 0.00063483
O 2.43565184 24.14644190 14.13646448 -0.00152868 -0.00405772 -0.00688184
O 3.85085502 19.32777321 15.46296824 0.00020824 0.00011882 -0.00218322
O -2.37369052 28.29380217 25.72708198 -0.00164910 0.00246892 0.00313617
O -1.29058660 23.54505191 27.60355767 0.00045051 0.00062802 -0.00771483
O 1.44705990 20.44033938 33.34333552 0.00388823 0.00225238 0.00114918
O 0.15045305 25.06713176 31.91170804 0.00597118 -0.00302727 0.00369069
O -1.75578899 24.26340633 33.30002591 0.00633445 -0.00903430 -0.00154678
O -3.23223487 28.76474589 31.81819650 -0.00486463 -0.00620504 -0.00364002
O 0.91361004 24.05395407 26.28027423 -0.00213289 0.00117616 -0.00247558
O 2.66207811 19.23464996 27.49329344 0.00596795 0.00477043 0.00137590
O 7.85156287 8.57769078 2.23605438 0.00469294 0.00576287 -0.00306428
O 8.92910321 3.63963791 3.32758220 -0.00374446 0.00154328 -0.00839535
O 11.29373749 1.11683705 9.47589355 0.00003636 0.00028872 0.00053827
O 10.13814570 6.16298925 8.39101632 -0.00180692 0.00750830 -0.00510470
O 8.34754348 4.83863147 9.52447284 0.00186267 0.00361458 0.00312369
O 6.35433549 10.10550966 7.75154157 -0.00763288 0.00164292 0.00024172
O 11.33797859 4.60820500 2.58732335 -0.00378446 0.00011913 -0.00149225
O 12.55986327 28.76637896 3.82889130 -0.00170943 0.00118280 -0.00669673
O 5.64184515 8.34377968 14.18320277 -0.00060705 -0.00531852 0.00338990
O 7.26759184 3.52135563 14.98375815 -0.00227657 -0.00273717 0.00602387
O 9.59737624 1.03658228 21.07542633 0.00545412 -0.00050567 -0.00327034
O 8.71748062 5.93126372 20.26520801 0.00173023 0.00041041 0.00529536
O 6.44750797 5.15772108 21.38238313 0.00111294 0.00682843 -0.00232581
O 5.03688893 9.63502215 19.82787920 -0.00170438 0.00052255 -0.00835399
O 9.18836269 5.20564294 13.74302549 -0.00205509 -0.00918495 0.00155194
O 10.73298992 28.98702818 15.36919870 -0.00076574 0.00164812 0.00182340
O 4.40037326 9.09679332 25.83803357 0.00449011 0.00567162 -0.00322186
O 5.71396538 3.62800805 27.33551800 0.00289933 -0.00180486 0.00203875
O 8.43123447 1.50251656 32.91959440 0.00074856 0.00441058 0.00000582
O 6.96949024 6.02471713 32.19027161 -0.00052372 -0.00485903 -0.00619212
O 5.19972771 4.65151621 33.41228545 -0.00409387 0.00255463 -0.00241090
O 3.51413890 9.61475921 32.01996963 0.00303093 -0.00382992 0.00771035
O 7.58926553 4.53165538 26.03025650 -0.00052173 0.00681272 -0.00007544
O 9.19868689 28.54539510 27.41456598 -0.00279970 0.00570675 -0.00149415
O 7.91157643 18.26407877 2.36103747 -0.00252915 0.00404404 0.00294678
O 8.91683326 13.62946177 3.10503076 0.00389551 0.00491732 -0.00744478
O 11.23621762 10.61812874 9.23853342 0.00483170 0.00409435 -0.00029918
O 10.40639600 15.44234507 8.62002186 -0.00387348 -0.00279036 -0.00266289
O 8.14246424 14.39794634 9.72604736 -0.00432569 -0.00256025 -0.00131320
O 6.65076492 19.35928028 8.27376800 -0.00482277 0.00121782 0.00338849
O 11.02499864 14.72642045 2.29612885 0.00352714 0.00794232 0.00071988
O 12.51924124 9.66612844 3.61650385 -0.00302004 -0.00974944 0.00048892
O 6.12445293 18.21369905 14.37122288 0.00089698 0.00028583 0.00691507
O 7.14509340 13.60370983 15.59450642 -0.00539177 0.00581974 0.00001285
O 9.91026760 10.74934495 21.30727179 0.00125198 -0.00133507 -0.00436374
O 8.71767823 15.90898210 20.41820705 0.00244167 0.00438784 -0.00136530
O 6.76258375 14.47165084 21.49037333 -0.00067305 -0.00356656 0.00078548
O 4.97296763 19.41967222 20.03503319 -0.00351056 -0.00174711 0.00158529
O 9.27865553 14.23919555 14.08821068 -0.00581307 0.00401499 -0.00245789
O 10.61463962 9.41386199 15.28121902 0.00038855 -0.00038722 -0.00163438
O 4.54811569 18.07843252 26.30660638 0.00739934 -0.00326407 0.00322985
O 5.78163307 13.29141320 27.39397534 -0.00123528 -0.00274329 0.00794306
O 8.41764124 10.77651232 33.03994626 -0.00749385 -0.00778642 0.00178714
O 6.98341821 15.56205370 31.94053213 -0.00252161 0.00104757 0.00303181
O 5.02700295 14.35193964 33.30767086 -0.00422435 0.00082826 -0.00539251
O 3.40604836 19.38470845 31.94273968 -0.00018298 0.00265042 -0.00267320
O 7.67891364 14.56116106 26.09589992 -0.00418446 0.00162216 -0.00117855
O 9.38143632 9.58988885 27.42925455 -0.00375655 0.00320281 -0.00315910
O 7.85115212 27.90605804 2.46055918 -0.00757493 0.00667500 -0.00353296
O 8.60477648 23.07635260 3.50558921 0.00166657 0.00367325 0.00608013
O 11.47958166 20.17295274 9.64599487 -0.00015217 -0.00278245 -0.00380003
O 10.18209005 24.94010196 8.25334205 0.00256006 0.00098752 0.00338736
O 8.08748922 23.98316717 9.45651386 0.00286035 -0.00084247 -0.00028977
O 6.54881090 28.83606247 8.04292710 -0.00103437 -0.00285566 -0.00491964
O 10.76153777 23.89619933 2.54430166 0.00224226 -0.00418916 -0.00217258
O 12.53153617 19.03848145 3.55659094 0.00105038 -0.00069573 0.00355729
O 5.74367198 28.09213657 13.94524490 0.00074851 -0.00948569 0.00256135
O 6.89142688 23.02704666 15.30184170 0.00236922 0.00636185 -0.00302613
O 9.89989387 20.41605408 21.19988102 -0.00604832 0.00315917 -0.00068983
O 8.53126693 25.29287991 20.16579789 -0.00213282 -0.00071419 0.00187925
O 6.63006184 23.97528111 21.40883282 0.00048010 0.00083508 -0.00522548
O 4.84453876 0.30395222 20.06662351 -0.00172113 -0.00352717 -0.00100624
O 9.10540437 24.09331282 14.07185256 0.00374946 0.00628410 0.00052793
O 10.58854758 18.95092150 14.98661066 -0.00136512 0.00553074 -0.00230804
O 4.54742894 27.92022549 26.37123398 0.00164916 -0.00047235 0.00604807
O 5.57260901 23.19598575 27.34562492 0.00409435 -0.00178427 -0.00111155
O 8.35399529 20.48833757 33.20052223 0.00061218 0.00826169 -0.00426856
O 7.07567681 25.13326713 32.19690340 -0.00033124 -0.00360684 0.00626132
O 4.77392990 24.23606222 33.12770308 -0.00401355 0.00405244 0.00196370
O 3.59443964 28.99427335 32.02368779 0.00152741 0.00331964 0.00430744
O 7.64573666 23.96315232 25.91382780 -0.00285289 0.00578624 -0.00105278
O 9.20299154 19.31194199 27.23421133 -0.00313602 -0.00340574 0.00747666
O 14.57960372 8.58560902 2.43423252 0.00278170 -0.00376335 -0.00007131
O 15.88883758 3.48654264 3.49543108 -0.00296671 -0.00074351 -0.00733518
O 18.29671583 0.98175751 9.41172888 0.00227510 0.00172817 0.00010008
O 17.15689757 5.89133711 8.65085125 -0.00630757 0.00474246 0.00393527
O 14.88420938 4.81005360 9.59504422 0.00106937 0.00641226 -0.00084918
O 13.40674172 9.59986949 8.10079474 -0.00083391 0.00287841 -0.00202072
O 17.77536905 4.61387434 2.26753311 0.00678809 0.00183834 -0.00161134
O 19.47193803 28.63720858 3.97866997 0.00459706 -0.00571603 -0.00368801
O 12.85646458 8.52094419 14.15770205 -0.01011146 -0.00062257 -0.00563930
O 13.96365303 3.70358005 15.03960502 -0.00155113 -0.00281522 0.00124563
O 16.57585093 0.84353143 21.35102201 0.00135691 -0.00386378 0.00829220
O 15.61374354 5.83913103 20.42878277 0.00202565 -0.00011527 -0.00026637
O 13.45402097 4.91893860 21.38265799 -0.00038397 0.00392300 -0.00220631
O 11.99074599 9.79708370 20.38774482 -0.00013563 0.00117472 -0.00069710
O 16.17135378 4.85317275 14.02291898 0.00619298 -0.00107801 0.00261707
O 17.50305020 0.09723876 15.41511683 -0.00107987 0.00780248 0.00032933
O 11.25270015 8.76957776 25.94679623 0.00120557 0.00269388 0.00720578
O 12.52816884 3.88551720 26.98647864 -0.00238802 -0.00252339 0.00361846
O 15.27117017 0.99914915 32.84137628 0.00085683 -0.00375357 0.00322656
O 14.00686509 6.09720806 32.11367981 0.00535301 -0.00435673 -0.00597635
O 11.89994635 5.03387070 33.02145513 0.00333617 -0.00315483 0.00224164
O 10.63763732 9.71226146 31.86569624 -0.00130633 -0.00014099 -0.00500106
O 14.79228165 4.85443584 25.94375084 0.00068344 -0.00266820 0.00019121
O 16.14601154 28.84019613 26.95254515 0.00221488 -0.00306350 -0.00459892
O 14.69547946 18.62014192 2.12232331 0.00183507 -0.00049863 -0.00296594
O 15.64868547 13.54998715 3.55883015 -0.00483909 -0.00175849 0.00644793
O 18.42232731 10.71019373 9.65053690 -0.00206527 -0.00332868 0.00356908
O 17.33286075 15.50706810 8.46381162 0.00399173 0.00199153 -0.00232213
O 15.31296620 14.37622168 9.83566055 -0.00824492 0.00369463 -0.00161137
O 13.46179354 19.12652377 8.19930478 -0.00161975 -0.00076309 0.00828926
O 17.64163737 14.50035275 1.98012671 0.00288435 -0.00430570 0.00279823
O 19.28409312 9.82488324 3.85946781 0.00092535 -0.00472215 0.00096916
O 12.95797176 18.31922410 14.27119288 -0.00941711 -0.00118745 -0.00502840
O 14.04479144 13.07164307 15.29862268 0.00032487 -0.00053097 0.00780355
O 16.87855009 10.74397771 21.30770519 -0.00040087 0.00024164 -0.00069688
O 15.46082988 15.63653934 20.47404507 -0.00309448 0.00375888 -0.00205742
O 13.51458314 14.43945344 21.50276442 0.00053651 -0.00209782 -0.00207669
O 12.06876370 19.46672931 20.17483422 0.00420934 -0.00157944 -0.00348936
O 16.11212106 14.33432102 14.25543367 -0.00529330 -0.00098509 0.00141335
O 17.56021490 9.86164058 15.57403145 -0.00250587 -0.00303525 0.00372642
O 11.37527774 18.30815636 26.17988220 0.00390087 -0.00187381 0.00288935
O 12.29256413 13.58337372 27.44254331 0.00310483 -0.00838659 -0.00783151
O 15.18405029 10.68756604 33.04938970 0.00060945 0.00088829 -0.00377471
O 14.22497838 15.59381015 31.74638642 -0.00712813 0.00702295 -0.00545109
O 11.99957041 14.88830313 32.82467105 0.01021052 -0.00184352 -0.00126896
O 10.67330719 19.46691128 31.60115391 0.00206486 0.00104787 -0.00161703
O 14.60793703 14.29507383 26.03575627 -0.00439916 -0.00158446 0.00512403
O 16.46649688 9.62046674 27.23497602 0.00299879 -0.00058665 -0.00157151
O 14.56011675 28.31029743 2.14537415 0.00118170 -0.00292678 0.00169849
O 15.43547039 23.28580418 3.81841813 0.00104707 -0.00721306 0.00303885
O 17.87381081 20.11076284 9.60681014 -0.00264024 0.00306137 -0.00275591
O 16.59231194 25.57975768 8.70541828 -0.00213766 0.00022821 0.00486692
O 14.83651714 23.90587305 9.69566463 -0.00190759 0.00297453 -0.00611443
O 13.35083658 28.93593887 8.29931569 0.00408237 0.00555286 0.00499592
O 17.50077622 24.01793441 2.40073891 -0.00171251 -0.00035541 0.00137001
O 19.38446398 19.09550033 3.83738633 0.00215755 -0.00226511 -0.00259293
O 12.77189522 27.89053455 14.18467614 -0.00689423 -0.00362283 -0.00262170
O 13.77585396 23.46877726 15.59237387 0.00116291 0.00380147 0.00491590
O 17.04489251 20.42494733 21.42050408 0.00559918 -0.00214035 -0.00671466
O 15.41976325 24.91865863 19.61591820 0.00231392 0.00187777 -0.00217385
O 13.49534385 24.24640715 21.12238517 0.00018752 0.00353892 -0.00607633
O 11.76510606 0.33741424 20.01135727 0.00124675 -0.00176425 -0.00347946
O 16.02826232 24.12145437 14.36698216 0.00416886 -0.00019204 0.00747491
O 17.72992314 19.22439896 15.71084995 -0.00450182 -0.00371577 -0.00184149
O 11.44299565 27.84617488 25.99590010 0.00004948 -0.00314481 0.00810530
O 12.42391494 23.41119638 27.06696571 -0.00557743 -0.00476844 -0.00205829
O 15.31630986 20.60166324 33.19111253 -0.00400979 0.00081971 0.00050124
O 14.00179660 25.23987319 31.82552764 0.00025817 -0.00225629 -0.00321274
O 12.04164797 24.36631053 33.26115383 0.00184161 0.00532344 -0.00032972
O 10.28892743 0.13063301 31.46422803 0.00500833 -0.00148061 0.00704964
O 14.74260812 23.95519528 26.14809663 -0.00110694 0.00327053 0.00312905
O 16.36600406 19.54243338 27.26882123 0.00320112 0.00053092 0.00253720
H -0.12005375 9.24544550 2.58370357 -0.00400505 -0.01893342 -0.00142747
H 3.10316450 4.62517959 3.33959833 0.01601695 0.01644692 0.01011100
H 5.38046157 0.36230662 8.85566340 -0.00016256 0.00551424 0.00597842
H 2.21276433 5.66046178 8.51053029 0.00187620 0.02225259 -0.01636820
H 5.86689014 8.14961901 0.53329571 0.02145855 -0.00069089 -0.00442436
H 4.19800084 3.83130671 5.59085483 0.01049511 0.01095853 0.01993654
H -0.56373865 0.96934745 11.06058178 0.00179152 0.00029374 -0.00087859
H 1.18220227 6.37094400 6.47259174 0.01361943 -0.02149532 -0.01357725
H 3.99554199 6.62741659 10.32675618 -0.00095744 -0.01333686 0.01051866
H 4.18386961 1.89532838 7.08058401 0.01333593 0.00155371 0.00595874
H 1.20457173 3.00190429 0.95999865 -0.00874127 -0.00274261 0.01533893
H 1.16685661 8.16258029 4.69364671 0.00745614 -0.01497195 -0.00690865
H -1.95180380 5.53514336 35.40967990 0.04838680 -0.01079757 -0.00751194
H 0.16840792 1.07430867 5.74788087 0.00125453 -0.00188647 -0.03002907
H 2.50218343 3.93417050 11.60952713 -0.02501527 -0.00456358 0.01099142
H 5.35133310 8.83422508 5.48790035 0.01799135 -0.01148299 0.00029983
H 2.93505417 7.35618067 1.53968890 0.00328206 0.02093338 -0.02369660
H 0.18104054 2.98758607 4.40966727 -0.01811535 0.02009020 -0.01209402
H 2.59631302 2.40955670 9.86889858 -0.01302922 0.00353476 -0.01206141
H 5.13092803 7.55474970 7.47678368 -0.00131926 -0.01248386 -0.00144494
H 5.18025934 4.64853762 9.39790131 0.00661516 0.00057116 0.00255838
H 2.94397902 29.00072703 7.90749214 -0.03430852 0.00419816 0.00084223
H 0.26549570 4.97639178 1.91920914 0.02860728 -0.00647740 -0.00029502
H 2.34309016 10.10548898 3.73442102 -0.02940345 0.02009659 0.02171894
H 6.07767347 2.93058595 8.02661073 0.00221742 0.00825901 -0.00742521
H 0.53215975 7.80878159 9.48483051 0.02473827 -0.01439028 -0.00846750
H 18.92740870 7.01533988 3.49255869 0.00437413 -0.01507988 0.01537783
H 4.96976611 2.13454049 2.31172844 -0.01453034 -0.00399413 0.00604990
H -0.58908520 4.58596680 7.21685099 -0.01224281 0.01149068 0.00963943
H 1.10801713 9.15833299 10.40285723 -0.01518173 0.01604409 -0.02636952
H 5.35460110 6.09837327 4.25523816 0.01350972 0.01916278 -0.01523597
H 4.74698436 0.77128303 1.19818473 0.02061964 0.01747846 0.00009729
H 19.34940516 3.19571553 8.18263945 0.02930290 -0.00820780 -0.00186542
H 2.26124354 8.34451098 9.39190533 -0.01349892 -0.01608923 0.00182470
H 6.90084468 6.16199670 3.42596794 0.01841231 -0.00522471 0.03201579
H 3.30173285 1.61099471 1.98351192 -0.00194379 -0.01893366 -0.00404375
H 18.69749279 8.69318445 14.49129096 -0.02514273 0.01302127 0.00208309
H 1.38353466 4.36289875 15.50034486 -0.00141352 0.01075292 -0.00982785
H 3.58202452 0.54405965 21.02758058 -0.00316161 -0.00261172 0.00518055
H 1.11880377 5.23780862 20.13202327 -0.00913098 0.00208026 -0.00778533
H 3.83238269 8.01065015 12.22417091 -0.02959972 0.02516906 -0.01800001
H 2.29962665 3.31737434 17.15726944 -0.01878872 -0.03909089 -0.00383345
H -1.98378229 1.25471543 22.89005319 0.02330801 0.00122324 0.00322368
H 0.00917266 6.12649173 18.43886563 -0.00407216 0.01258398 -0.01182268
H 2.35677654 6.62302405 22.73670621 -0.00615564 0.05189936 0.00667857
H 2.08933799 1.79891752 19.19091090 -0.03854557 0.01162483 0.02092174
H -0.19469623 2.82615478 12.82114056 -0.01088737 -0.00755943 0.00267085
H -0.16580079 7.82451446 16.55885675 -0.00659812 0.01228883 -0.00219279
H 1.09563330 5.51919139 11.63806100 -0.01297277 -0.03021379 -0.02043525
H -1.97137222 0.79648833 17.88899890 -0.00140024 0.01372479 0.00875392
H 1.09627749 4.20229020 24.17037090 -0.00298023 -0.03042743 -0.00331234
H 3.86873434 9.09570519 17.48044591 0.00957659 -0.02819868 0.01015238
H 1.03075559 7.25362621 13.54074159 -0.00494174 -0.03349083 0.01510499
H -1.60644860 2.31609239 16.01024986 -0.00595156 0.00700008 0.01482895
H 0.96714477 2.58282946 22.37257625 0.01565253 -0.01441369 0.00655239
H 3.85827241 7.45935785 19.26100360 -0.02337998 0.00499972 -0.00862987
H 3.35395194 4.75113756 21.68066641 0.00149644 0.00129077 0.02301894
H 1.14410901 0.03965870 19.99468385 0.00118242 -0.01429440 0.01534273
H -1.24358103 4.40604746 14.16916003 -0.00093616 0.01913785 -0.00510558
H 0.65380048 9.49462266 15.48001393 -0.01617113 0.01830777 0.01563754
H 4.94640025 2.77239549 20.33898452 0.00892372 0.02752173 -0.00177446
H -0.86835946 8.42179283 22.13567139 0.02532403 0.00059898 -0.00920916
H -1.90652389 6.01099128 15.48764374 -0.00356610 0.01649256 -0.00385265
H 1.88927434 0.46971559 13.06934823 0.01035861 0.02244518 -0.01489601
H -1.40120396 2.86075276 20.00924282 -0.00468720 0.01331633 0.00051729
H 0.78672634 8.12305555 21.54586004 -0.02095190 0.01794126 -0.00976031
H 4.86487251 5.62795993 15.47276510 -0.00306320 -0.01186346 -0.00742273
H 0.66890485 1.14457807 14.23688544 -0.00947102 -0.01485999 -0.01359254
H -0.95935438 4.14606349 18.92723647 -0.00130880 0.02112724 -0.02420612
H -0.56256212 7.19486558 20.80680673 -0.00525306 0.01637587 -0.00871263
H 3.89098663 6.89067555 14.70862030 -0.02023867 0.02203841 0.01265328
H 2.24758218 2.01459433 14.00091317 -0.00873218 -0.01061110 0.01950681
H -3.07741396 8.80074428 26.40034840 0.00772771 0.01588220 0.00134865
H -0.26165115 4.00104860 26.95275573 -0.01253114 0.02051025 0.00327838
H 2.24207337 0.72047985 32.70068082 -0.00311035 0.00897384 -0.02653372
H -0.53228556 5.44591692 32.11753055 0.02751381 -0.00266364 0.00292928
H 2.34513455 8.45107564 24.36807249 0.03614175 0.02195162 -0.01205835
H 0.78248694 3.25462488 28.86926726 0.02878253 0.00445009 -0.00193710
H -3.69405870 1.18894306 34.86110413 -0.00059027 0.00422935 -0.00752487
H -1.68085155 6.39050905 30.25552473 0.02376478 -0.00077352 0.01092878
H 1.08441232 6.75531018 34.06280386 0.02564256 -0.00128621 0.00713667
H 0.80950078 1.95910843 30.81138691 -0.02009957 -0.00801452 0.00193331
H -1.85361231 2.90179771 24.72802571 0.00304304 -0.01431427 -0.00763608
H -1.58229797 8.08698379 28.48197945 -0.00167895 0.00325686 0.02314945
H -0.18184760 5.41333974 23.46960511 0.00690588 0.00069517 -0.00161536
H -3.08118816 0.38243793 29.66317446 -0.01085050 0.00965001 -0.00070271
H 4.27358835 4.16716956 0.30690056 0.00675434 -0.03542850 -0.01039048
H 2.43118946 9.04762372 29.43883845 0.01026976 0.01063363 0.02173790
H -0.23809167 6.88470378 25.32897979 0.00430408 -0.00975840 -0.00975240
H -3.18785277 1.97264953 27.76394864 -0.00376669 0.02009090 -0.00561907
H -0.75862538 2.46693092 33.93851234 -0.01692499 0.02370766 -0.00867557
H 2.31807667 7.46258012 31.48166323 0.00220677 0.01297739 -0.01909009
H 1.97635993 4.67598971 33.23942650 -0.03959385 -0.02657280 0.01872482
H -0.15271572 28.97868826 31.88882995 -0.01004593 -0.00595249 0.00248063
H -2.64454093 4.58438835 25.76863978 -0.01716423 0.01751332 0.01171424
H -0.52900481 9.77733251 27.52379779 0.03041131 -0.00677899 0.02040407
H 4.09677833 2.49786989 32.04299548 -0.01086717 0.00296584 -0.01452004
H -2.21215547 8.97070475 34.29392850 0.02521967 -0.00614044 0.02544533
H 15.63911085 5.92125788 28.09182241 0.01358596 -0.00167232 -0.01087770
H 2.11113897 1.25415072 25.34776854 0.00506317 -0.01839039 -0.02278440
H -3.03347089 2.71668393 32.15098363 0.00028527 -0.00687595 0.02586927
H -1.00624027 8.26430482 33.25596669 -0.01349932 0.00693873 -0.01225456
H 2.36070448 7.05794798 27.12494133 0.01973352 -0.01712448 0.00348622
H 0.32404015 0.78457882 25.37432082 -0.01045643 -0.00100721 -0.01204668
H -3.03343088 4.11110656 30.99695776 -0.00594692 0.00943253 -0.00463226
H -2.76239644 7.57950142 33.43302906 0.01575287 0.00273352 0.01255058
H 1.40786511 5.94744273 28.14994268 -0.00323959 -0.01301323 -0.02353583
H 0.70002293 2.06936646 26.16373032 -0.01655696 0.00674033 0.03188302
H -0.15586424 18.50918909 2.77393036 -0.02568333 -0.00360865 0.01731262
H 2.62704828 13.98938284 2.91598762 -0.00498493 -0.00540120 0.02025944
H 5.47548490 10.40626259 8.94776145 -0.00505273 -0.00054943 -0.01509697
H 2.56036334 15.28903389 8.56659383 0.00876746 -0.03548728 0.01463135
H 5.95093771 18.14701679 0.65205354 -0.01960674 0.00514651 -0.00237404
H 3.85201836 13.38304552 4.97349432 0.02858612 -0.00987843 0.00635011
H -0.35057924 10.94276064 11.32788804 -0.00258598 -0.00674406 -0.00867145
H 1.39379905 16.39272216 6.77498686 0.01073951 -0.01986489 0.03804902
H 3.99476999 16.35460377 10.79332600 -0.00649619 -0.00853205 -0.02970626
H 3.82231144 11.56244878 6.76844451 -0.00429000 0.01049820 0.00008012
H 1.35772524 12.86720626 0.83839235 -0.00583251 -0.02422685 0.00667953
H 1.51831275 17.40991675 4.48048908 0.05552265 -0.00724282 0.01949785
H -2.19046621 14.94341163 35.35105428 -0.03752621 0.01856230 0.00204208
H -0.08948447 10.60787227 6.06571156 0.01562452 -0.00561726 0.00768511
H 2.74825644 13.94250373 12.09221252 0.00502734 0.03228809 -0.01677643
H 5.65252908 18.52303897 5.34698650 0.02084432 0.04013064 0.00654976
H 2.66021416 16.76376303 1.55392071 -0.01871621 0.03160069 -0.00128672
H -0.20145076 12.27401300 4.16008790 -0.02482885 -0.01557779 0.00827547
H 2.69733461 12.16322858 10.38067536 -0.01012407 0.00461359 0.00652742
H 5.46086237 16.96490862 7.24894421 0.03277022 0.00010971 0.04031433
H 5.04951409 14.71106367 9.69446935 0.04480555 0.00953367 -0.03531921
H 2.87591935 9.99593354 7.84556121 -0.01439162 0.00380396 0.00365249
H 0.20524445 14.56042411 2.01777193 0.02515758 -0.00747465 0.01910100
H 2.50838641 19.42389930 3.53619129 0.05842431 -0.01722170 0.02690674
H 5.66045972 12.92041192 8.12047861 -0.00298799 0.02879798 0.01515349
H 0.05115419 18.31817602 10.22057529 -0.01120531 0.02151846 -0.02195561
H 20.07059282 15.88150583 3.53214479 -0.00002594 0.02090235 0.01933130
H 4.45417238 10.61872365 1.16935658 0.00480466 0.00542209 0.01427448
H -0.69657901 13.43692458 7.99762702 0.00208572 0.02915275 0.01994819
H 1.77532010 18.92783846 10.21102502 0.00863015 0.01548512 -0.00379222
H 5.50473228 16.75956173 2.96602818 0.00567642 0.01411293 -0.00362361
H 2.76179320 10.97615148 2.02792563 -0.01891115 -0.00369689 0.03166372
H 0.52706599 12.46230505 8.74314084 -0.01064086 0.02003862 0.00417118
H 1.42883435 17.36314042 9.40534189 -0.03194281 0.01307972 -0.01573846
H 4.65533645 15.67153883 4.20253293 0.00048204 0.00491343 0.00971095
H 4.24959656 12.00725340 2.34040758 -0.01599509 0.04117132 -0.02942839
H -1.91925451 18.46827275 14.71499855 -0.02587608 -0.01076698 -0.01036840
H 1.32606683 13.84128378 15.21960176 -0.00859357 0.02575219 0.03485836
H 3.66038845 10.43543497 20.49269939 0.00889257 -0.00795908 0.00735676
H 1.08732319 14.91546474 20.39422924 -0.00562743 -0.00240889 -0.00047356
H 4.08177418 18.06973330 12.60091140 -0.01791923 -0.00104592 0.01401357
H 2.30881360 13.10518860 17.20243160 0.00977397 -0.01218465 -0.01515363
H -2.03680639 10.82480778 23.09086061 -0.02849755 -0.00627471 -0.02420945
H -0.27744739 16.08029955 18.74742774 0.02875537 -0.01426914 0.01262880
H 2.61426377 16.16653704 22.57798890 0.01470436 -0.00041235 -0.00019930
H 2.42867523 11.48214444 18.96857537 0.00682755 0.01666508 0.00226857
H -0.33644448 12.45334722 13.45613603 0.03785982 0.00679325 -0.02413328
H -0.18599415 17.30793879 16.64994445 -0.00338330 -0.01129123 0.00379269
H 1.15400258 14.81316652 12.13784581 0.02137801 -0.00114173 -0.01157265
H -1.53844029 10.25647586 17.96137883 -0.00943764 -0.01081981 -0.00742207
H 1.06056470 13.80393389 23.80408870 -0.00632470 -0.00473277 0.00907769
H 3.76152401 18.68178349 17.61062412 0.01142176 -0.01727236 -0.00980061
H 0.89057908 16.39236861 14.12874318 0.02606309 0.00946817 -0.00738629
H -1.57400306 11.90715510 16.15853764 0.00679795 -0.02153821 -0.01050163
H 0.94737798 12.06136594 21.84413183 0.01468352 -0.00720566 -0.00022125
H 3.91421798 16.98276366 19.35100050 0.01410927 -0.00712393 -0.00168703
H 3.55920515 14.31903984 21.50533184 0.01304363 0.00085412 -0.03496565
H 1.40964672 9.54886144 19.88504158 0.00599456 -0.00555572 -0.01043228
H -1.36764463 14.34300160 14.32540359 0.01237376 -0.00155113 -0.01117436
H 0.70128745 19.26510754 15.66227737 0.04988647 -0.00365009 -0.00208122
H 5.78052544 12.30129489 20.18908854 -0.01570339 0.00311949 0.00594745
H 0.99171853 17.75359950 21.38224370 -0.00850946 0.01685006 -0.00494112
H 18.06398868 16.24347588 15.80587732 0.01388407 0.01413677 0.00491422
H 2.75827951 10.26428237 12.93728194 0.02584406 0.01086763 0.00998165
H -1.88607249 11.90644285 20.38076622 -0.00500367 0.00682166 -0.00059052
H -0.63279778 16.99993836 21.23130248 -0.01081178 0.01959702 0.01141101
H 4.21306238 15.54358372 16.41518879 -0.00347694 -0.00812436 0.02444747
H 1.20616047 10.35559119 13.57550612 -0.00337979 0.02686399 0.02182253
H -0.90238919 12.91636785 19.39445326 0.01048006 -0.02069540 0.02908009
H -0.37710256 18.19518373 22.37734572 0.02044277 -0.00850539 0.03336675
H 5.22584800 16.15467823 15.07696338 0.01818703 -0.00445100 -0.00493954
H 2.36002898 11.77906107 13.86898646 0.02708717 0.00125666 0.01581706
H -3.23506115 18.55569125 26.22623869 0.01897653 -0.02281128 0.01796385
H -0.35684148 13.63840008 26.86716983 -0.00732808 -0.01919455 0.01317003
H 2.36201732 10.48523930 32.76627189 -0.02724475 0.00563878 0.01103430
H -0.60571553 15.27731527 32.36545123 0.02836015 0.01383570 -0.01458646
H 2.49598841 17.76554662 24.61036915 -0.01587376 -0.00896127 -0.01943217
H 0.48631212 13.44733309 29.07997752 0.00120053 -0.00990032 0.00504194
H -3.35994774 11.43195073 34.39738267 0.02828615 0.00316903 0.00965852
H -1.82135061 16.08585350 30.15089810 -0.00526568 0.02238714 0.00013707
H 0.84604602 16.13855486 34.68225793 -0.00866765 -0.00524943 -0.00856745
H 0.64477053 11.87079373 30.96095903 -0.00713042 -0.01130628 0.00087254
H -2.08027489 12.44365840 25.07773224 -0.00064627 -0.00424892 0.01036822
H -1.63278516 17.67336083 28.50272561 0.00954854 -0.01649446 0.00350622
H -0.38617012 14.81999024 23.59443480 -0.02875145 -0.01307581 0.00072045
H -3.23576935 10.21366173 29.73839499 0.00969758 -0.01324514 0.00106736
H 4.22987138 13.85187115 0.18738525 -0.00367788 0.01980204 0.03572388
H 2.40309525 18.62003874 29.64674694 0.00097637 -0.00639938 -0.00848246
H -0.41534144 16.44796518 25.48191110 0.04222503 0.02288622 0.00576125
H -3.30446084 11.67905506 27.93052436 0.00282254 -0.03165479 -0.00639720
H -0.75240308 12.26031252 33.83664251 0.02073920 0.00475195 0.00472476