2160
Time=72000.00000007 pbc="T T T" Lattice="20.58670860 0.00000000 0.00000000 0.00000000 29.03214228 0.00000000 -4.72470239 0.00000000 35.49449585" energy=-13794.24788153 virial="-95.14471519 19.07708986 69.56777367 19.07708986 -75.12525327 -17.21957531 69.56777367 -17.21957531 -54.50984133" stress="-0.00182952 0.00096237 0.00326642 0.00096237 -0.00113868 -0.00081086 0.00326642 -0.00081086 -0.00017277" Properties=species:S:1:pos:R:3:vel:R:3
O 0.78131145 8.56980906 2.66963637 -0.00301778 -0.00745858 0.00520611
O 1.67625521 4.10549400 3.56616231 -0.00167286 -0.00465664 -0.00012725
O 4.50056079 0.97587363 9.28711090 -0.00372516 0.00205720 -0.00748073
O 3.42502710 6.01928636 8.35329375 -0.00169747 0.00045920 0.00224225
O 1.28416757 5.02130296 9.45205370 0.00337997 0.00319551 0.00151944
O -0.11908118 9.48393628 8.23478733 0.00718084 0.00184608 0.00321477
O 3.75236999 4.66680854 2.31643263 0.00120290 0.00013507 0.00206126
O 5.70384953 0.01506913 3.64978025 0.00308013 -0.00512422 -0.00188883
O -0.76602697 8.63002503 14.31576144 -0.00079848 -0.00487320 -0.00514764
O 0.31960838 4.03192906 15.91592126 -0.00576789 -0.00340036 -0.00379578
O 3.06700949 0.83740145 21.22792546 -0.00380954 0.00370717 -0.00202403
O 1.95577267 5.80243614 20.34920814 0.00110841 -0.00604310 -0.00101004
O -0.28004462 5.04477025 21.51188515 0.00435886 0.00227552 -0.00038211
O -1.85919275 9.59680798 20.18574865 -0.00212089 -0.00874763 0.00139264
O 2.31121401 4.54087685 14.14411316 -0.00336720 0.00397985 -0.00346924
O 3.88603005 28.63214346 15.66639331 0.00026646 -0.00056357 -0.00150315
O -2.35572846 8.70571231 26.11994019 -0.00669320 0.00226543 -0.00050123
O -1.09150734 3.73516460 26.97842266 0.00437845 0.00286237 0.00216143
O 1.68167021 1.07522339 33.06889090 0.00567210 0.00057211 -0.00408794
O 0.28411291 6.18930727 31.82539782 -0.00652625 0.00135819 -0.00498235
O -1.64150439 5.11553514 33.07739625 -0.00577780 -0.00178382 0.00343100
O -3.32742248 9.56476112 31.68082258 -0.01406045 0.00350211 -0.00055491
O 1.11539465 4.42619501 26.03400780 0.00590796 0.00281186 0.00116961
O 2.60667896 28.93079288 27.14021892 0.00724587 -0.00131606 0.00308611
O 0.56759363 18.46257013 2.34026563 0.00118700 0.00777153 0.00192328
O 1.53039211 13.47392067 3.67087453 0.00174259 -0.00197557 -0.00047209
O 4.73697272 10.98949823 9.04859356 -0.00342683 -0.00347500 0.00232928
O 3.28074052 15.48550848 8.21997341 0.00662566 0.00337661 0.00746777
O 1.15380685 14.49732429 9.21292721 -0.00350358 -0.00298236 0.00146580
O -0.42211403 19.15837484 8.16347372 -0.00413981 -0.00039860 0.00269450
O 3.52113214 14.44516740 2.22807696 0.00461553 -0.00841954 0.00979057
O 5.37978837 9.57532199 3.28923896 0.00151215 -0.01065740 0.00115664
O -0.80662632 18.23262985 14.06770876 -0.00280329 -0.00068910 0.00054789
O 0.36010537 13.51257181 15.56912620 -0.00217676 0.00278834 -0.00089726
O 2.86172472 10.69719031 21.00683939 0.00750702 0.00068204 -0.01185067
O 1.83487664 15.63648664 20.35005999 0.00004383 0.00203001 0.00209768
O -0.43658981 14.76576802 21.34073961 0.00714582 -0.00370341 -0.00478001
O -1.80070104 19.35522426 19.80799300 0.00152261 -0.00081823 -0.00469299
O 2.52498453 13.85098202 14.09855549 -0.00344038 -0.00005355 -0.00076808
O 4.04009190 9.53978620 15.57038377 0.00036023 -0.00172050 -0.00440351
O -2.37696510 18.30064160 26.19746785 -0.00325455 0.00054717 0.00043072
O -1.18326839 13.54968854 27.06626370 0.00554724 0.00290617 0.00066861
O 1.36284741 10.87510789 33.07660375 0.00484280 -0.00143081 -0.00033173
O 0.34873155 15.55544055 32.16925743 0.00300596 0.00522029 -0.00135768
O -1.84421262 14.70272956 33.23372790 -0.00118813 0.00598516 0.00006311
O -3.55335674 19.53125655 32.03178782 -0.00630708 -0.00205401 -0.00018322
O 0.63456567 14.47744805 25.78093726 0.00762594 -0.00247449 0.00483316
O 2.53087069 9.46840836 26.96333003 0.00129872 0.00216577 -0.00124548
O 0.88123512 27.95734270 2.45004723 -0.00069322 -0.00340683 -0.00288049
O 1.81832137 22.95192049 3.31424109 0.00201167 -0.00306817 -0.00372389
O 4.34317579 20.21188014 9.39289777 0.00098621 0.00418195 0.00124105
O 3.31887811 25.60226994 8.42077263 0.00082295 0.00227986 -0.00401467
O 1.33809944 24.16028105 9.59916409 0.00201080 0.00410747 0.00210235
O -0.06736862 0.28529416 8.26837071 -0.00221134 0.00115457 -0.00663011
O 3.89525881 24.05358762 2.30266934 0.00567732 0.00500373 -0.00366077
O 5.42145669 19.67288167 3.64320824 0.00458337 0.00324878 0.00095918
O -1.00531070 27.67625577 14.41732874 -0.00313679 -0.00356187 -0.00141668
O 0.17547882 23.35702355 15.44853176 0.00164286 -0.00132222 -0.00224117
O 3.23950892 20.23740250 21.18302127 0.00330805 -0.00440584 -0.00333511
O 1.87080078 25.08523710 20.19894752 -0.00475728 0.00553987 0.00842941
O -0.28976565 23.99740372 21.17063875 -0.00088222 -0.00062100 -0.00072627
O -1.87152883 28.78909631 19.91613101 -0.00508058 -0.00083780 -0.00289457
O 2.58143264 23.89272155 14.07904187 0.00282628 0.00401431 0.00476419
O 4.16207437 19.22756259 15.71723428 0.00038317 0.00018847 -0.00231699
O -2.34339298 27.99936703 25.80072459 0.00558409 0.00200947 -0.00182602
O -1.24988700 23.07664324 27.20678465 -0.00168158 0.00555958 0.00157415
O 1.42760893 20.43610157 33.22348036 -0.00145806 -0.00585764 -0.00110117
O 0.06021650 25.43126452 31.85055282 0.00274683 -0.00125539 0.00163501
O -2.00897893 24.51484169 33.05091168 -0.00437337 -0.00110028 0.00543374
O -3.31570191 28.91803922 31.59491136 -0.00132293 0.00421461 0.00325576
O 0.99199974 23.80575388 25.85824626 -0.00302770 0.00081402 0.00352187
O 2.30149842 19.43248369 27.49389633 -0.00118729 -0.00150270 0.00160722
O 7.70504719 8.64822751 2.21752831 -0.00696855 0.00430347 0.00143145
O 8.80699173 4.11859862 3.68375820 0.00648405 0.00155547 0.00266795
O 11.46601740 1.14002858 9.43152192 -0.00308820 0.00156132 0.00185514
O 10.41191234 5.74130891 8.13436869 0.00496546 0.00244416 0.00393875
O 8.19287947 4.89049959 9.27927767 -0.00904916 -0.00225896 0.00389426
O 6.66054012 9.58140743 8.07216119 -0.00846001 0.00263169 -0.00142103
O 11.13091551 4.29975271 2.63827127 -0.00806749 -0.00284517 -0.00148504
O 12.24573143 28.38639984 3.21793599 0.00394776 0.00124518 -0.00495651
O 6.08667480 8.57125501 14.22956453 0.00366517 -0.00150887 -0.00465337
O 7.11582982 3.57144162 14.99805989 0.00700241 0.00151466 0.00111699
O 9.95564861 1.30025405 20.94372555 0.00034608 0.00134584 0.00091182
O 8.60805465 5.95200445 20.08031230 0.00090106 0.00137680 -0.00404390
O 6.88595037 4.81260563 21.39258978 -0.00068055 -0.00128731 0.00712589
O 4.96587419 9.48239861 19.85697667 0.00198719 -0.00387238 -0.00289184
O 9.27758557 5.06292606 13.94019941 -0.00196889 0.00130824 -0.00116211
O 10.90429237 0.00966439 15.58884099 -0.00123607 0.00023239 -0.00670662
O 4.67053421 8.54320419 25.92772057 -0.00041751 0.00179269 0.00366798
O 5.77020031 3.61721851 27.14138214 0.00088389 -0.00570093 0.00435333
O 8.23323779 0.95088786 33.20911217 -0.00556268 -0.00542628 0.00584610
O 7.40977339 5.51299458 31.35801985 0.00455219 0.00428041 0.00484815
O 5.21705059 5.19085906 32.91401274 0.00559457 -0.00102580 -0.00215129
O 3.66462950 10.05846162 32.13879149 0.00690128 -0.00045339 0.00056736
O 7.82456330 4.79461879 25.75731342 0.00114287 0.00079665 -0.00293175
O 9.46863809 28.73481924 27.24418146 0.00624711 -0.00212873 0.01021116
O 7.25376807 18.30203351 2.67403134 -0.00293749 -0.00552148 -0.00095124
O 8.52302551 13.74472587 3.55167876 -0.00297510 0.00020514 0.00914890
O 11.29977441 11.00855014 9.10841666 0.00648177 -0.00292957 -0.00457035
O 10.23840654 15.72755899 8.51955627 0.00044247 0.00131789 -0.00250460
O 8.24956185 14.44470083 9.46143467 0.00017424 -0.00292251 -0.00547550
O 6.47671868 19.26508666 8.07128599 -0.00350656 -0.00117559 0.00559593
O 10.83897922 14.58065584 2.43125845 -0.00289860 -0.00807169 -0.00278575
O 12.48839784 9.55484382 3.75501599 -0.00132653 0.00276480 0.00342321
O 6.32329418 18.35161460 14.04767050 0.00104057 0.00490774 0.00456805
O 7.16523344 13.38437503 15.38997407 0.00276506 0.00782443 0.00085433
O 9.92101660 11.15586150 21.12201911 0.00827252 0.00333669 -0.00088145
O 8.76605925 15.89983617 20.37881343 0.00724865 -0.00062427 0.00604588
O 6.71188230 14.59813059 21.51112725 0.00086836 0.00014124 -0.00712415
O 5.29341805 19.24068337 19.90757395 0.00530790 0.00002222 -0.00183201
O 9.41180052 14.32143036 14.33373338 0.00097683 -0.00244011 -0.00207426
O 10.78389987 9.97542368 15.53075081 0.00066693 -0.00054728 0.00137854
O 4.50440598 18.15940587 26.22241858 -0.00145673 0.00299861 0.00821206
O 5.32070901 13.68106372 27.56193074 0.00873530 0.00041631 -0.00549741
O 8.38368800 10.88467713 33.12613718 -0.00255401 0.00214618 -0.01165447
O 7.10378034 15.19164895 32.00004424 -0.00352741 0.00512379 -0.00064220
O 4.88761354 14.88304955 33.40190130 0.00091663 0.00421990 -0.00678061
O 3.26620762 19.27979515 31.78505174 -0.00536617 -0.00059303 0.00112328
O 7.55025795 14.40330350 26.10361912 0.00448751 -0.00317402 0.00150977
O 9.21597694 9.98641827 27.16437578 0.00265407 -0.00043719 0.00290001
O 7.65619160 28.41223228 2.08586516 -0.00644036 0.00358178 -0.00401533
O 8.73011124 23.23857807 3.56012164 -0.00644895 -0.00218169 -0.00728412
O 11.39791865 20.62684222 9.26366772 -0.00308575 0.00267633 0.00161160
O 10.40832867 25.18483104 8.37887142 -0.00326903 -0.00558093 -0.00152482
O 8.18987006 24.57726230 9.32922027 -0.00036108 -0.00117016 0.00258416
O 6.55320296 0.08749675 7.86469637 -0.00465678 -0.00217862 0.00260547
O 10.66763513 24.41424723 2.38614096 0.00334904 0.00490269 0.00311776
O 12.51333110 19.38551643 3.94350163 -0.00271947 0.00138286 0.00657660
O 5.97979818 27.84866896 14.39868244 0.00169920 -0.00020994 -0.00155461
O 7.15341183 23.09916864 15.30788093 -0.00211669 -0.00300123 0.00315756
O 10.01643990 20.46064177 21.49055411 0.00621845 -0.00078539 -0.00096608
O 8.37805398 25.36380575 20.20788213 -0.00411149 0.00248808 0.00004103
O 6.50303347 23.95196041 21.50123153 0.00542767 0.00144566 0.00167559
O 5.18931746 28.89484057 19.74591466 -0.00098628 -0.00493003 -0.00176114
O 9.15655594 24.26867305 14.15495932 0.00299666 -0.00513875 -0.00247762
O 10.84924041 19.13601401 15.32493212 0.00292752 0.00093230 -0.00343255
O 4.88277384 28.14000670 25.91752419 0.00227552 -0.00992220 -0.00297619
O 5.79539981 23.15128229 27.45063227 -0.00518943 0.00247399 -0.00143104
O 8.10053274 20.40619820 33.47971920 -0.00332498 0.00044844 -0.00059540
O 6.91943488 25.09569531 31.89872689 -0.00136825 0.00063334 -0.00170074
O 4.85003302 24.37639289 33.10085463 -0.00416300 0.00160831 0.00230068
O 3.65275739 0.20503614 31.82982814 -0.00074014 0.00262970 0.00294844
O 7.55649315 24.11292114 25.87153258 -0.00098567 0.00410160 -0.00021231
O 9.07042699 19.27650798 27.36634052 0.00306926 -0.00852529 -0.00246042
O 14.53248351 8.36081512 2.49178127 -0.00144413 -0.00053565 0.00623613
O 15.66263150 3.61347825 3.51669372 -0.00107678 -0.00627051 0.00004276
O 18.36167962 1.20147582 9.53352815 0.00290741 0.00289646 -0.00153681
O 17.08444432 5.88331931 8.66131444 0.00138621 0.00334986 0.00345598
O 15.11762971 4.91330696 10.01930252 0.00119952 -0.00441206 0.00669535
O 13.23890438 9.47465204 8.07389002 0.00567382 0.00537972 -0.00687388
O 17.59443477 4.65174023 2.22405705 -0.00045190 -0.00139718 -0.00325517
O 19.17113974 28.69496060 3.55655373 0.00323037 0.00240906 -0.00010368
O 12.55560919 8.39412655 14.69560501 -0.00516881 0.00958574 0.00050269
O 13.77463744 3.96089141 15.34130917 -0.00225572 -0.00358524 -0.00411713
O 16.67036406 1.21573835 21.23178777 0.00413459 0.00289879 0.00159353
O 15.62193572 5.78896871 19.96856348 0.00362400 -0.00235743 0.00622737
O 13.42460206 4.88376375 21.25347011 -0.00494265 0.00419420 -0.00328742
O 11.79128192 9.77910379 19.91843678 0.00130434 0.00528259 -0.00255545
O 16.13305268 4.84147623 14.47515897 0.00110837 -0.00567727 -0.00553175
O 17.75375965 0.14984291 15.41023278 -0.00139984 -0.00077304 -0.00157299
O 11.31257690 8.66970518 25.92329564 -0.00702419 -0.00150053 -0.00622424
O 12.73608037 3.75822992 27.10609626 -0.00266571 -0.00255488 0.00385935
O 15.08802400 0.67400591 33.30618980 0.00309064 0.00305402 0.00120216
O 14.29961621 5.89893861 32.18149914 0.00526180 0.00957388 0.00163909
O 12.06376233 4.70645228 32.96714630 -0.00539786 0.00470999 0.00621184
O 10.53412974 9.69497512 31.99775618 0.00002173 0.00109577 0.00848136
O 14.58729338 5.06682911 25.82372336 0.00019268 0.00002209 -0.00157735
O 15.92743260 28.48823523 26.73696433 0.00587289 0.00496887 0.00728008
O 14.26476986 18.40789387 2.40402346 0.00076231 -0.00808604 -0.00383707
O 15.53129403 13.30895889 3.49478281 0.00261248 -0.00640064 -0.00135128
O 18.47267810 10.54683846 9.27485681 0.00202277 -0.00319901 0.00140624
O 16.81832244 15.67751412 8.59420043 0.00285059 -0.00163708 0.00310809
O 15.03095833 14.36417317 9.52300413 0.00283928 0.00015807 0.00169357
O 13.41089736 19.39938462 8.41111427 0.00440865 0.00066487 -0.00865058
O 17.75568327 14.59897739 2.22083157 0.00031392 0.00543172 0.00489919
O 19.38787127 9.45733006 3.91616545 0.00770066 -0.00524718 -0.00246743
O 12.99369889 18.20053466 14.14067425 -0.00235966 -0.00099908 0.00085958
O 14.04519884 13.63352199 15.51013976 0.00471348 0.00232607 0.00048512
O 16.78593773 10.53684328 21.53809429 -0.00049834 -0.00073744 -0.00619947
O 15.47392546 15.84208908 20.34921859 -0.00872907 0.00099862 -0.00520079
O 13.55823635 14.43421263 21.43924749 0.00086954 0.00118260 -0.00596631
O 12.23895993 19.35500548 20.29640927 0.00630773 -0.00262372 -0.00123463
O 16.19829170 13.98920044 14.08293240 0.00368057 -0.00373741 0.00593947
O 17.70202227 9.70525427 15.48651577 -0.00390961 -0.00729191 0.00420830
O 11.23159627 18.36284480 26.08824219 0.00080051 -0.00203211 0.00118776
O 12.46517532 13.30439668 27.24447757 0.00022034 -0.00468925 0.00353251
O 15.39831515 10.60045340 33.13739805 0.00277280 -0.00229604 -0.00448951
O 13.65670149 15.57960375 32.44277188 0.00278262 0.00112242 -0.00510664
O 11.66651489 14.24481472 33.41090635 0.00536036 0.00259877 -0.00167424
O 10.23969177 19.63893225 31.99696077 0.00175981 0.00238868 -0.00318096
O 14.48552711 14.39498891 26.16333055 0.00536746 -0.00201035 -0.00281943
O 15.94302762 9.48166072 27.14791576 -0.00099913 -0.00213137 0.00438552
O 14.66469383 28.13232763 2.16563755 -0.00450537 0.00165765 0.00039668
O 15.35904952 23.26859186 3.77445094 0.01098391 0.00318840 -0.00268801
O 18.19167807 20.19097504 9.47765296 -0.00503496 0.00059057 -0.00645941
O 17.00507327 25.09253309 8.37618240 0.00063688 -0.00547345 0.00082705
O 15.02940242 24.06260091 9.77849713 0.00282316 -0.00189827 -0.00211508
O 13.38274610 0.02433647 8.32261321 -0.00165774 0.00091547 -0.00140934
O 17.49587110 24.01077185 2.65189839 0.00276531 0.00004179 -0.00098897
O 19.13281024 19.28365158 3.87261775 0.00579439 -0.00072253 0.00397994
O 12.62279710 27.71944748 14.46292606 -0.00520185 -0.00374450 -0.00181781
O 13.83176268 23.06382049 15.21713589 0.00331715 0.00015130 -0.00725533
O 16.84963245 20.31244175 21.30731214 0.00083986 0.00092493 0.00213822
O 15.64650036 25.15236313 19.90356636 -0.00247475 -0.00202630 0.00226681
O 13.41619012 24.58725130 20.94648175 0.00721189 -0.00346830 0.00376039
O 12.10166868 0.02496829 20.07610412 -0.00299740 0.00210102 0.00444615
O 16.14694828 23.74102798 14.24110044 -0.00450649 -0.00901392 0.00267007
O 17.91227880 19.38833262 15.50728274 0.00185808 -0.00192102 -0.00112103
O 11.44143619 28.07235070 25.99470506 0.00138909 0.00428612 0.00146255
O 12.35098423 22.94954804 27.02462283 -0.00506270 -0.00292828 -0.00427012
O 14.86887384 20.51082110 33.11890066 0.00021226 0.00197555 -0.00496278
O 13.73421572 25.21669211 31.95173558 0.00337542 -0.00558825 0.00497677
O 11.69879825 24.05797049 33.41253265 0.00325019 0.00712017 0.00700848
O 10.39835586 0.15950622 32.06720347 -0.00015510 -0.00658498 -0.00107603
O 14.46307443 23.81178882 25.94521049 0.00117709 -0.00309610 -0.00070049
O 15.89617068 19.09299488 27.56426589 -0.00131311 -0.00210931 0.00483732
H -0.15960704 8.77331469 3.05988062 -0.02216394 0.00058949 -0.00618635
H 2.52259321 4.52139294 3.12853958 -0.02934080 -0.01897842 0.01502737
H 5.36027355 0.59770048 8.98366398 0.00583103 -0.01503671 0.00498535
H 2.60171782 5.60665777 8.63133892 0.00064170 0.00191409 -0.00358300
H 5.69130876 8.40535796 0.45516647 -0.00590826 0.00812418 0.00414061
H 3.76697001 3.65095921 4.93281808 -0.02491862 -0.01683559 -0.00170672
H -0.34027989 1.39631652 11.28607250 0.03837307 0.02264356 -0.01177328
H 1.40451499 6.45130737 6.70885501 -0.00474497 0.00115436 0.01068933
H 4.31183504 6.66715450 10.48107960 0.00763550 -0.00396985 -0.01421108
H 4.00954333 1.95287158 6.78571786 0.00856948 0.02682513 0.02099099
H 1.11215955 3.02130136 1.09522671 0.00766573 -0.01832222 -0.00136710
H 1.34469208 7.65136905 4.76199743 0.00409718 -0.01159394 0.01032856
H -1.56238289 6.07638831 35.41826556 -0.00405399 -0.01995926 -0.01306485
H -0.08586971 0.73137099 6.11308184 0.03494487 -0.00791015 -0.00621719
H 2.58291594 4.20411582 11.89302117 -0.01558807 0.00773873 -0.02349844
H 5.38171018 8.96522562 5.53339171 -0.01645564 0.00725288 -0.00917146
H 2.96924320 7.59443989 1.69632644 0.01024870 0.01281967 -0.01856230
H -0.17500770 2.17953561 4.11781747 -0.01693458 -0.01154202 0.03146602
H 2.60754311 2.68802147 9.90689842 -0.00875224 -0.00893832 -0.00651407
H 5.51843004 7.47447612 7.57509806 -0.01530773 0.00683321 0.02479945
H 5.13443639 4.56143108 9.83776729 0.00165599 -0.00169935 0.01549445
H 2.96155048 0.51218590 8.29096274 0.01135299 -0.00018659 -0.01080003
H 0.21774397 4.82078143 1.83263866 -0.00021602 0.00410818 0.02258744
H 2.35032063 9.73402810 3.69982490 -0.00049820 0.02185254 0.01125921
H 7.38326938 3.75607351 7.24321135 -0.01544500 0.01489325 0.00876873
H 0.84409211 7.35919993 9.35040976 0.01988444 0.00839592 -0.00578945
H 18.80163181 5.73258196 4.50631499 -0.02083695 -0.00488357 0.01493516
H 5.23200253 1.47158553 1.68532466 -0.01601341 -0.01451093 0.01354103
H 0.65101153 3.45618458 7.78686379 0.02747406 0.00687749 0.00391129
H 1.02518453 8.60187055 10.58411626 -0.01146294 -0.01194077 -0.00155693
H 5.64897444 5.51792118 4.46491762 0.00746736 0.00657330 0.00742532
H 3.68896929 0.96177554 1.48403506 -0.01013943 0.00963099 0.01191577
H -0.48849405 4.68357413 7.23327068 -0.00943697 -0.04278376 0.00423649
H 2.44840985 8.14158943 9.68964089 -0.01799818 -0.00895313 0.01190119
H 5.67939383 6.98339508 3.32432270 0.02760218 0.00237625 0.01903026
H 4.02371537 2.31620786 2.62078914 -0.00413278 -0.00059956 -0.00466569
H -1.63474894 9.03809325 14.56230080 -0.00970476 0.00341869 0.02187946
H 1.14789632 4.20165276 15.34012571 0.02128207 0.01223227 0.01114034
H 3.92998484 0.55967703 20.79285444 -0.01126115 -0.01623558 -0.00713808
H 1.09123164 5.40693986 20.80984532 -0.00706723 -0.02516454 0.00794535
H 4.24196258 8.26625575 12.50804206 0.01311363 0.00961857 -0.02336365
H 2.37277393 3.31746697 17.45616064 0.01022322 0.00168452 -0.01213735
H -2.07212398 1.32671364 23.03449523 -0.00524996 -0.03590931 0.00200284
H -0.20437579 6.52869538 18.86329171 0.00994742 0.00626948 -0.00458100
H 2.73476516 6.69031266 22.33913551 0.00214236 0.00248626 0.01724126
H 2.16663057 1.93894254 19.44823817 0.01577269 0.00714207 -0.00423386
H -0.46320267 2.99843585 13.27791847 0.00563559 0.01045946 0.01829409
H -0.07693577 7.88133762 16.73596586 -0.00362397 -0.00589294 0.00007581
H 1.23987219 5.40786939 11.68225429 0.00680579 0.02176955 -0.02104692
H -1.71966050 0.69701602 18.18232524 0.02271732 0.03046842 0.01478988
H 1.04587827 4.07846940 23.59951263 0.00795344 0.00792141 -0.00632164
H 4.12149211 8.56320350 17.46899056 -0.03690911 0.02459295 0.00960880
H 1.19968350 7.19931559 13.61785163 -0.02202350 -0.00878205 0.00122121
H -1.65273068 2.41420466 16.46006639 0.00425537 -0.00783611 0.01149388
H 1.16714532 2.49604498 21.77409506 0.00208403 0.02092588 0.00894672
H 3.94322511 7.11009882 19.51919455 0.01476407 0.00927397 -0.01602488
H 3.71986928 4.85589983 21.14011672 0.00038633 0.00647141 0.02700650
H 1.47547966 0.03595208 20.28799425 -0.00801077 0.03482899 -0.00814936
H -1.38268966 4.98752678 14.07627332 0.00782342 0.01055889 -0.02015954
H 0.88567072 9.59713952 16.02204887 -0.02890785 -0.00895075 -0.00646428
H 4.67216296 3.71056303 19.31850703 -0.01653932 -0.01608048 -0.00305203
H -0.76570232 7.37934299 21.34653651 -0.01799458 -0.00038502 -0.00644619
H 16.92282495 7.00636470 15.41353450 0.00030828 0.00614183 0.00976954
H 1.38323618 0.73925267 14.04378877 -0.00548788 -0.01996937 0.00609956
H -1.90896163 2.77998186 20.48287515 -0.00416479 0.00417189 0.01392276
H -0.74378297 8.74592331 22.53637996 0.03319314 -0.01475168 -0.01789599
H 4.55186244 5.18694384 16.15910186 0.01869753 0.00039805 -0.01589709
H 2.59710819 1.96558317 14.52109265 -0.01304931 0.00912647 -0.00912496
H -0.90241270 3.79047159 19.42345781 -0.00120631 -0.00896968 -0.01578016
H 0.75226408 8.32551448 21.60859882 0.00429745 0.01523269 -0.00361835
H 4.17715589 6.84067741 15.35357861 -0.00464523 -0.00543011 0.00106873
H 3.06439754 0.57246452 13.44420747 -0.02275678 -0.02353146 -0.00899553
H -3.29018884 9.05642578 26.39422378 0.01272167 -0.00264491 0.01466934
H -0.18586901 3.96449220 26.60944606 -0.02082529 -0.00530800 -0.01439220
H 2.53886817 0.63579595 32.77008529 -0.01040382 0.02335722 -0.01034898
H -0.56763882 5.88992762 32.26886671 -0.01167803 0.01994590 0.01109568
H 2.80399935 8.31397749 24.20248012 -0.01583847 0.00897256 0.00047646
H 0.70593483 3.70192489 28.92196116 -0.01514743 -0.00403873 -0.02843584
H -3.37902530 1.52611191 34.63558347 -0.00919353 -0.00722915 -0.00739619
H -1.64619099 6.24030786 30.22869554 -0.01224644 0.01987706 0.03001419
H 0.92687221 6.76245099 34.13744780 -0.01769917 0.02055960 -0.00400621
H 0.79547933 2.19740147 30.67242528 -0.01570339 -0.00540976 0.00662471
H -2.03140886 3.00049607 24.81388155 -0.00918270 -0.01901132 0.00597436
H -1.60589508 7.76875165 28.13455469 0.01104682 -0.00098895 -0.00013464
H -0.80854904 5.32067023 23.54883566 -0.01861462 -0.01265780 -0.01896572
H -3.19676658 0.72834747 29.79886630 -0.00086324 0.00775204 -0.00237337
H -0.64615235 4.10446775 35.31017583 0.00312331 0.02026074 -0.00350042
H 2.47723649 8.83292863 29.11187895 -0.01466767 0.01204264 0.00697424
H -0.59583537 6.85177643 25.53269563 0.00819760 -0.00178660 0.00023559
H -3.19647913 2.32992952 27.78826036 -0.00816287 0.00324128 -0.00416080
H -0.49865139 2.42576361 33.60630934 0.03512442 -0.01746595 -0.01230857
H 2.36893229 7.42477991 31.05723340 0.00390445 -0.00899552 -0.02186901
H 2.09614412 4.87926225 32.97304095 0.00409946 0.00861650 0.02151466
H -0.03812851 0.50433682 31.80146965 -0.02549708 -0.00324550 0.00280709
H -2.84236235 4.66065991 26.00518580 0.00652025 -0.00010917 0.00199289
H -0.68393639 9.77628116 27.21473211 -0.05018359 -0.00170657 -0.03973413
H 4.50756803 2.76691003 32.07294469 -0.01011766 -0.01428902 -0.00058899
H -0.73925768 8.11209442 32.74856852 0.01901070 -0.00757758 0.01212310
H -3.46280401 6.11929458 27.44249053 -0.00876327 -0.01120110 0.00967437
H 0.84594115 1.96316473 25.71719127 0.03918798 -0.00261122 0.01237819
H -2.90456016 2.72606916 32.20769706 -0.04031548 0.01538810 0.01269797
H -2.48831365 7.86642723 33.23388986 -0.00811904 0.00107414 0.03435698
H 3.27091371 6.53226875 27.17763308 -0.01883518 -0.00329418 -0.00004205
H 2.05535658 0.97206238 24.96522101 0.00166878 0.00670709 -0.00567372
H -2.47056280 3.89271091 31.06221272 -0.01941156 0.01337112 0.01251160
H -1.49905157 9.24589597 33.86134561 0.00456521 -0.01045331 0.00045335
H 1.74148393 7.29391120 26.50306891 -0.02355464 0.01578939 -0.01055905
H 0.42378594 0.34814179 25.01137319 0.01296240 -0.02312194 -0.00055353
H 20.22393682 18.58559189 2.62083506 -0.02351567 -0.00149584 -0.00535161
H 2.32672779 13.90915276 3.29054807 -0.01126500 0.00438969 -0.01532856
H 5.41153281 10.33120291 9.12872437 -0.01435257 0.00835978 -0.00627431
H 2.36972164 15.14911225 8.43706383 0.00256347 -0.03826001 -0.00240845
H 5.38356208 17.93132537 1.00731106 -0.01080567 0.01768190 -0.01366502
H 3.66722348 13.17150308 5.17739699 -0.02364940 0.02250165 -0.00821342
H -0.17104403 11.24770264 10.80174991 -0.01525208 0.02089984 -0.00434613
H 1.24192103 16.07795806 6.77233233 -0.00133654 0.01932083 0.00067844
H 4.01011942 16.21807926 10.65870972 -0.00869595 0.00376762 0.01579672
H 3.84900717 11.49437341 6.90720148 -0.00265219 0.00976436 0.02295563
H 1.36372157 12.74909523 1.03081261 -0.00852556 0.01283142 -0.00691314
H 1.22968536 17.64455966 4.80805017 -0.01517833 -0.01288514 0.00727977
H -2.28101567 15.00771558 35.46591389 0.00761202 -0.00580000 0.02042538
H -0.15885065 10.09852653 6.13384064 0.01491330 -0.01388333 -0.00209286
H 2.75377279 14.10049447 11.71969934 0.00079758 0.02423118 0.00912908
H 5.32669998 18.64962402 5.47384127 -0.01011431 -0.00122593 -0.00979995
H 2.46465573 16.69400256 1.86037987 -0.00198513 -0.01662182 -0.04826171
H -0.28291970 11.71981103 4.39340074 -0.00365906 -0.01555927 -0.00302956
H 2.88892264 12.64038197 9.62271050 0.01022515 0.02177001 0.00655639
H 5.60058755 16.73031324 7.00093318 0.01133572 0.00131630 -0.02550697
H 5.04889865 14.91540347 9.32767757 0.00063570 0.00092268 0.00370753
H 3.01538694 9.81989311 8.11541844 0.00551529 -0.02179692 -0.01214191
H 0.22257671 14.31009033 2.37199803 -0.01844594 0.01212262 0.00002984
H 2.22685412 19.21105831 3.69536231 -0.00640819 0.00204921 0.00006573
H 7.54841235 13.55827217 7.23207625 -0.02283720 0.01005203 0.00677257
H 2.24171269 17.73011465 9.37470195 0.00908893 0.01764061 -0.00981094
H 18.63315180 15.22413244 4.69238186 -0.02092187 -0.01272738 -0.00654228
H 4.47986466 12.07221787 2.59738696 -0.01558220 0.00683459 0.03978532
H 0.25990955 13.57522740 7.14484566 0.00877997 0.00833444 -0.00180045
H 0.51985391 17.03410572 9.15612645 -0.01584299 0.02156811 -0.00046592
H 3.93914107 15.89617312 4.14126062 0.02365888 -0.00005348 -0.00776447
H 4.24885666 10.85711546 1.28989288 0.01882833 -0.01937183 0.01693208
H 19.14645774 13.60240216 7.77805244 0.00826576 0.02176680 -0.00064302
H 0.89666231 18.25197486 10.42059146 0.00541664 -0.01267958 -0.01055784
H 5.45363482 15.28854616 4.51808962 0.00274015 0.01064021 -0.01770102
H 2.88981646 11.36284475 2.26923847 0.01294010 0.01408777 -0.01406437
H -1.70566589 18.54442281 14.44572934 -0.00834664 -0.00893726 0.01056369
H 1.23906801 13.59867953 15.02518092 0.02153741 0.00554237 -0.01701846
H 3.66495412 10.07241221 20.68742851 -0.02112550 0.00400310 -0.00353791
H 0.91418008 15.26667009 20.61637907 -0.00182912 0.00943639 0.00127080
H 4.10705464 17.79891481 12.63928907 -0.02423653 -0.00190646 0.00577638
H 2.22905877 12.95176596 17.11238001 0.02929996 -0.02060877 0.01128469
H -1.89867337 11.06614144 23.41252792 0.03356266 -0.02232042 0.00235052
H -0.04917072 15.74934216 18.58612054 0.00223634 -0.00032704 0.00134555
H 2.57815877 16.45808685 22.51656313 0.01205595 -0.03257119 -0.01603525
H 2.07640130 11.48251643 19.05068735 -0.02636777 -0.02219833 0.01209235
H -0.34572247 12.33389218 12.84605197 -0.01470782 0.00369187 -0.01523559
H 0.00728509 17.25341385 16.52615578 0.02392698 0.02021976 -0.02096807
H 1.12984552 15.00569261 11.68792155 -0.01795420 0.01012194 0.01473189
H -1.69052040 10.12612838 17.90380092 -0.00048281 0.00370507 0.02987218
H 0.83115840 13.83312861 23.55465082 -0.00896617 -0.00675486 -0.02447553
H 3.93248541 18.61232021 17.60134345 -0.00290142 -0.01640839 -0.00246109
H 1.16069864 16.75530735 13.45730486 -0.00360675 -0.00291463 0.01706636
H -1.73480760 11.86654921 16.10426622 -0.02193846 -0.01848653 0.01182847
H 0.78905214 12.19977147 21.93097784 -0.00275783 0.02024558 0.01175893
H 3.99042175 17.12930415 19.49748219 -0.01275152 -0.01384518 0.02909759
H 3.53809750 14.71702156 21.33474790 -0.00977295 0.01368174 0.01616973
H 1.40313723 9.77476810 20.08216718 -0.00058145 0.00836916 0.01268583
H -1.24889838 14.46504247 13.86429754 -0.00585339 -0.01263155 0.02330302
H 1.04756164 18.81862308 15.38221219 -0.00435711 0.01053795 -0.01533100
H 4.37042157 13.23984942 19.47349455 -0.03153974 -0.01373424 0.02592935
H 0.29275351 17.39982864 20.86771865 -0.01677886 -0.01784244 -0.02676000
H -2.04532482 15.83452342 15.63849847 0.01023178 -0.01912725 0.00661915
H 3.17292489 10.99128331 13.68812626 -0.02603634 -0.02060690 -0.00423981
H 17.87808336 12.73037146 20.13201878 -0.00465797 -0.01323120 -0.02988583
H -1.13676203 17.89230819 21.67870692 -0.01667245 0.03105764 -0.03025006
H 4.58156706 15.23695670 16.10819035 -0.01251811 0.00504859 -0.03157424
H 1.43027725 10.59246972 14.09027266 -0.00722044 -0.00946170 0.00286388
H -1.06157736 12.62375993 19.83337065 0.02350581 -0.00912047 -0.00596982
H 0.47317569 18.84244515 21.88535491 0.02670638 0.00339525 -0.00505219
H 3.45929068 16.48347924 15.11553268 0.02040374 0.02407620 0.01768911
H 2.34312968 11.92693171 14.86765652 0.00462009 0.03075539 0.01067916
H -3.29167132 18.44470734 26.64449744 0.00779173 0.02618395 -0.01714025
H -0.26572706 13.82912105 26.65414484 -0.00198278 0.00451880 -0.00638114
H 2.21521812 10.63559232 32.71891464 -0.00557999 -0.02459520 -0.01519436
H -0.52378304 15.24138486 32.42351050 -0.02967290 -0.03464032 -0.00552392
H 2.50905859 17.76557027 24.66212089 0.01332321 0.01037162 -0.00340751
H 0.76639746 13.06364551 28.70802355 0.00272134 -0.00650703 -0.03034300
H -3.32348812 11.09810735 34.86601269 -0.01671945 0.02169446 -0.01205361
H -1.63868250 15.78988513 30.57779601 0.00951316 -0.00761410 0.00914068
H 0.86936297 16.64618152 34.30524845 -0.03952954 -0.00961186 -0.00626815
H 0.79217762 11.06564818 30.32033498 -0.01955609 0.00871993 0.01294979
H -2.07558033 12.67530651 25.14856908 0.01226240 -0.02478343 -0.00311572
H -1.78914803 17.45725600 28.76893359 -0.00946195 -0.01437148 0.01481757
H -0.57883425 15.04581051 23.55192194 0.02887048 -0.01253787 0.01540557
H -3.33471001 10.43117809 29.46451659 -0.00667536 -0.00995564 -0.01804427
H 3.85977951 13.80030542 0.15894532 0.01069396 0.00042422 0.02740384
H 2.34984794 18.43444667 29.39932110 -0.02042211 -0.02486763 -0.01863195
H -0.33691456 16.85483122 25.22143794 0.00499535 0.01283856 0.01712275
H -3.33390660 12.08679862 27.84686768 -0.00184520 0.00794541 0.00982241
H -0.54048431 12.58060548 33.77418244 -0.02923549 0.00174586 0.00491670