2160
Time=20999.99999999 pbc="T T T" Lattice="20.57424763 0.00000000 0.00000000 0.00000000 28.95053580 0.00000000 -4.75046890 0.00000000 35.88269515" energy=-13793.03206027 virial="-56.41029462 3.08584730 60.91622597 3.08584730 -45.95240184 1.69185726 60.91622597 1.69185726 -90.83799879" stress="0.00007275 0.00019994 0.00298161 0.00019994 0.00010473 0.00006720 0.00298161 0.00006720 -0.00179533" Properties=species:S:1:pos:R:3:vel:R:3
O 1.00386009 8.74857611 2.20625968 0.00110336 0.00178609 0.00051665
O 2.05208136 3.84745252 3.57329099 -0.00135043 0.00024952 0.00266318
O 4.54904786 1.23802816 9.48618054 -0.00288201 -0.00512989 0.00107929
O 3.36121733 6.20577599 8.65182860 -0.00361186 -0.00190654 -0.00333879
O 1.31567544 4.95931027 9.85411035 -0.00320462 -0.00766658 0.00180862
O -0.26519035 9.89127633 8.11367679 0.00143557 -0.00008538 -0.00811642
O 4.25632790 5.07218183 2.30473149 0.00308546 0.00128709 -0.00226033
O 5.62857679 28.63142682 3.56349522 0.00411804 0.00172445 0.00830048
O -0.87199087 8.63480884 14.52920498 -0.00024209 -0.00715946 -0.00613823
O 0.14331587 4.31381006 15.49478666 -0.00060041 -0.00610359 0.00444364
O 3.17246963 1.40179309 21.22135654 0.00579009 -0.00419881 0.00372459
O 1.82605645 5.75954024 19.95653043 -0.00213962 -0.00087254 -0.00185717
O -0.31732674 5.03887794 21.39067159 -0.00129150 -0.00254865 -0.00281624
O -1.83022840 9.78743818 20.32249804 0.00307987 0.00168709 -0.00192307
O 2.44652027 4.69148630 14.29635177 -0.00219365 -0.00028502 0.00009256
O 3.76125407 0.02432520 15.25420137 -0.00032369 0.00608716 0.00265358
O -2.40907870 8.39050642 26.38155754 0.00429087 -0.00138965 -0.00475591
O -1.18252946 3.97809125 27.67690087 -0.00292051 0.00189566 -0.00333106
O 1.44146298 1.33470511 33.41258608 0.00044447 0.00578249 -0.00775139
O 0.29090677 5.95990412 32.53000474 0.00196787 -0.00155880 -0.00497168
O -1.74514625 4.68421155 33.47501195 0.00494917 0.00552189 0.00264082
O -3.19990730 9.91220555 32.47800064 0.00132054 -0.00068274 0.00262234
O 0.90474095 4.82442744 26.17140271 0.00009870 0.00483189 -0.00189077
O 2.30907565 28.90045769 27.53545631 0.01085186 -0.00698727 -0.00569983
O 0.52075163 18.28103172 2.13791904 0.00151943 0.00171441 -0.00355640
O 1.88362642 13.70180994 3.66339287 0.00238677 0.00706016 0.00226440
O 4.47761039 10.62335682 9.56992998 -0.00172122 -0.00050919 0.00947444
O 3.44555889 15.72014849 8.38453699 -0.00173931 -0.00214845 -0.00387905
O 1.52993586 14.59671366 9.62949447 -0.00013770 -0.00226533 0.00007269
O -0.26431322 19.48174922 8.43605078 -0.00677664 0.00273567 -0.00121387
O 3.94436994 14.37605884 2.33577028 -0.00222081 -0.00167178 -0.00127365
O 5.47648704 9.74556245 3.48195412 -0.00085534 -0.00427722 0.00607697
O -0.84429791 17.95076647 14.44033751 -0.00188350 -0.00206758 0.00022583
O 0.42836174 13.17339635 15.48159499 -0.00522355 0.00163177 -0.00246055
O 3.10288029 10.84947252 21.45077353 0.00263169 -0.00670983 0.00249830
O 1.96136487 15.36430289 20.28408849 0.00321940 -0.00046805 0.00066709
O -0.35941530 14.28085719 21.44555626 0.00572691 -0.00218948 -0.00147017
O -1.97166124 19.21872140 20.19482377 0.00168161 -0.00193170 -0.00014551
O 2.57936165 14.41736062 14.44152481 -0.00174681 0.00058351 -0.00302046
O 4.02193755 9.80982025 15.93702063 0.00029413 0.00425381 -0.00426521
O -2.45095839 18.30417089 26.05797531 -0.00877329 -0.00230804 -0.00670172
O -1.33584467 13.28955885 27.29496162 0.00356015 -0.00473034 -0.00054283
O 1.46309977 10.67325023 33.61356548 0.00651680 -0.00129847 0.00539622
O 0.28405077 15.43357657 32.32558107 0.00215938 0.00613298 -0.00143629
O -1.93430746 14.65586998 33.55186089 -0.00259607 0.00408300 -0.00428647
O -3.62974759 19.34363409 32.15725317 -0.00404393 -0.00390424 0.00428054
O 0.79390283 14.57855797 26.23657954 -0.00624993 -0.00752703 -0.00218141
O 2.52972456 9.60172271 27.74761732 0.00546036 -0.00216055 0.00631664
O 0.73027293 27.76347146 2.56837555 0.00512302 -0.00044545 0.00494015
O 1.95035641 22.95663301 3.59322671 -0.00168007 0.00007878 -0.00398396
O 4.37792353 20.23865862 9.60990244 -0.00175765 -0.00058900 -0.00489143
O 3.49342531 25.27792775 8.58022597 -0.00479400 0.00356474 -0.00324703
O 1.47540518 24.19284584 9.67744179 -0.00048281 0.00359418 -0.00332824
O -0.24073551 0.12555744 8.23490905 -0.00515850 0.00387692 0.00207069
O 4.14812030 23.94720510 2.56555515 -0.00003416 0.00013158 0.00410193
O 5.46251153 19.36216167 3.72956155 -0.00266593 0.00050697 0.00313965
O -0.74707264 28.17417842 13.89518312 0.00060726 0.00200242 0.00095060
O 0.22638331 23.04725756 15.49893344 0.00069296 -0.00445519 -0.00154081
O 3.00057799 19.80514612 21.70786713 0.00419860 -0.00415677 0.00524642
O 1.82282018 25.35090742 20.32233657 -0.00057285 0.00262676 0.00085140
O -0.22987543 24.02336159 21.38647279 0.00076005 -0.00045416 -0.00069723
O -1.73564502 0.49277078 20.04955791 0.00064945 -0.00534621 -0.00351193
O 2.56536185 23.88335728 14.42001647 0.00295124 0.00062560 0.00592233
O 3.80991718 19.14547246 15.73542161 0.00043774 0.00519901 0.00479123
O -2.38394039 27.72923129 26.21093008 -0.00213334 -0.00378814 0.00340757
O -1.34036489 22.82934785 27.25675736 0.00615900 0.00387367 -0.00538521
O 1.33884973 20.42022752 33.52524974 -0.00563426 0.00403900 -0.00208341
O -0.08140853 25.15875969 32.25866391 0.00115735 -0.00447391 -0.00039102
O -1.77442973 24.05259369 33.89255073 -0.00104199 -0.00255951 0.00203390
O -3.35533176 0.45184899 32.43605680 0.00136653 0.00218603 -0.00068158
O 0.99826874 23.62915525 26.35685653 -0.00724984 0.00249785 -0.00495762
O 2.35931100 19.12046528 27.58794078 -0.00068961 -0.00007115 0.00426552
O 7.54313308 8.50577777 2.42040589 0.00466241 0.00260552 -0.00310722
O 9.05994208 3.52680163 3.47656900 0.00172021 -0.00627361 -0.01029292
O 11.47090698 1.14564491 9.55462510 -0.00926376 0.00310292 0.00306864
O 10.28206567 5.69688246 8.59210769 0.00588453 -0.00766141 -0.00178644
O 8.12389583 4.70422969 9.84420376 -0.00339579 -0.00319119 0.00456672
O 6.86784764 9.96891482 8.60194983 0.00046255 -0.00154613 0.00033888
O 10.76747466 4.86137267 2.26359196 -0.00008407 0.00621150 0.00093405
O 12.42308547 28.86228106 3.64914401 0.00361170 0.00230356 -0.00636398
O 5.86948739 8.39107963 14.56916112 -0.00027702 -0.00174226 -0.00370393
O 7.22882934 3.73359329 15.49963519 -0.00730050 -0.00041743 0.00256081
O 9.80484031 1.11194393 21.59648238 -0.00151074 -0.00139571 -0.00234054
O 8.69389747 5.84691726 20.46765750 0.00211054 0.00529733 -0.00356091
O 6.52006890 4.86859936 21.67484594 -0.00483295 0.00400719 0.00128023
O 4.98486114 9.58526385 20.29053597 -0.00183703 0.00550818 0.00201108
O 9.36106660 4.83129153 14.31008715 0.00405227 0.00028168 -0.00132774
O 10.93617208 0.01909255 15.55824614 -0.00333118 -0.00264843 0.00009732
O 4.58300169 8.60732864 26.40369086 -0.00077655 0.00397604 0.00183324
O 5.79401988 3.66233917 27.41187116 -0.00218067 -0.00251853 0.00725409
O 8.57739191 1.27868137 33.33994690 -0.00326651 0.00105585 -0.00135089
O 7.28365334 5.88614358 32.53735852 -0.00705105 0.00233938 0.00374955
O 5.09786675 4.64168953 33.50874112 0.00562769 0.00099694 -0.00177385
O 3.48179169 9.79324776 32.15170426 0.00259118 0.00313498 -0.00281332
O 7.71087068 4.95572456 26.25006738 -0.00210700 -0.00376956 0.00186702
O 9.39687206 0.29727899 27.80401715 0.00864936 0.00388074 0.00233020
O 7.48135243 18.45475208 2.46798296 0.00024368 -0.00013413 0.00426714
O 8.63450590 13.72825889 3.76513299 -0.00424258 0.00260919 0.00647620
O 11.49430755 10.83207756 9.70472764 0.00031642 -0.00461941 -0.00280666
O 9.96576143 15.85482651 8.77893435 -0.00256613 0.00583243 -0.00033116
O 8.13366997 14.30721029 9.73841058 0.00065031 0.00370799 -0.00108397
O 6.46037203 19.52819165 8.03962861 -0.00050254 0.00347734 -0.00596142
O 10.82072285 14.55277274 2.47033841 0.00020966 0.00517999 0.00418676
O 12.32639925 9.19719648 3.70333688 -0.00033489 -0.00234389 -0.00793208
O 5.91587934 18.11494277 14.47114378 0.00158514 -0.00179251 0.00816690
O 7.08128534 13.07734339 15.41285171 0.00045007 -0.00262274 0.00092102
O 10.03222793 10.87838079 21.69469027 0.00400822 0.00110572 0.00493919
O 8.27970971 15.81294917 20.75801312 0.00384295 -0.00315447 0.00211690
O 6.55889304 14.29908341 21.81359233 0.00149331 0.00039702 0.00482853
O 4.90878052 18.99450167 20.18972796 0.00221879 0.00294783 0.00193563
O 8.75046242 14.50169381 14.07854331 0.00127435 -0.00023126 0.00078762
O 10.68307518 9.72931791 15.72169140 0.00632657 -0.00245354 0.00058564
O 4.57860420 18.29664397 26.45845034 -0.00429869 -0.00140917 -0.00775300
O 5.65571246 13.47532415 27.43006926 -0.00153333 -0.00041869 0.00098388
O 8.10511969 10.95953883 33.47667125 -0.00814474 0.00143346 0.00225578
O 7.05876092 15.79688552 32.64222876 0.00421785 0.00524295 -0.00031889
O 5.01918642 14.63107007 33.89333917 0.00310619 0.00096815 0.00304247
O 3.24456809 19.17927762 32.25468033 0.00098584 0.00473214 -0.00477142
O 7.51714289 14.57392963 26.13204285 0.00005051 0.00328177 0.00423076
O 9.33899239 9.65904820 27.74678229 -0.00209527 0.00516928 0.00072372
O 7.62874321 27.58581398 2.33451083 0.00494052 0.00300340 0.00060899
O 8.38486692 23.33036566 3.62611168 0.00584034 0.00136832 -0.00175853
O 11.20128412 20.45737316 9.31661111 0.00502390 0.00279005 0.00133850
O 10.40501466 25.10465060 8.41142157 -0.00146725 -0.00945929 -0.00134210
O 8.20156145 24.42846286 9.60494266 -0.00320246 0.00615619 0.00079030
O 6.76355344 0.41318589 8.42680915 -0.00014060 0.00462417 0.00421228
O 10.68130185 24.03189051 2.25793927 0.00316799 -0.00272094 0.00533810
O 12.21893942 18.76542390 3.51555464 0.00169374 0.00360697 0.00462766
O 6.04504311 27.90815374 14.59206583 -0.00464710 0.00367810 -0.00176129
O 7.27424134 22.90875053 15.66342184 -0.00457947 0.00557492 0.00280464
O 9.98528514 20.63470933 21.08837266 -0.00153469 -0.00121677 0.00297390
O 8.81097387 25.53917447 20.62133849 0.00033753 0.00027426 -0.00256209
O 6.90232819 23.99068354 21.54781472 0.00241875 0.00004557 -0.00610503
O 4.99996556 28.85221139 19.91290071 0.00437758 0.00113201 -0.00003089
O 9.40209681 24.25726861 14.33846541 0.00236217 -0.00067365 0.00519254
O 10.77477703 19.14957323 15.66712686 -0.00791378 -0.00417514 -0.00184602
O 4.35119900 27.87368336 26.10833512 -0.00092404 0.00052033 -0.00306563
O 5.53853301 23.04178757 27.62618768 -0.00445642 -0.00028176 -0.00505773
O 8.17211712 20.50832023 33.32996315 -0.00059960 0.00916070 0.00256703
O 6.77066854 25.33567457 32.22450769 0.00230325 -0.00188894 0.00305525
O 4.74695300 24.21098178 33.24315712 -0.00428175 0.00024278 0.00024039
O 3.23122815 0.06612088 32.08577788 -0.00357788 0.00380757 0.00193644
O 7.47379737 23.81732621 26.11876462 0.01270111 0.00763714 -0.00557972
O 9.05895604 19.08136831 27.36667450 -0.00308247 -0.00432667 0.00407731
O 14.33239910 8.52355570 2.63848284 0.00110887 -0.00679552 0.00304841
O 15.68158252 3.82352813 3.63933576 -0.00146257 -0.00311886 0.00292909
O 18.34434237 1.43604377 9.26963655 -0.00219958 0.00232449 0.00478056
O 17.02459935 5.55491767 8.14300637 -0.00357714 -0.00097220 0.00305320
O 14.97518083 5.00007106 9.75368566 -0.00543894 -0.00050069 0.00802980
O 13.37515418 9.65142463 8.30864848 0.00285497 0.01026494 0.00105395
O 17.70228882 4.63564048 2.38462803 -0.00243519 0.00253766 -0.00189189
O 19.32083742 0.02108480 3.55823533 -0.00060421 0.00290531 0.00299113
O 12.75678201 8.81220790 14.37361054 -0.00137247 0.00297129 -0.00011545
O 13.94013990 3.92756839 15.62238368 -0.00407142 -0.00796349 0.00156778
O 16.71301905 1.15927088 21.44009061 0.00050702 -0.00442680 0.00228495
O 15.39122424 6.02885387 20.73530884 -0.00162874 0.00213375 -0.00398705
O 13.46525219 4.54558645 22.04627933 0.00135771 -0.00315415 -0.00521923
O 11.61574287 9.69671457 20.28485009 0.00447659 0.00109019 -0.00063001
O 15.89492534 4.79932448 14.05391113 0.00339137 -0.00285834 -0.00330785
O 17.74419176 28.68430119 15.29841446 0.00182607 -0.00291354 -0.00236538
O 11.14835805 8.32314613 26.46752090 -0.00212403 -0.00530857 0.00171277
O 12.42771165 4.11912972 27.89836259 0.00030754 -0.00049364 -0.00004113
O 15.00633153 1.12706573 33.61116727 -0.00186159 -0.00041478 0.00115715
O 14.24207348 5.93423606 32.14034698 0.00494559 0.00180877 0.00248677
O 12.03173969 5.35707209 33.51443108 -0.00087838 -0.00174152 -0.00484239
O 10.30361537 10.10926202 32.32742658 0.00117525 -0.00178358 0.00411266
O 14.59247764 4.68743389 26.32500576 -0.00050099 -0.00386825 -0.00187472
O 16.11776773 28.75804871 27.47411411 0.00237903 -0.00306221 -0.00056887
O 14.62836402 18.12232127 2.52832195 -0.00694468 0.00347165 0.00399224
O 15.73618170 13.32529328 3.82104283 -0.00217742 -0.00367757 -0.00305444
O 18.35926268 10.69425691 9.66971022 0.00390124 0.00157838 -0.00029713
O 17.09804466 15.51054826 8.61537454 0.00308179 -0.00075680 -0.00135179
O 15.03851180 14.53979609 9.64394377 0.00071386 -0.00399745 -0.00332723
O 13.35661439 19.13139016 8.02768527 0.00539561 0.00285371 -0.00336664
O 17.60705249 14.15540082 2.36387577 0.00316689 0.00062027 -0.00311140
O 19.35254924 9.36798286 3.70718832 0.00167390 0.00445872 -0.00589152
O 12.75139500 18.07799255 14.51867802 -0.00704283 0.00018028 -0.00073608
O 13.67493812 13.22578763 15.55062567 0.00035250 0.00038644 -0.00207433
O 16.52439867 10.54093396 21.36415778 -0.00394941 -0.00073417 -0.00670408
O 15.26627010 15.63577478 20.20602171 -0.00129303 -0.00113251 -0.00357004
O 13.38655005 14.65378132 21.67267540 -0.00250930 -0.00114486 -0.00095351
O 11.90297283 19.32032005 20.04335143 0.00805522 0.00211471 0.00284649
O 15.92618815 14.06461778 14.41628164 0.00796547 -0.00376773 -0.00424251
O 17.61115884 9.52872548 15.89524020 0.00098837 -0.00093425 0.00211037
O 11.25535759 18.75282055 26.06162154 0.00253051 0.00532386 0.00196001
O 12.45786329 13.73472436 27.67759366 0.00012815 -0.00111131 -0.00311286
O 14.90373248 10.48160719 33.38285006 0.00312177 0.00150258 -0.00152937
O 13.99552695 15.73369869 32.41927045 0.00577248 -0.00046828 0.00090451
O 11.85444494 14.94780793 33.42612124 -0.00436743 0.00084229 0.00876826
O 10.20760091 19.42110877 32.27714538 -0.00005988 0.00185084 -0.00456638
O 14.30906812 14.35078546 26.14337947 0.00687284 -0.00318395 -0.00162878
O 16.02997241 9.46404234 27.31066207 -0.00339570 0.00294448 -0.00360603
O 14.33406676 27.63844149 2.51354578 -0.00413234 0.00278923 0.00261188
O 15.55322427 22.98314932 3.67454849 0.00080455 0.00227617 0.00309901
O 18.20536581 20.43135667 9.69126164 0.00251334 -0.00851878 0.00688705
O 17.05064499 25.08304172 8.29905867 0.00135737 -0.00391318 -0.00110643
O 15.05179971 24.18423182 9.72437973 0.00201930 0.00341022 -0.00455136
O 13.56791650 0.18332600 8.12676741 -0.00236237 -0.00046162 -0.00005640
O 17.74062030 24.17166405 2.44433068 -0.00001431 0.00190894 -0.00719799
O 19.35756333 19.12764078 3.86900462 0.00299979 -0.00073829 0.00105732
O 12.92180407 28.09382990 14.09062010 -0.00119142 -0.00378356 -0.00376285
O 14.01462954 22.89380843 15.23417078 -0.00130752 0.00126304 -0.00197509
O 16.87273563 20.62188209 21.02919324 0.00056520 0.00888232 0.00182998
O 15.22058915 25.33290456 20.30246669 -0.00225391 -0.00029931 -0.00286355
O 13.38595734 24.25593885 21.71053055 0.00168827 -0.00198188 -0.01002452
O 11.96284171 0.22392810 20.23297710 -0.00139427 -0.00027892 -0.00426422
O 16.01962101 24.24695840 14.47141271 0.00139115 0.00673904 0.00172462
O 17.63901547 18.80529353 15.48718125 0.00109540 -0.00024411 -0.00487765
O 11.28615256 27.65724770 26.57915245 0.00382154 0.00079408 0.00247208
O 12.24913177 23.06801091 27.40457645 -0.00167814 0.00365831 -0.00454464
O 15.09497504 20.27460903 33.68404765 -0.00684411 -0.00751548 -0.00455191
O 13.92042115 25.05834035 32.26410248 0.00051294 0.00324276 -0.00003497
O 11.82596727 24.29318924 33.43957121 -0.00152004 -0.00525782 0.00421374
O 10.35105803 28.80858877 32.02803724 0.00593015 -0.00082690 0.00432282
O 14.34161830 23.88003588 26.12826267 -0.00004775 -0.00370206 -0.00671566
O 15.95415649 19.24756104 27.63010908 0.00178003 0.00452448 -0.00765653
H 0.19256695 8.88929919 2.73755230 -0.04028108 -0.00108548 -0.01764955
H 2.89699219 4.42568782 3.25022801 -0.01058889 -0.00357559 0.02241685
H 5.43041367 0.76241467 9.15041332 -0.01473477 0.00808351 -0.00423028
H 2.57844865 5.63018984 8.72263577 0.00565977 0.01746501 0.01920723
H 5.75660958 8.13410274 0.77706328 -0.00170231 -0.00174123 -0.00281058
H 4.07233189 3.32259740 5.10208026 -0.02964236 0.00982174 -0.03209084
H -0.38663832 1.49485982 11.25196271 -0.00047128 0.00687227 -0.01992554
H 1.35532814 6.26337725 6.73974040 0.02783682 0.01331824 0.01724540
H 4.25586815 6.99070640 10.62514109 0.01762934 -0.00352864 0.00198674
H 3.93660820 1.96171975 7.22339753 -0.01019434 -0.00264085 0.02817052
H 1.30109060 3.21805026 1.12635261 0.02095728 0.01034477 0.02222018
H 1.22364796 7.75287479 4.86608549 -0.01328522 -0.01078223 0.00803215
H -1.93309131 5.26408690 35.83642931 -0.01934267 -0.03139424 0.00609765
H 0.02067756 0.83031543 6.28825425 -0.00148309 0.01820959 -0.03031388
H 2.54406059 4.20838455 12.06900131 0.01025426 -0.00678778 -0.01531082
H 5.40630120 8.95202742 5.88942765 0.01251954 -0.00101942 -0.00774207
H 2.97600451 7.14565162 1.57690090 -0.00439905 -0.00050388 0.00186290
H 0.06593096 2.45828888 4.40726721 -0.01537002 0.02494290 0.00151717
H 2.50609807 2.45202525 10.54591300 -0.00061070 -0.00690064 -0.00204093
H 5.37282728 7.50637947 7.55592842 0.00610388 0.00335389 0.00578684
H 5.11896447 5.16456999 9.51904489 0.01410631 -0.01895322 -0.01025253
H 2.91586629 0.04458747 8.33493453 0.02767840 -0.00523938 0.02543472
H 0.21873141 5.31285557 2.08216578 0.00032118 -0.01606771 0.00829249
H 2.37625886 9.47970730 3.74245233 -0.01329620 0.01417666 0.01469090
H 7.63053687 3.26891869 7.86806630 -0.00108428 0.00875339 0.00975691
H 2.22811378 8.31008810 9.48839629 -0.01227261 0.00462924 0.00437317
H -0.43844162 5.82242316 4.26312880 0.01118703 0.00514295 -0.00474718
H 3.30590996 1.08441373 1.81540346 0.01662631 -0.00206596 -0.00541169
H -0.08829654 2.74175867 8.81725638 0.00725772 0.00236191 -0.01122164
H 0.60048177 7.60026195 9.47702203 -0.00679705 0.00414065 -0.00286679
H 6.89416276 6.14859377 3.76401293 -0.00815780 -0.01950747 0.00728833
H 3.96747164 2.16407601 2.93090518 -0.00794245 -0.00467366 -0.00143834
H 0.61809460 3.80038368 7.59084999 -0.02539507 -0.00352721 0.00123950
H 1.09681874 8.98365463 10.54179684 0.01657253 0.01494447 -0.00320480
H 5.35900948 6.99642133 3.80503467 -0.00262883 0.00179136 -0.01679632
H 5.05063828 1.39173120 1.76694710 0.01060632 0.00885020 0.00374932
H -1.70763746 8.99573877 14.80675968 0.01420057 -0.01454900 -0.01604176
H 1.00181440 4.54038334 15.07092756 -0.00753643 0.00059542 0.00195975
H 4.06519451 1.03101362 20.97168033 0.00083412 -0.00249527 0.01033498
H 0.89634056 5.53123824 20.33649863 0.00156280 0.01747250 0.01099457
H 3.91132801 8.12303134 12.81890872 0.01945579 -0.00995222 -0.01795112
H 2.29860787 3.54776003 16.65246854 -0.01470894 -0.01123238 0.02589716
H -1.77581093 1.34341924 23.29099520 0.01253958 -0.02486968 -0.01956774
H -0.16178141 6.34179480 18.33149786 -0.02188256 0.00243815 -0.00645496
H 2.21896744 6.70115443 22.98301192 -0.00971036 0.00942896 0.01901941
H 2.35041439 1.85299065 18.54602636 -0.00702244 -0.00818863 0.00819772
H -0.32625137 3.02449116 13.02494078 -0.02342999 0.01594594 0.00120645
H -0.15447288 7.95968680 16.62386464 0.02077708 -0.00144715 0.01079327
H 1.07825463 5.63480045 11.77103315 0.01544322 0.00782346 0.03442769
H -1.64645556 0.75057425 17.88810420 -0.00523899 -0.02456299 0.01171897
H 1.00499356 4.27445804 24.06970557 -0.01254537 0.00645467 0.00727415
H 3.82262424 9.06666903 17.74785428 -0.02579790 -0.02192621 -0.00503127
H 1.17108291 7.36376579 13.68470425 -0.00481207 -0.00282502 0.00128055
H -1.86824909 2.82641572 16.36313174 0.01920924 0.00083294 0.01237563
H 0.93357046 2.67683074 22.22254329 -0.00034690 -0.00352417 -0.03861084
H 3.92375000 7.25948428 19.35163361 0.02403530 -0.01232959 -0.03151678
H 3.28036049 4.73306916 21.92972232 -0.02772842 0.01220538 -0.00003466
H 1.39244879 0.12161563 19.79125173 -0.01808909 0.00067901 -0.01419094
H -1.45698653 4.85812960 14.16722182 0.00212714 -0.01847097 0.01064474
H 0.83287532 9.89651607 15.71763319 -0.01708369 0.00439467 -0.01431075
H 5.08807643 2.63727041 20.41410234 -0.02158597 0.01183723 -0.00591325
H 0.64043378 7.93529289 21.24336174 0.01608179 -0.00699615 -0.01308796
H 18.32865049 6.03308050 15.70013047 0.01291404 0.00408817 -0.01260230
H 2.80964396 1.20432495 13.28074210 0.00021703 -0.00004505 0.01224282
H -0.80846237 3.95867949 19.36808716 -0.03577796 -0.02503430 0.00198018
H -1.09259804 7.48133993 21.41830497 0.02454344 0.01134547 -0.02590551
H 4.40975021 6.91082673 15.45844496 -0.02043667 -0.00529813 0.00779823
H 1.10931807 1.34342922 13.94077971 -0.01910304 -0.00207672 0.00563887
H 17.97621546 4.42208513 19.35255967 -0.02013146 -0.00575269 -0.01210865
H -0.48649797 8.49508993 22.46954205 0.01265695 -0.01247967 -0.02207595
H 2.94695552 6.31343627 16.20139898 -0.03395475 0.00334412 0.01517796
H 2.38852385 2.42069650 14.53160876 -0.02203253 0.02183408 -0.00615251
H -3.22009239 8.84853040 26.58995104 -0.00247129 0.01178488 0.00285976
H -0.29113747 4.20691847 27.29410341 0.03080948 -0.01678822 0.01428749
H 2.20737756 0.79231949 32.99660733 0.00296140 0.02568159 0.00893777
H -0.46292974 5.41584041 32.71081953 -0.01272642 -0.01822061 0.00511323
H 2.61639015 8.48573042 24.71468935 -0.00873411 -0.00767132 0.00639290
H 0.81337949 3.21457343 29.08110804 0.02977965 -0.00840905 -0.01797055
H -3.62524740 1.52417881 35.13572468 0.00852923 -0.00229835 -0.00058744
H -1.65989493 6.18220005 30.71896726 0.01481131 0.02202950 0.00899437
H 1.04135917 6.84028842 34.55756368 -0.00200488 -0.01726975 0.02739579
H 0.79522418 1.78975989 31.08503750 -0.00611154 -0.00026938 -0.00494431
H -1.85838268 2.74286974 25.19066405 -0.03405279 -0.00163094 0.00273880
H -1.45121656 7.65501359 28.64825744 0.00249017 -0.01392005 0.02363513
H -0.41212973 5.26898329 23.83241151 -0.01800875 -0.00226073 -0.01991802
H -3.27658274 0.65288552 29.95676160 0.02533194 0.02084732 0.01668737
H 4.50065886 4.60073937 0.23913903 0.00000733 -0.01235708 -0.00511871
H 2.39365831 8.87379003 29.79086305 0.00794245 0.01451574 0.00496185
H -0.39605441 6.67867071 25.63818923 0.01135844 0.01559488 -0.03583704
H -3.20027058 2.31763682 28.18121416 0.03120443 0.01885222 0.01608354
H -0.41359985 2.89670526 34.13148889 0.00139778 -0.00551528 0.01295784
H 2.37961984 7.34434850 31.76700819 -0.02778341 0.00484193 0.00240360
H 1.92155670 5.03428520 33.65242944 -0.00192718 0.02051609 0.01025228
H -0.37070652 28.93840070 32.15233263 -0.00157083 -0.01435261 0.02471173
H -2.91448076 4.73508218 26.27140243 -0.02592219 0.01125658 0.00158605
H -0.70288528 9.46955740 27.70065700 -0.00874410 -0.01599078 0.01057550
H 4.26893050 3.91385195 31.28000821 -0.01198222 0.00344247 0.00419125
H -1.63811142 7.61273828 33.35215575 0.00278955 -0.01367579 -0.00666275
H 15.48212493 5.67226245 28.69768134 0.00696301 0.00977204 0.01865696
H -0.32554591 1.16815633 26.00951013 -0.01630195 0.01723845 -0.01671474
H 16.05754836 3.83047400 32.06311152 -0.03012760 0.00880818 -0.01924651
H -2.54731331 8.56920257 34.49096141 -0.01411076 0.01788669 0.00617139
H 2.09229637 5.75135634 28.45763552 0.00926212 -0.00258121 0.02810900
H 1.41162731 1.92571763 26.02572042 0.01800026 0.00725192 -0.01312477
H -3.17819031 2.62110078 32.42844963 -0.00658195 -0.00617282 0.00828328
H -0.78825733 8.87635413 34.21005013 0.00709741 -0.02126861 -0.00983612
H 3.55448849 6.07147836 27.41828685 0.00485999 0.03175627 0.01285826
H 1.17492296 0.45076164 25.11504318 -0.01392820 -0.00545475 -0.00992230
H -0.28419854 18.62051455 2.73304151 -0.00963660 0.00714111 -0.01031051
H 2.71043276 13.92976403 3.14346279 0.00106959 0.01016696 0.00122354
H 5.30600224 10.16905925 9.15797486 -0.00201979 -0.04010685 -0.04210575
H 2.57009767 15.36384971 8.73954459 0.02431862 -0.00910278 0.00455278
H 5.65180524 17.84484005 0.87284157 -0.00854621 -0.01398044 -0.02085923
H 4.03374625 13.24819992 5.36160258 0.01398694 -0.01616375 0.01126259
H -0.28491374 11.12856352 11.48520662 -0.00487004 -0.00827785 0.00351492
H 1.56176635 15.60172436 6.46910795 0.02838866 -0.01572200 0.03821957
H 4.07612453 16.40301326 10.74940572 -0.00784710 -0.01575789 -0.00900443
H 3.99688337 11.61226186 7.19911163 0.00067728 0.02132437 0.00150826
H 1.06830625 12.41149620 1.05465962 -0.02328829 0.02414206 -0.00866366
H 1.41486630 17.26562681 4.74201438 0.00766374 -0.02420102 -0.00637193
H -2.08230220 15.16472426 35.78978932 -0.01989762 -0.00204598 0.01219738
H 0.00790032 10.30548367 6.11882599 0.01555276 -0.00439253 -0.00170072
H 2.63564463 13.99800278 12.06557905 -0.01492622 -0.01338243 -0.00114783
H 5.26823596 19.04744736 5.94379448 0.00876770 0.00823771 -0.01549180
H 2.39390893 16.82435195 1.74770927 -0.00364359 0.00152723 0.00991841
H -0.07670119 12.17557736 4.46214832 0.00728260 -0.00514378 0.00603595
H 2.42848070 12.16532085 10.38315040 -0.02473358 0.02583331 -0.01237130
H 5.55479050 17.29151951 7.63074724 -0.00002066 0.00903290 0.02603538
H 4.98075431 14.51368285 9.65411078 -0.00330852 0.00178245 -0.00933108
H 2.90032520 9.85925180 8.35210730 -0.02900826 -0.01127112 -0.01976527
H 0.15235457 14.56595024 1.82853365 -0.03509525 -0.03757788 -0.00308900
H 2.16713864 19.24578555 3.69812157 0.00934846 0.00314328 0.02656416
H 5.81098581 13.91401120 7.65396533 -0.00429464 0.00024132 -0.01484690
H 2.16216772 17.80298570 9.64773300 0.04659216 0.00683591 0.01989203
H 18.55773455 15.10533604 4.43571348 -0.00368540 -0.00766696 -0.01005822
H 4.19164729 11.98511457 2.57817789 -0.01616917 0.03474593 0.00610184
H 0.97848463 12.79687435 7.79391753 0.01269062 -0.02628316 -0.01058040
H 0.58243843 17.16274035 9.45124423 -0.00125490 -0.01065775 0.01103232
H 6.45307185 16.27599952 3.37636913 0.02154111 -0.02649463 0.02764967
H 4.24054301 10.70035401 1.38050123 0.01010617 0.00426939 -0.00223392
H -0.19902317 14.01624821 7.35743622 -0.01585570 0.00026350 -0.01836876
H 0.86831616 18.34707533 10.67796004 -0.01358400 0.01188079 0.03264962
H 4.61237074 16.81067815 3.25062748 0.00353633 -0.01760206 0.01266195
H 2.62353159 11.05323091 2.40969746 0.01667204 0.01137624 -0.02618407
H -1.72439149 18.46760710 14.70463115 0.01625168 0.02105965 -0.00045835
H 1.21401797 13.77626652 15.33244505 -0.01820674 0.00057360 0.01715412
H 4.00884712 10.63382596 21.22492467 -0.01245053 0.01367678 0.02606366
H 1.21758224 14.73154436 20.33030987 -0.00730107 0.00125436 0.01092707
H 3.92979848 17.68885054 12.70329129 0.01069414 0.01916864 0.00933352
H 2.38285352 12.98187995 17.19888494 -0.00918076 -0.00239900 -0.01149151
H -2.04254767 11.00491062 23.23161980 -0.02938123 0.01993076 -0.01067569
H -0.33049018 15.68961909 18.87808805 -0.02026339 -0.01517055 0.00280253
H 2.47597535 16.32941891 23.06576629 -0.00657868 0.00024088 0.01806794
H 2.36441663 11.31354716 19.01912700 -0.01270220 -0.00101729 -0.01529965
H -0.38174653 12.67389322 13.31568762 -0.01744433 -0.00402787 0.00455069
H -0.47774597 17.53693333 17.11238363 -0.01475775 0.00504725 -0.01483886
H 1.33800842 15.07413232 11.88557115 0.03645961 0.01222490 -0.01689692
H -1.68628521 10.30928944 18.15962239 0.01785519 0.01647065 -0.00504943
H 0.86578187 13.74001802 24.23010774 0.03000758 -0.00415975 -0.00089952
H 3.56154536 18.59823849 17.62897868 0.01734254 -0.01273538 0.01385862
H 1.15993252 16.67072686 13.95675909 -0.01822818 0.01064948 0.00314581
H -1.69101061 12.01557034 16.40675429 0.00358595 0.00579692 -0.03026905
H 1.13751452 12.26921524 22.09824326 -0.00424033 0.02725658 0.00968052
H 3.77501631 17.00112243 19.57964449 0.00001992 -0.00261004 0.02229625
H 3.44663059 14.66859619 21.71409341 -0.02043770 0.00595714 -0.01308236
H 1.28869711 9.58017209 20.06380685 0.00556779 0.02905901 0.01783565
H -1.49632719 14.67910820 14.15603125 -0.00208338 0.03324681 -0.00790038
H 0.64064013 18.95389978 15.41255004 0.03897002 -0.02221904 0.05478758
H 5.89551763 13.81265419 19.42821868 0.01316055 -0.01079983 0.00719950
H 0.71020964 18.15301249 21.61862225 -0.03846592 -0.00169255 0.00118690
H 16.13030493 15.56120711 16.20750776 0.00822545 0.01847323 -0.00894251
H 3.54584522 11.45407560 14.11915659 0.01122879 -0.00753432 0.00147406
H -1.90163121 12.24778855 20.12082422 -0.01065854 -0.00880217 0.00131983
H -0.46954984 16.78372954 21.13998210 0.00386303 -0.02343749 -0.02222116
H 4.10290321 16.47819313 15.86257616 -0.01716823 0.05898744 -0.01412099
H 2.84126674 10.05452757 13.24510166 0.01801107 -0.01745330 -0.00689395
H -1.16168102 13.29410993 19.15046771 0.00676678 0.00268126 -0.00881679
H -0.91663917 17.95173914 22.36191017 -0.00937075 0.00231545 -0.00309961
H 3.19289278 15.08087464 16.68203744 -0.01575755 -0.00159215 0.00929968
H 1.93587972 11.46704906 14.14630628 0.00409729 -0.01174661 0.01255144
H -3.38074736 18.49129613 26.48922658 -0.00538274 -0.00372973 -0.00003376
H -0.58706384 13.84245501 27.05678741 0.00276269 0.00910760 -0.00509983
H 2.37138291 10.31924123 33.28811868 -0.00252102 -0.00320456 -0.00780947
H -0.66536917 15.09127896 32.61530898 -0.00146576 0.02165913 0.00350445
H 2.59618591 17.97843053 24.77230742 -0.02107516 0.01780751 -0.00326132
H 0.96118342 12.81300205 28.96280067 0.01280622 -0.00503027 -0.02981906
H -3.92264707 10.77145897 35.29906190 0.00886158 -0.01893500 -0.00750067
H -1.65561586 15.73620645 30.55986586 0.01657404 -0.00706658 -0.00492604
H 1.03560556 16.40765239 34.77945658 -0.00340842 -0.00168897 -0.00903444
H 0.73996301 11.51393675 31.04322242 0.01816165 -0.01521415 0.00067098
H -2.05561454 12.81023430 24.82132714 -0.01259242 0.00105079 -0.00830595
H -1.72898702 17.37925520 28.88917925 -0.00027268 0.00959199 -0.00742731
H -0.65389017 14.76714312 23.84658166 -0.01803291 -0.01393213 -0.01489217
H -3.10254729 10.21008996 30.12772321 -0.01981042 -0.00991743 -0.00296659
H 4.15807273 13.87897606 0.20998504 0.02127492 -0.00829238 0.00321346
H 2.21606677 18.67626716 29.88326553 -0.02021538 -0.01205056 -0.01328057
H -0.46890180 16.67005185 25.47827157 0.00315079 -0.00677572 -0.01770754
H -3.27296702 11.83938267 28.18900559 -0.02542875 0.01911882 0.00183470
H -0.65856220 12.12833787 34.42449506 -0.01380070 -0.03849799 -0.00223901