2160
Time=19999.99999999 pbc="T T T" Lattice="20.50983930 0.00000000 0.00000000 0.00000000 29.14515678 0.00000000 -4.72763494 0.00000000 35.53857121" energy=-13798.11682093 virial="-66.83992158 29.86047265 65.92915258 29.86047265 -81.35527824 24.56824073 65.92915258 24.56824073 -41.10271439" stress="-0.00044560 0.00139922 0.00314583 0.00139922 -0.00147567 0.00112351 0.00314583 0.00112351 0.00047406" Properties=species:S:1:pos:R:3:vel:R:3
O 0.55839850 8.67203321 2.55235818 -0.00791215 0.00341998 -0.00289338
O 1.95155345 3.68340359 3.58613548 -0.00321552 -0.00407860 0.00899235
O 4.38088245 0.96032227 9.75225780 0.00281230 0.00171789 -0.00352702
O 3.44812852 6.02786654 8.43925295 -0.00844562 0.00109566 0.00076148
O 1.30162699 5.07268600 9.38763475 -0.00238001 -0.00015001 0.00549278
O -0.20052502 9.94804487 8.29048609 0.00023776 -0.00481364 0.00552306
O 3.96030859 4.89948602 2.42825856 0.00705195 0.00326387 -0.00051585
O 5.50234818 0.13457181 3.83531424 0.00371638 0.00959528 -0.00068800
O -0.66883153 8.82880981 13.85750239 0.00330628 0.00653902 -0.00017867
O 0.46314466 3.87019771 15.14842300 -0.00312028 0.00329738 -0.00291972
O 2.95373370 0.73035839 21.21377481 -0.00340704 -0.00098135 0.00108008
O 1.63130539 5.70496924 19.74528115 0.00214865 0.00264347 -0.00510720
O -0.32042919 5.32681517 21.25450186 -0.00035060 -0.00126918 -0.00471486
O -1.74774092 9.62334605 20.03323647 -0.00113766 -0.00118115 0.00041818
O 2.72826991 4.71897268 14.30974464 0.00365359 -0.00010694 -0.00240721
O 3.98424990 0.09794893 15.36412865 0.00372936 0.00250222 -0.00043863
O -2.36899009 8.64407833 26.17440464 0.00562132 -0.00137391 0.00301870
O -1.02752128 3.94833895 27.50941588 0.00786340 -0.00204836 -0.00457153
O 1.45703165 1.31387946 33.19527255 0.00242138 0.00079621 0.00210945
O -0.00156632 6.18076625 32.12750661 -0.00204145 0.00109885 -0.00492378
O -1.93019585 4.90519199 33.40224608 0.00389082 -0.00142138 -0.00145881
O -3.22533807 10.14759054 32.04300967 -0.00540573 -0.00524290 0.00750162
O 0.87123392 4.37622795 25.85277739 0.00472716 0.00213888 -0.00285208
O 2.48351216 0.20235240 27.18707238 -0.00446595 -0.00079482 0.00417625
O 0.61761745 18.12103313 2.59309275 -0.00031358 0.00190083 -0.00076541
O 1.87862371 13.64175081 3.48069990 0.00539484 0.00206884 -0.00236008
O 4.39218140 10.51968013 9.26956733 0.00027248 -0.00977091 0.00494106
O 3.39976761 15.88569070 8.55517903 -0.00337000 0.00581940 -0.00589701
O 1.32552078 14.61312378 9.63575873 0.00050804 0.00478968 -0.00321545
O -0.24754248 19.39014325 8.34803832 -0.00045378 -0.00521825 0.00313403
O 3.91583845 14.56770800 2.23300485 0.00350669 -0.00206659 -0.00235918
O 5.47388950 9.61268058 3.69690125 0.00487360 0.00513534 -0.00209660
O -0.99585798 18.58558018 13.95274919 0.00128468 0.00860114 0.00084919
O 0.32435060 13.21844816 14.90581150 0.00035948 -0.00191402 0.00244363
O 2.88346251 11.06644400 20.97765106 -0.00090340 -0.00399725 -0.00052303
O 1.85737436 15.62646241 20.20390070 0.00056784 -0.00130066 0.00102695
O -0.24278041 14.77208905 21.46795327 -0.00082105 -0.00061649 0.00339891
O -2.00695723 19.28449801 19.86512343 0.00299450 -0.00387676 -0.00173394
O 2.24144525 14.53205253 13.94277534 0.00302496 -0.00440870 -0.00045601
O 3.94376881 9.67253064 15.28311303 0.00245161 0.00019806 0.00389895
O -2.57795422 18.04488293 26.21211564 -0.00118467 -0.00097106 -0.00118979
O -1.42429991 13.55477764 27.22874812 0.00816692 0.00280452 0.00098489
O 1.48148507 10.65556584 33.11328797 -0.00423673 0.00248317 0.00359571
O 0.12779629 15.87532690 32.03488732 -0.00213930 0.00080832 0.00017427
O -1.80812136 14.67416117 33.09998948 -0.00073301 0.00471317 -0.00718802
O -3.46055839 19.77268494 31.89054117 0.00776363 -0.00061731 0.00407946
O 0.71951490 14.16159858 25.93834064 -0.00203371 0.00541057 0.00156080
O 2.14146620 9.27648468 26.99129961 -0.00380485 0.00026937 0.00160372
O 0.64875136 27.98430254 2.30878704 0.00255222 0.00147940 -0.00053356
O 1.79811295 23.40397511 3.56754242 0.00047223 0.00108643 0.00421314
O 4.46019493 20.50562281 9.38679318 0.00177213 0.00046432 -0.00436192
O 3.31249850 25.60786808 8.62519083 -0.00106206 -0.00513731 0.00398105
O 1.23415125 24.38311529 9.74769980 -0.00333244 0.00112276 0.00934735
O -0.25966384 0.30316284 8.51507746 0.00298661 -0.00096035 -0.00633681
O 3.98827051 24.16469814 2.40736158 -0.00008404 -0.00447897 0.00251086
O 5.50374738 19.38239194 3.58017645 -0.00100257 0.00352788 -0.00418307
O -0.86923251 28.03005826 14.35181946 -0.00717101 0.00876684 -0.00320124
O 0.48079319 23.09347724 15.23273841 -0.00071275 0.00005091 0.00096627
O 3.09262688 20.26181909 21.51719907 0.00321003 -0.00271007 0.00732339
O 1.82836542 24.99099776 19.61841560 0.00367548 -0.00681678 0.00475457
O -0.34992258 24.54955857 21.12955340 0.00285717 -0.00419254 -0.00293564
O -1.85520201 0.33328025 19.96018106 -0.00287918 0.00314622 -0.00326642
O 2.41555955 24.33396580 14.14378779 0.00061752 0.01160078 -0.00422288
O 3.85996806 19.34060183 15.56305036 0.00202460 -0.00391236 0.00116543
O -2.41392806 28.05203264 25.80835259 -0.00291586 -0.00365967 -0.00096405
O -1.32733781 23.33625922 27.20033533 0.00532590 0.00550746 0.00567408
O 1.20423186 20.67809297 32.98930653 -0.00212833 -0.00330129 -0.00430834
O 0.21496151 25.76427844 32.03845611 0.00118025 0.00444199 -0.00045231
O -1.78795195 24.37476739 33.21286895 0.00535907 0.00006047 0.00121066
O -3.37400346 0.04103478 32.04016956 0.00299432 -0.00205107 0.00216004
O 0.75019433 24.32491819 25.86748984 -0.00036587 -0.00041694 0.00325679
O 2.34706473 19.19749780 27.01801562 -0.00355206 -0.00035152 0.00459793
O 7.50196145 8.50417433 2.59340032 -0.00581837 0.00235334 -0.00494721
O 8.66001718 3.84890814 3.85005572 -0.00061820 -0.00136919 0.00073803
O 11.40004801 0.96943376 9.62172444 -0.00551994 -0.00261528 0.00080152
O 10.07439361 5.96502749 8.09439960 -0.00252340 -0.00183484 0.00070598
O 8.28547633 4.88695261 9.51964358 0.00352268 0.00542534 0.00516391
O 6.46612032 9.80833066 7.83391741 -0.00391920 0.00314933 0.00306050
O 10.72288478 4.71013516 2.17256635 -0.00352090 -0.00059385 0.00122902
O 12.13378686 28.75739497 3.67795994 -0.00132026 -0.00099601 0.00351885
O 6.12161836 8.63973173 14.18427479 -0.00203717 0.00136308 0.00718104
O 7.20730467 3.57618201 15.34726830 0.00404701 0.00476467 -0.00155789
O 9.90666247 0.94788449 21.53794525 0.00184171 -0.00235920 0.00073438
O 8.68056222 6.19066514 20.46667994 0.00142766 -0.00304708 -0.00399695
O 6.62616967 4.97625911 21.31436507 0.00124175 -0.00219398 0.00005420
O 4.70708709 9.71299738 19.76879705 -0.00206983 -0.00767996 0.00530026
O 9.42029155 4.68980756 14.50134464 0.00334203 0.00393326 -0.00170928
O 10.87001766 28.81633830 15.51169937 0.00530078 0.00152590 -0.00357667
O 4.27918064 8.49039488 26.11750435 -0.00327756 0.00003279 0.00209708
O 5.70713890 3.58854828 27.12466836 -0.00105610 0.00434857 -0.00225272
O 8.35697843 1.31352666 32.94621342 -0.00084475 0.00154311 0.00418361
O 7.00363523 5.99257900 32.19970046 0.00534792 -0.00141621 0.00156393
O 4.99059105 4.68454256 33.35159970 -0.00377503 0.00219083 -0.00021483
O 3.54140469 9.69064212 31.90916668 0.00226943 -0.00525121 -0.00147985
O 7.68149896 4.56778932 25.99767592 0.01199638 0.00258901 0.00050256
O 9.11923593 0.03171695 27.39110806 0.00012893 -0.00305735 -0.00149246
O 7.64492939 18.15351669 2.57041288 0.00288139 0.00396642 -0.00314624
O 8.75912936 13.73608180 3.48210444 0.01114967 -0.00241843 0.00297246
O 11.41116304 10.77229867 9.27700182 -0.00193809 -0.00558619 0.00145186
O 10.29100390 15.52521815 8.18307855 -0.00072436 0.00347183 -0.00475525
O 8.36811459 14.70875274 9.80515034 -0.00358496 0.00816055 0.00121814
O 6.51172038 19.58654101 8.21404306 0.00265606 0.00613096 0.00357378
O 10.83704879 14.53985200 2.25870104 -0.00407697 -0.00368889 0.00462976
O 12.29497785 9.64703717 3.73420405 -0.00027272 -0.00261348 -0.00131750
O 5.87474321 18.21233079 14.56570175 -0.01069113 0.00261971 -0.00417131
O 7.13252937 13.32028694 15.20477257 0.00231505 -0.00089902 -0.00043967
O 9.73761084 11.12333896 21.05739462 -0.00048181 0.00034763 0.00123616
O 8.84047012 15.29348470 20.10285907 -0.00098171 0.00842887 -0.00267795
O 6.49740146 14.67962498 21.08954805 -0.00096665 0.00247508 0.00051460
O 5.09912708 19.43362763 20.08793643 -0.00483165 0.00074588 -0.00034301
O 9.07084652 14.27589345 13.98547471 0.00614484 0.00586218 -0.00136204
O 10.84519519 9.68628530 15.42601328 0.00136886 -0.00072418 -0.00356192
O 4.33244878 18.16130750 25.81430935 -0.00233065 -0.00018992 0.00230630
O 5.44394839 13.62249373 27.30687014 0.00102478 0.00053834 0.00296721
O 8.40129351 10.79749215 33.04020630 0.00232100 0.00300323 0.00524741
O 7.06262854 15.73486013 32.16097580 -0.00118111 -0.00767828 0.00076241
O 4.93098096 14.67323226 33.15150752 -0.00301919 -0.00096948 -0.00473818
O 3.24718441 19.34947721 31.94032020 -0.00071413 -0.00011483 -0.00413111
O 7.64496845 14.48521467 25.88439076 -0.00679333 -0.00315132 -0.00512121
O 9.04891293 9.64876364 27.28809877 0.00151307 0.00462550 0.00369233
O 7.42857289 28.34958939 2.32145872 -0.00046507 0.00019832 0.00026017
O 8.90185112 23.07468132 3.47419413 0.00413150 -0.00176487 -0.00071691
O 11.45304788 20.36956272 9.80817555 0.00427688 -0.00212580 -0.00326466
O 10.13434421 25.27806532 8.27478056 -0.00286171 -0.00434258 -0.00055056
O 8.16325464 24.06584654 9.53349344 0.00180210 0.00391119 -0.00461587
O 6.57065833 0.06619561 8.55709241 -0.00160883 -0.00388780 0.00322893
O 10.76029397 24.43681388 2.08254880 -0.00668774 0.00036771 0.00088435
O 12.12727233 18.95620961 3.43933452 -0.00266669 0.00561892 -0.00086837
O 6.01108393 27.83311034 14.38912980 0.00252256 -0.00444763 -0.00205988
O 7.24806761 23.15829769 15.36400319 -0.00062104 0.00265174 -0.00076257
O 9.63767856 20.10595850 21.67025808 -0.00344818 0.00239681 0.00144587
O 8.59718567 25.47624864 20.46678742 -0.00232296 0.00477771 0.00136299
O 6.60639874 24.17045911 21.36116948 -0.00084441 0.00993301 0.00055100
O 4.98603594 28.88178674 19.75190093 0.00768734 0.00418294 0.00329325
O 9.29908830 24.40938143 14.25865650 -0.00373847 -0.00042812 -0.00155040
O 10.83772144 19.34514363 15.47713646 0.00222511 -0.00589715 -0.00343048
O 4.45693064 27.89634193 26.14915817 -0.00382827 0.00148172 0.00220270
O 5.57936618 22.89682766 27.12779182 -0.00139359 0.00520798 0.00298140
O 8.05506245 20.70760636 32.98563222 -0.00235579 0.00152536 0.00141070
O 6.80746002 25.45790043 32.07767776 0.00147286 0.00057984 -0.00076502
O 4.85586740 24.21839057 33.14931957 -0.00293512 0.00210747 0.00301660
O 3.45410342 0.15993640 32.05499323 0.00210992 0.00316312 0.00078672
O 7.70594462 24.25741151 26.17843424 0.00553500 -0.00118377 -0.00290907
O 9.12943730 19.31717494 27.25652742 0.00522270 0.00373451 0.00350632
O 14.30500824 8.47651413 2.66733411 0.00740593 0.00105825 0.00616078
O 15.73093627 3.43972675 3.43431238 -0.00425966 0.00220621 0.00439669
O 17.99061594 0.86175130 9.59005894 -0.00223134 -0.00347460 0.00176220
O 16.79845592 6.25733770 8.59491123 -0.00144210 -0.00625985 0.00537731
O 14.75230555 4.95112362 9.36105286 0.00517141 -0.00165420 -0.00391738
O 13.26737742 9.83091300 7.90154167 0.00332722 -0.00391978 -0.00365787
O 17.71587756 4.92529928 2.28138799 -0.00773547 0.00332666 0.00263777
O 19.18201312 29.06501952 3.72309330 0.00508021 -0.00585884 -0.00345641
O 12.83331713 8.86563357 13.96390574 -0.00544556 -0.00033792 0.00307859
O 13.94944170 3.91710746 15.34532161 0.00134458 -0.00311541 0.00107289
O 16.84780313 1.14415137 21.34947089 -0.00020246 -0.00048036 0.00309825
O 15.63610190 5.89253808 19.95432325 -0.00090676 0.00018100 -0.00304103
O 13.36006960 5.21180753 21.31444195 0.00163967 0.00317095 -0.00185852
O 11.93861317 9.81704649 20.13913854 0.00084643 0.00216874 0.00443790
O 16.04933221 4.77341622 14.25025940 -0.00281432 0.00229617 0.00271602
O 17.74410130 29.10900649 15.64221980 -0.00381714 0.00146595 -0.00304946
O 11.10855723 8.46997485 26.19285036 -0.00268051 -0.00129117 -0.00590487
O 12.48872253 4.02521290 27.35973224 -0.00142358 -0.00417356 0.00074824
O 15.13310338 1.20391246 33.03697596 -0.00072280 -0.00104954 0.00144987
O 14.01603841 6.06491662 31.94371504 0.00319138 0.00048325 -0.00096891
O 12.07951809 4.81534094 33.32774629 0.00547163 0.00432841 -0.00051296
O 10.21937342 9.58243941 31.73092089 0.00111558 0.00181015 0.00262624
O 14.72620375 4.80841482 25.92254678 -0.00369998 -0.00093798 0.00688168
O 16.08950963 28.72401516 27.07762802 -0.00723209 0.00353856 0.00281833
O 14.28065564 18.24821121 2.57792331 0.00044110 -0.00596234 -0.00032082
O 15.66796972 13.53585797 3.41311926 0.00103323 0.00560605 -0.01275965
O 17.78738623 10.47076482 9.47930218 0.00072824 0.00086076 -0.00053242
O 17.14745098 15.57243154 8.25529091 0.00326827 0.00358396 -0.00340013
O 14.89283484 14.68266250 9.46151964 -0.00002114 -0.00072199 0.00428201
O 13.34998124 19.48701547 8.19465374 0.00195176 0.00054712 0.00207216
O 17.67722995 14.69733551 2.34279118 -0.01028557 0.00373766 -0.00625541
O 19.22430052 9.65790611 3.84200548 -0.00019527 0.00464746 -0.00205450
O 12.91487956 18.12601444 14.47011426 0.00005690 0.00265928 0.00631710
O 13.75829030 13.91470324 15.77915614 -0.00311264 -0.00593798 0.00696923
O 16.79835571 11.04529787 21.10941827 0.00224856 -0.00065258 -0.00379938
O 15.53470355 15.35919148 20.14244459 -0.00287837 0.00167135 -0.00053918
O 13.64903692 14.37306482 21.44211175 0.00180203 0.00217462 -0.00143805
O 11.84420800 19.24091831 20.16338122 -0.00320879 0.00065690 -0.00856591
O 15.93460952 14.07449863 14.21984198 0.00138773 0.00118109 0.00722195
O 17.62575007 9.59027744 15.20940621 -0.00245408 -0.00306183 -0.00387175
O 11.15805885 18.44983751 25.93224475 -0.00053127 -0.00623395 0.00059828
O 12.44376354 13.53748420 27.24926153 -0.00098899 -0.00409051 0.00003461
O 15.14092859 11.30653495 32.89596188 -0.00050019 0.00654227 -0.00508087
O 13.83360409 15.61048453 31.85293030 -0.00100357 0.00314983 -0.00341237
O 11.91133319 14.93986144 33.38012841 0.00370507 0.00066194 -0.00500552
O 10.08978270 19.41281726 31.96848026 0.00165471 -0.00126642 -0.00286846
O 14.37813419 14.37797079 25.96135516 -0.00239390 -0.00253009 -0.00335700
O 16.00140078 9.97395429 27.00851489 -0.00023007 -0.00246488 0.00467783
O 14.27489761 27.92658606 2.56734759 0.00415275 -0.00044834 -0.00106834
O 15.65060628 23.29179135 3.57721446 -0.00890893 -0.00214919 0.00139617
O 18.30020831 20.55762768 9.50183527 0.00309495 0.00391485 -0.00095921
O 17.09891782 25.39060337 8.50635167 0.00260712 -0.00268137 0.00070678
O 15.12285843 24.30547999 9.59403446 -0.00303338 -0.00160756 0.00311313
O 13.29345695 28.87758472 8.42476276 0.00024801 -0.00549005 -0.00163824
O 17.77511364 24.07329887 2.34840126 -0.00730423 -0.00099586 0.00679979
O 19.25733482 19.43426804 3.64970889 0.00084218 -0.00075023 0.00051947
O 12.99417027 28.18260007 14.04816257 -0.00912247 -0.00146415 0.00095873
O 14.00675384 23.23557900 15.63891010 0.00427146 0.00330560 -0.00114931
O 16.62946866 20.46244264 21.33030277 0.00454308 0.00139863 0.00162052
O 15.38285721 25.20836723 19.76596236 0.00136742 0.00739264 -0.00067563
O 13.42147269 24.72298144 21.29151714 -0.00359418 0.00012799 -0.00150329
O 11.97521625 0.26347599 20.04452454 -0.00215203 0.00058703 -0.00511155
O 16.04271618 24.08042937 14.23970106 0.00085677 -0.00533238 -0.00213557
O 17.50733714 19.39234828 15.48787250 0.00222011 -0.00208471 -0.00530365
O 11.29339324 28.10164917 26.09459542 -0.00417724 0.00326805 0.00903882
O 12.32329849 23.27922925 27.27512676 -0.00140090 0.00090214 -0.00092848
O 14.78242833 20.49520876 33.09628830 -0.00120133 0.00117276 -0.00235325
O 14.19045974 25.16773731 32.07997928 0.00333966 0.00838432 -0.00335438
O 11.93469380 24.38652138 33.24992636 0.00395707 -0.00300733 -0.00619842
O 10.27801910 0.02393746 32.01437647 0.00113393 -0.00414730 -0.00149546
O 14.39521238 23.98903412 26.01164248 -0.00478682 -0.00236425 0.00363994
O 15.95434628 19.21647722 27.27527530 -0.00012545 -0.00000788 -0.00392891
H -0.28505034 9.13144429 2.88721637 0.01897827 0.00380933 -0.02599474
H 2.73995738 4.19325710 3.47925341 -0.00539125 0.00302950 -0.00271251
H 5.21249407 0.59906698 9.44074265 -0.00564191 0.00381758 -0.02110550
H 2.58560670 5.58841988 8.59167901 0.03080012 0.00536302 0.00148964
H 5.61180808 8.25243569 0.76216293 0.00856819 0.00924679 -0.00961977
H 3.94167874 3.30360322 5.16060816 0.00470477 -0.00938608 0.01024012
H -0.34125430 1.48839528 11.07899029 0.01849859 0.00379373 -0.04291512
H 1.39276022 6.41826086 6.79612939 -0.02411611 0.00250290 -0.01332364
H 4.13046438 6.70001241 10.58297637 0.02768192 -0.01158859 0.00733153
H 3.85416373 1.97196929 7.37250223 0.00642773 0.03269830 0.01699833
H 1.40553555 3.17998429 0.91820105 -0.00054672 0.00669079 0.00712627
H 1.26773135 7.99352015 4.84424466 -0.01032376 0.00946025 0.00893964
H 2.64187952 5.38411458 0.13033554 0.00001053 -0.02094513 0.00329019
H -0.28444913 0.84218978 6.26198252 0.02347101 -0.00022604 0.02216814
H 2.84188116 4.67625909 11.90419577 0.03516524 -0.01252671 0.00678912
H 5.24675759 9.22654509 5.68192953 -0.01082956 -0.01099126 -0.01635531
H 2.66438352 7.04165908 1.91668176 0.00099992 0.00462789 -0.01225432
H -0.10692005 2.21629581 4.32097982 -0.01943896 0.00201038 -0.00093623
H 2.54771599 2.82219300 10.20522050 -0.00115292 -0.00742093 -0.00622485
H 5.45222119 7.59483532 7.67109276 0.00001093 0.00574493 -0.01578214
H 5.14191503 5.02947775 9.40848448 -0.01268845 -0.01628689 -0.01504413
H 2.81012662 29.08282292 8.17441957 0.03793062 -0.00071285 -0.01227497
H 0.31963525 4.66879307 2.26319521 0.03143683 -0.02726187 0.01625789
H 2.30078049 9.78862797 3.65723923 0.00748207 0.00501613 0.00295577
H 7.59276248 3.76283830 7.34903231 0.01811866 -0.00956433 -0.00021654
H 0.87188468 9.41621466 10.57149164 -0.00712501 0.01165670 -0.00991346
H -0.38819990 5.40622042 4.27097178 -0.00739236 0.00570396 -0.00817255
H 3.36118396 0.78489033 1.53293269 0.00437709 -0.00737918 -0.02845121
H 0.56477818 2.52434889 8.65628599 -0.01170294 0.01132672 0.00426480
H 2.40046960 8.70819935 9.89560960 -0.01333571 -0.01491445 -0.01831304
H 5.79019031 5.47135561 4.67257830 -0.01253066 -0.01213405 0.02852123
H 3.52790728 2.17374051 2.64274500 -0.00731127 0.00909773 0.00438387
H 0.46969886 3.74154164 7.32199987 0.00177363 0.01048085 0.00968224
H 0.80529228 7.96196996 9.64072830 -0.01811518 0.01346337 0.01573407
H 6.24640133 6.78847284 3.65613860 0.02872394 0.03266686 0.01325692
H 5.01017524 1.56496932 1.91130037 -0.00745616 0.00112886 -0.00920585
H -1.59902735 9.24219917 14.18807308 -0.00726634 -0.00840225 0.03887770
H 1.34976350 4.29495570 15.11023612 0.01358567 -0.02207108 0.01824198
H 3.72860784 0.17746547 21.05009527 0.00366382 -0.00399157 -0.00600632
H 0.72023195 5.47498381 20.04168538 0.00007221 0.00187454 0.01649109
H 4.11934429 8.26840712 12.46015900 -0.00092500 0.00474945 0.00708241
H 2.52364373 3.22292107 16.75166822 0.00048392 0.02136635 0.01746146
H -1.71000141 1.61368929 22.86532224 0.03325473 0.01277266 0.00481652
H -0.27508500 6.18574234 18.10295166 -0.01200295 -0.02093407 -0.00111430
H 2.43494958 6.44074228 22.66208487 0.00226110 0.00612456 -0.02277509
H 2.32759247 1.93425399 18.77919793 -0.02062745 -0.01571712 -0.01000956
H -0.30718910 3.13770900 12.99302634 -0.00577952 -0.00002081 -0.01492282
H -0.17153675 7.97264684 16.28690527 -0.02784597 0.01083387 -0.01268141
H 1.12487575 5.31736270 11.71811353 -0.00373271 -0.01508906 -0.01625389
H -1.78601297 0.91187759 17.67886115 -0.01670955 -0.00833429 0.00860369
H 1.03844611 3.87275400 23.88181381 -0.00009141 -0.00221026 -0.02342372
H 3.74938812 9.08279904 17.51576309 0.02558355 0.00297609 0.01386618
H 1.26357042 6.97853869 13.42150836 0.02900010 -0.03008005 0.00922090
H -1.79000389 2.63799604 16.06857983 0.02505521 0.02317570 -0.00545504
H 1.05180661 2.26109224 21.98370844 -0.02638558 -0.02320666 0.02766667
H 3.72640023 7.14223755 19.19561433 0.01493002 -0.00798184 0.01832129
H 3.55214631 4.76785712 21.51639345 0.03418884 -0.00158403 0.00506152
H 1.24242689 29.04728379 19.63010342 -0.01237332 -0.00071976 0.01125288
H -1.27347626 4.75865235 14.10798130 -0.01422077 0.02319144 0.02339826
H 0.79157631 9.66127606 15.30907411 -0.01051078 -0.00190713 -0.00751347
H 4.95751471 2.57672689 20.15493411 -0.01407074 0.00404772 0.01260369
H -0.33855340 9.18243276 22.23956194 -0.01779317 0.01085297 -0.01292658
H 17.10745208 7.06817279 15.21189621 -0.01324895 -0.00289564 0.00016147
H 1.90074870 0.69072990 13.15242670 0.00606734 -0.00897846 -0.02297550
H -2.46057776 3.96968855 19.24476944 0.00683120 -0.00441965 0.02771274
H 1.13459401 8.79508002 21.25789662 0.00992767 -0.02152510 -0.00464251
H 4.75279899 6.88201222 15.41203049 -0.00518054 -0.00496061 -0.00904702
H 2.02765444 2.13124080 14.04640567 0.00557162 0.00343947 -0.01613837
H -1.79724641 2.82420793 20.48822185 0.00583912 -0.00938149 -0.01190891
H -0.15180196 7.65854838 21.35049284 0.02463006 -0.04176603 -0.03385319
H 3.32719544 6.21075653 16.22805166 0.00488771 -0.00736552 0.00285176
H 3.41136642 1.52506766 13.33013169 0.00894393 -0.02076281 -0.00707510
H -3.10338558 9.26586857 26.20437568 0.00738734 -0.02352129 0.00348137
H -0.18528305 4.06097384 26.93451781 -0.00718656 0.02672926 0.00110259
H 2.29250922 0.84784977 33.01779421 0.00344293 -0.03186224 0.01534050
H -0.81094822 5.62178923 32.43183818 -0.02358564 -0.04007741 0.01514198
H 2.32202106 8.07220748 24.51549236 0.00076712 0.01091732 -0.00128693
H 0.86580799 3.39059929 29.15725839 0.00996455 0.02577845 0.01305233
H -3.48019972 1.40727891 34.72103486 0.03200527 -0.01447338 0.00153169
H -2.03542574 6.59374135 30.36850507 -0.00312206 0.02908956 0.00625833
H 0.93458219 6.52982770 34.62333432 0.00821713 0.00008864 -0.00956055
H 0.84640176 1.65356173 30.91099943 -0.02954055 -0.00602600 -0.00629621
H -1.78429059 3.06136782 25.01237785 -0.00119087 0.01730891 -0.00906961
H -1.86169022 7.77322376 28.41068577 0.01056918 -0.00940809 -0.00686406
H -0.38288318 5.74940158 23.29529035 0.00955317 0.03304346 0.00647998
H -3.20799520 0.62070962 29.87240189 0.00513279 0.02247043 0.00170609
H 4.22600551 4.50793086 0.25360716 -0.00157813 0.01248804 0.01730034
H 2.11225690 9.29021869 29.56410496 0.02158449 0.00194222 -0.00649923
H -0.27497738 7.28254253 25.25217297 0.00942900 -0.03883162 0.02919796
H -3.07790858 2.28751340 27.95962083 0.01093329 0.01890472 -0.00108709
H -0.60691886 2.89818833 33.89376071 0.00029227 0.01053137 -0.00074507
H 2.17759310 7.45240537 31.20006826 0.01281989 0.01043529 -0.01576989
H 1.88944152 4.79200708 33.50927549 -0.00672585 -0.03159383 0.00728088
H -0.31248557 0.15599682 31.97911903 0.02265643 0.01179398 -0.00239263
H -2.59900891 5.08970651 25.87604347 -0.01396746 -0.00868760 -0.00058747
H -0.85741329 9.51241901 27.14717364 -0.00520283 -0.00467521 -0.01930155
H 3.46453090 2.61305108 32.22746793 0.00273615 -0.01189143 0.01039887
H -0.87086715 8.94447715 33.86428493 0.00241350 -0.00149496 -0.00100082
H 16.04069465 7.42860164 26.92827011 -0.02095061 0.00885449 -0.00361930
H 0.29290552 0.52418706 24.82932219 -0.03781490 0.00419747 -0.02546142
H -3.39095420 4.73845035 30.96495653 0.01311931 0.00692442 0.00023652
H -1.71242595 7.69077737 32.93364690 0.00615745 0.01014542 -0.00240876
H 1.16810091 5.80634509 27.79757213 0.01522798 -0.00291714 -0.02844256
H 0.66939731 2.14150055 25.71909959 0.00328804 -0.00790493 -0.00734771
H 15.94852444 3.70560892 31.88320602 0.00313127 0.01586908 0.01568117
H -2.73608164 8.72758209 34.01453398 -0.00005083 -0.00071166 0.00228359
H 2.84873667 5.32612085 28.04832380 0.00016429 0.00490854 -0.00757882
H 1.96457966 1.20058155 25.01583431 0.02648744 -0.00333625 0.01307555
H -0.19119894 18.67923989 2.60783265 0.01181141 0.01555863 0.00882177
H 2.69538306 14.17771114 3.18310909 0.01407691 -0.01254805 0.00454369
H 5.32205823 10.35921111 8.88275993 0.00552677 0.00134679 0.02550929
H 2.54219900 15.29807655 8.76983428 0.00525213 -0.00180695 0.02937919
H 5.58997367 17.82881976 0.79007137 -0.01655889 -0.01067374 -0.00002424
H 3.93527241 13.31306214 5.20249293 0.00216350 0.02514954 -0.00186562
H -0.55349590 11.01473864 11.06876445 0.00539675 0.01360648 -0.00396118
H 1.50966605 16.26020447 6.87005130 -0.01463090 -0.00995129 -0.02130540
H 4.19742859 16.44431613 10.73017348 0.02797157 0.01437443 0.01448825
H 4.01523443 11.61182188 7.00164590 -0.02263116 0.03798685 -0.00567176
H 1.16519953 12.85257281 1.24510158 0.01069365 0.00444457 0.01003621
H 1.51418904 17.77986623 4.81269926 0.01064042 0.01238508 0.00224651
H 2.90838099 15.30364865 0.00356481 0.02179905 0.00211117 0.00349532
H -0.07632112 10.61108463 6.10293230 0.01229661 -0.00528544 0.00592260
H 2.26003824 13.66522538 11.94350571 -0.00891975 0.00192692 -0.00391522
H 5.39320326 19.10581106 5.89631488 0.01662748 0.01512108 0.01395655
H 2.72073599 16.70178648 1.98100517 0.02559672 -0.00842801 -0.00938876
H -0.09874074 12.36296690 4.40427125 -0.00942587 0.00248927 0.00016979
H 2.27360766 12.11736499 9.91870989 0.00227052 0.01997736 0.02090734
H 5.34070635 17.56453928 7.88926646 0.00509506 0.01138024 -0.00992281
H 5.13441643 14.40995643 9.89633712 -0.02371831 0.00276382 -0.01455341
H 2.97555573 9.73392428 8.04515789 -0.03015744 0.02090585 -0.00180740
H 0.39939440 14.56442827 2.37374278 0.04610215 0.00780368 0.02493428
H 2.39240976 19.49005098 3.86579820 -0.07745659 -0.01284099 -0.02903972
H 5.98934059 14.03970882 7.66902052 0.03771038 0.01541792 -0.01318151
H 1.33127655 18.93091952 10.69580814 0.01403587 -0.00100846 -0.01245154
H 18.40002462 15.78437985 4.64634240 -0.02485036 -0.00542506 0.00666738
H 4.98954469 11.42179360 1.89706089 0.03429618 -0.01275317 0.00443811
H 0.77143057 13.70188641 7.43350661 0.00291923 0.00724672 0.00283019
H 2.39003976 18.20797691 9.57890214 -0.01172464 0.00321691 -0.02123556
H 5.08215219 15.60164684 4.54746388 -0.02215365 0.00786943 -0.01633794
H 3.71956592 10.34523804 1.23114213 0.00807230 -0.01062489 -0.01715219
H 19.42549712 13.81906191 7.58929648 -0.01462500 -0.00357159 -0.02494162
H 0.72426391 17.52431030 9.87549126 -0.03210412 0.02650425 -0.00012242
H 6.51282472 15.90243405 3.60244469 0.01088073 0.00584879 -0.01207324
H 3.23893270 11.59648393 2.47775117 0.00869178 0.00671101 -0.02876643
H -1.77869109 18.87324434 14.44481116 -0.01359795 0.01643648 -0.02098319
H 1.15930787 13.69637882 14.73055720 -0.00663994 0.00982697 -0.00213739
H 3.55941310 10.44838876 20.79813935 -0.03630448 0.03355769 0.00590078
H 0.94969935 15.27972307 20.51704664 0.00736684 0.01904928 -0.02324518
H 4.10675304 18.03488253 12.58900346 0.00944423 -0.03203102 -0.02044781
H 2.09205309 13.32295859 16.78142259 -0.00003438 0.00082215 0.01192333
H -1.85081190 11.24662935 22.88780729 -0.01082173 -0.00982465 -0.01419414
H -0.05479071 15.57665069 18.44693022 -0.00707580 0.01779841 0.01177724
H 2.22678994 16.10319244 22.41767265 -0.01165969 -0.01020340 0.01130939
H 2.12986672 11.71060534 18.79002932 -0.01251323 0.01899118 0.00757092
H -0.55357286 12.61281504 12.87582466 -0.03041313 -0.00121372 0.00037663
H -0.12290889 17.24021044 16.44950468 -0.03603967 -0.01054883 -0.02038247
H 1.03501841 15.24653712 11.67297416 -0.01780140 0.00694527 -0.00262809
H -1.61823289 10.38161122 17.94738565 0.01094937 0.01992213 -0.03355942
H 0.80692625 13.77866664 23.79707441 0.02358355 -0.00910932 -0.00214329
H 3.50834191 19.15605563 17.85058605 -0.00778684 -0.01837816 -0.01315954
H 0.95404785 16.88362001 13.51656099 -0.00999608 -0.02693312 -0.00899808
H -1.66188864 11.61705546 15.72003242 -0.00440130 -0.00198961 -0.01251629
H 0.88629331 12.33984565 21.89331033 -0.00631925 0.00041316 0.03167978
H 3.71861403 17.30865637 19.52371541 0.00436781 0.02190742 -0.01805247
H 3.52401534 14.34286327 21.20456426 0.01765466 0.00387287 -0.00065064
H 1.31818859 9.63683711 19.55375158 -0.00289207 -0.02853971 0.02717988
H -1.43861076 14.46697856 13.70157894 -0.00788564 -0.00851268 0.00211966
H 0.54558914 19.33506219 15.86577447 0.07187198 0.00354732 -0.01567340
H 5.66503179 13.24447130 19.01599192 -0.00085792 -0.01504026 0.00143922
H 0.48008708 18.48698597 21.73870037 0.02329373 0.00698609 0.00878180
H 16.73611097 15.26912148 16.19979818 -0.01202808 -0.01058532 -0.00384804
H 3.05594005 10.69881812 13.02716992 0.02318802 0.00627164 0.00060574
H -2.57541150 13.00136882 19.85492784 -0.01937372 0.00815806 -0.00372034
H -0.37633013 17.08002710 21.32910979 0.02816323 0.02219605 -0.00873144
H 3.69000249 16.78356133 14.71988891 -0.01810162 -0.00479344 -0.00717377
H 1.34172327 10.91928686 13.75742462 -0.04356054 -0.02014997 0.01126553
H -1.00215827 12.15708327 20.48572361 -0.00694570 -0.01154519 0.00875022
H -1.25502870 18.36398730 22.15171162 -0.01368455 -0.00765092 0.01297586
H 3.34500462 15.67658106 16.10383593 -0.02038111 -0.02480961 0.03318789
H 2.74071159 11.89939356 14.26810876 0.00346545 -0.01558038 -0.02490898
H -3.46965658 18.40677980 26.51814717 -0.00394048 -0.00302392 -0.00847615
H -0.60602106 13.79773552 26.71896991 -0.02381384 -0.01467409 0.04668955
H 2.34221978 10.26798526 32.80167604 0.01601817 0.01620206 -0.00284986
H -0.72579486 15.34074837 32.35005386 0.00893277 0.02245708 0.01567733
H 2.18130160 17.45389169 24.40030299 0.02878477 -0.00858444 -0.00870339
H 0.86850584 13.02515416 28.60387815 -0.00179211 0.01621896 0.00931242
H -3.63005265 11.17253600 34.83406211 -0.04552932 0.02367072 0.03232450
H -1.63933066 15.87720315 30.17503790 0.00423500 -0.00221909 0.01868503
H 0.90094100 16.35032834 34.46184357 -0.02620997 -0.00513067 -0.00452643
H 0.79568373 11.78525018 30.66088752 -0.02126030 0.01078389 -0.01318703
H -1.81072783 12.84238683 24.77379975 -0.01164952 -0.01188791 -0.01332424
H -1.60357266 17.41297836 28.10679631 -0.01072131 0.00755738 -0.00338889
H -0.50925687 15.08296676 23.57061150 -0.01220167 0.00218919 0.01951981
H -3.14796018 10.26969737 29.77468456 -0.02418452 -0.00077016 0.01737252
H -0.65178511 13.93157274 35.45499536 -0.02540109 -0.00428611 0.01324908
H 2.31162273 18.64443813 29.24250567 0.02409168 0.00276444 -0.00612644
H -0.39215249 16.74227766 25.34457302 0.00774433 -0.00247792 -0.00196236
H -3.38383684 11.85438890 27.99948370 -0.00331320 -0.00360746 -0.02412057
H -0.73866485 12.13836649 33.88942008 -0.00804645 -0.00443503 0.02633321