2160
Time=49000.00000003 pbc="T T T" Lattice="20.60360655 0.00000000 0.00000000 0.00000000 29.04631100 0.00000000 -4.71862037 0.00000000 35.40317178" energy=-13795.18626660 virial="-86.80495428 11.49979838 63.70566845 11.49979838 -37.51935789 -16.59976523 63.70566845 -16.59976523 -68.65727372" stress="-0.00160927 0.00053341 0.00302542 0.00053341 0.00068116 -0.00078328 0.00302542 -0.00078328 -0.00077866" Properties=species:S:1:pos:R:3:vel:R:3
O 0.69073061 8.73764626 2.37378663 -0.00013796 0.00641083 0.00174221
O 1.80205528 3.61941506 3.34474996 -0.00274468 -0.00358526 0.00003362
O 4.56880114 0.75255189 9.69113932 0.00364561 -0.00183655 -0.00069345
O 3.56034322 5.53202357 8.18506444 0.00294909 0.01057516 -0.00533670
O 1.57060922 4.82101306 9.80840150 -0.00500323 0.00300972 -0.00258939
O -0.13337357 9.75584806 8.58665476 -0.00574980 0.00327066 -0.00100044
O 3.96173323 4.97624513 2.30062548 0.00184429 -0.00393244 -0.00118607
O 5.62384091 29.00132188 3.73947322 0.00218252 0.00382193 0.00529467
O -0.83721097 8.64475386 14.24285101 0.00024617 0.00114466 -0.00082561
O -0.18341899 4.03113186 15.76860991 0.00496008 -0.00229634 -0.00534271
O 2.89908725 1.00215881 21.22140867 0.00351763 0.00404340 0.00278767
O 1.57465908 5.83273866 19.60360582 -0.00593151 -0.00385909 -0.00311008
O -0.28861747 5.06330256 21.25742849 -0.00354746 -0.00505752 0.00114655
O -1.80163749 9.96960273 20.05577502 0.00476493 0.00606215 0.00631369
O 2.31598800 4.42996399 14.30511633 0.00018897 0.00080757 0.00343420
O 3.96782387 28.84036519 15.32934283 -0.00057392 -0.00295860 -0.00795387
O -2.11650139 8.73232989 26.04415488 -0.00356398 -0.00314450 0.00376022
O -0.94731882 3.84843407 27.26729940 -0.00401885 0.00247760 0.00112013
O 1.07643558 0.80964800 33.41001743 -0.00246080 -0.00097136 -0.00127286
O 0.39951365 5.73168842 31.83043213 0.00611031 0.00337976 0.00166765
O -1.77444242 4.96112995 32.99179270 -0.00132591 -0.00256956 0.00015616
O -3.66213695 9.57312116 31.45164880 -0.00192023 0.00351184 0.00304722
O 0.75246885 4.93468178 25.54717772 0.00213505 0.00084464 0.00593545
O 2.53626646 28.64207059 27.17355222 0.00394493 0.00539717 -0.00351245
O 0.69762855 18.78629869 1.86458658 -0.00438909 0.00856243 -0.00245792
O 1.72058500 13.48583310 3.65147773 -0.00050329 -0.00011967 -0.00246011
O 4.68451282 11.17845355 9.29772098 0.00068562 -0.00313203 -0.00022185
O 3.25682645 15.48114342 8.08758867 0.00467140 -0.00212630 0.00266927
O 1.19774255 14.61761582 9.58692345 -0.01022301 -0.00326272 0.00025302
O -0.03154273 20.05002822 8.36707832 0.00036187 0.00095855 0.00310313
O 3.74405641 14.24829964 2.15629881 0.00496758 -0.00012209 0.00703079
O 5.62232588 9.60804927 3.98914021 -0.00390275 0.00318890 -0.00201625
O -0.71985474 18.54979571 14.09359415 -0.00103667 0.00065540 0.00480379
O 0.18225771 13.64927463 15.34005369 0.00288196 -0.00616280 0.00450921
O 2.77729151 10.41153255 21.34810092 -0.00113174 0.00386732 0.00599717
O 1.71754335 15.44241364 19.67618308 -0.00117066 -0.00106428 -0.00273946
O -0.26874417 14.82675024 21.12501929 0.00440204 -0.00099398 -0.00019948
O -1.57099087 19.76116862 20.57339493 0.00131844 0.00076829 -0.00216695
O 2.33493779 14.58015923 14.17219953 -0.00326057 -0.01045884 0.00050413
O 4.15158767 9.58229635 15.20574307 0.00511914 -0.00413875 0.00553534
O -2.30223768 18.15783211 26.06283330 -0.00034443 0.00067377 -0.00099003
O -1.31538658 13.35873868 26.94914729 -0.00252441 0.00170603 -0.00734686
O 1.26654737 10.64440054 32.81497146 -0.00622547 0.01011319 0.00456775
O 0.34112705 15.34599237 31.90746878 -0.00009081 -0.00089646 -0.00355709
O -1.81867695 14.54722343 33.14854361 -0.00361551 -0.00425291 0.00515462
O -3.79142304 19.41740645 31.57798099 -0.00521118 -0.00226899 0.01056415
O 0.90978132 14.53205724 25.97000368 -0.00108134 -0.00268710 -0.00855823
O 2.65388814 9.81053752 27.37560350 -0.01295744 -0.00279167 -0.00663754
O 0.87413941 27.67359064 2.17753886 -0.00297285 0.00047573 0.00000257
O 1.93142872 23.08337367 3.41974986 -0.00299719 0.00156519 -0.00306816
O 4.81490448 20.89329288 8.89565837 -0.00821269 0.00410481 -0.00224707
O 3.42954078 25.31731437 8.44751526 0.00144795 -0.00316202 0.00255635
O 1.37537271 24.72287265 9.57379075 0.00252214 -0.00614270 0.00328509
O -0.22732472 28.96751845 8.24156144 -0.00109228 -0.00513596 -0.00786935
O 4.06832230 24.14690805 2.43317828 0.00548769 -0.00599082 0.00049614
O 5.60684645 19.29692702 3.43712950 0.00024688 0.00032758 -0.00206666
O -0.88847118 28.04660518 14.68252479 0.00330673 0.00103393 -0.00125274
O 0.31927618 23.36162803 15.70904822 -0.00492221 -0.00260082 0.00188925
O 3.06621731 20.41271907 21.14600115 0.00404291 0.00306560 -0.00126516
O 1.99068267 25.21123973 20.29207731 -0.00100309 0.00104871 0.00186798
O -0.04946532 24.52818994 21.53223156 -0.00119869 -0.00487727 0.00156276
O -1.94370680 28.94293230 20.19281315 0.00602469 -0.00403249 0.00209550
O 2.28218895 24.05491473 14.13351988 0.00383679 0.00054198 0.00074214
O 3.95045141 19.11053998 15.21728672 0.00704344 0.00003789 0.00550284
O -2.23888184 27.99265812 26.39873661 -0.00212289 -0.00135471 0.00661124
O -1.14910662 22.96964618 26.91640684 -0.00366719 -0.00758022 0.00564897
O 1.07654546 20.18937055 32.91541714 0.00342378 0.00627649 -0.00189044
O 0.43018332 25.00177199 31.70546751 0.00075034 0.00388399 -0.00095504
O -1.86982405 24.05213193 32.92960562 0.00212560 0.00049714 -0.00244309
O -3.51332721 0.04260275 31.67890835 -0.00332716 -0.00101585 -0.00523710
O 0.81709379 24.13335668 25.69043424 0.00143558 -0.00908009 -0.00618797
O 2.40600700 19.12097175 27.19765815 0.00344841 -0.00004099 -0.00474598
O 7.50884796 8.34512408 2.53837911 0.00366702 -0.00004762 0.00413627
O 8.88042486 3.81482147 3.71685831 -0.00794391 0.00455136 -0.00012024
O 11.45174877 0.43186145 9.79663223 0.00077285 0.00067572 -0.00570450
O 10.45874651 5.55462326 8.05606354 0.00207838 -0.00264303 -0.00468767
O 8.41974679 4.46464812 9.54961091 -0.00460045 -0.00163536 0.00207687
O 6.48270005 9.59011611 8.33221945 0.00353445 -0.00024968 -0.00833771
O 11.01813249 4.66164275 2.33590070 -0.00131626 -0.00262835 0.00003964
O 12.38781348 28.79934483 3.55106702 -0.00006978 -0.00205436 -0.00190941
O 6.09641134 8.59859283 13.79734740 0.00080556 -0.00534529 -0.00437815
O 7.02262909 3.64488937 15.66712576 -0.00281705 0.00081643 0.00030344
O 9.79066654 1.23360686 21.36623635 0.00113838 0.00148917 -0.00033197
O 8.59237253 6.13250436 20.04144012 0.00226480 -0.00089358 0.00042027
O 6.41928075 5.18986494 21.01789283 0.00336656 -0.00150471 0.00617064
O 5.10343489 10.05340434 19.99266516 0.00227840 0.00271403 0.00213272
O 9.35740345 4.11603311 14.20780049 -0.00289825 0.00672050 -0.00238036
O 10.62648810 28.96720145 15.42634966 0.00238453 0.00610464 0.00702310
O 4.46032563 8.49783030 26.08414506 -0.00487509 0.00208951 0.00759082
O 5.49906197 3.70179712 26.96789232 0.00296614 0.00008278 0.00556561
O 8.12718363 1.02208093 33.00626607 -0.00240964 0.00361571 0.00427930
O 7.24402189 5.74795206 32.12376614 0.00498708 -0.00256260 -0.00581498
O 5.19703461 4.57563070 33.48215712 -0.00312880 -0.00555055 0.00118057
O 3.38944659 9.55234801 32.18151672 -0.00237799 0.00086653 0.00338422
O 7.69688580 4.73205712 26.15111153 0.00378376 0.00771210 0.00116960
O 9.37050946 28.88811118 27.06013823 0.00039784 -0.00742305 -0.00019456
O 7.79049178 18.79041304 2.11153537 0.00080071 -0.00623649 -0.01082887
O 8.75313423 13.17942143 3.34358724 0.00208734 -0.00293823 0.00153837
O 11.44017329 10.98136167 8.98574272 0.00464171 0.00536621 0.00001239
O 10.13276922 15.60396855 8.27724045 -0.00543224 0.00376030 -0.00310183
O 8.31878558 14.54207152 9.46266076 0.00078227 0.00150266 -0.00562828
O 6.67287686 19.18405260 7.95689207 0.00521826 -0.00146990 0.00405979
O 10.92519178 14.27655528 2.38963614 -0.00447454 0.00267732 -0.00046360
O 12.28212905 9.63116597 3.60985524 0.00580037 0.00030625 0.00138125
O 6.11138809 18.96850841 13.63349784 -0.00139041 -0.00372874 0.00001110
O 7.26865206 13.79840303 15.44585737 0.00364590 0.00066204 0.00368330
O 10.00036301 11.16488498 20.87370060 0.00253861 -0.00607242 0.00391441
O 8.55885169 16.14959516 20.12382176 0.00414341 -0.00492740 0.00344379
O 6.70156433 14.59798688 21.00002916 0.00164881 -0.00241327 0.00192143
O 5.08257408 19.39528262 19.86974948 -0.00324760 -0.00327972 0.00100680
O 9.01862362 14.48333834 13.70368575 -0.00260733 -0.00640331 0.00264765
O 10.66794034 9.80552621 15.26452003 0.00263290 0.00151945 -0.00797458
O 4.51827201 18.35284840 25.68722154 -0.00481411 0.00154815 0.01101157
O 5.48506747 13.58878453 27.46335774 0.00144789 0.00008047 -0.00650777
O 8.50313750 11.05833637 32.74658576 -0.00143400 0.00425649 0.00326912
O 7.26423074 15.35031899 31.80898034 0.00436976 -0.00508070 -0.00393083
O 5.22558782 14.45491184 33.27925818 0.00743837 0.00097551 -0.00326017
O 3.42975409 19.47034201 31.92597136 0.00364568 -0.00491876 -0.00004797
O 7.55102504 14.34013736 25.78266604 0.00362044 0.00298757 0.01075352
O 9.18572791 9.63050950 27.35785378 -0.00419018 -0.00189527 0.00245222
O 7.61378177 27.80057005 2.35640393 -0.00496399 0.00184674 -0.00306849
O 8.67827397 22.69010482 3.20010189 0.00447973 0.00053757 -0.00406579
O 11.69279658 20.50066000 9.44185346 -0.00438044 -0.00166542 -0.00029113
O 10.41541509 24.76994121 7.98756224 -0.00427755 0.00536066 0.00112921
O 8.45069088 24.34750943 9.57759746 -0.00649430 0.00250261 0.00164564
O 6.61391380 0.26559116 8.24049004 -0.00155612 0.00393362 0.00019449
O 10.87565672 23.84545557 2.56659699 0.00137460 0.00300981 -0.00058204
O 12.49656947 19.43686994 3.53347914 -0.00253935 0.00618505 -0.00067078
O 5.95015826 27.47058599 14.65548992 -0.00065652 0.00079185 -0.00201726
O 7.12546975 23.15829788 15.32328603 -0.00156452 0.00808532 0.00102606
O 9.77854664 20.79993665 21.27339246 -0.00441785 -0.00512442 0.00256178
O 8.71985246 25.35910546 20.63369122 -0.00068909 0.00008041 0.00046712
O 6.65485661 24.15884006 21.44173780 0.00493067 0.00006292 0.00255925
O 4.89602876 28.80354517 20.19423507 -0.00577170 0.00093847 -0.00073172
O 9.25527578 24.05780190 14.00657047 0.00073006 0.00387018 0.00064203
O 10.86695827 19.80890865 15.42131010 0.00653239 0.00023512 -0.00115521
O 4.65943116 28.12499210 25.83842893 -0.00579785 -0.00189927 -0.00630911
O 5.68792038 23.04362377 27.51001276 0.00453100 -0.00150122 0.00106877
O 8.25315522 20.09856918 33.30861435 0.00363329 0.00065860 -0.00475402
O 7.32849636 25.21509009 31.84077090 -0.00102840 -0.00107349 0.00258633
O 5.07773678 24.25099350 33.03718814 0.00155016 -0.00426809 -0.00493668
O 3.32799150 0.22456537 31.87506923 -0.00038362 -0.00009651 0.00471197
O 7.75152109 23.78677734 26.28882560 -0.00399948 -0.00182157 0.00450041
O 9.35708571 19.38778928 27.39629505 -0.00339270 0.00075911 -0.00197714
O 14.33799778 8.44918768 2.56172779 -0.00075418 0.00192718 0.00188972
O 15.68875092 3.86557950 3.40333946 -0.00094996 0.00081288 0.00144195
O 18.47164323 1.11328776 9.47874058 -0.00134648 0.00168290 0.00107033
O 17.57470722 5.93473624 8.28481220 0.00030467 -0.00163652 -0.00130176
O 15.32975475 5.11340859 9.48461157 0.00110923 -0.00586676 -0.00463396
O 13.31220080 9.56081037 8.13732333 -0.00255783 0.00404712 -0.00176991
O 17.82683212 5.00394793 2.37861642 0.01020245 -0.00117686 0.00334237
O 19.39822477 28.90965620 3.14552031 0.00534853 0.00336875 -0.00638628
O 12.75349941 8.81079878 13.89011666 -0.00223082 0.00190398 0.00129908
O 13.96975837 3.57050457 15.33403320 0.00161069 0.00189182 0.00062862
O 16.78399429 1.30882868 21.28312991 0.00112831 0.00041722 -0.00124291
O 15.43959005 6.34114333 20.29868237 0.00584903 -0.00478102 -0.00136726
O 13.20021646 5.29436657 21.03098397 -0.00071697 0.00195082 0.00451539
O 11.86498716 9.79007555 19.71940530 0.00024601 0.00528841 -0.00042765
O 15.83533332 4.81662474 13.97278372 -0.00152692 -0.00009468 -0.00646740
O 17.32263102 28.72114696 15.54595383 -0.00028239 0.00496648 -0.00156393
O 11.42973148 9.16110202 26.05145150 -0.00377255 -0.00600819 -0.00376328
O 12.77867164 3.59480709 26.87996692 0.00381529 0.00420242 0.00118069
O 14.77641253 0.98316271 33.02580787 -0.00061640 -0.00332381 -0.00900894
O 13.96828783 5.79235742 31.62572941 0.00018391 -0.00083064 -0.00175772
O 12.12334442 4.88953778 33.24947619 -0.00885699 0.00004799 -0.00187707
O 10.49595329 9.29605106 31.55354403 -0.00117224 0.00495971 -0.00138205
O 14.76714251 5.00228834 26.04783986 0.00179121 -0.00173452 -0.00484770
O 16.06830637 0.13783270 27.34279854 -0.00918179 -0.00102789 -0.00860858
O 14.45532250 18.09155430 2.47171725 -0.00194547 -0.00041609 0.00530660
O 15.37458502 13.40702186 3.50402504 -0.00303458 0.00421787 -0.00633368
O 18.26722111 10.81846280 9.49908235 -0.00040219 -0.00259731 0.00140601
O 17.07856777 15.87314841 8.37561415 -0.00320366 0.00233579 0.00364646
O 15.04386808 14.70235082 9.55379548 -0.00060930 0.00104410 -0.00369058
O 13.70944717 19.35563379 8.17447806 -0.00541642 -0.00201465 0.00178911
O 17.43133420 14.26203827 2.22238820 0.00079521 -0.00065366 -0.00342177
O 19.09139073 9.40416493 3.52412067 -0.00948506 0.00247123 -0.00159114
O 12.76337947 18.39203683 14.24783099 0.00169792 -0.00107336 0.00376423
O 14.02918668 13.85615199 15.10594114 -0.00752726 -0.00078706 -0.00014501
O 16.73194346 10.82442232 21.03940729 -0.00680048 -0.00077517 0.00178202
O 15.39326792 15.52821258 19.95775392 -0.00110247 0.00249276 -0.00478511
O 13.40051477 14.71345742 21.31662148 -0.00021335 0.00252255 0.00238016
O 11.89738054 19.69551137 19.89982841 0.00154482 0.00081809 -0.00102551
O 16.30378737 14.56986602 14.23509908 0.00796187 0.00150119 -0.00178583
O 17.45945201 9.55482607 15.13590722 -0.00405123 -0.00471169 -0.00141949
O 11.27548302 18.29731163 26.15541132 -0.00302044 0.00097909 0.00071705
O 12.43814510 13.44209355 26.96791750 -0.00193374 0.00695775 -0.00241365
O 15.21134980 10.78979072 32.75822098 -0.00030671 -0.00010073 0.00357363
O 14.06445498 15.52465387 31.95072737 -0.00698811 0.00599711 -0.00391639
O 11.90254471 14.52091610 32.81653460 0.00705852 0.00002862 -0.00364772
O 10.18059516 19.21284777 31.72773074 -0.00008612 -0.00393394 0.00103021
O 14.77301724 14.22585677 26.14761029 -0.00013184 -0.00065756 0.00523228
O 16.22204344 9.60738563 27.23921886 -0.00011967 -0.00135322 0.00622049
O 14.43892466 27.70980124 2.52704693 -0.00701401 -0.00264485 0.00656573
O 15.47544103 23.22797795 3.26170837 0.00010582 0.00384578 -0.00041631
O 18.36179008 20.81997831 9.49126315 0.00033947 -0.00448108 -0.00063590
O 17.14109123 25.59196784 8.54018882 0.00199854 0.00482899 -0.00290586
O 15.13896395 24.15261194 9.68097391 -0.00925771 0.00026342 0.00461007
O 13.70563385 29.03994460 8.42624573 -0.00641676 -0.00359639 -0.00430833
O 17.63079014 24.16325834 2.22236538 0.00168094 -0.00053097 0.00018925
O 19.40793259 19.26762465 3.52396876 0.00768094 -0.00501565 0.00366829
O 12.73725445 27.98631405 14.41165002 -0.00712662 -0.00257087 -0.00456717
O 13.97577517 23.55794350 15.62103613 0.00066703 -0.00258828 0.00071944
O 16.57243228 20.55071328 21.03624137 -0.00171955 -0.00166705 0.00460800
O 15.52801569 25.54797545 20.50957711 -0.00436279 0.00510115 0.00160537
O 13.41590247 24.52971918 21.29754177 0.00175840 0.00482460 0.00144327
O 11.72393836 0.07841327 20.07801935 0.00349546 -0.00624514 -0.00093128
O 16.24582755 24.33253751 14.46622542 0.00474769 0.00017726 0.00611957
O 17.70434565 19.10923451 15.44377827 -0.00299020 0.00076661 -0.00166208
O 11.40942518 28.41264623 25.51400141 0.00096500 -0.00084630 -0.00095603
O 12.84939325 22.83279041 27.04699456 0.00168065 0.00700320 0.00355909
O 15.08254165 20.26363519 33.18645308 -0.00059860 -0.00015466 0.00787079
O 14.00351402 25.30170060 31.81880644 0.00122595 0.00525334 -0.00213513
O 11.93070083 24.12583844 33.04287810 0.00148005 0.00195318 0.00538175
O 10.19229693 0.16619989 31.69279140 0.00127658 -0.00130920 0.00122720
O 14.77461486 24.33246977 26.08261149 -0.00123620 -0.00047387 0.00123708
O 16.08956555 19.32474472 27.10435293 0.00353096 -0.00181664 -0.00376077
H -0.26180512 9.01628232 2.72030288 0.01065016 -0.00011098 0.00835193
H 2.67486747 4.20112504 3.34085229 -0.01166406 -0.01908521 0.00560908
H 5.50738953 0.51793444 9.26493233 0.00393877 0.02808150 0.00597480
H 2.73925541 5.30962555 8.63876828 -0.00598737 -0.02150044 -0.00279889
H 5.84116203 8.40726477 0.48768332 0.00900545 -0.01490986 -0.00012231
H 3.80020193 3.37508964 5.11963517 0.01675447 -0.01407829 0.00976871
H -0.15978636 1.69415376 11.28800204 0.00167616 -0.01043907 0.00491423
H 1.62341835 5.81246627 6.43495466 0.01459574 0.00792697 -0.02180768
H 4.25511393 6.30531157 10.36473461 0.00299835 0.00284207 -0.01366837
H 3.89511470 1.94764477 7.18379153 -0.00758331 0.01331039 -0.00239613
H 1.36152016 3.13810512 0.79185058 -0.00202302 0.00232531 -0.00352402
H 1.47523634 7.74487636 4.64936577 -0.01462794 -0.00113080 -0.00538736
H -1.86636474 5.76019025 35.13985394 0.00877153 -0.00997758 -0.00282468
H -0.11586913 0.76719408 6.18067627 -0.00067598 0.02433888 0.02548332
H 2.57960482 4.19458079 11.98458234 -0.00685161 0.01114727 0.01628114
H 5.30341768 9.01494396 5.95559203 0.02594015 0.01044989 -0.00063444
H 2.85248026 7.32857913 1.40543225 -0.00783713 -0.01966563 -0.02302610
H -0.07277680 2.08940915 4.20071572 -0.01130733 0.02340485 -0.01161528
H 2.49704721 2.40952566 10.32093106 0.00062962 0.02333733 0.00913017
H 5.44698515 7.19745299 7.62010420 -0.00058571 0.00284691 -0.01356420
H 5.25537287 4.48952082 9.53512195 0.01687467 -0.01390156 -0.01703349
H 2.90662763 0.14995561 8.26107669 0.01886362 0.01556291 0.00393105
H 0.36835273 4.99613698 1.96154703 0.01440021 0.00043903 -0.01939885
H 2.45247413 9.45154920 3.72637191 0.00343674 -0.03061679 -0.03618771
H 7.86958949 3.82097532 7.29536954 0.00932147 -0.00150439 0.00637512
H 0.71304413 8.52127201 10.53333761 -0.01586461 -0.00778122 0.00712455
H -0.38398892 5.02078306 4.42145703 0.00258879 -0.00191720 0.01505230
H 3.18147404 1.17078559 2.15075789 -0.01762184 0.01827341 0.01322449
H 0.07491375 2.61721207 8.72629121 -0.02555248 -0.00498632 0.01019405
H 2.49552325 8.72879537 9.83046350 -0.00567892 -0.02216047 -0.01528394
H 6.37968371 6.34697085 4.07019810 -0.00994866 -0.00667412 0.01260658
H 4.80731519 1.95838256 2.38170202 0.00999683 -0.00643244 -0.02062755
H 0.30924126 3.93348540 7.39532710 -0.00051258 -0.00518201 0.00686423
H 1.36338917 7.36162339 9.45197067 0.00975002 0.02057404 -0.01524936
H 4.82070829 7.12173957 3.56318644 0.01875339 0.05341708 0.00248132
H 4.61749688 0.50053142 1.29381056 -0.02214228 0.00286917 0.00936237
H -1.67313636 9.06429145 14.70902335 0.01191100 0.01748343 -0.02212660
H 0.70163273 4.23889571 15.28946500 0.00237255 0.00064805 -0.04308656
H 3.75335490 0.51922808 20.75817887 0.01120034 0.02918068 -0.00130509
H 0.87000304 5.12562682 19.56320397 0.00252532 0.01764602 -0.00578520
H 4.25779241 8.23854451 12.06980306 -0.00420971 -0.01681342 -0.02459176
H 1.90948954 3.40419089 17.17970783 -0.00841759 0.02135795 -0.00904501
H -1.74003976 1.59031901 23.00270503 0.00908473 0.01376878 0.01123475
H -0.37980465 6.42732841 17.80323775 -0.01046163 0.01983931 0.02537151
H 2.38662025 7.07895400 22.36418159 -0.01747675 -0.01278247 0.04367261
H 2.09759722 1.80659239 18.79507978 -0.00330976 0.00175383 0.00239059
H -0.49489681 3.17688453 13.19879866 0.00695864 -0.02418302 -0.01126688
H -0.17139445 8.26422430 16.09686205 0.01893808 0.00012950 0.00000015
H 1.32384043 5.56132520 11.79030626 0.02259121 -0.00482812 0.02998565
H -2.00148739 0.59040894 18.25680007 0.01572090 0.01354020 -0.00212021
H 1.03649657 4.45703732 23.63598889 0.01629639 -0.00554057 -0.01975162
H 3.82901903 9.06079506 17.41061622 -0.00886156 0.00943457 -0.01413562
H 1.15920308 7.47815296 13.60128281 -0.01865832 -0.01636164 -0.00457008
H -2.17706931 2.29859661 16.42155826 -0.00500994 -0.02237331 0.00581135
H 1.07037978 2.83364493 21.64196441 -0.00559528 0.00471715 -0.01131386
H 3.66191683 7.44059566 19.15774855 0.01546228 0.00659721 -0.02966772
H 3.25924122 5.05186028 21.38560791 0.01169779 -0.02142836 0.00815998
H 1.20165232 28.97755641 20.03642024 -0.01100242 -0.01569979 0.00662924
H -1.61721712 5.10173343 13.91611049 -0.01007774 0.01551130 -0.00192869
H 1.01211190 10.17786379 15.34093118 -0.00866782 -0.00080734 -0.01500837
H 5.35218774 3.90509108 19.00979937 -0.02256177 -0.00560113 -0.01198777
H -1.31644252 8.30896141 21.80516957 0.00379973 0.00973122 0.01147673
H 18.20139642 6.10135502 15.85663012 0.00635627 0.00770231 -0.01940900
H 2.75228197 2.20559053 14.46768716 0.00389461 0.01654283 -0.00673447
H -2.06269964 2.89923122 20.37997448 -0.01115625 -0.00861058 -0.00907256
H 0.50209322 8.37040202 21.69873556 0.01098554 -0.00735963 0.01986579
H 3.37002882 5.31649102 16.60975682 -0.00629510 0.02167004 -0.02151932
H 2.53479472 0.91431833 13.27891442 -0.02048614 0.00798084 -0.02057576
H -1.10651650 3.90169302 19.18248310 -0.01375026 -0.01392129 0.02737025
H -0.47888182 7.32136372 20.50355239 -0.00914461 0.00540152 -0.00873931
H 4.80072893 5.91024726 15.62569833 0.01493338 -0.02022684 -0.01337666
H 1.22186298 1.31728030 14.60103474 -0.00304336 0.01598170 -0.01660104
H -2.91687670 9.19749248 26.40301274 0.01932147 0.00780307 -0.01051787
H -0.02532579 3.99120740 26.96773987 -0.00098250 0.00032103 0.01054736
H 1.93521143 0.66619803 32.94708799 0.01076111 -0.04050411 0.01684338
H -0.51401712 5.48854804 32.19451187 -0.00164218 0.01612711 0.00922388
H 2.47879115 8.49536585 24.26633574 -0.00003217 0.00208636 0.00975675
H 0.79853936 3.29984954 29.02613069 0.01249986 -0.01717268 0.00843996
H -3.74990980 1.28560337 34.65504763 -0.01593014 0.01771431 -0.00829794
H -1.66030767 6.24221647 30.24927197 0.01787753 -0.00125715 0.00170533
H 0.86555205 6.37162157 34.34364551 -0.02636917 0.01895090 -0.00760098
H 0.54204435 1.70173727 30.98365107 -0.00110850 -0.00376429 0.00150005
H -1.66246066 3.13685715 24.81795067 0.01868609 0.02648683 -0.00209253
H -1.71439609 7.92188321 28.53230497 -0.01458806 -0.02617287 0.01589470
H -0.24156208 5.71189740 23.19059584 0.01370388 0.00944772 -0.02435621
H -3.33393308 0.66992451 29.54203787 0.02062164 0.00211507 -0.02016763
H -0.58844863 4.43380428 35.30452605 0.00682208 0.00772574 -0.00880543
H 2.40449223 8.73051988 29.08543054 0.01046067 -0.00242638 0.02418453
H -0.07580643 7.25034112 25.09849654 -0.00308264 -0.01277781 0.00851556
H -3.11937513 2.38476930 27.75677725 0.01295793 0.01057854 0.01916729
H -0.73755313 2.71661216 33.81973866 0.01824781 -0.04826228 -0.01220134
H 2.28661788 7.31391095 31.22559361 -0.00072220 0.00166162 -0.00082711
H 2.04269283 4.50236698 33.20373704 0.02079311 -0.00488191 0.00545802
H -0.35225953 28.90068137 31.76111827 0.00858822 -0.01563344 -0.00907980
H -2.62495935 5.14960777 25.80331956 0.00049543 -0.00259123 -0.00605898
H -0.56705624 9.56027043 27.31756374 -0.02798726 0.01269060 -0.03463020
H 2.84669351 3.70694237 31.36867759 0.00419761 0.02819589 -0.03112353
H -2.95751966 8.63621993 33.82107870 0.00515693 0.00050223 -0.00230335
H -3.63829522 6.64744242 27.55548018 -0.00010445 -0.01909034 -0.00471785
H 0.42632277 1.91793948 26.32414074 0.01281142 -0.01299361 -0.01323669
H -2.97431670 2.75092720 31.85340459 -0.04716322 0.00082662 0.00459704
H -1.37355176 9.20412075 33.52439550 -0.01896073 0.00916448 0.02873830
H 1.40206817 5.55838379 28.01531525 0.00423343 0.01162027 0.00803295
H 2.12464660 2.00069952 26.14638372 -0.02626437 -0.01582998 -0.01677900
H -2.30607864 3.94934309 30.86186444 0.01446337 0.01641955 0.00250526
H -1.84101231 7.60254228 32.77041370 -0.01120210 -0.02393513 -0.02341922
H 2.97217777 4.81454477 27.85334700 0.02088540 -0.00115643 0.00287878
H 1.28034335 1.02365215 25.02278361 0.02302093 0.03058218 0.01228341
H -0.20041759 18.92510978 2.24925571 -0.01269449 -0.02221497 0.01065528
H 2.64804951 13.71367838 3.32207743 0.00986113 -0.00520169 -0.00543663
H 5.52654383 10.67538383 9.03113776 -0.00750811 0.00945763 0.00924537
H 2.27795216 15.36677606 8.55325517 0.00099121 0.00793465 -0.02724764
H 5.78578929 18.04112994 0.71362116 -0.01023009 -0.01924187 0.01295308
H 3.47897650 13.41096602 5.43698583 0.03092073 -0.00133480 -0.00000159
H -0.32396636 11.23422568 11.04062545 0.00644847 -0.00050416 0.00129282
H 1.40901077 15.98430983 6.32711422 -0.00465305 0.00302161 -0.00920248
H 4.13080198 16.43754652 10.36153141 0.02949731 -0.00922886 0.01505898
H 3.73291838 11.68759674 7.32911731 0.00096055 -0.02171196 0.01169890
H 1.09904329 12.52448878 1.28952993 0.01297912 0.01499069 -0.00431583
H 1.37150029 17.70179098 4.68005943 -0.01829116 0.00970459 0.01313490
H -2.01533630 15.29586454 35.15821351 -0.01108156 -0.01376772 -0.03969580
H -0.13957852 10.08873689 5.95809400 0.01483164 0.00377279 -0.01613457
H 2.48101912 14.10984573 11.88186512 -0.01513726 0.00088699 -0.01007073
H 5.39382535 18.72124915 5.64095349 -0.01526609 0.01330669 0.00337290
H 2.54782577 16.87618298 1.66514600 -0.01147830 -0.00872246 0.01404790
H -0.25912662 11.83924652 4.25025389 -0.00515125 0.02070089 -0.01778467
H 2.60711941 12.63923240 10.01553779 -0.01224604 -0.02359814 -0.02636491
H 5.54629446 16.80042003 7.26290431 0.02203535 0.03473988 0.02673755
H 5.15044282 14.78099041 9.38799504 -0.00146959 0.00599654 -0.00143212
H 2.91889608 9.29502392 7.76400344 0.00321243 0.01885602 -0.02124988
H -0.03335359 14.63963101 1.85720820 0.01929948 0.00093702 -0.00865553
H 2.43709615 19.42945201 3.66628072 -0.01167946 0.02837194 -0.01967325
H 7.64645141 13.63303033 7.29450980 0.00898099 -0.01629391 -0.00830714
H 1.19796489 19.25430913 10.61931127 0.02784775 -0.02559672 0.00816153
H 18.28411113 16.49859338 3.41244323 0.00180848 0.00199036 -0.00230631
H 4.87957993 10.52623499 1.50629879 0.00670959 0.00176268 0.01840861
H 0.66683966 12.52825764 8.39849242 -0.01071516 0.00723059 0.02472747
H 2.35943740 18.18221961 9.59371481 -0.03134593 0.02507420 -0.00122898
H 6.36389962 15.47849007 3.68967453 0.01044373 0.00900667 -0.00834985
H 3.23526197 10.01702327 1.86247494 0.00833918 -0.01383936 -0.05029671
H 0.13661949 13.73494461 7.20339866 0.01413752 0.01772460 0.01293542
H 0.71363445 17.73377563 9.74240394 -0.02354618 0.02399764 0.00207937
H 5.11547172 16.60966360 3.13728907 0.01279849 -0.00462608 0.02153171
H 3.82277866 11.53316210 2.45112626 0.00262903 0.00653882 -0.00506412
H -1.57279664 18.64713943 14.61423483 0.02071730 0.00464280 -0.00363820
H 1.02931531 14.02545635 15.01271060 0.00950888 0.02564805 0.01274425
H 3.57244397 10.25747467 20.71621165 0.00179589 -0.00613948 -0.01377393
H 0.88854282 15.29492848 20.22146212 -0.00365423 -0.00584743 0.02817893
H 3.94858510 18.24069385 12.16301817 -0.01213103 0.00349455 0.00725790
H 2.10851348 13.13390064 17.15041377 0.00966922 0.03365374 0.01275667
H -1.69177001 11.18862966 22.65904249 0.00882611 -0.00179505 0.03163899
H -0.42053337 16.18360473 18.09981245 0.01385575 -0.00339369 0.00572814
H 2.51896116 16.30041141 22.19123143 -0.02157426 0.01192012 -0.00055538
H 2.06318978 11.56883001 18.83806667 0.01139558 0.01741892 -0.01570957
H -0.23885315 12.78052379 12.97202520 -0.01665471 0.01249817 0.00348843
H -0.18505589 17.74301524 16.22492229 -0.00481108 -0.00327642 0.01774838
H 1.11157600 15.14580534 11.68651751 -0.00331162 0.00945908 -0.01390293
H -1.81920115 10.27544057 17.60203042 -0.01088532 0.00324365 0.00753630
H 1.20838782 14.13273559 23.63154819 0.02391276 0.00141973 -0.04783675
H 3.81303673 18.65380635 17.34494766 -0.02110928 0.03354368 0.00004662
H 1.31939912 16.90483272 13.24271477 0.01795705 0.00944139 0.00034675
H -1.78932534 11.87005697 15.86651019 -0.00233199 0.00470647 0.00312656
H 1.00253429 12.45923727 21.84045259 -0.01601000 -0.01132706 -0.00018600
H 3.71937149 17.17878772 19.24692267 -0.02346885 0.01134409 0.01679723
H 3.63771357 14.31727388 21.20801501 0.00864771 -0.00690477 -0.01418963
H 1.23017503 9.58675436 19.81906730 -0.00684667 0.00528428 0.00479935
H -1.19227983 14.45947269 14.11421308 -0.00320677 -0.00510222 -0.00888777
H 0.85286125 19.72330233 15.48268574 0.00797857 -0.00283748 -0.01060034
H 6.17982842 13.23619782 19.13308459 -0.00729342 -0.02390374 -0.00083888
H 0.93096827 18.47080884 22.01650600 0.02117025 -0.02664517 -0.01525601
H 17.09916963 16.85238987 15.11570909 0.02948962 0.00234419 -0.01178086
H 3.14701524 12.29024387 14.69555391 0.00703859 -0.00775588 -0.00655198
H 17.85937660 13.20799090 19.61982741 0.00856265 -0.00124740 -0.01203292
H 0.13282904 17.19637272 21.20218591 -0.03779425 0.00849569 0.00231280
H 4.36425120 16.71241264 15.24947465 -0.02423178 0.00867306 0.00473791
H 3.77547000 11.35769595 13.32935674 -0.00958160 -0.01275183 -0.00025645
H -1.38632205 12.34518554 20.14153242 0.02735240 0.00849253 0.00338123
H -0.81324154 18.15825253 22.44832887 0.04509822 0.00340067 0.00025571
H 2.87610421 15.95063841 16.02398801 0.00222473 -0.00568069 -0.00099579
H 2.02583986 11.32431957 13.61199362 -0.00319435 0.01182481 0.00853052
H -3.16096679 18.66724149 26.28780087 0.02171178 0.02245004 0.03734765
H -0.52259939 13.92237991 26.79936402 0.02738785 -0.00884805 -0.00734867
H 2.17210431 10.19578866 32.61543267 0.00707151 -0.00723204 -0.00670820
H -0.53391459 14.98112942 32.27221581 -0.02698694 -0.00347621 -0.01869883
H 2.72053507 18.04280328 23.95627181 0.00332164 -0.00583346 0.02516867
H 0.72538927 12.95222174 28.49195280 -0.00079804 -0.02966593 0.01721697
H -3.32216378 11.18876618 34.47699144 0.01857687 0.01407166 0.00309102
H -1.61046191 15.75311814 30.24229579 -0.03736512 0.04345242 -0.02313686
H 1.29338053 16.56618150 34.10581887 0.01550341 0.00968027 -0.01677997
H 0.51114439 11.59058871 30.66901974 0.00110901 -0.00356451 0.01111250
H -1.85792299 12.41617351 24.75138320 0.00054105 -0.01385782 0.00282327
H -1.55156758 17.43010339 28.46119911 0.01739531 0.01436641 -0.00059380
H -0.36470976 14.95597522 23.38725158 -0.00442129 0.01465653 -0.00062073
H -3.44523687 10.22404516 29.32707359 -0.00867502 -0.02836313 0.00055876
H -0.53694942 14.04494030 35.33033892 -0.01431818 0.01974545 -0.00161639
H 2.37267085 18.68126887 29.53776607 0.00686508 0.02012265 0.02576574
H -0.14833316 16.81630618 24.99607013 -0.01310036 -0.03064748 0.02161264
H -3.33001743 12.02144250 27.65270180 0.01159487 -0.00174673 0.01401637
H -0.48701791 12.49354830 33.32844540 0.02698309 0.02407242 0.01313878