2160
Time=87000.00000006 pbc="T T T" Lattice="20.67254002 0.00000000 0.00000000 0.00000000 28.82836319 0.00000000 -4.74607410 0.00000000 35.81633347" energy=-13799.12937456 virial="-115.41018082 7.19624211 74.21486446 7.19624211 -39.80502595 2.49477079 74.21486446 2.49477079 -82.70591711" stress="-0.00293606 0.00037094 0.00352401 0.00037094 0.00063068 -0.00002706 0.00352401 -0.00002706 -0.00143542" Properties=species:S:1:pos:R:3:vel:R:3
O 0.65851888 8.23161905 2.55984649 0.00628962 0.00049508 -0.00449511
O 2.08010960 3.77060140 3.41187976 -0.00754216 0.00195841 0.00521213
O 4.57166426 1.39376811 9.57036964 -0.00237053 0.00029123 -0.00259286
O 3.56426810 5.41528923 8.58893713 -0.00200115 -0.00553101 0.00720094
O 1.22223205 4.89302627 9.49401144 -0.00097242 0.00363667 0.00285844
O -0.46152862 9.58212879 7.99533227 -0.00233932 0.00972984 -0.00609420
O 4.09446601 4.69937914 2.03977421 -0.00369836 0.00445023 -0.00409913
O 5.58819876 0.27818133 3.56271406 -0.00039100 -0.00318049 -0.00141765
O -0.78740197 8.35404962 14.45683664 -0.00293080 -0.00144205 -0.00109290
O 0.39678731 3.59625555 15.25956437 0.00116966 -0.00327623 0.00186355
O 2.93004163 1.14787545 21.32712168 0.00300904 0.00085335 0.00101549
O 1.67841146 6.03492558 20.43937541 -0.00378477 -0.00339101 0.00666077
O -0.15517899 5.08000382 21.80753615 -0.00402874 0.00002323 -0.00170644
O -2.02798074 9.58321289 20.15699355 -0.00416238 0.00393446 -0.00367001
O 2.31579597 5.06522235 14.42793554 0.00490650 -0.00489792 0.00129700
O 4.03761717 28.82142478 15.82378559 0.00027738 0.00084549 -0.00107279
O -2.58422648 8.49129446 26.54663516 -0.00097315 -0.00372158 -0.00513630
O -1.24560436 3.39597896 27.13809161 0.00175105 -0.00340640 0.00499421
O 1.43668627 1.20664467 33.04558994 0.00043666 0.00393798 0.00259363
O 0.24517037 5.74678593 32.04384380 0.00053688 0.00320317 0.00023806
O -1.83203421 4.83584665 33.28739464 0.00722658 0.00072570 -0.00501905
O -3.29403904 9.91232817 32.10116121 0.00027420 0.00577862 -0.00004956
O 0.89799881 4.38874704 26.16947993 0.00989734 0.00785490 -0.00198239
O 2.51930205 28.65697342 27.51753963 -0.00630694 -0.00495410 0.00241842
O 0.69981313 17.88452825 2.78927028 0.00198491 0.00027103 0.00208753
O 2.05141307 13.45581176 3.74438299 -0.00026447 0.00285219 -0.00003222
O 4.42246429 10.88483377 9.33448651 0.00149244 0.00700037 0.00132349
O 3.44984480 15.76508509 8.75832159 -0.00383504 -0.00161776 0.00566722
O 1.21911873 14.50777757 9.39403261 -0.00031945 -0.00317000 -0.00045748
O -0.16667440 19.14351907 8.21598781 -0.00337858 -0.00716404 -0.00500017
O 3.96317084 14.26073928 2.25781716 -0.00549686 0.00073244 0.00103170
O 5.39523135 9.47266466 3.91962615 -0.00177319 -0.00380032 0.00068590
O -0.64391216 17.88461282 14.47572335 -0.00000744 0.00412824 -0.00711387
O 0.46669916 13.20126487 15.61117983 0.00418657 0.00204141 0.00123747
O 3.10020046 10.64490559 21.47097866 0.00503533 -0.00209438 -0.00401288
O 1.83691185 15.41657690 20.49712716 -0.00175671 -0.00175248 0.00168647
O -0.27770376 14.49197709 21.58158957 -0.00408941 0.00743938 0.00060821
O -1.76439148 19.02875934 20.31401524 -0.00120456 0.00194916 -0.00025795
O 2.47887829 14.29982581 14.20030902 -0.00249757 0.00458991 0.00016543
O 4.05915364 9.65784252 15.61726697 0.00642309 -0.00495762 -0.00129046
O -2.53728967 17.97263071 26.59078432 0.00136786 -0.00402803 0.00149975
O -1.19720966 13.10474639 26.94701270 -0.00169009 0.00182333 -0.00052119
O 1.55547212 10.79564512 33.12987359 0.00098015 -0.00016711 -0.00313864
O 0.16247201 14.92671568 32.25585387 0.00629134 0.00043920 0.00528919
O -1.92881775 14.49016687 33.82626132 -0.00434961 0.00024051 -0.00112539
O -3.63344130 19.22828736 31.68562329 -0.00281880 -0.00289529 -0.00190324
O 0.90356297 14.36274415 26.31936000 0.00465792 -0.00016353 -0.00132782
O 2.44227167 9.42891628 27.50641313 -0.00781360 -0.00083243 -0.00272785
O 0.54197636 27.60501185 2.46049045 0.00176575 -0.00143774 0.00339070
O 1.87182556 22.81517390 3.29805293 0.00025492 -0.00194488 -0.00653787
O 4.66877329 20.57029120 9.40181914 -0.00451771 0.00051004 -0.00071271
O 3.39895619 25.31702289 8.41477172 -0.00694982 -0.00220863 -0.00056020
O 1.09784817 24.45953006 9.48102597 -0.00426375 -0.00572144 -0.00348051
O -0.18018982 28.79219650 7.98103905 0.00142679 -0.00427367 -0.00666809
O 3.93058946 24.05161853 2.35227948 0.00422768 -0.00302746 -0.00573544
O 5.31583928 19.39068172 3.94146138 -0.00102538 -0.00197917 0.00630909
O -0.89953591 27.85229870 14.54795969 0.00251754 0.00103380 -0.00494366
O 0.57260084 22.97816474 15.57784735 -0.00029480 0.00068608 -0.00326211
O 3.09307849 20.12396975 21.89335599 -0.00153706 0.00264561 -0.00330199
O 1.62661155 25.07227508 20.44136885 -0.00234096 -0.00340118 -0.00112041
O -0.50607792 23.70741047 21.81663485 0.00509480 -0.00079617 -0.00107030
O -1.93387817 28.82111020 20.28755443 0.00989298 -0.00061972 0.00972639
O 2.65026913 23.77673986 14.30560335 -0.00250039 0.00115947 -0.00251180
O 4.05315556 19.02495488 15.69749146 0.00194063 -0.00675019 0.00081918
O -2.35780855 27.76272341 26.47245695 0.00065112 -0.00201410 -0.00195028
O -0.82312214 22.59808709 27.18257927 -0.00568701 0.00045014 0.00109280
O 1.33148117 20.08322889 33.55664565 0.00174313 0.00093422 0.00292803
O -0.10271421 24.95491807 32.25760049 0.00197206 0.00222491 -0.00420586
O -1.93161699 23.64210054 33.66765637 0.00837307 0.00044036 0.00152731
O -3.51683094 28.59871341 31.85235970 0.00034947 0.00288794 -0.00342541
O 0.93444311 24.17027245 26.20816281 0.00143965 -0.00797048 0.00037265
O 2.32446862 18.97564367 27.81971272 -0.00378083 -0.00200153 -0.00256339
O 7.35357190 8.59590860 2.38901798 0.00659825 -0.00140318 0.00359711
O 8.91751801 3.72937515 3.54123239 0.00216359 0.00202947 0.00046779
O 11.57626649 0.98503248 9.59379820 -0.00207363 -0.00683056 -0.00083135
O 10.04831827 6.00027806 8.41849383 0.00306306 -0.00448249 0.00240554
O 8.13162740 5.06603462 9.83756828 0.00121711 -0.00763162 -0.00295804
O 6.54823279 9.61162614 8.14924632 0.00093211 0.00143835 -0.00232338
O 10.90726413 4.67042170 2.18823394 -0.00019509 0.00174092 -0.00659537
O 12.35630192 28.75764398 3.46519795 0.00352592 0.00994828 -0.00373307
O 6.10133880 8.74178972 14.45787129 0.00215619 0.00096723 0.00168290
O 7.11492483 3.93965233 15.75423286 -0.00256160 -0.00436251 0.00274322
O 9.84833034 0.92382743 21.53468089 0.00376004 -0.00376209 -0.00235266
O 8.79888778 5.43411797 20.04564119 -0.00246599 -0.00639029 -0.00259189
O 6.65782696 4.88472835 21.45037489 0.00103107 0.00505805 -0.00196287
O 4.91208809 9.93164387 19.93339559 0.00451558 -0.00108410 -0.00144502
O 9.09029264 4.59714451 14.15588606 -0.00226513 -0.00168733 -0.00151137
O 10.85425843 28.55665983 15.61150877 -0.00507947 -0.00129870 0.00637429
O 4.75900699 8.63192842 26.22121213 -0.00292010 -0.00234585 0.00343870
O 5.46185548 3.52008785 27.42703213 0.00251957 0.00014574 0.00683849
O 8.27177922 1.06578953 33.29966111 -0.00314942 -0.00177005 0.00240802
O 7.04102368 5.40446986 32.42309809 0.00072158 0.00843025 -0.00559361
O 4.90910470 4.55631657 33.70243801 0.00088283 0.00411885 0.00093806
O 3.54495131 9.38319488 32.29247573 -0.00585483 -0.00536013 0.00181965
O 7.63780987 4.41845290 26.10032722 -0.00136530 -0.00203846 0.00116826
O 9.36331405 0.05992056 27.69855231 -0.00185810 -0.01081901 0.00050785
O 7.31104680 18.10250388 2.77866374 0.00245600 0.00398601 0.00417254
O 8.80619962 13.18451243 3.41363157 0.00216772 -0.00414406 -0.00769657
O 11.61898448 10.70412847 9.38746145 0.00124908 0.00258683 -0.00669995
O 10.06077741 15.39730791 8.14241971 -0.00529432 0.00160032 -0.00548920
O 8.44414145 14.36671484 9.92087193 -0.00071512 0.00269942 0.00233631
O 6.74934709 19.20067676 8.38089356 0.00087530 -0.00402104 -0.00897663
O 10.78116994 14.20121195 2.09559314 -0.00198232 -0.00772031 -0.00351726
O 12.51681728 9.58503554 3.94163770 -0.00022138 -0.00523003 0.00415749
O 6.21553538 18.28800725 14.44684875 -0.00330727 0.00615395 0.00126492
O 7.39791310 13.70694988 15.53723954 0.00679407 -0.00153272 0.00678813
O 10.03262144 10.94945940 21.19839232 0.00066442 0.00527599 -0.00150570
O 8.62527706 15.53689733 20.26729988 -0.00242303 -0.00133429 0.00163341
O 6.54609718 14.53490220 21.68912550 -0.00655988 0.00113666 0.00079426
O 5.13618653 19.40232132 20.21198188 0.00106014 -0.00013439 -0.00008710
O 9.45414436 14.58284358 14.14749682 -0.00089554 -0.00205597 0.00139325
O 10.89068956 9.48218856 15.66433932 0.00114110 0.00313048 -0.00274939
O 4.44130565 18.23403416 26.48442799 -0.00606574 -0.00219100 0.00115203
O 5.79617831 12.99896070 27.46893332 0.00025311 -0.00476217 -0.00001025
O 8.31214142 10.75421244 33.19528220 -0.00201823 0.00069491 -0.00247372
O 7.09153934 15.15734316 32.50596245 -0.00276011 0.00218635 0.00414383
O 5.04556329 14.66654600 34.07875688 0.00020460 -0.00120219 -0.00408580
O 3.57541315 19.11501445 32.56028422 0.00141920 0.00726577 -0.00380952
O 7.61231992 14.34570279 26.08004885 0.00451908 0.00381962 -0.00074837
O 9.15887619 9.17530258 27.63734984 -0.00223271 0.00318509 -0.00207545
O 7.54859103 28.02729543 2.16646194 0.00456307 0.00178322 -0.00237511
O 8.90429727 22.76100902 3.49481186 0.00507890 -0.00220143 0.00201309
O 11.52031981 20.09763323 9.73541593 -0.00294983 0.00522850 0.00215209
O 10.26508874 25.17799163 8.51078074 0.00253271 -0.00054671 0.00093315
O 8.16637370 24.13320759 9.86557305 0.00505480 0.00808585 -0.00000656
O 6.70860196 0.01609785 8.52777187 0.00344731 0.00161843 0.00224001
O 10.95090843 23.95582765 2.66379333 -0.00223537 -0.00604263 0.00072924
O 12.37866420 19.18604517 3.33218845 0.00287811 -0.00122924 0.00210170
O 6.14550247 27.99211244 14.38500823 0.00062425 -0.00083685 0.00375320
O 7.28678017 22.89725301 15.31258198 -0.00415709 -0.00196547 -0.00088306
O 9.91784463 20.54371030 21.19562581 0.00255785 -0.00056501 -0.00226378
O 8.39063419 25.11952343 20.34460666 -0.00004847 -0.00255914 -0.00250397
O 6.65610917 23.67555489 21.73477381 0.00008183 0.00413254 -0.00170048
O 5.04892624 28.73377867 20.22212662 -0.00138914 -0.00309250 0.00446267
O 9.27103196 23.93951260 14.10509219 -0.00499502 -0.00511649 0.00205399
O 10.93165075 19.20667652 15.79354623 -0.00616779 -0.00154580 0.00609344
O 4.64891063 27.61838649 26.33077880 -0.00091406 -0.00231176 -0.00083924
O 5.90477107 22.49150713 27.55293747 0.00824014 0.00236262 0.00391965
O 8.00024140 20.28893636 33.67958061 0.00168543 0.00213331 -0.00707060
O 7.02475803 24.76504087 32.05377300 -0.00507674 -0.00249941 0.00156677
O 4.89240046 24.04355593 33.29401039 -0.00316792 -0.00112483 0.00121309
O 3.50589425 28.66529393 32.36385935 0.00318524 0.00055320 0.00173855
O 8.17531975 23.16051179 26.63383937 -0.00091417 0.00414914 0.00036247
O 9.22707833 18.82846262 27.82323284 0.00207373 -0.00014767 0.00103163
O 14.46440353 8.71328157 2.31040719 0.00180542 -0.00283966 -0.00240960
O 15.76601502 4.12365074 3.47906347 0.00139865 -0.00154395 0.00382752
O 18.35387113 1.16077847 9.26144881 -0.00100445 0.00083494 -0.00065165
O 17.12936093 5.99874101 8.48496141 0.00666016 0.00095314 0.00218569
O 15.23027549 4.94701787 9.77696707 0.00077282 0.00313826 -0.00046219
O 13.53335206 9.47344206 8.02872491 -0.00186790 -0.00380237 0.00185469
O 17.83968311 4.77688537 2.04922812 0.00529825 0.00470529 0.00000093
O 19.45715444 0.09311012 3.72641221 0.00160516 0.00334303 -0.00038250
O 13.09123730 8.78364611 14.28801000 0.00133803 -0.01061332 0.00918373
O 14.23814321 3.66022740 15.20646792 0.00072529 -0.00096376 -0.00121361
O 16.91954912 1.18212541 21.38479681 0.00621381 0.00279346 -0.00596775
O 15.58869990 6.10275098 20.39133560 0.00074720 0.00528035 -0.00723746
O 13.46175463 4.88533190 21.55386604 -0.00405403 -0.00182154 0.00078519
O 11.94876709 9.54648224 20.18778651 -0.00431888 -0.00588111 0.00436634
O 16.19471633 4.73877965 14.12672140 0.00373036 -0.00209071 0.00452244
O 17.84575020 0.31583201 15.76030349 -0.00432190 0.00512495 -0.00273827
O 11.18519585 8.68822762 26.23686410 0.00141697 -0.00392292 -0.00076177
O 12.59526069 3.65593764 27.56044565 0.00223577 0.00079024 0.00492941
O 15.20924748 0.88053631 33.51010811 0.00066205 0.00201582 0.00062772
O 13.97401376 5.90029233 32.32470488 -0.00021083 0.00020302 -0.00230673
O 11.95012281 4.68889036 33.78121655 0.00099827 0.00366664 0.00755622
O 10.45555048 9.56323895 32.09245858 0.00423551 -0.00638677 -0.00653051
O 14.68226397 4.63517435 26.08117297 -0.00238797 -0.00200148 0.00604375
O 16.18214596 28.78597771 27.66016824 0.00191374 -0.00055365 -0.00470361
O 14.42722626 17.75426299 2.52997316 0.00491273 -0.00077308 -0.00027448
O 15.49649625 13.38539553 3.58086677 -0.00302634 -0.00082910 -0.00140242
O 18.40766774 10.79309619 9.40528292 0.00635932 -0.00430255 0.00162872
O 16.94626379 15.81481039 8.57079813 -0.00006485 0.00170057 -0.00267990
O 14.94871552 14.18438837 9.84595651 0.00038161 0.00296221 0.00131170
O 13.63629745 19.16501462 8.07418825 -0.00035971 -0.00120457 0.00309154
O 17.70194906 14.23205980 2.29807802 0.00531968 -0.00169675 0.00167826
O 18.96336352 9.12829060 3.36084434 0.00269919 0.00399681 -0.00000647
O 13.19400821 18.17888772 14.25478486 -0.00167662 -0.00083557 -0.00343448
O 14.30935137 13.14031335 15.14024494 -0.00050448 0.00236254 0.00037491
O 16.89686872 11.24144507 21.09131501 0.00272017 -0.00263340 -0.00147215
O 15.70332131 15.37931614 20.22072416 -0.00331310 0.00133104 -0.00560781
O 13.57128916 14.72024578 21.59041067 0.00107340 0.00338740 -0.01011411
O 12.02139628 19.46125778 20.29010231 -0.00713891 -0.00168765 -0.00175978
O 16.45691508 14.14062995 14.53902564 0.00163805 0.00118253 -0.00855532
O 17.83681645 9.36589219 15.74430758 0.00438163 -0.00127420 0.00471387
O 11.07770834 18.04256806 26.31220968 0.00065586 -0.00210200 -0.00393457
O 12.63081467 13.27727549 27.39689385 -0.00090530 -0.00016054 0.00052232
O 15.13288800 10.94630829 33.09500595 0.00375884 0.00236422 -0.00023504
O 14.05984839 15.36898116 32.42966351 -0.00385483 0.00562350 0.00335565
O 11.67568136 14.64030765 33.28977982 -0.00670729 0.00036440 0.00189813
O 10.06793099 19.16950897 32.20547063 0.00414107 0.00359307 0.00232831
O 14.56599674 14.38008505 26.15273918 0.00119499 -0.00198808 -0.00202969
O 15.99791398 9.70264589 27.62398660 0.00045079 -0.00384483 0.00357865
O 14.41262138 27.84505881 2.20751990 0.00223057 -0.00522706 -0.00392856
O 15.80294242 23.11639795 3.66671718 -0.00498031 -0.00299855 -0.00509035
O 18.42299412 20.48894896 9.23156487 0.00255349 -0.00559061 0.00128121
O 16.91031063 25.57040475 8.31924559 0.00275456 0.00713557 -0.00340794
O 14.99619025 24.36310760 9.61857980 -0.00205865 0.00318744 -0.00707637
O 13.60293344 0.36493878 8.14048430 -0.00345570 -0.00621788 -0.00264646
O 17.64498973 23.92794043 2.03649743 -0.00226402 -0.00051266 -0.00372619
O 19.19793502 19.16276215 3.46109307 0.00342921 -0.00107892 -0.00194450
O 12.97532183 27.48613640 14.76865034 -0.00772321 -0.00818874 0.00298167
O 14.35637053 22.92766481 15.38878676 -0.00085528 -0.00355274 -0.00340821
O 17.02797600 20.51999539 21.39634160 -0.00807364 0.00057442 0.00114830
O 15.61152283 24.98280659 20.25873259 0.00129879 -0.00710830 -0.00529642
O 13.42597370 24.46685838 21.46249610 -0.00158788 -0.00198542 -0.00109913
O 11.90359679 0.09809465 20.18638900 -0.00132204 0.00217985 0.00484303
O 16.28486794 24.09316720 14.21158569 -0.00130993 -0.00116823 -0.00005771
O 18.03357735 19.30448475 15.72987532 -0.00399323 0.00623274 -0.00327690
O 11.35553108 27.61347638 26.52306289 -0.00034809 0.00044515 0.00305599
O 12.60834120 22.88861346 27.62465248 0.00217674 0.00082361 -0.00071077
O 15.29283411 20.15892652 33.41343345 -0.00373238 -0.00217054 -0.00170186
O 14.01349026 24.79462776 32.02865127 0.00001904 0.00682786 -0.00365640
O 11.77804724 24.15758897 33.34911422 0.00570630 -0.00381414 0.00135863
O 10.23053836 0.02090979 32.05605692 -0.00072757 -0.00851299 0.00259383
O 14.88562603 23.66121694 26.28904577 0.00602782 -0.00478052 0.00107874
O 15.98261712 18.94755021 27.69856002 -0.00543355 0.00703826 0.00423866
H -0.23971724 8.53449301 2.81923988 -0.01627519 -0.00328371 -0.00290827
H 2.79541111 4.45983439 3.19030218 -0.00076591 -0.01836898 0.00873729
H 5.41267714 0.74159351 9.55468886 -0.01128558 -0.05781598 -0.02752661
H 2.61960909 5.29223789 9.08602794 -0.00775538 0.01857792 0.02706592
H 5.63847739 8.49843112 0.49938340 -0.01538352 -0.02698056 -0.00685228
H 4.17199424 3.39400101 5.10332834 0.00453040 -0.00926818 0.03672979
H -0.31201670 1.64265273 10.72759929 -0.00082880 -0.01841256 0.02979444
H 1.53172690 5.85528955 7.15175445 0.00836545 -0.00604215 0.00307754
H 4.27709686 7.17730628 10.60303164 0.01168775 0.01998553 0.00113261
H 4.05829898 1.86396711 7.05521203 0.00412855 0.02480298 -0.04114956
H 1.50073283 3.05650573 0.97236653 -0.01480442 0.03143459 -0.00256104
H 1.30081839 7.51827987 5.24813186 -0.00104848 0.00433910 -0.01563900
H -1.98459535 5.29770335 35.58105373 0.02553977 -0.01757298 0.00106049
H -0.07925708 0.92723707 6.16005469 0.00976935 -0.01408400 0.00148974
H 2.52529019 4.53750299 11.99823835 0.02040631 0.00032951 0.01045907
H 5.43957625 8.77254464 6.13030552 -0.00244783 -0.01968863 -0.00177943
H 2.83592172 7.00056399 1.63672193 -0.00148415 0.02054447 -0.03615128
H 0.12119177 2.36414225 4.18341935 0.01544148 -0.00948788 0.00616384
H 2.62142166 2.86603319 10.28233712 0.01371740 0.01724013 0.00562242
H 5.50590240 7.26232581 7.91113844 0.00021905 0.00272390 0.01326190
H 5.09240539 5.21776593 9.54575607 -0.02346107 -0.00090100 -0.00253103
H 3.02171780 0.46140419 8.28135346 0.01049604 0.01017112 0.02562354
H 0.30807751 4.71641910 2.11782243 -0.00284557 -0.01383845 -0.00938162
H 2.30400123 9.13239440 3.97928469 0.00540792 0.00197356 0.00024302
H 7.91784986 3.45427013 8.16923185 0.00539027 0.01508416 -0.00114145
H 1.99998825 8.26769885 9.55330766 -0.01619864 0.01553243 -0.00044546
H 18.78939634 5.38245412 4.50233719 0.01224377 0.02072955 0.02985687
H 4.90395602 1.41652377 1.50613115 -0.00764016 0.00200406 0.00589644
H 19.35756894 3.79927333 7.74316053 -0.02388674 0.00743968 0.00181344
H 0.43051983 7.47100365 9.34472175 -0.00994959 -0.01237770 0.02491204
H 4.95689705 7.15946808 3.01830017 -0.00637694 -0.00929368 0.00007568
H 3.48586777 0.27965349 1.37309885 -0.02411684 -0.00057514 -0.01791519
H 0.20449973 2.92328212 8.05689728 -0.01977619 -0.00179601 0.01526145
H 0.42098676 8.77902957 10.46249357 -0.00565581 -0.00141123 0.01602975
H 4.80198221 5.91381258 4.24852004 0.01179905 -0.00538841 0.00215877
H 3.36334447 1.88685592 2.18853571 -0.02249764 -0.01345654 0.02429921
H -1.65939228 8.62996318 14.82800686 -0.02055936 0.00106076 -0.00062572
H 1.27179439 4.10452759 15.10120525 -0.00981034 0.02657158 -0.01455561
H 3.62380751 0.57246170 21.05331777 -0.00028359 0.00091553 0.00276263
H 0.81605470 5.64977914 20.83884340 -0.00213773 0.01609963 0.01019462
H 4.18880173 8.48344778 12.56731925 0.02204553 -0.01237571 0.00726553
H 2.30303910 3.37091414 17.21792531 0.01721557 0.01818449 0.00905887
H -1.78791992 1.70878456 23.08873848 -0.00523011 0.00416772 -0.01316538
H -0.25584235 6.32414385 18.47472376 0.01261860 -0.01069622 -0.01809277
H 2.47055962 6.60647972 22.97143389 0.02612310 0.00218427 0.00433883
H 2.21351800 1.82808719 18.98069740 -0.00825956 0.00848168 -0.00177350
H -0.35870853 2.88162600 12.86345022 0.00948494 0.01585299 0.01373716
H -0.13437037 7.87666999 16.77353513 -0.00918534 0.01057406 0.01188017
H 1.15622890 5.44951507 11.59932762 -0.01266685 -0.01613428 0.00143692
H -1.76645017 0.62060325 18.00549191 0.00634748 0.00373904 -0.00069251
H 0.94027878 4.06236433 24.00556696 -0.02903194 -0.02477352 0.01706354
H 3.73769521 9.17001241 17.84510555 0.00350308 0.00188828 0.00744197
H 1.22604980 7.11121601 13.51504458 -0.01379855 -0.00875823 0.00965861
H -1.62292372 2.18854209 16.03973610 0.00344289 -0.00261136 0.00451872
H 0.88830544 2.51100082 22.13157279 0.01364718 0.00278678 0.01394223
H 3.68842967 7.49098109 19.62603570 0.00704478 -0.00080835 -0.01937786
H 3.53819782 4.86791567 21.62553250 0.01901760 0.02261596 -0.00471362
H 1.27171339 0.13138375 20.00182415 -0.00870479 0.01223403 -0.01477030
H -1.19715789 4.97413541 13.70038775 0.01184499 -0.00205793 -0.01972594
H 0.94471190 9.65436183 15.72281486 0.01598136 -0.00114968 -0.02259899
H 5.00871468 2.67051199 20.50388497 -0.01274568 0.01662586 -0.01300355
H -1.29024190 8.58083116 22.53315953 0.00688930 0.00474296 -0.01924201
H 18.03554971 6.67469941 15.62740006 -0.00265289 -0.00791458 0.00494873
H 3.38540277 1.16083240 13.63640853 0.02055750 -0.00989632 0.00359819
H -1.29514278 2.92812052 20.25246461 0.02550126 0.01300864 0.00458454
H 0.43334880 8.77687146 21.98904791 -0.00100383 -0.01044526 -0.01149622
H 2.87932561 7.02670995 15.76956466 0.01776388 0.02041379 -0.02369066
H 1.78671912 1.42242421 13.94190454 0.01424926 -0.01824432 -0.02361741
H -1.14982801 4.41504397 19.31572904 0.00281192 -0.03310110 -0.02648558
H -0.50005076 7.44407301 21.42759662 -0.01110449 0.00761227 0.00701536
H 3.71757587 5.67911254 16.68593116 0.01741332 -0.02020157 0.02693308
H 3.13311122 2.38800877 14.78424467 -0.01250332 -0.00252557 0.03077550
H -3.28251366 9.14126361 26.60503345 0.01181153 0.01010696 -0.00685206
H -0.40373503 3.93876307 27.07073687 0.00567130 0.00312985 -0.02332387
H 2.12473547 0.49839202 32.94856036 -0.02956352 0.01693733 0.02142449
H -0.69160886 5.39129956 32.32842611 -0.00628610 0.01084148 -0.00978013
H 2.72213992 8.44208427 24.56997319 0.00387344 0.00145432 -0.02363200
H 0.60055461 3.22221498 28.76234805 -0.01631896 -0.00655445 -0.01898517
H -3.36720636 1.45158947 34.79367459 0.03460610 -0.00136486 0.00408505
H -1.72387088 6.09795622 30.42550155 -0.00561450 -0.00663292 0.00383840
H 0.83686176 6.87953674 34.37222631 0.00319045 0.01049797 0.00229978
H 0.58809880 1.70164979 30.87999245 0.01513123 0.01380738 -0.00709155
H -2.09956143 2.91869191 25.08545882 -0.01019682 -0.02877767 0.00976903
H -1.87439341 7.83203494 28.42254502 0.01953030 -0.01280936 0.02400940
H -0.50408026 5.50407924 23.85383552 0.00297794 0.01997372 0.00272508
H -3.31493315 0.51940330 29.98527131 -0.01434314 -0.01780872 0.00105812
H 4.16559556 4.12936896 0.08143794 0.01093686 0.00524537 0.00536225
H 2.01665811 9.23244700 29.66107882 0.01803338 -0.01469782 0.01571914
H -0.58080101 6.80782072 25.92407379 0.00491163 0.01864973 -0.00600952
H -3.25109201 1.87946976 27.76981117 -0.00378633 0.01033026 -0.02544665
H -0.55559314 2.65599893 34.07844471 -0.01324951 0.00292443 0.05090072
H 2.25448301 7.27400151 31.22906653 0.03483662 0.00245153 -0.00115385
H 1.91134735 5.09874651 33.17609580 0.02042163 -0.01317264 -0.00692571
H -0.33902481 0.09158565 32.11192350 -0.02066913 -0.00508044 -0.00838645
H -2.85490212 4.64522953 26.10682376 -0.00611267 -0.03176487 -0.01077466
H -0.70728469 9.31121349 27.03688499 0.03938878 -0.01318130 0.02242444
H 4.31482711 3.76589554 31.25448306 -0.01488921 -0.02009248 -0.01080037
H -2.46933575 7.28791662 32.82654678 0.00213313 -0.02633033 0.01426100
H 16.45943294 6.59315094 27.65054553 -0.00538935 -0.00261485 -0.02229251
H 0.19804355 1.83206911 26.31511905 0.00307922 -0.04110481 0.01191576
H -3.53332084 4.22636320 30.98428490 0.00553536 -0.00064346 0.02193479
H -2.43724740 8.49056057 34.15622037 -0.01289629 -0.03059430 -0.00162589
H 3.38638161 5.59829668 27.81056918 0.01495802 -0.00684439 0.00844670
H 1.95995692 1.87771856 26.10310457 0.00340588 -0.00430053 -0.00696335
H 16.10971415 3.45911579 32.29123303 -0.00251124 0.00000755 -0.01194345
H -0.84768292 8.23808448 33.11451995 0.01374490 -0.00776390 0.00093885
H 2.02445101 6.75931949 27.57661960 0.00165463 -0.00597354 -0.00707144
H 1.01072889 0.70100936 25.28002603 0.00405504 0.02420380 -0.01142506
H -0.08594322 18.60031060 2.86931418 -0.00014981 -0.02455180 0.02107400
H 2.98442430 13.55022281 3.38547764 0.01672838 0.01173573 0.01219825
H 5.29460251 10.51667041 8.96557647 -0.00828338 0.03731792 0.00498709
H 2.60307540 15.30661212 9.10034607 -0.01098558 -0.01641740 0.00125524
H 5.48744220 17.96802795 0.78726366 0.02391856 -0.03213179 0.00586456
H 4.15668610 12.67712769 5.16618206 0.01130891 -0.00339707 0.00196723
H -0.16323652 11.51794167 10.67042851 0.01208831 0.00978905 -0.00036695
H 1.24792186 16.46790036 7.33035788 0.02520630 -0.00712310 0.01260365
H 4.53100491 16.61259385 10.53892679 0.00786961 -0.00809527 -0.02178048
H 3.92013337 10.91134797 7.01223398 -0.01282871 -0.01045627 -0.00007242
H 0.97459270 12.27453679 1.25448170 -0.02736545 0.01035769 0.01637369
H 1.23185747 17.65556426 5.33494318 0.00113668 0.02598250 0.00227186
H 2.48516112 14.79497360 0.19145753 -0.01044119 -0.01096996 -0.02268204
H -0.03405762 10.33285174 6.19205890 -0.00848833 -0.01311343 -0.00063760
H 2.54017773 13.99173192 12.06251814 -0.00242115 0.01223948 0.00077856
H 5.34565201 18.96963481 6.10438025 -0.00079595 0.00414225 0.00524774
H 2.70216716 16.39060724 2.00121320 -0.00673939 -0.00778334 0.00190689
H -0.08199741 12.19594531 4.55623860 0.01748230 0.01235453 0.01535781
H 2.49480396 12.42597503 10.14168928 0.00449094 0.02045846 -0.02935894
H 5.44650287 17.09951008 7.72123825 0.00161963 -0.01587606 -0.00382187
H 5.27288338 14.74126882 9.67586287 -0.00552578 -0.04255416 0.01607131
H 2.79379658 9.58381042 8.22789296 0.01583856 -0.01410788 0.02722407
H 0.21071020 14.09217364 2.18928034 0.01337240 0.00187089 -0.00908654
H 2.19327646 19.06189306 3.75624797 -0.03172484 0.00100919 0.00334473
H 5.88807785 13.54104413 8.03829518 -0.00636712 0.00100503 -0.00961023
H 2.41872432 18.65079216 10.10211802 -0.00261735 -0.00397580 0.02122038
H 19.02656013 16.49648877 3.15014377 -0.01056946 0.02361188 0.00291205
H 4.48600398 11.31038478 2.34992865 -0.00153378 -0.02677875 -0.01764559
H -0.48465478 12.71009854 8.10687294 0.00677872 0.00062321 0.00415263
H 0.86490792 17.49842432 9.98256607 0.00676107 0.00925939 -0.02884658
H 6.45719719 15.77281734 3.73895031 0.02636601 0.00013988 0.00706935
H 3.40574966 9.99743000 1.64088681 0.00719431 0.01391763 -0.01997441
H 0.15248603 14.04642586 7.02138520 -0.00544082 0.00249576 -0.00987420
H 0.82067660 19.03355187 10.76630517 -0.00868315 0.01334987 -0.00633093
H 4.98800976 16.69093583 3.31270300 0.00824496 -0.03267093 0.02027724
H 2.78751388 10.91660091 2.83063530 0.00409015 -0.00686417 -0.00074364
H -1.58058301 18.26849560 14.70965868 -0.01381089 -0.00428460 -0.03168219
H 1.28299785 13.74012266 15.60503592 0.00277779 -0.00813385 0.01095283
H 3.89930358 10.28360559 21.12122643 -0.00606881 -0.01142022 0.00641684
H 1.05431339 14.88268563 20.74650465 -0.00254313 -0.01398141 0.00912594
H 4.41095523 18.20037766 12.49248419 -0.00602374 -0.00244402 -0.02175899
H 2.17799971 12.92661209 17.60734030 -0.00364301 -0.03230408 0.02064981
H -1.77393691 11.46747569 22.77963715 -0.00055334 0.00526303 0.00979241
H -0.15839038 15.88039329 18.83646614 0.00367946 0.00677434 -0.01664389
H 2.71342434 16.48998843 22.71081398 -0.00541704 0.02377254 -0.02134684
H 1.99220188 11.49864059 19.46403375 0.00398190 0.00698168 -0.00125310
H -0.05308473 12.78894722 12.78895003 -0.01598220 -0.01218342 -0.02450332
H -0.14524929 17.61028436 17.08418949 0.00463296 -0.00812212 0.01032248
H 1.32507805 15.24265719 11.49671182 0.02179014 0.00200102 -0.00845807
H -1.83225983 10.23340743 18.20903485 -0.01138478 -0.00854783 -0.01931076
H 1.01122734 13.76249839 24.10043783 -0.00401373 -0.01011754 0.01186418
H 4.04822045 18.37691165 17.86563486 -0.00399809 -0.00976154 0.00423106
H 1.33426643 16.48902147 13.57065578 -0.01493063 0.00651201 -0.01353181
H -1.74375503 11.73077960 16.23969963 0.02054807 0.01164193 0.00085475
H 1.15858001 12.27370064 22.08121957 0.01477714 0.00057593 0.00347348
H 3.93490869 16.89719955 19.80468370 0.01206388 -0.01916794 -0.01184621
H 3.44854386 14.53307813 21.81253989 -0.00559202 0.00120013 -0.02289965
H 1.13156596 9.80291736 20.29907197 -0.02262370 0.02062283 -0.02747121
H -1.10605909 14.24616751 14.22807879 0.00994682 -0.03265001 0.00792126
H 0.99004756 19.11643656 15.78095861 0.01027177 0.00177412 0.01848962
H 5.52154386 13.38597254 19.51265971 -0.00271511 -0.01355828 0.01031949
H -0.35953256 18.04756880 22.51611155 0.01320753 -0.00415331 -0.02404050
H 17.66011532 16.50156258 15.62376179 0.01636369 0.00639448 -0.00501855
H 1.55189621 10.96981189 14.02765077 -0.00185724 0.01340825 -0.00533901
H -0.95790252 13.46599447 19.37704838 -0.00451125 -0.01221939 0.01548067
H 0.99831737 17.51124932 21.46711281 -0.00469888 0.01961858 -0.04384491
H 4.48941097 16.37378847 15.16078553 -0.00550696 0.02714331 0.02106207
H 2.79673848 12.01296103 14.73058091 0.01524146 0.02022674 -0.02016771
H 17.99743253 13.87187688 19.44848377 -0.00738576 -0.00701784 -0.00329243
H -0.61505149 16.78287048 21.34078170 -0.00873723 -0.00299143 0.00134756
H 2.95786178 15.94271265 16.08465869 -0.04872419 0.03068641 0.01132472
H 3.16679326 10.92662590 13.35751237 -0.00214950 -0.01591607 0.01409426
H -3.27342590 18.57164733 26.81257187 0.00234718 0.04027761 0.00931694
H -0.24338968 13.54680818 26.85158319 -0.00957519 -0.00677582 -0.02292336
H 2.34953502 10.20223582 33.06862275 0.00367741 0.01300884 -0.01031461
H -0.73837311 14.69948285 32.58489851 0.01498341 0.00719608 0.03092451
H 2.49906358 17.77986498 24.82286336 -0.01463034 -0.01393771 -0.01564396
H 0.80321485 12.90546592 28.67585987 0.01654568 0.00374856 0.03347263
H -3.66409182 11.04636656 34.87084128 0.01232096 0.01924302 0.03471022
H -1.70984478 15.57522121 30.74078258 -0.00464327 0.01033412 -0.01892862
H 0.96716172 16.58589855 34.60814941 -0.00084733 -0.00954828 0.02117438
H 0.81790120 11.47985105 30.71955010 0.00010924 0.02263019 -0.00323293
H -1.86456048 12.95662262 24.68885769 -0.00187906 0.00382332 0.01335604
H -1.77974485 17.18563004 28.78038329 0.00122738 -0.01197761 0.00203027
H -0.34579968 15.35337104 23.57035378 -0.00963224 -0.00804487 -0.01597793
H -3.20694129 10.28422902 29.73929868 0.01804685 -0.01662966 0.01759382
H 4.13742122 13.63277684 0.14671331 -0.00251036 0.00252927 0.00694996
H 2.23517488 18.30966569 29.96655873 0.01258766 0.02813337 -0.00917684
H -0.40606684 16.63162442 25.69831191 0.02119250 0.01610653 0.00712943
H -3.15323322 11.54477841 27.70651722 0.01143842 0.00995631 0.00987402
H -0.55433912 12.09105848 34.07105758 -0.01465574 0.00593856 -0.00251027