2160
Time=94000.00000000 pbc="T T T" Lattice="20.58204747 0.00000000 0.00000000 0.00000000 29.04381783 0.00000000 -4.71001652 0.00000000 35.27418241" energy=-13797.55321300 virial="-23.86879424 -41.35958321 65.74489040 -41.35958321 2.84015642 3.88591921 65.74489040 3.88591921 10.19176890" stress="0.00136544 -0.00186525 0.00312378 -0.00186525 0.00252051 0.00015339 0.00312378 0.00015339 0.00290902" Properties=species:S:1:pos:R:3:vel:R:3
O 0.53971818 8.34466264 2.37493087 0.00277940 -0.01052296 0.00669264
O 1.81384237 3.78568342 3.32924703 0.00307325 0.00142851 -0.00402992
O 4.97768717 1.15414232 9.11138529 0.00111908 -0.00328800 -0.00130950
O 3.76929231 5.62925897 8.13080337 -0.00257263 -0.00038037 0.00385320
O 1.39877406 4.94572740 9.25340718 0.00038960 -0.00305652 0.00065163
O -0.23346872 10.00339056 8.03946748 0.00190768 0.00688425 -0.00537642
O 3.79343676 4.89982893 2.17550895 0.00043507 0.00041890 -0.00213628
O 5.52036457 28.92810059 3.60145991 -0.00144048 -0.00165214 -0.00608832
O -0.81086482 9.16274968 13.67832483 0.00129633 0.00247201 0.00080419
O 0.63853304 3.78393472 15.29823074 -0.00151806 0.00133828 0.00202277
O 3.12688474 1.29213644 20.93800212 0.00054629 0.00182480 -0.00451137
O 1.83493036 5.73412633 20.15236330 -0.00240018 0.00239449 -0.00166508
O -0.29750553 4.78877255 21.15585617 -0.00123820 0.00545382 0.00240406
O -1.68564294 9.67344900 19.95587848 -0.00206460 -0.00467403 0.00257849
O 2.39766053 4.84173245 13.77443054 0.00314982 0.00626211 -0.00399096
O 3.79564040 28.68440922 15.33802639 0.00428384 0.00079652 0.00260213
O -2.57677123 8.30381126 25.95661161 0.00430087 0.00603457 0.00027309
O -1.42993560 3.99987112 27.18477452 -0.00458049 -0.00551722 -0.00134270
O 1.49341397 1.21187205 32.74478575 -0.00916033 -0.00179847 -0.00057645
O 0.02795905 6.07791471 31.53313897 -0.00192182 -0.00052429 -0.00339183
O -1.80510886 4.94521596 32.94713595 -0.00166240 0.00294646 -0.00575645
O -3.31976429 9.60893770 31.57784623 0.00011016 -0.00333719 0.00260187
O 0.63037828 4.64355387 25.64298190 -0.00226335 0.00184043 0.00182679
O 2.45178225 0.10569030 26.99155680 0.00042240 -0.00035796 0.00257929
O 0.85212732 18.55323856 2.25968072 -0.00549948 -0.00451246 0.00271680
O 1.96744887 13.46341158 3.30898182 0.00551971 -0.00103284 -0.00143827
O 4.60577214 11.03182485 9.34944406 0.00291459 -0.00676531 -0.00199247
O 3.35970343 15.72769797 8.28708980 -0.00837174 -0.00026166 -0.00426826
O 1.34056089 14.79730915 9.60706346 0.01151071 0.00191560 -0.00013237
O -0.25737864 19.58093318 7.91827088 0.00168159 0.00629476 -0.00683470
O 4.02135164 14.74785428 2.18048313 0.00297651 -0.00355611 0.00336448
O 5.33016705 9.35497059 3.11286895 0.00107335 -0.00342900 0.00594109
O -1.03143028 18.41111626 14.14413188 -0.00984569 0.00206387 0.00972130
O 0.76480743 13.41964637 15.51566975 -0.00923513 -0.00511021 -0.00206993
O 3.04083102 10.75913738 21.07885716 -0.00148841 -0.00030995 -0.00040336
O 1.77372349 15.68942033 20.09219850 0.00623795 0.00621939 -0.00122375
O -0.23966838 14.53564233 21.10243069 -0.00034765 -0.00106563 0.00879434
O -1.99212427 19.43723164 19.88151857 0.00067120 -0.00144117 -0.00014068
O 2.56756569 14.53005175 14.04382632 -0.00714196 -0.00199293 0.00298646
O 4.17926762 9.50899355 15.43433053 -0.00755644 -0.00256099 -0.00168531
O -2.21206235 18.35369663 25.85834158 -0.00284510 -0.00563952 -0.01099599
O -1.37845886 13.77111310 27.15426674 -0.00213988 0.00073749 0.00005337
O 1.53317604 10.56900861 33.23809498 0.00079298 0.00249161 -0.00014544
O 0.09434965 16.00796411 32.03156738 -0.00193987 0.00070524 0.00099552
O -1.77842482 14.51541971 33.02326306 0.00507289 0.00383418 0.00298319
O -3.39910163 19.29679446 31.57898366 -0.00032668 -0.00577088 -0.00480682
O 0.82384969 14.40633133 25.77353823 -0.00152070 0.00124780 0.00346514
O 2.46207247 9.97206946 27.00352987 0.00940679 -0.00135655 -0.00177887
O 0.66140167 28.08415500 2.54733000 -0.00173559 0.00101486 0.00209573
O 2.21915920 23.11396993 3.43799762 -0.00027928 -0.00201697 -0.00164325
O 4.33903505 20.38124501 9.38434664 -0.00091157 0.00383580 -0.00410380
O 3.46967509 24.96563692 8.08185562 0.00439423 -0.00016234 0.00115425
O 1.28392260 24.25433838 9.44302288 0.00887737 -0.00512314 -0.00665005
O -0.15138527 28.82814666 8.00743827 -0.00464687 0.00185136 0.00174912
O 4.06783203 24.34412116 2.22030290 0.00422364 0.00530008 -0.00277085
O 5.49132689 19.37065694 3.63979057 0.00153894 0.00105028 0.00431487
O -0.70387089 28.07727517 14.16293407 -0.00411275 -0.00285330 0.00113204
O 0.31617877 23.18698594 15.34611785 -0.00025795 -0.00210131 -0.00291371
O 2.75321018 20.38447681 21.07908006 -0.00290111 -0.00122860 0.00137616
O 1.73804087 25.06970067 19.98088235 -0.00274197 0.00154428 0.00059087
O -0.21921611 24.12992845 21.31850360 -0.00067024 0.00364287 -0.00167988
O -1.95955655 0.00185959 19.72970346 -0.01019774 -0.00331785 -0.00117478
O 2.37069712 24.38512027 13.97369826 -0.00149888 -0.00002678 -0.00152008
O 3.76933348 19.59630346 15.41351898 -0.00342697 0.00093018 -0.00090228
O -2.35871136 28.02909023 25.92939716 -0.00542115 -0.00029128 -0.00015173
O -1.45058169 23.21151449 26.99604446 0.00127600 -0.00369318 0.00098230
O 1.29688790 20.51094633 32.84776848 0.00174193 -0.00485274 0.00230097
O -0.01703542 25.31161707 31.43871537 -0.00004183 0.00096773 -0.00258838
O -2.07871549 24.59172187 32.98837604 0.00116944 -0.00115099 -0.00529509
O -3.48180668 28.95165204 31.63252907 -0.00045692 0.00777288 -0.00768587
O 0.85017250 24.00764418 25.81589563 0.00626633 -0.00302091 -0.00265164
O 2.24220370 19.33354527 27.12367142 -0.00036387 -0.00419276 -0.00028504
O 7.59674919 8.44450002 2.41887431 -0.00056798 -0.00654859 0.00636602
O 8.72847020 3.64499785 3.26069439 -0.00245200 -0.00164965 -0.00430607
O 11.65509141 1.02543110 9.48187726 0.00137050 -0.00054445 -0.00044864
O 10.36216524 5.91559592 8.13576752 0.00133333 0.00145052 0.00337495
O 8.30143351 5.10937713 9.35330476 0.00059882 0.00179572 0.00010501
O 6.52510321 9.87408665 7.99743748 0.00800251 0.00192682 -0.00304982
O 10.83653799 4.87416557 2.46207795 0.00414931 -0.00065617 -0.00103048
O 12.51337012 0.06959787 3.43988609 0.00097688 -0.00003400 0.00018615
O 6.32063260 8.80856983 14.02726681 0.00313743 -0.00227928 0.00230021
O 7.33634289 3.49242568 15.04017556 0.00037045 -0.00508280 -0.00074472
O 9.58679742 0.88218748 20.97778463 -0.00230225 -0.00069043 0.00480685
O 8.39933751 5.99315604 20.16441715 -0.00218804 0.00189955 0.00004237
O 6.59520110 4.56267081 21.48936585 -0.00142750 0.00215462 0.00362822
O 4.89604452 9.64530255 19.67020574 -0.00694810 -0.00258428 -0.00318637
O 9.21553181 4.98676469 13.92763055 0.00114586 -0.00078945 -0.00261080
O 10.56747803 28.25016919 14.95960838 -0.00065714 -0.00425605 -0.00070282
O 4.39846347 8.77982967 25.89599259 0.00064918 0.00549058 -0.00777393
O 5.56477545 4.05585364 27.24633154 0.00017311 0.00002454 -0.00095149
O 8.32710424 0.89453494 33.16492610 -0.00250758 0.00507228 -0.00097117
O 6.82347378 6.06552382 31.90559531 -0.00559354 0.00256283 0.00638461
O 4.62647085 4.89291426 32.85102018 -0.00131006 -0.00069059 -0.00452806
O 3.26736875 9.60650388 31.60445213 0.00150076 0.00420143 0.00120172
O 7.57874534 4.56824930 25.73555756 0.00495851 -0.00484548 0.00126789
O 9.10446417 28.84296370 26.98580164 -0.00865481 -0.00094506 0.01298266
O 7.73241229 18.45663404 2.80768352 -0.00619251 -0.00052611 0.00065704
O 8.88035286 13.47469182 3.37029578 0.00233449 -0.00386950 0.00080652
O 11.60952585 10.50035003 9.59231035 -0.00227389 -0.01036471 0.00144408
O 10.20242009 15.84282566 8.74090604 -0.00085780 -0.01108513 -0.00020487
O 8.18256419 14.50722396 9.70458898 0.00428879 0.00160093 0.00005779
O 6.54241312 19.56478570 8.05144320 0.00172423 0.00664902 -0.00031516
O 10.89506547 14.57565081 2.36533343 -0.00147078 -0.00195227 0.00322284
O 12.40393119 9.96506038 3.62010671 -0.00752910 0.00501859 -0.00158255
O 5.78511033 18.58148208 14.09080807 0.00228523 0.00103318 0.00117811
O 7.66550841 13.50420346 15.45161064 -0.00487627 -0.00080327 -0.00149684
O 9.97462711 10.33106227 21.39537876 0.00027567 0.00248379 -0.00772662
O 8.73758293 15.54252675 20.14681420 0.00019701 -0.00345934 0.00022031
O 6.69789847 14.32461670 21.22024758 -0.00070186 -0.00299612 -0.00674316
O 5.03832181 19.50499052 20.03356970 0.00613627 0.00626463 -0.00153399
O 9.47099733 14.73398586 13.87817272 -0.00115712 0.00285280 0.00091330
O 11.00387112 9.98791657 15.68839399 -0.00406535 0.00589144 -0.00133746
O 4.23848126 18.10235911 25.89490244 0.00954553 -0.00393712 -0.00085073
O 5.72155069 13.48114109 27.13310806 0.00233223 -0.00031849 0.00020845
O 7.96927983 10.37123561 33.36290016 0.00065650 -0.00735433 0.00376358
O 7.05352423 15.57436238 31.82511339 -0.00434568 -0.00334834 -0.00249848
O 4.91421579 14.84269800 33.10709929 -0.00566786 0.00135849 -0.00557548
O 3.69697707 19.81060295 32.03293849 -0.00677168 0.00177696 0.00500286
O 7.46475771 14.30225718 25.59593438 0.00311375 0.00285922 -0.00011568
O 9.56514578 9.43289365 27.33020135 0.00263619 0.00395760 0.00512010
O 7.55740082 27.77808361 2.52381485 0.00072471 0.00349251 0.00203225
O 8.82267424 23.38717582 3.61412921 0.00023918 0.00195785 -0.00693543
O 11.08368821 20.17219104 9.32005510 -0.00267568 -0.00350450 0.00413534
O 10.28578338 25.48081726 8.25081902 -0.00658945 0.00259172 0.00436190
O 8.10731859 24.40876882 9.29841939 -0.00447897 0.00108786 -0.00086740
O 6.85167750 28.69703360 7.89649860 0.00186803 -0.00054991 -0.00054002
O 10.86940671 24.49323579 2.21815659 0.00257992 -0.00546098 -0.00137601
O 12.49741880 19.09945559 3.65758340 0.00006613 0.00130362 0.00199848
O 6.06481388 27.83704027 14.23714393 0.00076591 0.00347332 0.00139195
O 7.05795193 23.00571177 15.17449416 0.00420193 -0.00169771 -0.00228077
O 10.05726070 20.46253266 20.82965454 0.00629678 0.00520406 0.00518905
O 8.39169366 25.49047298 20.13014094 0.00273084 0.00790171 -0.01091918
O 6.30748189 23.86961358 21.37747454 -0.00049899 -0.00611765 0.00186957
O 5.02478031 29.00885755 20.07981756 0.00162932 -0.00576080 -0.00440063
O 9.36177029 23.79778633 14.02081877 0.00030289 0.00140179 -0.00032198
O 10.70261434 19.23637620 15.40783270 -0.00279204 -0.00055937 0.00105637
O 4.27556555 27.87192381 25.85563881 0.00235790 0.00204389 0.00651160
O 5.54681960 23.13853860 27.08191806 -0.00648858 0.00117517 -0.00253270
O 8.35614559 20.35916966 33.07325294 0.00071997 0.00023246 -0.00089201
O 7.15140726 25.14657256 31.79159273 -0.00315054 0.00237745 -0.00111161
O 4.77918532 24.38448207 32.85963568 -0.00205632 -0.00113948 0.00011150
O 3.59318267 0.19979245 31.62944286 0.00434796 -0.00238438 0.00314722
O 7.62697977 23.95866627 25.58188723 0.00028618 0.00203070 0.00413485
O 9.36399995 19.01874514 27.06391762 0.00020417 0.00591311 -0.00233749
O 14.51621342 8.84827418 2.24659952 0.00048957 0.00190868 -0.00532674
O 15.67512573 3.64059151 3.60520850 -0.00748325 -0.00338805 0.00891025
O 18.52517549 1.16950758 9.73312919 -0.00395812 -0.00177523 -0.00211405
O 17.09505945 5.51570221 8.06665802 -0.00102184 0.00099871 0.00076503
O 14.94800992 4.86070897 9.60418532 -0.00589672 -0.00209645 -0.00146218
O 13.50760900 9.40242427 8.11397602 0.00107688 -0.00618171 0.00495591
O 17.68941594 4.49319499 2.12888342 0.00445154 0.00587381 -0.00179667
O 19.28990769 0.14561200 3.80141205 0.00214701 0.00211312 0.00230144
O 12.79125114 8.63532870 14.33714155 -0.00074323 0.00020757 0.00185153
O 14.02042717 3.75547262 15.34098702 -0.00424826 -0.00084923 0.00217491
O 16.65766251 1.15045834 20.77515934 0.00260000 -0.00718986 -0.00381232
O 15.55310624 5.71709591 19.88037460 -0.00000693 0.00058796 0.00088113
O 13.46353110 4.80524174 21.43494349 -0.00462588 -0.00338506 -0.00120627
O 11.97323246 9.42414938 19.92790215 -0.00176047 0.00038238 -0.00138015
O 16.30928181 4.69799090 14.60596259 -0.00463819 -0.00054054 0.00102685
O 17.60707328 28.93492104 15.09168313 -0.00251714 -0.00184794 -0.00266993
O 11.29175156 8.79474334 25.60119294 -0.00177021 0.00634140 0.00185772
O 12.38921938 4.17542294 27.20557466 -0.00359468 0.00447090 -0.00222568
O 15.10791985 1.19101535 32.65439038 0.00247143 0.00775685 0.00513217
O 13.74157042 5.73506122 31.73778930 0.00234796 0.00886347 0.00442698
O 11.81599524 4.71111175 33.24919787 0.00344038 -0.00067190 0.00913118
O 10.25611729 10.17423651 31.87061118 0.00048794 0.00177041 0.00028965
O 14.56010334 5.07859246 25.75357925 0.00382962 0.00174805 0.00155040
O 16.16196432 28.96802938 27.05475370 -0.00199089 0.00039779 0.00516757
O 14.83141682 18.42663110 2.71850993 0.00035329 0.00823025 -0.00149616
O 15.82048168 13.08409522 3.45865876 0.00298153 0.00153428 -0.00402948
O 18.26109525 11.12466935 9.18840043 0.00827467 -0.00098067 -0.00182116
O 17.22917159 15.25836353 8.13634858 0.00337824 -0.00025920 -0.00446200
O 15.18320762 14.83568521 9.52333789 -0.00061316 0.00205608 -0.00160288
O 13.39252977 19.64696085 8.30493807 -0.00423745 0.00424280 -0.00222185
O 17.80250823 14.18887163 2.22784446 -0.00244621 -0.01150104 0.00765843
O 19.26391444 9.70448648 3.66015773 0.00164503 0.00349084 -0.00083490
O 12.78717980 18.15751752 14.32070142 -0.00116156 -0.00406498 0.00738094
O 14.35024703 13.51542027 15.71728607 0.00526092 0.00355293 -0.00235389
O 16.75668062 10.62769379 21.24565226 0.00459664 -0.00213179 0.00250794
O 15.52722774 15.78192161 20.27317145 0.00165674 -0.00435298 0.00256701
O 13.57400522 14.45188739 21.24690647 0.00166071 0.00147553 -0.00141775
O 11.82026840 18.97213594 19.95055981 0.00363183 -0.00185954 -0.00574626
O 16.40525842 14.50295249 14.34375901 0.00370096 0.00795668 -0.00425558
O 17.79895307 9.85451872 15.50953536 0.00533546 0.00668821 -0.00147711
O 11.21753321 18.49969384 25.44279230 -0.00242218 -0.00061643 -0.00740438
O 12.27876390 13.72262229 27.06347695 -0.00675584 -0.00585426 -0.00276118
O 15.31594903 11.12204052 32.41435021 -0.00105933 -0.00550580 0.00317338
O 13.82713558 15.11540933 31.18735417 -0.00262673 0.00389787 -0.00092762
O 11.93828006 14.90027147 32.91929298 0.00238880 -0.00213940 0.00125674
O 10.28169350 19.26096458 31.66282856 0.00065015 0.00655166 0.00096170
O 14.70908278 14.42123239 25.92802502 0.00262577 0.00777258 -0.00076043
O 16.23004403 9.60991313 27.16041210 -0.00521231 -0.00037264 0.00070233
O 14.55027029 28.06592145 2.38233561 -0.00427458 -0.00161117 0.00316717
O 15.64505688 23.31585462 3.73145646 0.00643915 0.00258327 -0.00007421
O 18.40743552 20.16148562 9.49887633 0.00484762 -0.00339039 -0.00017428
O 17.30146424 24.99674513 8.04323052 0.00257041 -0.00208650 0.00318776
O 15.07420743 24.07625566 9.31431527 -0.00078335 0.00115015 -0.00127844
O 13.59510857 28.84732648 8.33412842 -0.00192598 -0.00041998 -0.00291252
O 17.69146348 23.91973307 2.48367539 -0.00027184 0.00021776 -0.00186189
O 19.50023742 19.46555426 3.75619061 0.00144509 0.00147435 0.00733433
O 13.02829051 27.70669928 14.14570073 -0.00807081 0.00157103 0.00257027
O 13.87924850 22.77996256 15.21488143 -0.00076142 0.00483540 0.00311019
O 16.51982749 20.26635296 21.29756042 -0.00496009 0.00242795 0.00589579
O 15.37113396 25.28141519 20.14064681 -0.00012098 -0.00362381 0.00097648
O 13.53844267 24.10454720 21.42543706 0.00413563 -0.00469689 0.00408342
O 11.92169357 28.92446108 19.94186443 -0.00394773 0.00549979 -0.00094762
O 15.89520864 24.07573688 13.86126678 -0.00242890 0.00397688 -0.00251416
O 17.51264774 19.55544125 15.50103676 0.00343827 -0.00373066 -0.00121364
O 11.34656383 28.35101913 25.73391439 -0.00774562 0.00428992 -0.00067316
O 12.60920083 22.86881314 26.90099639 -0.00035122 0.00545654 -0.00301552
O 15.14391225 20.41443161 32.90026550 0.00296407 0.00550639 -0.00094191
O 13.98642610 25.09167249 31.61888113 0.00160134 -0.00391556 0.00090100
O 11.85404084 24.53633439 32.93047217 0.00330327 -0.00181591 -0.01010088
O 10.29899986 0.33505442 31.51154645 -0.00000577 0.00259655 -0.00215017
O 14.47980680 24.41748298 25.64503771 0.00132921 -0.00387373 -0.00547052
O 16.08550669 19.29981682 27.18096870 -0.00045453 -0.00186297 0.00398701
H -0.25584294 8.80012390 2.69660419 0.00812346 0.00203933 -0.03498988
H 2.66587782 4.11101948 2.97203378 0.00815117 -0.00772644 0.01173014
H 5.65287650 0.46033519 8.92757296 -0.01537653 -0.00111693 0.02444244
H 2.93061021 5.22783430 8.39136180 -0.02098879 -0.01920088 -0.03109784
H 5.59494340 8.40653437 0.62426425 -0.00404540 0.00009477 0.03321366
H 4.03318672 3.22132390 4.82600811 -0.00917813 0.00177890 0.00547341
H -0.19109275 1.75526432 11.50228303 0.00635867 -0.02082301 0.00893756
H 1.56142527 6.27927513 6.79079984 0.00555676 -0.01796238 0.00514125
H 4.20338463 6.72828403 10.58033591 -0.00096636 -0.01507395 -0.00079829
H 4.01137383 1.79035592 6.70199105 -0.01303608 0.01143325 0.00679661
H 1.22166144 2.91836655 1.11230578 -0.00891220 -0.01852354 -0.00285206
H 1.34000403 7.75677620 4.96113030 -0.02714349 0.00098038 -0.01823456
H -2.04543439 5.25472794 35.05621501 -0.01527884 0.02084930 0.00897570
H -0.18120560 0.80293462 6.16743671 0.00002041 -0.02817442 -0.00987107
H 2.61479150 4.04333100 11.51349716 0.00995922 0.01508432 0.02401382
H 5.45104862 8.91759699 5.36914728 -0.00432731 0.00400314 -0.04128196
H 2.63672292 7.05204188 1.56350301 -0.02696247 -0.01473235 -0.02172424
H -0.27820536 2.46606550 4.31433098 -0.00049332 0.01890563 0.01879433
H 3.09707366 2.78831314 9.50129625 -0.02332297 -0.01825620 -0.00243045
H 5.67380761 7.36242824 7.35008059 -0.03791133 0.02062120 0.01839629
H 5.10723483 5.01150533 9.45226135 0.02000431 -0.00169406 0.00486132
H 2.92444699 0.11017885 7.93858223 -0.01469509 0.00510873 -0.00178377
H 0.30176944 4.73071106 2.07900090 0.01484968 0.02594540 -0.01679859
H 2.23724584 9.76149313 3.75595419 0.00988508 0.00852600 0.00525205
H 5.63334882 3.77718878 7.91193785 0.01571391 -0.01412039 -0.02392529
H 0.35536019 8.77938432 10.15558889 0.00533398 -0.01142915 -0.02991660
H 19.76825271 5.06909570 4.39771863 -0.01444355 -0.01297396 0.00909308
H 4.69978976 1.12423904 1.40867205 -0.00279392 -0.00531677 0.01406372
H 19.37777420 3.15187078 8.20369907 -0.03142423 0.01383605 0.00203963
H 2.19710035 8.64378096 9.77222222 0.01407440 -0.00334325 -0.00337777
H 5.61779058 7.00668892 3.50948165 0.02766580 0.01472537 0.01423412
H 3.01101140 0.98676336 2.05732297 -0.01581050 0.01670534 0.00859006
H 0.40762459 2.58755236 8.43646022 -0.01743903 0.00660987 -0.00134316
H 0.95545021 7.65820001 9.11066112 -0.01672371 0.01247319 -0.00143176
H 4.53498336 5.80939217 4.52686905 0.00340806 0.03526619 0.00234595
H 4.26551071 2.12503597 2.62280870 -0.01317370 -0.00867463 -0.00000735
H -1.67918955 9.21815647 14.25396951 -0.00088340 -0.01593688 0.00189250
H 1.41265365 4.18968944 14.76966165 -0.00508525 0.03515375 0.01231009
H 3.87179313 0.65717171 20.78831622 -0.01971514 0.02154688 -0.00056908
H 0.89675103 5.42745367 20.21169635 -0.00548201 0.01468273 0.00243597
H 4.30239347 8.48042633 12.37291184 -0.02047800 0.00414263 0.00952717
H 2.45109900 3.34225824 17.15633723 0.00387884 0.01641037 0.00020401
H -1.97244864 1.46805215 22.65220910 -0.01756608 -0.01207655 -0.02728200
H -0.03112966 6.07633573 18.45458889 0.02204809 0.02191555 -0.00936766
H 2.51375377 6.60914180 22.37934343 -0.00288710 -0.02117465 -0.00830729
H 2.28254173 1.69842391 18.90897885 -0.00028577 -0.00736643 0.01812505
H -0.20798032 3.57638746 13.11897772 -0.01870892 -0.01899366 0.03126762
H -0.08153596 7.86426903 16.73514194 -0.02152745 -0.00120134 0.00730533
H 1.27271243 5.69133131 11.66700805 0.00435968 -0.00001167 -0.01943561
H -1.59960410 0.54112459 17.55202991 0.00028413 0.01700868 0.00153340
H 0.95014326 4.25589265 23.51762470 -0.01392268 -0.01682334 0.01208560
H 4.02597117 8.67926975 17.46998241 0.01705971 -0.00600113 -0.00554481
H 1.14590821 7.45631666 13.30893663 0.01001984 0.00103984 0.00581914
H -1.54268595 2.36294202 15.87976879 0.03984207 0.00499023 0.01541247
H 1.05760908 2.70699913 21.52289810 0.02230449 -0.00020832 -0.00660105
H 4.10625281 6.90813998 19.15998454 -0.00734106 -0.02801400 0.01548725
H 3.51857442 5.13497151 21.34574267 0.01410846 0.01708952 0.02474310
H 1.05496581 0.08995278 20.02144653 -0.00887109 0.01252446 -0.03049778
H -1.33589136 5.58947046 13.80808892 0.04826290 0.00371384 -0.00274086
H 1.03061543 9.68755548 15.54214988 0.00741121 -0.00593886 0.01171925
H 5.06857712 2.61569995 20.22983099 0.01249005 0.02504192 -0.00462302
H -0.18702080 9.01692345 22.40438606 0.01080228 0.00921215 0.01958129
H -1.75472069 6.19326874 16.03461642 0.01350880 -0.01897210 -0.01065470
H 2.85933865 2.23726769 14.51590096 -0.00430233 -0.01508160 0.00046051
H -2.12536138 2.56530832 20.16125365 0.01697373 0.00159961 -0.02489615
H 0.67100446 7.95557575 21.24793021 -0.01162190 0.02453406 -0.01487220
H 2.96167218 5.82942668 16.12366862 0.00458184 0.01090157 -0.01660434
H 3.14301144 1.02638606 13.23002156 0.00070669 0.00754020 0.00990561
H -1.27359379 3.51277300 18.97255289 -0.00027110 0.00397048 -0.00089343
H -1.01613660 7.66447147 21.59720359 -0.00971635 -0.02260263 0.03064559
H 4.32108325 4.82014693 16.09768459 0.03041652 0.01823323 -0.01238550
H 1.46056170 1.27545705 13.98529851 -0.01111827 -0.01222546 0.00146952
H -3.44595008 8.69754020 26.14596497 -0.00020553 0.01764372 0.02612245
H -0.53970313 4.17509899 26.60100739 -0.02001813 -0.02229453 0.02726690
H 2.35778324 0.69719235 32.75796218 -0.00435833 -0.01812683 -0.01929081
H -0.87879937 5.63119048 31.79872678 -0.00218553 -0.00820833 0.02173004
H 2.35737542 8.17138763 24.29896332 0.02899790 -0.01103897 -0.00464895
H 0.68767068 3.29637275 28.56692654 -0.00684417 -0.00755652 -0.01303928
H -3.28321621 1.50048950 34.38373191 0.01601669 0.00699369 0.00808373
H -1.86524170 6.61952726 29.72865369 0.00897062 -0.01024688 0.00605404
H 0.56587271 6.61161996 34.14442117 -0.01290606 0.01471574 0.02115145
H 0.73578775 1.81300819 30.53672786 0.01307876 -0.01731689 0.00993111
H -1.91639259 3.17424080 24.31942208 0.01338558 0.00955598 -0.01180890
H -1.69158382 8.31741251 27.99652958 0.01205374 0.00380682 -0.00399453
H -0.46583344 5.37617111 23.32829575 -0.02154674 0.01215844 0.02452274
H -3.32627281 0.50646100 29.52178121 -0.00386773 -0.00041975 0.00429110
H 4.01306453 3.92533940 0.28009414 0.03055309 0.02265069 0.00629747
H 2.24319298 9.08087253 29.12522688 -0.00456695 -0.01576006 -0.02486903
H -0.35532485 6.97195410 25.03312251 0.01726078 -0.02592200 0.00397104
H -3.39346992 2.32748619 27.92041861 -0.00927456 0.01412822 0.00301904
H -0.64962450 2.65589530 33.51231830 -0.00095561 0.01567208 0.00892740
H 2.13474542 7.42656674 30.98240191 0.00675549 -0.02195553 -0.01121903
H 1.40500467 4.95574607 32.89935001 -0.02505302 -0.00343426 -0.00451844
H -0.22441723 28.85191132 31.41688816 -0.01357221 -0.00726728 0.00480302
H -2.86002041 4.75704645 25.36422116 -0.00150800 -0.01436284 0.01053487
H -0.64309348 9.86162155 27.03066147 0.04436991 -0.00002279 0.00488344
H 2.08531150 3.91200111 31.19206039 0.00905718 0.00770369 0.01281905
H -1.92097807 7.30115206 32.32368667 -0.00399685 0.00752537 0.00625398
H 16.16298395 6.92789275 27.20821329 -0.00090115 -0.00670867 -0.02086122
H 1.44155259 0.76218767 24.56607696 -0.00923820 0.01414020 0.01328825
H -3.73351256 2.66866846 31.61145115 -0.00100152 0.02831570 0.00135302
H -2.30489063 8.28530742 33.72458594 0.00463547 -0.00524898 -0.00654777
H 2.53299138 6.87711327 26.74109515 -0.02643803 0.01461777 0.00660807
H -0.09862342 1.20579366 25.29810692 0.01184821 0.00343438 -0.02728001
H -2.32272846 3.55883674 30.86535294 -0.02116536 -0.01877377 -0.01276828
H -0.65052595 8.31796272 32.89915332 0.00108712 0.02901294 0.00062680
H 1.15066566 6.20575977 27.67927482 -0.03095169 0.00581253 0.00362479
H 1.58443964 2.16024296 25.57022342 -0.00445356 -0.00417351 0.00833499
H 0.03838426 18.79441386 2.71466818 0.01032271 -0.02280774 0.01810661
H 2.73324045 14.10823554 3.14916542 0.00958944 0.00983058 0.01247814
H 5.42367610 10.65228169 8.93967822 -0.01668222 0.00707680 0.00220435
H 2.50947667 15.40053221 8.63083213 -0.01414231 -0.00671022 -0.00260526
H 5.79766780 18.42054500 1.08822538 -0.00325030 0.01706375 0.00436631
H 3.83506465 13.24210882 5.10288640 0.01490243 0.01581793 0.02242428
H -0.33735972 11.08575978 10.92680877 -0.01285842 -0.01160083 -0.01152034
H 1.59048020 15.72477032 6.29925833 0.01351774 -0.01129745 0.01601463
H 3.90481767 16.39040655 10.67911517 -0.03117333 0.01273126 -0.01869378
H 3.89150358 11.72319723 7.08780338 -0.00811050 0.02224555 0.00030558
H 1.34089735 12.63468049 1.02321321 0.00909134 -0.00334938 -0.00547365
H 1.72565726 17.36169725 4.34338403 -0.00179444 -0.00987660 0.00347250
H -1.94399938 15.21637289 35.17604345 -0.01990808 -0.01019951 -0.01770997
H 0.01363038 10.18663296 5.91699006 -0.01515081 -0.02558340 -0.03049936
H 2.61295146 13.88373286 11.88392060 0.01068508 0.00605353 -0.00129143
H 5.34153317 19.06406838 5.73608817 -0.01449409 -0.01381330 -0.00380155
H 2.77149400 16.92064720 1.72800526 0.01364499 0.02503285 0.00036326
H 0.03101350 11.80334368 3.90616777 -0.00743113 0.00202581 -0.01193753
H 2.69460674 12.21104089 10.16570260 0.00175242 -0.00213566 0.03699944
H 5.26123799 17.43982351 7.69229638 0.00606272 -0.00754857 -0.00211422
H 5.09958629 15.03523185 9.32714252 -0.01398605 -0.00296351 -0.00205619
H 2.84799109 9.44824648 7.81778646 0.01660320 0.00268501 -0.01126731
H 0.38214122 14.56855315 1.87311826 -0.01836786 -0.02999602 -0.01369199
H 2.42890510 19.23281870 3.62900249 -0.01588799 -0.01086285 0.03077061
H 5.87941635 13.42217136 7.77421143 0.01179234 -0.00475617 -0.00821485
H 1.74341000 17.79484107 9.60862566 -0.01486263 0.00771003 0.01542682
H 19.57025949 15.28906653 4.34376151 0.01686910 0.00052397 0.01900491
H 4.15073720 11.77367497 2.64265302 -0.00418410 -0.00442206 0.00237983
H -0.05868986 12.44279845 8.58464960 -0.01547476 -0.02886896 -0.00599007
H 0.93991117 16.92777373 8.42733079 -0.01854492 -0.01704859 -0.01392360
H 6.55345490 15.65359010 3.81844536 0.02576351 -0.01536182 -0.00859530
H 4.50303853 10.78924695 1.20512882 -0.01517104 0.00284095 0.00564547
H 0.76506048 13.54637859 7.41861067 -0.02792146 0.01785376 -0.01351294
H 0.02250960 17.67110860 9.69403307 -0.01727480 -0.01352935 0.00058013
H 5.15148454 16.88935572 3.43818536 -0.00085659 -0.00574207 0.01054291
H 2.78930435 10.77811916 1.91575798 0.00408657 -0.01039186 0.01657539
H -1.88645590 18.73994934 14.46980062 -0.00201494 -0.00758764 0.00724729
H 1.62815863 13.75690385 14.93514856 0.03024827 -0.00027479 0.01032141
H 3.84205081 10.29069973 20.75684702 0.02402710 0.01367933 0.01903263
H 0.95064124 15.18522710 20.34089970 -0.01536491 0.01176194 0.03262368
H 3.92821236 18.11473384 12.22887973 0.00776529 -0.00485246 0.00630957
H 2.72676308 12.77157838 16.94526825 -0.01923560 0.01340638 -0.02946045
H -1.90152296 10.96377902 22.79706986 0.00733185 0.00996392 0.00402877
H -0.12087547 15.91996672 18.27248153 0.00207942 -0.01242112 -0.00665001
H 2.38367057 16.05994202 22.36604854 -0.00811093 0.02756469 -0.00598624
H 2.64899199 11.11901527 18.84822861 0.00035887 0.01290541 0.01709471
H -0.28962939 12.61947484 12.96580584 -0.02487697 0.02788025 -0.00155269
H -0.13347828 17.58275343 16.45013731 0.00099250 0.00874742 0.01399602
H 1.20967815 15.25609341 11.58186854 -0.02681494 -0.01049062 0.03248901
H -1.43524091 10.38204226 18.12850385 0.00097917 0.01923330 0.00108238
H 1.01206733 13.84611761 23.69041488 0.04082192 0.01089800 0.03379368
H 3.58707307 19.16972580 17.83449941 0.00219298 0.00987972 -0.00201945
H 1.08253832 16.93401962 13.54356976 0.00659390 0.01359411 -0.03530211
H -1.33964852 12.02974760 16.08999257 -0.01024823 -0.00934560 -0.01359031
H 1.03723025 12.29167971 21.75440853 0.02259093 0.00552262 -0.03367273
H 3.71463504 17.15509343 19.39018519 -0.00625815 -0.00439919 -0.01314635
H 3.51153903 14.61838001 21.03232589 0.01177449 0.01066571 -0.00760990
H 1.44168292 9.22620722 19.88711413 0.00737427 -0.04404911 0.00189392
H -1.11951060 14.51183945 14.03210534 -0.00312697 -0.00645100 -0.00465001
H 0.69491172 19.28643405 15.48791345 -0.01910427 0.00370465 -0.00952370
H 5.83065864 12.30039003 19.77288039 0.03024577 0.02418185 -0.00759961
H 0.53423063 17.97266900 21.32245921 -0.01352274 0.00793488 -0.00412352
H -1.49628336 15.62653395 15.76448258 0.01084604 -0.01311530 0.03091570
H 3.53606160 11.80518781 14.27636744 0.00439220 0.01784055 -0.00090078
H -1.41816928 13.81768771 18.75383276 0.01014311 0.01480186 0.01696146
H -0.87452251 17.11069159 21.01937442 0.00587671 0.01029448 0.03677794
H 2.96999075 16.17768125 15.79898455 0.01368466 -0.00476602 0.03484186
H 2.62658418 10.48008069 13.19988491 -0.00753015 -0.01028912 0.03233363
H 17.67371704 13.08636122 19.66411930 -0.01939312 0.00268172 0.00923403
H -1.04456858 18.28797959 22.31089259 -0.03410318 0.00322108 0.00481585
H 4.18056851 15.04238986 16.42362716 -0.00897461 0.01085030 -0.00363645
H 1.78612815 11.50714182 14.39653189 -0.01253119 0.00948858 0.01292443
H -3.12296179 18.76318565 26.16612147 0.00002571 0.01389189 -0.01632097
H -0.46186708 14.01744358 26.83206257 0.01991736 0.00021529 0.02578137
H 2.40817491 10.42577818 32.72488746 0.00704143 0.00887142 0.02642714
H -0.70504239 15.45141791 32.22761407 -0.01422981 -0.01340679 0.00089883
H 2.49091648 17.78500736 24.07791761 0.00649433 -0.01861817 -0.03441584
H 0.58017437 13.52922133 28.81979543 -0.01332638 -0.00072698 0.01638746
H -3.34456315 11.15932666 34.25616598 -0.02367493 0.01083127 -0.01941266
H -1.82556912 16.24981350 30.17618135 0.00064556 0.01115912 0.00080001
H 1.04554362 16.95436880 34.36505531 0.00120852 0.00092003 0.01445726
H 0.76030017 11.86266303 30.56446912 0.00806114 0.00613081 -0.00536903
H -1.90424912 12.65070520 24.67005853 0.02244240 0.00433304 -0.01301182
H -1.56721321 17.58390377 28.05076169 0.00056222 0.00448587 0.03053588
H -0.64683736 14.68349593 23.63699270 0.00070508 0.00590393 -0.01324629
H -3.00550256 10.30954958 29.52344964 -0.01766952 0.01654223 -0.00101263
H 4.30009318 14.00195679 0.16909560 -0.01080217 0.03226902 0.00466028
H 2.04081525 19.15508703 29.25389119 -0.00965867 0.00656665 0.00978819
H -0.22773972 16.63532176 24.96913821 0.01212754 -0.00354289 -0.00013816
H -3.35883609 12.05100929 27.89946805 0.00321528 0.02423843 0.00002833
H -0.32946003 12.45760568 33.57245901 -0.00745803 0.00076139 -0.02463944