2160
Time=35000.00000001 pbc="T T T" Lattice="20.60911084 0.00000000 0.00000000 0.00000000 29.15562219 0.00000000 -4.71890220 0.00000000 35.40740096" energy=-13798.68768352 virial="-1.17265202 0.81874596 69.09428644 0.81874596 -51.08616111 4.80476040 69.09428644 4.80476040 -58.42401286" stress="0.00222707 -0.00000634 0.00325903 -0.00000634 -0.00001095 0.00015062 0.00325903 0.00015062 -0.00036201" Properties=species:S:1:pos:R:3:vel:R:3
O 1.05442053 8.86401346 2.29594096 0.00523357 0.00104604 -0.00571118
O 1.82090430 3.80144651 3.38615641 -0.00085774 -0.00031880 -0.00167709
O 4.22942266 1.06173019 9.62555930 0.00238563 0.00484861 0.00380553
O 3.36325366 5.73694690 7.96552869 -0.00157780 0.00221516 -0.00167387
O 1.16297116 4.96987251 9.38925988 0.00007411 0.00239467 -0.00045500
O -0.26451799 9.87323962 8.02862823 -0.00224492 -0.00376945 0.00218044
O 4.00618815 4.62591205 2.37800181 -0.00153838 0.00581792 0.00422318
O 5.42946440 28.82892618 3.36068916 -0.00106966 0.00563159 0.00268179
O -0.80447682 8.75894806 14.12247881 -0.00336759 0.00042349 -0.00253896
O 0.30461895 3.84993238 15.35873265 0.00150979 -0.00543757 -0.00025488
O 2.99568946 0.96791968 21.67372843 -0.00066048 -0.00068981 0.00626185
O 1.87575593 6.33553467 20.41238040 -0.00209355 -0.00369217 -0.00262937
O -0.35937035 5.22606141 21.16078059 0.00518386 -0.00556907 0.00019162
O -1.92328798 9.86115375 19.89825115 0.00054962 -0.00125167 -0.00237846
O 2.43168516 4.85488748 14.24251609 0.00330951 -0.00577391 0.00588395
O 3.78240597 28.97498025 15.21098472 0.00470534 0.00056803 -0.00044235
O -2.40986541 8.90549460 26.00668095 -0.00197355 0.00091534 0.00383389
O -1.02720385 3.90923984 27.07194720 -0.00640359 0.00356179 0.00030667
O 1.72263876 1.30047653 32.81258213 0.00052501 0.00218555 -0.00050501
O 0.40872607 5.79322283 32.09201697 0.00957715 0.00448127 -0.00728543
O -1.85195283 4.86127068 33.19499098 0.00327448 0.00131197 0.00525526
O -3.58271999 9.86144920 31.66957613 0.00371248 -0.00757242 -0.00080414
O 1.03892373 4.99679806 26.16731885 -0.00236369 -0.00054769 0.00443238
O 2.53237449 28.90725091 27.30134442 0.00095412 -0.00209062 0.00439166
O 0.75479871 18.30982654 2.44588678 -0.00227919 0.00448941 0.00331540
O 1.81092541 13.84398248 3.60315448 0.00194873 -0.00354470 0.00289485
O 4.51709378 10.85043862 9.28695058 0.00070409 0.00577139 0.00540968
O 3.05010463 15.90347521 8.36968956 0.00626015 -0.00194438 -0.00383810
O 1.20214876 14.44232841 9.62037450 -0.00262807 -0.00527751 -0.00063870
O -0.31528308 19.65051595 8.22112466 0.00087056 0.00088665 -0.00327720
O 4.05003602 14.52141138 2.32073918 -0.00027615 0.00144537 0.00326369
O 5.61841498 9.66213142 3.41854471 0.00144324 -0.00211627 0.00125935
O -0.82982313 18.31886507 14.11712181 0.00572598 -0.00404103 -0.00148155
O 0.31885228 13.66879329 15.38286169 0.00554329 -0.00364137 -0.00285684
O 2.79229688 10.68749809 21.06376098 0.00181250 0.00786829 -0.00111200
O 1.95447087 15.61481255 20.06899503 0.00161660 0.00394711 -0.00603171
O -0.18970734 14.72540193 21.46841231 -0.00203698 0.00073901 -0.00274956
O -1.77980002 19.09627650 19.78077285 0.00148620 0.00308912 -0.00645002
O 2.46751443 14.47019939 14.13092124 -0.00332015 0.00061437 -0.00364628
O 3.81729102 9.84200931 15.52114802 0.00186674 0.00331454 0.00005813
O -2.06921724 18.45383287 26.08980201 0.00145893 0.00315678 -0.00339518
O -1.28371558 13.17377577 27.13472769 -0.00601048 -0.00104442 -0.00176958
O 1.15419704 10.69932207 32.91976615 0.00027371 0.00065123 0.00132253
O 0.24208044 15.54148450 31.80606207 -0.00611666 0.00401270 0.00113530
O -1.69896930 14.57777381 33.24618933 -0.00380604 0.00396070 0.00099425
O -3.48256631 19.65009941 32.10028824 0.00351144 0.00023671 0.00472648
O 1.10837683 14.07758641 26.28199977 0.00025431 0.00532788 0.00584433
O 2.38915044 9.33089008 27.41177646 -0.00322474 -0.00415272 0.00237492
O 0.49818454 27.88587482 2.34194626 0.00065807 0.00586571 -0.00344287
O 1.88671020 23.08305297 3.28648694 -0.00483756 0.00085862 0.00042547
O 4.43417654 20.57687901 9.20652441 -0.00602182 -0.00133932 0.00038139
O 3.40066664 25.17078296 8.07734445 0.00372978 0.00515180 0.00126848
O 1.24470797 24.10319388 9.40676480 0.00111650 -0.00049128 0.00278338
O -0.33414846 29.04316457 8.11125612 0.00257049 -0.00197238 -0.00447835
O 4.05307848 24.17233444 2.10595916 -0.00005502 -0.00118689 -0.00241459
O 5.48337312 19.33841553 3.28198358 0.00143616 0.00657394 0.00039559
O -0.74489968 28.00736192 14.19617941 -0.00915181 -0.00550649 -0.00061089
O 0.29169469 23.21720580 15.38447982 0.00758245 -0.00716997 0.00255728
O 2.97154910 20.43408353 21.26983050 0.00068068 0.00250043 0.00644436
O 1.69926270 25.88387468 20.31808647 -0.00949021 0.00468623 0.00083083
O -0.17288541 24.49111996 21.43685791 -0.00297547 -0.00365944 -0.00611007
O -1.73956508 29.10232822 20.13164552 -0.00177067 0.00104998 0.00578550
O 2.42294206 24.07932359 14.12255063 0.00863813 -0.00279295 0.00302465
O 3.84456020 19.30151565 15.23871374 0.00360976 -0.00680191 0.00049776
O -2.29561417 28.32474123 25.95734862 0.00554212 0.00146314 -0.00173080
O -1.39770936 22.95260662 27.24196541 -0.00083615 -0.00833590 -0.00224428
O 1.66350930 20.54414750 32.97120965 -0.00209495 -0.00307671 -0.00314341
O 0.23859057 25.04889412 31.78793011 0.00040951 -0.00144208 -0.00414729
O -1.74707168 24.26236148 33.18177918 0.00022895 0.00234769 -0.00127503
O -3.17411051 0.15534280 31.90164989 0.00128374 0.00108605 0.00192983
O 0.77940509 23.68813877 26.09935679 0.00270217 -0.00338178 0.00148800
O 2.25782904 18.98267415 26.82297122 -0.00522440 0.00188580 -0.00132068
O 7.79016850 8.82250349 2.31066458 -0.00089143 0.00682518 -0.00229497
O 8.80987947 3.47041668 3.29535606 -0.00136171 -0.00118482 -0.00145721
O 11.29903679 1.00427851 9.43713506 0.00535765 0.00128442 -0.00215272
O 10.26616431 5.93904369 8.20097806 -0.00228855 0.00421294 -0.00373415
O 8.21114592 5.18354468 9.53284266 0.00070809 0.00094765 0.00079162
O 6.74783802 9.97258051 8.34526444 0.00383673 -0.00166993 0.00253481
O 10.81276467 4.64550311 2.29961744 0.00055484 -0.00239304 -0.00085598
O 12.18599425 28.71076323 3.65061692 -0.00155814 -0.00827050 0.00186850
O 6.11143807 8.73829653 14.19510235 0.00271369 -0.00307004 0.00203413
O 7.26508822 3.75199650 15.13777352 -0.00190811 0.00098192 -0.00640967
O 9.98377808 1.38111592 20.93622616 -0.00273449 -0.00021413 -0.00331193
O 8.49650279 6.19781141 20.47667565 -0.00164035 -0.00639498 0.00612081
O 6.48459048 5.11228331 21.55243975 0.00461349 0.00482927 -0.00509543
O 5.20575875 9.99014487 19.93584106 0.00084363 0.00293181 -0.00051307
O 9.28310364 5.09709627 14.06742230 0.00334922 0.00086942 0.00297507
O 10.86961544 0.23119033 15.38589864 0.00342398 -0.00209145 0.00482697
O 4.54865001 8.60689306 26.41584320 0.00340660 -0.00107940 0.00306251
O 5.65648077 3.59602892 27.31553904 0.00464008 -0.00329000 0.00078169
O 8.45755249 0.76640713 33.11943161 -0.00201185 -0.00017417 -0.00184301
O 7.33835547 5.95119474 31.82119053 0.00290818 0.00387258 -0.00208953
O 5.20317729 4.85710895 33.12869258 0.00111471 -0.00515834 -0.00194148
O 3.30684984 9.80758099 31.59661566 -0.00297521 -0.00299911 -0.00808013
O 7.69332936 4.57347868 26.03191542 -0.00465405 0.00400213 -0.00257514
O 9.32644679 28.71943095 27.42384166 -0.00645638 0.00191108 -0.00682799
O 7.39778786 18.13240492 2.41133838 0.00070984 0.00028351 -0.00554787
O 8.66020853 13.61360293 3.45653189 -0.00624052 0.00274657 -0.00573853
O 11.47489277 10.68079345 9.48957670 0.00177098 0.00132385 0.00460591
O 9.97032552 16.17465849 8.54015044 -0.00177321 -0.00423084 -0.00529634
O 8.08470340 14.75301520 9.52470660 -0.00652569 0.01268213 0.00061924
O 6.34103669 19.49074178 7.87759253 -0.00924254 0.00214506 -0.00399296
O 10.63223446 14.60487771 2.12178693 -0.00430777 0.00942416 0.00308905
O 12.45940523 9.29683667 3.26980317 -0.00508186 0.01000154 -0.00711876
O 5.91315412 18.35212559 14.05155458 -0.00884013 0.00369229 -0.00184662
O 7.30205151 13.33990122 15.15558149 -0.00097931 -0.00367827 0.00096690
O 9.87169611 10.44053644 21.38410724 0.00017628 -0.00242903 0.00701192
O 8.69246938 15.88140781 20.28278476 -0.00648979 0.00638870 -0.00354448
O 6.92332766 14.31210323 21.28762357 -0.00351029 -0.00071478 -0.00173023
O 5.00525577 19.37363458 19.85371777 0.00392417 -0.00481452 0.00200221
O 9.21209695 14.53269533 14.02806202 -0.00001310 -0.00417444 0.00210314
O 10.91470268 9.31895951 15.36112830 -0.00187427 0.00255632 0.00052982
O 4.63163705 18.25410573 25.93279302 0.00555440 0.00336984 0.00536113
O 5.73666107 13.38348389 27.19118606 -0.00690146 -0.00252179 0.00004240
O 8.13096899 10.88352668 32.90287857 0.00115302 -0.00078652 -0.00030248
O 7.20475405 15.66275972 31.98723917 -0.00132336 -0.00014194 0.00725737
O 5.32470540 14.70742560 33.30616683 0.00282212 0.00608148 -0.00533545
O 3.55936662 19.11368755 31.71220390 -0.00489703 -0.00463161 -0.00420126
O 7.74574033 14.29415599 25.91755873 0.00213521 0.00381911 0.00538396
O 9.14139704 9.57709640 27.05924496 -0.00065964 -0.00093885 0.00094355
O 7.78397261 28.16393182 2.08380844 -0.00230890 -0.00230825 -0.00584352
O 8.83836091 22.99304095 3.34194148 0.00252611 -0.00263443 0.00250479
O 11.39872501 20.36274073 9.60809883 -0.00066927 0.00437389 -0.00092598
O 10.09376374 25.33342304 8.62399750 -0.00684153 0.00327075 0.00227526
O 7.89096347 24.05691818 9.57968581 0.00021484 -0.00495540 -0.00241423
O 6.40365948 0.11888598 8.28442759 -0.00113676 -0.00248734 -0.00218418
O 11.10067639 23.99819059 2.48552034 0.00045262 -0.00206871 0.00415626
O 12.53778986 19.21290765 3.79013918 0.00106017 -0.00106015 -0.00174800
O 6.07595615 28.45557656 13.75674917 0.00062903 0.00102480 0.00221252
O 7.14583912 23.24248174 15.42961039 -0.00120815 0.00850737 0.00516872
O 9.94879619 20.70329052 21.32426301 -0.00237262 0.00110915 -0.00317063
O 8.35324792 25.56719046 20.02386869 0.00159509 -0.00570471 0.00001241
O 6.46506072 24.53703380 21.19805494 -0.00537832 0.00043820 -0.00322712
O 5.03505104 0.14071961 20.10480732 0.00017807 -0.00659232 0.00042274
O 9.30420146 24.24715707 14.22910878 0.00069002 0.00545549 0.00073545
O 10.82372177 19.26868171 15.37344700 -0.00029299 0.00325657 -0.00227901
O 4.71992111 28.13955318 26.05854745 -0.00388810 0.00658516 0.00053636
O 5.53562151 22.96288447 27.06895728 -0.00413343 -0.00192443 -0.00135451
O 8.42408846 20.85716405 32.81792734 -0.00465868 -0.00093101 0.00150017
O 7.21600250 25.27220786 32.24934179 -0.00276387 0.00236069 -0.00341935
O 5.01088173 23.98596358 33.02023212 0.00046458 0.00429152 -0.00286361
O 3.62102467 28.91910751 31.76204871 -0.00186432 -0.00447474 0.00088384
O 7.65677549 24.16304308 25.99863364 0.00258893 -0.00071387 -0.00340838
O 9.46544159 19.47304101 27.17388123 0.00018359 0.00093261 -0.00438738
O 14.70857661 8.66783437 2.07846609 -0.00069902 -0.00072434 0.00082648
O 15.67694479 3.87642546 3.69277424 0.00024776 0.00056576 -0.00134544
O 18.18908000 1.17806858 9.32211571 0.00154105 -0.00030061 -0.00416874
O 17.03205891 6.20131073 8.12088787 -0.00011754 -0.00587567 -0.00202482
O 14.92996541 4.99671266 9.26872658 0.00103420 -0.00359259 0.00262563
O 13.47307888 9.69884451 7.97722352 -0.00546827 0.00263345 0.00195855
O 17.73842139 4.74546227 2.43600611 0.00226642 -0.00179313 -0.00035748
O 19.08977305 29.11441291 3.33827895 -0.00540195 0.00025662 -0.00098240
O 13.05478937 8.45885454 14.14917952 0.00151077 0.00213430 0.00174111
O 14.13506019 4.09273381 15.60601982 0.00063292 0.00350679 0.00375056
O 16.84827440 1.22902566 21.25013797 0.00217088 0.00333648 0.00027255
O 15.40021555 6.08888936 20.15657285 0.00313367 0.00039057 0.00141396
O 13.37506665 4.84975223 21.16154132 0.00275438 0.00165161 0.00221065
O 11.92183798 9.48699500 19.81402985 -0.00176526 0.00127391 -0.00284746
O 16.12739126 4.84263452 14.11898634 0.00871745 -0.00421217 -0.00047048
O 17.70972828 0.02945699 15.57429786 0.00150276 -0.00021207 0.00378345
O 11.23559484 8.30936984 26.29619940 0.00023013 0.00785452 0.00272535
O 12.58588382 3.49079225 27.03218192 0.00597411 0.00646815 -0.00216060
O 15.42598299 1.19469392 33.07948002 -0.00450200 0.00217990 0.00273649
O 14.03086397 5.87787149 31.82487141 -0.00396096 0.00555605 -0.00209002
O 11.96129180 4.76115692 33.03751637 0.00356336 0.00064322 0.00822808
O 10.57222113 10.07781152 32.08733014 -0.00183097 0.00599334 -0.00303958
O 14.52227487 4.69180258 25.97575171 -0.00558997 -0.00127607 0.00334261
O 16.29287253 0.39048650 27.45971890 0.00253945 0.00062167 -0.00042249
O 14.59120697 18.34917736 2.41373201 0.00200406 0.00022943 -0.00079018
O 15.44893712 13.51622703 3.41185865 -0.00493941 -0.00020184 -0.00707978
O 18.26886897 10.82019375 9.19670065 -0.00326882 0.00346346 0.00313151
O 17.08755225 15.40877711 8.29000430 0.00077252 -0.00233475 -0.00426146
O 14.91064961 14.73587968 9.38996347 -0.01054902 0.00337408 0.00151935
O 13.42890695 19.29760951 8.42780602 0.00047023 0.00460040 -0.00370816
O 17.65534290 14.43547329 2.30682008 -0.00403968 0.00026653 -0.00108065
O 19.36945081 9.59476870 3.48374733 -0.00570454 0.00046319 0.00313043
O 13.05397079 18.56614770 14.16750095 0.00202389 0.00011474 -0.00944917
O 14.31129867 13.46761352 15.18955741 -0.00079536 0.00360953 0.00453586
O 16.64529142 10.76874230 21.24320927 0.00394104 -0.00564193 0.00432186
O 15.48970255 15.45148781 19.90879920 -0.00115835 -0.00995919 0.00552608
O 13.37153279 14.57704400 21.27375780 0.00101399 0.00134210 -0.00402632
O 12.04818131 19.63813638 20.15553793 0.00246911 -0.00246199 0.00575699
O 16.12653122 14.48281796 13.84769680 0.01013469 0.00073131 -0.00212326
O 17.77324502 10.08477181 15.66339104 -0.00179250 0.00236998 -0.00104063
O 11.52017086 18.40407875 25.93639688 -0.00340432 0.00523865 0.00321655
O 12.48426644 13.25633259 27.09418085 0.00247323 -0.00304326 -0.00191788
O 15.20880937 10.90067806 32.99159061 -0.00079421 0.00322955 0.00505236
O 13.86302943 15.94847255 32.09255500 -0.00026391 0.00164881 -0.00810950
O 11.93707168 14.49196669 33.00795081 -0.00372764 -0.00025280 0.00957815
O 10.44894037 19.30479022 31.77392625 -0.00485570 0.00516310 -0.00555032
O 14.51121670 14.30726827 25.97592743 -0.00970341 -0.00954413 -0.00278787
O 16.00260116 9.70282025 27.30046062 0.00108284 -0.00185602 -0.00009182
O 14.44064569 27.83601955 2.50174271 -0.00008107 0.00323022 0.00548751
O 15.70580507 22.89569669 3.52532161 0.00225135 -0.00126192 0.00103934
O 18.23417672 20.55851567 9.32066500 0.00450383 0.00333257 0.00328076
O 17.24871546 24.97661534 8.15089124 0.00237513 0.00603188 -0.00079367
O 15.13377395 24.32736967 9.59149813 -0.00040148 0.00103051 0.00105291
O 13.28835923 0.07289134 8.11327676 -0.00417002 -0.00054946 0.00091045
O 17.85980878 24.02178936 2.65895473 -0.00028964 0.00261048 -0.00025286
O 19.10417682 19.17589478 3.79351205 -0.00010233 0.00410622 -0.00390690
O 12.80748117 27.85243988 14.37771450 -0.00023927 -0.00722662 -0.00026235
O 14.10822867 23.25439358 15.29580487 -0.00347981 0.00104833 -0.00393921
O 16.95593650 20.45213126 20.98859654 -0.00236804 0.00046490 -0.00034588
O 15.54907346 25.20661957 20.11930918 -0.00501489 -0.00123463 -0.00346263
O 13.32575866 24.23636238 21.43541593 0.00378398 0.00711919 0.00027936
O 11.97903671 28.91039772 19.62146677 -0.00007524 0.00387526 0.00378489
O 16.19098227 24.01934475 14.14062812 0.00442613 0.00258172 0.00348952
O 17.81533357 19.50050089 15.61366637 -0.00376826 0.00121076 0.00245103
O 11.50152800 28.23038102 25.97591249 -0.00230142 0.00305690 -0.00057603
O 12.28548158 23.21819929 27.00025502 -0.00270034 -0.00592928 0.00062000
O 15.26556423 21.31170874 32.56295434 0.00134863 0.00053365 0.00095050
O 14.00544996 25.85332662 32.08505703 -0.00344578 0.00157678 -0.00273880
O 11.95695018 24.64463992 32.96101499 0.00446434 0.00228175 -0.00423824
O 10.47557800 29.06715974 31.89152075 0.00280082 0.00851377 -0.00587663
O 14.45074164 24.47809681 25.54450375 -0.00274889 -0.00762396 0.00742910
O 16.12240889 19.23722347 27.04317285 0.00128332 -0.00285667 0.00278310
H 0.14926297 9.23568299 2.51261294 -0.00330900 -0.00825415 0.00793568
H 2.71040892 4.16183919 3.18107952 0.02004367 -0.00954401 -0.01326733
H 5.10870938 0.60503497 9.43327003 -0.00360898 0.02376915 0.00319438
H 2.49526394 5.32224107 8.13283014 -0.00926636 0.00016889 -0.02362498
H 5.90534666 8.53456825 0.44170033 -0.00792054 0.00331533 -0.01147844
H 3.80225067 3.30403673 4.98142528 -0.00249732 0.00852905 0.03162591
H -0.42582539 1.58570176 10.97487418 -0.01358103 -0.02289870 -0.00529021
H 1.34887569 6.67746564 6.47368329 -0.01889748 0.00258824 0.01915207
H 4.08879814 7.03429582 10.48396718 0.03466959 -0.01083872 -0.00558288
H 3.62811627 2.05245980 7.13442079 0.00767906 0.01181001 0.00350772
H 1.33665639 3.10990688 1.28891664 -0.00647305 -0.01799981 0.02866044
H 1.44105028 8.26026012 4.73417265 -0.01815815 0.01665957 0.00384746
H -1.97711876 5.53234819 35.25492796 0.02483313 -0.00177659 -0.02362091
H -0.15205496 0.56063588 5.99885316 0.01485805 0.01096770 -0.02196900
H 2.51083455 4.66683114 11.90094095 0.00513406 -0.01175476 -0.00026255
H 5.52955635 9.17298289 5.76529627 0.02248932 -0.01376610 0.00211274
H 2.75660700 7.05181998 1.80663432 -0.02506478 0.01397311 -0.02649458
H -0.25276007 2.23765410 4.03966232 0.02002829 -0.00881411 -0.02342130
H 2.41465705 2.74282864 10.27093781 0.01707744 0.01865111 0.02110338
H 5.57766871 7.35801055 7.48147938 -0.04147796 -0.01877744 0.00934569
H 5.19874295 5.27488002 9.33482469 0.01631534 -0.01879297 0.00317125
H 2.90705455 0.08958713 7.91532768 0.01463882 -0.00145623 0.00414589
H 0.28285663 4.93322224 2.23722834 -0.01583181 -0.02621705 0.03213892
H 2.48816481 9.93331207 3.63228609 0.00771663 -0.00981075 -0.02886467
H 5.80662008 4.05201535 7.79398961 0.00149566 -0.01396231 0.00325860
H 0.12326326 8.68935369 10.12676431 -0.00829703 0.00992312 -0.00555476
H 19.87790692 6.85800468 3.62186576 -0.02171011 -0.00628799 -0.01542408
H 3.81594059 1.92237826 2.61583979 -0.02176748 0.00901245 0.01191413
H 0.78599777 3.72581408 7.44772069 0.01705089 0.01441329 0.01677623
H 1.81308706 9.35360047 10.28662594 0.00327200 0.00908974 -0.00484008
H 5.39425411 5.78496130 4.54138942 -0.01607801 0.01539443 0.04335923
H 4.73047809 1.06435158 1.37958102 0.00272163 -0.00575686 -0.00313564
H -0.88379475 4.13708981 7.10884558 0.01175306 0.02010512 0.00096548
H 1.64543012 7.89080811 9.61614028 -0.00274270 -0.00439251 0.00808936
H 6.31350935 6.68364464 3.24559730 -0.00847301 -0.01932392 0.03322611
H 2.99197279 0.80758637 1.48596540 0.00005359 0.00774834 0.00375857
H -1.57064648 9.34523679 14.29976909 -0.01974056 0.00571070 0.00964884
H 1.11513905 4.40351577 15.12253583 0.00658021 0.00460461 0.00715867
H 3.83717139 0.62351320 21.24666224 -0.00495004 -0.01820016 -0.00562094
H 1.06459613 5.88135271 20.57355671 -0.00737155 -0.00541468 0.00728139
H 4.04987246 8.43117582 12.53524287 -0.01337889 0.02558690 0.00619193
H 2.38150329 3.39338822 17.06232169 -0.02171147 -0.00163212 -0.00074273
H -1.79710452 1.49130142 23.13387024 0.00692475 0.01463146 -0.03081482
H -0.17197781 6.51800582 18.83952202 -0.00042130 -0.00048605 0.01598311
H 2.46474479 6.93252283 22.70981241 0.01689903 -0.02300283 -0.00390655
H 2.30262348 1.98153039 19.01897962 0.00261346 -0.00484080 -0.02496937
H -0.38517092 3.29455491 12.69139165 0.00730028 -0.00587774 -0.01994854
H -0.07708136 7.73655931 16.51990908 -0.01308111 -0.02111307 0.02301629
H 1.09323642 5.55711625 11.49038090 0.01716177 0.00803144 -0.03132361
H -1.43041603 0.64259969 17.89784349 0.00309167 0.02352283 0.00042487
H 1.38719560 4.46356105 23.97759394 0.01191784 -0.00099986 -0.00589996
H 3.52095303 9.59879596 17.65955242 0.00326476 0.01520133 -0.01265184
H 1.17580076 7.17625129 13.17967976 0.01378372 -0.01723316 -0.02487978
H -1.77048454 2.37298552 16.26444795 0.00868015 0.03510504 0.01956413
H 1.27615692 2.98322943 22.07954036 0.01177593 0.03618288 0.01458490
H 3.75493997 8.04040805 19.59587794 0.00704006 -0.02383028 0.00817222
H 3.37099385 5.39192042 21.45780136 0.00825601 0.00931463 0.01851800
H 1.42108101 0.52218960 20.28888694 -0.00934524 0.01242251 0.02980699
H -1.35442634 4.90631678 13.79512076 -0.00729536 0.01205267 -0.01901513
H 0.66936962 9.79043600 15.61566366 0.00797167 -0.00851489 -0.00783889
H 4.80858476 2.86202100 20.52675035 -0.01293851 0.04465943 0.01184718
H -1.56862713 8.09506661 21.60289879 0.02241884 -0.01103792 -0.02055372
H 17.09865475 6.04115788 16.28150212 -0.00315780 -0.00760937 0.00076986
H 1.75279381 1.90367984 14.06862129 0.00022720 0.00197571 -0.01605835
H 17.89965244 4.09196150 19.38192222 -0.00293000 -0.00886585 0.00900343
H -0.61644126 9.16325179 22.48181646 0.00012507 0.00387959 -0.02254062
H 4.47150523 5.84085822 16.30487391 0.00116334 -0.02197826 -0.00535639
H 3.14720235 1.33476680 13.08950479 -0.00585277 0.02510659 0.00013278
H -2.12568684 2.73885228 20.60480647 0.00004172 0.01142221 0.00292603
H 0.29034302 7.98887442 21.44642619 -0.01617905 0.00371285 -0.01583872
H 4.84114507 6.90019635 15.00630270 -0.00809170 0.01129673 0.00798959
H 1.66870280 0.34259155 13.19432424 0.01887143 0.01694168 -0.01447086
H -3.25927879 9.26126890 26.47468302 -0.00606855 0.02019365 0.00696071
H -0.15415828 4.32706978 26.78704158 -0.02675182 0.01512311 0.01504485
H 2.56255683 0.91771758 32.45924044 0.02763824 -0.01534520 -0.00374988
H -0.48038986 5.49284619 32.48185796 -0.00859315 0.00364307 -0.01308934
H 2.46948975 8.40472889 24.78324267 -0.00273928 -0.00800559 0.01963523
H 0.84333052 3.55868601 28.83832172 -0.01059507 0.02096978 -0.01594612
H -3.20847584 1.70886691 34.81913867 -0.00019489 -0.01023154 0.00437508
H -1.56200572 5.93065165 30.53989180 0.01198982 -0.00175822 -0.01857737
H 1.18514466 6.81992754 34.16111314 0.00673520 0.03771795 0.00740970
H 0.85466820 1.77409289 30.58326560 -0.00262311 0.00053522 0.00352991
H -1.80548051 3.13161374 24.83602257 0.01646985 0.00069555 0.00576138
H -1.78762326 7.54551922 28.50198496 -0.00480823 0.02227884 0.00278273
H -0.43011981 5.77944976 23.53202658 0.00198294 0.01237070 -0.00846918
H -3.16348568 0.79795891 29.52611517 -0.00105447 -0.00953025 -0.00544387
H 3.99710438 3.98758722 0.12796400 -0.00635327 -0.01119206 0.01962776
H 1.98266242 9.29966901 29.54556430 0.00441114 -0.02558470 0.00319890
H -0.50867777 7.10899877 25.47531228 -0.00660319 -0.01897234 0.01680696
H -3.15902990 2.60771811 27.86106149 -0.02990333 0.00562973 0.01660689
H -0.38119551 2.94668216 33.29476142 -0.01391459 0.00028740 0.01097161
H 2.09409749 7.84183833 31.58170293 0.01654247 -0.01372726 0.00673978
H 2.13621456 5.19723267 33.09157511 0.03298037 -0.03795752 0.02824813
H -0.12139428 29.01636340 31.36131413 -0.00565700 0.00593318 0.00971989
H -2.93142787 5.23169653 25.83398467 0.00869509 0.00832320 -0.00404846
H -0.70919415 8.93305039 27.22818313 0.01233223 0.00669627 -0.00005595
H 2.64985183 3.94656705 31.20505163 0.00509814 0.00243448 0.01206006
H -3.17230121 8.98673675 34.12159425 0.00568749 -0.02174120 -0.01357249
H 16.74287030 6.86053422 27.12170563 0.00605983 -0.00611557 0.00294165
H 1.45508036 0.59978442 24.96810905 0.00590157 -0.03317567 -0.02989421
H -4.10450375 3.04656691 32.08469614 0.00383029 0.01924821 0.01611759
H -1.43839814 8.59538946 33.71710220 -0.00042360 -0.00461011 0.01530152
H 2.40455340 7.06621975 27.51119189 -0.00156103 0.01936502 0.00610366
H 0.07649691 1.25086165 25.79254862 0.02787218 -0.00402601 -0.03781041
H -2.57757497 3.46513212 31.05543186 0.01034367 -0.00198277 0.01262389
H -2.76007745 7.51023530 33.26576387 0.00903718 0.00969700 -0.01351041
H 1.91280156 5.66913975 28.66134742 -0.00457067 -0.01597216 0.01143021
H 1.79859447 1.98844222 25.95479901 -0.02718759 -0.01310334 0.01950733
H -0.11206894 18.66904618 2.87243755 0.02454489 0.01085406 -0.01302750
H 2.75646633 14.05845723 3.07867385 -0.01308222 -0.02984240 -0.00418916
H 5.42089192 10.50338792 9.07495309 0.00343706 0.00327754 0.00389150
H 2.25417904 15.45775136 8.50537820 -0.00759338 0.01859471 -0.00948425
H 5.67617253 18.10876054 0.54915781 -0.01456674 0.00802009 -0.01101543
H 3.83462851 13.28091545 5.17665068 0.00697572 0.01538192 -0.00173875
H -0.45703209 11.03569184 11.05809299 -0.01689723 -0.00224067 0.00523334
H 1.13396722 16.29762764 6.51259241 -0.00990825 0.02866355 -0.02670070
H 3.89150038 16.08871086 10.58751724 0.00679803 -0.00518588 0.00250011
H 3.92250446 11.62635090 7.04850518 -0.01259090 -0.01711730 0.00193061
H 1.35180815 13.08641739 1.01327873 -0.00645504 0.00610984 0.03526602
H 1.42206374 17.69638131 4.59819979 -0.01317376 -0.00142530 0.00000019
H -1.91704511 15.34162663 35.03356823 0.00162883 0.03596555 -0.00769819
H -0.11860687 10.51422745 5.90595893 -0.00469059 -0.00542623 -0.01383503
H 2.53564949 13.81880068 12.22655054 -0.00464878 -0.01015062 0.01272702
H 5.43709596 18.64202310 5.62972708 -0.02730186 0.00128710 -0.00039185
H 2.91861709 16.91355761 1.49085378 0.00524760 0.00138883 0.02472498
H -0.05011094 12.23740140 4.14326006 -0.00748589 -0.01574603 -0.01252767
H 2.39173946 12.09965502 10.21789883 0.01909376 0.00822687 0.00209709
H 5.14605072 16.92401103 7.34042668 -0.01781218 0.00869145 0.02881050
H 4.95922950 14.58470229 9.62817053 0.00088833 0.00876036 0.00617004
H 2.89818751 9.67835704 7.93307457 0.00821144 0.00094617 0.00195153
H 0.15535874 14.54488946 2.36008278 -0.02024124 -0.00806619 -0.03594032
H 2.51651398 19.75063385 3.60439670 -0.03358433 0.00590620 -0.01540795
H 6.67930477 12.43390102 8.23907290 0.01829204 -0.00258425 -0.01094375
H 0.58464540 17.18083665 8.95568637 -0.01087327 -0.00358706 0.02717508
H 18.04990409 15.78061282 4.27116104 0.03242167 -0.02950957 -0.00979337
H 3.50053054 10.20266529 1.22375004 0.00047003 0.03386930 0.01784324
H -0.38353088 12.48160068 8.20882062 0.00732302 -0.00067129 -0.00073028
H 0.45994367 18.46140897 10.24614680 -0.01410251 0.00519861 0.03526061
H 5.79236075 16.61975693 3.49492071 -0.02030829 0.01769092 -0.01536944
H 3.48880579 11.63903260 2.11543482 -0.02133686 0.03100360 0.00038890
H 0.66115497 13.66268355 7.27066639 0.00606836 -0.01282247 -0.00821177
H 2.10893058 18.10413399 9.56885698 0.01011387 -0.01397704 0.00680249
H 5.03973424 15.38252244 4.50144742 -0.00323114 0.00030613 -0.00068540
H 5.14882065 11.04706257 1.51498409 0.01634493 -0.01344805 -0.01828336
H -1.70621552 18.59596721 14.35729445 -0.00752338 0.00516714 -0.01295142
H 1.21187949 14.12808820 15.10591975 0.01350083 -0.00425430 0.00508067
H 3.70816362 10.37684232 20.77862038 0.00638302 -0.02404400 0.02425537
H 1.06791102 15.27453373 20.34193298 -0.01166800 0.01719996 0.01013138
H 3.75804692 17.68382861 12.54534238 -0.00667533 0.01331768 0.01213746
H 2.30419060 13.21004981 17.15265559 0.00323263 -0.00567166 -0.01376504
H -1.95417038 11.15103457 22.90931111 0.02026782 0.00605289 0.02537791
H 0.08538923 15.77013519 18.32871384 -0.00811347 -0.02852367 -0.00895966
H 2.67103942 16.25402968 22.39169041 -0.00441592 0.01620086 0.00252852
H 2.21452148 11.66693377 18.92860810 -0.01688478 0.00065039 0.01478269
H -0.50638507 12.66229912 12.95787207 -0.01250581 -0.00037224 0.00587134
H -0.10944414 17.41006236 16.53440487 0.00271293 -0.00904435 0.00862182
H 1.16364121 15.20183720 11.44979127 -0.00489833 -0.03512700 -0.00315400
H -1.94339234 10.74250965 17.99080712 0.01425205 0.00801700 0.00028960
H 1.04866918 13.90812028 23.64160678 -0.00140404 -0.00718418 0.00736167
H 3.86068257 18.81635492 17.41008413 0.00144570 -0.00434333 0.01954486
H 1.24890592 16.87875494 13.33615379 0.01329336 0.01476399 -0.00088235
H -1.71201741 12.29682983 16.06656169 0.00737272 -0.00926631 0.01477032
H 0.93407206 12.21344189 21.87960714 -0.00163118 0.01061235 0.03604857
H 3.78188856 17.39193352 19.47884485 -0.02916940 0.01986634 0.01750610
H 3.68519907 14.54502623 21.41811519 0.00906473 0.02151648 -0.01827454
H 1.27294749 9.80948359 20.10494997 0.00845199 0.00693648 -0.01287708
H -1.36456452 14.67246191 13.76662044 -0.00633888 0.00852662 -0.00410545
H 0.67123751 19.35641061 15.67444285 0.02608239 -0.00212476 0.01230520
H 5.63518674 13.77842340 18.79647676 -0.00241992 -0.00786399 -0.00252349
H -0.60041837 16.83652812 20.84788009 -0.02376192 0.00416116 -0.00851309
H 17.39104927 16.57358058 15.25784348 0.01603156 0.01248597 -0.00383636
H 3.00807688 10.94066829 13.18929592 0.03837831 -0.00682188 0.03298600
H -0.60716988 13.42029283 19.52788460 0.01209935 0.00577918 -0.00780252
H -0.72674374 18.17820293 22.04391251 -0.00837898 -0.00151630 0.01542671
H 4.16077406 15.17485951 16.22501235 -0.03225047 0.01247194 -0.02024418
H 1.32335117 10.55610798 13.68057409 -0.00045002 0.00743311 -0.01680435
H -2.29466073 14.03154105 19.24263574 0.00510100 -0.00880380 -0.01417742
H 0.75210629 17.88419256 21.28185155 -0.00177133 0.00185023 -0.01455512
H 4.81284411 16.42750933 15.12296291 0.01796165 0.03634048 -0.00519130
H 2.13675896 12.02534565 14.33781264 0.00019717 0.01791613 -0.01445809
H -2.97098455 18.83094098 26.38328276 0.03330555 0.01258102 -0.00299260
H -0.31921286 13.50953246 27.01993638 -0.00511314 -0.00052473 0.01242971
H 1.97826599 10.36858122 32.46757833 0.01330021 0.01237804 -0.01526305
H -0.63539487 15.17494401 32.12195739 -0.00033439 -0.00490656 0.01225320
H 2.80845581 17.95718142 24.19875273 -0.01253362 0.00693098 -0.02610661
H 0.71295955 12.64236398 28.78795291 0.01272303 -0.00871155 0.01170970
H -3.32002612 11.56985847 34.50017390 0.00413426 -0.01427261 -0.02356160
H -1.62341812 15.73802509 29.85540414 0.01038378 0.00232704 0.02349622
H 1.03099287 16.56751263 33.91222350 0.00232369 -0.01022770 -0.01516359
H 0.67088766 11.29304719 30.79168675 -0.00134179 0.00004187 -0.00420726
H -1.92934447 12.58576632 24.83320096 0.01152017 0.00681387 -0.00597025
H -1.71768126 17.70555194 28.51531148 0.00009025 0.00566331 0.02358621
H -0.43149763 14.99878113 23.69641828 -0.01706032 0.00946868 -0.00725899
H -3.00434045 9.65806082 29.30041717 -0.01927017 -0.01048199 -0.00685773
H 4.03554679 13.95277798 0.16235441 -0.03153470 -0.03620678 -0.00051558
H 2.35030845 18.54341828 29.04974420 -0.00242296 0.00523098 -0.00015863
H -0.33747849 16.60332363 25.40055137 -0.00078709 -0.01932560 0.02419228
H -3.12092706 11.38442492 27.57609650 -0.03174140 -0.00035070 0.00664788
H -0.87172544 12.18940201 33.69561189 -0.00475375 0.00137027 -0.01111506