2160
Time=1000.00000000 pbc="T T T" Lattice="20.56907572 0.00000000 0.00000000 0.00000000 29.04538881 0.00000000 -4.73155352 0.00000000 35.59750909" energy=-13753.85529697 virial="-121.41844684 -18.11033807 97.36023308 -18.11033807 -28.37626977 -16.24044934 97.36023308 -16.24044934 -64.45541609" stress="-0.00097778 -0.00083746 0.00506839 -0.00083746 0.00148411 -0.00069337 0.00506839 -0.00069337 -0.00023301" Properties=species:S:1:pos:R:3:vel:R:3
O 0.62643311 8.46666193 2.51442544 -0.00029164 0.00285046 -0.00123189
O 1.94931225 3.67276770 3.66192929 0.00171437 0.00803514 0.00076850
O 4.75423536 1.04756458 9.17385947 0.00641493 0.00007363 0.00446891
O 3.41458732 5.77922297 8.30067088 0.00170236 -0.00049683 -0.00226597
O 1.30602915 4.69428300 9.41082807 0.00232170 0.00454537 -0.00012018
O -0.08140541 9.66448713 8.28931462 -0.00524510 0.00535888 -0.00465964
O 4.03371133 4.79568562 2.41572927 -0.00003618 -0.00020883 -0.00368579
O 5.54795181 0.07448308 3.61714903 0.00417315 -0.00068624 0.00204640
O -0.63419965 8.32902722 14.24075243 0.00099526 0.00165817 -0.00424068
O 0.53375776 3.68194938 15.33336390 -0.00224393 -0.00486504 0.00016568
O 2.98812115 1.03979626 21.13169556 0.00126026 0.00299001 0.00577707
O 1.80358173 5.63480641 20.12291534 0.00034304 0.00377584 -0.00089838
O -0.42844240 4.54675383 21.34918119 -0.00657569 -0.00121045 -0.00064154
O -1.88875863 9.96036898 19.96710048 -0.00185816 0.00500595 0.00614572
O 2.45000953 4.57123929 13.97826694 -0.00302292 -0.00336773 0.00375839
O 4.08814176 28.95092051 15.62156744 0.00292652 -0.00283451 -0.00278942
O -2.65497513 8.23199411 26.18614560 0.00032165 0.00273342 -0.00106181
O -1.00084544 3.89672778 27.12153584 0.00031809 -0.00563016 -0.00546116
O 1.46727869 1.32592786 33.08157068 -0.00183662 0.00146747 0.00098117
O 0.10425882 6.00261655 32.04847354 0.00493172 -0.00336850 0.00054720
O -2.04723733 4.67424219 33.41642004 0.00229557 0.00605273 -0.00047417
O -3.33901586 9.83614367 31.85774285 0.00102145 -0.00273445 -0.00038744
O 0.88998579 4.81670365 25.65866718 -0.00061324 0.00055107 0.00678789
O 2.38674796 0.03793622 27.46200882 -0.00162920 -0.00606911 -0.00108192
O 0.79027314 18.31566136 2.60182140 0.00129045 0.00167355 0.00343301
O 1.86762677 13.35210616 3.60486069 0.00269168 0.00335826 -0.00323611
O 4.56121095 10.64876481 9.62879325 -0.00233846 0.00510170 0.00222393
O 3.29428063 15.45307756 8.29645068 0.00553757 0.00006540 -0.00270205
O 1.41647032 14.41411032 9.72821748 0.00569020 -0.00817618 -0.00212925
O -0.01455509 19.96610838 8.49303309 -0.00160881 0.00104786 -0.00313605
O 3.95096128 14.22461646 2.23039476 0.00170565 -0.00023856 -0.00042643
O 5.38959061 9.60143889 3.56273941 -0.00477085 -0.00513246 0.00410300
O -0.75591671 18.37795786 14.13009128 0.00350956 0.00232430 -0.00484516
O 0.43034143 13.73000614 15.43265270 -0.00195260 -0.00322175 0.00481009
O 2.88314897 10.82460582 21.27509335 -0.00049308 0.00339909 0.00069933
O 1.63610937 15.63687568 20.21220114 -0.00373051 -0.00405438 0.00045382
O -0.31564340 14.61980837 21.38648778 -0.00213134 0.00561541 -0.00147025
O -1.90269122 19.36594670 19.97723021 -0.00188298 -0.00019804 -0.00403847
O 2.38497396 14.78229091 13.99303573 -0.00077659 0.00310967 0.00210421
O 4.04744049 9.44537248 15.62470762 -0.00246192 0.00121197 -0.00792593
O -2.28166486 18.41574095 26.29941013 -0.00444152 -0.00104175 -0.00231128
O -1.49185232 13.43756556 27.10050880 0.00352107 -0.00072128 0.00332270
O 1.38527679 10.83713120 33.07839178 -0.00086196 -0.00311784 -0.00267772
O 0.18706005 15.68619473 32.15200145 -0.00566779 -0.00396549 -0.00075315
O -1.80226216 14.59639999 33.67546834 -0.00175018 0.00314592 -0.00289873
O -3.33623338 19.67987131 32.04511104 0.00147238 0.00374495 -0.00325052
O 0.59678385 14.56653883 26.00917411 0.00116090 0.00488853 -0.00400765
O 2.19585775 9.49503592 27.09231157 -0.00622589 -0.00159751 0.00169080
O 0.75805522 28.13842323 2.47386161 -0.00076928 0.00187400 0.00026588
O 2.02037586 23.27736912 3.46206031 -0.00074342 -0.00332395 0.00657632
O 4.87254999 20.38271000 9.47706876 -0.00665748 -0.00481387 0.00113315
O 3.40759440 24.93848462 8.02770285 -0.00396506 0.00311165 -0.00893976
O 1.48321878 24.17904721 9.88770657 -0.00181436 -0.00189781 0.00245738
O -0.07286840 28.93964515 8.29195553 0.00298934 -0.00296143 0.00047995
O 3.84623437 24.39265983 2.21152895 -0.00695531 -0.00031853 -0.00269383
O 5.47251656 19.28314324 3.79246091 0.00178859 0.00289586 -0.00003185
O -0.76921104 28.22349876 14.23938078 -0.00346299 -0.00388992 -0.00283499
O 0.36041185 22.88293059 15.19099279 0.00388510 -0.00444581 -0.00161603
O 2.74035808 20.47266630 21.44083422 0.00132946 0.00193388 0.00477646
O 1.96632320 25.28957925 20.35144017 0.00420211 0.00006806 -0.00164710
O -0.13491898 24.36226273 21.58352249 0.00850381 0.00399297 -0.00226856
O -1.74026263 0.28380187 20.12403834 0.00291868 -0.00471808 -0.00313110
O 2.53134867 23.94270895 14.28705654 -0.00151582 -0.00000640 0.00448195
O 3.96232238 19.13580158 15.47051921 0.00396539 -0.00284294 0.00073406
O -2.36339492 27.84497243 26.20787159 -0.00163437 0.00514290 -0.00115868
O -1.23144268 23.27903962 27.48887435 -0.00198309 0.00162148 -0.00150395
O 1.36427683 20.55404396 33.18715169 0.00082605 -0.00153703 0.00041783
O 0.14969896 25.65951000 32.32687857 -0.00316860 0.00364539 -0.00423470
O -1.92844599 24.39136365 33.30843588 0.00185006 0.00145969 -0.00077369
O -3.27491301 0.35000391 31.69965153 -0.00026261 -0.00135438 0.00411888
O 0.82687877 24.24666902 26.19687842 0.00264933 0.00156926 0.00378587
O 2.43262047 19.42673064 27.40768631 -0.00313206 -0.00080875 -0.00229647
O 7.27203485 8.55825327 2.17582811 -0.00118664 0.00108230 -0.00358510
O 8.82954883 3.65265568 3.72525030 -0.00478111 0.00296359 0.00175069
O 11.49602954 0.84064852 9.68811126 0.00070372 0.00021885 0.00133041
O 10.22995885 5.85082311 8.27007247 0.00396012 -0.00109299 -0.00189634
O 8.35084767 4.66161880 9.85692080 -0.00247127 -0.00089831 -0.00423433
O 6.56130968 9.70664668 8.34216354 -0.00321848 0.00025537 -0.00657084
O 10.67598762 4.76903074 2.13289285 0.00098651 0.00467185 -0.00083205
O 12.38534018 28.73052751 3.84060264 0.00397815 -0.00396300 0.00120381
O 5.92956733 8.32339192 14.39974654 0.00471105 0.00050393 -0.00076644
O 7.34244777 3.47054507 15.25180905 -0.00146372 0.00088998 0.00684353
O 9.97798415 1.15230833 21.14516296 0.00096195 -0.00079916 -0.00144520
O 8.63885417 5.89884013 20.06633416 -0.00328201 -0.00544701 -0.00034616
O 6.69647243 4.74126762 21.41595386 0.00168131 0.00133714 -0.00459817
O 4.98251006 9.69260557 20.07580874 0.00691703 -0.00235282 0.00216315
O 9.30437616 4.83762804 14.22458060 -0.00183995 0.00247401 0.00344915
O 10.78869888 0.15710967 15.75943582 0.00038566 -0.00226835 0.00419194
O 4.34537852 8.49319063 26.16392185 0.00179937 -0.00014751 -0.00222172
O 5.72419204 3.97075046 27.25928393 0.00027991 -0.00139461 0.00444822
O 8.34301900 1.25566033 32.90001525 -0.00103941 -0.00337765 0.00100786
O 6.96636675 5.92169444 32.20353009 -0.00193954 0.00369697 0.00094606
O 4.92325609 4.82661073 33.29364127 0.00681370 -0.00233624 -0.00335925
O 3.35957689 9.75261882 31.95701944 -0.00241621 -0.00097335 -0.00202523
O 7.76215795 4.50473665 25.79718903 0.00251155 0.00320974 0.00130761
O 9.11669500 28.81075260 27.43288002 -0.00848858 -0.00484277 0.00035720
O 7.58763035 18.01550716 2.72820662 -0.00515290 0.00279335 -0.00018666
O 8.77889254 13.40997395 3.72770024 0.00210567 0.00319199 -0.00435284
O 11.70411490 11.04061220 9.20860118 0.00504027 0.00213045 -0.00183085
O 10.41145102 15.51915398 8.55711694 -0.00090391 -0.00441768 -0.00152635
O 8.02749356 14.53612325 9.31966751 -0.00030949 -0.00140032 0.00098130
O 6.52432965 19.09383356 8.02015603 0.00112580 0.00437225 0.00194734
O 10.79020731 14.16462628 2.36800424 0.00372726 -0.00485968 0.00139527
O 12.31517574 9.49997152 3.51612738 -0.00652335 -0.00123431 -0.00208432
O 5.91444176 18.14176255 14.14698308 -0.00451215 0.00076637 0.00003785
O 7.16317386 13.46728079 15.32743084 -0.00119756 -0.00382135 -0.00244312
O 9.99238160 11.12733045 20.96428050 0.00412161 -0.00207523 -0.00151279
O 8.47649276 15.50525545 20.33050496 -0.00194816 -0.00260291 0.00045128
O 6.38906571 14.67710677 21.59871638 -0.00728627 -0.00037049 -0.00926117
O 4.82238540 19.45262174 20.16140903 -0.00444102 0.00476266 -0.00011875
O 9.21861135 14.19234257 14.10014830 -0.00520403 0.00105935 0.00601516
O 10.75373122 9.78743996 15.42704753 0.00451974 -0.00001518 -0.00203108
O 4.31957254 18.26558916 26.15921020 0.00066792 0.00363071 0.00190549
O 5.38211262 13.66214193 27.21034871 0.00219610 0.00084079 0.00059854
O 8.11617682 10.68301812 33.12450207 -0.00293244 -0.00332151 -0.00198384
O 7.15232181 15.35448215 31.91726252 0.00008274 -0.00223113 -0.00137763
O 4.88547277 14.73970402 33.19165840 0.00344849 0.00250930 0.00264100
O 3.61081167 19.69967301 32.15067382 -0.00127452 0.00341993 0.00253583
O 7.48104345 14.57873374 26.01279412 0.00053274 -0.00122927 -0.00152573
O 8.94957160 9.32118108 27.03204662 -0.00398545 -0.00511639 -0.00581107
O 7.66166672 27.96987034 2.30943055 0.00151329 -0.00479058 -0.00133907
O 8.71503800 23.14326357 3.56984215 0.00488827 0.00281545 -0.00212350
O 11.26630267 20.38824655 9.55141665 0.00214966 0.00030047 0.00235041
O 10.10775944 25.28662601 8.49919871 0.00368709 -0.00166556 0.00499722
O 8.16001524 24.24926418 9.52811417 -0.00474911 0.00135787 -0.00568019
O 6.59560468 28.73325451 8.16785660 -0.00584124 0.00643326 0.00093505
O 10.80219300 24.13875237 2.20900626 -0.00475962 -0.00316498 0.00277864
O 12.24063841 19.14922098 3.67375230 -0.00427445 -0.00036870 0.00046487
O 6.02272580 27.68907015 14.22422065 -0.00014186 0.00286015 -0.00642095
O 7.25803909 23.04616324 15.64529599 0.00118341 0.00402947 0.00228337
O 9.80822422 20.43048091 21.31543142 -0.00747968 0.00132288 0.00071783
O 8.75957186 24.87702138 20.16471512 -0.00401356 -0.00279945 0.00328879
O 6.58744061 24.21744088 21.48149934 0.00261621 -0.00424531 -0.00552754
O 5.18284677 29.01877614 20.27313508 -0.00395178 -0.00571649 0.00240135
O 9.33755839 23.74515103 14.43255013 -0.00070957 -0.00071022 -0.00127651
O 10.65251073 19.29735966 15.54937115 -0.00032742 0.00383649 0.00816204
O 4.24776525 27.87809152 26.13210241 -0.00358706 0.00345530 -0.00349281
O 5.69080520 22.93656393 27.07572395 -0.00197518 0.00521006 0.00303829
O 8.23601727 20.57895137 32.98242690 0.00098709 -0.00102596 -0.00139679
O 7.02449818 25.32661543 32.02136371 0.00433197 -0.00025355 -0.00239181
O 4.97352981 24.25444898 33.11618649 0.00405339 -0.00045701 0.00023499
O 3.34544462 0.08017756 31.86522926 -0.00364035 0.00030222 0.00218496
O 7.67165475 24.38586905 25.97303712 -0.00158642 0.00202074 0.00171602
O 9.27220052 19.24277701 27.47824693 0.00018815 -0.00080291 -0.00085280
O 14.43097365 8.36629605 2.52946635 -0.00122966 -0.00005764 -0.00082947
O 15.60147018 3.62006045 3.48965061 0.00031128 -0.00055210 0.00539696
O 18.41527782 0.92650532 9.46139840 0.00465967 -0.00064541 -0.00574605
O 17.22600278 5.90337036 8.16784590 -0.00201384 -0.00238163 -0.00336445
O 14.95952844 5.32826728 9.24680429 0.00774376 0.00544907 0.00099287
O 13.48621065 9.59781299 7.94670560 0.00294971 -0.00468615 0.00088219
O 17.44820812 4.76560739 2.11481731 -0.00831487 0.00066100 0.00168599
O 19.08883160 28.60797413 3.78974951 0.00426105 -0.00008760 0.00733763
O 12.75249239 8.73367658 13.98837797 0.00067235 0.00108288 0.00380200
O 13.91123934 3.91900461 15.48776910 0.00577013 0.00252871 0.00486436
O 16.70067134 1.08635286 21.37080452 -0.00238393 -0.00089242 0.00428173
O 15.37752845 6.25774786 20.15036624 -0.00700883 -0.00241570 0.00348889
O 13.46486931 4.99935993 21.29315521 -0.00176971 -0.00050400 0.00191357
O 11.91164321 9.87015982 19.88777144 -0.00073333 -0.00391857 -0.00194450
O 16.07805189 4.42283059 14.24631650 0.00363898 -0.00365388 0.00105705
O 17.60824234 28.94337421 15.33846275 0.00546724 -0.00050224 0.00281907
O 11.25847525 8.57812459 26.04831570 0.00541923 0.00538447 -0.00540234
O 12.57798651 3.81992443 27.02928171 0.00046649 -0.00225762 -0.00092052
O 14.93623089 1.23216219 33.09605028 0.00369966 -0.00544141 0.00659193
O 13.93097118 6.12580974 31.86904170 0.00486790 0.00079051 0.00075663
O 11.71971538 5.33219744 32.98061939 -0.00128012 -0.00476334 0.00147357
O 10.32041654 9.76521689 31.95664780 -0.00243208 0.00328848 -0.00251512
O 14.49508573 4.97166008 25.75971941 -0.00225860 0.00244627 0.00138492
O 16.16570765 0.07641094 27.38731881 0.00041414 -0.00116476 0.00655868
O 14.41454637 18.33757080 2.44503074 0.00416816 0.00067089 0.00484748
O 15.74381781 13.39741410 3.43429150 -0.00256788 0.00245037 0.00523967
O 18.39516599 10.96600370 9.42183775 -0.00209618 -0.00106568 0.00236330
O 17.16367635 15.57348629 8.36063400 -0.00217378 -0.00386708 0.00536761
O 15.10110459 14.75488122 9.77550414 -0.00177571 -0.00471798 -0.00050044
O 13.35134837 19.33968068 8.46967099 -0.00136161 -0.00063339 -0.00014085
O 17.64111300 14.55710324 2.19174818 -0.00638449 -0.00073284 -0.00162138
O 19.19224940 9.69888712 3.55028649 -0.00170689 0.00133341 -0.00480020
O 12.96321654 18.37634687 14.49633258 0.00127458 -0.00309786 0.00342443
O 14.14567012 13.77637516 15.15078902 0.00034059 -0.00283329 -0.00073506
O 16.57772627 10.70775584 21.47987999 -0.00474327 0.00457454 -0.00187575
O 15.21808059 15.81613035 20.16352264 -0.00077294 0.00270184 0.00067241
O 13.43106100 14.69210576 21.53284655 0.00127459 0.00034521 -0.00159984
O 11.73177736 19.34972715 20.14673464 -0.00060767 0.00578723 0.00324222
O 16.24769542 14.67791509 14.03713025 0.00087715 -0.00030415 0.00001845
O 17.79246775 9.46030056 15.28977262 -0.00260746 -0.00710386 -0.00370851
O 11.40143165 18.28376118 26.43666142 0.00084516 -0.00303649 -0.00080309
O 12.37975148 13.43521181 27.05090922 -0.00241439 0.00708358 -0.00188725
O 15.17049071 11.01501079 33.02650578 0.00278697 -0.00085511 0.00362188
O 14.01722406 15.85525466 32.17505499 -0.00229038 0.00132355 -0.00206459
O 11.95758439 14.73563578 33.31084579 0.00453257 0.00087806 -0.00012604
O 10.54783790 19.47202823 32.04831981 -0.00407912 0.00139549 0.00038866
O 14.49607254 14.67987225 25.95623914 -0.00112968 0.00389266 0.01019865
O 15.82379218 9.63323028 27.12572879 0.00325623 -0.00248665 0.00400470
O 14.38826842 27.97038842 2.50929994 0.00051992 0.00069747 0.00199419
O 15.50484907 23.22241371 3.70521777 0.00403880 0.00115077 0.00129044
O 18.12722429 20.32127590 9.57155761 0.00372879 -0.00186257 -0.00045990
O 16.88772868 25.42416594 8.78052981 0.00258263 0.00412423 -0.00343353
O 15.19186602 24.21857758 10.12771029 0.00324529 0.00036474 0.00015001
O 13.54383039 0.34795727 8.35279462 0.00110770 0.00097835 -0.00193643
O 17.44796253 23.94005285 2.23692310 -0.00099526 -0.00019413 -0.00738343
O 19.13666267 19.33186075 3.56579882 -0.00013603 -0.00237930 0.00010841
O 12.74332693 28.31696034 14.31934765 0.00174312 -0.00105255 0.00283610
O 14.12595414 23.08192220 15.42510334 -0.00188008 0.00161539 -0.00229140
O 16.71846624 20.53263105 21.41391627 -0.00190117 0.00065396 -0.00581972
O 15.53780128 25.35039043 20.27414395 -0.00362512 -0.00055389 -0.00162074
O 13.35494292 24.44856232 21.36864734 -0.00245306 0.00077413 -0.00031608
O 12.01888014 29.04263581 20.04733749 -0.00038804 -0.00145487 0.00465994
O 16.15469805 24.21705072 14.32478888 0.01083942 0.00131005 0.00278774
O 17.77516184 19.32428959 15.59263518 0.00021330 0.00025636 -0.00313671
O 11.33373984 27.88585645 26.26498565 0.00092005 0.00254672 0.00284376
O 12.66848253 23.17593092 27.17253832 0.00012436 0.00232374 -0.00181124
O 15.22718328 20.29968723 33.47234201 -0.00332654 -0.00567699 0.00630731
O 13.86742598 25.82869635 32.27141168 0.00390274 -0.00098576 -0.00021923
O 11.97521952 24.47197782 33.35617320 -0.00107299 -0.00272277 -0.00780394
O 10.52912444 0.29719543 31.85199184 -0.00472863 -0.00078691 0.00024102
O 14.60558450 24.20812747 26.05965956 -0.00436965 0.00121193 0.00328778
O 16.08037322 19.39049211 27.40738595 0.00833229 0.00059514 0.00049707
H -0.32104179 8.97611486 2.81831382 0.02777134 -0.01113197 0.02223816
H 2.83579144 4.02366002 3.29425898 0.04056015 0.00663692 0.01951929
H 5.56267316 0.44578046 9.11134714 0.01798086 -0.00475355 0.00136080
H 2.50084059 5.46630822 8.85617270 0.02250019 0.01187576 -0.01306286
H 5.37841695 8.13535912 0.39104518 0.00298707 0.02292202 0.01954932
H 3.96813737 3.31907389 5.19735882 0.00688594 0.00751790 -0.00199790
H -0.15549071 1.43883595 11.13217800 -0.00879605 0.00546243 -0.00194982
H 1.43647205 6.25547314 6.75369059 0.00637137 -0.01856097 0.00283840
H 4.09002389 6.70684169 10.55171271 -0.03055646 0.00910358 0.00903657
H 3.89274750 1.94059753 7.27390382 0.00102080 -0.02367661 0.05529873
H 1.18436128 3.06009993 1.07466785 -0.05090987 0.01563415 -0.02116790
H 1.39526237 7.58761185 4.72782439 0.01151249 -0.01116841 0.01431751
H -2.15580746 5.25199538 35.52747576 0.00183888 -0.01592113 -0.00027135
H -0.01371694 0.60186446 6.21902027 -0.00504781 -0.01154623 0.00474544
H 2.68544650 4.14922697 11.78296044 0.01845010 -0.01795007 0.00196491
H 5.37965362 8.98452990 5.81801467 0.03347943 0.02592150 -0.00955768
H 2.50196432 6.80157620 1.99749438 -0.00075620 0.00662458 -0.00008361
H 0.02049658 1.93878256 4.34046995 -0.01159144 0.00585755 0.00080206
H 2.58052652 2.39900501 10.00052371 -0.00059110 0.00362219 0.00096557
H 5.34923716 7.39646304 7.65759386 0.02016708 0.02192733 -0.00522667
H 5.12403711 4.79658774 9.62081693 0.03913335 0.01966858 0.01653677
H 2.96873490 0.25198660 8.29382243 0.02495414 0.03794312 -0.01965435
H 0.09761209 4.65184226 2.52927881 0.04631141 0.01897442 0.04259578
H 2.22895715 9.36547073 3.66252160 0.03724584 -0.01683453 0.01475660
H 5.87914734 3.53497866 8.11863739 0.04038533 -0.01106183 -0.00422866
H 1.94603298 7.84501200 9.82889967 0.00423547 0.01190792 -0.01350252
H 18.28563846 7.10078450 3.42971429 0.02221549 -0.00130845 -0.00095367
H 3.23873700 1.07274396 1.67099305 -0.00814052 0.02383134 -0.04784688
H -0.31439179 2.73699686 8.20631670 -0.00923393 0.06727594 -0.01116227
H 0.29157067 8.38122296 10.34400997 0.03156363 0.01965592 -0.01740703
H 6.67749825 5.95464253 3.90010754 0.06026004 0.00926788 -0.00070804
H 4.14724835 2.36351551 2.52394968 -0.00995724 -0.01384638 -0.01570742
H 0.46451462 3.88498482 7.09709272 0.02582762 -0.00203400 -0.01152739
H 1.74268088 9.34315987 10.66903891 -0.04030173 -0.02749870 -0.01775569
H 5.57626328 7.14527856 3.34130503 -0.00595137 0.05135596 -0.01395854
H 4.94618095 1.18921168 1.45456620 0.03413892 -0.00935396 -0.02042838
H -1.53623329 8.74490523 14.52012487 0.02693774 -0.00756364 -0.00853282
H 1.44171844 3.95088249 14.88441719 -0.00222256 0.01344419 -0.00792002
H 3.85778586 0.45263528 20.81216904 0.03172520 -0.01104576 0.00349314
H 1.04867501 5.09316853 20.43937407 0.00248260 -0.02110568 -0.01078480
H 4.08248623 8.41718538 12.43318093 -0.00769762 0.01721964 0.00018840
H 2.53772835 3.16466081 16.88079270 -0.02635048 -0.00022758 0.01392691
H -1.79199327 1.56376048 22.88037006 -0.01995415 0.03859164 0.01368856
H -0.33456315 6.23746700 18.52737889 0.02819788 -0.00727113 -0.00903260
H 2.44500175 6.36172199 22.64947807 -0.03109979 -0.01262325 -0.01213718
H 2.50343156 1.70006808 18.91155008 -0.00454996 0.00981913 0.00404770
H -0.29056376 3.13779574 12.90697057 -0.00924693 0.00643695 -0.00077134
H -0.16850239 7.69957699 16.75651522 -0.00276364 -0.00634856 0.00893141
H 1.09896983 5.14629655 11.50506160 -0.01881295 0.04148743 0.00794289
H -1.60379807 0.74115740 17.91654904 -0.01659146 -0.01245663 0.01584702
H 1.04738410 4.04557207 23.72162017 0.01182546 0.00566226 0.00489473
H 3.66269502 9.00629395 17.85056437 0.00618145 -0.00786793 -0.01005594
H 1.27815610 6.62229058 13.42841201 0.00010272 -0.02344065 -0.02253721
H -1.51309519 2.16697623 16.03985624 -0.00124812 -0.00843410 0.00333043
H 0.99552150 2.33501734 21.96440734 -0.00244328 -0.00886136 -0.00436140
H 3.88463470 7.28570975 19.49871647 0.03949009 0.01072581 0.00991635
H 3.54949473 4.85350097 21.62406873 0.04372595 -0.01104869 0.02960762
H 1.40273161 28.95219628 19.87708119 -0.03915594 0.02039391 -0.03298620
H -1.33906795 4.86122853 13.95332807 0.02543229 0.02380945 0.01426325
H 0.75933098 9.73259442 15.73543576 -0.02658020 0.00207408 -0.00742045
H 4.14013006 3.51626143 19.98173604 0.06379182 0.00485241 -0.00982924
H -1.20093916 8.49821957 22.17531684 -0.01007597 0.01364696 0.02243515
H -1.90998875 6.00404780 15.50330697 -0.03633971 -0.00029713 -0.00377398
H 1.35939802 1.31742118 14.17284057 -0.02242529 -0.00726098 -0.03419635
H -1.85208590 2.56350444 20.23055548 0.00950188 -0.02109179 0.03296216
H 0.67450378 8.29320777 21.40383846 0.00648580 -0.00283597 0.01292290
H 3.16918213 5.73031181 16.24467649 -0.05809507 -0.01891714 0.04280755
H 3.06459261 2.10163193 14.47182207 0.02162073 0.03108373 0.02192346
H -1.54511914 3.74870846 19.10763604 0.02617912 0.03115440 -0.03817666
H -0.87487584 7.31364509 20.65894596 -0.01862259 0.02044229 -0.01143042
H 4.97502189 5.91522494 15.66666685 0.04355856 -0.02043006 0.00600660
H 3.01423723 0.93298618 13.25878467 -0.02523601 0.01167065 0.03936669
H -3.45458064 8.85418920 26.31356799 0.01187394 -0.01331288 -0.00081118
H -0.14560779 4.12745757 26.74907498 -0.01009567 0.00476873 0.00793311
H 2.32764401 0.76489797 32.64313536 -0.05299538 -0.00104870 0.02346498
H -0.73616384 5.59145821 32.28194002 -0.00032779 0.00990530 0.01617937
H 2.39704659 8.01664171 24.42151648 -0.00850879 -0.00331236 -0.02201318
H 1.03328319 3.38398485 28.87774971 -0.01747766 -0.00575627 0.02216835
H -3.54247369 1.63553373 34.72235022 0.01026126 0.00740776 0.02655175
H -1.94232305 6.48067244 30.47801376 -0.00891909 -0.01979233 -0.00613750
H 0.71107301 6.47127898 34.25135291 -0.04358220 0.00219648 -0.00441759
H 0.89573213 1.94414319 30.70021226 0.00251374 0.00461820 -0.00128646
H -1.79400531 3.14951365 24.82914947 -0.01634642 -0.01510122 -0.01670052
H -1.85960813 7.91214468 28.47992562 -0.01779528 -0.02289044 -0.00658250
H -0.72192854 5.32302872 23.21516379 -0.01225354 0.01975093 0.00442887
H -3.05292127 0.82991914 29.65190643 -0.05830122 -0.00214409 -0.00345251
H 4.16841130 4.31671767 0.11583683 -0.00621795 0.02001887 0.00247298
H 2.15762654 9.23947105 29.42409730 0.00769546 0.00407824 -0.00446873
H -0.59470997 6.66983982 25.34504883 -0.01618630 0.00484687 -0.00841540
H -3.02458390 2.18548317 27.65311327 -0.00048522 -0.01039184 0.01107992
H -0.66915632 2.56740274 33.98586835 -0.00388466 -0.00814798 0.00251983
H 2.11521039 7.54250497 31.29258243 -0.05521209 -0.00410769 -0.02295278
H 1.83582475 4.92979875 33.09435417 0.03943918 0.01637141 0.04567827
H -0.17933224 0.25511296 31.82697081 0.07799620 -0.02305633 0.05371117
H -2.82842369 4.90256010 25.98868083 0.01080853 0.02164601 -0.00005212
H -0.84413402 9.79446434 27.42730578 -0.07499520 0.02335349 -0.02254197
H 2.88456936 4.42347965 31.06197199 0.00925068 -0.02843516 0.00855766
H -0.54773838 8.76249138 33.41578344 -0.01450787 -0.02538826 -0.00570933
H 16.83222874 6.32702329 27.67406315 -0.01863158 0.00227348 -0.01517804
H -0.10645534 1.05404478 25.73856421 -0.01537161 -0.00598481 0.01447395
H -3.06710170 2.73213739 31.98458887 -0.02431320 0.05746855 -0.01766602
H -2.30442381 7.85256256 33.25267635 0.02513869 0.00721377 0.00962627
H 3.37405241 5.95430617 27.47827406 0.05913218 -0.01697461 0.01320751
H 1.29529960 2.26042719 26.15711744 -0.00075272 0.00921146 0.01150112
H -2.98655030 4.29425620 30.84486463 -0.02800220 -0.01671695 0.04640562
H -2.17566432 9.21429288 34.22621323 -0.02464815 -0.00237880 0.03569710
H 2.17989058 6.95480736 26.72241143 0.03117122 -0.06270796 0.02254699
H 1.42744725 0.77446774 25.05908791 0.00773754 -0.02945994 -0.02358350
H -0.02971439 18.82842386 2.99236163 0.01500185 -0.01355712 0.00538806
H 2.73632039 13.82284444 3.24528729 -0.00394275 0.02778536 -0.01434788
H 5.34096437 10.29057990 9.22001796 0.01043234 -0.00935332 -0.01011866
H 2.38720478 15.21182064 8.79193826 -0.02070300 0.00174237 0.00462642
H 5.63148881 17.95878516 0.87500191 0.01353323 -0.00182125 -0.00768929
H 3.82663420 13.02554828 5.17365946 0.00225458 0.00913567 -0.00366935
H -0.30968921 11.24294313 11.20840066 -0.05011099 0.03070944 -0.01612117
H 1.24088990 16.02123522 6.64710723 -0.02109008 -0.02354965 0.00186371
H 3.88538319 16.05042659 10.77855445 0.00893190 0.00361039 0.03084033
H 3.85511008 11.47413870 7.12567477 -0.00372740 0.00746940 -0.00737102
H 1.15047873 12.62352632 1.32093714 0.00888669 0.00175242 0.00386378
H 1.43224131 17.63911516 4.86417141 -0.00038835 0.00509218 0.00609128
H 2.63878320 15.05799536 0.17580367 0.04445171 -0.01289652 -0.00717552
H -0.02719468 10.12970515 6.09465149 -0.02960297 -0.00158562 -0.01295588
H 2.46480364 13.70735800 11.97376893 0.01365435 0.00044240 0.01337252
H 5.49392535 18.43706211 5.72356592 -0.02503528 -0.02167268 -0.00235622
H 2.74855677 16.59608124 2.12808540 0.00327796 0.00040311 0.00601465
H -0.05817446 11.50021701 4.25607069 -0.00318644 0.00792526 -0.00028863
H 2.65319597 12.35653743 10.16058487 0.01854954 0.01010747 0.00517314
H 5.39687834 16.72457008 7.47188810 -0.02320010 0.00212113 -0.01747749
H 4.80447265 14.50226038 9.31074856 -0.03704568 -0.00846831 -0.01961804
H 3.24972195 9.67610187 8.40349040 0.00705966 -0.01037045 0.00964964
H 0.16074933 14.33092435 2.41937635 -0.03087022 0.03686640 0.00240257
H 2.24872731 19.39999821 3.92698528 0.04953699 0.00596094 0.01750881
H 5.64640595 12.63139417 8.11799722 0.06131236 0.01678842 -0.01924646
H 2.46772627 18.11708917 9.45899656 0.02085920 -0.01860280 -0.02297139
H 19.82825636 15.49649620 4.23489975 -0.01945583 -0.00371034 -0.02768355
H 2.80740949 11.46047628 2.47310814 -0.01127675 0.02454995 0.02772315
H 0.62265455 13.05235867 7.74663203 0.01409473 -0.00905939 0.00261696
H 0.82620437 17.74960846 9.60593710 0.01358919 0.03694006 0.02586504
H 5.58349492 16.59609143 2.92736781 -0.01858210 -0.03132822 0.01426933
H 4.64623108 11.74744417 2.16735569 0.02527710 -0.00039565 -0.00120209
H -1.08007545 13.05457889 8.20919298 -0.00560418 0.01051407 0.00418537
H 1.53795758 18.91989742 10.52864953 0.00339599 -0.01694521 0.01086533
H 4.24163824 16.02118904 3.92085927 0.07120933 -0.01233776 -0.03541151
H 3.80657376 10.40651519 1.25042688 -0.01167760 -0.01352972 -0.05475351
H -1.76039951 18.63438658 14.41449031 -0.00841446 -0.00705121 -0.00546911
H 1.21803990 13.90942869 14.90238436 -0.00894956 0.02148656 0.00144466
H 3.81976258 10.45813996 21.00706316 -0.00096765 -0.00370220 -0.00017970
H 0.83672245 15.25023870 20.55448398 0.00373433 -0.00276717 0.02495494
H 3.98985966 17.81033290 12.53092662 -0.01347584 0.00079992 -0.01041855
H 2.37945715 12.97260165 17.05069705 0.00794493 -0.00103257 0.02911024
H -2.06544242 11.05963587 23.20575412 -0.05363246 0.02736557 0.00888585
H -0.35992388 16.03238785 18.57347118 -0.01398911 -0.00084464 0.00076707
H 2.27950007 16.31551355 22.50327836 0.01233692 -0.00326287 -0.02262410
H 2.23447460 11.69408185 19.02912882 0.03415764 -0.00405914 0.00141847
H -0.22648854 12.84765236 12.90552348 -0.00032363 0.01065739 0.01078886
H -0.24288060 17.66246750 16.60657178 0.00073930 0.00611485 0.00163917
H 1.28137358 15.19137335 11.58647201 -0.02733503 0.02664165 0.00972919
H -1.75066121 10.55755600 17.68506134 -0.01070771 0.00352231 -0.01745511
H 0.86845559 14.17895765 23.86392750 -0.00651128 0.00527147 0.01842947
H 3.68605633 18.84285554 17.78484127 -0.00325263 0.01010526 -0.01075763
H 1.14694822 16.74777208 13.53774733 0.01376062 -0.01439974 0.00631176
H -1.65119665 12.16356136 15.98446411 -0.00509237 -0.00033629 -0.00609647
H 0.89301997 12.52514746 21.77101815 -0.01701260 0.01831346 -0.00785553
H 3.77252040 17.07457981 19.54085774 0.02040396 0.02384258 -0.00944235
H 3.18729230 14.51077847 21.48437599 -0.01253377 -0.01415038 0.00968503
H 1.24451690 9.59129748 19.75683406 -0.03498388 0.00428368 -0.02462748
H -1.24600888 14.40405133 14.37440618 -0.01737769 -0.01633342 -0.02352778
H 0.90748671 19.28908856 15.56880215 0.02371648 0.02597268 -0.00166824
H 4.23638957 13.81804772 19.24869677 0.02033014 -0.01254212 0.02131751
H 0.50077665 18.97556834 22.09308113 0.03162387 0.03073815 0.00522889
H -1.87217266 15.71228527 15.95625701 0.03875225 -0.02624921 0.02456376
H 3.48157627 10.76016538 13.39007672 0.05338189 0.01567973 -0.02856650
H -1.31278153 12.32291436 20.31847518 0.01074006 -0.00299626 0.00978045
H 0.18963296 17.40792686 21.27966009 0.02654384 -0.04962317 -0.02496761
H 4.09894928 16.66753268 15.27017194 -0.01307489 -0.02947989 0.01722906
H 1.78820266 10.02187290 13.48191730 0.01376819 0.00603038 -0.00844502
H -1.58925508 13.85361761 19.07403374 -0.01548475 0.01861544 -0.02533291
H -1.08064820 18.22048358 22.20098943 0.06017457 0.01114754 -0.02763158
H 2.80880039 15.78389866 16.24437049 -0.06726961 -0.00120814 0.04127540
H 2.22458714 11.59982932 14.43631052 0.01078087 0.01038735 0.00061716
H -3.08869775 18.81848718 26.61601927 -0.02290215 -0.00417127 0.00281222
H -0.69453037 13.85196969 26.71875010 -0.00072360 0.02081203 0.01253305
H 2.30149280 10.39141357 32.77466960 -0.01029331 -0.00788006 -0.01100845
H -0.67618924 15.31273427 32.51790434 0.03912112 0.03323529 -0.01751788
H 2.30100133 17.84060395 24.61751544 0.01783918 -0.02252658 -0.02744815
H 0.43716454 13.33876676 28.80260005 0.03249778 -0.00177637 0.02275254
H -3.61871941 11.05382178 34.92602482 0.01432319 0.01288300 0.01649484
H -1.74229009 15.95935623 30.43184567 0.03841660 0.00213141 0.00159923
H 1.04869025 16.36254023 34.53885463 -0.00991884 -0.01254229 -0.02710492
H 0.64379237 11.71356834 30.64610681 0.00288154 -0.00355480 -0.00444344
H -2.05102825 12.69479495 25.08254700 0.02621146 0.00935275 0.00237348
H -1.78143813 17.66371348 28.58592979 -0.03742004 0.00544954 -0.00858152
H -0.52947348 15.07416637 23.75898446 0.03790663 -0.03483235 -0.01993449
H -3.37193526 10.36793264 29.83462277 0.05850462 -0.00064569 0.01543114
H 4.10196885 13.64561076 0.17728122 -0.05018873 0.02460121 -0.00171686
H 2.30369864 18.74645883 29.63374445 0.02629903 0.00223655 -0.01871695
H -0.22963744 16.91180287 25.42633931 0.04829083 0.02382540 0.01122277
H -3.50109778 11.92798094 28.00089038 -0.00126153 0.01030440 0.02406326
H -0.63278665 12.20542728 33.97493577 0.02847489 0.02964608 0.00821193