2160
Time=62000.00000005 pbc="T T T" Lattice="20.68190929 0.00000000 0.00000000 0.00000000 28.94472596 0.00000000 -4.72248543 0.00000000 35.46119357" energy=-13797.00347531 virial="-34.49719140 36.51090639 101.39812531 36.51090639 -26.35939893 -29.49517374 101.39812531 -29.49517374 -26.09137431" stress="0.00092278 0.00178370 0.00485548 0.00178370 0.00126139 -0.00143085 0.00485548 -0.00143085 0.00122667" Properties=species:S:1:pos:R:3:vel:R:3
O 0.91997325 8.58536523 2.37465592 0.00153609 -0.00317662 0.00096935
O 1.89769150 3.69662600 3.53994625 -0.00221051 0.00074008 -0.00151519
O 4.63739790 1.31301777 9.16937626 0.00070423 0.00539760 0.00763221
O 3.31295028 5.83803952 8.32803253 0.00181088 0.01343448 0.00296722
O 0.97575875 5.34436052 9.41384122 -0.01051299 0.00145542 -0.00475703
O -0.18869026 9.78383602 7.92608492 0.00225823 -0.00106052 -0.00010763
O 4.00016244 4.81977409 2.33715730 0.00322742 -0.00334771 0.00391103
O 5.82710952 0.17209303 3.81135945 0.00224198 0.00203623 0.00123038
O -0.97009644 8.47301527 14.54703524 -0.00325746 -0.00035561 0.00538774
O 0.13913924 3.80688149 15.28350245 0.00743470 0.00417415 0.00182798
O 3.14535925 1.16622289 21.13243737 0.00483657 0.00415483 -0.00239299
O 1.73451270 5.70000064 20.07355989 0.00162265 -0.00185843 -0.00650877
O -0.58689514 5.03226246 21.11348958 -0.00308336 0.00394050 -0.00695074
O -1.90213409 9.18702907 19.98946647 -0.00420838 -0.00667313 -0.00573330
O 2.20861359 4.81247305 14.04745875 0.00393291 0.00389023 0.00190563
O 3.89165391 28.83410937 15.23894241 0.00000830 0.00684918 0.00453047
O -2.39994890 8.55835495 25.92523247 0.00053289 0.00527817 -0.00335551
O -1.57743441 3.57652556 27.20919583 -0.00335462 0.00825586 -0.00223000
O 1.64039290 1.19837338 32.92028723 0.00069683 0.00165390 0.00327819
O 0.30402707 5.69554049 32.14501630 0.00396678 -0.00225038 0.00340415
O -1.99574957 4.91590405 33.06952668 0.00078781 0.00124930 -0.00078107
O -3.36452433 9.60272105 32.20776278 0.00104145 0.00452441 0.00023267
O 0.73452577 4.35290090 26.04431876 0.00051882 0.00345846 0.00064489
O 2.28245100 28.74271947 27.21161036 -0.00559364 0.00357291 -0.00376375
O 0.98189460 18.61408694 2.12163804 0.00170266 0.00348255 -0.00046466
O 2.06333931 13.67114331 3.53566334 -0.00963076 0.00463186 -0.00480548
O 4.72942100 10.65852536 9.14898242 0.00256837 -0.00038703 0.00529877
O 3.33448458 15.61197278 8.36502669 0.00683992 0.00665572 0.00430435
O 1.36101428 14.33326250 9.77355000 0.00078187 -0.00341006 0.00823197
O -0.14324401 19.63920877 8.11124040 0.00171934 0.00121617 0.00250325
O 4.05464304 14.51098049 2.23740205 -0.00382604 -0.00391561 0.00545849
O 5.58120090 9.54744310 3.64350374 -0.00054609 0.00044576 -0.00098861
O -0.94582358 18.16301021 14.24552383 0.00350471 0.00114126 -0.00050213
O 0.12807943 13.57642149 15.50932260 0.00022496 -0.00296921 0.00357290
O 3.04689814 10.69009702 21.48459205 0.00224614 0.00259349 -0.00425473
O 1.80965425 15.28895773 19.71085027 -0.00274852 0.00366777 0.00273470
O -0.22065243 14.69190194 21.32882457 -0.00815601 -0.00206764 0.00291146
O -1.67424803 19.76843721 20.17972275 0.00344980 -0.00145269 0.00311375
O 2.50912535 13.96084773 14.20459871 -0.00616796 -0.00341387 0.00260530
O 3.77842809 9.36528165 15.30978069 -0.00119894 -0.00571446 0.00027232
O -2.42960157 18.05758690 26.22208135 0.00140263 -0.00085658 -0.00345587
O -0.99653829 13.14127419 27.27264274 -0.00119891 -0.00022487 0.00034522
O 1.16433229 10.69794459 33.20764350 0.00152439 0.00429795 -0.00963213
O 0.41418064 15.47921197 32.07100402 0.00442350 0.00437213 0.00302888
O -1.62127440 14.55519908 33.08039251 -0.00528680 -0.00259217 -0.00233043
O -3.14825281 19.39559584 32.10174071 0.00665392 0.00934240 0.00556904
O 0.96302238 14.56075955 26.27185684 0.00431740 -0.00027547 0.00091285
O 2.20802237 9.11260341 27.31867002 -0.00045761 -0.00137310 -0.00019361
O 0.70367369 27.84465728 2.53445328 0.00355752 -0.00464765 0.00700775
O 1.92788248 23.46251731 3.59646736 -0.00191138 0.00476003 0.00377435
O 4.52014219 20.27958946 9.37943140 0.00235056 0.00883780 -0.00124415
O 3.52574137 25.36935323 8.35301084 -0.00489931 0.00212933 0.00047007
O 1.30643764 24.62637371 9.53882359 0.00018930 0.00440025 0.00263017
O 0.05768102 0.33303593 8.71122739 0.00102557 -0.00406608 -0.00099523
O 3.85320262 24.13649827 2.05180606 0.00071436 -0.00587346 -0.00237316
O 5.70454657 19.26502151 3.80832761 0.00075832 -0.00132401 -0.00525012
O -0.84869843 28.04733371 14.44451320 -0.00140579 -0.00621531 -0.00245348
O 0.48085727 23.10340554 15.31325498 -0.00079517 0.00414955 -0.00230813
O 2.75505656 20.30065614 21.25657054 0.00633182 0.00194181 0.00751665
O 1.80283622 25.26218041 20.21617666 0.00242792 0.00438357 -0.00184128
O -0.38957231 24.50632289 21.29224250 0.00248496 0.00070032 -0.00421536
O -1.82589208 0.15279985 20.03259930 0.00314206 0.00084559 -0.00194413
O 2.48062292 23.94950898 14.10778299 0.00529355 -0.00024544 -0.00026026
O 4.15338010 19.24674775 15.21845220 0.00008859 -0.00623428 -0.00172479
O -2.64055697 27.55936275 26.26084045 -0.00116591 -0.00782994 -0.00056979
O -1.14256269 23.11007768 27.31301568 -0.00084391 0.00322647 -0.00007687
O 1.72996732 20.36029964 32.98431491 -0.00008355 0.00346081 0.00545125
O 0.41399056 25.38789505 32.11385670 0.00359442 -0.00302217 0.00022617
O -1.84789272 24.06979379 33.42085231 -0.00020753 -0.00121225 0.00477460
O -3.39098726 28.75473183 32.07163724 -0.00200597 0.00114884 -0.00898456
O 0.89434663 23.79154727 25.92867570 0.00043562 -0.00287606 -0.00098774
O 2.47573558 19.09941160 27.32481250 -0.00574213 0.00211040 0.00235809
O 7.77620987 8.84122650 2.48231561 -0.00086387 0.00692358 -0.00475618
O 8.94406879 3.68070038 3.23441666 0.00391474 -0.00257370 -0.00150211
O 11.47111253 1.05077464 9.39974237 -0.00068281 0.00005436 -0.00232574
O 9.96871883 6.27938718 8.63193423 -0.00266726 -0.00072495 -0.00534426
O 8.16353155 4.69191250 9.46428942 -0.00657773 -0.00363983 -0.00524815
O 6.68351702 9.46786520 7.97821853 -0.00633052 -0.00244667 -0.00271279
O 10.88673815 5.09623973 2.27759535 -0.00758399 0.00255549 -0.00361563
O 12.59021658 0.29987178 3.50270745 -0.00056188 -0.00236648 -0.00003706
O 5.96534131 8.54143389 14.01577066 0.00028300 0.00465778 0.00164380
O 7.31241209 3.47612349 14.99266252 0.00117434 -0.00055401 -0.00962336
O 9.61394910 1.14969974 21.38406027 0.00436969 0.00101557 0.00033947
O 8.51346802 5.87557740 19.88078616 -0.00640137 -0.00335724 -0.00086901
O 6.65591644 5.04689152 21.28869007 0.00016295 0.00081799 0.00035121
O 4.99039783 9.72930214 20.26683783 -0.00259897 -0.00123325 -0.00503707
O 9.09338285 4.68431137 13.80654235 -0.00425421 -0.00168943 0.00410183
O 10.70851028 28.57427488 15.47466075 -0.00532772 0.00111691 0.00269560
O 4.42293911 8.69482476 26.02789446 0.00115608 -0.00014854 -0.00275585
O 5.41693108 3.97322874 27.22476667 0.00389708 -0.00201183 0.00214688
O 8.19044748 1.25802778 32.99399187 -0.00049396 -0.00069233 -0.00253042
O 7.06507588 5.96238412 31.76231426 0.00401549 -0.00436667 0.00221744
O 5.02690575 5.15958581 33.09751786 -0.00231757 -0.00076820 -0.00335889
O 3.39143879 9.72279407 31.82322954 -0.00339916 -0.00016528 0.00544177
O 7.68706660 4.98853685 26.06858487 0.00042609 -0.00765722 0.00477888
O 9.18148346 0.16126207 27.32013843 0.00225441 0.00051355 0.00088963
O 7.95276144 18.43051410 2.19066529 0.00317840 -0.00154024 -0.00385788
O 9.10808598 13.38643459 3.59821904 -0.00543843 -0.00333252 0.00303771
O 11.41670842 10.46531591 9.39615375 0.00738624 0.00063465 0.00325538
O 10.18358370 15.40318198 8.40913113 -0.00595707 -0.00183990 0.00042985
O 8.26759283 13.97747941 9.31808440 0.00368445 0.00488862 -0.00315768
O 6.65195376 19.24852395 8.14646376 0.00002598 0.01489810 0.00218202
O 11.04864479 14.53325810 2.30950588 -0.00170462 -0.00394892 -0.00265100
O 12.42459125 9.76664374 3.55457094 -0.00225610 0.00008963 -0.00011559
O 6.10637577 17.89247416 14.02476568 -0.00412830 -0.00350168 -0.00126023
O 7.24516359 13.20111045 15.27507000 -0.00125964 -0.00221220 0.00241887
O 10.26149734 10.98391092 20.97025711 -0.00035204 -0.01131305 0.00361610
O 8.73725594 15.36794488 20.09660647 0.00260925 -0.00309139 -0.01029980
O 6.53347823 14.81984715 21.14328729 0.00280486 0.00199996 0.00048041
O 4.90817621 19.53105471 19.90932388 -0.00755958 -0.00502656 -0.00477429
O 9.39016081 14.23727798 14.02065466 0.00019794 0.00773746 0.00024502
O 10.69306147 9.55861913 15.34540342 0.00174244 0.00371924 0.00398552
O 4.81185821 18.19726054 26.30866557 0.00431048 -0.00296612 -0.00511444
O 5.68858806 13.63605245 27.27965123 0.00485843 -0.00478679 0.00453711
O 8.16880371 10.65232159 32.99974019 0.00348360 0.00200590 0.00088033
O 7.35042209 15.58232487 32.09714580 -0.00301885 -0.00143321 -0.00169605
O 5.22015531 14.40476032 33.26170940 -0.00068211 -0.00053754 0.00329508
O 3.67548458 19.02736763 31.84196992 -0.00605443 -0.00006101 0.00281451
O 7.79483899 14.27637713 25.83691456 -0.00199573 0.00255388 -0.00335501
O 9.21500717 10.16241010 27.61440154 0.00666063 -0.00709825 -0.00219059
O 7.73407610 27.78158329 2.39425197 -0.00268153 0.00375958 0.00183663
O 8.66206578 23.16088776 3.78580157 0.00395100 0.00878163 0.00315373
O 11.62126557 20.23358005 9.50866272 -0.00688890 0.00134772 0.00272983
O 10.59561914 25.25116587 7.95421698 -0.00305372 0.00415780 0.00207647
O 8.56703388 24.40002850 9.27138105 0.00747943 0.00647326 0.00719076
O 6.67399943 0.21302267 7.90269386 0.00293684 -0.00746322 -0.00192491
O 10.81339339 23.87266394 2.45643769 -0.00434938 0.00248200 0.00289962
O 12.63506818 19.21765621 3.96700209 0.00267100 -0.00468511 0.00219873
O 5.96109559 27.55193257 14.25821836 0.00258580 0.00524337 0.00328885
O 7.20599829 23.04764805 15.31608738 -0.00054025 0.00265515 0.00178199
O 9.68195395 20.63199513 20.91618256 -0.00295961 0.00739428 -0.00001583
O 8.69012016 25.04306355 20.06042197 -0.00072295 0.00262127 0.00148005
O 6.68941758 24.11101931 21.35918072 0.00090284 0.00220605 -0.00044434
O 5.11708166 0.00786682 19.78334208 -0.00038631 0.00570431 0.00344012
O 9.31878521 24.00150202 14.05878814 -0.00465329 -0.00065704 -0.00089698
O 10.80364081 19.40353150 15.38194593 -0.00021625 -0.00259281 0.00195141
O 4.30972035 28.13996088 25.53862309 0.00235012 0.00050779 -0.00389596
O 5.67633410 23.08288979 27.25695543 -0.01136577 -0.00482241 0.00334650
O 8.27838036 20.29998955 33.08492545 0.00284935 -0.00340886 -0.00396324
O 6.89607267 25.42521473 32.05357407 -0.00034400 -0.00330115 0.00221093
O 5.03768272 23.90345772 32.92840716 0.00156182 -0.00343354 -0.00343923
O 3.57394398 28.86970336 31.84402913 -0.00104322 -0.00040217 0.00496391
O 7.51761335 24.11989259 25.85711322 0.00220069 -0.00919754 0.00366789
O 9.43335078 19.32022299 27.38703303 0.00121804 0.00298187 -0.00120026
O 14.49760390 8.43917994 2.60021003 0.00375844 0.00213404 -0.00159562
O 15.95548040 3.95562065 3.58603217 -0.00112247 0.00517117 -0.00408138
O 18.39926493 1.25538886 9.38153509 -0.00287196 -0.00770453 -0.00390660
O 17.16344076 6.17772707 8.51415479 0.00211745 -0.00180711 -0.00547162
O 15.04110262 5.11616001 9.81044305 -0.00235790 0.00334952 -0.00197987
O 13.60775827 9.98897343 7.93888531 -0.00022919 0.00576335 0.00477214
O 17.89184503 4.88877030 2.13082636 -0.00962091 -0.00289303 0.00441633
O 19.47074536 0.39711398 3.87267965 0.00457011 0.00115599 -0.00319600
O 12.81359518 8.78554922 14.21321156 -0.00499340 0.00335682 -0.00420284
O 13.97574562 3.54081937 15.48764475 -0.00277778 0.00196622 -0.00651352
O 16.79533497 0.93883832 21.48587238 -0.00253442 0.00373719 0.00158627
O 15.30545745 5.90706785 20.40012019 0.00230882 -0.00138726 -0.00376261
O 13.23961294 4.95053202 21.73541134 -0.00776305 -0.00139775 -0.00039921
O 11.95967444 9.24025423 19.55437614 -0.00973438 0.00485864 -0.00488382
O 15.97733966 4.75294225 14.32646194 -0.00310281 -0.00021593 -0.00410131
O 17.46987583 28.46984297 15.49432362 -0.00520092 -0.00158774 -0.00312863
O 11.13898910 9.01212326 26.20488979 0.00292775 -0.00747505 -0.00552265
O 12.48625249 3.92090549 27.40331172 0.00499511 0.00136364 -0.00311216
O 15.31060123 1.34541873 32.79630432 -0.00016987 -0.00516394 -0.00022718
O 13.97421422 5.82954109 32.18630002 0.00371447 0.00487790 -0.00040352
O 11.91967171 4.64086457 33.41297462 -0.00163005 0.00653814 -0.00288331
O 10.20710834 9.49339883 31.85064009 0.00104785 0.00266843 0.00220964
O 14.48390597 4.94954295 25.97615623 0.00231541 0.00613972 -0.00125796
O 16.04235606 28.88481362 27.13742383 0.00096295 -0.00128662 -0.00017330
O 14.74823649 18.51462188 2.36299336 0.00187438 0.00350323 -0.00583905
O 15.92893908 13.33149056 3.16159404 0.00019098 0.00645261 0.00214257
O 18.34996828 10.87373095 9.35275193 -0.00845884 -0.01118208 -0.00638029
O 17.17357435 15.75873516 8.43751624 0.00166036 0.00228924 -0.00008303
O 15.11808739 14.50708714 9.51725218 -0.00087790 0.00282045 0.00180393
O 13.76103238 19.19667866 8.23637631 0.00292896 0.00107020 0.00248481
O 17.92416271 14.66503715 2.32079795 0.00532399 0.00284617 0.00080686
O 19.33499463 9.65306390 3.61413772 -0.00382255 0.00992304 -0.00481067
O 12.86707670 18.00329476 14.35725118 0.00113724 0.00892772 0.01134679
O 14.06134583 13.43997618 15.44237363 0.00837135 0.00675832 0.00068722
O 16.91343066 10.54516754 21.15311165 0.00173760 0.00018802 0.00399482
O 15.91637208 15.55326498 19.94885674 -0.00307487 -0.00040705 -0.00036056
O 13.48970787 14.95557974 21.04469470 -0.00022568 0.00268747 -0.00353730
O 12.02753350 19.39950361 20.16335557 0.00271612 0.00112095 -0.00224503
O 16.07104481 14.58528480 14.20712191 -0.00054524 -0.00437795 -0.00069318
O 17.50189913 9.55127080 15.41325325 -0.00034404 -0.00470000 -0.00181340
O 11.45321428 18.08802138 26.13033278 0.00214970 0.00122481 -0.00042683
O 12.80763796 13.45112920 27.38971668 0.00324252 -0.00434521 -0.00327158
O 15.39877942 10.90031699 33.32673772 -0.00284605 0.00198512 -0.00074733
O 14.19535549 15.51535982 31.75905109 -0.00284985 0.00031503 -0.00021843
O 12.10376190 14.68243221 32.75734685 -0.00511162 0.00248957 -0.00502170
O 10.41034328 19.59179631 31.75667348 0.00296270 -0.00267184 0.00494666
O 14.86740698 14.20623787 26.12011967 -0.00308807 -0.00298979 -0.00251561
O 16.17759962 9.46533336 27.31452025 -0.00478186 -0.00182139 0.00197796
O 14.64151770 28.03914590 2.36221996 0.00398556 -0.00395182 -0.00373619
O 15.57023163 23.15440447 3.64397187 -0.00121665 -0.00012474 -0.00205521
O 18.42981700 20.35431498 9.43024260 0.00535534 0.00210790 0.00040745
O 17.28989670 25.11699436 8.15913957 0.00140498 -0.00276048 0.00165977
O 15.11131280 24.42313497 9.32391630 -0.00104644 0.00266936 0.00150487
O 13.99022694 0.88924794 8.52124121 -0.00947673 -0.00713100 -0.00647937
O 17.67794348 24.27531815 2.39013158 0.00230070 -0.00474399 -0.00073557
O 19.57192823 19.16246162 3.63494811 -0.00052074 0.00825197 -0.00450717
O 12.89244899 27.82868782 14.40747703 -0.00568770 0.00517869 -0.00112387
O 14.24539495 23.07852990 15.25871474 0.00300261 -0.00033065 -0.00672093
O 16.67712336 20.52547089 21.16720565 -0.01030383 -0.00767447 0.00237372
O 15.46865302 24.76718603 20.24243700 0.00224492 0.00313283 0.00445977
O 13.38505485 24.06985441 21.55358023 0.00007850 -0.00380138 -0.00592092
O 11.97095755 28.40050183 20.03084915 0.00516287 0.00151491 -0.00132781
O 16.26223182 24.29619330 14.00906705 -0.00568836 -0.00032626 -0.00249015
O 17.79138089 19.46776483 15.21150600 0.00136119 -0.00534373 0.00511624
O 11.09474688 27.82577840 26.18811419 -0.00356754 0.00486770 0.00334515
O 12.58053493 23.18977986 26.98161468 0.00362810 -0.00152346 -0.00171501
O 15.32584921 20.23555945 33.19570345 0.00122982 0.00174804 0.00001261
O 13.96084477 25.10670812 31.80522107 -0.00868859 0.00466783 0.00069963
O 11.81721576 24.34482284 33.02809961 0.00779624 -0.00112643 0.00116388
O 10.05821634 28.93493996 31.86446889 0.01122384 0.00245112 0.00457548
O 14.59403920 24.16194259 25.96843729 -0.00153619 0.00195181 0.00024952
O 16.26784101 19.43764937 27.02758603 -0.00022514 0.00157089 0.00142930
H 0.01764576 8.86200303 2.71737590 -0.02730635 0.00567507 0.01173081
H 2.77760136 4.20896108 3.34604932 -0.03706467 0.02527947 0.00425602
H 6.05759583 0.77095830 8.51631848 0.02037565 0.00606550 -0.00730588
H 2.34729399 5.71506574 8.74347420 -0.00667083 0.00887986 -0.01322070
H 5.86665795 8.58020690 0.75719284 0.01364127 0.01209382 -0.02244884
H 4.06961416 3.40873172 5.09045586 -0.00920077 -0.00321876 0.01000261
H -0.46006153 1.59423236 11.22754616 0.00055959 -0.00026105 0.00755372
H 1.39037094 6.28128233 6.79055138 -0.00252592 -0.05179923 0.01444868
H 4.05170238 6.82277903 10.25047229 -0.03916427 0.01228452 -0.00829268
H 4.01957588 2.11940883 7.25818755 -0.01018802 0.00388679 -0.00806425
H 1.33014035 2.91940093 1.00172500 0.00153983 -0.01214796 0.00173341
H 1.53923981 7.83959288 4.85168456 -0.00365128 -0.01203061 -0.01579242
H -2.23853585 5.10516127 35.25409001 0.02514767 0.02118541 -0.00312787
H 0.05896631 0.80201243 6.42453949 -0.00246243 0.00802634 0.02329366
H 2.33569154 3.96554834 11.98160261 0.00077586 0.01626049 -0.00657598
H 5.56459973 8.87852076 5.79469491 0.00497922 -0.00605216 0.02585677
H 2.90841471 7.02918939 1.46349858 0.00950291 -0.02273656 0.00987485
H -0.26166534 2.44707865 4.61790571 -0.00987222 0.00964492 -0.00424216
H 2.37474093 2.43429515 10.07145715 -0.01455156 -0.01571395 -0.00995371
H 5.45172419 7.30124735 7.70176909 0.01524061 0.00208162 -0.00360688
H 4.96332619 4.92163882 9.39229159 0.00492647 0.01842966 -0.01812596
H 3.16909987 0.42690017 8.27129307 0.00466518 -0.02468087 0.00582085
H 0.36330075 4.44564998 2.21870123 -0.01555529 -0.00870729 0.00544445
H 2.40677972 9.54985518 3.79367212 0.02520240 0.00709353 -0.02577300
H 7.34375373 4.36707311 7.03166759 0.00264635 -0.00920831 0.01656296
H 2.11561894 8.13290653 9.37228583 -0.00429648 -0.02497704 0.00001201
H 19.37293542 6.89984173 3.25725650 -0.03365808 -0.00792472 -0.00031146
H 3.71812739 0.67364268 1.43926096 -0.00250036 0.02457292 -0.01200914
H -0.02844992 4.13816572 7.37041288 -0.00406370 0.01478716 -0.00302235
H 0.27531342 8.04672558 9.64135054 0.01429076 0.00948984 -0.01239263
H 5.55852731 6.92313185 3.48681006 0.00871437 0.03921110 0.01218644
H 3.99994348 2.07960375 2.36776164 -0.00054494 0.00510076 0.00698743
H 19.03438654 3.73793147 8.22986066 0.00954151 -0.00423151 -0.00685121
H 1.21592211 9.24653245 10.40604971 0.02708208 -0.00582115 -0.01048624
H 4.69997499 5.61675768 4.44921150 -0.00988807 0.00759828 -0.00442593
H 5.43750384 1.19103011 1.69361416 -0.01310743 -0.02306116 0.01197475
H -1.76483551 8.81863755 14.86730021 0.01853919 -0.02653611 0.01840953
H 0.97115965 4.12787861 14.93813181 0.00708027 0.03345633 0.02439675
H 4.05850616 0.93016481 20.77293279 0.01492723 -0.00612740 -0.00100693
H 0.79378783 5.48886013 20.36203919 0.00005277 -0.00430409 0.01300403
H 3.95272518 8.19116531 12.46601328 0.01606704 0.02438282 -0.00086867
H 2.18934734 3.37168656 16.81797881 0.03852328 -0.02901427 -0.01164537
H -1.95392222 1.48385544 23.23460914 0.00920787 0.00023137 0.00095443
H -0.30206314 6.18068670 18.40322995 -0.00317439 -0.00175499 0.00653639
H 2.44260631 6.71611481 22.60709189 -0.01741730 0.03058597 -0.01973469
H 2.19590329 1.87084580 18.85353211 0.00753486 0.00459491 -0.01036312
H -0.47657884 3.28693801 12.99371692 -0.04068602 -0.02024957 -0.02215933
H -0.21404188 7.84922413 16.51355765 -0.01852082 -0.02071222 -0.03353474
H 0.97858745 5.56820812 11.56768978 0.00060676 -0.01289055 -0.02490868
H -1.70181380 0.31768273 17.74555651 -0.00148007 -0.00764275 0.00354361
H 0.93728923 4.04289903 23.60661876 0.01101171 -0.00014408 0.00206808
H 3.61245086 9.17409241 17.77656403 0.00431357 -0.02650905 0.00400709
H 1.06182817 6.92854024 13.63495187 0.01565954 -0.00909650 0.00524177
H -1.74322330 2.20894673 15.98920382 -0.02696261 0.00317987 -0.01955291
H 1.02762962 2.44904140 21.97513937 -0.00520365 -0.00515366 0.01151555
H 3.71598007 7.55045790 19.63828110 0.02695908 -0.00464764 0.01613547
H 3.55328633 4.59059558 21.56230223 0.01563702 -0.01875904 0.03382625
H 1.17894724 28.73131192 19.82277195 0.02017000 -0.00356099 -0.00050145
H -1.63448334 4.83595474 14.13228523 0.00624981 0.00351910 0.01523463
H 0.71358245 9.81839078 15.66619361 -0.01295852 0.00601577 0.00394167
H 5.64346326 3.91820771 19.09818610 0.01219140 -0.00253319 -0.00592637
H -0.73688020 8.84294912 22.53958053 -0.01906118 -0.02671885 0.01537248
H 17.33490675 5.19787745 16.58464476 -0.00829183 -0.00943768 0.00017663
H 1.35400899 0.42467568 13.42010729 -0.01508714 0.00827478 -0.00530758
H 17.70221778 3.32194177 20.08177684 -0.02815365 -0.00581944 -0.00825427
H 0.86797551 8.38126817 21.66995955 -0.00572204 -0.02026267 0.00453606
H 2.80959248 5.80491938 16.30805667 -0.02156077 -0.00538155 0.00473275
H 2.26096345 1.76761008 13.99951671 0.00606939 0.02688426 -0.00963830
H -1.35666240 2.64204544 20.23391578 0.01105810 0.01461400 0.01278878
H -0.64419082 7.29527837 21.70791036 -0.02406020 0.00820615 -0.00239774
H 4.52807345 5.16127782 16.29132721 -0.00740895 -0.00306333 -0.00108408
H 3.09114272 0.69236491 12.98672785 -0.02345297 -0.00959095 0.01953588
H -3.22586211 8.79622565 26.39034011 -0.00544617 -0.03173304 -0.00643393
H -0.77337046 4.08289172 26.85647403 -0.00622991 -0.02831557 -0.00557595
H 2.46067749 0.66055234 32.75271522 -0.00846008 0.01944730 -0.00237837
H -0.64478972 5.36373404 32.45880053 -0.00746671 0.00929905 0.00558975
H 2.36526863 8.16020284 24.43713339 0.00387282 -0.02127740 0.02842858
H 0.56291726 3.21435842 28.85361286 0.00434950 -0.00247001 0.00427066
H -3.55893141 1.41051239 34.47060007 -0.02288991 -0.01415272 0.01608498
H -1.69943737 5.85515885 30.45785529 0.01080770 0.01905928 -0.01334845
H 0.86105378 6.61998345 34.72806868 0.00428155 -0.00391665 -0.02700872
H 0.65556085 1.72762870 30.73045447 0.01275011 0.01757363 -0.01679515
H -2.24383500 3.15369025 25.03859207 0.01087059 -0.00152186 0.00278163
H -1.89941847 7.65279776 28.69386363 -0.02258644 0.00136606 -0.01777787
H -0.61415722 5.18374201 23.44411888 0.00880563 0.02451074 0.00472654
H -3.20201320 0.32195792 29.74654560 0.01862349 0.01500737 -0.01656962
H 4.09950726 4.09611312 0.13088693 -0.00376820 -0.01100187 -0.00055509
H 2.08151346 8.80385448 29.45778847 0.00267994 0.00104767 0.02172029
H -0.69219334 6.78394604 25.51147303 0.01503360 0.00403095 -0.00105174
H -3.36971287 1.90220503 27.84245214 -0.01281808 0.01887163 -0.00329646
H -0.26339922 2.76022501 33.44006983 -0.02334409 0.00896899 0.01447767
H 2.21852158 7.25758199 31.44013916 0.02162432 -0.00238296 -0.01925518
H 1.76449698 5.01260021 33.52475379 0.00437910 0.01134988 -0.00604368
H -0.21121001 28.87873548 31.84488949 -0.01820567 0.00147513 -0.01783635
H -3.04082779 4.93509953 25.85429594 -0.00491082 -0.02409400 0.00918212
H -0.76967019 9.50673607 27.62558597 -0.04193323 -0.01442342 -0.00722078
H 4.08009666 4.01529566 30.90902865 -0.00686078 0.01125467 -0.00046307
H -0.54936106 9.14447885 33.85322217 -0.00541638 0.00283926 0.00291828
H 16.46496361 5.10969231 28.13647493 -0.02857813 -0.00277931 -0.00455842
H 0.30409815 0.29570867 24.82105508 -0.01611580 0.01433312 -0.00724419
H 16.26956031 3.34298467 31.51119801 -0.01230863 0.02173459 0.04201802
H -1.80530597 7.79417536 33.59978872 0.00695060 0.00828078 0.00143085
H 3.15047871 5.55380111 27.82494615 -0.02111306 -0.00254262 -0.01777750
H 0.09236000 1.73376954 25.87654634 0.00275816 -0.00113776 0.00663227
H -2.93297688 2.55609749 32.21478185 0.02487048 -0.01438590 0.00654940
H -2.32680200 9.16113551 34.55909497 0.01549208 0.01108703 -0.01380272
H 1.94789582 6.67914630 27.22153779 0.01579623 -0.00805247 -0.04889481
H 1.75789489 1.20872124 25.26758025 0.00635037 0.00470856 0.01522478
H 0.12138824 18.84315468 2.56444516 0.00556220 -0.02395661 -0.00850092
H 3.00737402 13.96028149 3.18029436 0.01698113 0.00235338 0.01644585
H 5.60396411 10.28716667 8.84276184 0.01714649 0.01759146 -0.00858131
H 2.59668081 15.08554973 8.73622672 0.00008111 0.01640234 0.00337941
H 5.83527854 17.96906707 0.59093655 0.01026119 0.00638739 0.03154000
H 4.21867205 12.89945321 5.01739010 -0.00225732 0.01230955 -0.01621920
H -0.41463507 11.25235919 11.09981334 0.01007209 -0.01009674 -0.02416909
H 1.37618880 16.02855494 6.51776321 -0.00756777 0.02361135 -0.00927970
H 4.12487342 16.14496925 10.37294492 0.00554149 0.00240898 -0.00419711
H 4.01930259 11.43770410 6.89595211 0.01032956 -0.00085399 -0.00677170
H 1.24686272 12.49958407 1.64792734 0.03669669 -0.02202133 0.02641911
H 1.54646325 17.56913763 4.76588074 -0.00171088 -0.01863908 0.01872584
H 2.88203555 14.92525529 0.03601734 0.00710949 0.00375458 -0.01944957
H -0.03316295 10.41817533 5.82248633 -0.00172317 -0.00491371 -0.02627714
H 2.72728936 13.84715382 12.02315863 0.00095689 0.00792147 0.01496801
H 5.49031684 18.71223875 5.99121731 0.00022196 0.01748068 -0.00159476
H 2.91938728 16.86184180 1.66679590 -0.02995623 -0.00344544 0.01962873
H 0.19444074 11.94516168 3.91044310 -0.02777030 -0.03941791 0.00721673
H 2.69069094 12.09675869 9.95059902 0.00792059 0.00725358 -0.02086193
H 5.43224298 17.17605882 7.75902631 -0.00086577 0.00002871 -0.00075365
H 5.07159482 14.21844478 9.33154244 -0.01396072 0.01774146 0.00920034
H 3.04052078 9.86813389 8.05315212 -0.00428955 -0.00346515 0.00667120
H 0.34509162 14.75584886 2.42453827 0.00043862 0.00661704 0.00291354
H 2.50052895 19.50157720 3.94371672 -0.00837411 -0.00801618 0.00021602
H 6.34452517 12.44935248 7.76366851 -0.00590207 0.01230441 -0.00100587
H 1.03874287 17.05831860 8.65297501 0.01958541 0.02162678 -0.02534572
H -0.35174188 15.42032451 4.34615123 0.04018821 0.00125738 0.00420829
H 4.42394301 11.68573204 2.45784267 -0.00295263 0.00763447 -0.01389202
H 0.96412556 13.76334666 7.30551744 -0.00719882 -0.00998416 0.01431375
H 0.57650796 18.00278321 10.11679748 -0.01399614 0.00708058 0.01344452
H 6.46079143 15.41873047 4.20602866 0.01403584 -0.03705754 -0.00940077
H 4.77760468 10.34674753 1.44754825 -0.02207282 -0.01273150 0.01348425
H -0.79988783 13.67102778 7.44998692 -0.01643953 -0.00586211 0.00399255
H 2.24094253 18.04759046 9.58122142 -0.01841346 0.00666013 -0.00344624
H 5.39840028 16.73867729 3.70501395 0.00603775 -0.01272212 0.01412672
H 3.07561463 10.51299734 1.72794895 -0.01349428 -0.01800572 -0.00489363
H -1.76604409 18.76453939 14.41437669 0.00498789 -0.00550105 0.00110550
H 1.02900287 13.71527348 15.06580006 -0.00621060 0.00669425 -0.01358043
H 3.98805349 10.25405477 21.29609977 0.01093994 0.00543263 -0.01000672
H 1.02216462 15.26958268 20.29603743 -0.03127919 -0.01651918 0.00191268
H 4.14647333 17.59928183 12.35093824 -0.02152698 -0.00548831 0.01224460
H 2.04130172 13.11370515 17.34963542 -0.00952249 0.00119341 -0.01406452
H -1.60186503 10.87574409 22.90545571 -0.01092222 0.00456633 0.01599718
H -0.15920999 16.20765933 18.31523078 0.01177229 0.01352942 0.01810850
H 2.48973458 16.67148558 22.70714569 0.01063410 -0.00699151 0.00834774
H 2.11120138 11.58178581 19.14563376 -0.00693203 0.00330276 0.00389753
H -0.34260726 12.76988118 12.84032348 -0.01415983 -0.00269785 0.00407464
H -0.05406742 17.77123334 16.47893256 0.00429727 -0.00086787 -0.01156877
H 0.91244435 14.82619584 11.71944866 0.01350581 -0.01729625 0.00290631
H -1.78369899 10.21070446 17.90025643 0.02678629 -0.00368778 0.01349173
H 1.07226981 13.90727172 24.02210133 -0.02115614 -0.03050988 0.01062231
H 4.12875678 18.21803008 17.30341491 0.00943489 0.01943325 0.00622523
H 0.95774215 16.27952164 13.70699192 -0.01456949 -0.00891252 0.02052129
H -1.87435194 11.72488531 16.04839733 -0.01893759 -0.01185640 -0.00122708
H 1.00356112 12.20189885 22.26043339 -0.00081251 -0.00381066 -0.00631497
H 3.98618834 16.61890384 19.00577371 -0.01230526 0.00342707 -0.00626039
H 3.31474052 14.69109967 21.59885153 -0.01252399 0.00949738 -0.00488360
H 1.21303038 9.60089212 19.93821741 -0.01946434 -0.01332572 -0.00764120
H -1.44618557 14.33682633 14.27497890 -0.01548591 -0.01706075 -0.01068757
H 0.92303527 19.41563931 15.58922088 0.00685856 0.00862913 -0.01490981
H 5.93116324 12.46998088 20.07211338 -0.01336765 -0.00864308 0.00387294
H -1.36376386 17.57216242 21.45781739 -0.00657811 0.04941594 0.01449457
H 16.91520827 15.57128949 16.39112613 0.01128588 -0.01989014 0.02405371
H 2.73441417 11.48274824 13.78385358 -0.00674310 0.00088748 0.02044312
H 18.01341822 13.41539782 19.50360789 -0.01657749 0.00930848 0.01325229
H -0.00087855 18.48934701 22.17005648 -0.02982637 0.01271042 0.00582390
H 3.40701630 15.43270342 16.32348140 -0.00497669 0.00379198 -0.00290588
H 2.72410178 9.90832142 12.85716931 0.02811425 0.00123831 0.02458699
H -1.43849213 12.31587008 20.25951922 -0.03110613 -0.01095299 0.01028033
H 0.24673890 17.30465593 20.82402071 0.00272889 -0.01071357 0.01810131
H 4.98294481 15.42195728 15.50603914 -0.03412417 -0.00021860 -0.01563270
H 1.29528222 10.65966194 13.67490616 0.01153168 -0.00612497 -0.00425498
H -3.25915072 18.53132901 26.45965304 -0.00158226 0.01035146 -0.00589547
H -0.18725782 13.65271322 27.16033448 0.01150139 -0.00332057 0.00755914
H 2.03824699 10.50718558 32.76321410 -0.01742654 -0.00196818 0.00952592
H -0.48020354 15.13449171 32.16969838 -0.00143122 -0.01355823 -0.00701328
H 2.57850293 17.87957993 24.79325314 0.00391611 0.00496060 0.01272543
H 0.64360182 13.04156063 29.15944790 -0.02396020 0.01809987 -0.00655382
H -3.37430653 10.99607186 35.20775216 -0.01537941 0.02784402 -0.01310640
H -1.55773536 15.80402954 30.43691700 0.00123763 0.00853455 0.00763592
H 0.99421636 16.13652574 34.44108546 0.00849548 0.01449215 -0.00024664
H 0.62281076 11.42680185 31.20518474 0.00277881 -0.01116137 0.00652296
H -1.83191384 12.25028601 24.90858786 -0.01338998 -0.01879000 -0.01250794
H -1.62779706 17.17790938 28.40584676 0.04065492 -0.00033956 0.00229755
H -0.27041913 14.95641867 23.56530168 0.00442268 -0.04101942 -0.00441823
H -3.33354122 10.24250475 29.88039792 -0.01975088 -0.00178045 -0.00459629
H 4.31569040 14.19098528 0.06175368 -0.00531830 0.00509951 0.01360336
H 2.31820473 18.70401791 29.56540716 -0.03127829 -0.00489492 0.02919192
H -0.33258713 16.63007170 25.50905889 0.00211300 0.00395036 0.00858762
H -3.15845062 11.54068546 27.95417902 -0.02337480 0.00069727 0.00522432
H -0.65132193 12.30976990 33.73638059 0.00001329 -0.00715241 -0.01178612