2160
Time=95999.99999999 pbc="T T T" Lattice="20.65312644 0.00000000 0.00000000 0.00000000 29.02440902 0.00000000 -4.73067670 0.00000000 35.58431696" energy=-13794.84108341 virial="-46.92842308 23.87484941 56.59431580 23.87484941 -47.24189974 -11.09774233 56.59431580 -11.09774233 -80.48907235" stress="0.00017770 0.00108306 0.00268619 0.00108306 0.00021832 -0.00060506 0.00268619 -0.00060506 -0.00138367" Properties=species:S:1:pos:R:3:vel:R:3
O 0.85801345 8.61447299 2.40537414 0.00245563 0.00767326 -0.00075320
O 1.71117228 3.95164393 3.69023143 -0.00641683 -0.00090310 0.00024121
O 4.60363715 1.29008574 9.41176793 0.00426486 0.00195223 0.00138763
O 3.40613901 5.98901951 8.43859292 0.00401990 -0.00467747 0.00731512
O 1.22071884 5.05807695 9.32665291 0.00074944 0.00183310 0.00079560
O 0.00396492 10.30470311 8.43428580 -0.00664205 0.00102520 0.00069969
O 3.67417054 4.51271509 2.25165266 0.00702537 -0.00011958 -0.00426149
O 5.45076415 28.99078704 3.53965278 -0.00492966 0.00683838 0.00505381
O -0.78269392 8.77833627 14.06272016 0.00205233 0.00960020 -0.00256410
O 0.24336436 3.83535573 15.43963087 -0.00173256 0.00212920 0.00602978
O 2.98432238 1.13809219 21.40894340 -0.00357837 0.00507171 -0.00800438
O 1.63385939 6.34107565 20.38779155 -0.00270301 0.00454781 -0.00048068
O -0.36643750 5.12190332 21.34430320 0.00122033 0.00392883 0.00017629
O -1.64809292 10.25241531 20.06910861 0.00351766 -0.00116543 0.00088491
O 2.30384524 5.05489256 14.36554834 0.00114328 0.00320494 0.00180211
O 3.93041932 29.00382165 15.38664017 -0.00355583 0.00212307 -0.00129413
O -2.37631978 9.10895421 25.94895536 -0.00075979 -0.00295021 -0.00141345
O -1.19782166 3.64724253 27.22887576 -0.00353041 0.00422168 0.00331707
O 1.34170081 1.14036089 33.02829785 0.00375358 -0.00029567 -0.00058375
O -0.01352644 5.90302801 31.89204375 0.00318984 -0.00774826 0.00361141
O -2.08650277 4.77000610 33.11924941 -0.00629030 -0.00004698 -0.00273022
O -3.50236970 10.06216181 31.72039022 0.00128262 -0.00391106 -0.00476298
O 0.49915591 5.04603509 25.87711532 -0.00345612 0.00139365 -0.00347563
O 2.44082082 0.04145974 27.34227531 -0.00097967 -0.00277524 0.00781204
O 0.78548194 18.47334637 2.32400756 0.00211093 -0.00482551 0.00440201
O 1.76126105 13.36312339 3.33982145 -0.00250249 -0.00424690 -0.00019845
O 4.60880362 10.80367261 9.04888800 0.00071983 0.00121015 -0.00141840
O 3.66842075 15.31098276 7.99107408 -0.00308490 0.00160233 -0.00019083
O 1.44104187 14.70052932 9.54520415 -0.00566559 0.00237869 0.00810441
O -0.14782423 19.48685496 8.02198839 0.00024090 0.00091062 -0.00156107
O 4.06655387 14.13650015 2.50441228 -0.00075015 0.00180674 0.00280546
O 5.56818181 9.27312105 3.59777000 0.00083507 -0.00684110 -0.00633964
O -0.56445230 18.23253675 14.52833513 -0.00255489 0.00122756 0.00607700
O 0.53122266 13.55387355 15.20415600 0.00425064 0.00652791 -0.00695053
O 3.09903827 10.70844461 21.14775427 -0.00627261 -0.00280194 -0.00037334
O 1.59891171 15.52704595 20.42776976 0.01030103 -0.00036758 0.00174056
O -0.52750491 14.56234076 21.76106199 0.00188817 -0.00076082 -0.00147790
O -1.94430716 19.77976042 20.08722653 0.00160878 0.00528054 0.00516196
O 2.52633604 14.24643486 13.94510555 0.00137257 -0.00772231 -0.00425558
O 4.10183570 9.61080659 15.53965450 0.00137944 0.00011252 0.00240645
O -2.40085166 18.61907607 26.27998168 0.00009673 -0.00340840 0.00905400
O -1.56624453 13.80339514 27.08152455 0.00426791 -0.00030158 -0.00079376
O 1.16676277 10.57853633 33.26826360 0.00325430 0.00458305 0.00427572
O 0.39439703 15.46673016 32.05963518 0.00035045 0.00566398 -0.00415389
O -1.79822786 14.51969315 33.17830930 0.00269713 -0.00009174 -0.00020346
O -3.20136212 19.06643535 32.05647448 0.00306706 -0.00221609 -0.00261956
O 0.85480495 14.08551093 25.93402461 0.00084973 -0.00035960 -0.00541401
O 2.34440107 9.63343492 27.24335883 0.00112483 0.00538932 0.00546435
O 0.56691612 27.65451126 2.52079146 -0.00179382 0.00282024 0.00050241
O 2.08500418 22.97455963 3.20490730 -0.00492033 0.00301757 0.00175456
O 4.57952372 20.60449959 9.34352888 0.00100081 0.00525766 -0.00157970
O 3.17613933 25.13750005 8.16680984 0.00388431 0.00407608 0.00120764
O 1.32620315 24.61054061 9.62900376 0.00304973 0.00174053 -0.00298395
O -0.12251051 0.23924787 8.51430391 -0.00231973 0.00493945 0.00212696
O 3.75062045 24.10610012 1.78945304 0.00534730 0.00012385 -0.00316000
O 5.52651220 19.32819712 3.36673212 0.00003854 -0.00316701 -0.00504893
O -0.84390779 28.02758039 14.46535448 0.00171847 -0.00170469 0.00018346
O 0.26656747 23.31285630 15.09483125 -0.00386878 0.00365173 0.00450706
O 3.04745328 20.43240855 21.45930693 -0.00050779 -0.00643098 -0.00531307
O 1.83764337 25.40484391 20.09269005 0.00201382 0.00886431 0.00047553
O -0.06375034 24.50293083 21.73062976 0.00576840 0.00072399 -0.00116429
O -1.87637565 0.00658997 20.04080803 -0.00067322 0.00323338 -0.00016006
O 2.30396453 24.36798291 13.97194695 0.00036553 -0.00107570 0.00379847
O 4.29109901 19.12208745 15.61904194 0.00026175 -0.00062928 0.00317513
O -2.46619525 28.12923847 26.16301885 0.00152235 -0.00099653 0.00164172
O -1.13575217 23.20484764 27.48219327 0.00082501 0.00638891 -0.00084163
O 1.84994362 20.48222847 33.04263050 -0.00374222 -0.00192866 -0.00493524
O 0.25732011 25.16678467 31.81005121 -0.00457376 0.00060412 0.00048769
O -1.81264672 24.28538924 33.39299676 -0.00378353 -0.00225014 0.00422770
O -3.36158803 29.01788211 32.02551434 0.00035014 0.00402611 0.00536637
O 0.93002239 24.19216665 26.20080915 -0.00066000 -0.00019923 0.00052040
O 2.38651311 19.49190511 27.61349484 0.00217632 -0.00276538 -0.00030978
O 7.70593327 8.72945339 2.32298160 0.00731783 0.00197481 -0.00451668
O 8.85337567 3.58329059 3.39236259 0.00184614 -0.00121511 0.00324474
O 11.26459311 0.77992098 9.56510236 -0.00442085 0.00224373 -0.00314971
O 10.27939890 5.88159421 8.37956458 0.00228751 0.00363577 -0.00134451
O 7.97448695 5.15783151 9.31747443 0.00141339 0.00164725 0.00063622
O 6.79096548 9.63910882 8.35295809 0.00243971 -0.00659121 0.00522294
O 10.88160027 4.92546465 2.11499434 0.00279216 -0.00279361 -0.00681829
O 12.27619300 28.81490873 3.69630404 -0.00010733 -0.00341798 -0.00366288
O 6.19110827 8.69248775 14.33864037 0.00036752 -0.00326682 -0.01015563
O 7.20455503 3.68434329 15.50398838 0.00709447 0.00350017 -0.00328621
O 9.78885797 1.16412749 21.42428917 0.00240728 0.00404008 -0.00445763
O 9.10286019 5.92175783 20.29123644 -0.00152234 -0.00672139 0.00382839
O 6.56868797 4.87186229 21.27331254 -0.00059518 -0.00062491 0.00412816
O 5.31996909 9.81219032 20.38132830 0.00545711 0.00110306 0.00226459
O 9.08198159 4.34376387 14.06527340 0.00113058 0.00069679 0.00141028
O 10.83244823 28.81178851 15.49450390 -0.00319483 0.00120633 -0.00055374
O 4.29509542 8.77398112 25.79824212 -0.00619922 0.00616877 -0.00340559
O 5.30422513 4.00392086 27.15555520 -0.00060777 0.00062756 0.00156452
O 8.23835706 1.10640251 33.19641067 0.00136608 -0.00648970 0.00092834
O 7.01656994 5.85839414 31.48444383 0.00201740 -0.00438390 -0.00082479
O 4.89832061 5.31399449 32.95103941 -0.00525334 0.00040856 0.00358809
O 3.49597501 10.21350114 32.19151035 0.00244030 -0.00041090 -0.00315413
O 7.54990195 5.01209788 25.96341898 -0.00540153 -0.00475467 -0.00478917
O 9.11046247 28.88016137 27.55484916 -0.00121558 -0.00003151 0.00032142
O 7.46590476 17.77232983 2.61756878 0.00205574 -0.00333238 0.00231147
O 8.51108057 13.59239004 3.75696419 0.00006160 0.00124342 -0.00231920
O 11.59160436 10.49448877 9.73170386 0.00498151 -0.00282504 -0.00519942
O 10.61406302 15.62470439 8.59310096 -0.00007354 -0.00349555 -0.00192604
O 8.30345502 14.41173675 9.41826951 0.00055707 -0.00434144 0.00333013
O 7.02026888 19.07017144 8.14400490 0.00486951 -0.00404603 0.00314482
O 10.48981128 14.43293221 2.49894660 0.01139564 0.00114869 0.00066829
O 12.73341866 9.65236758 3.68609914 0.00174787 -0.00224631 -0.00624308
O 6.27727101 18.24451877 14.05198660 0.00001021 -0.00431188 0.00063846
O 7.38954035 12.96527279 15.07285589 -0.00092820 -0.00236154 0.00311270
O 10.08884370 10.44726114 21.54171215 0.00205191 -0.00153711 0.00174011
O 8.79887557 15.26761183 19.90909568 0.00092027 -0.00808969 0.00794436
O 6.46862328 14.82916562 21.23663219 -0.00302849 -0.00376658 0.00791935
O 5.17968389 19.66535206 20.11628612 -0.00235766 -0.00245403 0.00007622
O 9.43455062 14.40135271 14.24740960 0.00165915 0.00069549 -0.00389091
O 10.87506683 9.32234760 15.33385949 -0.00481516 -0.00121453 -0.00398432
O 4.42420237 18.03981283 26.42796171 0.00254254 0.00296766 -0.00360039
O 5.51303270 13.41499752 27.09936947 -0.00373203 0.00299968 -0.00152005
O 8.38606152 11.12500582 33.03619060 -0.00128248 0.00913487 -0.00382409
O 7.28135574 15.28181460 31.92823292 0.00711477 0.00444296 0.00355218
O 5.13231094 14.60686364 33.22587136 -0.00004879 0.00172386 -0.00623123
O 3.60974398 19.16861581 31.82862531 0.00473377 -0.00010243 0.00423378
O 7.77661583 14.28685752 26.02077481 -0.00971199 -0.00429876 0.00003642
O 9.24300957 9.59080118 27.29859000 -0.00057088 0.00451787 -0.00280305
O 7.41533524 27.84989844 2.38763831 -0.00683784 -0.00214974 0.00482414
O 8.94468998 23.35688771 3.60609974 0.00127374 -0.00596747 -0.00268279
O 11.45185887 20.18221172 10.01656196 -0.00207332 -0.00843836 0.00194959
O 9.78467341 25.15763514 8.43021829 0.00318793 0.00334655 -0.00112454
O 7.98822453 24.13177546 9.90532969 -0.00297123 -0.00254581 -0.00031285
O 6.65881912 28.99140872 8.17638586 0.00106223 0.00373814 -0.00764635
O 11.06290260 24.13274061 2.06719521 -0.00517327 0.00417422 0.00748357
O 12.47725977 18.92516550 3.50510053 -0.00108850 0.00258919 -0.00615394
O 5.96391000 28.10219616 14.17076996 -0.00422111 0.00456400 -0.00257934
O 7.40805424 23.36271435 15.57369720 -0.00163152 0.00352093 0.00194687
O 10.15428358 20.53946496 21.23912888 -0.00636929 -0.00318569 0.00669868
O 8.81570100 25.02167640 20.11571121 0.00040271 0.00431354 -0.00122977
O 6.60758564 24.32219392 21.07948856 -0.00002742 0.00229307 -0.00119606
O 5.10500230 0.13183859 20.07995198 0.00479540 0.00654158 -0.00208439
O 9.20918753 24.37780200 14.15973545 0.00272755 0.00347457 0.00072769
O 10.95609477 19.36293422 15.56182441 0.00079672 0.00310416 0.00571590
O 4.47671823 27.93837963 25.95357567 -0.00165042 -0.00192655 0.00115719
O 5.70807865 23.35642362 27.39999631 -0.00066519 0.00206805 -0.00063969
O 8.23076674 20.48772478 33.02669880 -0.00162831 0.00013775 0.00484132
O 7.15649348 25.02273324 31.93855761 0.00082717 0.00435410 0.00397534
O 5.00052882 24.03852276 33.14355405 0.00642134 -0.00076398 -0.00520969
O 3.42350753 0.16320965 31.76754202 0.00309456 -0.00137803 0.00107122
O 7.75155493 23.96668032 25.93259589 0.00109533 0.00354550 -0.00353654
O 9.39791800 19.42847928 27.60146817 0.00171916 -0.00269207 0.00052188
O 14.62051038 8.51062281 2.29434865 -0.00479245 0.00171297 -0.00607072
O 15.92264500 3.54271995 3.63578419 0.00365577 0.00085665 0.00048521
O 18.27313364 0.63538812 9.90344096 0.00212149 -0.00317467 -0.00177793
O 17.30388403 5.78161865 8.37264221 0.00395648 0.00046998 0.00140221
O 15.45257616 4.62725769 9.70991280 -0.00294022 -0.00275767 -0.00535534
O 13.58864957 9.61751295 8.45901182 -0.00262364 -0.00556264 0.00388121
O 17.75226759 4.49015912 2.19469782 0.00335313 0.00535138 0.00035759
O 19.27868293 28.60795868 4.02811349 -0.00205728 0.00200212 0.00338680
O 12.98048858 8.45649298 14.05579019 0.00117144 0.00042467 -0.00484386
O 14.29162546 3.62446398 15.19158872 0.00402423 -0.00318204 -0.00325909
O 16.69829491 1.13958470 21.14283666 -0.00695474 0.00570064 -0.00612339
O 15.39639128 6.05111763 20.45311547 -0.00488611 -0.00324194 0.00566674
O 13.70633641 4.52427984 21.95358023 0.00454500 -0.00661604 -0.00044727
O 12.05765540 9.79428682 20.05198034 -0.00084959 -0.00097393 0.00463800
O 16.46425916 4.68984491 14.31650874 -0.00045281 0.00808292 -0.00174394
O 17.62131197 0.00475681 15.58977544 -0.00316212 -0.00423862 -0.00486504
O 11.38247944 8.72178502 26.00468063 -0.00230191 0.00044775 -0.00041387
O 12.25759446 3.93171713 27.32665471 0.00208287 0.00791792 -0.00499055
O 15.12661028 1.16607198 32.84906984 0.00006165 -0.00189310 -0.00294424
O 13.86799355 6.02617461 31.86148554 -0.00457539 -0.00030331 -0.00563405
O 11.64460160 5.02567542 33.08502601 0.00264059 -0.00001635 0.00202109
O 10.42699029 9.81594595 32.06989079 -0.00188724 -0.00258759 -0.00117492
O 14.58366311 4.44398062 26.15659541 -0.00362405 0.00283221 0.00439613
O 15.88772944 28.76197646 27.14120785 0.00262809 -0.00198395 -0.00062928
O 14.81838826 18.31049673 2.54943034 0.00259669 -0.00501844 -0.00331529
O 15.31367374 13.32321117 3.51639564 -0.00487824 0.00265210 0.00246767
O 18.08488244 10.37911772 9.78539424 -0.00061373 -0.00091407 0.00225966
O 17.38866367 15.56494665 8.62978539 -0.00560315 -0.00486587 0.00223773
O 15.16839492 14.78976265 9.47307529 0.00183739 -0.00730526 -0.00236036
O 13.42244245 19.47110243 8.31747528 -0.00082627 -0.00340120 -0.00200791
O 17.84739802 14.05547311 2.81316269 0.00231529 -0.00367213 -0.00396596
O 19.28420460 9.50064278 3.41659640 0.00356442 -0.00347366 -0.00083611
O 12.94480021 18.46096308 14.23887969 -0.00531646 0.00377052 -0.00240768
O 14.32579813 13.09235216 15.29232596 0.00164497 0.00596887 -0.00486053
O 16.66867442 10.97991737 21.19039416 -0.00091132 -0.00020458 0.00343654
O 15.28096543 15.94161469 20.61953527 -0.00136785 0.00804114 -0.00252824
O 13.27381569 14.63593290 21.28595152 -0.00113557 0.00316477 0.00390555
O 11.98509758 19.40593681 19.86147429 -0.00197431 -0.00014018 0.00096048
O 16.38570221 14.41057792 14.30023023 -0.00527564 0.00058684 0.00046237
O 17.78649306 9.41898048 15.57806355 -0.00522317 -0.00241521 -0.00331769
O 11.28867805 18.24806395 26.10972150 -0.00086669 -0.00358711 0.00658751
O 12.31798604 13.60260562 27.39046624 -0.00680223 -0.00216496 0.00072393
O 15.16725555 10.78098246 33.35762921 0.00310007 0.00176366 -0.00124148
O 14.15078573 15.54393592 32.03928545 -0.00889762 -0.00243166 0.00604430
O 12.00417266 14.58285978 33.26283247 -0.00485649 -0.00242839 0.00473851
O 10.32913961 19.14305767 31.71006514 0.00220670 -0.00886422 -0.00265408
O 14.33848130 14.42058574 25.95605864 0.00472759 0.00045868 0.00048363
O 16.05161509 9.59622452 27.14760384 0.00046043 -0.00171429 -0.00178339
O 14.54328711 27.96025667 2.58033686 0.00051869 0.00014305 -0.00155397
O 15.63886398 23.00487253 3.47703272 -0.00440130 -0.00737974 0.00654901
O 18.43337431 20.36661883 9.43897731 -0.00176310 0.00106218 0.00213080
O 17.07233930 25.07100737 8.90654467 -0.00221985 -0.00230266 0.00542657
O 14.99670355 23.83811872 9.82801443 -0.00574167 -0.00802599 0.00523789
O 13.29123992 28.97115581 8.20992925 0.00470192 -0.00805454 -0.00627990
O 17.72905428 23.95035653 2.30091562 0.00003635 0.00073796 0.00080241
O 19.42294817 19.11745137 3.81808767 0.00183234 0.00087306 0.00277030
O 12.88645580 27.98911924 14.28929248 0.00582266 -0.00247698 -0.00040053
O 14.19249082 23.22126525 15.60336733 -0.00079246 0.00360004 -0.00230185
O 16.47450564 20.43930464 21.40307599 -0.00773927 0.00090395 0.00437398
O 15.88870240 25.10793961 20.25920204 0.00161206 0.00054495 0.00577567
O 13.59147747 24.42821909 21.22886223 0.00701231 0.00084239 0.00086166
O 11.87266981 0.18690435 20.22216310 -0.00084900 0.00748148 -0.00257838
O 16.20402316 24.12345124 14.02225194 0.00434162 -0.00067472 -0.00002760
O 17.82021985 19.06878108 15.73055545 -0.00100513 0.00196700 0.00408037
O 11.34268133 27.88707297 26.09043270 -0.00322570 -0.00289847 0.00359857
O 12.72290031 23.05510582 27.35436826 0.00256909 -0.00177356 0.00061338
O 15.45375042 20.46701644 33.12116525 -0.00103568 -0.00330937 0.00232353
O 13.96567250 25.31174986 31.92029626 0.00097107 -0.00089054 -0.00032421
O 11.67574866 24.67074656 33.20812791 0.00071400 -0.01051990 -0.00649406
O 10.31241897 0.03898630 32.15612491 -0.00505591 -0.00133140 -0.00297585
O 14.61484100 24.43741363 26.05428386 0.00180694 0.00571229 0.00493450
O 16.27954932 19.57532470 27.70228829 -0.00088250 0.00118849 0.00364707
H -0.00955134 8.88070558 2.91572671 0.01855241 0.00975121 0.00608318
H 2.57058330 4.26495732 3.20126953 -0.00028607 -0.01347424 -0.02690617
H 5.52488482 1.06842542 9.34672616 0.02206711 -0.00803090 0.02242550
H 2.48011379 5.69829610 8.63364425 0.01941034 -0.00425151 -0.00293082
H 5.50847100 7.95373793 0.96038229 -0.01181329 -0.00510758 -0.01110010
H 3.75327101 3.64951126 5.33094609 0.00816419 0.01669782 -0.00558865
H -0.33472585 0.87095960 11.33035379 0.01770460 -0.00741289 0.00201086
H 1.48974795 6.20793693 6.73146419 -0.00611581 -0.01116079 -0.01376808
H 4.12579201 7.19109547 10.67207548 0.00251572 0.03108913 -0.00595419
H 3.97162123 1.97780190 7.02930185 -0.00087693 -0.00563056 -0.01353119
H 1.19696254 2.62908277 1.20051601 -0.00679312 0.00839564 -0.02113896
H 1.46056170 7.71970205 4.82496382 0.00396580 0.00016284 -0.00171286
H -2.20238765 5.35181361 35.25295912 -0.01644990 0.01227162 -0.01112926
H 0.01726697 0.53042214 6.21253120 0.00229974 0.00379148 -0.01607145
H 2.41418670 4.21909282 12.14646187 0.00888262 -0.01159837 -0.00778378
H 5.38465728 9.16157555 5.76106413 -0.00930891 0.01853742 -0.00898599
H 2.70911617 6.96428529 1.53022399 -0.00966191 -0.00656524 -0.01328828
H -0.17389763 1.99894808 4.39971693 0.01517019 -0.00954344 0.01995140
H 2.42662607 2.70277608 10.24450768 -0.01786046 0.01454509 -0.01282547
H 5.51190423 7.45136734 7.63672578 -0.03328902 -0.01403069 -0.01485130
H 4.84118352 5.38528090 9.56416705 -0.02502011 0.00058410 0.00137874
H 3.03772292 28.92510024 8.11106009 0.02062803 -0.01889375 0.02165454
H 0.22027298 4.43541974 2.34078221 0.01608695 0.02526490 0.01476453
H 2.57436736 9.82160722 3.71686066 -0.00039231 0.00514794 0.01064180
H 6.78209381 2.76902458 8.43158616 0.01319114 0.00540008 -0.00776349
H 1.47401987 9.39692936 10.60088079 0.01773399 0.01522728 0.00250588
H -0.43996593 6.19966818 3.44312509 0.01414378 0.00687578 0.00997779
H 3.53587092 2.05150398 2.25922668 -0.00552371 0.01008474 -0.01632964
H 19.54980862 4.06704338 7.50344885 -0.00371280 -0.00666792 -0.00000188
H 2.11656520 8.12289322 9.52809166 -0.00743823 0.00989563 0.00519739
H 4.92003656 4.79787280 4.65241421 0.01848903 0.00600548 0.00011495
H 4.98524842 1.31304275 1.45877210 -0.00305639 -0.00368637 0.01217139
H -0.45619886 2.67912669 8.30247133 -0.01202895 -0.00256945 0.00675757
H 0.33877927 8.24308603 10.03685160 0.01617285 0.01248834 -0.00358439
H 6.16593454 5.75900178 3.98118550 -0.00977485 -0.02055487 -0.01938530
H 3.32918358 0.47906848 1.39164412 0.00912730 0.02098628 -0.00403333
H -1.68586930 9.06598443 14.44241826 0.00046018 0.00065066 -0.03407125
H 0.99823976 4.42894903 15.39374175 0.00213572 -0.00088307 0.01515301
H 3.87330965 0.74641180 21.18348584 -0.01165192 0.03048763 -0.00029321
H 0.80204314 5.87506571 20.58976578 0.01833962 0.01303304 0.00914623
H 4.23051401 8.65335545 12.62414335 -0.00659379 -0.00945765 -0.00384367
H 2.13644867 3.70173022 17.13008954 0.02413138 -0.00873352 -0.00179708
H -2.23997491 1.02542614 23.11501020 -0.00229124 -0.02882720 -0.00023196
H -0.33159955 6.73807519 18.65403980 0.01039608 0.00033137 -0.00171308
H 2.46966857 6.61391452 22.27083886 -0.00456397 -0.00525259 0.01184676
H 2.30412486 2.07178621 19.03300893 -0.00185507 -0.01094856 0.00551279
H -0.22947070 2.72237414 13.22637118 -0.01539191 -0.02531861 0.00499952
H -0.16348545 7.94684834 16.56083931 0.00909688 0.01014148 -0.02119413
H 1.26707370 5.40237033 11.64556281 0.00782071 -0.02139256 -0.00810692
H -1.77807396 0.83720496 18.34514254 -0.00070441 0.01601145 0.00605201
H 0.72201480 4.17228242 23.79284815 0.00385286 -0.01029528 -0.01913747
H 3.91008179 8.98518404 17.39079046 0.00588661 0.01754005 0.01743654
H 1.21141268 7.21597365 13.39020151 0.01199464 -0.00232551 0.00665036
H -1.82520949 2.45101909 16.29158508 -0.01779071 -0.00428087 0.00278524
H 0.98585823 2.61866876 21.87774684 -0.01759243 -0.02860129 -0.01455758
H 3.69427843 7.59047294 19.53189186 -0.01725863 -0.01350570 -0.01352690
H 3.36540790 4.85893933 21.28516477 -0.03422531 0.00571377 0.00555095
H 1.32346755 0.16806077 19.92240857 0.05806531 -0.03095039 -0.00171726
H -1.04350780 4.69445870 14.12676532 0.04111226 -0.01577222 0.02211587
H 0.93603613 9.55080759 15.16829123 -0.01092000 0.01611605 0.00693847
H 5.68196929 2.89385236 19.87984969 -0.00837961 0.01592087 -0.03090252
H -1.33269205 8.67490589 21.98911233 -0.00783736 0.00702196 0.00282264
H -1.73134602 5.29396528 16.24314114 -0.00475435 -0.00994026 -0.00847676
H 3.07767959 2.36835166 14.44011850 0.01618949 0.02473586 -0.00555981
H -0.84194555 3.85479093 19.43310354 0.00604897 0.00891547 -0.00353602
H 0.19856590 9.52877394 22.25222173 0.01004589 -0.03126517 -0.00341556
H 3.37841885 6.08784687 16.57564425 -0.02021642 0.00704716 -0.01295142
H 2.88234727 1.13451797 13.23006535 0.02404806 -0.01502891 0.01461621
H 18.06166422 4.40024371 19.30020408 0.00048624 -0.02390763 0.00315081
H 0.19598242 7.97492834 21.37106919 0.02059728 0.00308293 0.00610437
H 4.93254830 5.35354838 15.93904110 0.00956426 0.00373141 0.01438516
H 1.39124150 1.58057408 14.23049250 -0.02259581 0.00688499 -0.01170081
H -3.28659434 9.28972162 26.33415688 -0.00478738 -0.01805675 0.00537138
H -0.38259265 4.12976005 26.93407576 -0.00890300 -0.00938740 0.00961427
H 2.21874523 0.66540512 32.93107943 0.00782968 -0.00823052 0.00545493
H -0.91115489 5.57589730 32.13645723 0.01188024 -0.01134290 0.00999910
H 2.58252425 8.47136733 24.13465344 -0.01091403 -0.01348622 0.00278817
H 0.75900582 3.28716735 29.01770067 0.01276015 0.02431469 0.00990855
H -3.56969443 1.34244591 34.50811853 -0.00383213 -0.01672518 -0.02606999
H -1.89639526 6.42451623 30.28617280 -0.00035647 -0.00646891 -0.02304401
H 0.81773974 6.45549869 34.61548385 0.00958749 -0.01067271 0.03019145
H 0.67801216 1.70209209 30.86276240 0.00163647 0.00666904 0.00743339
H -2.07772079 2.57420352 25.01486988 0.01708984 -0.00544493 -0.01040104
H -1.75689819 7.94336746 28.24503938 0.01310608 -0.02321466 -0.00966196
H -0.53291159 5.55307759 23.55850503 0.01228182 0.00320801 0.02664852
H -3.28382248 0.56346269 29.82809240 -0.00845601 -0.00364832 0.03769628
H -0.73790433 4.16971137 35.56905376 0.01594035 -0.00268808 0.01042822
H 2.25534086 8.87661096 29.24451304 0.02064440 -0.00333345 0.00082113
H -0.25941531 7.60860053 25.14288359 -0.00645094 0.00964363 -0.00884718
H -3.36924775 2.30184964 28.06456573 -0.00583160 0.00619488 -0.00414914
H -0.71264393 2.31005493 33.83252265 -0.00561029 0.00182678 0.00134589
H 2.20593770 7.35718011 31.06700530 -0.00772535 -0.00474160 0.00418792
H 1.84353313 4.96354927 33.30776413 -0.00251161 -0.00781554 0.00132703
H -0.33251157 0.02093764 31.95156579 0.01965788 0.00627341 0.02722298
H -2.94523109 4.79993374 25.81846730 0.00365815 0.01425445 0.00969967
H -0.69411985 9.79325465 27.23666769 -0.02295753 0.01429135 0.00990058
H 4.31529070 3.79869061 31.04256000 0.00240398 -0.02128969 0.03629819
H -1.49752818 9.38554849 33.86586137 0.00076266 -0.00793910 0.00206469
H 14.92764170 6.40996578 27.75898799 -0.00415026 0.00088065 0.01611585
H 1.99711258 0.90328259 25.01704948 -0.01726064 0.00058092 0.00141260
H -3.94366360 2.80146237 31.79139732 0.00370977 -0.00102915 0.01055869
H -1.33217239 8.00454054 32.79309646 -0.00874064 0.01409550 -0.00039417
H 2.97280008 5.50808668 27.89442728 0.01711209 0.01269191 -0.00892074
H 0.17094144 0.47415791 25.09513507 -0.01596707 -0.00735970 -0.00185930
H -2.80434777 3.83983882 30.97018843 -0.00658477 0.00849540 0.00221461
H -2.88460524 8.32082326 33.56704763 0.02263014 -0.00519726 0.01423942
H 2.04043483 7.01050455 27.69174709 -0.01103362 -0.00222016 -0.00476138
H 0.88444007 2.03674393 25.63983212 0.00554991 0.00083262 0.00790290
H -0.09836614 18.58174646 2.81617837 -0.01485512 0.00190330 0.01382070
H 2.64722458 13.70992369 2.98093970 -0.01082126 -0.03278387 -0.00104085
H 5.43775661 10.21277996 8.99233908 0.03140869 0.03652288 -0.00409720
H 2.81537461 15.06437805 8.41923203 0.00565239 -0.00636863 0.01162734
H 5.74634228 17.91553748 0.85201016 -0.01324126 0.00675439 0.04205909
H 3.67496214 13.18683487 4.97571159 0.00609420 0.00148195 0.00800275
H -0.35612672 11.21830348 10.90122928 -0.00343079 0.01408489 -0.01161110
H 1.50492290 15.74245431 6.45280964 0.01301621 -0.00751980 -0.00635706
H 4.06993469 16.22722678 10.74403431 -0.02797278 -0.00217408 -0.00350122
H 3.91431309 11.49948725 6.84510364 0.00641601 -0.00214442 0.00060683
H 0.91954089 12.47522862 1.59294440 -0.00416089 -0.00495587 0.01784185
H 1.34463239 17.60890744 4.92764614 -0.00590270 0.00988270 0.00282401
H -1.76584711 15.29089902 35.44627079 0.00403297 -0.01256632 -0.02267277
H -0.10678742 10.34954836 6.16645480 -0.00305140 0.00621752 -0.00889012
H 2.79439106 13.90233951 12.04578125 0.01708981 0.00474864 0.03312533
H 5.53227487 18.53813006 5.45971552 0.01976887 0.02289062 -0.00205367
H 2.74506119 16.74071501 1.86207196 -0.02804476 0.00250468 -0.00051450
H -0.17213655 11.69166073 4.05184426 -0.00500257 -0.00621490 0.00576456
H 2.63629409 12.58849911 9.73671647 -0.01053985 0.00725389 -0.00530601
H 5.52175886 16.70415423 7.28461982 -0.01949550 -0.03625958 -0.01898377
H 5.09962653 14.51570771 9.53926548 -0.01344450 0.00416704 -0.03953041
H 3.01494112 10.02912818 8.18163616 0.00538206 -0.00473276 0.02529904
H 0.13366461 14.52577112 2.30224571 0.01600162 0.04053470 0.00515423
H 2.37406199 18.99439702 3.40755652 -0.04464191 -0.02320197 0.00167585
H 7.74128171 13.13322742 7.39322656 -0.00294613 -0.02845733 0.00296147
H 0.67693919 18.68758178 10.40371945 0.01660316 0.02090942 -0.02808783
H 19.99229837 16.10652506 4.01552381 0.03272983 -0.02004391 -0.04070327
H 5.02418725 11.88222486 3.04660560 0.01752491 -0.01995458 -0.02050131
H 0.27554860 13.44135906 7.30992225 0.00170276 -0.02992804 -0.03475104
H 2.32683406 18.58951412 10.01135305 0.01769906 0.01270625 -0.03140393
H 6.42126378 15.80287083 4.01214264 0.02116076 0.01375533 0.02335324
H 4.75122690 10.92176705 1.49909634 -0.00577293 0.00304014 0.00853576
H 19.34206381 13.74017960 8.15814881 0.00154261 0.01443673 0.01554638
H 1.30119064 17.44889441 9.28603768 0.01954946 -0.00597752 -0.00639268
H 4.96046218 16.65903715 3.32516677 0.00509710 -0.01924417 0.01573449
H 3.40605589 11.51592011 2.46410267 0.02784022 0.01385167 0.01194061
H -1.45095600 18.61587134 14.83307063 0.00373760 -0.00261557 -0.03525405
H 1.49587494 13.66065094 14.81269532 -0.01399685 -0.00529884 -0.00751016
H 3.95342471 10.14493855 21.16831355 -0.02963620 0.01296385 -0.00375306
H 0.68257733 15.24203424 20.76224896 -0.00683229 -0.00453968 -0.01431869
H 4.18062314 17.84219385 12.30290082 -0.00388142 0.02411903 0.02582307
H 2.61915969 12.88110774 16.66747411 0.00799982 -0.00541480 0.01374492
H -1.91273066 11.56794175 22.64423753 0.02466276 -0.00909385 0.00471170
H -0.31221226 16.26034133 18.66110582 0.00600608 0.00781397 0.00310615
H 2.71827859 16.60995016 22.33800030 0.00393631 0.01981545 -0.02241063
H 2.58104397 11.58117362 18.69717517 -0.00173665 -0.02176606 -0.04432317
H -0.29723716 12.82693603 12.82479434 0.00285568 0.02630840 -0.03254068
H -0.08800973 17.59957394 16.74939636 -0.01333492 -0.01454732 -0.00530535
H 1.11394887 15.00383773 11.70807219 -0.00886858 -0.02207069 0.00983453
H -1.39107744 10.34804173 17.65569365 0.00000920 0.00723073 -0.01119670
H 1.10416021 13.92042028 23.59977298 -0.03930700 -0.00360241 0.02159101
H 4.10956632 18.37742922 18.02060906 -0.00483601 0.00691556 -0.00765395
H 1.33044546 16.71764070 13.69399585 -0.00278407 0.00399262 0.01689152
H -1.54922968 12.01394578 16.13853895 0.01003539 0.01200245 0.00890846
H 1.07945933 12.38887802 21.66354835 0.00393448 0.00232924 -0.00358735
H 3.88449186 16.70534794 19.65784983 0.00170407 -0.00340397 0.00744186
H 3.45406183 14.80319911 21.48797389 -0.01460618 -0.00423380 -0.02342319
H 1.48458150 9.91224098 20.06612005 -0.03026160 0.02535783 -0.02355161
H -1.17874961 14.70996195 13.91618490 0.01287860 -0.00253504 0.01718122
H 1.15282729 19.47257573 15.80542511 -0.00617617 0.01458440 0.01406705
H 3.97188747 13.22222063 19.89191925 0.02790178 0.00223997 -0.00480747
H -0.60554322 18.84449421 22.41501949 -0.00334939 -0.01034898 0.01377088
H 17.50706915 16.35840573 15.82459151 0.01148386 -0.00908759 0.00149066
H 1.79598101 11.00776674 13.64300139 0.03930721 -0.00319136 0.00890720
H -1.75679042 14.52233475 19.18608744 0.00133196 0.00897900 0.01325264
H 0.71380430 18.59328001 21.42412344 0.00642386 0.00619496 -0.03678456
H 4.74483052 15.15274353 16.16702995 0.01728477 -0.02658190 0.02468770
H 3.15231059 11.85331773 14.34903195 -0.01033280 -0.00872519 -0.01801580
H 17.70520996 13.45008618 19.96931362 0.03190603 -0.01148260 0.00699891
H -0.84295411 17.60859848 21.31451464 0.02933370 -0.00684695 0.00239923
H 4.27070351 16.47564801 14.87922689 -0.00022846 0.01564628 -0.00876774
H 3.57299274 10.63612819 13.22199095 0.00384331 -0.03407606 0.02211089
H -3.23332919 18.91327300 26.77274734 -0.00063741 -0.01258075 -0.00746824
H -0.73380110 13.99985887 26.57213205 -0.00645288 0.02041820 -0.00163206
H 2.04000223 10.32369646 32.93929874 0.01769439 0.01909572 -0.00936544
H -0.47217187 15.15394532 32.40414360 -0.00110303 -0.00611052 -0.01710204
H 2.35526484 17.62840394 24.54967305 -0.02525690 0.01868181 -0.01363705
H 0.51320008 13.53161617 28.76528682 0.00554956 -0.02763668 -0.00036171
H -3.63089380 10.96785655 35.33543907 -0.00371774 0.00337554 -0.02987600
H -1.44716054 15.72126271 30.38732840 -0.01186849 -0.01078760 -0.01946504
H 1.07055929 16.47626606 34.14644785 0.00417796 -0.00493024 0.01035535
H 0.70422198 11.76960345 30.56887111 -0.02541188 0.00707280 0.02075399
H -1.97116344 13.20938106 24.48390487 0.00251982 0.01278342 -0.00019288
H -1.68162033 17.31416086 28.58193971 0.01729623 0.01049216 0.00355898
H -0.55211556 15.19289712 23.71617507 0.01405007 -0.00085919 -0.00314974
H -3.38477959 10.52973876 29.55340386 -0.02431715 -0.01006714 0.00603915
H 4.02791101 13.89631967 0.13637274 -0.01448137 0.03682263 0.02183028
H 2.23081318 18.73078368 29.39990822 0.01244209 -0.01694192 0.01381991
H -0.50160118 16.65864404 25.57581530 -0.03776453 0.03465235 0.00272689
H -3.34683174 12.08287961 27.60579742 -0.00864084 -0.01102566 0.00317743
H -0.87729586 12.16291627 33.93546383 0.01667704 -0.01183306 -0.01409413