2160
Time=17999.99999999 pbc="T T T" Lattice="20.58740707 0.00000000 0.00000000 0.00000000 28.93797061 0.00000000 -4.73744000 0.00000000 35.68613720" energy=-13794.27142072 virial="2.24092776 31.11474691 84.10551359 31.11474691 -32.49345238 -2.11585135 84.10551359 -2.11585135 -23.49627222" stress="0.00280690 0.00140046 0.00407582 0.00140046 0.00074212 -0.00004896 0.00407582 -0.00004896 0.00118410" Properties=species:S:1:pos:R:3:vel:R:3
O 0.89296640 8.59734661 2.49027375 -0.00341829 0.00617352 -0.00126893
O 1.97801666 3.78863438 3.32186561 0.00349958 -0.00053338 0.00101954
O 4.63949325 1.36689940 9.31388561 -0.00401798 -0.00061477 0.00138243
O 3.37821109 6.07511853 8.61650975 -0.00500317 0.00097772 -0.00067757
O 1.30494943 5.08488008 9.64221117 0.00281245 -0.00155978 -0.00003887
O -0.28330360 9.94151115 8.12971364 -0.00265380 0.00339042 0.00228179
O 4.10080013 5.02284478 1.90605811 -0.00641522 0.00355219 0.00138937
O 5.63679489 0.04937604 3.70822279 0.00102556 -0.00130064 -0.00112109
O -0.93262649 8.65535447 14.27191367 -0.00077100 0.00083808 -0.00031866
O 0.38811468 3.59853857 15.58805252 0.00012596 0.00278144 -0.00446234
O 2.75399017 0.83535523 21.52175248 -0.00455861 -0.00353064 -0.00086276
O 1.90710969 5.44370666 19.90400270 0.00219780 -0.00002988 0.00097530
O -0.30266563 4.72495419 21.11283787 0.00104816 0.00188649 0.00526460
O -1.93664130 10.00086435 20.17648925 0.00159027 -0.00273495 -0.00143998
O 2.49346781 4.57651755 14.45325621 0.00769313 0.00529269 -0.00251661
O 3.86633646 28.93084983 15.51944325 0.00044702 -0.00024293 0.00018194
O -2.50920019 8.55567078 25.85878435 -0.00296823 0.00587748 -0.00006445
O -1.36867384 3.64290477 27.12779707 0.00271263 -0.00457520 -0.00465610
O 1.44662549 0.91000502 33.30980137 -0.00177893 0.00796986 -0.00348264
O 0.08364669 6.13452087 32.30097234 0.00185399 -0.00358412 -0.00244767
O -1.84545724 4.81548812 33.54244685 0.00406785 0.00402193 0.00654206
O -3.30897139 9.99510871 32.36438969 0.00841885 -0.00153267 0.00289916
O 0.69798524 5.02435463 26.09877742 -0.00114516 0.00343229 -0.00091434
O 2.30452771 28.65580519 27.29018149 0.00067919 -0.00120152 0.00172753
O 0.81343586 18.41008453 2.49651865 -0.00175568 0.00443844 0.00233517
O 1.95701567 13.67824402 3.42047997 -0.00054399 -0.00030939 -0.00154649
O 4.39470367 10.58319214 9.45543741 0.00342733 0.00107764 -0.00470653
O 3.76238331 15.33372795 8.28512899 -0.00211692 -0.00137975 -0.00543023
O 1.43066597 14.74070413 9.51077889 0.00087258 -0.00141412 -0.00485288
O -0.27222076 19.47508906 8.31736216 0.00197263 -0.00269070 -0.00746554
O 4.14879253 14.81109771 2.24353282 -0.00098522 -0.00226508 -0.00337591
O 5.78302520 9.38564332 3.66182303 0.00388607 0.00461354 -0.00414061
O -0.79887117 18.43802403 14.27256304 0.00649126 0.00303498 0.00235750
O 0.45286207 13.22912358 15.28397919 -0.00580925 0.00603100 0.00367554
O 2.98734347 10.76398806 21.24341918 -0.00109035 0.00325301 -0.00131136
O 1.57665335 15.35027866 20.35197099 -0.00092820 -0.00190038 0.00635339
O -0.49179297 14.30425321 21.74913205 -0.00256971 0.00847146 0.00198394
O -1.91176870 19.43483463 20.08447198 0.00533602 -0.00056217 -0.00148667
O 2.29579655 14.59180228 13.94962376 0.00020761 0.00336407 0.00060633
O 3.74496345 9.29732041 15.40664290 -0.00422438 -0.00095777 -0.00322899
O -2.55632690 18.35348257 26.23059802 -0.00183908 -0.00268040 0.00104356
O -1.41607612 13.14389102 27.07372532 -0.00368246 0.00013080 0.00155679
O 1.47942522 10.93487899 33.15390739 0.00174399 0.00085311 0.00490008
O 0.07449447 15.79100589 32.28032732 -0.00395559 -0.00056513 0.00280888
O -1.98156685 14.52310657 33.54552985 -0.00882862 -0.00037640 -0.00136119
O -3.51302697 19.34492413 31.86987486 0.00186974 0.00557602 0.00190477
O 0.85208109 13.99437670 26.01804613 -0.00292885 -0.00594993 0.00053367
O 2.21149080 9.52402852 27.20887206 0.00031479 0.00438049 -0.00267749
O 0.57092049 27.88900105 2.57698237 0.00081295 0.00070556 0.00168749
O 1.73756275 23.19587938 3.68478914 -0.00189404 -0.00132023 -0.00853039
O 4.84986229 20.30159798 9.53694425 0.00055497 0.00611649 -0.00186189
O 3.46253418 25.36970349 8.36344759 0.00865915 -0.00424242 0.00270138
O 1.39528751 24.39149941 9.52289032 0.00109667 0.00430422 -0.00077072
O -0.25973767 0.11570197 7.93664544 -0.00136462 -0.00045465 0.00091637
O 3.79489366 24.15042700 2.31937026 -0.00015649 -0.00415615 0.00031310
O 5.58040952 19.17370972 3.52461877 0.00088124 0.00117719 -0.00322934
O -0.83593654 27.73691705 14.32445789 0.00702324 0.00371197 0.00267879
O 0.56656613 22.65206794 15.31055034 0.00168861 -0.00112961 -0.00400163
O 2.87972433 20.24980718 21.44463133 0.00524747 0.00562130 0.00178981
O 1.82713215 24.88474582 20.11621957 -0.00042682 -0.00731349 -0.00153578
O 0.01902432 24.01819032 21.65860884 0.00011592 -0.00373540 0.00288363
O -1.91897051 28.83615338 20.08116034 -0.00830145 -0.00177232 0.00657574
O 2.53148444 23.61706453 14.23448454 0.00307618 -0.00241600 0.00162661
O 3.90497774 19.00385087 15.63360723 0.00150927 0.00594339 0.00325412
O -2.48902227 27.72015453 26.42146185 0.00011780 0.00304116 0.00203743
O -1.43921681 23.10417002 27.18109611 0.00052871 -0.00436460 -0.00157107
O 1.16340820 20.28521047 33.20334071 0.00275478 0.00152110 0.00237501
O 0.43051446 25.12987144 32.16780509 -0.00393648 0.00086572 -0.00005661
O -1.84500418 24.41866773 33.30154670 0.00305930 -0.00129798 0.00238796
O -3.26722779 0.33228789 32.27098636 0.00139039 -0.00102570 -0.00242683
O 0.70887761 24.08106848 26.15861834 -0.00744148 -0.00063178 -0.00501388
O 2.25696401 19.36069206 27.45904309 0.00013942 -0.00210318 -0.00755671
O 7.79825752 8.12638023 2.53196169 -0.00634180 0.00052010 -0.00117455
O 8.64124861 3.57672399 3.18506779 0.00494084 0.00414357 -0.00522101
O 11.40466869 0.93055325 9.63194198 -0.00036440 0.00467450 0.00127817
O 10.38409699 5.92203071 8.50851573 -0.00208146 -0.00711606 -0.00118124
O 8.17654776 5.34691829 9.61455884 0.00218235 0.00648405 0.00044983
O 6.61015393 9.63541173 8.37487886 -0.00345468 0.00311331 0.00185356
O 10.71976506 4.91056921 2.33997779 -0.00265549 -0.00110587 0.00051651
O 12.26504942 0.24975088 3.49587720 -0.00509472 0.00142773 0.00365748
O 6.25109090 8.57125839 14.61055615 -0.00014773 -0.00436068 -0.00131184
O 7.07620076 3.55912671 15.30478046 -0.00772104 -0.00410087 0.00289423
O 9.53176553 1.13482368 21.57742950 0.00494227 -0.00464376 -0.00442036
O 8.47000733 5.90780708 20.52722231 -0.00185252 -0.00275155 -0.00237425
O 6.42057987 4.92271556 21.50976729 -0.00312949 -0.00145928 0.00450201
O 5.05307990 9.57034512 20.15093391 -0.00185859 -0.00028551 -0.00175811
O 9.30808339 4.67785670 14.13428316 0.00068073 -0.00273436 -0.00145629
O 10.86643632 28.69519814 15.55974304 0.00200409 -0.00744416 0.00064257
O 4.41615297 8.59408364 26.18230303 0.00300067 0.00126100 -0.00508056
O 5.47014958 3.70873277 27.28315722 0.00171952 -0.00470847 0.00331432
O 8.29866624 1.05877032 33.47765176 0.00211906 0.00010764 0.00653035
O 6.90574915 6.12736808 32.23401541 0.00237919 0.00443346 0.00104808
O 5.01962258 4.75235405 33.21679780 -0.00058113 0.00339575 0.00537600
O 3.47684795 9.89273811 32.01456749 -0.00111428 0.00117473 -0.00024729
O 7.65672190 4.72557047 26.25877408 0.00315238 0.00116669 0.00153439
O 9.35141859 28.75671179 27.35320061 0.00681043 0.00134332 -0.00384135
O 7.47326522 18.20062664 2.43377959 -0.00168699 -0.00113606 0.00053098
O 8.83943785 13.19125134 3.59736618 0.00336808 -0.00071768 0.00013445
O 11.43092062 10.66475340 9.65006773 -0.00481327 -0.00363479 -0.00079910
O 10.15469939 15.39698247 8.23837009 -0.00460891 -0.00456467 -0.00196734
O 8.41922042 14.15466874 9.70683718 0.00404659 -0.00311616 -0.00194987
O 6.76087842 19.60634139 8.19384419 -0.00509082 0.00181883 0.00404903
O 10.75687153 14.65466802 2.19979115 0.00122986 0.00379515 0.00066192
O 12.48895912 9.55143496 3.52006311 -0.00140418 0.00012598 0.00402934
O 6.06345078 18.18842992 14.39847569 -0.00134578 -0.00283224 0.00169764
O 7.22194626 13.01829411 15.29765333 -0.00019347 -0.00169368 -0.00452133
O 9.95864071 10.45332230 21.42191003 -0.00362587 -0.00031285 0.00080125
O 8.58481639 15.65955724 20.27603887 0.00016139 -0.00318505 0.00066035
O 6.36398364 14.96911758 21.15613948 -0.00719940 -0.00389933 -0.00587424
O 4.86185318 19.48881108 19.93304579 -0.00728800 0.00101006 0.00338490
O 9.29455629 14.33124895 14.36118040 -0.00163053 0.00244405 0.00077019
O 10.99372905 9.54813661 15.88898292 -0.00116671 -0.00155555 -0.00703721
O 4.23902797 18.25818735 26.16449827 -0.00293347 -0.00071935 0.00127102
O 5.65051893 13.78374432 27.48511538 0.00008355 0.00582944 -0.00938088
O 8.32637557 10.64714120 33.28166655 -0.00052349 0.00265134 -0.00203378
O 7.01468325 15.70224062 32.36854306 -0.00008447 0.00107082 -0.00181520
O 5.11980283 14.43787841 33.52268547 0.00053679 0.00028206 -0.00015421
O 3.36359041 19.51850518 31.90347741 -0.00254189 -0.00004645 0.00246276
O 7.86435416 14.27831151 26.01122530 -0.00388313 -0.00536741 -0.00564848
O 9.46296738 9.68609000 27.65797005 0.00007971 0.00399025 -0.00340542
O 7.54110419 27.60224855 2.53651849 0.00335700 0.00287234 -0.00274198
O 8.67917717 23.17841305 3.41249766 -0.00160090 -0.00157820 -0.00266028
O 11.64267999 20.77918856 9.30515571 0.00177223 -0.00289644 0.00391999
O 10.33167374 25.55474201 8.58715526 0.00144020 0.00149299 0.00163709
O 8.27861284 24.19752679 9.50751320 -0.00851924 0.00100281 -0.00283320
O 6.77405436 0.28724128 8.40526412 -0.00683566 0.00057640 0.00749824
O 10.95177482 23.92984043 2.26939781 -0.00095864 -0.00570652 0.00039480
O 12.51994341 19.01231793 3.67778321 -0.00040332 0.00220765 -0.00093271
O 5.97489921 27.73703410 14.24516510 -0.00127717 -0.00114021 -0.00146977
O 7.20370663 23.16802123 15.29529369 0.00116824 -0.00048849 0.00290337
O 9.68121818 20.11087161 21.52246794 0.00054052 -0.00929900 -0.00081602
O 8.70641721 25.30001498 20.37726450 -0.00690404 -0.00487361 0.00129513
O 6.52555098 24.19076870 21.55605812 0.00179882 -0.00351144 -0.00417176
O 4.73507704 28.90620284 20.07523553 0.00392013 -0.00309024 0.00021675
O 9.33376369 24.37292136 14.02394594 -0.00243378 0.00275534 0.00221000
O 10.91822172 19.54934874 15.81604941 -0.00202310 -0.00328274 -0.00323376
O 4.49553001 27.90549811 26.16201364 0.00478308 -0.00526553 -0.00021280
O 5.45464662 23.34764749 27.33857389 0.00063394 0.00064325 -0.00048623
O 8.27478088 20.41904456 33.14879690 0.00120461 0.00036110 0.00118637
O 7.25599430 25.31786512 32.19438454 -0.00542400 -0.00277581 -0.00055838
O 5.20791465 24.37706001 33.39378289 0.00284180 -0.00423703 0.00117827
O 3.54920267 28.82899287 32.09618204 -0.00547697 -0.00312780 -0.00555693
O 7.61957852 24.04462170 25.89865754 -0.00448142 -0.00408943 0.00068452
O 9.20195481 19.02871120 27.25382136 0.00498868 0.00129233 0.00261154
O 14.57880582 8.99509494 2.13687343 -0.00686459 0.00189359 0.00257173
O 15.48360424 3.91850680 3.63596186 0.00616772 -0.00139411 0.00309422
O 18.31422155 1.17653858 9.34944742 0.00070087 -0.00282531 -0.00103311
O 17.12005092 5.81523491 8.24879801 0.00018614 0.00670272 0.00236687
O 15.17326511 4.90703596 9.59076531 -0.00017006 0.00902201 0.00034539
O 13.61127158 9.94215055 8.33546170 0.00471073 -0.00260063 0.00037932
O 17.84762573 4.77062977 2.68061625 -0.00145625 0.00336074 -0.00356282
O 19.07388763 28.85614211 3.63259625 0.00007542 0.00083680 -0.00075897
O 12.79652374 8.43610036 14.45224915 -0.00021863 -0.00282501 0.00535739
O 14.32025353 3.64219031 15.67189788 -0.00016103 0.00259536 -0.00286287
O 16.58530175 1.07593981 21.17514098 -0.00573237 0.00141483 -0.00152759
O 15.19734934 5.96397815 20.23402869 0.00390759 0.00008609 -0.00256172
O 13.36970245 4.58252424 21.53613117 -0.00495599 0.00419397 0.00306617
O 11.97040054 9.50833810 20.09060434 0.00919573 -0.00484222 0.00422046
O 16.31253805 4.41452751 14.35090417 0.00237976 0.00004115 -0.00110922
O 17.52245783 28.49715927 15.48570397 0.00161406 0.00121775 -0.00289724
O 11.38209440 8.46195323 26.05763739 -0.00284327 -0.00245354 -0.00383499
O 12.48292771 3.97191865 27.19206192 0.00093077 0.00450020 0.00065915
O 15.19593920 1.24437407 33.35524097 0.00222530 -0.00112265 -0.00331690
O 14.11320174 6.01966590 32.30914185 0.00096677 0.00042990 0.00482700
O 11.96357180 4.75838803 33.42511117 0.00316227 0.00185687 -0.00573741
O 10.42835509 9.55673168 32.12383802 -0.00037398 0.00210119 0.00576218
O 14.67330189 4.35658654 26.11367684 0.00594049 -0.00439590 0.00073398
O 16.09018595 0.13983178 27.64815525 -0.00181136 -0.00098892 -0.00438775
O 14.66958738 18.24605422 2.29572316 0.00534629 -0.00457656 0.00119572
O 15.63054272 13.30603939 3.53989748 -0.00656488 0.00525396 0.00279310
O 18.14099456 10.58246323 9.78627464 0.00919791 -0.00448255 0.00171258
O 16.74633124 15.68053094 8.74004180 0.00411589 -0.00214796 0.00250018
O 15.06189204 14.32510753 10.03930099 0.00176155 -0.00555845 0.00373127
O 13.65344789 19.25486321 8.39055012 0.00516184 0.00057398 -0.00053423
O 17.73206775 14.26011716 2.41501813 0.00514577 -0.00247468 0.00502821
O 19.48985339 9.74013133 3.65722605 -0.00294122 0.00101775 0.00685866
O 12.67627073 18.16429284 14.36673541 0.00161079 -0.00227855 -0.00168653
O 13.96504237 13.26084582 15.58316995 0.00183332 0.00116391 -0.00095840
O 16.70323099 10.73498637 21.59895729 -0.00249679 -0.00161372 0.00563938
O 15.31800141 15.61687208 20.04653634 -0.00085331 -0.00536768 0.00121825
O 13.24713141 14.64109611 21.26280561 -0.00228431 0.00345583 -0.00090240
O 11.62920645 19.50602067 19.91201372 -0.00301996 -0.00102047 0.00019375
O 15.89455140 14.48872424 14.35205219 0.01008843 0.00316413 0.00240472
O 17.74074089 9.70643932 15.72387795 -0.00437492 0.00069574 -0.00276037
O 11.17593844 18.00783322 26.13350301 -0.00084041 0.00085290 0.00379793
O 12.36455345 13.20624491 27.15968316 0.00313341 0.00047128 -0.00075273
O 14.90075346 10.61909607 33.44769544 0.00151408 -0.00309437 -0.00183385
O 13.98906347 15.34415693 32.12460701 -0.00162075 0.00256395 -0.00123868
O 11.81870388 14.45920291 33.16005512 -0.00124983 -0.00311236 -0.00608362
O 10.22292245 19.11316115 31.80864477 -0.00032286 -0.00397659 0.00040251
O 14.39153544 14.55242261 26.23212825 0.00029316 -0.00190909 -0.00482174
O 16.10156239 9.34586411 27.11339039 0.00377518 0.00002107 0.00021805
O 14.40854417 27.94165004 2.31934230 -0.00516293 -0.00520082 0.00446751
O 15.48362565 23.13895188 3.81050976 -0.00162472 -0.00250107 -0.00302886
O 18.41268790 20.55008695 9.45936802 0.00222283 0.00012920 0.00264248
O 16.94927626 25.03625874 8.18079711 -0.00064012 -0.00146128 -0.00072546
O 15.12924818 24.05945155 9.65656055 0.00238163 -0.00140915 0.00348776
O 13.65088571 0.12255212 8.50835607 -0.00326294 -0.00076702 -0.00485198
O 17.64079813 24.01182910 2.65029976 0.00284374 -0.00240730 0.00185993
O 19.29198475 19.07414268 3.80497328 -0.00906776 -0.00074078 -0.00074010
O 13.13084235 27.99348908 14.38695382 0.00038920 -0.00215387 -0.00664118
O 14.02987888 23.04162674 15.17433142 -0.00089807 0.00022147 0.00778595
O 16.60855033 20.48137277 21.07259058 0.00583521 -0.00394775 0.00000643
O 15.64043980 25.01190227 20.22625955 -0.00264928 -0.00022083 0.00200724
O 13.63082859 23.95740405 21.44175538 0.00733902 0.00291865 -0.00491694
O 11.72075014 0.14419433 20.29081925 -0.00422124 -0.00197133 -0.00734624
O 16.15368598 24.11127990 14.19729323 -0.00142770 -0.00139130 0.00383582
O 17.68205912 19.54301370 15.84016646 0.00187282 0.00347430 0.00295135
O 11.33718301 27.51868454 26.30945151 0.00192251 0.00129251 0.00837094
O 12.36162766 22.99189659 27.26070397 -0.00175624 -0.00229862 0.00350359
O 14.98684050 20.17637494 33.38092762 -0.00024619 0.00362197 -0.00386806
O 13.93078770 25.34774351 32.35865952 -0.00475948 0.00246306 0.00335199
O 12.02171683 23.83130152 33.62672960 -0.00612001 -0.00153411 0.00103193
O 10.37854595 0.43731425 32.11269276 -0.00009668 -0.00209699 0.00371810
O 14.51278102 23.75300154 25.87174564 -0.00108749 -0.00320549 -0.00075943
O 16.04777944 19.34714332 27.46996177 0.00321449 -0.00244316 -0.00341611
H 0.04336600 9.13487891 2.81192048 0.01005183 -0.01535811 -0.01094974
H 2.87531349 4.05730870 3.09286247 0.01435753 0.03061079 0.03601194
H 5.48569028 0.92417017 9.08098327 0.03198374 -0.01471170 0.00088502
H 2.55185612 5.57164416 8.78870957 0.01283784 -0.00661711 -0.00031992
H 5.71521153 8.22928978 0.68325714 0.00449214 -0.00479037 -0.00192519
H 3.77154626 3.74024924 5.28336537 -0.01435129 -0.00082880 0.00191961
H -0.23195934 1.33634792 11.13504224 0.00070738 0.02255045 0.00419985
H 1.51257238 6.50363068 6.87866175 -0.00498741 -0.03342075 -0.01595781
H 4.06745127 6.81658535 10.94932392 -0.02938697 -0.00332658 -0.01665786
H 3.83554168 1.96815203 7.16365643 0.01273209 -0.00500446 0.03858985
H 1.29591988 3.21812381 1.27767703 -0.01217942 -0.02846800 -0.02863270
H 1.80871099 7.73042342 4.86708415 0.00376257 0.01429559 -0.00816879
H -1.87662400 5.55444403 35.48205242 -0.02438754 0.00031850 -0.00393542
H -0.10819107 0.65725661 5.93901327 -0.01095032 -0.01744947 0.03578474
H 2.50797740 4.21344343 12.12552401 0.01425473 0.00022589 -0.00988611
H 5.80978703 8.71702784 5.95118322 0.00766884 0.00747287 -0.00169962
H 2.81866320 7.24820026 1.92324972 -0.02604589 0.00475371 0.00019610
H 0.07927321 1.97511706 3.86081142 0.01268784 -0.00252885 0.01447636
H 2.48951731 2.73361284 10.29226186 -0.02018007 0.00290026 0.00059370
H 5.67753586 7.09778050 7.64215424 0.00987740 -0.00518741 -0.00005400
H 5.01710863 5.00747102 9.88294287 -0.02295332 0.00121510 0.00494622
H 2.83473794 0.22179233 8.11784681 -0.02682454 -0.02315872 -0.02112957
H 0.30273599 5.22163803 2.02955066 0.02942680 -0.00080164 -0.00587678
H 2.65707642 9.59286647 3.83301174 -0.00895861 0.00440170 0.01931112
H 7.60931657 2.78739770 8.67802258 -0.01131700 -0.00172368 0.00481986
H 2.28389020 8.56733418 9.52525401 0.00802931 0.01152324 -0.00157673
H -0.02382794 6.04738170 4.00061482 0.04304384 0.00472801 -0.03527671
H 4.83817281 1.90835574 1.99470246 0.03409856 0.02484771 -0.00570722
H 19.49671052 4.21392721 7.79555320 0.00576491 -0.00571118 -0.01558332
H 0.87667906 7.61290690 9.09307024 0.01321121 -0.00267551 0.00800916
H 4.75671649 5.90504553 4.32269840 -0.02875591 0.00699946 -0.00035159
H 4.23443698 0.41847453 1.22118987 -0.00478273 -0.00807831 0.00426525
H -0.39977603 2.78810479 8.55692186 -0.01705430 -0.00104947 0.00288633
H 0.68440067 8.76285606 10.46116977 -0.00326412 -0.01769254 -0.01461075
H 6.28389029 5.05543314 4.09240464 0.00924026 0.01640243 -0.03011099
H 3.11804256 1.36751219 2.08315944 -0.01115154 -0.00352375 -0.02796102
H -1.76153624 9.12107234 14.73356013 0.01259506 -0.02549160 -0.02534912
H 1.18013131 4.16177509 15.35593207 0.00726616 -0.00953017 0.02815526
H 3.63457889 0.40120290 21.26312908 -0.00196235 0.00393623 0.00325873
H 1.10175377 5.19328423 20.40967079 0.00181432 0.00176848 0.01064053
H 4.18956882 8.24977240 12.80697580 -0.00061304 -0.02136198 0.00496687
H 2.37101164 3.13536222 17.25286832 0.01795866 -0.00195097 -0.00850161
H -2.02168371 1.32138974 22.79268994 -0.00566146 -0.00223063 -0.00435556
H -0.30557445 6.01294666 18.52115910 -0.02763908 0.00315727 0.02878459
H 2.40434892 6.51976354 22.52353786 -0.00924299 0.00431797 -0.00418907
H 2.30797354 1.32429530 19.15298744 -0.01035399 -0.00704041 -0.00821876
H -0.29338750 2.77331207 13.05068376 -0.01728041 -0.00047938 0.03429216
H -0.23829872 7.79020171 16.63682162 0.00191447 0.00912385 0.01849236
H 1.11994530 5.41779288 11.74501750 -0.01129551 0.00528164 0.02151164
H -1.68356277 0.31647793 17.88084661 0.01026679 0.00282428 0.00722562
H 0.78199630 4.13430914 23.94985130 -0.03384166 0.01008187 -0.00124075
H 3.67022575 8.92313662 17.82306719 0.02122873 0.01222449 -0.01201122
H 1.06985978 7.17292028 13.65123528 0.01152678 -0.03563999 0.03153076
H -1.58148240 1.99182048 16.10446284 0.03344372 0.00054454 0.00512527
H 0.81288174 2.37830595 22.10488017 -0.00890066 0.00426196 -0.01615363
H 3.69379570 7.12557279 19.38128910 0.03447942 -0.00908511 -0.00405123
H 3.34854526 4.62782487 21.61360833 -0.02068804 -0.01755487 -0.00738093
H 1.16732835 28.52592959 20.10289666 0.02731296 0.01488122 -0.00682588
H -1.14811675 4.37827122 14.11367447 -0.00913794 -0.01306036 0.00172108
H 0.63271663 9.56018743 15.83628058 -0.02013112 -0.00360291 -0.02592043
H 3.97021118 3.18156117 20.28242400 -0.00199409 -0.01432043 0.02221461
H -0.95391200 7.55718258 21.04955275 -0.01158358 0.02418529 -0.00295592
H 17.26549410 6.76599411 15.39189258 0.00430128 0.01750950 0.01376157
H 1.36704649 0.69467208 13.64338886 0.04668804 0.02588048 -0.01653924
H 17.84221489 4.16144713 19.25240776 0.00003603 -0.03848982 0.02268782
H -1.13495846 8.74263798 22.35214786 0.01437094 -0.00346522 -0.03546408
H 3.24526001 6.99230525 15.37442642 -0.00199372 -0.00978603 0.01816810
H 2.12823001 2.08317971 14.55610003 -0.00526223 0.01785919 0.00737634
H -2.14495260 2.74048366 20.05449827 -0.00518653 -0.00304388 -0.01631540
H 0.52612224 8.53799512 21.67264692 0.00498785 0.00920071 -0.00977760
H 3.51290915 5.72059621 16.59837394 0.02306466 0.00474563 0.01317409
H 3.04514875 1.09323983 13.35035395 -0.01038034 0.01258823 -0.00444745
H -3.37589531 8.86455076 26.26777705 0.01258480 -0.00928074 -0.01031643
H -0.54154080 4.10912088 26.82482649 0.02482228 -0.00528433 -0.00420346
H 2.29436306 0.60968958 33.00377007 0.00856865 0.01022794 -0.01358463
H -0.73700343 5.69771678 32.63646466 -0.01885627 -0.02945823 -0.01444951
H 2.36146851 8.15086336 24.64123329 0.02003277 -0.02411942 0.00245878
H 0.38928132 3.73781714 28.99987731 0.01133207 -0.00702657 -0.00346686
H -3.46859188 1.63527907 35.08169762 -0.02826282 0.00655675 -0.00845894
H -1.72436143 6.11187912 30.42362135 -0.00515712 0.00906023 -0.01241281
H 0.94626732 6.80696531 34.34260958 0.00366079 -0.00254884 -0.00105525
H 0.49247633 2.12950778 30.96737770 0.00605198 0.01446706 -0.01124480
H -1.97372969 2.98018781 24.65545964 0.02474964 -0.00013533 0.00892009
H -1.92729344 7.81257664 28.68090122 -0.00015407 -0.01572849 -0.00267148
H -0.40064029 5.37138656 23.28464907 -0.00449674 0.00726020 -0.01394845
H -3.17194163 0.52646055 29.79412901 0.01403017 0.01862741 -0.01145478
H 4.18124755 4.27316289 0.00446056 0.00071102 0.00948036 -0.00267079
H 2.07483039 8.90140092 29.13553228 0.00793174 0.00937595 -0.01990673
H -0.44267896 7.03151375 25.01161600 -0.02609005 -0.03147953 -0.01070902
H -3.23214590 2.10851052 27.84070421 0.02033952 -0.00424858 0.01432568
H -0.64478016 2.45685297 34.01017021 -0.00530889 0.02025893 0.01508813
H 2.16019271 7.51255622 31.32901445 0.02100753 -0.03338695 0.01162160
H 1.85609484 5.10122782 33.32579210 -0.01627532 -0.02119838 0.00305324
H -0.15838505 28.93486330 31.77070964 0.02534630 -0.01930820 -0.00940325
H -2.91050910 4.93796972 25.60204036 -0.02273139 -0.01779454 -0.01177617
H -0.93748764 9.60430512 27.51436408 -0.03823643 0.01215959 0.00044135
H 3.94341994 2.71276817 32.02213310 -0.01899979 0.00570962 -0.00120546
H -0.72082186 9.10568413 34.03853994 -0.00801707 -0.01788639 0.00207916
H 15.19392198 7.07563995 26.60572147 -0.02750392 -0.00551418 0.00009395
H 1.37712806 2.28349334 26.49885889 0.03013333 0.01063762 -0.00141895
H -3.32364777 2.68197621 32.45636012 -0.00362371 0.00247520 0.02307808
H -1.72318696 7.67833053 33.37125159 0.00232616 -0.00336728 0.00978691
H 2.02456320 5.83151970 28.24194726 -0.01923792 0.02289773 -0.02124414
H 1.17256640 0.97454923 25.23016285 0.00267864 0.01175034 0.01092834
H -2.85542801 3.82768058 31.32770817 0.01813080 0.01012352 -0.03342005
H -2.47530473 8.83070687 34.49782969 0.00116471 0.00786924 0.01732386
H 3.49295984 6.21126614 27.35734323 -0.02905296 0.00839390 -0.01780799
H -0.29665613 1.47206741 26.13022335 -0.02687282 0.01378154 0.01632173
H -0.16637509 18.59353651 2.80649943 -0.01734268 -0.01967426 0.01567496
H 2.79264622 14.21071644 3.47436626 -0.00278766 -0.02954942 0.00797086
H 5.24597515 10.20661832 9.12910462 0.00286985 -0.01385522 0.00176334
H 2.88700652 14.98232336 8.67764967 0.01670523 0.02150141 0.01374839
H 5.51165459 17.73674691 0.82711010 -0.00915957 -0.01108439 -0.00667215
H 4.00457198 12.96094952 4.89422978 0.00461589 0.01638027 0.00398207
H -0.43516991 11.14293098 11.31098535 -0.01957250 0.02102121 0.03120139
H 1.78785862 15.45715215 6.33844155 -0.00537828 -0.01492389 -0.01332933
H 4.25782618 16.40042279 10.63202659 -0.05724260 0.00573479 0.02051056
H 4.00252053 11.42050634 6.80091613 -0.00607330 0.01280617 -0.02383581
H 1.27745486 12.60461380 1.22043393 0.01350496 0.00731931 0.01945988
H 1.56879711 17.32584974 4.83154858 0.01047211 0.00136520 0.00989707
H -1.99650809 15.17738974 35.60895162 -0.00461601 -0.01006416 -0.00210398
H 0.06403706 10.29623122 5.84160328 -0.01372913 0.01843187 0.01263795
H 2.72000167 14.02427537 11.75890423 0.02320220 -0.00708175 0.01201292
H 5.41693269 18.85504211 6.06178277 -0.02765355 0.00549037 0.00645246
H 2.90901384 16.91673121 1.62240810 -0.01343185 -0.00624533 0.00136256
H -0.14133495 12.13052017 4.27179038 -0.01664294 -0.01076126 0.00502620
H 2.29802419 12.07205637 10.18743141 -0.01175467 -0.00922007 0.01937675
H 5.58960586 16.97771277 7.64475351 0.01841432 -0.00766939 -0.00754700
H 5.18858145 14.75189585 9.60547198 -0.02095997 0.00559937 -0.00286265
H 2.93723719 9.84258153 7.98661668 0.03557200 -0.01785270 0.01574387
H 0.26742667 14.60083544 2.22175043 0.03587248 0.03007690 -0.00009644
H 2.38477941 19.34710414 4.00974118 0.03411137 0.00074609 0.01436474
H 5.61128433 13.56920469 8.16689102 0.00856816 -0.01781026 -0.03011448
H 0.52370666 18.32585063 10.50302893 -0.00862575 -0.00174023 0.00473435
H 18.88561559 15.29549061 4.71032939 -0.00627409 -0.00210204 0.03355845
H 3.36692302 10.94620805 1.99676749 -0.03620698 0.02140114 -0.01463531
H 0.70057653 13.59778719 7.37294422 0.01121817 -0.00437817 0.00391668
H 2.26895671 18.31865573 9.87290854 0.04252094 0.02276222 0.03133084
H 5.25829172 16.78027531 3.64173618 -0.00089952 0.01147015 -0.00114902
H 4.79976865 11.81741233 2.50179945 0.01683021 -0.02271708 0.02464665
H -0.90016618 13.48319604 7.71283466 -0.01189533 0.00259582 -0.03144167
H 1.08979422 17.07509129 9.44501184 -0.02075758 -0.01637867 -0.01788571
H 5.40842129 15.18625922 4.63147989 0.04307340 0.00258023 -0.03279398
H 4.96227318 10.52015464 1.32826443 0.00265201 0.03051615 0.03075783
H -1.65143646 18.83608155 14.37989546 -0.01839329 0.01063171 -0.00268245
H 1.39856425 13.58551187 15.12319847 0.01408091 0.02545440 0.01295200
H 3.91516949 10.41433094 20.89140087 -0.01432615 -0.04001679 0.00616941
H 0.69079287 15.01198892 20.62040134 0.03216438 0.00000370 -0.03218898
H 4.08617091 17.86591942 12.61667166 0.02013579 0.00752897 0.00729731
H 2.48455029 12.72171762 16.92627518 0.00068927 -0.00841086 0.00380652
H -1.90768427 11.34639462 23.00299867 -0.01054851 -0.00524445 0.03033578
H -0.45418870 15.96560370 18.73327582 -0.00372839 -0.01156924 0.02294502
H 2.25486370 16.43790845 22.50835414 0.01613844 0.01055334 -0.00009369
H 2.24412058 11.39926820 19.00217145 -0.00994425 0.01322858 0.00262642
H -0.63444782 12.82194363 13.28321678 0.01874340 -0.01971636 0.03614439
H -0.26316695 17.11366288 16.68237419 0.02521341 0.01651407 -0.00290111
H 1.11245240 15.07424165 11.74780717 0.01472603 -0.00443762 -0.00273902
H -1.78182712 10.44986511 17.95107697 -0.01163869 -0.00859375 -0.01376906
H 0.90507553 13.79617159 24.04017621 0.00108620 -0.01274077 -0.00913120
H 3.59302348 18.43499533 17.88183794 0.02888470 0.00881062 0.01056298
H 1.36076833 16.67533794 13.52127956 0.00845514 -0.00734161 -0.02777241
H -1.74164476 11.98373492 16.05766230 0.01694567 -0.01983396 -0.01675960
H 1.01052828 12.46563320 21.89772935 -0.02013246 -0.00422267 -0.00959515
H 3.73672327 16.65489787 19.45589820 -0.03141204 0.01144588 0.02158505
H 3.24575579 14.63761004 21.45909389 -0.02054471 0.02019123 -0.01726377
H 1.16622835 9.68848049 20.14583468 0.00426582 -0.02315963 0.03262525
H -1.59229962 14.79560334 14.03615156 -0.01333980 -0.01497486 -0.00509228
H 0.69583046 18.72524729 15.29460615 -0.03665860 0.01441997 -0.01791958
H 5.75600680 12.79967189 19.87498832 0.00182816 0.00684941 0.01667428
H 0.50090214 18.30118684 21.88525371 -0.00519563 -0.02116134 -0.00828519
H 16.71318758 15.85867985 16.35720387 -0.01381926 0.00361961 0.00984864
H 2.04507200 9.93563076 13.05967370 -0.00806864 0.01854814 -0.00960220
H -2.27385399 12.62908780 19.96065142 0.00593139 -0.02153200 -0.00813828
H -0.42417562 17.14117424 21.24847782 -0.00491993 0.00972188 -0.01179257
H 3.73334244 16.71160673 15.21352996 0.00801211 -0.02613415 0.00146409
H 1.23168003 11.01607349 14.29144375 0.00637056 -0.00096970 -0.01717198
H -0.82495657 13.47327699 19.39564392 0.00750552 0.01031701 -0.00147276
H -1.19915738 18.29138152 22.32270772 -0.01131945 -0.00064062 0.01801998
H 3.15855266 15.43045368 16.38151347 0.01379137 0.03283548 -0.00528047
H 2.82601493 11.42764140 13.83448416 -0.00679211 -0.00319094 -0.00390133
H -3.36375961 18.81304196 26.63167594 -0.01224566 0.00027078 0.00717534
H -0.61308651 13.58685409 26.79140047 0.01301446 0.02895856 -0.01718998
H 2.34925964 10.52595739 32.90368400 -0.00409111 -0.01380042 0.00353790
H -0.77471949 15.31254974 32.47678567 0.00461673 -0.00666985 -0.00824960
H 2.45980491 18.02484569 24.41278001 0.01701912 -0.02156675 0.01381491
H 0.56396551 12.87206711 28.69236026 0.01872279 -0.01191188 -0.01604804
H -3.50090343 11.05942424 35.02279506 -0.01166903 -0.01393079 -0.00702131
H -1.83371326 15.91735848 30.27772790 0.02449193 -0.00931794 -0.02332735
H 0.82153606 16.28171555 34.41052222 -0.00776513 -0.00564650 0.01342790
H 0.75216220 11.47471284 30.63214552 0.00773662 -0.00414908 0.01445803
H -1.94920132 12.99111553 24.78765843 -0.01920684 -0.00007366 -0.01404962
H -1.83900995 17.27142695 28.40727264 0.00779836 -0.00067971 0.00221303
H -0.58480018 15.01212845 23.78245072 -0.01486559 -0.00628973 0.00388405
H -3.35511074 10.39576163 30.02774414 0.02548448 -0.01117601 -0.01845136
H 4.16348374 13.96323759 0.27085746 0.01302648 0.01193055 0.00351067
H 2.07165423 18.77207114 29.44038598 0.01781920 -0.00206904 0.00058834
H -0.67021074 16.66727856 25.63494117 0.01085497 0.00324419 -0.00664806
H -3.26418586 11.53476030 27.79295541 -0.00821500 0.00907088 0.01738009
H -0.57096672 12.45996503 34.00723669 0.01091792 0.01118710 0.02162516