2160
Time=46000.00000003 pbc="T T T" Lattice="20.60249872 0.00000000 0.00000000 0.00000000 29.20913301 0.00000000 -4.72402858 0.00000000 35.48437252" energy=-13795.03739882 virial="-54.39781693 -10.42655652 92.78218119 -10.42655652 -87.29065194 -16.49626560 92.78218119 -16.49626560 -81.62038148" stress="-0.00015187 -0.00051185 0.00434401 -0.00051185 -0.00171730 -0.00071615 0.00434401 -0.00071615 -0.00140885" Properties=species:S:1:pos:R:3:vel:R:3
O 0.68385460 8.67925883 2.12658743 0.00305218 0.00635942 -0.00196911
O 1.92162960 3.62934676 3.48507086 -0.00000323 -0.00112507 0.00126019
O 4.66848831 1.30621843 9.45259779 -0.00466802 -0.00359757 -0.00283515
O 3.29630516 6.00260940 8.55939627 0.00123879 0.00025384 0.00324191
O 1.12224178 4.76431815 9.61417469 0.00263207 0.00377990 -0.00308368
O -0.33629153 10.31906063 8.10176110 -0.00056405 -0.00111951 0.00153483
O 3.72664330 4.86982245 2.05183817 -0.00050458 0.00429233 -0.00776989
O 5.49103709 0.34076506 3.62732605 0.00162340 -0.00271629 -0.00306549
O -1.28474450 8.75965542 14.23009376 0.00148659 0.00338847 -0.00263837
O 0.18751527 4.32583994 15.61269801 -0.00052547 -0.00529669 0.00522734
O 3.07260740 1.17534954 21.12798943 0.00123121 0.00206945 0.00321563
O 1.71974316 6.43383770 19.83568171 -0.00201552 0.00393257 0.00226224
O -0.39167006 5.11801955 21.27601677 0.00578373 0.00239440 0.00580562
O -1.99903922 9.85711427 19.71177600 -0.00386147 -0.00450794 -0.00538665
O 2.42737883 5.38456852 13.88804274 0.00235891 0.00667677 0.00031870
O 4.01705937 28.99005099 15.39750243 -0.00093937 -0.00099589 -0.00345636
O -2.71943307 8.42750704 26.15518110 -0.00488501 -0.00343388 0.00215081
O -1.57313555 3.80552059 27.30736825 -0.00173786 -0.00006396 0.00230795
O 1.66293957 1.10028411 33.22153947 0.00201727 -0.00908459 0.00259868
O 0.38285003 5.81354770 31.90112224 0.00085142 0.00232516 0.00331662
O -1.74177012 4.92478767 33.01214213 -0.00433785 0.00209310 -0.00190411
O -3.33363792 9.87188341 31.53661985 -0.00724560 0.00403102 -0.00210538
O 0.79124312 4.65383996 25.97633761 -0.00467768 -0.00363207 0.00822809
O 2.49490293 0.09970491 27.35506641 0.00197517 -0.00495072 0.00442586
O 0.68339028 18.36347516 2.07389246 0.00330557 -0.00318641 0.00810074
O 2.08476642 13.38770933 3.14494062 0.00031803 0.00343367 -0.00203142
O 4.56262690 10.87351971 9.49967164 -0.00345956 -0.00059175 -0.00451385
O 3.49711849 15.64774710 8.45755398 -0.00184668 0.00028802 0.00094902
O 1.35387849 14.93554921 9.79405991 0.00122415 0.00657651 -0.00308283
O -0.27064037 19.69742129 7.98967047 0.00078226 -0.00526137 0.00628909
O 4.06597942 14.53787122 2.09691835 0.00468655 0.00471425 0.00449434
O 5.29741455 9.61786602 3.72948909 -0.00172926 0.00178933 -0.00177625
O -0.90681229 18.46882461 14.44997544 0.00885914 0.00148690 -0.00637785
O 0.19516824 13.49938733 15.08905503 0.00047002 0.00191770 0.00078571
O 2.97564511 10.83334283 21.28038327 -0.00130013 -0.00107536 0.00359164
O 1.62712677 16.05571240 20.20305580 -0.00470373 0.00228935 0.00729865
O -0.51319227 14.81225068 21.08740009 0.00133710 -0.00627201 -0.00264332
O -1.81991551 19.49184666 19.96581343 -0.00175745 -0.00194451 0.00404486
O 2.27816956 14.65914653 13.98578377 0.00330646 0.00158733 -0.00458888
O 3.70392950 10.33375458 15.49855673 -0.00082303 -0.00247147 0.00266653
O -2.61734617 18.15572495 26.07927151 -0.00159268 -0.00286356 0.00096381
O -1.11132005 13.18629099 26.77485673 0.00152521 -0.00282652 -0.00131177
O 1.37910052 10.80891063 32.68271714 0.00312028 0.00573752 0.00489633
O 0.24128959 15.65694652 31.87465526 -0.00501086 -0.00229591 0.00115864
O -1.58179761 14.55136978 33.12530195 0.00172450 0.00522811 0.00465331
O -3.35381172 19.33915131 32.14966280 -0.00264351 -0.00199531 0.00447665
O 1.03257121 14.99106116 25.81238446 0.00043358 0.00464508 0.00666111
O 2.32053936 9.62154141 27.30226457 0.00071043 0.00185357 0.00561735
O 0.78328348 27.93952066 2.28703776 -0.00364754 -0.00135616 -0.00667699
O 1.93269678 23.22242372 3.46452426 -0.00428806 0.00018894 -0.00642934
O 4.56160192 20.91373778 9.23380897 0.00268020 0.00052320 -0.00381935
O 3.63739628 25.45986201 8.24092941 0.00110902 0.00106168 -0.00184105
O 1.55115235 24.54537562 9.49034799 -0.00217525 0.00311420 0.00135109
O 0.17721011 0.46523512 8.65300747 0.00423132 0.00662266 0.00183885
O 3.93201534 24.30100766 2.29217304 -0.00455838 0.00225976 -0.00420368
O 5.42056158 19.25946842 3.43924595 -0.00356151 0.00375401 0.00645662
O -0.62846234 28.12591572 14.22140789 0.00015506 -0.00013237 0.00451445
O 0.33267622 23.16994016 15.32376803 -0.00012141 -0.00459953 0.00443953
O 3.04800331 20.59162377 21.55370410 -0.00428278 -0.00239703 -0.00647424
O 1.70208065 25.73689725 20.39300299 0.00091652 0.00210899 0.00412490
O -0.22198779 24.30187149 21.48479218 -0.00690458 0.00271354 0.00155365
O -1.83252445 0.19473146 19.94782185 -0.00253147 0.00188299 0.00417637
O 2.62588043 24.07674787 14.21911692 -0.00109207 -0.00261608 0.00206061
O 4.04217043 19.56355949 15.55385721 0.00672348 0.00119343 -0.00425870
O -2.23817414 28.26244149 25.86525380 -0.00077032 -0.00548737 0.00428453
O -1.44963506 23.24497664 27.64242133 -0.00571509 0.00291636 0.00178338
O 1.49854218 20.28218114 33.14975504 0.00187205 -0.00251360 0.00147006
O 0.32259395 25.43774941 31.90871989 0.00105176 0.00176634 -0.00094225
O -1.68544989 24.27290469 33.07561027 -0.00040146 -0.00418585 0.00613263
O -3.22602860 29.10902655 32.10460381 0.00449483 -0.00397865 0.00125398
O 0.64723110 24.01909877 26.43978484 0.00277559 0.00161666 0.00334855
O 2.38595790 19.19281851 27.13933871 -0.00161006 -0.00606572 0.00213483
O 7.46515059 8.80074421 2.11909542 0.00177758 -0.00316384 0.01413946
O 8.68663169 4.37057876 3.78045381 0.00292957 0.00093369 0.00280024
O 11.72299732 1.25618706 9.15735695 0.00450659 -0.00233966 0.00489850
O 10.09946404 6.21199174 8.43515023 0.00268303 -0.00274384 0.00611040
O 7.90369334 5.47092451 9.62885461 0.00234837 -0.00449307 -0.00207234
O 6.57315888 9.87359021 8.27154974 -0.00094047 0.00094881 0.00010151
O 10.90713380 4.41351512 2.26516890 -0.00200004 -0.00634192 -0.00204080
O 12.49030362 28.95474708 3.57422446 0.00625798 0.00511240 0.00706423
O 5.64897644 8.84711986 14.40927630 0.00140071 0.00130320 -0.00099010
O 7.17757708 3.83064094 15.36296399 -0.00180163 -0.00228362 -0.00526417
O 9.59322511 0.80263451 21.57131949 0.00059420 0.00139862 -0.00295041
O 8.61766150 5.80951277 19.90914257 -0.00232195 -0.00573653 0.00053861
O 6.27357755 5.21268914 21.08021505 0.00462678 0.00036737 -0.00329536
O 4.96918577 9.81165013 19.90130097 0.00062508 -0.00222275 -0.00194438
O 9.37401328 4.30634914 14.22051944 -0.00320952 -0.00281868 -0.00457202
O 10.87231824 28.78827682 15.33694821 -0.00023935 0.00610996 -0.00194250
O 4.19220265 9.14433677 25.50184505 -0.00708080 -0.00475102 0.00311947
O 5.71218406 3.98109820 27.44689583 0.00109280 -0.00023848 -0.00391850
O 8.24892697 0.84501582 33.13741074 -0.00896915 -0.00166807 -0.01105432
O 7.02975207 6.28254818 32.08180768 0.00080347 0.00344847 -0.00320876
O 5.03873860 4.66797431 33.25240150 -0.00264296 -0.00636833 -0.00065203
O 3.65829207 10.00865689 32.00435025 0.00471754 0.00023006 0.00291515
O 8.02108081 4.64406233 26.23145924 -0.00165127 0.00360918 -0.00144129
O 9.31213650 0.16203478 27.36375817 -0.00372635 0.00126960 -0.00118798
O 7.43742613 18.53575788 2.20284998 0.00617907 0.00096606 0.00072126
O 8.88586212 13.02749512 3.31127500 -0.00509897 -0.00326446 0.00238327
O 11.30076228 10.88810394 9.72797347 0.00234360 -0.00037606 -0.00343659
O 10.27672617 16.05350175 8.54262329 0.00042979 0.00120220 -0.00136840
O 8.33205979 14.77125173 9.60666334 0.00059245 0.00188774 -0.00169969
O 6.69796436 19.60773449 8.45508590 -0.00213170 -0.00235665 -0.00244777
O 10.80243569 14.50074615 2.37425977 -0.00103948 0.00263841 0.00011827
O 12.25631523 9.87566907 3.69878794 0.00487287 -0.00125044 -0.00367473
O 5.88762184 18.30944279 14.42957868 -0.00021612 0.00056236 -0.00403080
O 7.29127491 13.90178542 15.69905999 0.00602551 0.00626949 -0.00112763
O 10.02154213 10.96454490 20.98376094 -0.00533002 -0.00169909 0.00618732
O 8.59494628 15.99133615 20.29041988 -0.00564062 -0.00461694 -0.00181273
O 6.59972557 14.53706677 21.38683899 -0.00280498 0.00216961 -0.00049870
O 5.01406292 19.61275567 19.89458858 0.00125195 0.00003787 0.00382149
O 9.47673254 14.72901875 14.50606603 0.00302877 -0.00114777 -0.00372760
O 10.79611082 9.90585750 15.52972076 0.00077104 -0.00029102 0.00556293
O 4.47537304 18.68266843 25.57632138 0.00066056 -0.00589041 -0.00419865
O 5.97761444 13.78712625 27.66611843 -0.00210381 0.00264514 0.00247313
O 8.34619192 10.96333772 32.97656786 -0.00357241 0.00560476 0.00329466
O 7.10712472 15.66229424 31.91972333 -0.00619870 -0.00405560 0.00380138
O 5.05920732 14.70025714 33.08393406 0.00364750 -0.00293955 0.00331362
O 3.55110960 19.43293882 31.92948962 0.00238447 0.00033554 -0.00069191
O 7.43604484 14.47933021 25.73102306 -0.00473254 0.00377282 -0.00279795
O 8.97678974 9.68552492 27.06610473 0.00149367 0.00505703 -0.00116975
O 7.39508090 28.28692867 2.34108626 0.00176083 -0.00840792 -0.00032466
O 8.99383872 23.30892336 3.58020032 -0.00470358 -0.00693092 0.00243901
O 11.81313926 20.73985598 9.21632281 -0.00122897 0.00069265 0.00089420
O 10.26139440 25.55637531 8.50779960 0.00080845 0.00365041 -0.00488584
O 8.37530702 24.20318152 9.74989519 -0.00293386 -0.00066114 0.00154894
O 6.80726877 0.53182047 8.53628310 -0.00017309 0.00027821 0.00718013
O 10.87879650 24.50983074 2.37023451 0.00553941 -0.00164535 -0.00067601
O 12.54555819 19.54057114 3.54150627 -0.00401121 0.00520796 -0.00269981
O 6.16428412 28.05421140 14.24869208 0.00261388 -0.00490713 -0.00501153
O 7.27839267 23.17378509 15.18060940 0.00480741 -0.00554143 -0.00085770
O 9.86936666 20.56429126 21.37848069 0.00714998 -0.00075283 -0.00137366
O 8.52694096 25.39519591 20.06745561 -0.00032651 -0.00347801 -0.00613809
O 6.30904660 24.56610782 21.30960870 0.00931601 -0.00712783 -0.00313532
O 5.00085192 0.00839193 19.82156802 -0.00111504 -0.00277733 0.00296189
O 9.30752890 24.50970073 13.95811007 -0.00405593 -0.00309642 -0.00352182
O 10.71267132 19.30072381 15.03751880 0.00550732 0.00091725 -0.00629600
O 4.53091776 28.55770615 26.02957424 0.00444685 -0.00616379 -0.00047409
O 5.55630974 23.29165950 27.47658416 -0.00529494 -0.00053942 -0.00008962
O 8.13608623 20.51447636 33.22289446 0.00166879 -0.00555935 -0.00477822
O 6.95352235 25.58612029 32.05731250 0.00448629 0.00804663 -0.00346981
O 5.02079384 24.22831030 33.18831282 -0.00030019 0.00582162 -0.00515622
O 3.40520616 29.11727133 31.78378585 -0.00332614 -0.00069246 0.00240974
O 7.66886253 24.41455568 25.92683381 -0.00184510 0.00041632 0.00519215
O 9.24931358 19.40269531 27.34604388 -0.00204267 -0.00177851 0.00152265
O 14.55174745 8.73041451 2.56237871 -0.00131751 0.00496495 -0.00361868
O 15.60425547 3.69772447 3.62802889 0.00140671 -0.00338911 -0.00456766
O 18.44836301 1.13586554 9.56763907 0.00077383 0.00230578 0.00723818
O 17.11640587 6.13616197 8.45984985 0.00315448 0.00324948 -0.00042371
O 15.10702051 4.98009587 9.66400919 -0.00592269 -0.00929215 -0.00006208
O 13.24085039 10.02832414 8.32243183 -0.00216754 0.00835416 -0.00426334
O 18.16759320 4.29458857 2.71257042 -0.00869317 -0.00513764 -0.00393387
O 19.28221277 28.94852639 3.75489498 -0.00241970 0.00290747 0.00670498
O 12.56590666 8.51831305 14.33093763 0.00519114 -0.00145225 -0.01027717
O 14.09241246 3.57496546 15.29637602 0.00370593 0.00240535 0.00058029
O 16.74206085 1.31666584 21.11513950 -0.00586201 -0.00766206 0.00658719
O 15.44910093 6.12276905 20.35248002 0.00139200 -0.00141174 0.00666172
O 13.39888655 4.78654915 21.38276538 -0.00377169 -0.00608876 -0.00306525
O 11.71526234 9.52811521 19.86976326 0.00229673 -0.00510258 0.00233726
O 16.03276802 4.96795088 14.18554192 0.00724534 -0.00128045 0.00295767
O 17.65197070 28.93953858 15.49345154 -0.00164866 0.00293460 0.00081176
O 11.31188952 8.55926892 25.81941341 0.00210721 -0.00155364 -0.00050246
O 12.63752180 3.82717803 27.23137622 0.00993493 0.00193653 0.00762639
O 15.30953985 1.13508600 32.91363154 -0.00114408 0.00278225 -0.00014151
O 13.97721609 6.03554323 31.94125924 -0.00342887 0.00344775 -0.00401743
O 11.90381886 5.04321688 33.26387008 -0.00081742 0.00431990 -0.00223853
O 10.43539097 9.97972622 32.04133057 -0.00373371 0.00568781 0.00121513
O 14.54364582 5.06028254 25.89021435 -0.00398843 -0.00464763 -0.00364020
O 16.02056985 28.51560040 27.26040131 -0.00740709 0.00367846 0.00356161
O 14.56188874 18.43093214 2.31717122 -0.00342759 -0.00040070 0.00250461
O 15.77738905 13.73514438 3.64622590 0.00166529 -0.00072890 -0.00388838
O 17.95533856 10.71008369 9.60129553 -0.00269330 -0.00917398 0.00229668
O 17.30326547 15.68481950 8.05129635 -0.00240145 -0.00043341 0.00284554
O 14.87245210 14.85037748 9.13417518 -0.00193653 -0.00312748 0.00263883
O 13.82762802 19.47413541 8.28910466 0.00371453 -0.00843225 -0.00109406
O 17.83401068 14.62421870 2.04387187 0.00441911 -0.00126904 0.00197238
O 19.43266227 9.63733181 3.61995355 -0.00358044 0.00348325 -0.00189470
O 13.04358883 18.27958820 14.28395617 0.01034849 -0.00398850 0.00108585
O 14.01755168 13.45906641 15.38228498 0.00084569 -0.00241952 -0.00562391
O 16.51278588 10.67684502 21.21370506 -0.00481281 -0.00039898 -0.00307127
O 15.33259296 15.64769108 19.94090029 0.00204808 0.00150142 -0.00329950
O 13.45049437 14.76995915 21.39780434 -0.00054572 -0.00010099 -0.00362121
O 11.92809035 19.39660991 19.89208824 0.00199470 0.00352615 0.00054943
O 16.17811883 14.70980195 14.17961880 -0.00233120 -0.00079516 0.00171901
O 17.59285871 9.94180609 15.74846134 -0.00055181 0.00031154 -0.00078019
O 11.41571080 18.35711002 26.14761298 -0.00076880 -0.00425249 -0.00400329
O 12.48862929 13.31193760 26.96663839 -0.00613248 -0.00311497 -0.00613444
O 15.08284020 10.69917990 32.80163561 0.00233010 -0.00235783 -0.00393435
O 14.11005557 15.33749287 31.84043671 -0.00189086 0.00024903 0.00143319
O 11.73126032 15.18373000 32.64950764 0.00769284 -0.00202297 -0.00493029
O 10.43691276 20.05638618 32.29091289 0.00393823 -0.00079260 -0.00986371
O 14.49998709 14.55806251 25.81197125 0.00554755 0.00424352 -0.00234687
O 16.09148412 10.04290048 27.31846619 -0.00252438 0.00426900 -0.00425008
O 14.67655285 27.96514550 2.53259860 0.00252025 0.00277193 -0.00483434
O 15.75311855 23.12812272 3.33349071 -0.00036058 -0.00771333 -0.00080074
O 18.39378590 20.19860299 9.57192767 -0.00126928 0.00215580 -0.00269703
O 17.24548851 25.22778750 8.28257094 0.00268823 -0.00086649 0.00169253
O 15.11351221 24.30906338 9.60881644 0.00543768 -0.00056207 0.00292152
O 13.80584995 29.09646619 8.26895808 -0.00311094 -0.00333313 0.00572353
O 17.78664044 24.04664980 2.22146919 0.00118240 -0.00010674 0.00215250
O 19.39827630 19.39628870 3.22950806 0.00030414 -0.00299873 0.00471903
O 12.81071344 27.92686499 14.12556326 0.00345518 0.00020085 0.00365980
O 14.17176965 23.13481069 15.33079131 -0.00209072 -0.00158197 -0.00074663
O 16.81774887 20.64556718 21.11147403 0.00253969 0.00817706 -0.00260593
O 15.49627893 25.68386895 20.31468426 0.00332665 0.00112796 -0.00094838
O 13.27326455 24.42484147 21.30818007 -0.00253473 0.00414002 0.00090492
O 11.82346804 0.06720498 20.17537328 -0.00119703 0.00819477 -0.00154205
O 16.14534651 24.29377419 13.83797183 0.00039610 -0.00671585 -0.00868556
O 17.89828708 19.51811466 15.71051191 0.00153467 -0.00118783 -0.00000976
O 11.13954762 27.98972134 26.37545240 0.00253585 0.00244449 0.00013069
O 12.43732131 23.07378692 27.20235850 0.00085550 -0.00475175 0.00333959
O 14.98556258 20.21247408 32.97528447 0.00011361 -0.00132006 -0.00554332
O 14.00421329 25.03493015 32.02601570 -0.00324194 -0.00058864 -0.00119306
O 11.88875399 24.18118518 33.23011556 -0.00007063 -0.00258857 -0.00014127
O 10.19436837 0.16027532 31.75511669 0.00269766 0.00732589 0.00228889
O 14.49783439 24.17553570 26.01580755 -0.00475566 0.00015861 -0.00023020
O 16.11691657 19.22520952 27.35975951 0.00089713 -0.00430979 -0.00563832
H -0.13982042 9.03405921 2.55937376 -0.01640665 0.02251636 -0.00990266
H 2.71785247 4.04983069 3.12914797 -0.02189364 0.02580370 -0.00146124
H 5.66696056 1.05650412 9.20651429 -0.01000298 0.02389870 -0.01703373
H 2.41397722 5.56745289 8.69077050 -0.01247016 0.01636988 0.03303167
H 5.52709760 8.30314641 0.45895749 -0.01046684 -0.00974540 0.00752345
H 3.84602015 3.54783415 5.33171628 0.00175680 0.02475476 0.00113947
H -0.29146390 1.47668160 11.48974568 0.00676075 -0.01226508 -0.00715565
H 1.27550607 6.36938031 6.88674141 0.01922127 0.00694842 0.03606605
H 3.66679671 6.90720000 10.91452732 -0.02588228 0.01394878 -0.01273328
H 3.93371740 1.88932913 7.23075629 0.00037709 -0.00421402 -0.00231931
H 1.46661167 2.84217543 1.08584342 -0.00650261 0.00398755 0.00741737
H 1.08742131 7.98738729 5.13574399 0.00819297 -0.00324090 0.01886903
H -2.02418325 5.28397970 35.28164048 -0.02712459 0.00169987 -0.00279611
H -0.01770866 0.44021688 6.03938868 -0.01752185 -0.00072417 -0.00602807
H 2.54173146 4.19788996 12.28409136 0.01372581 -0.00089252 0.02120492
H 5.23358357 9.03130564 5.65084158 -0.00789246 0.02076333 0.01265665
H 2.74613683 7.32541117 1.38862523 0.02215325 -0.01374202 -0.00597017
H -0.00985567 2.16061451 4.24827126 0.00998708 -0.00974186 -0.03187633
H 2.63601709 2.55233075 10.45328871 0.00892841 -0.03030157 -0.02963034
H 5.41385881 7.55628321 7.64175440 0.01439207 0.02513681 -0.00829124
H 4.82721499 4.88388060 9.84543471 -0.00195352 0.04314462 0.02048150
H 3.09339926 0.15395206 8.08790937 0.00090444 0.01940308 -0.00190730
H 0.62717682 4.71949370 2.16726645 -0.01235461 0.00803901 -0.00551824
H 2.17656102 9.40442737 3.66511753 0.01683504 0.00945069 -0.00701436
H 6.66860560 4.79738335 7.27706386 -0.00179139 -0.03996715 0.00307294
H 1.55184523 8.06255086 9.37055600 -0.00335814 0.00274228 -0.00375686
H 19.84248109 7.03360744 3.18699017 0.01202585 0.00289599 -0.00841987
H 4.81389473 0.81866861 1.17807565 0.00662567 -0.00053558 0.02404328
H 0.21555117 2.70757797 8.20545835 -0.00139431 -0.00817672 0.01954194
H -0.04525598 8.62330915 10.11306626 0.00830930 0.01005464 0.00773712
H 4.69365992 7.29331242 3.42092855 0.00396722 0.00794519 -0.01562463
H 3.11814675 0.47518743 1.55807519 0.01680744 -0.02617230 0.00133580
H 0.00808131 4.02895584 7.17767569 -0.01472235 0.00762000 0.01965174
H 1.51597181 9.44758263 10.35652186 -0.00818280 0.00510580 -0.02286540
H 4.74767306 5.74075735 4.43556358 0.00116854 -0.00724143 -0.03085539
H 3.73345871 1.99231247 2.05082682 -0.00136654 0.00106470 -0.01655228
H 18.45597906 9.20533389 14.66823481 -0.00579096 0.01542341 0.00971700
H 0.99241099 4.89398594 15.51032059 -0.04107575 -0.01859532 -0.01984995
H 3.93175332 0.91406233 20.75371378 -0.01498575 0.01546904 0.00529770
H 0.91527131 5.90038349 19.99794847 0.03682531 0.00989600 -0.00063404
H 3.68927349 8.29079770 12.90350087 0.01782074 0.00920679 -0.01294525
H 2.28339341 3.57217830 16.89099506 0.00278498 -0.01649117 0.01369714
H -1.93082875 1.48061753 22.90292847 -0.01455713 0.00900166 0.00941660
H -0.15538988 6.40782659 17.98878807 0.01262630 -0.01501328 0.00407664
H 2.10385338 6.67729276 22.34975046 -0.00173059 0.00630713 0.00361223
H 2.35602116 1.69243805 18.59389965 0.00606330 -0.02574183 -0.01623335
H -0.37609578 3.16354087 13.16705661 0.00309475 -0.01007030 -0.02381630
H -0.44332954 8.36735629 16.34077332 -0.00686918 -0.01066120 0.01357669
H 0.88853857 5.49859679 11.64345114 0.01629240 0.03999624 -0.02176870
H -1.67064149 0.77379218 17.61274409 0.00178637 0.01463233 0.02924632
H 0.86804561 4.26748857 23.79102345 0.01304020 -0.00695902 0.01294643
H 3.65173351 9.48383630 17.07778124 0.00393361 -0.00608433 -0.00711751
H 0.87672462 7.57968274 13.20166729 0.00906432 -0.00311086 0.03119906
H -1.66546926 2.43575043 15.96674076 0.00462598 0.02691197 0.01569020
H 1.01846222 2.64008064 21.82402780 0.00468123 -0.01624894 -0.00673634
H 3.69725987 7.75982796 19.05508546 0.01091953 -0.00347035 -0.00326990
H 3.12862882 5.04283651 21.13418624 0.00743881 0.00890662 -0.01781189
H 1.30181267 0.41645727 20.02945625 -0.01093505 0.00727886 0.00898904
H -1.42939336 4.93018039 14.28091759 0.01401670 0.00822654 0.02756370
H 0.52336420 9.93263359 15.15522827 0.00060499 0.00846344 0.00768546
H 4.65230323 3.00062079 20.12564926 -0.00815980 -0.01154040 -0.00338882
H 0.03270280 7.90696571 20.98885081 -0.01835115 -0.00700015 -0.01538359
H 16.88242787 6.99309750 15.59191461 -0.00559278 0.00361871 0.01002171
H 1.53414754 1.24432731 13.79958916 0.00853514 -0.01083239 -0.01728687
H -2.32140706 2.89667791 20.21347040 0.00942367 -0.02302365 0.01227965
H -1.46771823 8.49148178 21.80351538 0.00940832 0.01171061 -0.01743773
H 3.19226720 6.12238669 16.33553158 -0.01704549 -0.03409639 0.01683291
H 2.80312424 2.23362537 14.75403480 0.00743727 0.00942690 0.01284425
H -0.84785315 3.57972473 19.41810397 -0.02052396 -0.00512795 -0.01088245
H 0.03983332 9.44312263 22.02222647 -0.00979039 0.00560225 0.00907178
H 4.88261150 6.27060699 15.70313819 0.01498394 -0.02038500 -0.01088749
H 3.27866317 1.18416010 13.37961820 -0.00511618 0.00036942 -0.00628943
H 17.09384007 8.97854381 26.17184643 0.00976683 -0.00337370 0.00528359
H -0.69698189 3.88287201 26.80276557 -0.01366573 0.01347689 -0.02412640
H 2.52693527 0.68334982 32.89883492 0.01559351 -0.00642779 0.01512245
H -0.47721742 5.54764613 32.37001678 0.01094096 -0.01836048 0.00524733
H 2.10986012 8.23442480 24.16037337 -0.01312705 0.01122297 -0.01066739
H 0.54747140 3.48237757 28.77560980 0.00860974 0.00123469 0.02300425
H -3.32746916 1.30132100 34.73281827 -0.01721160 0.00228826 0.02380585
H -1.54334500 5.84813746 30.14348790 0.00486865 -0.00580487 -0.01544661
H 0.86036901 6.70708737 34.11425378 -0.00457318 -0.01252376 -0.00176514
H 0.83698912 1.75277498 30.57982074 -0.00800705 -0.00699164 -0.01433605
H -2.03775669 2.55720139 24.97846343 -0.01126662 0.01455676 -0.01178294
H -1.62067342 7.42067455 28.22495995 0.00453029 0.04663251 -0.03181635
H -0.51190058 5.35148061 23.73439122 -0.02803337 -0.01803485 -0.00473814
H -3.31607388 0.48681604 29.82675222 -0.00826055 -0.02358815 0.01007541
H 4.11297706 4.06054558 0.02849925 -0.00727491 0.02346304 0.02154723
H 2.11826974 9.17680336 29.24181781 -0.01188740 0.02225376 0.02214096
H -0.71083252 6.91509073 25.48475746 -0.00576153 -0.01228673 -0.02359816
H -3.49951659 2.09553380 28.07137199 -0.00873391 -0.00896653 -0.00665471
H -0.35255618 2.59574004 33.58221684 -0.02742265 -0.02255352 -0.00081504
H 2.31709261 7.49585826 31.33513176 -0.01873027 0.01673815 0.02046098
H 1.80648278 4.87946711 33.19001123 0.01101469 -0.00527957 -0.02579586
H -0.12554677 0.04242136 31.80334360 -0.00347392 0.01335961 0.03526261
H -2.92033347 4.39120832 26.09580758 -0.01407929 0.00461929 0.00125937
H -0.81471061 9.35559290 27.16524460 -0.03729976 -0.01959195 -0.02018441
H 4.23791406 2.37910389 32.26795126 0.01057034 0.01183935 -0.00861769
H -1.00940593 8.44306088 33.30868669 0.02054506 0.01073713 -0.01102555
H 16.18322360 6.88962625 27.16863865 -0.00171391 0.01399216 0.00083440
H -0.02230182 0.97488670 25.54355366 0.02995300 0.01394316 0.01509115
H -2.57401642 3.81868691 30.80976802 0.00489559 -0.00758246 -0.00618145
H -2.19416390 7.51719826 32.49984033 -0.00335315 -0.01551048 -0.01111393
H 3.04582360 5.16175772 27.97472747 0.00455569 -0.01224410 -0.02785016
H 0.93092228 2.24520546 26.20741492 -0.01371774 0.00785979 -0.00285801
H 16.42336644 3.89054883 31.15745307 0.00912205 -0.00555301 0.02232396
H -2.81970904 8.72025954 33.71694856 0.01638316 -0.01044425 -0.00617682
H 2.92333739 6.70060983 27.01783532 -0.00799168 0.00095406 0.00906904
H 1.80126326 1.18711740 25.17885975 0.00335101 -0.00613273 0.03390083
H -0.16449354 18.86838998 2.26570991 -0.00926962 -0.00975556 -0.00252155
H 2.94803592 13.86390305 2.96861488 0.01683750 0.01850636 0.01065233
H 5.48617287 10.46338860 9.17528217 0.00701515 0.00774171 0.00281432
H 2.64185197 15.18403744 8.60324423 -0.01566102 0.00351401 0.00483893
H 5.38498855 17.80698459 0.69154239 0.01609182 0.00345830 0.03413799
H 4.01005554 12.97445659 4.78028857 -0.00478248 0.02068760 -0.01209569
H -0.51980509 11.06767083 11.02318137 0.04211591 -0.01270648 -0.01508708
H 1.79637405 15.54081885 6.52908869 0.00267478 -0.00769076 0.01538512
H 4.42250738 16.81445410 10.40197126 -0.01231322 -0.00628302 0.04390800
H 3.87953618 11.73867006 6.99869688 0.00812824 0.01035864 0.00585258
H 1.15521498 12.45835923 1.01190186 0.00919377 0.02675377 -0.00910969
H 1.55355659 17.30769237 4.71924967 -0.02569676 0.02770771 -0.00113564
H -1.76100918 15.16705892 35.38641201 0.01710133 0.00474659 0.00353880
H -0.15859688 10.73711202 5.97195817 0.00770731 0.01345453 0.00363539
H 2.49460524 14.15590206 11.79237057 0.01844376 0.01702172 -0.02403834
H 5.53370680 18.78359650 5.95522348 -0.00953437 -0.00612454 -0.00094827
H 2.75859704 16.67935597 1.57706235 0.00653922 -0.00591120 -0.01247878
H -0.09390528 12.33360318 4.15042855 0.01854738 -0.01111643 0.00273351
H 2.39014792 12.48587606 10.11736321 0.03049444 0.00391553 -0.01749352
H 5.38710778 17.33725166 7.86014051 0.01556447 -0.00256686 -0.01266193
H 5.14848317 14.88179070 9.64216379 -0.01204101 -0.03214465 -0.01904763
H 2.73004033 9.75794175 8.04752821 0.04239628 -0.00507043 0.01833497
H 0.39980871 14.24943107 2.05905845 -0.00963889 -0.00729215 -0.02469656
H 2.44386196 19.11713861 3.85631568 -0.00299301 0.04149929 0.01304559
H 7.44470934 12.73248790 8.16610985 0.00845017 -0.00235285 -0.00321509
H 1.04008000 17.18903159 9.07203854 0.00896491 0.01092632 0.02049863
H 19.12435740 16.78899230 3.12836484 0.00032474 0.00471831 -0.00275771
H 4.41820420 10.74362644 1.28260463 -0.01029318 0.00454745 -0.00637194
H 0.75193988 12.61861033 8.77082295 0.02365054 0.00505768 0.01545934
H 0.10844301 18.33157495 10.04868857 -0.02167507 -0.03190635 -0.01262391
H 5.19808766 15.06322287 4.58755547 0.02790811 -0.00802310 0.00992522
H 2.81945569 11.07891523 2.23748148 -0.00199594 0.00908002 -0.00008184
H 0.01502076 13.79517357 7.55674806 0.04077250 -0.02266650 -0.00754631
H 1.86401519 18.54863127 10.05333304 -0.03127192 -0.00569885 0.00230879
H 6.72315861 15.47598847 3.75650243 -0.00288619 0.00076086 0.01595679
H 4.30811882 11.96007981 2.57569956 -0.00707121 0.01236046 -0.01310142
H -1.83258656 18.83241403 14.77079454 0.00922303 0.00183828 -0.01657612
H 1.00931629 14.15671107 14.97203464 0.01071911 -0.01837031 0.00900030
H 3.84598079 10.50035072 20.93251944 -0.01217479 0.00751738 0.01528440
H 0.73381778 15.55768742 20.28012797 0.01475368 -0.01477616 0.00754833
H 4.06926224 18.21590850 12.47056368 -0.00847340 -0.01076373 -0.00432931
H 2.28913235 12.94535865 16.59700744 -0.00605895 0.01615962 -0.01131681
H -1.89547506 11.24625278 22.96819570 -0.00175761 0.00616362 0.01280726
H -0.37971126 16.56303503 18.58391337 -0.01769163 -0.00220511 0.00765274
H 2.23909148 16.09104807 22.68681364 0.01840886 0.01297591 -0.00450372
H 2.13071470 11.94149798 18.93116295 -0.00063334 0.01575351 -0.00300087
H -0.28741734 12.77215752 12.81386215 -0.02009946 -0.00945609 0.02723572
H -0.09022380 17.88934317 16.33689685 -0.02401909 -0.00835880 -0.01449395
H 1.27118775 15.56426925 11.91198911 -0.01995068 0.00300535 -0.00598611
H -1.76794791 10.57717966 17.85492717 0.02166778 -0.01651091 -0.01899067
H 1.11562644 13.77074594 24.15819813 -0.01349482 -0.00740931 -0.02808361
H 3.70775360 19.20109192 17.58349881 0.00140735 -0.00008091 0.01470782
H 1.05434314 17.17008236 13.74710938 0.02507306 0.01341843 -0.01200298
H -1.76285159 12.14285002 15.95857840 -0.01242322 0.02784543 -0.01068172
H 0.91208104 12.37480642 22.23299821 0.01209493 0.00015460 -0.00373441
H 3.73969942 17.34155483 19.41672954 0.00204317 0.00261882 0.00148478
H 3.42196360 14.46076148 21.48758852 0.02179153 -0.00499545 -0.01221428
H 1.11810959 10.08156131 20.02400739 0.00511061 0.01417705 0.00866327
H -1.19068171 14.51722562 13.89195068 -0.01307942 -0.00223851 -0.00933586
H 0.84159831 19.54686825 15.45838703 0.01551548 -0.00988656 -0.00065257
H 4.55570692 12.78918485 20.04093251 -0.01005900 0.00938255 0.00635603
H 0.52269900 17.86287801 21.12463504 0.01413324 0.00665649 -0.00151527
H -1.69421578 15.63052237 15.50131393 -0.00094934 -0.01243028 0.00031116
H 1.96287675 10.56894921 12.88420606 0.00555657 0.00651033 -0.01160654
H 17.55345372 13.18747608 19.80144780 0.01258364 0.00642743 0.02412450
H -1.13408658 18.07537480 21.85384365 -0.01021226 -0.01766299 -0.01551082
H 4.72723440 15.83387607 15.87614807 -0.01878332 -0.01912751 0.01938270
H 1.69881721 12.11641059 13.79212887 -0.01013668 -0.00857173 0.00923890
H -1.39794515 12.74328888 19.85998637 -0.01387237 -0.00606562 0.01222804
H 0.31446688 19.09944701 22.25423873 -0.00215878 -0.01517921 -0.01706542
H 3.39837509 16.94911841 15.35188127 0.02425401 0.01923808 0.00867738
H 3.25965811 11.55839624 13.20338059 -0.00029784 -0.01050994 -0.00825171
H -3.36928983 18.68467174 26.46656530 0.01649371 0.00761223 -0.01355844
H -0.50583976 14.01799823 26.89412949 -0.03133393 0.02080747 0.01178953
H 2.25293562 10.54049284 32.39802347 -0.00793523 0.00910158 0.00800546
H -0.59143598 15.26293695 32.27135295 -0.00593465 0.02188225 -0.00531612
H 2.26651853 17.73237577 24.38164454 -0.04385142 -0.01651821 -0.00256073
H 0.70399498 13.12937406 28.59831462 0.00174483 -0.01073838 -0.01998678
H -3.72845680 10.73059387 34.55571442 0.02113358 -0.00249537 -0.00389313
H -1.86179237 15.94324723 30.13761320 -0.00886925 0.03735299 0.00446783
H 0.73706302 16.13396572 34.42897533 -0.01004489 -0.00335083 -0.00868347
H 0.83544543 11.46895388 30.43805977 -0.00229950 0.00402729 0.01107250
H -2.10314385 12.69777945 24.82421049 0.01587079 -0.02756561 -0.01109619
H -1.79852901 17.41962610 28.22665322 -0.02673916 0.00212384 0.01114590
H -0.66503324 15.05186405 23.42149611 -0.00266003 -0.02009789 0.01110489
H -3.23683670 10.51416386 29.69210019 0.01867229 -0.00771080 0.02222694
H 4.08384032 13.42294669 0.41940558 0.04256777 -0.00815578 0.03363913
H 2.18590898 18.72849893 29.24567761 0.00076079 0.00945878 0.00134957
H -0.59970538 16.66903283 25.46707715 0.00555556 0.00523102 -0.00460356
H -3.22128319 12.13250822 27.77450635 0.00090597 0.01042095 -0.00147936