2160
Time=93000.00000001 pbc="T T T" Lattice="20.61190281 0.00000000 0.00000000 0.00000000 29.01120466 0.00000000 -4.72760255 0.00000000 35.53808426" energy=-13797.27445769 virial="-63.41051993 -8.95725422 70.40359730 -8.95725422 -81.98848622 -0.63211626 70.40359730 -0.63211626 -94.22810584" stress="-0.00047598 -0.00043397 0.00339744 -0.00043397 -0.00146181 -0.00007169 0.00339744 -0.00007169 -0.00191189" Properties=species:S:1:pos:R:3:vel:R:3
O 0.71084696 8.44503546 2.27745786 -0.00326647 -0.00246058 0.00128334
O 1.96372855 3.48220702 3.57683075 0.00143908 -0.00147104 0.00024218
O 4.53267979 1.05158177 9.53937378 0.00944878 -0.00596078 0.00017761
O 3.29533981 5.72836670 8.66398566 -0.00056691 0.00210365 -0.00321769
O 1.28091929 4.58251736 9.75339782 -0.00118568 -0.00405316 -0.00283861
O -0.15793195 9.60910846 8.50170995 -0.00606493 -0.00001827 -0.00350667
O 4.07467839 4.67187935 2.15161333 -0.00220447 -0.00542751 -0.00117747
O 5.50530888 28.93853223 3.67822925 -0.00046735 0.00276472 0.00389918
O -0.64654344 8.46114259 14.36256919 0.00522091 -0.00434688 0.00226521
O 0.54187414 3.68382144 15.68181395 -0.00344789 0.00378721 0.00703424
O 3.18123223 0.73085659 21.69727623 -0.00637035 0.00572802 -0.00501868
O 2.06807942 5.68811116 19.84785076 0.00182373 0.00796693 -0.00330361
O -0.02618290 5.28563430 21.39557803 -0.00076618 0.00637823 0.00429759
O -1.87258848 9.77132887 19.68692872 0.00602107 0.00399578 -0.00803401
O 2.49155873 4.86134101 14.43939440 0.00660672 -0.00062410 0.00045504
O 3.83513192 0.02684941 15.66244083 0.00322218 0.00263628 -0.00112573
O -2.66554879 8.37562831 26.25073667 -0.00028570 -0.00015836 -0.00674760
O -1.33330108 3.48926867 26.87296685 0.00401475 -0.00662225 -0.00007952
O 1.57425968 1.13299378 32.89604863 0.00493571 0.00053397 -0.00177847
O 0.07407124 6.02421602 31.79871428 -0.00178702 -0.00921150 -0.00098694
O -2.11053359 5.20687884 32.87328669 0.00272212 0.00030162 0.00584080
O -3.42567415 9.72860334 32.02576848 -0.00189670 -0.00332750 -0.00325410
O 0.52511394 4.88126952 25.52410819 0.00267484 0.00409344 -0.00052140
O 2.30427418 28.76078247 27.04009384 0.00704597 -0.00103224 0.00174673
O 0.54085054 18.30918797 2.15620250 -0.01036452 -0.00492445 0.00045747
O 1.77459988 12.91498122 3.35023352 0.00419990 -0.01400621 0.00781285
O 4.54770143 10.95871218 9.49238966 -0.00545877 0.00012900 -0.00140392
O 3.54685684 15.41925990 7.93262509 -0.00409337 -0.00115899 -0.00328114
O 1.50042833 14.90043335 9.54739405 -0.00051310 -0.00245689 -0.00049562
O -0.34761800 19.66847185 8.01309382 0.00322005 0.00015351 -0.00429640
O 3.91925276 14.50288664 2.24806303 0.00006065 -0.00174666 -0.00161499
O 5.43567532 9.08631480 3.67723022 -0.00121144 -0.00129251 0.00301924
O -0.84506580 18.35766902 14.41686709 -0.00005166 -0.00062432 0.00013664
O 0.43454226 13.90978549 15.43166209 0.00096718 -0.00567990 -0.00236419
O 3.22119748 11.00097510 21.17887340 0.00552994 -0.00132189 0.00137097
O 1.80364394 15.93526485 20.17210230 -0.00133448 -0.00513730 -0.00106695
O -0.34088722 14.95492022 21.28962076 0.00393289 0.00485873 0.00074506
O -1.84564050 19.43887256 19.68278117 -0.00217108 0.00076775 -0.00254347
O 2.58639123 14.78090190 14.26170300 -0.00796362 0.00082571 0.00434238
O 4.28327977 9.92382811 15.48031669 -0.00085072 -0.00109720 0.00235515
O -2.08861658 18.27838643 26.13380916 0.00056504 0.00539660 -0.00034287
O -1.42620342 13.38511643 27.39331823 0.00115881 0.00055673 0.00276135
O 1.35778644 10.67515714 33.15649257 -0.00064711 -0.00223864 0.00062544
O 0.18535320 15.36750432 31.75775789 -0.00254235 0.00081647 -0.00092044
O -2.16333037 14.75251340 33.02093800 0.00137897 -0.00580013 -0.00272592
O -3.55130566 19.05626051 31.69058877 0.00279428 0.00619671 -0.00021516
O 0.89062853 14.38073452 25.96787004 0.00739758 0.00600800 -0.00099523
O 2.09595243 9.74522549 27.13049937 -0.00077934 -0.00171162 0.00395589
O 0.50677192 27.63584523 2.56155446 0.00339902 0.00139245 -0.00397469
O 1.85955186 23.37521982 3.45371989 0.00305737 -0.00221162 -0.00149634
O 4.82219210 20.73504256 9.25423061 0.00318871 0.00057912 -0.00392728
O 3.48865640 24.98159340 8.22445147 0.00197492 0.00306912 -0.00267011
O 1.20402143 24.37355863 9.55943647 0.00235006 -0.00587707 -0.00193860
O -0.59822373 28.99752956 8.27603430 -0.00228313 0.00090063 -0.00423608
O 3.88323667 24.41882095 2.18648347 -0.00396821 0.00355700 -0.00334982
O 5.31209928 19.58599895 3.45003126 -0.00671783 0.00322226 -0.00509613
O -1.01654854 27.73519696 14.69397580 -0.00643952 -0.00010188 -0.00699871
O 0.41593568 23.33209555 15.25479457 -0.00253128 -0.00026531 -0.00316981
O 2.95529365 20.32505500 21.24073809 0.00399772 -0.00619956 0.00500796
O 1.68842291 25.13857021 20.55847271 -0.00260820 -0.00030707 -0.00089552
O -0.24732465 23.92498996 21.76159149 -0.00269996 0.00352613 -0.00283456
O -1.66329982 0.42175678 20.38291340 -0.00114695 -0.00578445 -0.00128836
O 2.44281857 24.18094355 13.90134560 -0.00688961 -0.00340655 0.00204515
O 4.03300770 19.53910215 15.29877270 0.00616093 0.00310241 0.00169512
O -2.45808035 27.54117907 26.40550379 0.00031736 0.00142090 -0.00498972
O -1.53854345 23.28718758 27.37741994 -0.00184376 0.00440092 -0.00117336
O 1.41522464 20.44356376 33.04316421 0.00107719 -0.00035586 -0.00174837
O 0.32932530 25.44424739 32.28779541 0.00139414 -0.00680417 0.00921612
O -1.81686006 24.14540642 33.24661287 -0.00286238 0.00330260 -0.00191981
O -3.22560434 28.98156464 31.77841260 -0.00220485 0.00580950 -0.00647607
O 0.73977115 23.91222948 26.12872206 -0.00038707 -0.00211557 -0.00332307
O 2.33366698 19.09837703 27.09130105 -0.00116857 0.00172759 -0.00319407
O 7.60206049 8.11893983 2.66886279 0.00443087 0.00179275 -0.00120955
O 8.96899526 3.48883548 3.41966258 0.00594775 0.00630132 0.00976738
O 11.62484792 1.39895891 9.20081690 -0.00051130 0.00457213 -0.00326941
O 10.31201865 5.92528234 8.55864438 0.00203770 0.00398006 -0.00775709
O 8.10272744 4.95867000 9.50551258 -0.00456822 0.00212771 -0.00256542
O 6.53193586 9.80365130 8.20199567 -0.00552278 -0.00033978 -0.00431744
O 11.07839704 4.44913446 2.43440001 -0.00571585 -0.00287276 0.00283981
O 12.51754236 28.97449831 4.14689283 0.00225004 -0.00034624 0.00271379
O 6.04907794 8.69218626 14.16033579 0.00062126 -0.00273389 -0.00348550
O 7.22648241 3.65278923 15.30764418 -0.00287127 0.00437338 -0.00007671
O 9.82057760 0.87969992 21.57780766 -0.00387887 0.00265288 -0.00409790
O 8.91857674 5.58541580 19.81493093 -0.00377493 0.00634946 0.00178332
O 7.05104142 5.07049196 21.79556326 -0.00221390 0.00714094 -0.00560102
O 5.19550000 9.67648779 20.11794284 -0.00064825 0.00261999 0.00478318
O 9.13556771 4.77683612 13.89404634 -0.00590757 0.00015230 -0.00366060
O 10.74669045 28.92215536 15.46317708 0.00277411 0.00396425 0.00439781
O 4.18648570 9.21030801 25.59569524 -0.00433653 -0.00234441 -0.00485429
O 5.49595401 3.96355005 27.22175044 -0.00296937 -0.00083146 -0.00676557
O 8.18755357 1.10786756 32.87303683 -0.00512572 -0.00624813 -0.00330411
O 6.89075266 5.86907456 32.16360162 0.00753769 -0.00405248 -0.00187679
O 4.76533883 4.78948179 33.05303140 0.00296374 0.00175126 -0.00023259
O 3.35495816 9.65469325 31.85186152 0.00402262 0.00100881 -0.00463251
O 7.60877337 4.61954300 25.91595617 0.00481994 0.00198081 0.00881130
O 9.19125550 28.70250728 27.09051412 0.00334563 0.00309957 0.00283132
O 7.47633785 18.44474216 2.43856445 -0.00154920 0.00613910 0.00084193
O 8.90087037 13.16703606 3.20023504 0.00564720 -0.00170086 0.00013095
O 11.23544759 10.84699317 9.58972741 -0.00073146 -0.00054439 0.00092427
O 10.34511996 15.60287453 8.12309800 0.00136137 0.00089475 0.00453347
O 8.28523891 14.49391331 9.50446871 -0.00488983 -0.00287173 -0.00358890
O 6.60984763 19.38281153 8.08057866 -0.00063985 0.00503890 -0.00196766
O 10.76636056 14.52126664 2.28550744 -0.00072462 0.00102326 -0.00263114
O 12.30666502 9.86887064 3.69351417 -0.00013347 -0.00191009 -0.00331779
O 6.07119509 18.46457113 14.09238375 -0.00200167 0.00208369 -0.00467906
O 7.41090356 13.46349735 15.38334524 0.00349596 0.00104303 0.00234555
O 9.92356291 10.68009675 21.60742251 0.00562509 0.00631365 -0.00756852
O 8.87299898 15.50506929 20.14051232 -0.00618264 -0.00278965 0.00270938
O 7.01214061 14.46130577 21.54149024 -0.00027559 0.00046612 -0.00266333
O 5.04557735 19.48173814 20.14046311 0.00002366 0.00317698 -0.00388220
O 9.38149272 14.48057477 14.12697064 0.00521653 -0.00342451 -0.00402876
O 10.83002459 9.66975325 15.49419976 -0.00132813 0.00858753 0.00338116
O 4.58083487 18.33360659 25.90703726 0.00109693 -0.00361261 0.00216156
O 5.48501229 13.53676667 27.50857874 0.00242726 -0.00264507 0.00580240
O 8.36418424 10.94709670 33.13655671 0.00146214 -0.00072246 0.00154046
O 7.09541686 15.74779433 32.07712658 0.00379259 -0.00388546 -0.00115372
O 4.73507418 14.86226116 33.14316556 -0.00277735 -0.00222390 0.00044773
O 3.49762240 19.30663129 31.80765722 -0.00171141 -0.00160180 0.00097764
O 7.59790417 14.80775188 25.97399892 -0.00155625 -0.00020786 0.00340185
O 9.22083098 9.29283416 27.27833626 -0.00903044 -0.00350895 0.00357352
O 7.76226373 28.10530474 2.48530670 -0.00170531 0.00139360 0.00292555
O 8.82636093 23.15840002 3.38536166 -0.00513555 -0.00152897 -0.00592126
O 11.42843900 20.67061864 9.19168745 0.00051226 0.00021697 -0.00490237
O 10.22352626 25.26056091 8.46005799 -0.00254681 -0.00115925 -0.00468727
O 8.11650337 24.21387011 9.63095814 -0.00287038 0.00563302 0.00095456
O 6.63707194 0.03043934 8.31166565 0.00613352 -0.00016799 0.00155702
O 10.76561035 24.55690556 1.99956328 0.00067188 0.00292985 -0.00743387
O 12.27897380 19.00722596 3.47125211 -0.00043203 0.00827925 0.00171531
O 5.77093208 27.78664437 14.25023222 0.00314595 0.00509804 0.00085487
O 7.41358876 23.10118227 15.25156367 0.00014120 -0.00040245 0.00175169
O 9.75780359 20.04331763 21.52499751 -0.00648845 -0.00266004 0.00384809
O 8.72187257 24.87713394 19.68712711 -0.00574467 0.00088549 0.00276053
O 6.65010463 24.10355982 21.34399986 0.00122974 0.00124782 0.00231736
O 5.20860829 0.38746878 20.18518173 0.00436438 0.00066601 0.00783760
O 9.54562955 24.26720002 14.17156356 0.00180946 0.00577684 0.00720364
O 10.80999620 19.13944281 15.14848287 0.00122792 -0.00015618 0.00514766
O 4.45924750 27.97496562 25.95376392 0.00221230 0.00559804 0.00165679
O 5.56446859 22.91927338 27.00560588 0.00858077 0.00464309 0.00305240
O 8.27667241 20.41252681 33.37165819 0.00356032 0.00189703 -0.00227747
O 7.16363762 25.34017626 31.99905377 -0.00244394 -0.00090713 -0.01195251
O 5.14548048 24.52152331 33.37731009 0.00756917 0.00342517 -0.00261583
O 3.47423214 28.79975019 31.64106923 -0.00321862 0.00051582 -0.00791370
O 7.83752270 24.09797678 25.91059690 -0.00291238 -0.00347551 0.00339891
O 9.43120554 19.18086857 27.42385217 -0.00197014 -0.00049314 -0.00418087
O 14.42409199 8.13461879 2.97034374 -0.00342606 -0.00265299 -0.00121546
O 15.80585416 4.07496630 3.86799300 -0.00963113 0.00318541 -0.00427731
O 18.04901361 1.05196434 9.60450175 0.00332028 0.00494941 0.00145770
O 17.11144196 5.66260838 8.27588432 0.00043093 -0.00238953 0.00060466
O 15.21270391 5.19879711 9.77943441 -0.00156818 -0.00856750 0.00005722
O 13.57459849 9.90437588 8.57801891 -0.00424721 0.00522552 0.00187289
O 17.85331694 4.41894920 2.34574280 -0.00626777 0.00145532 0.00579537
O 19.40459524 28.93368064 3.91428640 0.00098787 0.00264603 0.00463433
O 12.85831590 8.69933580 14.39809305 0.00338520 -0.00615706 0.00137131
O 14.02391488 3.74041479 15.24072106 -0.00614291 -0.00306055 0.00026264
O 16.54958927 0.81701995 21.23209527 0.00045863 0.00335701 0.00475775
O 15.52120463 5.87446502 20.30514695 -0.00423945 0.00226993 0.00115921
O 13.60594188 4.70208777 21.43291403 0.00389650 0.00033825 0.00406075
O 12.14449840 9.88385391 20.22224289 -0.00721932 0.00487531 0.00268672
O 16.31798896 4.95094944 14.46881224 -0.00266373 0.00001979 0.00083606
O 17.71796597 28.98419860 15.75714081 0.00179043 0.00474600 -0.00041839
O 11.32255593 8.79915624 25.91395271 0.00311802 -0.00650496 -0.00340923
O 12.49934611 3.93184808 27.19692714 0.00864677 -0.00009656 0.00066924
O 15.18269161 0.97210916 32.96474399 -0.00495945 -0.00393781 0.00418105
O 13.85496076 5.71710533 31.68426553 0.00227378 0.00051801 -0.00023309
O 11.67518797 5.44863940 32.83599586 0.00040179 0.00294842 0.00270564
O 10.33517662 10.04816783 31.81336389 -0.00119736 -0.00142041 -0.00533713
O 14.60561603 4.79019832 25.90438132 0.00072525 -0.00590886 0.00055858
O 16.18601842 28.81201921 27.39099300 0.00402930 -0.00092070 0.00643870
O 14.56668042 18.06262174 2.67434855 -0.00142766 -0.00362655 -0.00292071
O 15.69044741 13.24496506 3.63401557 -0.00079178 -0.00890073 -0.00483032
O 18.24484666 10.55673801 9.70243122 -0.00068237 0.00084813 0.00174974
O 17.12496271 15.19540047 8.21480243 0.00566653 0.00391908 -0.00212846
O 15.00724295 14.27349060 9.58123719 -0.00449304 0.00324761 -0.00572835
O 13.46482676 19.26592407 8.14567661 0.00176730 -0.00478442 -0.00210449
O 17.81357729 14.49717240 2.40041288 0.00250549 -0.00260801 0.00120760
O 19.41127271 9.64365177 3.73701921 -0.00453712 -0.00164776 -0.00078780
O 13.19724428 18.39751158 13.97376943 0.00056996 0.00618572 -0.00501112
O 14.14642510 13.38314228 15.27854625 -0.00113613 0.00391388 0.00494693
O 16.87981589 10.95985662 20.96706368 -0.00064675 0.00022894 0.00353100
O 15.82048874 15.16985004 20.07457160 0.00125167 0.00126265 0.00023859
O 13.44688683 14.91258877 21.25374177 -0.00338934 0.00006646 0.00303364
O 11.92961494 19.51002664 20.06542922 -0.00246036 -0.00325935 0.00197946
O 16.34041297 14.52893713 14.41203921 0.00037366 -0.00250380 -0.00493896
O 18.01340782 9.68256497 15.66205078 -0.00020482 -0.00129503 0.00105846
O 11.49526105 18.59282150 25.79448803 0.00390871 -0.00448055 0.00445628
O 12.63075415 13.62181047 27.01118737 0.00606599 0.00643739 -0.00279925
O 15.04355392 10.79939272 33.04490609 0.00733283 0.00547646 0.00121373
O 13.84089386 15.26797493 31.99501161 -0.00079866 0.00276104 0.00238186
O 11.79424484 14.51939494 33.29588116 0.00353905 -0.00305693 0.00669661
O 10.11455457 19.62903301 31.77506980 0.00037416 0.00460047 0.00095634
O 14.51217879 14.48229361 25.71216762 0.00475128 -0.00086112 0.00177755
O 16.00890463 9.78463117 27.38261398 -0.00766985 -0.00192572 -0.00398383
O 14.41816942 27.87373288 2.66484509 0.00344139 0.00259601 -0.00101127
O 15.57439109 23.00162440 3.34705547 0.00019932 -0.01192748 -0.00045850
O 18.31496743 20.56020197 9.22408999 0.00277485 -0.00088496 -0.00275348
O 17.02972534 25.33991796 8.58879212 -0.00475875 -0.00893569 -0.00102363
O 14.79615209 24.08418438 9.56704316 0.00424504 0.00346516 0.00034124
O 13.47173140 28.85978064 8.26080018 -0.00060964 -0.00309625 -0.00712488
O 17.72387644 23.99317828 2.19728383 0.00070977 -0.00229523 0.00457306
O 19.34936055 19.16173354 3.72598200 -0.00223131 0.00137628 0.00376607
O 12.88251203 28.05502208 14.19766679 0.00031732 -0.00212062 0.00199614
O 14.37310914 23.08626295 15.39147624 -0.00156519 0.00160227 -0.00162626
O 16.85634191 20.59488508 21.05858147 0.00091303 -0.00005864 -0.00095368
O 15.61189238 25.17464780 20.23284680 0.00417734 -0.00370660 -0.00198151
O 13.36361018 24.57263247 21.20060735 -0.00563802 -0.00327570 0.00257602
O 11.95487407 0.12346112 19.88053332 -0.00036991 -0.00232582 -0.00408622
O 16.01027352 24.42842713 13.81440022 -0.00558577 -0.00395379 0.00338464
O 17.70016893 19.20161651 15.57837203 -0.00007499 -0.00376303 -0.00244743
O 11.19530064 28.04544227 25.68892997 0.00343723 0.00262002 0.00469637
O 12.36404180 23.76016430 27.46619375 -0.00217785 0.00182226 -0.00311007
O 15.23789710 20.28743899 32.84721211 0.00365469 -0.00490640 0.00327872
O 13.84745252 25.49291219 32.22152798 0.00264560 -0.00525754 0.00107308
O 11.96776064 24.21054763 33.53679350 -0.00227026 -0.00324048 -0.00496092
O 10.20291472 28.93730895 31.75981159 0.00224244 -0.00524023 -0.00334148
O 14.34527346 24.34365603 25.91335982 0.00552260 0.00358700 0.00554296
O 16.27373586 18.90142710 27.27909910 0.00110702 0.00247914 -0.00219848
H -0.08544634 8.84604305 2.61526885 -0.00187881 -0.01270476 0.00900614
H 2.93549785 3.67873734 3.43299291 -0.00494713 -0.01022854 -0.00012976
H 5.24627159 0.36446622 9.42050786 -0.02713224 0.01581501 -0.00378698
H 2.48217139 5.19355092 8.67459905 0.01543665 0.01817396 -0.00026155
H 5.55462067 8.14371295 0.93509115 0.00346961 -0.00555374 -0.00668085
H 3.70924008 3.29623705 5.63915558 0.00236583 -0.00728812 -0.02490339
H -0.68599972 1.11190048 11.28106213 -0.00722901 0.00848849 0.01134542
H 1.22088229 6.38450481 7.03998763 0.01444667 0.02194346 0.00393553
H 4.06438975 6.73150018 10.45626252 -0.00343016 -0.01023679 -0.00252296
H 3.63436207 1.66945313 7.43691179 -0.01462344 -0.00352607 -0.02659623
H 1.41585250 2.96908107 0.97557250 0.00467016 -0.01250671 0.02337079
H 1.36786845 7.66943544 4.97388413 0.00430582 0.00827057 -0.00743013
H -2.22832623 5.28055187 35.23545137 0.00583217 0.00812279 -0.00458555
H -0.15059704 0.40573806 6.15156792 0.04759967 0.02289028 0.00244274
H 2.53943242 4.20337994 12.12147507 0.01178638 0.00279040 -0.00363351
H 5.47271047 8.58932788 5.91013578 0.00766067 0.01177240 -0.01071110
H 2.60316830 6.78741563 1.57543704 -0.03387958 0.00697825 -0.01425353
H -0.15442826 2.00921095 4.23498932 0.00335336 -0.00163348 0.00005554
H 2.44122832 2.57893683 10.34242336 0.00468089 0.02396816 0.01843555
H 5.34645139 7.16079015 7.71022671 0.00278128 -0.00985983 0.01203041
H 4.94483550 4.78345494 9.65273479 -0.03738436 0.00476111 -0.00407403
H 2.64745734 28.77290986 8.27440668 -0.01128456 -0.02207824 -0.02262271
H 0.39994666 4.70298139 2.17823306 -0.00113046 0.01349515 0.04528951
H 2.31509009 9.17418573 3.93520727 0.00421409 -0.00977950 -0.02470882
H 5.76223609 2.95724822 8.40430659 -0.00310142 -0.00128148 -0.00758019
H 2.53240806 8.52847070 10.03590435 0.02702167 0.00238723 0.00874056
H -0.25017802 6.22972604 3.66082534 0.01436567 0.02395404 -0.00019973
H 4.66473642 2.22838932 2.77308548 -0.00706973 0.00296470 0.00251591
H 0.19970096 4.11047527 7.23665265 0.00912688 0.00294891 -0.00020405
H 1.47878117 7.35663194 9.26985917 -0.01814739 0.00545146 -0.00061613
H 5.47851700 6.67389061 3.66101776 -0.00024435 -0.02419626 0.02281348
H 4.25029595 1.14170930 1.38035237 -0.01081579 -0.01482505 -0.01375913
H 19.14140977 3.72267163 8.17975025 -0.02359632 0.03068989 0.00518255
H 0.74617382 8.32095884 10.59742080 0.00019702 0.01986999 0.00706495
H 4.45439225 5.54489491 4.41389659 -0.01641743 -0.00042303 -0.00061320
H 2.97771714 1.57071624 2.74865705 -0.00878652 -0.03812910 0.01523248
H -1.39023227 8.92244575 14.71918657 0.00558851 -0.01055510 0.00807529
H 1.36268993 4.13075914 15.30902420 0.00721720 0.03372548 0.03323688
H 4.02830000 0.70532282 21.26489693 -0.01449223 0.01889490 0.01105698
H 1.25873759 5.58572808 20.42972137 -0.01324150 -0.02565754 0.00143294
H 4.08220727 8.20032202 12.62392530 -0.00569844 0.01737926 0.00751403
H 2.56357327 3.32550075 17.58283156 -0.02761861 -0.00132573 0.01324313
H -2.14830164 1.17448754 22.79317762 0.02250197 -0.01257199 -0.00981794
H 0.07614222 6.22034953 18.34980608 -0.00028455 -0.00146611 0.00059317
H 2.63430848 6.59933192 22.24248760 -0.00682996 0.00493016 0.01524489
H 2.48378838 1.81413145 19.45543500 0.01838959 0.00637852 0.00866897
H -0.49734552 2.50910966 13.37966118 -0.00991805 -0.03082785 0.00183892
H 0.05405551 7.97900107 16.47074033 -0.00725689 0.00593080 0.00305492
H 1.18392625 5.33810976 11.63969532 -0.01234353 0.00595459 -0.00552367
H -1.45341106 0.49919745 18.24489685 0.01218474 0.01833546 -0.01261744
H 1.15767647 4.45506834 23.37029081 0.02052436 0.00213987 0.02934124
H 3.93794375 9.25665300 17.74653390 -0.01410318 0.01223598 0.00828364
H 1.37896148 7.09051636 13.36186388 -0.00995745 0.01872113 0.02776222
H -1.46444193 1.98868117 16.33395914 -0.00988797 -0.02022284 0.01405481
H 0.95412089 2.45642309 22.09125955 -0.00920576 0.02897562 0.01027698
H 3.94384521 7.41312100 19.53730536 0.02278481 -0.01346833 0.00919433
H 3.84320627 4.81884441 21.57420216 -0.01619074 -0.00026750 -0.01103061
H 1.49824721 28.86075738 20.42400670 0.01551359 -0.00809326 0.02196812
H -1.23480974 4.86013492 14.04420920 0.00713612 -0.00140258 0.01166451
H 1.08537308 9.99681339 15.82444050 -0.00341207 0.01470237 0.01044171
H 6.26021615 2.57832587 20.88395678 -0.00743515 0.02681177 0.01533064
H -1.12110000 8.65625179 21.99743563 0.00203376 -0.00075357 0.00840111
H 18.04501120 6.97087788 15.50459791 0.00352038 0.00892812 -0.01364708
H 1.16530625 0.48156177 13.94183049 0.00898716 -0.02370616 0.00942837
H -2.06842015 4.63748658 19.17505569 -0.01781160 0.00651869 -0.00987374
H 0.61111267 8.63809658 21.44786632 -0.00926555 -0.02263338 0.01770437
H 5.02150151 6.64360523 15.50641872 0.02456052 -0.00562126 0.00563912
H 1.90515015 1.87969683 14.62928844 -0.00608935 0.00107767 0.00592665
H -1.84537112 3.06319894 20.01716991 -0.01917315 -0.00042330 0.02520937
H -0.62047575 7.61696078 20.71805997 0.00272363 -0.02154900 -0.01915059
H 3.35665702 7.19715131 15.17722272 0.00542713 -0.01806419 0.00438494
H 2.79782608 0.93575150 13.43682974 0.00297997 0.00607206 -0.02912389
H 17.07468924 8.90536297 26.42148438 -0.01821998 0.01719859 -0.02154842
H -0.45161918 3.89198729 26.69885960 -0.02607580 -0.00902341 -0.01265991
H 2.34358554 0.59878091 32.62226307 0.00106657 0.00970498 0.01240627
H -0.76968689 5.62467244 31.97012068 0.00733435 -0.00703005 -0.03204189
H 2.38381609 8.41343949 23.82446493 0.00397462 -0.01109064 0.01753954
H 0.70582918 3.56750568 28.43946859 -0.02082080 0.00321860 -0.00216083
H -3.43759930 1.19457640 34.64359572 -0.01805353 0.00765185 0.00360314
H -1.81561236 6.24378714 30.04071856 -0.00522846 -0.01751371 0.00849562
H 0.63688747 6.77314352 34.48558277 0.02157720 -0.01078283 -0.00714315
H 0.85408015 2.20514270 30.61529193 -0.03467847 -0.00075493 -0.00327665
H -1.91376044 2.80559554 24.66325714 -0.00470610 0.02940165 -0.00386923
H -1.94431841 8.00089575 28.24780864 0.00164615 -0.00256260 0.00799673
H -0.43257850 5.43609837 23.59018735 0.00320962 0.00084911 0.00326741
H -3.03451072 0.63609286 29.92756637 -0.02673742 -0.00751271 0.00869959
H 4.10531601 3.97768525 0.24207855 0.01069647 -0.00748482 -0.02438044
H 1.97787041 9.29715321 29.19444061 -0.00797593 -0.00815401 0.01774032
H -0.44000747 6.98889971 25.54659935 -0.02484675 0.01363378 -0.01179320
H -3.27202567 2.35216171 28.06311334 -0.00020872 0.02562998 -0.00968079
H -0.57359264 2.62273422 33.76501891 0.01602915 -0.02014838 -0.00515897
H 2.09581581 7.54758385 30.99544728 0.01469608 0.02266749 -0.03942246
H 1.57719911 4.97376699 33.17433275 -0.02583579 -0.00223923 0.00041861
H -0.06789781 0.33007521 31.91869360 0.02438377 -0.00518778 -0.00205648
H -2.78966128 4.54654773 25.81440683 0.00469534 -0.00005772 -0.00242726
H -0.90093165 9.58098016 26.87217119 0.02297106 0.02322876 0.02671924
H 2.11500949 3.80243597 31.32839952 -0.00275050 -0.00275388 -0.01204620
H -3.04143673 8.81274243 34.28174366 -0.00478384 -0.02881955 -0.00969784
H 16.14075179 6.94511886 27.01890229 0.02767584 -0.01572991 0.01803655
H -0.41787522 1.04008811 25.84820047 0.02358269 0.03164890 -0.00153502
H -2.42424822 3.40237907 31.11594960 0.01752980 -0.00812945 -0.02393377
H -1.12650611 8.81371164 34.10455076 -0.00838667 -0.00470904 -0.00816232
H 2.85525396 6.48919270 27.16130029 0.00306570 -0.01065562 0.00950149
H 1.28839026 1.74394914 25.49103030 -0.02431100 -0.00307382 0.00662755
H -4.14207566 3.40578576 31.25468848 -0.00528588 -0.02581389 0.01096341
H -2.16591779 7.53463870 33.39922054 -0.00780762 -0.01285668 -0.00293118
H 1.42820713 7.25624542 26.66708416 -0.01416362 -0.01932350 0.00214815
H 0.67758505 0.26520063 24.73133164 0.00113577 -0.00384215 0.00866002
H -0.26134159 18.60844559 2.60261611 0.00415751 0.01126892 -0.00454288
H 2.62017105 13.36130017 3.10523059 -0.00860464 0.01647898 -0.00849859
H 5.38915610 10.49888316 9.39644350 -0.00007803 -0.02328853 -0.00357571
H 2.70454510 15.23639190 8.45617655 0.01961265 -0.00364957 0.00611959
H 5.43165913 17.68598893 1.13290617 0.00673649 0.00622904 0.02890616
H 3.42667858 13.21969966 5.28749577 -0.02539246 -0.01054750 0.00065385
H -0.38484973 10.85806761 11.21738576 -0.01163266 0.02066092 0.00173106
H 1.34741136 15.88637285 6.54333762 0.00472591 0.00719684 -0.01111203
H 4.27733804 16.39238800 10.58067637 0.01444085 0.01587278 0.00739922
H 3.69452379 11.64262762 7.17044671 -0.00232840 -0.00281563 -0.00948663
H 1.21387652 12.49044751 1.18517915 0.00537091 0.00949694 -0.00082330
H 1.26965328 17.61036740 4.52637786 0.01634147 -0.00666088 -0.01544629
H -2.25140090 15.04967901 35.37239037 -0.00915880 0.02418744 0.00144926
H -0.08800557 9.89571964 6.11400669 -0.02324595 0.03311399 0.00407463
H 2.59879695 14.16745184 12.17135637 -0.01512504 -0.02418489 -0.02837453
H 5.31464402 18.69758911 5.44856351 -0.01291159 -0.00510579 -0.00529807
H 2.43996018 16.62778881 1.66956761 0.02287507 -0.02023364 -0.02357759
H -0.11766955 11.36677972 4.12819537 -0.00207957 0.00454499 -0.00450966
H 2.47276820 12.47818259 10.44457854 0.01273800 0.01446673 -0.00467795
H 5.60205965 16.71968352 6.94327156 0.00985722 0.01874607 -0.00609890
H 5.14061102 14.70909722 9.51827371 0.01918398 0.00169691 0.00164849
H 2.92373022 9.95519963 8.34574068 0.00837599 0.01451859 -0.00547448
H 0.24156164 14.45289178 2.32728483 -0.00025534 -0.01485456 -0.00943369
H 2.17468543 19.32497782 3.62598480 0.03012439 0.00054457 0.01116467
H 6.81586715 12.15263898 8.63563680 -0.00984028 -0.00038449 0.00246105
H 2.10623282 18.34372683 9.54625367 0.01842104 0.00262134 0.01256669
H -0.40298911 14.67910157 4.46534422 -0.00719892 -0.00630789 0.00424945
H 3.70546481 11.51688751 2.64124468 0.00892851 0.00203265 -0.01064976
H 0.34166893 13.54232908 7.19445579 -0.00229832 0.01100374 0.01105713
H 0.87607099 17.22192089 9.02662091 -0.00804897 -0.01104714 0.02554441
H 6.55730971 15.24867461 4.14259174 0.00038432 0.02183583 -0.00422502
H 4.97246415 10.55332038 1.76247487 0.00738933 0.01005531 -0.04475433
H -1.00938477 13.10903500 8.19003794 -0.03296987 0.01194831 0.02001202
H 0.40507998 18.49181315 10.17308866 0.05125757 -0.02731833 0.03231353
H 5.17972461 16.37217604 3.96071327 0.00151848 -0.01371938 0.00284314
H 3.25515001 10.10528619 1.60191345 -0.00561104 0.01545530 0.01728031
H -1.72548276 18.66495110 14.67345903 0.01236392 -0.00205141 0.02366799
H 1.38067862 14.19228917 15.05978812 -0.01973544 -0.02105986 -0.00498431
H 4.03685501 10.48684328 21.04336394 -0.01223307 -0.01035267 0.02161314
H 0.94592357 15.54509903 20.38891175 0.00472857 0.02472397 -0.00706469
H 4.19643830 18.07467504 12.42327920 0.00073509 -0.00278851 0.03613656
H 2.49506174 13.29075761 17.06835402 0.00154234 -0.00053041 -0.01476400
H -1.72998322 11.33742678 22.51538635 0.01449629 -0.02116941 -0.02409968
H -0.02176294 16.15599573 18.37080122 -0.00188473 -0.02442043 0.02524505
H 2.66273530 16.25196245 22.39452959 -0.00738917 -0.01516422 -0.02115491
H 2.34327262 11.78866150 18.99418878 -0.01093435 0.01160365 0.00601014
H -0.16018870 12.44934114 13.05126581 0.02125192 0.00585943 -0.02789654
H -0.06889127 17.91421384 16.54315310 0.01163958 0.00785164 0.00308567
H 1.51131159 15.68786954 11.68956855 -0.00442179 0.03392351 -0.04109835
H -1.61371031 10.65596573 17.81935902 -0.00214277 -0.01647467 0.00319612
H 1.33007591 14.26781309 23.78052566 -0.01804955 -0.00938610 -0.00915954
H 3.94230549 18.92818828 17.58621208 -0.01255011 0.00885223 0.02961411
H 1.34281357 16.92433161 13.64539178 -0.01852726 -0.00072094 0.00021831
H -1.56766263 12.32298096 15.91663395 0.00925756 0.02280935 0.02246794
H 1.10629850 12.56503147 21.84310061 -0.02149908 0.00766075 0.00450545
H 3.93415352 17.28272491 19.35833368 0.01019466 -0.01938443 -0.00475170
H 3.86960411 14.76332513 21.42026661 -0.00239551 0.00886748 0.01234940
H 1.38099352 10.08774559 19.96289457 -0.00871629 -0.00064418 0.03285330
H -1.08720505 14.68579877 13.86309554 -0.01535654 0.00093149 -0.01895331
H 0.94593750 19.44597758 15.50414244 -0.00593570 0.00814977 0.02136043
H 4.89489715 12.78039661 20.07763627 -0.00152304 0.01408216 -0.00055897
H -0.40032938 17.08128030 20.77228032 -0.00417929 0.02625561 0.01340823
H 17.85498747 15.38732254 16.53337638 -0.00640703 -0.02244237 -0.00867640
H 3.01154464 11.84462214 14.25654436 -0.00485101 -0.00104451 0.02518259
H -1.58349269 14.23547927 18.92431628 0.00253279 -0.01810578 0.01538753
H -1.11213101 18.25827760 21.96937565 0.01057745 -0.00757493 -0.00881069
H 3.06880071 16.06731929 16.28735666 0.01950309 -0.01819131 0.02131694
H 3.19114219 10.47718608 13.18026489 -0.00686514 0.00151202 -0.00820443
H 17.79710821 13.31764524 19.91411877 0.00195890 -0.02379508 0.00458954
H 0.71323077 18.38478162 21.57893643 0.01566255 -0.02335558 0.00916712
H 4.83124606 15.67266567 16.20407260 0.01303319 -0.00277750 0.01277180
H 1.66216783 10.66530752 13.79025060 0.03441979 0.01456788 -0.01819909
H -2.96987377 18.64623558 26.47964500 0.01803595 -0.02567887 0.01114008
H -0.58896103 13.85182393 27.07417581 0.00763555 -0.00690596 0.01144961
H 2.22241364 10.30327224 32.90213903 0.01808455 -0.00835179 -0.00737644
H -0.69774378 15.21067317 32.19310083 -0.00038447 -0.02238192 0.01862945
H 2.62075562 17.99111318 24.20867442 -0.01239573 0.00960775 0.00537049
H 0.67230807 12.94859643 28.96416437 0.00548802 0.00340932 -0.00940870
H -3.58663758 11.06238996 34.79723563 0.00511059 -0.02559750 0.01027867
H -1.66060332 15.69242521 29.89742790 0.02292058 0.00393768 -0.00341522
H 0.67061847 16.27303667 34.51836076 0.01282632 0.00567846 0.03176551
H 0.67391598 11.45515170 30.96219771 -0.02026138 -0.01279299 -0.00184638
H -1.75250003 12.81029187 24.65158938 -0.01561675 0.01276615 0.01973875
H -1.72546156 17.58674815 28.19926529 0.01939446 0.01672145 -0.02972495
H -0.50035683 15.05529374 23.39369537 0.03197667 0.00532042 0.01648764
H -3.30641315 10.12664398 29.98132686 -0.03147344 0.00186558 0.01570447
H 3.88856285 13.67574026 0.27036838 0.01797315 -0.00401945 0.01437021
H 1.94342315 19.06675023 29.84885709 -0.01284533 0.00313616 0.00112487
H -0.22488116 16.71890061 25.45544055 0.02989275 0.00284994 0.00741742
H -3.26815200 11.78502213 28.01592541 0.00605267 -0.00364582 -0.02120797
H -0.87395942 12.15249918 34.10576222 0.02408348 -0.00055630 0.00924518