2160
Time=79000.00000008 pbc="T T T" Lattice="20.60423137 0.00000000 0.00000000 0.00000000 29.15750104 0.00000000 -4.72125140 0.00000000 35.44266337" energy=-13794.32073301 virial="-72.14859951 7.45564020 47.66220765 7.45564020 -72.65359195 -24.37045180 47.66220765 -24.37045180 -55.09802074" stress="-0.00084383 0.00032466 0.00220950 0.00032466 -0.00100575 -0.00105808 0.00220950 -0.00105808 -0.00018740" Properties=species:S:1:pos:R:3:vel:R:3
O 0.57713110 8.37544154 2.52337051 0.00362588 0.00088456 0.00583216
O 1.87824666 3.69402062 3.51576389 0.00385430 0.00791907 -0.00212057
O 4.28712681 0.77134511 9.48743128 0.00085591 0.00476029 0.00363000
O 3.28790102 5.62243703 8.38622355 -0.00309355 0.00191520 -0.00016033
O 1.39757936 4.81595549 9.68610366 -0.00347653 -0.00224249 0.00091254
O -0.21732555 9.62767355 8.50279759 0.00125230 0.00253743 0.00220201
O 4.05282488 4.77099601 2.36870521 0.00727996 0.00126463 -0.00232635
O 5.20401573 28.86339428 3.54833619 0.00080752 0.01052220 0.00416453
O -0.77286860 8.77671860 14.11940523 -0.00543317 0.00733448 -0.00370568
O -0.00028731 3.98298317 15.57315418 0.00317313 0.00459663 -0.00090358
O 3.08295344 1.33547748 20.89320289 -0.00290172 0.00360248 -0.00236087
O 1.63697732 6.15342623 20.00942415 0.00714757 0.00641949 0.00136237
O -0.29038812 5.12640436 21.22958337 -0.00620588 -0.00110979 -0.00593369
O -1.96515327 9.77629122 19.80458437 -0.00411841 -0.00024338 0.00278079
O 2.10347470 4.53187456 14.19200054 0.00195398 0.00539309 0.00048619
O 4.14739610 0.15650279 15.76054999 0.00386552 -0.00085665 0.00353683
O -2.34709396 8.73174259 25.91088219 0.00379834 -0.00025548 -0.00641847
O -1.33774400 3.80557749 26.86718031 0.00394127 -0.00003974 -0.00564363
O 1.24432603 1.13786615 32.93762736 0.00103329 -0.00184263 -0.00224174
O 0.23813265 5.74086727 31.77942359 0.00231181 -0.00298861 0.00658808
O -1.99916747 5.13522951 32.90880629 0.00320588 -0.00280201 -0.00053690
O -3.48182018 9.86637524 31.82392859 0.00541210 -0.00234692 0.00536681
O 0.87067982 4.79160989 25.59781185 -0.00411724 0.00071233 -0.00013155
O 2.54367357 28.79602918 27.12223310 -0.00406745 0.00638085 -0.00048388
O 0.58351809 18.07579442 2.53342504 -0.00143486 0.00699889 -0.00422022
O 1.95601387 13.27813429 3.69508229 0.00020769 0.00401078 0.00307073
O 4.58867552 11.09673523 9.40977340 0.00250948 0.00103181 0.00258891
O 3.53483880 15.51658255 8.17915561 0.00332126 0.00264233 -0.00712842
O 1.40325846 14.86450407 9.76401547 -0.00084222 0.00007546 0.00162795
O -0.20891147 19.42677017 8.38545579 0.00206939 -0.00420923 0.00463103
O 3.96276628 14.25756816 2.60936093 0.00181197 -0.00047234 0.00302202
O 5.45588208 9.05265974 3.41238979 -0.00122585 -0.00041104 -0.00277480
O -0.72670031 18.41170347 14.51803251 -0.00556954 -0.00103039 0.00661824
O 0.23887870 13.76189545 15.32405245 0.00128196 -0.00174614 0.00380219
O 2.62169635 10.70794058 21.07341572 -0.00811890 -0.00439589 0.00315362
O 1.96096706 15.33220171 19.84226803 -0.00041911 -0.00072487 -0.00218714
O -0.15387378 14.67740508 21.28526240 -0.00056673 -0.00307928 -0.00177547
O -1.89833431 19.48462320 20.09385952 0.00626794 -0.00339808 0.00359482
O 2.40266582 14.54260174 14.17369780 0.00298664 0.00137708 -0.00047609
O 3.97946187 9.98401611 15.31326733 -0.00442369 0.00106369 -0.00184807
O -2.17308292 18.33815899 26.01178478 0.00316785 0.00241658 -0.00284880
O -1.40508253 13.80935051 27.28977385 0.00043037 -0.00021254 0.00362341
O 1.28937046 10.79494095 32.93479518 -0.00054796 0.00195896 -0.00049903
O 0.12462732 15.64930075 31.98102062 -0.00337845 -0.00195277 0.00736762
O -1.64291526 14.37559705 33.30025841 0.00808279 -0.00328929 -0.00417976
O -3.17726301 19.88262687 32.01721955 -0.00214389 -0.00158085 -0.00087103
O 0.97521948 14.21218072 26.03456839 0.00452369 -0.00407176 -0.00224543
O 2.39379758 9.99195756 27.39140160 0.00595940 0.00042180 -0.00546368
O 0.63756687 28.11486102 2.16351721 -0.00499396 -0.00578880 0.00140611
O 1.98920481 23.42059349 3.78932867 -0.00854206 -0.00299631 -0.00069811
O 4.57639076 20.35129400 9.64305120 0.00029957 0.00169591 0.00431412
O 3.19102412 25.14668704 8.22395218 -0.00808941 -0.00118283 -0.00098121
O 1.48629091 24.54163922 9.96642780 0.00294809 0.00100362 -0.00640332
O -0.36970727 0.02847978 8.03507747 0.00469418 0.00245207 -0.00141028
O 4.16301301 24.20095679 2.31325081 0.00050791 -0.00260816 0.00273039
O 5.42193341 19.47242729 3.58647865 -0.00241952 -0.00029087 0.00275154
O -0.67372329 28.05243262 14.55689056 -0.00386820 0.00365280 0.00391752
O 0.32950981 23.35943748 15.53107103 0.00135637 0.00186016 -0.00168807
O 2.94876581 20.58561136 20.91503781 0.00242010 -0.00234432 -0.00134042
O 1.80860962 25.38357275 20.35355390 0.00269336 0.00165560 0.00058088
O -0.39987076 24.25183032 21.38692941 0.00037088 0.00307564 0.00010814
O -2.12371535 0.14635967 20.15225404 0.00008786 -0.00042014 0.00527774
O 2.39358095 24.49278118 14.22053134 0.00420057 -0.00697706 0.00301146
O 3.82748598 19.39341911 15.55543425 -0.00760703 -0.00188610 -0.00127556
O -2.31109703 28.08447640 26.19249412 -0.00540224 0.00013593 -0.00406405
O -1.11984875 23.02181479 27.06072873 0.00197011 -0.00204382 0.00059889
O 1.12602962 20.45582519 32.92535836 0.00292780 0.00295312 -0.00345707
O 0.35724188 25.31122717 31.76424299 0.00041464 -0.00449468 0.00069091
O -2.02937842 24.79853799 32.68919922 -0.00168051 -0.00005937 -0.00586417
O -3.21887368 0.12809091 31.59587327 -0.00481814 0.00451452 -0.00131688
O 1.01579106 24.18721591 25.89143532 0.00145747 -0.00328848 0.00645906
O 2.56956747 19.27444470 27.38928333 0.00111232 -0.00329431 0.00243988
O 7.54069076 8.61452899 2.25258777 0.00474802 -0.00225954 -0.00450599
O 8.96230513 3.67259584 3.11850589 0.00348084 -0.00058291 0.00604308
O 11.12343197 0.83746755 9.76153151 0.00117463 -0.00516398 -0.00540412
O 10.01026018 5.39812367 7.83975436 -0.00254607 -0.00285101 0.00458939
O 8.22619427 5.04882325 9.75626259 0.00248144 -0.00530537 -0.00268794
O 6.55298210 9.78270584 8.37313883 0.00213147 -0.00066860 -0.00740163
O 11.19732484 4.78602356 2.24999849 -0.00433694 0.00285711 0.00183457
O 12.28921459 0.02919262 3.57301345 0.00102277 0.00496568 -0.00136082
O 5.86634840 8.92075262 14.10007326 -0.00507783 0.00199228 0.00120425
O 7.08487337 3.90329369 15.28976699 -0.00115513 0.00090779 -0.00366567
O 9.74650137 0.87145855 21.56009207 0.00671952 0.00472320 -0.00566242
O 8.63690679 5.85146214 19.84685464 0.00300713 -0.00430337 0.00581915
O 6.55729475 5.04276624 21.40826220 -0.00491485 -0.00114865 0.00003623
O 4.84910232 9.95512654 19.95068350 -0.00414383 0.00265446 0.00498632
O 9.36920254 4.58589876 14.35372141 0.00333751 -0.00613477 0.00848246
O 10.89824328 0.19360723 15.25484407 0.00214637 0.00045166 -0.00174969
O 4.58155261 8.41751575 26.19080928 0.00095080 0.00569712 0.00334785
O 5.64377934 3.58342797 27.17909267 -0.00100615 0.00234305 0.00278292
O 8.24818755 0.49889227 33.32127288 -0.00121454 0.00124389 -0.00665958
O 6.89915328 5.53022786 31.50921684 -0.00014548 -0.00529592 -0.00500286
O 5.11944980 4.76226637 33.12181696 -0.00512325 0.00580247 0.00309240
O 3.46109543 9.76117911 31.88722439 -0.00179885 -0.00101890 -0.00596632
O 7.83883278 4.69702379 26.09128210 -0.00026566 0.00027066 -0.00614525
O 9.33818880 29.14331139 27.41618224 0.00245841 0.00265407 -0.00271697
O 7.56212516 18.22636577 2.70686782 0.00553391 0.00064292 -0.00496505
O 8.72989739 13.35788108 3.87453427 -0.00066080 0.00080438 -0.00189135
O 11.50705840 10.93448166 9.32456555 -0.00020869 0.01007384 0.00084023
O 10.35661687 15.40847132 8.11653992 0.00103673 0.00807281 0.00297882
O 8.34794528 14.94042330 9.60266811 0.00385203 0.00449835 0.00250882
O 6.61048791 19.65481579 8.28691382 0.00110217 -0.00513030 0.00191957
O 10.88100057 14.34788887 2.80600496 -0.00542606 -0.00490127 0.00149919
O 12.45440896 9.56037108 3.34150494 0.00628419 0.00270749 -0.00421391
O 5.84911566 18.47854389 14.18649456 0.00125633 0.00650662 0.00144507
O 7.29820701 13.45259769 15.12559102 -0.00546299 -0.00390638 -0.00389964
O 9.88755166 10.90682503 21.10012990 0.00186264 0.00148256 0.00107272
O 8.85656804 15.75614028 20.00878113 0.00092317 0.00196839 -0.00137116
O 6.66208556 14.87815327 21.25960787 -0.00092530 0.00551993 0.00028422
O 5.18536569 19.49490075 20.02947581 -0.00521537 -0.00456238 -0.00208529
O 9.21590463 14.83140273 13.77682774 -0.00155750 -0.00481225 -0.00276026
O 10.74815203 9.94663217 15.48317572 0.00113649 -0.00351538 0.00386683
O 4.46681137 18.61479536 25.84925568 0.00102637 -0.00372227 -0.00071407
O 5.83861772 13.42026166 27.24316473 -0.00989667 0.00345996 -0.00056301
O 8.19751965 10.74248004 33.10399302 0.00645204 0.00281964 -0.00015199
O 7.14401547 15.38242622 31.80376713 -0.00156334 -0.00402574 -0.00158150
O 4.88531099 14.88354990 33.03388085 0.00739819 0.00178104 -0.00654925
O 3.53314320 19.88648137 32.20791781 -0.00155544 -0.00571035 -0.00566152
O 7.84578747 14.39663912 26.07591300 -0.00520011 0.00144927 0.00442689
O 9.18624783 9.72330446 27.10853202 -0.00014373 -0.00350856 -0.00277261
O 7.53484428 27.92129580 2.48205605 -0.00000925 0.00171446 0.00290994
O 8.85603365 22.96916683 3.29056235 0.00202877 -0.00471639 -0.00560042
O 11.71195397 20.39813410 9.69377844 -0.00762957 -0.00188951 0.00106794
O 10.25268818 25.11952474 8.31165401 -0.00091351 -0.00718875 -0.00279356
O 8.30344892 24.21203509 9.91766923 0.00998836 -0.00362417 0.00476705
O 6.53808096 0.26480785 8.20203890 0.00420153 0.00266827 -0.00113963
O 10.84532404 24.18439573 2.27351467 -0.00246556 0.00296429 0.00316230
O 12.56261253 19.44979001 3.67807439 0.00059083 -0.00499845 -0.00270477
O 5.81464649 28.06604308 14.30535454 -0.00168560 -0.00890673 -0.00454517
O 7.45538171 23.13432387 15.08664339 -0.00381139 0.00293943 -0.00220282
O 9.68082741 20.07903168 21.50225285 -0.00091565 0.00246052 -0.00051714
O 8.68879111 25.52618018 20.02361605 0.00154109 0.00966397 -0.00419661
O 6.71376377 24.12465676 21.27016416 0.00274203 -0.00010943 0.00490654
O 5.35829722 0.34624906 20.29154560 0.00217684 0.00361363 -0.00010935
O 9.28703993 24.57283353 13.91551433 -0.00230800 0.00484231 0.00469019
O 10.80009178 19.37638137 15.27171619 -0.00317644 0.00117731 -0.00125348
O 4.72662746 28.26647420 25.78236236 -0.00036153 0.00020599 -0.00406317
O 5.66595311 23.12158364 27.07470668 -0.00110733 0.00528620 0.00066838
O 8.26031290 20.16974985 33.40317598 0.00264125 0.00162642 0.00197954
O 7.20218045 25.23008680 32.01212469 -0.00269991 -0.00519762 -0.00444446
O 5.10046090 24.29424627 33.40250138 0.00035352 -0.00112291 -0.00314108
O 3.45250190 0.23586669 31.93310510 -0.00228877 0.00808660 -0.00303453
O 7.66839432 24.55337843 25.87103166 -0.00062137 0.00711784 0.00068986
O 9.24917718 19.42080101 26.96529646 -0.00196442 0.00498701 -0.00805941
O 14.51401580 8.47896648 2.30100291 -0.00286237 -0.00025990 -0.00019241
O 15.94041592 3.61746620 3.13321331 0.00163096 0.00603661 0.00130253
O 18.14856579 1.00729695 9.37239214 0.00077356 -0.00157716 -0.00743671
O 17.05977535 5.91684776 8.32767505 0.00598169 0.00305952 -0.00504035
O 15.02060552 4.94137729 9.72883346 0.00822069 0.00525638 0.00050833
O 13.61119546 9.79333721 8.38211359 -0.00169628 -0.00731068 0.00084469
O 17.72494100 4.95367688 1.92762266 -0.00741640 0.00004247 0.00233558
O 19.05293690 28.83351760 3.52580187 0.00147862 -0.00496413 -0.00757215
O 12.60565629 8.69666593 14.22401388 0.00244151 -0.00119432 -0.00287678
O 14.02265357 3.64992409 15.28240535 -0.00011048 0.00145481 -0.00695775
O 16.30874468 1.22922349 21.15948425 0.00087563 -0.00418178 -0.00046827
O 15.70684368 5.83294160 19.64051565 0.00172402 0.00001740 0.00043769
O 12.99729469 5.24419174 20.57050300 0.00195140 -0.00251506 -0.00067375
O 11.89656010 10.02828624 19.73287183 0.00213039 -0.00615310 0.00071807
O 16.03302412 4.83352619 14.12467989 -0.00102300 -0.00775401 -0.00678993
O 17.82803034 28.85662452 15.65484697 0.00164077 -0.00619750 -0.00257250
O 11.24078109 8.91649219 25.68602009 0.00103277 0.00088594 0.00806197
O 12.32823517 4.05758025 27.16229470 -0.00428032 0.00305465 -0.00320818
O 15.13114878 1.12200636 32.62888174 -0.00248917 0.00066462 0.00052863
O 13.94088256 6.04512317 31.74217280 -0.00324913 -0.00043507 0.00079663
O 11.82412110 5.08612956 32.96212148 0.00415104 0.00045707 -0.00282431
O 10.23407097 9.71092621 31.67882318 0.00415476 0.00012637 -0.00296986
O 14.66120199 5.02878529 25.85972553 0.00103062 -0.00168204 0.00508348
O 16.18570701 0.03386085 27.13700172 0.00747955 0.00462057 0.00573765
O 14.33107396 18.30987930 2.32157626 -0.00475011 0.00493490 -0.00281795
O 15.72280889 13.43727925 3.66919051 -0.00389261 0.00798555 -0.00322554
O 18.24582814 10.54500898 9.77013205 -0.00059109 -0.00002920 0.00193421
O 17.10954082 15.68438938 8.49637986 -0.00386361 0.00029627 0.00024125
O 15.18268043 14.39358065 9.54164949 0.00274389 0.00002720 0.00263472
O 13.57232285 19.16783432 8.15782343 0.00394347 -0.00007049 -0.00169751
O 17.84203783 14.29942648 2.69372055 -0.00122707 0.00256653 0.00086853
O 19.35525545 9.70437734 3.70115560 0.00092009 -0.00005350 -0.00207816
O 12.87614940 18.26949194 14.19547809 0.00281172 -0.00167974 0.00257656
O 13.90847765 14.03865202 15.33289146 -0.00562585 -0.00107148 -0.00076947
O 16.87061432 10.98765163 21.04310776 -0.00194335 -0.00322526 -0.00483813
O 15.43609445 15.83172967 20.09544274 0.00540294 0.00051622 -0.00527827
O 13.55831112 14.49407092 21.08507640 -0.00112252 0.00321266 0.01066853
O 11.85455089 19.61209536 19.95904635 0.00204699 -0.00335138 -0.00499321
O 16.04462156 14.82555435 14.01369975 0.00245203 -0.00087706 0.00518830
O 17.48690793 9.47509091 14.92521152 0.00157249 -0.00182670 0.00117297
O 11.37188156 18.14300603 26.26902857 0.00318024 -0.00724783 0.00303499
O 12.34918187 13.74096165 27.06287780 -0.00256834 0.00020948 -0.00441998
O 15.20954517 10.82027645 33.22523419 0.00069049 0.00010447 0.00155480
O 13.95551310 15.86917427 32.30699989 -0.00207779 -0.00006479 -0.00508675
O 12.13146863 14.56343005 33.48744279 0.00739859 -0.00664770 0.00242014
O 10.58475872 19.69884954 32.36434810 0.00628296 -0.00719753 0.00288537
O 14.53710714 14.64241940 25.97122674 -0.00741378 -0.00343691 -0.00111231
O 16.10881137 9.67902337 27.10133314 0.00114771 -0.00101569 -0.00139884
O 14.27744669 27.98746833 2.32996850 0.00710470 -0.00290178 0.00410442
O 15.70128805 23.19849198 3.55036132 -0.00460008 0.00330136 0.00053507
O 18.03794951 20.68008202 9.74387371 -0.00168782 0.00109618 0.00439954
O 17.13093815 25.71139116 8.54310140 -0.00304589 -0.00375633 -0.00426027
O 15.01578594 24.46577719 9.63065212 0.00310622 0.00257224 -0.00262109
O 13.30629873 0.34915660 7.98095844 -0.00151013 -0.00553160 -0.00492350
O 17.77214291 24.23834516 2.36792452 0.00057164 0.00240422 0.00395133
O 19.26332441 19.28249203 3.87705847 -0.00206900 0.00767141 -0.00092637
O 12.83714647 27.93072374 14.42392117 -0.00021760 -0.00508084 0.00285029
O 14.04373766 23.45209537 15.46329643 0.00225997 -0.00647371 -0.00275693
O 16.74695070 20.88970067 20.90911981 -0.00002796 -0.00337255 0.00757814
O 15.07429179 25.64792897 20.58780131 0.00543315 -0.00274269 0.00468060
O 13.40049937 24.03215717 21.62703246 0.00090476 0.00390403 0.00221506
O 11.77907355 0.03916656 20.10638011 -0.00489159 -0.00077240 0.00233169
O 16.06593304 24.35462005 14.28395073 0.00227603 -0.00040749 0.00502480
O 17.62890311 19.61165551 15.60348955 -0.00561122 -0.00128311 0.00241964
O 11.31362532 28.25996468 26.06807128 0.00168945 0.00435032 0.00462482
O 12.71998040 22.84374651 27.36465044 -0.00446631 -0.00208952 -0.00066106
O 15.14253238 20.28147493 33.31789734 0.00020620 0.00121506 -0.00452933
O 14.03969529 25.47881935 31.68928224 0.00297452 0.00381567 0.00483030
O 11.76848611 24.86086981 32.92025769 -0.00419864 0.00268842 0.00295327
O 10.43441476 29.15079021 31.67354034 0.00409792 -0.00400186 -0.00547824
O 14.67145330 24.20240479 26.00435071 -0.00154832 -0.00764747 -0.00421720
O 16.26887854 19.27311637 27.23699528 0.00556095 0.00158723 0.00051483
H -0.31290686 8.79932935 2.79953244 -0.01747732 0.00217929 -0.02088839
H 2.80998021 4.14694991 3.34407008 -0.01875827 -0.00859180 -0.03059438
H 5.10691725 0.56690136 8.99687834 0.01492059 -0.00531053 0.00640475
H 2.34018982 5.27116242 8.64414271 -0.00527085 0.00281120 -0.02561765
H 5.58074322 8.08631107 0.66784275 0.01042985 0.00098325 -0.00418439
H 3.91426368 3.14164485 5.27397440 -0.00244324 0.00473033 0.01741854
H -0.47953444 1.63545690 10.93489031 -0.00669988 -0.00208940 -0.00596238
H 1.37508126 5.93906238 6.70898842 -0.01402070 -0.01202977 0.00461296
H 4.04173935 6.71171258 10.72307241 0.01812378 0.00333153 0.00793080
H 3.89771152 1.52441649 6.87099903 0.00153669 -0.00951621 0.01094969
H 1.21303483 2.82839258 0.94018981 -0.00152812 0.01038370 -0.00445120
H 1.29173948 7.79284871 4.89918916 -0.01744111 -0.01156285 0.01268294
H -2.03402737 5.67246679 34.98985632 -0.01576937 -0.00288518 0.02653824
H 0.04142047 0.24636016 5.65773154 -0.00387110 0.02378852 0.01698710
H 2.38792717 4.12519478 11.74073378 -0.01723411 -0.00532389 -0.00072805
H 5.34164250 8.90130109 6.02237198 -0.00916234 -0.02293126 0.00836759
H 2.75002268 7.29434148 1.42776535 0.00004924 0.00577293 0.02396436
H -0.15141754 2.16443625 4.06972471 -0.02542004 -0.01670773 0.01922976
H 2.40817294 2.50174948 9.98465594 -0.01353798 0.00515504 -0.01675869
H 5.32984430 7.09283402 7.79596096 -0.02403655 0.00234533 0.00971938
H 4.97528984 4.70967295 9.81282483 0.03136980 0.02177155 -0.00696538
H 2.81796503 28.88944465 8.01271703 0.01857051 0.00399036 -0.00503998
H 0.21616290 4.64927279 2.19786988 -0.00666563 0.00351807 -0.02238878
H 2.44355848 9.69880579 3.91650384 0.00926884 0.02416116 -0.00096227
H 6.95780420 2.74579508 8.49100212 0.02485661 -0.00941192 0.00371665
H 1.38222502 8.91008504 10.71172921 -0.03234653 0.01211163 -0.00405705
H 18.98837827 6.98956641 3.17084863 0.02343684 0.00822623 -0.01597105
H 4.12475088 0.87218123 1.33232041 0.02320039 0.00603947 -0.03229215
H 0.27130336 2.48384336 8.59972163 -0.00876847 -0.01212618 -0.01411458
H 2.32145908 7.92065658 9.49623568 -0.01327185 0.00842152 0.02449086
H 5.99361752 6.99230065 3.56135828 0.01943168 -0.01248014 0.01544161
H 2.74751409 1.39787974 2.48513671 0.02911512 0.01814102 0.00769680
H 0.08313017 3.91627636 7.35568411 -0.03822598 -0.00897727 0.01870313
H 0.62543825 7.53479044 9.85657812 -0.00387009 0.00340190 -0.00290826
H 4.91541956 5.79647698 4.55164162 -0.00486000 0.01061050 -0.01457949
H 4.45741881 2.01368235 2.52630176 -0.02531160 0.00372440 -0.01012480
H -1.65944776 9.18434479 14.28892562 0.00842118 0.00713526 -0.00328810
H 0.93192103 4.31436814 15.18058617 -0.00725732 -0.02602089 -0.00775590
H 3.86822718 0.76768727 20.61158795 -0.01577837 0.01101864 0.01869848
H 0.74611106 5.94640856 20.34891986 -0.00431080 -0.00638545 0.02078938
H 4.04342914 8.37848163 12.59760049 0.01077935 0.00438972 0.02229076
H 2.19571043 3.33718984 16.97477332 0.00714512 -0.01947734 -0.00597256
H -2.34049586 1.32041641 22.96051087 -0.00595644 -0.01264438 -0.01227150
H -0.08787284 6.31726647 17.99008975 -0.00858639 -0.00885987 0.00510315
H 2.53869245 6.93474743 22.41862441 -0.00767784 -0.01066021 -0.00746725
H 2.03837051 1.64262276 18.91266349 0.00751579 0.00153399 -0.01514460
H -0.37417342 3.13600513 12.83192387 0.01043491 -0.00377367 0.00729157
H -0.08848740 8.10909105 16.29458525 0.01762709 -0.00459133 0.00976618
H 1.36811841 5.58208338 11.80061926 0.00440006 -0.00668376 -0.00631421
H -1.93635114 0.58167311 17.86267159 -0.01956043 0.00113817 -0.02019020
H 1.07160141 4.40488869 23.52614834 0.00827731 -0.01825703 0.00611839
H 3.61440811 9.49785343 17.63028378 0.02666745 -0.01900967 -0.00295146
H 1.06289917 7.10453988 13.75597794 -0.01426528 -0.02788411 0.02689280
H -1.88115639 2.22537890 15.94972492 0.02458173 -0.01002200 -0.00809707
H 0.93727375 2.66411074 21.81587163 0.02786017 -0.00648403 -0.01758306
H 3.49487020 8.01812626 19.57975266 0.01252953 0.01422393 -0.00867550
H 3.37727294 4.97081634 21.35967616 -0.01624590 0.00164286 0.00117691
H 1.03348164 0.27171699 19.91668518 0.02435817 -0.00615100 0.01884657
H -1.48511671 5.11940681 13.94602386 -0.00074321 0.01097892 0.00018937
H 0.82861576 9.90976729 15.42604048 -0.01319223 -0.01147962 -0.04513261
H 6.19184048 3.75728545 19.49325928 0.01239082 -0.00413799 0.00283153
H -1.12653444 8.67293567 22.12551847 0.00130025 -0.00233386 0.00816437
H 18.10713509 5.53493532 16.30417752 0.01290521 0.00247376 0.01741777
H 3.27289846 1.32474184 13.39904557 0.01198643 -0.00244211 0.00820990
H 17.94598678 3.73659803 19.55446067 0.00227408 0.00716524 -0.01900057
H 0.66735608 8.72380323 21.49509752 0.00632469 0.00396009 0.01584703
H 3.36076042 7.19751739 14.90358752 -0.00509220 -0.02110237 -0.00004824
H 1.65310264 1.32320937 13.90685011 -0.01307620 0.02237946 0.02063707
H -1.57424466 2.57931425 20.34909286 -0.02430684 -0.01549054 -0.00437462
H -0.57837428 7.61636656 20.90972371 0.00786789 -0.00713912 -0.01302055
H 3.15054654 5.98116107 16.23719880 0.00024912 -0.00452650 0.01355372
H 2.75633960 2.48269577 14.66833589 0.00897040 -0.02559797 0.00124061
H -3.23658241 9.22919252 26.02466790 0.00635455 0.01107383 0.01955612
H -0.39773014 4.25023915 26.50953774 0.00883761 -0.03125446 -0.00285061
H 2.12855893 0.85664558 32.61077705 -0.02048238 -0.00588602 0.00294008
H -0.66720072 5.52302682 32.16925679 0.00211705 0.01158827 -0.00558326
H 2.69721942 8.52871912 24.38009244 0.00118576 -0.00139874 0.00298834
H 0.61981383 3.60718723 28.71395265 -0.01025813 0.01153142 0.00257879
H -3.71944544 1.02688874 34.71401380 0.00336096 -0.00105103 -0.01131361
H -1.74435221 6.29755576 30.27738026 0.00863378 0.01825856 -0.00823228
H 0.96654135 6.74164617 34.12763253 -0.01035927 0.00515364 -0.00424309
H 0.67180576 2.25219440 30.68562325 -0.00169219 -0.00062669 0.00203969
H -1.98100803 2.90077726 24.75528386 -0.00952255 0.00382463 -0.00949112
H -1.59126566 7.89065099 28.19342154 0.01054830 -0.00406452 0.00441328
H -0.34383365 5.72886275 23.21450941 -0.00750027 -0.00293479 -0.00976754
H -3.06276522 0.38261054 29.37705211 -0.00929680 0.00630136 -0.01942960
H 4.14568218 4.50279428 0.03104018 -0.00598157 0.00707476 -0.02366355
H 2.40309174 8.91982732 29.29289109 0.02726222 0.01133321 -0.00128833
H -0.39054265 7.37292710 25.07998882 -0.01169335 0.00164710 -0.00504378
H -2.99653945 1.86463773 27.33347590 -0.03682721 0.00002464 0.01082195
H -0.70263204 2.93681508 33.50515189 -0.00235894 0.00172969 -0.01361454
H 2.30232883 7.29384518 31.16481243 -0.00542993 -0.00477426 0.00298321
H 1.94856458 4.62315254 33.21297198 -0.01132767 -0.01470022 0.00589058
H -0.02676058 0.01969139 31.46087343 -0.03000209 -0.00310200 0.00979593
H -2.82874626 4.82241123 25.81912661 0.00791701 -0.00578325 -0.00966759
H -0.72399663 9.75358850 27.24454787 -0.04230499 -0.01519562 -0.04461597
H 3.66829278 2.53265564 31.92347716 -0.02274042 0.01209668 0.02908141
H -2.58630606 8.55384769 33.97042954 0.03745320 -0.02536714 -0.00690894
H -3.65804096 5.16647907 28.15246296 0.00197687 -0.02348335 0.01698143
H 2.15523288 1.30902392 25.20477985 0.00836186 -0.01724188 0.00475562
H -2.52738177 3.35120402 31.24194923 0.00873400 0.00932045 0.01970948
H -0.94099358 9.12880834 33.50600848 0.01245050 -0.00831911 0.00170361
H 1.60866640 6.02894607 27.79144911 0.01961356 0.00258746 -0.03401067
H 0.49344372 0.91808357 25.02404823 0.00384938 -0.01058540 0.01029418
H -3.85061481 4.40797175 30.85002923 -0.01570554 -0.02803966 0.01115449
H -1.64476001 7.61078589 32.89569275 0.00859677 0.00568736 0.00188020
H 3.28651178 6.15050765 27.07714744 -0.00664694 0.00893309 0.01745649
H 0.86987116 2.12680906 26.27295005 0.00416476 -0.00226814 0.01482146
H -0.30349006 18.42970472 2.81925922 0.01493702 -0.02381760 -0.01845933
H 2.75273065 13.86580675 3.50748742 -0.01145188 0.00759179 0.01338759
H 5.46904381 10.57922977 9.33438369 -0.01090827 0.02021406 0.03443712
H 2.63108717 15.39311839 8.72320032 -0.01185829 0.00877321 -0.00467402
H 5.69561859 18.08069678 0.75745652 -0.00973407 0.01696674 -0.00671524
H 4.00620021 12.75932111 5.18208160 -0.00596955 -0.01908751 0.03361746
H -0.43542816 10.92337541 11.56311096 0.00451156 0.00972393 0.01153018
H 1.43779235 16.00914021 6.60602603 -0.00495924 -0.00329224 0.00267902
H 4.21387966 16.57502267 10.44917215 -0.00387390 0.00336625 -0.00200902
H 3.98386143 11.34507330 7.25847988 -0.01806413 -0.00772197 -0.00627656
H 1.29689596 12.80348357 1.40377422 -0.02650727 0.02406440 0.02768126
H 1.67098722 17.38913264 4.46821378 -0.00182919 0.00358110 0.00441272
H -1.86199338 14.97887541 35.41833274 0.00734252 -0.00467864 0.02961718
H -0.03989945 10.14917152 6.46454336 -0.03369805 -0.01555119 -0.01341338
H 2.58756174 14.10113590 12.02748530 0.00556158 0.02066271 0.02003412
H 5.33668343 18.89322160 5.80798161 -0.00521319 0.00262946 -0.02821908
H 2.65397268 16.60093699 2.01690715 -0.01399921 0.03229800 0.00184190
H -0.17535097 12.20567421 4.76328797 0.01705977 -0.00028742 0.00132433
H 2.54016276 12.59234308 10.08747285 0.01640503 -0.01739223 0.01407165
H 5.42049428 17.25556842 7.62627091 0.02724784 0.01824072 -0.02338691
H 5.13643331 14.63435767 9.86292557 -0.00276631 -0.01092066 -0.00758200
H 2.99157862 9.58664698 8.22788961 0.02144858 -0.00321128 -0.00281938
H 0.28427806 14.37582386 2.59183571 -0.00259854 0.00566883 -0.02012362
H 2.31693935 19.19106266 3.60834835 0.02200106 -0.00649468 -0.00019222
H 7.56493171 12.85615825 8.07642552 -0.00463711 -0.00853288 0.00887301
H 2.44221064 18.45654056 9.93291933 0.00481338 -0.00483464 -0.00234346
H 19.42880824 15.13833189 4.94915940 -0.02861559 -0.00701414 0.02150502
H 3.08078335 11.00420368 2.23511900 -0.01882871 0.02380436 -0.00473585
H -0.86419498 13.01102704 8.46668374 -0.00111150 -0.01573135 -0.01579566
H 1.07097471 17.25467561 9.67322975 0.00540370 0.02650156 -0.01761101
H 5.43835292 16.48173858 3.82974808 -0.00093444 0.02102924 0.00881882
H 4.48668536 11.79375178 2.88368291 0.00233409 -0.01192490 0.02184278
H 0.73545487 13.21535650 7.75343880 0.01688791 -0.00250393 0.00156596
H 0.87213285 18.52185395 10.66361707 0.02356746 0.00089154 0.00526271
H 5.14806088 15.14764418 4.96983886 0.01332510 -0.02190350 -0.02886650
H 4.71461609 10.68211569 1.57906315 0.00030765 0.00169847 -0.02906014
H -1.49185506 19.08090626 14.38231213 0.00447566 0.00298060 0.00612766
H 1.13392049 14.13623901 15.20141080 -0.00827121 0.00031246 0.00009895
H 3.56233873 10.39273678 20.79534242 -0.01960964 0.00345891 -0.03263403
H 1.16560473 14.88960792 20.22527764 0.00578346 0.00035198 -0.00855900
H 4.05146457 18.17532411 12.26367741 -0.01346434 -0.01206631 0.00806490
H 2.39721202 12.98182661 16.91771043 -0.00865282 -0.00637802 -0.00702179
H -1.82974411 11.43230654 22.88174959 -0.03411730 0.05105686 -0.00621173
H -0.26990508 16.02413774 18.40683598 0.01774520 -0.01198680 -0.01720650
H 2.60979123 16.52314617 22.37592198 0.00494952 0.02813860 -0.00355733
H 2.32224024 11.51873020 18.77169151 0.00143090 0.01674285 0.00442655
H -0.32851367 12.70012311 13.19630200 0.01079802 -0.00506565 0.00700204
H -0.22209099 17.85928289 16.75475431 0.01426946 -0.00004446 0.03937841
H 1.23594452 15.09172288 12.19091781 0.03008451 -0.01889835 -0.00437650
H -1.76556257 10.44596654 17.70675687 -0.00427185 -0.02183927 0.00606907
H 0.94348589 13.86117945 23.78952775 -0.00073362 0.02425474 0.03109281
H 3.87942768 18.78664183 17.70753222 -0.00705130 0.01929047 0.01735830
H 1.27912277 16.77758187 13.92770159 0.01187865 -0.00981132 -0.00073327
H -1.71050311 12.03444773 15.89104160 0.01704683 -0.01475611 -0.01338704
H 0.53246100 12.10167868 22.25016434 0.00043312 0.01278819 -0.01716395
H 3.68238898 17.22859454 19.64234503 0.00409877 -0.01754966 -0.02088408
H 3.58494283 14.40663358 21.67437480 0.01949547 0.02994176 -0.02390706
H 1.08778403 10.05772699 20.04692428 -0.00517184 -0.02042396 0.03570215
H -1.40876785 14.29322410 14.33032776 0.00468181 0.00969138 -0.00492741
H 0.69104494 19.66131904 15.79777353 0.00353944 0.01815018 -0.01953530
H 4.04623328 13.38525219 19.72725187 -0.00048475 0.00762828 0.00461975
H -0.53824926 17.15447857 20.93928274 0.00512571 0.00296269 0.00110047
H -1.91942073 16.08110886 15.59252221 -0.01121027 -0.00775754 -0.00585843
H 1.33113944 11.49055195 13.87273474 -0.00566624 0.00400694 0.01237498
H -1.16412106 13.15459900 19.36152592 -0.00291374 -0.00516327 0.00425528
H -1.16631479 18.08725840 22.18019905 -0.00802007 -0.01204936 -0.00709901
H 3.51661357 15.68854908 16.46059692 -0.03201355 0.00784077 -0.05093838
H 3.01283241 12.25401899 14.44841121 -0.00442389 0.00973011 -0.00179498
H -1.52085517 14.74086364 18.87063302 -0.01546951 0.00039236 0.00164508
H 0.56742032 18.30143774 21.79491994 0.00480086 0.01646939 -0.01316971
H 4.98288001 16.06228445 15.49054456 0.00653529 -0.02062999 0.00434770
H 2.92487263 11.13723540 13.08872835 0.01703543 0.01190329 -0.00679297
H -3.10544963 18.61003117 26.25629393 -0.01691843 0.01041632 0.00589922
H -0.57443392 13.89324649 26.75165062 0.00698974 -0.00457921 0.00778523
H 2.11356922 10.42676879 32.59740235 -0.00474219 -0.01633212 -0.00506550
H -0.68408840 15.11945715 32.18813986 -0.02485072 -0.01140266 0.01073984
H 2.76003075 18.27072472 24.20674838 -0.00581866 -0.00289715 -0.00988356
H 0.58723957 13.34287963 28.82800728 -0.00922199 0.01982405 -0.01044741
H -3.33014882 11.29944611 34.76066959 -0.01614716 -0.01563354 -0.01795917
H -1.68107601 15.75118253 29.88389560 0.01122861 -0.01375089 0.00704485
H 0.91211840 16.37672806 34.55638608 0.00630339 0.00026642 -0.00090318
H 0.63051733 11.60302739 30.62604968 0.00022932 -0.02491142 -0.01837871
H -2.22364814 12.55828630 24.96604673 0.00798222 0.02926182 0.03120383
H -1.51958235 17.18888280 28.06294622 -0.02187405 -0.01305265 0.01811255
H -0.39875731 14.99915207 23.85920351 0.02506013 -0.01549335 0.00930899
H -3.29550785 10.26270573 29.18504044 -0.01096915 0.00707901 0.01721429
H 4.12027656 13.80596379 0.18266224 0.00764769 0.00459094 0.00775918
H 2.27601761 18.63840258 29.44475119 -0.00566582 -0.00566805 -0.00218375
H -0.16835832 16.80683389 25.24034397 0.00306968 -0.00554821 -0.01981138
H -3.16626174 11.92576862 27.56083487 -0.00367852 0.01174485 0.01098992
H -0.63941284 12.08840338 33.78441442 0.00598900 0.01346391 0.01295428