2160
Time=64000.00000006 pbc="T T T" Lattice="20.57407536 0.00000000 0.00000000 0.00000000 28.91202349 0.00000000 -4.74280643 0.00000000 35.76703141" energy=-13795.62946522 virial="-87.33498631 -15.42901044 76.98739051 -15.42901044 -35.25128618 14.32371722 76.98739051 14.32371722 8.69469719" stress="-0.00155348 -0.00072937 0.00367479 -0.00072937 0.00090064 0.00062679 0.00367479 0.00062679 0.00289655" Properties=species:S:1:pos:R:3:vel:R:3
O 0.90901765 8.50436260 2.57727165 0.00705745 0.00305586 -0.00021091
O 1.99752625 3.78913616 3.85748760 0.00220804 -0.00125165 0.00040006
O 4.39861976 1.15004666 9.60881539 -0.00112360 -0.00354671 -0.01094718
O 3.40665020 5.96151052 8.25631032 -0.00874416 -0.00676497 0.00615877
O 1.19475859 5.28866595 9.30578007 0.00122925 0.00082929 0.00423262
O -0.17228086 9.63935659 8.13082433 0.00257976 -0.00302154 0.00203436
O 4.05850716 4.52330281 2.42542077 -0.00025544 0.00560417 -0.00467721
O 5.30156926 28.84291554 3.56155817 0.00342579 0.00173228 -0.00207959
O -1.17938624 8.77739212 13.99041628 0.00393251 0.00073050 0.00435702
O 0.27216529 3.60731930 15.54174835 -0.00820166 0.00059668 -0.00225236
O 3.09441340 0.70294330 21.46375794 -0.01194444 0.00081485 -0.00352090
O 1.46579292 5.54054285 20.11248422 -0.00051367 0.00602495 -0.00098314
O -0.27813072 4.79475615 21.73735157 0.00202700 -0.00469606 0.00356157
O -1.69302582 9.61005162 20.34679682 -0.00295275 0.00097057 -0.00224217
O 2.22615211 4.70789411 14.19516295 -0.00275274 0.00330762 -0.00214582
O 3.73418361 28.61300146 15.46235879 -0.00451880 -0.00005226 -0.00279372
O -2.48183623 8.55294176 26.32720642 -0.00402529 0.00669346 -0.00195653
O -1.18441438 3.63874645 27.09798534 -0.00137811 -0.00474893 0.00329133
O 1.29468975 0.78973609 33.46540392 -0.00170832 0.00366438 0.00051333
O 0.02304915 5.63417257 32.35312656 -0.00258459 -0.00048538 -0.00253430
O -1.96506360 4.57909195 33.80289071 -0.00216584 -0.00131397 0.00175584
O -3.22067383 9.69633116 32.20133573 -0.00676985 -0.00086532 -0.00005085
O 0.98222291 4.72522046 26.05451465 0.00563703 -0.00409308 0.00190434
O 2.22649174 0.03839526 27.43788300 0.00650363 -0.00000157 0.00715308
O 0.66406617 18.36869906 2.28499499 0.00505637 0.00307002 0.00518303
O 2.07836800 13.55263253 3.53026794 -0.00530078 0.00392214 0.00228759
O 4.64886454 10.98155786 9.35976852 -0.00002358 -0.00543599 0.00454239
O 3.26566906 15.62740106 8.04548435 0.00527375 0.00497931 -0.00069487
O 1.15768535 14.94568591 9.58917092 0.00224304 0.00124890 -0.00142008
O -0.18919271 19.29612067 7.86458131 -0.00012190 0.00196600 0.00321400
O 4.13081825 14.33855062 2.25054424 -0.00063258 -0.00399557 -0.00162510
O 5.68291460 9.68146710 3.55230125 -0.00024217 -0.00425655 0.00193976
O -1.05308197 18.23267954 14.47178175 0.00601353 0.00634431 -0.00092055
O 0.21460341 13.42858537 15.59538797 -0.00669053 -0.00117489 0.00176701
O 3.01079383 10.79858750 21.26351142 -0.00300118 -0.00138477 0.00315912
O 1.86726486 15.23414729 20.41935185 -0.00136667 -0.00354058 0.00287624
O -0.43153870 14.73323050 21.40947711 0.00135469 -0.00136513 0.00128792
O -1.66577267 19.49444831 20.44660121 0.00023614 0.00558061 -0.00527612
O 2.27067747 14.62140188 14.16324622 -0.00586129 0.00069326 0.00058585
O 3.87262175 9.59847568 15.86574540 0.00418936 -0.00246911 0.00235472
O -2.20505244 17.76413229 26.45423408 -0.00060867 -0.00754196 -0.00095722
O -1.20487410 13.44533081 27.64980842 0.00179032 -0.00478645 0.00111269
O 1.39401512 10.82739971 33.14440127 0.00401345 0.00452827 0.00462010
O 0.49072678 15.50984132 32.38101534 0.00078685 -0.00103112 0.00034693
O -1.58579532 14.67796122 33.59205742 0.00917509 0.00223325 0.00399467
O -3.19939820 19.04454729 32.11925447 0.00091289 -0.00548264 -0.00097871
O 1.05052387 13.90407743 26.48562723 -0.00123537 -0.00219507 -0.00333082
O 2.48650774 9.15759234 27.68802433 -0.00127759 -0.00820023 -0.00441945
O 0.52099002 27.87653150 2.41330845 0.00040685 0.00344475 0.00394933
O 2.16364122 22.63014148 3.00268243 0.00069120 -0.00440490 -0.00280792
O 4.76789116 20.26665654 9.26721200 0.00526164 -0.00874085 0.00182497
O 3.09418790 25.19032001 8.28395330 -0.00379096 -0.00184952 0.00231520
O 1.21611818 24.22382401 9.79180577 -0.00008939 -0.00334612 -0.00247368
O -0.45452295 28.79520202 8.22823545 -0.00545466 0.00467469 -0.00518303
O 4.01525189 24.44058924 2.00283479 -0.00004038 0.00236186 -0.00335063
O 5.65240151 19.30254912 3.46983879 -0.00022758 -0.00028609 -0.00224115
O -0.94849046 27.54448809 14.67351730 0.00584404 0.00046869 -0.00160401
O 0.48442131 22.81180726 15.51540295 0.00620687 -0.00496149 -0.00205815
O 2.98448768 20.05555234 21.31729576 0.00495867 0.00221794 -0.00522549
O 1.70359057 24.77699844 20.04711006 -0.00380995 0.00449353 0.00176570
O -0.38359253 24.03764300 21.48098787 0.00495724 -0.00425561 -0.00804058
O -1.63027205 0.23586783 20.36179300 -0.00154002 -0.00047637 0.00295566
O 2.62302825 23.74250180 14.26489209 0.00232783 0.00618915 0.00269728
O 3.92431233 18.95721997 15.70871064 -0.00285643 -0.00181350 0.00053252
O -2.58366352 27.83777408 26.36682596 0.00255482 0.00582943 -0.00161696
O -1.32096956 23.13769874 27.90854557 0.00226591 -0.00147397 -0.00175881
O 1.59106643 20.57308398 33.40264670 -0.00046872 0.00369291 -0.00571572
O 0.35092146 25.28394838 32.24454969 -0.01153912 0.00447362 -0.00241598
O -1.58436461 24.22392532 33.65069766 0.00032516 -0.00322339 -0.00198357
O -3.45822638 0.15325085 32.05088693 -0.00009693 0.00672609 -0.00600434
O 0.68744645 23.63527982 26.05007335 0.00266023 0.00118163 0.00233651
O 2.46198636 19.28833650 27.57833600 -0.00294205 0.00045636 -0.00021236
O 7.73723867 8.47242851 2.34704146 0.00413572 0.00211214 -0.00345116
O 8.66119256 3.67260380 3.43608982 -0.00537327 -0.00378416 0.00213593
O 11.29358334 1.52960667 9.23192257 0.00226082 -0.00738719 0.00183575
O 10.23781639 5.99775386 8.46402482 -0.00030226 -0.00413135 0.00090323
O 8.12832180 5.27541933 9.78350374 0.00135509 -0.00321500 0.00546509
O 6.59621519 9.81460093 8.05623817 0.00722341 -0.00274417 0.00299223
O 10.89570764 4.77998177 2.17552672 0.00283845 -0.00117830 -0.00202042
O 12.23866368 28.51435544 3.38508439 0.00762417 -0.00494786 0.00403608
O 5.69387323 8.20091850 14.76942915 -0.00214579 -0.00075621 0.00079850
O 7.17026756 3.72422708 15.33311718 -0.00098242 -0.00406911 -0.00515924
O 9.53071295 0.82042699 21.20961003 0.00228640 -0.00142634 0.00047530
O 8.57012965 5.90956972 20.26277509 0.00483762 0.00516989 -0.00329493
O 6.52795032 4.68501942 21.31756457 -0.00389727 -0.00485815 -0.00357422
O 5.24599877 10.06937120 20.40021468 0.00200303 0.00331376 0.00403546
O 9.08943535 5.03417137 14.03607074 0.00381355 -0.00171573 0.00094325
O 10.83721020 28.82885239 15.88035133 0.00036202 0.00273704 -0.00086424
O 4.55272309 8.61185268 25.96875876 -0.00299378 -0.00379828 0.00032856
O 5.59575294 3.60029134 27.16203025 0.00403554 0.00704234 -0.00109551
O 8.21740805 1.32653674 32.97258542 0.00351939 -0.00445305 -0.00333364
O 7.15867147 6.01318284 32.37793794 0.00278096 -0.00360858 -0.01171253
O 5.09953909 4.93623215 33.33353583 -0.00140663 -0.00185015 0.00315238
O 3.61636174 9.76818042 32.21901879 -0.00282052 0.00886392 -0.00388268
O 7.87763938 4.43384878 26.30227212 -0.00219807 -0.00163274 -0.00331944
O 9.17058721 28.71678398 27.41167578 0.00129575 -0.00132688 -0.00170183
O 7.88573812 18.41382988 2.11117756 -0.00316884 0.00518177 0.00391020
O 8.70310337 13.67200625 3.44339049 0.00098744 0.00205998 -0.00526922
O 11.67832468 10.80553933 9.03177456 -0.00125141 0.00028441 -0.00106626
O 10.16235183 16.02793684 8.39613893 0.00684000 0.00178884 -0.00281060
O 8.22466392 14.76384804 9.31236000 0.00226161 0.00160133 -0.00259659
O 6.77135632 19.26001788 8.08165241 -0.00298328 0.00150233 -0.00277183
O 10.65153681 14.71264792 2.14634489 -0.00621917 0.00113101 0.00036096
O 12.35052678 9.26600697 3.45450375 -0.00283633 -0.00335218 -0.00006803
O 5.79756008 17.88836994 14.43547729 -0.00136675 -0.00303145 -0.00199515
O 6.99178462 13.60346700 15.62613050 -0.01086922 0.00616588 -0.00194117
O 9.51575580 10.12336074 21.99902911 -0.00239855 0.00410769 0.00387411
O 8.87111867 15.64922798 20.53025350 0.00175833 0.00408222 0.00236783
O 6.66017667 14.61570925 21.50910387 -0.00438125 -0.00387407 -0.00451661
O 5.23314363 19.27500631 20.11266139 -0.00257957 0.00209362 -0.00073359
O 8.98645954 14.16841825 13.98936573 0.00242113 -0.00683886 0.00222991
O 10.83091302 9.70372943 15.45811437 0.00477630 0.00126040 -0.00001428
O 4.45709177 18.12375297 26.42715452 -0.00747822 0.00608850 -0.00619489
O 5.47166302 13.57641910 27.71586429 0.00169393 0.00191017 0.00353729
O 8.21945622 10.86403020 33.40279675 0.00180043 0.00890138 0.00183828
O 7.17735012 15.54657315 32.33869905 -0.00420875 -0.00450985 0.00272839
O 5.17927366 14.29918563 33.45155728 0.00253695 0.00515908 -0.00393609
O 3.52631882 19.33309910 32.20444146 0.00591820 0.00171514 -0.00073131
O 7.52007825 14.51730901 26.31793593 0.00274649 -0.00558502 -0.00877384
O 9.42865694 9.44252702 27.53776036 -0.00645905 -0.00231697 -0.00143689
O 7.53335575 27.96009766 2.73630283 0.00819433 0.00234355 0.00412782
O 8.52197074 23.50816358 3.61816035 -0.00041813 -0.00229774 -0.00264916
O 11.28850091 20.62663345 9.55283354 -0.00069303 -0.00187388 0.00764260
O 9.99443562 25.24978099 8.33571526 0.00306662 0.00479629 0.00318247
O 8.04179448 24.10489974 9.55703620 0.00045514 0.00256181 -0.00194866
O 6.17297791 0.03348625 8.18584341 0.00059286 0.00173789 -0.00181128
O 10.81215654 24.18337653 2.36688262 -0.00740611 -0.00145579 0.00073352
O 12.42986799 19.66489830 3.58605777 0.00428434 0.00520470 0.00446980
O 6.02407662 27.66538324 14.36416621 -0.00876277 -0.00022202 0.00393249
O 7.27279259 22.82572315 15.24664657 0.00608362 0.00054654 0.00078182
O 9.97874302 20.01384314 21.95983018 -0.00624639 -0.00230562 0.00471351
O 8.52468345 25.15666276 20.50071519 0.00176753 0.00673695 -0.00968166
O 6.50487282 23.79064852 21.68823837 -0.00936434 -0.00151255 -0.00076677
O 4.88345128 28.55320234 19.94193331 -0.00072894 -0.00650485 0.00015990
O 9.29307837 24.12134913 14.22632146 -0.00020377 0.00399655 -0.00665701
O 10.77864272 19.17690215 15.54428889 -0.00147632 -0.00242819 -0.00289278
O 4.23680182 27.62387241 26.31053365 0.00084810 -0.00193877 0.00393990
O 5.37273625 23.32519644 27.35689383 -0.00102976 0.00071279 -0.00373161
O 8.13166426 20.61535012 33.15864804 0.00183063 -0.00002857 0.00234599
O 6.95380403 25.25420907 32.11281670 -0.00330728 -0.00128173 0.00129563
O 5.05090066 24.37491691 33.57293908 -0.00427170 0.00625803 -0.00212593
O 3.44352118 0.17469351 32.15044197 -0.00158580 -0.00254121 0.00805893
O 7.51006453 24.21420047 26.06617243 0.00215976 -0.00584089 0.00154139
O 9.27521179 19.13112931 27.43904024 -0.00593389 0.00475654 -0.00009088
O 14.69964173 8.45700362 2.58970029 0.00299290 0.00126537 -0.00318524
O 15.70853101 3.77307495 3.36344151 0.00274788 -0.00479353 -0.00528141
O 18.26909972 1.00516172 9.81744769 -0.00022525 -0.00013205 -0.00062278
O 17.41618347 5.73879479 7.99475167 -0.00005556 0.00364869 -0.00068506
O 15.24221704 5.17818530 9.38536604 0.00252962 0.00412196 -0.00402138
O 13.81029767 9.48181333 7.94874956 0.00162379 0.00513584 0.00058879
O 17.56607663 4.88993386 2.22361154 -0.00403413 0.00056175 0.00184910
O 19.17603561 0.26882659 3.82315024 0.00211430 -0.00474587 -0.00333066
O 12.86358876 8.69033032 14.30141648 -0.00773339 -0.00128444 0.00260483
O 13.77499878 3.73099916 15.35094813 -0.00025651 0.00808654 -0.00550460
O 16.66502854 1.18727875 21.30825949 0.00513299 -0.00413544 0.00329485
O 15.72058301 5.74800026 20.03371693 0.00542111 0.00697895 0.00239125
O 13.52489662 4.84444187 21.41304069 0.00082305 -0.00369517 0.00101615
O 12.00373063 9.96760316 20.94191129 0.00448716 -0.00578001 -0.00391292
O 16.08597526 4.78326191 14.34677466 -0.00348018 0.00184223 0.00433639
O 17.37156310 28.59428063 15.42392130 0.00043173 0.00822790 0.00368117
O 11.38355674 8.39257540 26.24960898 0.00102991 -0.00349744 0.00018790
O 12.59630140 3.35863239 27.07449495 -0.00125141 -0.00153383 0.00162117
O 15.27094685 0.88841417 33.53715849 -0.00145991 -0.00422270 0.00116389
O 13.96603006 5.99725095 32.38864306 -0.00189124 0.00088154 0.00485890
O 11.78542915 4.95452227 33.44048313 -0.00102863 0.00026053 0.00268480
O 10.26064909 9.69280780 32.21306006 -0.00004660 -0.00069597 0.00244901
O 14.40841787 4.87933868 25.90624550 0.00298193 -0.00308030 -0.00061529
O 15.99315708 0.11684935 27.78166703 -0.00158288 0.00209640 0.00020035
O 14.49500610 18.43820371 2.46606608 0.00163700 0.00461881 -0.00185463
O 15.52223601 13.79257880 3.63475954 -0.00318002 0.00171885 0.00154697
O 18.23277012 10.89141123 9.39076878 -0.00147951 0.00195302 -0.00568369
O 16.78511990 16.00607258 8.66861724 -0.00192637 0.00493705 -0.00571341
O 14.82774201 14.56456039 9.51304734 -0.00085400 0.00700210 -0.00062886
O 13.40333963 19.41295581 8.45169515 0.00088046 0.00479636 -0.00542982
O 17.51828584 14.50854211 2.13377403 0.00312197 -0.00231326 0.00664986
O 19.15048275 9.67324976 3.25722924 -0.00331443 0.00356792 0.00350595
O 12.95792345 18.12473624 14.62537538 -0.00022922 0.00701211 0.00315651
O 13.73265778 13.69889513 15.87266831 0.00484318 -0.00325310 -0.01109389
O 16.89985515 10.64960156 21.77448287 0.00523353 -0.00216701 -0.00543467
O 15.52900872 15.39306215 20.10541382 -0.00017946 -0.00796072 -0.00200523
O 13.47715938 14.61166804 21.49442200 0.00213894 0.00198612 -0.00304021
O 12.20601808 19.42519010 20.55639337 0.00008411 -0.00040962 -0.00347139
O 15.89538534 14.44867578 14.49844346 0.00155001 0.00309111 -0.00008026
O 17.45336728 9.72353603 15.62627699 -0.00314839 0.00108464 0.00102983
O 11.39527586 17.81313076 26.47936671 -0.00551901 -0.00341866 -0.00927272
O 12.55505906 13.41239438 27.56956417 -0.00072976 -0.00034902 0.00329093
O 15.42472933 11.09395103 33.35167295 0.00428612 0.00628619 -0.00108506
O 14.00805373 15.12678874 32.22579940 0.01054881 0.00034398 0.00351630
O 12.09554320 14.68863610 33.91205518 0.00888445 -0.00133901 -0.00532905
O 10.36029180 19.50450538 32.48232319 -0.00761191 -0.00746444 0.01011583
O 14.71751368 14.15851171 26.35695221 0.00317542 0.00553143 -0.00372984
O 16.07365304 9.60404125 27.53910808 0.00004511 -0.00012971 -0.00509900
O 14.34999914 27.49804849 2.37811418 0.00001981 0.00395695 0.00177396
O 15.61684784 23.24402155 3.81468535 -0.00641077 0.00382005 -0.00351394
O 18.33168731 20.46281366 9.35587980 0.00066121 0.00203776 0.00392790
O 17.18659018 25.32969800 8.27892550 0.00309701 0.00256460 0.00126860
O 14.99013539 24.61843258 9.48764808 -0.00065047 0.00133629 0.00561667
O 13.28556196 0.27487882 8.09956818 -0.00466911 0.00167179 0.00041924
O 17.85976672 23.64443595 2.20893200 0.00146491 0.00264968 -0.00038467
O 19.22120402 19.17901945 3.70880477 -0.00101289 0.00319167 -0.00231561
O 12.64147628 27.85960658 14.40597815 0.00404063 -0.00306018 -0.00062264
O 13.66690645 22.96105813 15.50952766 -0.00345438 -0.00340878 0.00288443
O 16.82175990 20.27888746 21.75003244 0.00305159 0.00281867 -0.00649236
O 15.33923025 25.28587800 20.52548135 0.00757100 -0.00113827 0.00381607
O 13.48232478 23.98640906 21.65850574 0.00169101 0.00663145 0.00665465
O 11.89565454 0.18329250 20.29661751 0.00075023 0.00491866 -0.00216387
O 15.89540142 23.95888336 14.37062476 0.00019142 -0.00452442 0.01082983
O 17.77227906 19.50099033 15.75851439 0.00045038 0.00196188 -0.00214138
O 11.41314705 27.99495837 26.12710600 -0.00041632 -0.00220436 -0.00481997
O 12.34451552 22.67037047 27.49307121 0.00461124 0.00631439 0.00263380
O 15.40232881 20.35882250 33.15765128 -0.00190420 0.00323916 0.00090081
O 13.84697111 25.33661555 32.37525076 0.00189288 -0.00416617 -0.00251327
O 11.80086900 23.77277194 33.33377243 0.00135496 -0.00362754 0.00322115
O 10.16386474 28.90667967 32.00513700 -0.00090483 0.00028034 -0.00091767
O 14.58721767 23.62608487 26.68555704 -0.00462429 -0.01106333 0.00184120
O 16.20286676 18.71543112 27.58047854 0.00069611 0.00283506 0.00118385
H 0.06857604 9.06263192 2.78132286 -0.00926790 0.01408557 0.02175109
H 2.85455458 4.01170699 3.40362443 -0.00676686 0.00590759 0.01185216
H 5.57828250 0.46766079 8.94485599 0.01099922 0.01058510 0.00465133
H 2.53144939 5.64886320 8.56527808 0.00431314 -0.01506126 0.01008612
H 5.62951400 7.88712683 0.79470300 0.00151736 0.00851584 -0.02742261
H 4.03334196 3.24033984 5.46845718 0.00105307 0.00114956 -0.00103306
H -0.34432059 1.42197256 11.45513299 -0.00137014 -0.00151200 -0.00671712
H 1.58596803 6.05923293 6.31639836 0.00881022 -0.01120084 0.01956787
H 3.90318323 7.03597501 10.80901580 -0.02363279 0.01564843 0.02518310
H 3.94040877 1.56363134 7.40352041 -0.01566408 -0.00905062 -0.01168175
H 1.18552622 3.21620539 1.26324164 0.00066119 0.01561612 0.02343390
H 1.67542393 7.69329848 4.52928558 0.01445108 0.03152147 -0.00227953
H -1.97493119 5.50133461 35.49436499 0.00893075 0.02177405 0.00395018
H -0.08339732 0.72596723 6.19019872 -0.00749055 0.02250114 -0.01170347
H 2.46469407 4.44392816 11.96986413 -0.01550957 -0.03180823 0.00001878
H 5.51147506 8.97478201 5.62778219 -0.02069656 -0.02766597 -0.00173545
H 2.86802195 7.12989987 1.70979589 -0.00832790 -0.00309422 0.00072920
H -0.02432342 2.26862606 4.54188163 0.01254921 0.00613267 0.00688969
H 2.47130016 2.98191178 10.02953463 -0.00400617 0.00577880 -0.00392355
H 5.36382509 7.43991592 7.61865631 0.00685665 0.00957582 -0.02590196
H 4.98861352 5.56749567 9.39403075 -0.02731823 -0.00000361 0.03477501
H 2.72858742 28.55542067 8.18153631 0.00603603 -0.01560832 -0.03579684
H 0.19164986 4.93292464 2.07714152 -0.00643824 0.00728285 0.00412070
H 2.62599692 9.47120092 3.49359753 0.02079127 -0.05239489 0.01005594
H 6.11613843 4.39953876 7.54272871 0.00614208 0.00752106 0.01194589
H 1.16343883 7.66950265 9.47419636 0.00468560 0.00179317 0.02687019
H 19.50699594 7.04452409 3.24848315 0.01643848 -0.00449261 0.00281940
H 4.99073115 1.22492907 1.75555447 0.01616782 -0.00641392 0.02371095
H 1.09853014 3.42550496 7.84408966 -0.00640542 0.00848862 -0.00948227
H 0.65120313 9.08275609 10.41632268 -0.01061249 0.02377305 -0.01125899
H 6.43004609 5.85630064 4.05631444 0.01282626 0.00068610 0.02911242
H 3.31984360 0.66586951 1.42282940 0.01267750 0.00044767 -0.01218182
H -0.37528692 4.03761865 7.22605092 -0.00026038 0.00416195 0.00616936
H 2.35456439 8.89949984 10.04868097 -0.01917410 0.03424689 0.00127078
H 5.40154607 7.04903353 3.12351512 -0.00137532 -0.00662203 -0.00164827
H 3.54557942 2.17844042 2.43050444 -0.01383380 -0.02700949 0.01790445
H 18.54220477 8.96799169 14.51091471 -0.02287141 -0.01092498 0.00363600
H 1.10713397 4.02262583 15.16672241 -0.02286825 -0.02297381 -0.00237168
H 4.01856083 0.47202037 21.09615511 -0.00704071 0.01503636 0.00291540
H 0.71324265 5.30782850 20.76226992 -0.02654056 0.00618297 0.00905822
H 3.87434674 8.54930796 12.88379802 0.01705513 -0.00951525 0.01327948
H 2.32129032 3.15062164 17.24865681 -0.01346779 0.00626568 -0.01606071
H -1.93302064 1.49497644 22.99450811 -0.02181400 -0.01322793 0.00173607
H -0.56874673 6.13839405 18.45117891 -0.03520623 -0.01940303 -0.01076527
H 2.56849795 6.62524168 22.39982759 -0.00708051 -0.01121206 0.00431553
H 2.16989594 1.54909182 19.09746790 0.00344209 -0.02186332 -0.01282010
H -0.22268118 3.30535445 13.06320608 -0.00120825 -0.01320436 -0.00860170
H -0.42365205 7.56056627 16.53766580 -0.01348983 0.00051700 -0.01643448
H 0.84954855 5.26669140 11.85587389 0.00926422 -0.00926122 -0.01997424
H -1.74509411 0.36523684 17.90865876 -0.01918201 0.01992758 -0.00438383
H 1.09041018 4.04754689 23.77808031 0.01414807 0.01335374 0.00115600
H 3.41160332 8.88098240 17.59530360 -0.00488818 -0.00431635 -0.01235311
H 0.92349037 6.91308996 13.58006343 0.02478511 0.01325085 -0.02283074
H -1.76889726 1.96246431 16.21160876 0.01730957 -0.01319559 0.02733942
H 1.18522373 2.38862295 21.98322180 -0.00946197 0.01371846 -0.00794657
H 3.49018186 6.98948205 19.43237631 0.02186681 -0.01054101 -0.00074524
H 3.32744328 4.74091732 21.40121342 0.00853301 -0.02217527 -0.00535837
H 1.34619908 28.45558556 19.98385235 0.04291352 0.00356383 0.01226544
H -1.26275797 4.87526359 14.30860500 0.02457752 0.03086166 0.00060896
H 0.70309824 9.63209670 15.67357133 -0.00514205 0.00172686 0.01480505
H 5.40524209 2.38536489 20.29521956 -0.00506840 -0.01280700 -0.01942933
H -0.93777004 8.12144019 22.21972327 -0.00681484 0.02270803 -0.01860024
H -2.17617241 5.11142417 16.43899254 0.00061469 0.02726876 0.01098339
H 1.97612962 0.34111563 13.11891769 0.00185043 0.02619700 -0.00335321
H -1.13979909 2.74682246 20.30711474 0.00613281 -0.01206570 0.02346574
H 0.22628440 9.30767608 22.53174096 0.01622844 0.00031151 0.01627196
H 4.49419949 5.65879738 16.14415857 0.02114571 -0.00380906 -0.01827386
H 1.33757272 1.41138116 14.39154156 -0.01464082 -0.00260779 -0.03322408
H -1.42517433 3.86941461 19.19572293 0.00484488 0.00501236 -0.00329957
H 0.67483928 7.78411074 21.60029711 0.02274073 0.00609994 -0.00323315
H 3.61947249 7.02063174 15.34368914 0.00001962 -0.01050982 -0.03087449
H 3.16492962 1.48758393 13.86136068 -0.01211366 0.00909488 0.00359541
H -3.29713546 9.04993868 26.53972195 -0.00333951 -0.00349287 0.01447324
H -0.30567809 4.08505232 26.79676804 -0.00588030 -0.00013889 -0.00848560
H 2.12275556 0.48973629 33.02681864 0.00335784 -0.00390039 -0.00825512
H -0.80138070 5.36031552 32.82354415 0.03017344 0.00529843 -0.00585041
H 2.50070901 8.11439019 24.36929306 -0.02922048 0.02862461 0.01433486
H 0.60324928 3.62903920 28.88118571 -0.00149364 -0.00757392 0.01070956
H -3.24226923 1.69938269 35.03990463 0.00993459 -0.01710425 -0.00895478
H -1.92989861 6.38719325 30.85837950 0.01117035 0.00007186 -0.00529659
H 0.97758053 6.47897075 34.62276842 -0.00509714 -0.02235082 0.01601053
H 0.64530092 2.34379300 31.05715099 -0.00821808 -0.00210481 -0.00539835
H -1.92771960 2.98084813 24.98272937 -0.02622825 0.00166449 0.03524640
H -1.74603288 7.66558652 28.71625682 0.02388462 0.02467715 -0.01918582
H -0.46691202 5.49284633 23.58331239 0.02178523 0.02575146 -0.00495663
H -3.13678944 0.41297189 29.96522309 -0.02396321 0.00262627 0.02199069
H 4.11438630 4.17432870 0.14639746 0.00445107 -0.02296786 0.02013736
H 2.23339390 8.86047150 29.96494958 -0.00937808 -0.01682289 0.01678350
H -0.40589543 7.19463025 25.49456796 0.04986645 0.01794088 -0.01002709
H -3.32028369 2.07847739 28.02698487 0.00477242 -0.00478644 0.02036655
H -0.59823467 2.74102998 34.05850769 0.03586858 -0.03168671 -0.02151643
H 2.14558187 7.24317694 31.87842569 0.01774636 -0.01219446 0.01415506
H 1.94304361 4.66258857 33.55215030 -0.00380627 0.01257564 -0.01516451
H -0.20921220 0.48648063 32.05724644 0.02226074 -0.01012537 -0.00795359
H -2.93099971 4.81112107 25.95417574 -0.01186652 -0.00853167 0.02549219
H -0.67462842 9.46777149 27.87868806 0.01043700 -0.02851524 0.03310799
H 3.95027626 3.80546066 30.88592231 0.00595013 -0.01459127 -0.01331641
H -1.73187744 7.40453932 33.37954883 -0.00306402 0.01004491 0.01244795
H 16.83124901 5.68858374 27.90141887 0.02148923 0.00955772 -0.01195031
H 1.31474752 2.12880045 26.02284927 0.01807313 0.01010494 0.01373393
H -3.64909303 2.70381752 32.45248064 0.00506526 0.01915764 0.00713442
H -2.52512315 8.61710298 34.47788963 0.00864759 0.01130554 0.00480592
H 3.65397439 5.65711494 27.71173404 -0.02616439 0.00070121 -0.01269722
H 1.09254979 0.63486247 25.11433908 0.00255640 0.02012477 -0.00531866
H -2.45257081 3.61931522 31.54396301 0.01242236 -0.01531635 -0.00068931
H -0.92010274 8.67786820 34.15238630 0.03476248 -0.00878095 0.00238060
H 2.63177416 6.92659215 27.04704673 -0.00273824 0.00297936 -0.01384467
H -0.36196122 1.39846358 26.02117326 0.01168558 -0.00842969 -0.02505019
H -0.19160502 18.81802840 2.46483568 -0.01329307 0.01909846 0.01246072
H 2.98630669 13.70506880 3.03698784 0.00701277 -0.02825835 0.00892666
H 5.49215241 10.62519838 9.00542218 0.00658140 0.00410426 -0.01715433
H 2.40321638 15.44505348 8.53939933 0.01584078 0.00039305 0.01152998
H 5.93139197 18.05891760 0.50515789 0.01206807 0.01734246 0.02629751
H 3.93922932 13.17114077 5.24787923 0.01818357 -0.00833246 -0.03322650
H -0.46109780 11.14100657 11.37957653 0.01080168 0.00394892 -0.02153735
H 1.50034169 15.77329167 6.12373607 -0.00103494 0.00658558 0.00696943
H 3.99896894 16.09967293 10.65303118 0.00547152 0.00790573 0.00711374
H 3.87107892 11.49664586 7.16611022 0.01161787 -0.00733864 -0.00023502
H 1.06587213 12.73029646 1.39816160 -0.00152902 -0.00329486 -0.02641777
H 1.28944980 17.59688367 4.61538047 0.00350771 -0.03645424 0.00784631
H 2.84639400 15.24600604 0.03588144 -0.00365173 -0.01920481 -0.01499626
H 0.07168131 10.05927495 5.70843173 0.00217856 0.00782130 0.00161369
H 2.38651163 13.58552295 12.26278330 0.00014330 0.00634625 0.00609857
H 5.49587577 18.67218735 5.57322921 0.00546702 0.01071870 -0.01651054
H 2.86638066 17.01189438 1.57737065 0.02006132 0.02425805 0.00520462
H 0.18995608 11.63882656 3.90900547 0.01271793 -0.00576396 -0.00547235
H 2.46271502 12.28308824 10.21003094 -0.00807525 0.02345108 -0.03348590
H 5.39082372 17.13595557 7.35181907 0.00174370 -0.00741984 0.02495282
H 4.97348517 14.60754841 9.56157714 -0.02020136 -0.00663805 0.01197759
H 2.97870938 9.64091876 7.92903893 0.00484044 0.01538252 -0.01228721
H 0.11065325 14.43330110 2.35107224 -0.02347227 0.01799208 -0.01322769
H 2.40867219 19.56948033 3.57564059 -0.00300886 -0.00871536 0.00696851
H 5.86147652 14.22161037 7.36884126 0.00853504 -0.00573367 -0.01402727
H 1.60890381 18.71486900 10.14397296 0.01584845 -0.01468435 -0.00381265
H -0.47982700 15.97262699 3.72799927 -0.02533907 -0.02345804 -0.00483553
H 4.62861892 10.25342542 1.20643017 -0.00325644 -0.00755183 -0.03574461
H 0.37040614 12.57178129 8.34437087 0.01168504 -0.00361256 -0.00562407
H 2.20740085 17.50746467 9.04555138 -0.00929591 -0.01092631 -0.01347685
H 6.74950742 15.91216076 3.57961979 -0.03358531 -0.03001010 -0.01276547
H 2.95451778 10.70904233 1.96743844 0.01069293 0.00101080 -0.01864156
H 0.01787653 13.90514152 7.27319042 -0.00572500 -0.00874196 -0.00131515
H 0.36745060 17.63057079 9.48857328 0.01029762 -0.02710822 0.02818799
H 5.09635309 16.72783501 3.27861599 -0.03418379 -0.02299521 -0.02728439
H 4.40913229 11.61032754 2.29906981 0.00168846 -0.00566682 0.00986345
H -1.81613555 18.79234135 14.73037768 -0.01959543 -0.01262654 -0.01007044
H 1.02876139 13.99324698 15.58353214 0.01480492 0.00553934 -0.00852326
H 3.89337734 10.39922518 21.04599340 0.00050587 -0.00982528 -0.00616302
H 0.94019725 14.99548187 20.75957341 -0.02898080 -0.01470027 -0.02575732
H 3.85212027 17.61893387 12.63233413 0.01043113 -0.00673498 -0.00075364
H 2.24739000 13.11276240 17.28250143 -0.02629784 0.01287410 -0.00354386
H -1.81702835 10.82170751 23.47013845 0.00695990 -0.01485658 0.00161268
H 0.18221078 15.44348926 18.72205891 0.00244461 -0.01564676 -0.04112588
H 2.53168482 16.30663688 22.74177089 -0.01330104 -0.01243308 0.02466112
H 2.35249984 11.27074280 19.02502613 -0.01368821 0.02095449 -0.01223802
H -0.54205677 12.42738413 13.23011597 -0.00389437 -0.02330772 -0.01985680
H -0.15231702 17.30616323 17.04410341 -0.00886929 -0.02174483 0.01344629
H 1.06718956 15.16268456 11.83554482 0.00975025 0.00478832 -0.00466939
H -1.66435940 10.17374831 17.89212565 0.00929725 0.01874948 -0.01090057
H 1.11515164 13.87881629 23.97073002 -0.00793356 0.01973154 0.01875458
H 3.89203865 18.31577451 17.76698225 -0.01732649 0.00238545 0.00910009
H 1.01367707 16.75554177 13.78094503 -0.00159458 0.00683906 -0.00281173
H -1.70783097 11.97129049 16.37041806 0.00229609 0.00304938 -0.02655790
H 1.09309333 12.46605962 21.90282837 -0.00631044 0.01104289 0.02417453
H 4.03197849 16.76481409 19.71855274 -0.00130762 -0.01926688 0.00925229
H 3.60767014 14.82077778 21.49062780 -0.00901506 0.00659460 -0.00229551
H 1.33793676 9.48832033 20.00686768 0.00803956 -0.00081281 -0.00787898
H -1.50613963 14.31372731 14.45626679 -0.03480963 0.01152031 -0.01396008
H 0.84385865 19.07223302 15.80772269 -0.00332076 -0.01718834 -0.02919046
H 5.46670126 14.00447917 19.14601506 0.02002978 -0.00900328 -0.01511555
H 0.01505061 17.07156216 21.44446118 0.00731626 0.02779253 -0.02021145
H -1.99357039 15.72707299 15.90028273 0.01280464 -0.00581183 0.01351585
H 1.40076985 10.70428701 14.16970240 0.01096087 0.00117887 0.01763683
H -2.41808369 13.54075473 19.35545167 0.02276538 0.03154615 0.00105901
H -1.06553190 18.11053445 22.52053206 0.00041729 0.01457448 0.01275918
H 3.19209482 16.29093027 15.77358164 -0.01752764 0.00668794 -0.02398858
H 2.53252118 11.96522100 14.80363611 -0.02521313 0.01652936 0.00917774
H -2.14794178 12.25341347 20.67889785 0.02308587 0.00253141 -0.01091911
H 0.69954276 18.42445121 22.32570333 -0.00081102 -0.00301495 0.00360287
H 3.55147170 14.79233957 16.68308727 -0.00999540 -0.02235880 -0.01179486
H 3.18522021 10.73634986 13.62461619 0.00645133 -0.01024235 0.02801975
H -3.11238420 18.18014536 26.75701850 -0.00043175 0.00893835 0.01329996
H -0.31292038 13.73177116 27.28865810 0.01925692 0.01232226 -0.01491722
H 2.22651101 10.32603224 32.80327824 0.02608350 0.00790713 -0.02858296
H -0.53135191 15.13422997 32.69214329 -0.03579987 -0.01583898 0.00013705
H 2.28548467 17.72119548 24.69187712 -0.00559332 0.03579086 -0.00040393
H 1.04372257 12.70700969 28.98552197 -0.00215527 -0.02034011 0.02193573
H -3.46615709 11.24508367 35.27934147 0.02627928 -0.00804049 -0.00987441
H -1.51497595 15.74038537 30.73081129 -0.02510761 0.00871655 0.01621487
H 0.86267266 16.08426171 34.89874872 0.01515957 -0.03033232 -0.01071883
H 1.07921562 11.04391950 30.67408421 0.00147405 0.01051878 -0.00835719
H -1.76398915 12.28750936 25.44457308 -0.00451813 0.00193248 0.02542709
H -1.52461501 16.99096062 28.68389351 0.00562993 -0.02669313 0.01875089
H -0.48517081 14.74297936 23.69531883 -0.00298034 -0.02256402 0.03058394
H -3.10014111 10.36505570 30.29358796 0.01457958 -0.00902348 -0.00193152
H 4.04560912 13.72815889 0.29220953 0.01770041 -0.02029833 -0.00841179
H 2.40708251 18.70978036 29.56568935 -0.02311129 0.01208380 -0.00452094
H -0.30451455 16.14796399 25.61334863 0.00367777 0.00069080 0.02576281
H -3.13001341 11.56846915 28.28404890 0.00385759 0.00550043 -0.00412044
H -0.77118534 12.14283501 34.10266135 -0.00005115 0.02366853 -0.01129082