2160
Time=44000.00000003 pbc="T T T" Lattice="20.56193885 0.00000000 0.00000000 0.00000000 29.07167860 0.00000000 -4.72783464 0.00000000 35.54157359" energy=-13798.20130891 virial="-18.23813608 -4.22762974 68.45350612 -4.22762974 -42.17296149 -5.44879720 68.45350612 -5.44879720 -38.83150365" stress="0.00168637 -0.00020898 0.00325851 -0.00020898 0.00044384 -0.00039962 0.00325851 -0.00039962 0.00071789" Properties=species:S:1:pos:R:3:vel:R:3
O 0.66984157 8.43279589 2.69673856 0.00228063 0.00210237 -0.00297453
O 2.12041587 3.56333782 3.50953820 0.00109043 0.00040733 -0.00463497
O 4.36615603 1.08988792 9.43880162 -0.00092715 -0.00159730 -0.00097737
O 3.11047876 5.58765768 8.19327544 0.00217599 -0.00343661 -0.00005251
O 1.10026572 4.60637205 9.59431448 0.00311855 -0.00202526 -0.00752489
O -0.44155691 9.61361093 8.29983761 -0.00426359 0.00296368 0.00024367
O 4.04977449 4.65098971 2.27758454 -0.00438607 -0.00393055 -0.00127987
O 5.70238684 28.67772686 3.58020156 -0.00121014 -0.00048196 0.00613486
O -0.91247837 8.36578153 14.31143462 -0.00381081 -0.00036529 0.00146782
O 0.17076942 4.09198325 15.58638105 0.00722832 -0.00092559 0.00258449
O 2.98605554 1.21540426 21.47211040 0.00416376 0.00022171 0.00033628
O 1.89639062 6.13173427 20.30257649 -0.00524430 0.00209036 -0.00324269
O -0.47149617 4.92089539 21.01541254 -0.00324932 -0.00090369 -0.00308502
O -1.78198864 9.87742180 20.11868287 0.00134785 -0.00283995 -0.00024960
O 2.34407600 4.55692598 14.41012368 -0.00044401 0.00156531 0.00252672
O 3.95342728 0.11432773 15.51294581 0.00173433 0.00220686 -0.00509544
O -2.34352731 8.43314551 26.01067788 -0.00520048 -0.00080192 -0.00032692
O -1.51877251 3.70742177 27.36639697 -0.00654001 0.00011502 0.00001517
O 1.52428033 1.40248667 33.03471996 -0.00483540 0.00211229 -0.00594170
O 0.34166132 6.16626633 32.20675804 0.00188883 -0.00066564 0.00454836
O -1.52459060 4.90495461 33.47630500 0.00754097 0.00244470 -0.00320998
O -3.22092494 9.83321312 32.01084032 0.00202852 -0.00011339 -0.00403187
O 0.89679671 4.74784956 26.30451665 -0.00313111 0.00396017 -0.00337857
O 2.31399401 28.80311921 26.95194727 0.00501737 -0.00096765 -0.00675456
O 0.70883422 18.10405703 2.44152394 -0.00326671 0.00313230 -0.00115832
O 1.95600391 12.96589401 3.36131958 0.00097120 -0.00128499 0.00028548
O 4.45373561 10.91989288 9.11345303 -0.00437228 0.00311797 0.00576932
O 3.26822006 15.64590065 8.43057041 -0.00373939 -0.00183999 -0.00075414
O 1.34575726 14.48575990 9.59310105 0.00170357 -0.00062507 0.00281186
O -0.18447378 19.72497979 8.59711946 0.00080353 0.00544587 0.00532779
O 4.19082447 14.17146956 2.40602176 -0.00249436 -0.00489697 0.00403863
O 5.40577922 9.66187922 3.82283399 0.00069903 -0.00584769 -0.00357595
O -1.06598906 18.33482636 14.27207292 -0.00139717 -0.00550788 -0.00284493
O 0.32456925 13.41922557 15.24940838 -0.00302797 -0.00153145 -0.00447029
O 2.78879052 10.49268021 21.63831898 -0.00444938 -0.00359437 -0.00044226
O 1.53065406 15.71570009 20.12545831 -0.00398236 0.00277717 0.00401258
O -0.40764616 14.70109792 21.49208984 0.00214196 -0.00213530 0.00441117
O -2.06405544 19.70960494 20.03199495 0.00206906 0.00192278 0.00000370
O 2.28624972 14.57785086 13.93958189 -0.00185395 -0.00176425 -0.00231173
O 4.18460979 9.64165895 15.55787817 -0.00712855 0.00461802 0.00076178
O -2.64527138 18.08658941 26.25195107 0.00306442 -0.00184406 0.00634527
O -1.18497313 13.19714932 26.99663106 -0.00782019 -0.00180213 0.00216313
O 1.67844664 10.92076371 32.98572815 -0.00477306 -0.00219283 0.00007697
O 0.20582729 16.09006868 32.03941141 -0.00014429 -0.00012642 0.01334891
O -1.66039808 14.83181219 33.10913992 -0.00172210 -0.00009979 -0.00224417
O -3.49343882 19.31237832 31.76537722 -0.00333768 0.01027013 0.00191237
O 0.60175994 14.61471836 25.81268871 -0.00579177 -0.00054604 0.00071429
O 2.36982828 9.69737327 27.46882528 0.00732838 -0.00204894 0.00233186
O 1.03228412 27.55016760 2.55506283 0.00455401 0.00273282 0.00113039
O 1.74605172 23.23751325 3.79263717 0.00323801 0.00008350 0.00120851
O 4.51734799 20.27149477 9.45196411 -0.00301026 0.00212039 0.00551375
O 3.61511336 25.37536151 8.53041879 0.00217672 -0.00460805 0.00210285
O 1.39694840 24.25372685 9.68882841 0.00524329 0.00026730 0.00767999
O -0.16682136 28.77287250 8.04203239 0.00343418 0.00088861 0.00568759
O 3.90834830 23.91611661 2.45569084 -0.00071441 0.00663217 -0.00245526
O 5.39052788 19.01629105 3.27984709 -0.00271470 0.00286362 0.00645372
O -0.99441256 27.93960254 14.18338334 0.00286104 -0.00232713 0.00185917
O 0.22951450 23.31373077 15.45429900 -0.00109036 -0.00045024 0.00440770
O 2.76226804 20.37719600 21.31390191 0.00281439 -0.01014768 0.00252930
O 1.69290589 25.45402441 20.21978438 -0.00224531 0.00536055 -0.00870253
O -0.13519010 24.21129553 21.49949624 -0.00696939 -0.00676402 -0.00134433
O -2.01694476 0.10355591 19.98153055 -0.00007299 -0.00117003 -0.00100377
O 2.35831587 23.78962040 14.25903553 -0.00310674 0.00018135 0.00417165
O 3.80382783 18.87563536 15.18729376 -0.00072679 -0.00096948 0.00419161
O -2.29238088 28.23466695 26.01994222 -0.00263599 -0.00335889 -0.01063498
O -1.18437459 23.25773882 27.27251589 -0.00186139 -0.00498121 -0.00051187
O 1.28085693 20.43330775 33.04230890 -0.00399329 -0.00111267 0.00249770
O 0.23933521 25.20959675 31.77844362 0.00041877 -0.00114041 -0.00297508
O -1.91244959 24.43091225 32.83401658 -0.00512002 -0.00237457 -0.00129847
O -3.13219351 0.08739478 32.13040011 0.00345869 0.00364532 0.00473911
O 0.60086607 24.49025096 25.76594250 -0.00092146 0.00522960 0.00709124
O 2.06694652 19.57442994 26.99268644 0.00029366 -0.00216437 0.00051478
O 7.38736832 8.44927578 2.72863413 -0.00634769 -0.00721188 0.00225263
O 9.02545751 3.37685139 3.42481130 0.00149338 0.00451962 0.00229380
O 11.47262998 1.15112288 9.27481147 0.00607556 0.00494163 -0.00086583
O 10.02553231 5.77720152 8.36896900 -0.00213870 0.00380135 0.01016561
O 7.95573126 4.92739670 9.67162679 0.00176408 0.00431916 -0.00301098
O 6.65463863 9.57510310 8.24713908 -0.00818096 0.00392656 -0.00964644
O 11.02015148 4.64008464 2.33205120 0.00408958 0.00371721 0.00201242
O 12.72663290 0.04932337 3.82779472 0.00226614 -0.00220075 0.00950340
O 6.12175846 8.89312647 14.14553598 0.00069313 -0.00563700 0.00291687
O 7.19307914 3.66021874 15.28338430 -0.00253255 -0.00169620 -0.00208398
O 9.69420534 1.17648687 21.11300505 -0.00176541 -0.00026151 -0.00271351
O 8.55383675 6.12809848 20.52309217 0.00817883 -0.00873494 0.00127270
O 6.49527581 4.96289078 21.70912432 0.00249061 -0.00248719 -0.00386289
O 4.85520144 9.75323465 20.27879761 0.00210452 -0.00020480 0.00325850
O 9.09308541 4.74297573 13.97952176 0.00094099 0.00185398 -0.00469572
O 10.66394113 0.26517206 15.49443096 -0.00434385 0.00317475 0.00623498
O 4.56925981 8.61352168 26.38084886 0.00217944 -0.00465418 -0.00438939
O 5.76721779 3.68264272 27.20269933 0.00685998 -0.00070468 -0.00272297
O 8.40789217 0.85908445 33.07876367 -0.00028820 -0.00222108 -0.00190566
O 7.19332748 5.68006916 31.79098221 -0.00328640 -0.00457871 0.00164580
O 5.20987795 5.02197468 33.35840191 0.00175207 0.00390639 0.00048511
O 3.39882621 9.87660776 31.61349975 0.00318369 -0.00254051 0.00954167
O 7.56446209 4.87591218 25.85046297 -0.01032688 0.00386910 0.00423337
O 9.05381358 0.16914332 27.40263411 0.00096559 -0.00071838 0.00222908
O 7.66927490 17.92611545 2.54096869 -0.00795692 0.00027931 0.00241248
O 8.96008577 13.17895578 3.36958625 -0.00094792 0.00180204 0.00016379
O 11.50865689 10.96666074 9.40868335 -0.00005771 -0.00186765 -0.00687368
O 10.20673729 15.74370718 8.40912984 0.00697756 0.00178442 0.00126797
O 8.07033424 14.09839721 9.57854123 0.00217326 0.00311540 -0.00042219
O 6.60758519 19.50809468 8.26901011 0.00373569 0.00065055 -0.00446607
O 11.06350730 14.36744614 2.44341477 -0.00233726 0.00001059 0.00160513
O 12.32679912 9.29764445 3.54111623 0.00459266 -0.00241336 -0.00128302
O 6.08106274 18.16904304 14.02985883 -0.00910757 -0.00707469 -0.00298179
O 7.13648141 13.13348739 15.28804022 -0.00403611 0.00841319 0.00611701
O 9.84382735 10.51995504 21.34663779 0.00406628 0.00324971 -0.00463248
O 8.59021437 15.62307361 19.91849691 -0.00258644 -0.00071727 -0.00204228
O 6.67177414 15.07116659 21.52664576 -0.00078283 -0.00063975 -0.00402614
O 4.58580123 19.70620226 19.78281877 -0.00596619 -0.00557488 -0.00352233
O 9.14335775 14.27326847 14.43100549 -0.01053051 0.00184868 -0.00137264
O 10.68203778 9.76366057 15.50449568 0.00122913 -0.00651555 0.00027331
O 4.32083187 18.90714703 25.96426407 -0.00253517 -0.00158805 0.00348178
O 5.54961340 13.77372737 27.05911863 -0.00225511 -0.00605610 0.00327301
O 8.26758121 10.79908692 32.86476073 0.00354030 -0.00376190 -0.00345913
O 7.16128006 15.69100774 31.80509337 0.00713755 -0.00042271 -0.00301533
O 4.95963530 14.74037165 33.03602840 0.00382092 -0.00101565 -0.00406135
O 3.40666847 19.62561611 31.93868894 -0.00462278 0.00657017 0.00178454
O 7.82359582 14.82553962 25.87427928 -0.00188304 -0.00546922 0.00345037
O 9.27939150 9.23059956 27.15654455 -0.00646540 0.00217057 -0.00034307
O 7.95216874 28.17139336 2.35678774 -0.00485843 0.00416127 0.00343473
O 8.68388086 22.78153864 3.41212754 0.00026687 -0.00209271 0.00745723
O 11.16707604 20.57546349 9.50925697 0.00076267 0.00072392 0.00292865
O 10.25114828 25.17462144 8.37057110 -0.00226340 0.00532063 0.00499068
O 8.25584395 24.40499732 9.71232521 -0.00338327 -0.01247078 -0.00041684
O 6.53810779 0.19389141 8.50662566 -0.00007654 -0.00097191 0.00343254
O 10.68062568 24.01928204 2.44559662 -0.00216120 -0.00103858 -0.00332718
O 12.38078680 19.01721116 3.40201177 0.00087493 -0.00072692 -0.00059522
O 5.84324749 27.87261903 14.47533976 0.00017881 0.00106138 -0.00177465
O 6.96066983 23.30218533 15.33013744 0.00106328 0.00362846 -0.00162244
O 9.78505723 20.58915427 21.19283667 0.00394200 0.00177736 -0.00598424
O 8.62234083 25.80500082 20.33557884 0.00577322 0.00569124 -0.00383412
O 6.60903731 24.43148404 21.28151303 -0.00409948 -0.00408605 0.00348475
O 5.09796899 0.13239186 20.02154990 0.00229135 0.00006787 -0.01015324
O 9.09095939 24.44742840 14.12603202 0.00484651 0.00100859 -0.00761096
O 10.61914438 19.40799559 15.48133800 -0.01053517 -0.00225716 -0.00220888
O 4.40127885 27.93425500 25.87550701 -0.00531392 -0.00197038 -0.00285386
O 5.44436847 23.25046368 27.25186378 0.00811890 0.00156342 0.00012852
O 8.28236119 20.04018304 33.49507611 0.00290875 -0.00133789 -0.00449326
O 7.22695457 25.46598474 32.28912455 0.00071860 -0.00274423 0.00358607
O 4.93438527 24.49469993 33.09873428 0.00208249 0.00256084 -0.00192833
O 3.61738486 0.23163427 32.00377104 -0.00532447 0.00158604 0.00107796
O 7.67604341 24.13543235 26.18356061 0.00662645 -0.00064671 0.00342581
O 9.05870349 19.36075110 27.26625559 0.00018028 0.00319999 0.00491379
O 14.44388014 8.43747911 2.47631508 0.00760242 -0.00269364 -0.00231350
O 15.83343773 3.56766179 3.16574845 0.00837103 -0.00251407 -0.00419593
O 18.22086480 1.01278746 9.28090950 -0.00002044 0.00525063 0.00125958
O 16.94768214 5.57449348 8.15759769 0.00376057 0.00080924 0.00295296
O 14.94505104 5.08130517 9.55053440 -0.00030583 -0.00263891 0.00060050
O 13.44369070 9.61561676 8.54787183 -0.00085998 -0.00004597 0.00153290
O 17.85231688 4.75112476 2.32324807 0.00800326 0.00279203 -0.00256952
O 19.47872977 28.65798270 3.63129755 0.00208973 -0.00270945 0.00506106
O 12.53932086 8.50191016 14.35727892 -0.00066241 -0.00326826 -0.00306406
O 14.03001174 3.81407190 14.93568592 0.00135845 0.00102334 0.00178678
O 16.48436044 1.26344923 20.98095463 0.00298235 0.00033439 -0.00235923
O 15.51809457 5.82014649 19.82541348 0.00242439 0.00330117 0.00046540
O 13.40146968 5.22957822 21.02022230 0.00517848 0.00810552 -0.00224329
O 11.85510625 9.62328374 20.09411875 -0.00857496 -0.00570733 -0.00544969
O 16.14760262 4.96541804 13.80151392 0.00283927 0.00842916 0.00257680
O 17.78167733 0.20211037 15.36372123 0.00381120 -0.00403112 -0.00199521
O 11.64871007 8.46924628 26.21232261 -0.00796071 0.00435899 0.00319534
O 12.49249489 3.65127068 26.96852179 0.00039812 -0.00291050 -0.00485980
O 15.35007973 1.15779368 33.04225381 0.00230171 -0.00541830 -0.00008512
O 14.17347885 5.61427893 32.11994303 -0.00102265 -0.00015351 -0.00241121
O 11.88344251 4.85418552 33.22231688 -0.00020867 0.00361213 -0.00040751
O 10.43461402 9.61332958 31.83590074 0.00100055 0.00231959 -0.00421854
O 14.58225878 4.87572643 25.90254600 0.00167272 -0.00112390 -0.00475507
O 16.02163962 28.92020996 26.98810760 0.00229685 0.00301538 -0.00658509
O 14.61663140 18.25244690 2.34700997 -0.00235965 0.00396023 -0.00000001
O 15.58399380 13.18125532 3.63526003 -0.00000133 0.00230618 0.00390144
O 18.14167841 10.68779357 9.40380566 0.00644397 0.00333649 0.00034420
O 17.10556056 15.13903972 8.31742395 -0.00307283 -0.00261770 0.00647684
O 14.86242759 14.47395074 9.43655333 0.00083400 0.00684762 0.00255901
O 13.41896741 19.63704168 8.19408389 0.00018632 -0.00170123 -0.00256639
O 17.76544262 13.97720038 2.43136995 0.00770109 -0.00332915 0.00366787
O 19.31963753 9.53416513 3.81735732 -0.00169220 -0.00061454 0.00725538
O 12.89990445 18.81243821 13.95853125 0.00237889 -0.00427490 0.00106333
O 14.01985006 13.27855857 15.33335253 0.00062441 0.00490919 0.00046273
O 16.60065956 10.40617573 21.45932035 0.00031282 -0.00276145 -0.00177706
O 15.30451793 15.54085081 20.01314950 0.00195482 0.00219891 -0.00209037
O 13.18934540 14.40308790 21.09830545 -0.00108536 -0.00273526 0.00290051
O 11.76622201 19.32329374 20.14905228 -0.00576447 0.00206442 -0.00384840
O 16.04267768 14.38326972 14.01452249 -0.00572205 0.00164987 0.00044285
O 17.81620761 9.81507157 15.51561822 0.00469215 -0.00215563 0.00634439
O 11.27029843 18.13087717 25.92093851 -0.00356742 -0.00421825 0.00085341
O 12.47485077 13.26786487 27.31693148 0.00008795 -0.00292994 -0.00340800
O 15.14694956 10.64535143 33.20289549 0.00344094 -0.00043361 -0.00278993
O 14.03161028 15.70236262 31.89933382 0.00175229 0.00266450 -0.01026267
O 12.08698434 14.59651406 33.19304828 -0.00115868 0.00016737 -0.00053072
O 10.33688335 19.73651855 31.99217272 -0.00292093 0.00893467 0.00102949
O 14.46669667 14.35396376 25.89673111 0.00083858 -0.00865500 0.00581867
O 16.31028676 9.32997997 27.47794260 -0.00424411 -0.00326827 0.00216895
O 14.57000460 28.07743547 2.47741811 -0.00041680 -0.00174142 -0.00474573
O 15.88295328 23.19576828 3.65349059 -0.00064373 0.00276090 -0.00480051
O 18.15582763 20.28902994 9.92096080 0.00685688 -0.00028752 -0.00543816
O 17.13294837 25.30163449 8.36077618 -0.00226533 0.00309876 0.00469495
O 15.17714987 24.67495454 9.79681701 -0.00097983 0.00384794 -0.00570617
O 13.64232755 0.16945061 8.07165653 -0.00323855 0.00232101 0.00139558
O 17.76263576 24.10172915 2.26053110 0.00100285 0.00343321 -0.00115072
O 19.28357042 19.02640121 3.68519653 0.00179047 -0.00336044 0.00443059
O 12.74429094 28.36436215 14.33639803 -0.00444660 -0.00171401 0.00040558
O 13.88161327 23.70888922 16.11948536 0.00182433 -0.00761774 -0.00089007
O 16.39211345 20.49621417 21.43655644 0.00043389 0.00247822 -0.00705766
O 15.49290482 25.50390140 19.97777072 -0.00642793 0.00464872 0.00238300
O 13.33337743 24.67660046 21.21140998 0.00061928 -0.00151825 0.00144441
O 11.72411393 0.48318581 19.73971247 -0.00059332 0.00119746 -0.00288413
O 16.03486203 24.52004847 14.43854413 0.00213680 0.00322991 -0.00057536
O 17.46004846 19.51272010 15.75335593 0.00168055 -0.00260921 -0.00407651
O 11.16861968 28.04533292 26.10922810 -0.00036652 -0.01103932 0.00306968
O 12.49132857 23.28059630 27.27549800 0.00067118 0.00110614 0.00189296
O 15.16348663 20.45538779 33.10291872 0.00187454 0.00585422 0.00060870
O 14.34560165 25.35083943 31.91873207 0.00543477 -0.00426808 0.00504634
O 12.22819125 24.27895141 33.28694925 0.00509363 -0.00339385 -0.00155010
O 10.66071111 0.13273543 32.08991741 -0.00160157 0.00069458 0.00012293
O 14.76568185 23.88322981 26.36627985 0.00466028 0.00491955 -0.00489513
O 16.01008126 19.52055852 27.01783547 0.00611496 0.00034164 -0.00117032
H -0.20267336 8.84004354 2.93928544 0.03240818 0.00691469 -0.00333559
H 3.01429284 3.78746109 3.07929817 0.00796330 0.01835064 0.01697117
H 5.24552215 0.70236651 9.20765772 0.02199850 -0.01660956 0.00302567
H 2.17449571 5.29234023 8.45842124 -0.01234793 -0.01536766 -0.01203668
H 5.66977658 8.28067750 0.86691381 -0.01851389 0.01165273 -0.02103547
H 3.98034193 3.13496288 5.07230979 -0.00021259 0.02433788 -0.00399371
H -0.31745799 1.17867309 11.14771996 -0.02135286 -0.00760238 0.00991053
H 1.14023099 6.38739348 6.72451500 -0.03212323 -0.00352744 -0.03290428
H 3.89003466 6.86350935 10.78246019 -0.00592366 0.00887990 0.00907253
H 3.92454431 1.73002514 7.11459058 0.02246660 0.00619677 0.01846549
H 1.18506362 3.01351700 1.26007445 0.00889895 0.00054106 -0.00638973
H 1.26459186 8.20613635 4.94653050 0.01149628 0.01466563 0.00443386
H -1.86439443 5.61705576 35.49065933 -0.01850093 -0.03869317 0.01934249
H -0.08921680 0.43825471 6.03474648 -0.02302531 0.00559013 -0.00841294
H 2.43087454 4.30103873 11.82461500 -0.01370955 -0.01552112 -0.00676571
H 5.32748886 8.68623031 5.85672330 -0.01017464 -0.00186335 0.01479228
H 2.72970065 7.00317768 2.02237554 -0.00293381 -0.00967662 0.01977910
H -0.00435510 1.91393051 4.09987234 0.00389004 0.01297096 -0.01554272
H 2.39729116 2.72487848 10.08428688 -0.00699117 0.00300489 0.00240985
H 5.20193628 7.28900316 7.69363928 0.01708564 -0.00780068 -0.01777947
H 4.81927349 4.97854523 9.63648807 -0.01424705 0.02387816 -0.00342247
H 2.96436494 29.04516508 8.31432957 0.02050223 -0.00296916 -0.00492792
H 0.47395088 4.94940505 2.07335200 -0.01646492 -0.01316518 0.01562777
H 2.32756115 9.37047516 3.52078756 -0.00503419 -0.01318159 -0.00699023
H 7.20528326 3.42441155 7.74231074 0.00707583 0.01366738 0.01157205
H 2.10062766 8.56259402 9.97923536 0.00087201 0.01330021 -0.01956988
H -0.15848170 5.72327145 4.07605291 -0.01335498 0.00444017 -0.00535501
H 4.96172862 0.77244945 1.29348009 0.00210933 0.01405869 -0.02841728
H 19.12140448 3.14285339 8.05327777 0.00813856 0.02053619 -0.02954553
H 1.12655785 7.32960314 9.19994661 0.00692239 0.02070352 0.00230569
H 4.47666486 5.71514825 4.59194616 0.02472953 0.02329866 -0.02797450
H 3.35536180 0.06760720 1.31153104 -0.00810852 0.00009711 -0.00116324
H 0.10505625 2.31582012 8.40524252 0.00537871 -0.03204415 0.00118495
H 0.40763171 8.34011051 10.44127965 -0.02137293 -0.02594918 -0.00146256
H 6.25643884 5.51715540 4.57864493 0.01821378 -0.03515574 -0.00227788
H 3.68921991 1.68486493 2.12520724 -0.03541752 0.00821232 0.00440432
H -1.72731581 8.82324000 14.47282618 0.00874665 0.01764324 -0.01350881
H 1.16195258 4.23610281 15.19679381 -0.01064806 0.00342333 0.01182484
H 3.83932001 0.90089869 20.99278673 0.00401948 0.00818773 -0.00679256
H 1.08488042 5.66976618 20.42669849 -0.00239800 0.00721114 -0.02668112
H 4.35250972 8.90816839 12.48174080 0.00671303 0.00655218 -0.00072193
H 2.21510064 3.64902609 17.25966835 0.02169302 -0.00032766 0.00338852
H -1.98253272 1.53155249 22.53390778 -0.00043171 0.00652271 0.01148894
H -0.15014534 6.75233255 18.82415036 0.01463570 0.00224402 0.00874630
H 2.40887004 6.68108014 22.87648304 0.00796143 0.00636774 0.02865608
H 2.09399946 2.03720249 19.15032956 -0.00986941 -0.00787975 0.00995957
H -0.29905813 2.84349606 12.89616963 0.00046287 -0.00971639 -0.02770926
H -0.09060503 8.01701555 16.73369822 0.00234724 -0.01204457 -0.00500507
H 0.88927444 5.29078850 11.56808178 -0.00612374 0.00742560 -0.00712938
H -1.74262663 0.70442313 17.82434604 0.00503794 -0.00976696 0.01033371
H 0.99803377 4.38567247 24.12497871 0.00017070 -0.00457644 0.01395467
H 4.06733433 8.88955550 17.47524825 -0.02255307 0.01002218 0.02722919
H 1.05694215 6.86108360 13.45097932 -0.00231644 0.01106250 -0.01978403
H -1.66712140 2.35455832 15.97718479 -0.00081485 -0.00482256 -0.00984306
H 1.04206025 3.02092090 22.10531805 0.00067082 -0.00528308 -0.02751324
H 4.04048382 7.35210464 19.35947606 -0.02532407 0.00662105 0.02190074
H 3.44354042 5.19510961 21.49686420 0.01913885 0.02865225 0.01448813
H 1.15500900 0.22917454 20.11581906 0.00977815 0.01791730 0.00258743
H -1.24930499 4.52959779 14.00992763 -0.00274648 -0.00338198 -0.01020740
H 0.94448571 9.77608304 15.64573540 -0.00604336 0.03407878 0.00728130
H 5.82666914 3.60325390 19.48750489 -0.00803433 0.00365727 -0.02788747
H -0.32461534 7.76045010 21.16027324 -0.03620753 0.00508689 0.00331040
H 16.79091056 6.86618426 15.53250282 -0.00381300 -0.00494633 -0.01552318
H 1.46740943 0.41489972 13.55653480 -0.00183707 0.00975893 -0.01653211
H 17.65129792 4.53324554 19.00498377 0.01034880 0.01340906 -0.01344966
H -1.13497027 8.95265178 22.31968581 0.00584804 -0.00432824 0.01794860
H 3.95451084 5.20641345 16.57056717 0.00683672 -0.01634601 0.02467712
H 2.11368635 1.98377991 13.88379107 0.03153148 -0.00494728 -0.01258577
H -2.55408750 3.06081719 19.88778694 -0.01353205 0.00953168 0.02527967
H 0.68994469 8.86970822 22.02700402 -0.02513889 -0.00352334 0.02069448
H 4.87430765 6.41614099 15.60976658 0.02088807 0.01548063 0.00079770
H 3.25588061 0.80121446 13.17061126 0.00522650 0.01074304 0.01562787
H -3.10268542 8.90749051 26.37745500 -0.00845506 -0.02526763 0.02399692
H -0.65875076 4.15014359 27.05034028 -0.02119181 -0.00102823 -0.00601845
H 2.25384984 0.74204721 32.82130652 -0.00075971 -0.02076357 0.02628035
H -0.53761032 5.85979077 32.62348485 0.00132300 -0.01486872 -0.00866208
H 2.52132289 8.46045678 24.32057697 0.01456644 0.02697598 0.00245971
H 0.51633303 3.58512124 29.02219879 0.00674852 -0.01751757 -0.01439685
H -3.33658459 1.48904482 34.81921132 -0.02504142 0.00599744 0.00609248
H -1.47247229 6.20633723 30.44544451 -0.03141152 0.01486442 -0.00248569
H 1.01316292 6.67761663 34.53052864 -0.01327266 -0.00600807 0.02142213
H 0.83164969 1.95684108 30.81291758 -0.01363757 0.00066262 -0.01239416
H -2.04816542 2.83138634 24.64359600 0.02409049 0.00549053 0.01570071
H -1.51305744 7.62584907 28.35047712 0.02128851 0.01059785 -0.00387432
H -0.52002282 5.36415297 23.26526255 0.00210398 -0.01461394 0.03018328
H -2.98777914 0.20186606 29.79296725 0.00350184 0.01275354 -0.03311143
H 4.26653394 4.22820159 0.26272480 -0.01702989 0.00332578 -0.00991066
H 2.30167472 9.27785672 29.58478399 0.00063146 0.01256625 0.01073692
H -0.51388844 6.65567790 25.34398158 0.01899002 -0.01604564 0.01565334
H -3.32707110 1.99628912 28.08473129 -0.00234396 -0.01675827 0.00083599
H -0.65952254 2.69409659 34.23855510 -0.01227503 -0.00318834 0.01479403
H 2.16429160 7.99446230 31.70350329 -0.01478557 0.00979049 0.00920775
H 1.99103131 4.79924800 33.65016210 0.01514983 -0.01815091 0.01412465
H -0.00489065 0.33193367 31.90641389 -0.01617839 0.00033565 0.00682811
H -2.87026097 4.54590626 25.77295798 -0.01376102 -0.01844388 -0.00600724
H -0.57144815 9.42658633 27.27553576 0.01694321 0.02765797 0.02092237
H 4.51140795 3.91815647 31.17718123 0.00728676 -0.00647214 -0.01822532
H -1.96498112 9.08901867 34.40176089 -0.02772136 -0.00077144 0.01608479
H 16.11433312 6.90117331 26.99808015 0.02429582 -0.00275301 0.00365267
H 1.23381683 1.35302623 25.11325220 -0.00072572 -0.00277001 -0.04871723
H -4.08537458 3.36379271 32.02287769 -0.00481763 0.03542360 0.01923411
H -0.60961397 8.58556765 33.36963133 -0.00184995 -0.00186486 -0.04426227
H 3.08797379 5.17112076 28.34824426 0.00111917 0.00648599 -0.01368252
H 0.25198155 2.27560000 26.38070143 -0.01106082 -0.00930514 0.01678183
H -2.69194718 2.41448147 32.65721096 0.00670858 0.00997526 0.00011364
H -2.21645916 7.77064352 33.34119043 0.01098459 0.02526743 0.02072170
H 2.97333572 6.80210359 27.45187245 0.01512732 -0.00058853 0.01209145
H 2.01988061 2.26011069 26.28320150 0.01433614 0.03359294 -0.03384726
H -0.14186894 18.48130263 2.79685916 0.01049572 0.00655304 0.00402086
H 2.65898360 13.68619450 3.33187187 -0.02792827 -0.00840934 -0.00741917
H 5.15529858 10.23499186 9.02216156 0.00552483 -0.00885362 -0.01376918
H 2.36544969 15.27367017 8.65768118 -0.00606420 -0.01659429 -0.01440513
H 5.61642217 17.96203187 0.77795344 0.00998852 0.00026215 -0.01924062
H 3.63037349 13.06750897 5.36926484 0.00465404 -0.00324076 -0.00398689
H -0.46365127 10.86942591 11.14577801 0.00196365 -0.00663467 -0.02724523
H 1.29343803 15.93403490 6.72217895 -0.01027996 0.00933355 -0.02003582
H 4.15008290 16.19377345 10.39603355 -0.01372173 0.02137222 -0.01484967
H 3.76322943 11.13096970 7.12300203 -0.00279871 0.00547174 -0.01724489
H 1.31977533 12.80665473 1.14130980 0.00797015 0.01591427 -0.00129493
H 1.42130030 17.51309781 4.77021132 -0.02608959 0.00307278 0.00892824
H -1.78725023 15.25390266 35.46592759 -0.00142971 -0.01729026 0.04278277
H -0.27900179 10.29023320 6.27913258 0.01472025 -0.00340432 -0.03517577
H 2.57296334 14.00641152 11.70968280 -0.00289996 -0.01978995 0.00578149
H 5.41424243 18.82407464 5.91414977 0.02194418 -0.00652848 0.00521217
H 2.80221799 16.80128686 1.65652163 -0.01568925 -0.02108350 0.02790937
H -0.09079286 11.65681663 4.18746699 0.00474778 -0.02166788 0.02444557
H 2.37570788 12.12495059 10.11580620 0.01651040 -0.01407949 -0.02409028
H 5.31173214 17.20723122 7.75413782 0.03983638 0.03714812 -0.03300404
H 4.97719086 14.77573675 9.31242644 -0.00951287 -0.01572629 0.01721035
H 2.67548159 9.50860353 8.33132093 -0.01098751 -0.00316238 -0.02139517
H 0.31272749 14.22088469 2.31314909 0.00428534 -0.01265430 -0.01440221
H 2.25767345 19.25296628 3.98974679 0.03141897 -0.00716723 0.00559081
H 6.82236698 13.56094567 7.22473553 0.01593828 0.00906047 0.00477334
H 0.30858208 18.46170669 10.54284559 -0.04075865 0.00060174 0.00056206
H 18.35088287 16.21295846 3.68332445 -0.00771652 -0.00767214 -0.00707967
H 3.76856267 9.96771615 1.44355212 0.00030650 -0.02875027 -0.01119601
H 0.15444689 12.13286580 8.41749800 0.01030439 -0.01298890 0.01158711
H 2.00393931 18.32357629 10.37362132 0.02241491 0.00419169 0.00915538
H 4.77100637 16.28863641 3.90612800 -0.00575847 0.02036716 -0.01215398
H 3.21762224 11.40320959 2.33152978 0.00203241 -0.00118139 -0.01513561
H 0.62231506 13.54312363 7.32201726 0.00482413 0.00205801 0.01167432
H 0.97371485 17.15350754 9.47187279 -0.00984741 -0.00244442 0.00282727
H 5.70601278 15.07463120 4.72918429 -0.00953521 -0.00953893 0.02071313
H 4.91338974 11.15042648 1.79976414 0.01770934 -0.01036979 -0.02731453
H 18.54853012 18.52138465 14.59262959 0.00098508 0.00720716 0.01085096
H 1.16955219 13.80113778 14.96386815 0.02124472 0.02784386 -0.01400550
H 3.65805895 10.18412124 21.18203601 -0.00710649 0.00446101 -0.01500387
H 0.66153425 15.32292445 20.44933290 -0.00431872 -0.00282936 0.01048932
H 4.16184876 17.86608953 12.46540830 0.02514616 -0.00571899 0.00552062
H 2.32406407 13.06666558 16.96642335 -0.01235742 0.00390999 -0.00233426
H -1.86931377 11.19561715 22.91844984 0.03563562 -0.00168331 0.00893842
H -0.33044779 16.12735671 18.56498820 0.01017888 0.00605147 -0.02349860
H 2.48912451 16.37990801 22.62901620 -0.01526407 -0.00169997 -0.00195006
H 2.36395581 11.80012134 18.98213973 0.00679085 0.00156348 0.00869598
H -0.53413244 12.58763936 13.09383285 -0.00334528 -0.01040135 0.01797255
H -0.41351612 17.35212654 16.62978354 -0.00809547 -0.03054678 0.01098242
H 1.08582462 15.10997677 11.96699875 0.01160569 -0.00186042 0.00098235
H -1.62335864 10.27930202 17.95164238 0.00054548 0.00802677 0.00595034
H 0.86935910 13.87039245 24.03166306 0.02006926 -0.00110442 0.04052102
H 3.54261420 18.91175350 17.54443946 -0.00275928 0.02177997 0.01139101
H 0.80043044 16.73087818 13.86615058 -0.01903426 0.02168162 -0.01375473
H -1.69622587 11.93847882 16.06432902 0.00355392 0.00972048 0.01366702
H 0.77085995 12.06589636 22.25948888 0.00349004 0.01056881 -0.03011416
H 3.52856100 17.35364187 19.49783991 0.00632775 -0.00046306 0.01281805
H 3.60716198 14.49275083 21.75668750 -0.01867942 -0.01321004 0.01314186
H 1.41513013 10.00004914 20.09703058 0.00543322 -0.02212023 0.00373196
H -1.32991740 14.50316122 13.87167856 0.00533745 -0.01865426 0.00674831
H 0.61053826 18.97917059 15.28723357 -0.00128400 0.02066582 -0.00582320
H 4.82086185 14.31802803 19.25575434 0.01431471 -0.00006538 -0.00533811
H -1.50007594 18.50199410 22.12902627 0.00776273 0.01629445 -0.02748402
H 17.59910317 14.59424026 16.39378810 0.02626050 0.00386357 0.01101618
H 2.14053811 11.79355810 14.43874283 -0.02070926 -0.00583684 0.00161739
H 17.68371228 13.14643141 19.93655156 0.00394589 0.01265959 -0.00667297
H 0.19672097 18.55017930 21.84609600 -0.00183409 -0.00610845 -0.02928370
H 4.45870363 16.45218495 15.17689187 -0.01310311 -0.00138517 0.00383641
H 3.68139839 11.31006862 13.60720971 -0.02457921 0.00024505 -0.01613089
H -1.26040742 12.71773426 19.62085812 -0.02804833 -0.00596521 0.01023188
H -0.81547121 17.30250531 21.11354164 0.02614103 -0.00798171 0.01540643
H 3.05088221 15.95457907 15.99889980 -0.01156191 -0.00876701 -0.02331706
H 2.22162255 10.38529742 13.32745715 -0.00854811 0.00059906 0.01048656
H -3.38759718 18.75251607 26.36793040 0.01499658 0.00163960 0.02948112
H -0.40676772 13.76617146 26.78108736 0.01064682 -0.03437738 -0.00420561
H 2.55663586 10.55229596 32.64300736 -0.01613789 -0.01088871 -0.00920178
H -0.57995100 15.42170785 32.31673732 -0.00300408 0.01528218 0.00314647
H 2.37109895 18.15419567 24.34873953 0.01347825 0.01495754 -0.01668223
H 0.73008382 13.14336869 28.78440512 0.01061008 -0.02245032 -0.03119482
H -3.39114280 10.95514337 34.92680555 -0.00234064 -0.00834897 0.02475618
H -1.54967494 15.74701914 29.94820631 0.02787714 -0.02877234 0.00814074
H 0.94880717 16.72954103 34.25165412 0.00514614 -0.01593675 0.01181959
H 0.79383157 11.51845775 30.62987399 -0.00302654 -0.00920921 0.00045920
H -1.94154767 12.76767850 24.82456785 -0.01921650 0.00726590 -0.00630630
H -1.76862064 17.24845040 28.11886100 0.00151061 -0.03127216 -0.02446089
H -0.61849722 15.23325872 23.49308551 -0.00835456 0.01698458 -0.02800438
H -3.23825979 10.34354044 29.64674377 -0.00389482 -0.00737021 -0.01317579
H 4.20403229 13.86231484 0.12717455 -0.01331536 -0.00174113 -0.00402257
H 2.04879396 19.03866332 29.13477875 0.01898332 0.01211669 -0.01226542
H -0.44724976 16.80272588 25.27376926 -0.01006023 -0.02247207 -0.00312845
H -3.28316795 12.18841315 28.05914878 0.01812762 0.00361007 -0.02623241
H -0.38509618 12.40741956 33.86309611 -0.01009051 -0.01396507 0.02288549