2160
Time=14000.00000000 pbc="T T T" Lattice="20.61992777 0.00000000 0.00000000 0.00000000 28.80472159 0.00000000 -4.73388700 0.00000000 35.63262936" energy=-13792.86556125 virial="-5.70484831 21.48750801 54.00819053 21.48750801 -51.72413868 6.80283339 54.00819053 6.80283339 -38.55369566" stress="0.00250105 0.00091762 0.00266754 0.00091762 -0.00021389 0.00024521 0.00266754 0.00024521 0.00048250" Properties=species:S:1:pos:R:3:vel:R:3
O 0.99538041 8.59935078 2.40531094 0.00023387 0.00551918 0.00481868
O 1.83683411 3.44411828 3.42342378 0.00443181 -0.00138317 -0.00035024
O 4.46145751 1.17996724 9.57465291 0.00067778 0.00480602 0.00814836
O 3.20673666 5.98357241 8.51372276 0.00619989 -0.00391900 0.00449382
O 1.21288543 4.74005257 9.60715472 -0.00102070 -0.00286078 0.00104888
O -0.33170727 9.74163661 8.29577391 -0.00001511 0.00201334 -0.00279784
O 3.93236800 4.64579229 2.50965137 -0.00232296 0.00245160 -0.00007372
O 5.44176204 28.73250707 3.50977320 -0.00177729 0.00046730 0.00207563
O -0.91920351 8.48129221 14.33315453 -0.00001043 -0.00031538 -0.00025418
O -0.12648258 4.07645632 15.51463749 -0.00473025 -0.00746400 0.00035921
O 2.75578417 1.32594726 21.09615569 -0.00306438 0.00094642 0.00211865
O 1.79385327 5.91395523 20.38066357 -0.00123848 0.00083056 -0.00550186
O -0.28560395 4.93870293 21.48104514 -0.00302569 -0.00780839 -0.00889716
O -1.84835470 9.75679618 20.17968824 0.00188898 -0.00040041 0.00017545
O 2.33247090 4.63985481 14.35355220 0.00142642 -0.00363754 0.00474422
O 4.08190152 0.12481252 15.58531018 0.00217934 -0.00372210 0.00361166
O -2.44858456 8.76666549 25.95633384 -0.00624946 0.00353219 0.00194262
O -1.31659043 3.66828160 27.39645599 0.00245147 -0.00270264 0.00145511
O 1.31421362 1.15307312 33.25637309 0.00056236 -0.00226025 -0.00484874
O 0.34477572 5.84288119 32.03244988 0.00143510 0.00363058 -0.00077372
O -1.93452507 4.73525762 33.22620647 0.00066272 -0.00028556 0.00360143
O -3.17150388 10.04184158 32.25560113 0.00669888 -0.00364852 -0.00697304
O 0.72528446 4.54140751 26.19319134 0.00608526 -0.00024602 0.00179489
O 2.40657755 0.06154387 27.48520579 -0.00539869 -0.00256995 0.00051838
O 0.57929211 18.02927812 2.40435642 -0.00218762 0.00171739 -0.00562448
O 1.83687308 13.29592100 3.55628582 -0.00415844 0.00035591 0.00041722
O 4.67331177 10.74012092 9.19153202 -0.00683108 -0.00199536 0.00526200
O 3.30852951 15.52134553 8.32247207 0.00558957 -0.00334639 -0.00018918
O 1.18049695 14.51158234 9.38935695 0.00387787 0.00181196 -0.00345945
O -0.31704409 19.40267718 8.28096560 -0.00061077 -0.00244399 0.00103009
O 3.96935663 14.35546679 2.28165654 -0.00341161 -0.00296858 0.00348728
O 5.43786526 9.44159445 3.57205458 -0.00261477 0.00125209 -0.00527919
O -0.70165390 18.02412050 14.32116382 0.00768017 -0.00268403 -0.00208965
O 0.36671833 13.36333602 15.23344234 0.00067835 -0.00218113 0.00129385
O 2.93242907 10.63199565 21.48970282 -0.00077057 -0.00219164 -0.00015302
O 1.64688087 15.58606445 20.45674623 -0.00498564 -0.00096444 0.00441870
O -0.28435430 14.35544740 21.51158899 0.00396232 0.00451293 -0.00493290
O -1.82163791 19.43399195 19.96577260 0.00172693 0.00360242 -0.00180079
O 2.34175686 14.42688242 14.06245850 -0.00267265 -0.00056428 -0.00003851
O 3.89210965 9.45069837 15.43551615 -0.00582032 0.00127856 0.00107613
O -2.48074644 17.93103417 26.34164820 0.00516746 -0.00014848 -0.00085280
O -1.19955580 13.35657070 27.12969250 -0.00328464 0.00524272 0.00387627
O 1.25167874 10.50772540 33.50282813 0.00138253 -0.00603690 -0.00046772
O 0.16635044 15.80739314 32.16974442 0.00028688 0.00634467 0.00158690
O -1.77977744 14.41784765 33.12990288 0.00348167 0.00116003 -0.00145845
O -3.17458767 19.19815840 31.62585753 0.00311134 -0.00080342 -0.00108620
O 1.09338120 14.62764656 26.13673410 -0.00003020 -0.00183454 0.00208593
O 2.37549119 9.40089222 27.31394285 -0.00588316 0.00285998 0.00058069
O 0.65188769 27.52963318 2.34194350 0.00537932 -0.00100801 0.00363421
O 1.72097837 22.76267431 3.38787800 0.00208620 -0.00414375 -0.00561911
O 4.57377875 20.11242793 9.53692137 0.00221349 -0.00133976 -0.00079717
O 3.40803255 25.15950468 8.49062177 -0.00241337 0.00576519 -0.00241930
O 1.47300188 24.03524532 9.71265328 0.00457231 -0.00286807 0.00006446
O -0.11246216 0.28357838 8.50597847 -0.00130213 -0.00086843 -0.00057700
O 3.93896450 23.55230145 2.37432233 0.00233717 0.00306684 -0.00672535
O 5.45610240 19.19312366 3.80690652 -0.00195508 -0.00694591 -0.00032615
O -0.81789207 27.86775786 14.27367930 -0.00249108 0.00197957 -0.00187845
O 0.44666461 22.89497730 15.17227180 -0.00394379 0.00174373 -0.00140671
O 3.16888124 20.54772888 21.14811204 0.00382107 0.00100949 0.00315783
O 1.73978773 25.16076132 20.24002267 -0.00111435 -0.00159735 -0.00356582
O -0.15597155 24.04443459 21.44180000 0.00182160 0.00249262 -0.00082890
O -1.91830430 0.24719339 19.93475823 -0.00152293 0.00219787 0.00195725
O 2.65791546 23.93550972 14.14086243 -0.00244109 0.00116976 0.00029711
O 3.98903413 19.35191462 15.83728581 0.00157777 0.00064411 0.00310431
O -2.45570036 27.45369955 26.36585400 -0.00548581 -0.00307968 0.00451631
O -1.19660701 22.77195275 27.04027006 -0.00162721 0.00091756 0.00798758
O 1.52752298 20.14110639 33.08409335 -0.00379005 0.00187381 -0.00006139
O 0.25408402 24.86152557 32.12753962 0.00176681 0.00247178 0.00189895
O -1.83104559 23.91581417 33.25907823 0.00363624 0.00226157 -0.00187455
O -3.35610694 0.07406196 32.17059460 -0.00180767 -0.00126343 0.00331690
O 0.86697474 23.99766754 25.86188260 0.00253098 0.00144111 0.00241609
O 2.52878516 19.12162408 27.24870590 0.00268185 0.00449700 -0.00225480
O 7.55495080 8.48309585 2.54093940 0.00289060 0.00035737 -0.00303070
O 8.80577130 3.77735773 3.46103454 0.00626536 0.00106080 -0.00038770
O 11.50251878 0.92125677 9.59138233 0.00049298 0.00113915 0.00414911
O 10.19717782 5.68310617 8.55330298 0.00312997 -0.00355624 0.00261417
O 7.98973798 4.62604800 9.70055739 -0.00285331 -0.00200813 -0.00290005
O 6.57393031 9.50914269 8.00798634 0.00158210 -0.00086582 -0.00313966
O 10.87058320 4.76008570 1.90006877 -0.00562849 -0.00437262 -0.00238323
O 12.23170124 28.53290963 3.34279250 -0.00348020 0.00424598 -0.00092994
O 6.06718798 8.42490780 14.46774203 0.00200946 -0.00496648 -0.00578881
O 7.06322329 4.12008731 15.44697416 -0.00033604 0.00676298 0.00125908
O 9.90420697 1.30609121 21.16551052 -0.00495263 -0.00145984 -0.00623432
O 8.43350830 5.67817724 20.08527953 0.00338999 0.00215329 -0.00276133
O 6.49080758 5.10134253 21.53331628 -0.00198290 0.00216220 -0.00501873
O 5.05874496 9.88912519 20.37143991 -0.00311994 0.00233585 -0.00035952
O 9.30217838 4.62942052 14.16617841 -0.00343935 0.00468660 0.00025907
O 11.00178532 0.22837513 15.63648775 0.00703192 0.00554983 -0.00138557
O 4.54270170 8.66408023 26.26086662 0.00014786 0.00332164 -0.00044576
O 5.64128783 3.62571210 27.17202795 0.00244880 -0.00164645 0.00013377
O 8.23374523 1.03330393 33.01983419 0.00165232 -0.00551738 -0.00315732
O 7.01124137 6.07161608 32.22891669 -0.00395211 0.00336817 -0.00698663
O 5.08120119 4.69051619 33.35803218 -0.00477788 0.00257231 0.00288438
O 3.45608002 9.74642200 32.19704133 -0.00544580 0.00015208 0.00221770
O 7.86607113 4.68210188 26.28809118 -0.00105069 0.00464200 0.00213758
O 9.17658204 28.66140155 27.10476018 -0.00889463 0.00265840 -0.00144256
O 7.45872660 18.10386100 2.36097630 0.00084342 -0.00169498 0.00250577
O 9.01767521 13.23299289 3.64155970 -0.00176952 -0.00206947 0.00113032
O 11.37909163 10.88654714 9.64666298 -0.00342065 0.00219767 -0.00268554
O 10.11417024 15.29017972 8.26759933 -0.00005309 0.00179560 0.00359338
O 8.00027852 14.58534170 9.75797798 -0.00395018 0.00506267 -0.00688912
O 6.64483487 19.35040224 8.19028033 -0.00197557 0.00107212 -0.00385620
O 10.93206277 14.17962141 2.18339625 -0.00362374 0.00318874 -0.00374050
O 12.36509793 9.30387570 3.72453285 -0.00068897 0.00157832 0.00220792
O 5.89244701 18.03643453 14.58726894 0.00084373 -0.00225697 -0.00000419
O 6.97686868 13.00706616 15.16373381 -0.00271242 0.00714043 0.00059748
O 9.83997697 10.65455041 21.32362622 -0.00026129 0.00029726 0.00127006
O 8.72080912 15.39808140 20.19561713 -0.00591654 -0.00151511 -0.00124983
O 6.71552068 14.46876067 21.68623791 0.00095126 -0.00076339 -0.00632421
O 5.01715666 18.98806656 20.08094659 -0.00306429 -0.00242432 0.00047387
O 9.08991243 14.10701675 14.48053046 -0.00453652 0.00524775 0.00213295
O 10.94638984 9.37813231 15.58678261 0.00254301 0.00526847 -0.00245870
O 4.51484761 18.18545911 26.12094596 -0.00179117 0.00007768 0.00123329
O 5.69290341 13.39051716 27.41529610 0.00115176 -0.00296089 -0.00233387
O 8.49288420 10.58769832 33.05183386 0.00028190 0.00269379 0.00589839
O 6.92675709 15.51792591 32.26302595 -0.00524219 0.00543866 -0.00644890
O 4.93085410 14.33290690 33.46678667 0.00083011 0.00016808 0.00181550
O 3.59802760 19.06564826 31.93281003 0.00012042 0.00580814 -0.00240935
O 7.84656883 14.39605352 26.02837172 -0.00156915 0.00107879 0.00262808
O 9.28872355 9.34975910 27.58016752 0.00412149 0.00436761 -0.00136392
O 7.43822217 27.64726751 2.21533979 -0.00201466 -0.00249713 0.00632901
O 8.71696500 22.97730881 3.39382073 0.00201055 0.00039910 -0.00021333
O 11.35003797 20.36237287 9.47102910 -0.00229616 0.00120897 -0.00698605
O 10.37573618 25.19959849 8.37523925 -0.00045977 0.00205692 0.00388000
O 8.29977687 24.24359018 9.58281558 0.00859752 0.00124010 0.00295616
O 6.59425223 0.15016204 8.27222573 0.00342026 0.00041535 -0.00000191
O 10.84771613 23.87871975 2.21144687 -0.00308250 0.00692672 -0.00133025
O 12.47632796 18.95207707 3.70183970 -0.00396227 0.00315420 -0.00571967
O 6.10763777 27.97657550 14.19743120 -0.00091514 -0.00127558 -0.00354142
O 7.28327711 22.95162613 15.59725827 0.00292725 0.00155144 0.00257297
O 9.88097125 20.14707044 21.40253565 0.00633633 0.00208853 0.00028969
O 8.84359918 25.18406929 20.25679286 -0.00221856 -0.00614432 -0.00073381
O 6.58265511 24.24336913 21.45074405 0.00014209 -0.00523882 0.00161293
O 5.04009468 0.46940789 20.18076228 -0.00578947 0.00371085 -0.00080475
O 9.35516299 23.77733424 14.39749882 0.00343011 0.00217535 0.00227399
O 10.96618682 19.35243115 15.76244851 0.00142983 -0.00577817 -0.00490790
O 4.51620911 27.74073091 26.41580049 0.00140248 -0.00784422 0.00408940
O 5.75806627 23.01592701 27.32696143 0.00230590 0.00061426 -0.00335926
O 8.38885841 20.32420909 33.05240776 -0.00923645 -0.00020246 -0.00168902
O 7.13857122 25.11336429 32.07328258 0.00194543 -0.00296776 0.00522275
O 5.14586982 23.71411677 33.20937076 0.00780209 -0.00271571 0.00300820
O 3.36854125 0.07397083 31.95831145 0.00049870 0.00127080 0.00067700
O 7.86135310 24.07094987 26.09188580 0.00235540 0.00504323 -0.00348019
O 9.39087375 19.31058338 27.64867285 0.00553308 -0.00330169 -0.00930890
O 14.50675419 8.33094630 2.48777453 0.00517265 0.00252454 -0.00048222
O 15.42595236 3.69995630 3.54937034 0.00037399 -0.00035780 0.00312885
O 18.33478868 1.17734219 9.47502530 0.00383298 -0.00434431 -0.00223633
O 17.13980269 5.69673978 8.19299362 -0.00611488 -0.00564436 -0.00303927
O 15.05215911 4.89678294 9.44002566 -0.00437770 -0.00227804 0.00323901
O 13.54477389 9.94724081 8.51406255 0.00314292 0.00014609 0.00875272
O 17.53808015 4.62859656 2.50332238 0.00475499 -0.00291956 0.00334064
O 19.36236341 28.70763997 3.58844382 0.00380864 0.00688211 -0.00283609
O 13.03530650 8.55971010 14.25669074 0.00322984 -0.00361149 -0.00030083
O 14.00055661 4.02868871 15.58883026 -0.00070258 0.00221727 0.00076910
O 16.70249200 1.08665759 21.39768657 0.00938793 0.00240200 0.00022316
O 15.39613924 5.64229261 19.81943668 -0.00813914 0.00389452 -0.00069779
O 13.48574981 4.99264637 21.52178755 0.00011537 0.00403053 -0.00278975
O 11.78192715 9.75752268 19.94846419 0.00279638 -0.00539735 0.00044403
O 16.24572748 4.74823368 14.45776654 0.00503314 -0.00410978 -0.00874413
O 17.61797255 28.79026580 15.60960090 0.00129469 -0.00465322 0.00083132
O 11.33352541 8.64561760 26.20479272 -0.00139658 -0.00226239 0.00676803
O 12.41434788 3.66496456 27.14314074 -0.00312565 0.00029369 0.00183491
O 15.07535554 1.04890488 33.17195429 -0.00237113 -0.00086530 -0.00685279
O 14.00412947 5.87122324 32.06658398 0.00272174 0.00659652 -0.00318708
O 11.96104749 4.73471368 33.22883711 0.00246952 0.00498734 -0.00259364
O 10.51713868 9.32894899 31.80674421 0.00163897 -0.00478792 -0.00408865
O 14.38394533 4.81711090 25.75615482 0.00023959 0.00043001 -0.00476563
O 16.19878606 28.74280472 27.32575014 -0.00199885 -0.00065770 -0.00502609
O 14.34159285 18.04143026 2.26399291 0.00263416 -0.00294237 -0.00097969
O 15.74778385 13.19289573 3.50123211 -0.00203212 0.00122648 -0.00076233
O 18.33802171 10.73810825 9.51717796 -0.00137794 -0.00485185 -0.00012406
O 16.94911469 15.31800965 8.47901806 -0.00055353 0.00284827 -0.00548867
O 14.93794388 14.35577105 9.79140756 0.00997564 -0.00213257 -0.00108311
O 13.37493801 19.00414254 8.52694402 0.00181967 0.00278594 -0.00728902
O 17.70181376 14.41951756 2.47009323 0.00177131 0.00328844 -0.00247740
O 19.25858453 9.28697436 3.60692379 -0.00714640 -0.00735203 -0.00211346
O 13.05208135 18.36653779 14.28836183 0.00038507 -0.00004345 0.00072813
O 14.04200891 13.49216044 15.23914162 -0.00741661 -0.00265824 0.00330927
O 16.99669609 10.77841852 21.52544402 -0.00197593 0.00096889 0.00673475
O 15.65054928 15.69216719 20.22983788 0.00152134 0.00136876 -0.00089217
O 13.44998548 14.83000077 21.52838166 0.00776128 0.00099354 -0.00255883
O 11.96092348 19.31539614 19.90760477 0.00115916 0.00271650 0.00199351
O 16.13281548 14.28451059 14.14870821 0.00111501 -0.00262651 0.00100700
O 17.51849419 9.39559893 15.34401748 0.00370034 0.00070334 0.00367380
O 11.28841384 18.25379228 26.30708325 0.00005977 -0.00108213 -0.00517103
O 12.60190467 13.37775113 27.38057207 0.00144169 -0.00356318 0.00475912
O 15.22711247 10.62770607 33.30391643 -0.00049734 0.00035507 0.00295794
O 13.89694978 15.10437980 31.80683573 0.00620416 -0.00520482 -0.00574833
O 11.86427479 14.31276964 33.29724022 0.00193533 -0.00271638 0.00350898
O 10.37087813 18.99827916 31.79326517 -0.00233264 0.00124747 -0.00195784
O 14.52359145 14.52713648 25.91223023 0.00429123 0.00125776 0.00278131
O 16.21866430 9.88945595 27.71144125 -0.00048699 0.00486235 0.00503703
O 14.34828699 27.63483721 2.47456929 0.00277725 0.00618779 0.00471882
O 15.40482081 22.91845932 3.70515483 -0.00213937 0.00011147 -0.00151448
O 18.31072492 20.63323658 9.28320369 -0.00010527 -0.00498669 0.00354654
O 17.22312996 25.09998841 8.32608869 -0.00286136 -0.00408876 0.00062781
O 15.08266703 24.07465156 9.56751426 0.00068255 -0.00283658 -0.00080666
O 13.58477814 0.06981243 8.36296698 -0.00020451 -0.00085678 0.00210318
O 17.67911889 23.47780532 2.44372768 0.00125667 0.00023567 -0.00147728
O 19.21501007 19.03523540 3.75233488 0.00069894 -0.00064325 -0.00423424
O 12.80800871 27.74181384 14.50163843 -0.00370195 0.00259838 -0.00598601
O 14.31555519 22.87019845 15.21108083 -0.00306150 -0.00537716 -0.00702599
O 16.77041125 20.36062569 21.24568501 -0.00479738 0.00121402 -0.00088454
O 15.78481422 24.72642452 20.06142050 -0.00563080 -0.00280493 0.00180279
O 13.51389568 23.98697410 21.19636539 0.00234193 -0.00187931 0.00636067
O 11.95445369 28.53285080 20.09079372 -0.00331484 -0.00546339 -0.00628462
O 16.32317126 24.43519254 13.99428605 0.00172291 -0.00189946 -0.00117981
O 17.94726907 19.45497956 15.53805896 0.00115617 -0.00176144 -0.00203186
O 11.49524628 27.69949029 26.18075638 -0.00362583 -0.00263435 -0.00342417
O 12.61271846 23.01364170 27.37679124 0.00019813 -0.00215734 0.00077362
O 15.37875112 20.26087193 33.16875672 -0.00257570 0.00646082 -0.00007481
O 14.08407925 24.96453646 31.91932725 -0.00517417 0.00130325 -0.00356803
O 11.90905518 24.38568565 33.08743316 0.00078785 0.00736273 -0.00006689
O 10.34631134 0.16706101 31.84097897 0.00061819 -0.00120590 -0.00182251
O 14.58590146 23.95375482 26.15627203 0.00394399 -0.00438434 0.00045331
O 16.12895221 19.04176233 27.43990585 0.00583419 0.00526485 0.00058406
H 0.10842571 8.72857702 2.89462190 -0.00924236 0.00287238 0.00632866
H 2.71148068 3.77974720 3.13279150 -0.00734129 -0.01368261 0.01710021
H 5.40105238 0.83960099 9.26582233 -0.01595098 -0.00711745 -0.01279941
H 2.36523400 5.47352922 8.66432908 -0.00326270 0.01113573 -0.01278489
H 5.63750800 8.17792162 0.86701257 0.02569726 -0.01139839 -0.00238275
H 3.77276965 3.31281534 5.21491957 -0.02641846 0.01836804 0.00588237
H -0.33205105 1.48519438 11.19045632 0.00683655 0.02114348 -0.01185314
H 1.43142394 6.04310453 6.54461633 -0.03271292 0.01308351 0.00272644
H 3.91859568 6.78186142 10.87569481 0.00793862 0.00034616 -0.01755157
H 3.83832368 1.87284110 7.15426033 0.00592494 -0.01476672 -0.00451624
H 1.06346038 3.09563048 1.16466265 -0.00163729 0.01250792 -0.00597705
H 1.58492679 7.37362333 4.64988501 0.02279658 0.01856126 -0.01364209
H -1.88949706 5.24448607 35.52655013 0.00615332 0.00781878 -0.00881469
H -0.15340903 0.58565221 6.28700453 -0.00517167 0.01092351 0.00380657
H 2.65740123 4.61798054 11.87375292 0.01229202 -0.00565667 0.01889402
H 5.29303320 9.01744156 5.88020238 0.01945504 0.00514568 -0.00830572
H 2.73195149 6.61517291 2.04918075 -0.01862352 -0.01875577 -0.00383078
H -0.19225093 2.04888125 4.28689471 -0.01082289 0.02177104 -0.02456107
H 2.51909170 2.72790588 10.09556947 0.01030806 0.01343403 -0.00565668
H 5.32228537 7.41014393 7.87426760 -0.02483070 -0.00547523 -0.01692491
H 4.89150965 5.24657692 9.54972404 -0.04040933 -0.00170967 -0.01133641
H 3.04020664 28.68636898 8.36086710 -0.02663653 -0.00507850 -0.01156540
H 0.04024223 4.66103978 2.14878046 -0.01868811 0.01264573 0.00699044
H 2.44193264 9.09245381 3.55024361 -0.01068067 -0.01439237 -0.00828078
H 6.44881941 2.57265219 8.42669002 0.03627967 0.02191640 -0.01935968
H 1.52448290 8.86412252 10.49788311 0.00294580 0.02732399 -0.00235986
H 19.48404733 6.75903235 3.92126568 0.00159335 0.05141514 -0.00519426
H 2.95697657 0.58801444 1.65773324 0.01606349 0.00556824 0.01814483
H 19.27125728 4.22673464 7.67832208 -0.03266376 0.00470424 0.00045451
H 1.98727024 7.60433069 9.26210694 0.02606984 0.02103155 0.00306714
H 4.93348399 5.90765330 4.60566562 -0.00198288 0.01710784 -0.00575887
H 3.78359565 2.03594471 2.26012449 0.00625376 0.00340628 -0.01116489
H -0.38508542 2.87990348 8.15119021 -0.01365079 0.00988534 -0.01103424
H 0.30940620 7.79336713 9.89599556 0.00770466 -0.00691001 -0.00534509
H 6.47520354 6.13914047 3.82292613 -0.02683928 0.00249552 -0.00072946
H 4.68781507 0.83306019 1.31718458 -0.01174197 0.00388324 -0.00068029
H -1.83628717 8.78269434 14.67529493 -0.02573295 -0.00965903 -0.01522976
H 0.67375269 4.50702897 15.15274316 -0.02110760 0.00195819 0.01573156
H 3.48418295 0.75333413 20.81731959 0.00883760 0.00543424 -0.00266843
H 0.95402216 5.59593712 20.80761176 -0.01327173 0.01811376 0.00954115
H 3.99571011 8.16947525 12.86318034 0.01707452 0.00533261 0.00470578
H 1.87584973 3.82733104 17.11496565 0.01513743 -0.00657730 -0.00729671
H -1.97310530 1.50549586 23.26446933 -0.00939380 0.00108587 -0.00592968
H -0.30263507 6.53632236 18.85359525 0.02761922 0.01232318 -0.00360811
H 2.36788248 6.38608067 22.99249352 0.01577758 0.00521743 -0.00128052
H 2.23536112 2.03245934 18.84103638 0.02202425 -0.00662634 0.03376665
H -0.58970925 2.67543339 13.35871124 -0.03944989 0.00575021 -0.01790562
H -0.16224571 7.75570915 16.69390401 0.00079055 0.00831844 -0.01115946
H 1.10744224 5.39600421 11.63939724 0.00522671 -0.02394759 0.00576065
H -1.59648927 0.54745292 17.92915817 -0.00504231 -0.04074714 0.01194424
H 0.77257118 4.26257138 23.92267591 0.01895078 0.00066082 -0.00283709
H 3.77510303 9.06785140 17.84425643 0.01792857 -0.01746635 0.00057670
H 1.18018105 6.94057038 13.50783336 -0.00270894 0.00700736 -0.02269092
H -1.78046289 2.11376629 15.84101207 -0.01629846 0.00865908 -0.01312371
H 0.83110353 2.74542092 21.91579043 0.02193799 -0.02547516 0.01500046
H 3.78710145 7.62844672 19.80689733 -0.02086287 0.00343931 0.00543981
H 3.37389970 5.11953312 21.63578959 -0.05253309 -0.02218241 -0.01967353
H 1.22071669 0.04847576 19.90676056 -0.00251763 0.00849939 0.00456084
H -1.26275896 4.71250766 14.10987862 -0.02295422 0.00242500 -0.00717113
H 0.79008888 9.51911718 15.80785885 -0.02758135 0.01243440 0.00564973
H 4.11009900 3.27198818 20.32423163 -0.01331914 0.01030393 0.01121584
H 0.89503165 8.29408377 21.58477895 0.00826788 0.01488713 -0.01812731
H 17.38081627 6.53675907 16.25953903 0.01703197 -0.04559116 -0.01861542
H 2.44111378 2.29561484 14.24357044 -0.00220048 0.03129197 0.01056832
H -1.15947540 3.88868654 19.20823337 0.02175090 0.01193379 -0.01359860
H -0.70728356 7.44469833 21.17355080 -0.01143171 0.02757955 0.00984435
H 3.36529948 5.92110621 16.34690026 -0.00282280 -0.03163895 0.01329763
H 3.38401734 1.01782376 13.31769108 0.00817386 -0.01734038 -0.02397064
H 17.82418951 3.81781040 19.94468208 0.01087604 0.01188151 0.03344835
H -0.78215259 8.73161643 22.33332965 -0.00567096 -0.00086890 -0.01955525
H 4.70708121 6.61099794 15.41575013 -0.01712388 0.00457587 0.00675337
H 1.74658343 0.73975325 13.60932827 0.00105351 0.00078096 -0.01628351
H -3.37499812 9.11998364 26.00624682 -0.00621615 -0.00047253 -0.00170303
H -0.49573753 4.03305702 27.03749672 -0.01607523 0.00563107 0.02635396
H 2.20750339 0.73031358 33.05393305 -0.00304584 0.00171997 -0.02552196
H -0.55790762 5.58527252 32.39732722 -0.00477268 0.00715155 0.00182408
H 2.52056755 8.26868458 24.83448151 0.00992276 0.00829695 -0.02485117
H 0.56418916 3.39117741 29.09072252 -0.02857468 0.00474500 0.01652553
H -3.64357558 1.45139072 35.02357737 0.03227194 -0.01801288 0.00094426
H -1.75304230 6.55572439 30.54455221 -0.01182117 0.00140508 -0.01915908
H 0.83720138 6.52704655 34.55426501 -0.00550587 0.00550995 -0.00707927
H 0.59182021 1.82697121 31.15668849 -0.00280011 -0.00885318 -0.00708548
H -1.95611913 3.11660864 24.91383297 -0.00774437 -0.02174555 -0.01536166
H -1.60345961 7.96023881 28.49617666 -0.01046620 0.00950656 -0.00762267
H -0.65276557 5.24333855 23.78361800 -0.00460181 -0.02043769 0.03656451
H -3.26636548 0.47330273 29.96974683 -0.03059614 0.00060991 0.02215542
H 4.04427456 4.16051203 0.36259192 -0.00526598 -0.02674926 0.00460645
H 2.38654885 9.01817969 29.42322184 -0.02219186 -0.02296123 0.00079881
H -0.68203629 6.79231813 25.62395333 0.02996075 -0.02202701 0.02230861
H -3.32643812 2.24028235 28.09092253 -0.01707410 0.00465941 -0.01480864
H -0.67153782 2.42106640 34.16164014 0.00213068 0.00047924 0.01602333
H 2.35420733 7.39659213 31.30775399 0.00866436 -0.00366608 0.00847180
H 1.98198888 4.88630846 33.27097337 -0.02449675 -0.00235497 -0.00237887
H -0.22777700 28.79236469 31.91516741 0.02068731 0.00053675 0.00655176
H -3.15791399 4.70500890 26.27605261 0.00836152 0.00409202 0.00545887
H -0.70168926 9.91832764 27.77527837 0.04387876 -0.01010040 0.02463460
H 3.00577547 2.87203700 31.91669126 -0.00749108 0.00389433 0.00833666
H -2.21474311 8.61500726 34.40180078 0.00916396 0.01032163 0.03147660
H 15.03118875 6.00503145 27.88178427 0.01726510 0.01228035 -0.01308253
H 1.67560896 2.24753709 26.37852038 -0.03264534 0.01589688 -0.01345827
H -3.84181648 2.67549412 32.07916988 0.00598152 -0.00118592 -0.00281945
H -0.59306842 8.49928122 33.60183887 0.02490674 0.01035454 0.01747358
H 1.63930182 5.58043399 28.47641383 -0.00801867 -0.04074453 0.01371735
H 1.03980784 1.01811384 25.31700938 -0.00869794 0.01705646 -0.00783837
H -2.85857839 3.62390414 30.97020338 -0.00822916 0.02014072 -0.00755613
H -2.14857408 7.55442162 33.09103035 -0.02383195 -0.02622871 -0.02436815
H 3.26960915 5.66199598 27.78619717 -0.02188280 0.01539728 -0.02750912
H -0.09228527 1.78197634 26.39972914 -0.00553652 -0.01051704 0.00379235
H -0.27013391 18.40864905 2.62823552 -0.01434363 0.00626443 0.01405392
H 2.83928883 13.64918321 3.31147256 -0.00064622 -0.00313582 -0.00639430
H 5.44542792 10.18522223 8.86473971 0.00837301 -0.00898801 0.02171444
H 2.44033492 15.14780085 8.65072928 0.02128919 0.00276178 0.00230935
H 5.54145987 17.67937410 0.61611325 0.01605102 -0.00735256 -0.01607046
H 3.71344123 12.91841046 5.27989521 -0.02266714 0.00226778 0.01173813
H -0.41730379 10.96656532 11.41036970 -0.00011816 0.01164925 0.00232370
H 1.38692175 15.80025743 6.64681999 -0.01705710 0.00349294 0.00676640
H 3.81015994 16.25890918 10.89839349 -0.00361203 0.00458296 0.00460052
H 3.68088572 11.33312436 7.24082997 -0.00937206 -0.01347757 0.00477874
H 1.27705041 12.78618954 1.08326675 0.00888200 -0.01778288 -0.01362949
H 1.58588263 17.11180250 4.44097239 0.01573441 -0.00241963 0.01271262
H -1.99277679 14.79555172 35.42384620 0.01503013 -0.02094608 -0.01529923
H -0.10664213 9.88758438 6.02503799 0.01577530 -0.00947475 -0.00414716
H 2.53243987 13.77898383 11.90106104 -0.00681356 0.00434370 -0.00738059
H 5.31852207 18.66079084 5.83053961 0.01508752 -0.00223555 -0.01270712
H 2.69356211 16.49485230 1.65221808 -0.01214642 0.00015696 -0.00064300
H -0.28490501 11.79573014 4.30650951 0.01404472 -0.00998256 0.01278614
H 2.62575957 12.09277558 9.91341566 0.03166309 0.00289160 0.00123918
H 5.38509699 17.18572934 7.62777685 0.00634852 0.00345660 -0.00912272
H 5.01932178 14.97772681 9.50182849 -0.04873530 -0.00883657 -0.01257487
H 2.85657861 9.74238139 8.27286550 0.00988883 -0.00905297 0.01600538
H 0.33645588 14.65023515 1.97092365 0.02630140 -0.01093796 0.02068367
H 2.21267572 18.96079649 3.58915289 -0.00156563 0.00024650 -0.00052791
H 5.51583667 13.47720626 7.99131075 0.00277697 0.00731094 -0.01921080
H 1.73684018 18.57610646 10.41134976 -0.01990352 -0.03041751 -0.01204624
H 18.56335031 15.21815523 4.58675151 -0.00908094 -0.01555055 0.01401956
H 3.03324585 11.30340198 2.77495311 -0.03008869 0.00483013 0.02368030
H 0.27612614 13.30466168 7.27481545 0.00808525 -0.00361676 -0.01158949
H 1.32095502 17.15290995 9.44470420 -0.02299208 0.00072374 -0.01268084
H 6.09923387 15.90055731 3.98680086 0.00832270 0.00432875 -0.00906375
H 4.73614562 11.52234805 2.23234237 0.03566862 0.04334132 -0.00495527
H 19.17976382 13.64524918 7.58146859 0.02131007 0.00284252 -0.02388635
H 0.21603155 18.09892209 10.33658764 -0.00152265 0.00597162 -0.00995881
H 4.55147148 15.20775075 4.76019411 -0.01127256 -0.02115648 0.00001191
H 3.62449903 10.32561009 1.45943489 0.02430307 -0.00821171 0.04457332
H -1.46403481 18.68465841 14.54579320 0.02009082 -0.00725740 0.00479624
H 1.18347212 13.75665680 14.93014049 0.01231554 -0.02742827 0.02007490
H 3.85230072 10.28113752 21.02130514 -0.00592284 0.00890906 -0.00221549
H 0.83747549 15.05877732 20.56341941 -0.01603629 0.02694320 -0.01421547
H 3.76631188 17.75431782 12.94249403 0.01563967 -0.00482962 -0.00362713
H 2.20830916 13.19122916 16.98445546 0.01901437 -0.00599266 0.01299051
H -1.82664732 11.12219378 23.26491132 -0.01471102 -0.02437074 -0.02001586
H -0.38996853 15.93975132 18.68173901 -0.00656057 -0.01961577 0.01330626
H 2.52100371 16.07214970 22.62942151 -0.00873092 0.01282313 0.03036269
H 2.11437260 11.76246712 19.08895518 -0.01168925 -0.00486803 0.00475994
H -0.35204446 12.53721337 13.13604348 0.00828117 0.01006169 0.00986901
H 0.00818583 17.20224592 16.57376862 -0.00378661 -0.00673360 0.00188605
H 0.99565112 14.86618480 11.67550176 -0.00320091 0.01817865 0.00703335
H -1.69636832 10.29534577 17.98388545 -0.01653154 0.02065572 -0.03138394
H 1.09536148 13.80946894 24.12057568 -0.02038124 -0.00802337 -0.00340780
H 3.76401982 18.49231050 17.69458638 -0.00066085 -0.00902268 -0.00883491
H 1.07728917 16.49917213 13.56717084 0.01026754 0.01948232 -0.03785134
H -1.66850314 11.76747844 15.93374923 -0.00396543 -0.00428363 0.00534005
H 0.97816230 12.31012695 22.23740545 -0.00605484 -0.00135745 -0.00242009
H 3.76883943 16.83857385 19.71854331 -0.00906446 0.01914109 -0.01101309
H 3.58684504 14.47360069 21.69763041 0.02557755 -0.00281884 0.00459893
H 1.34647028 9.70311648 19.81421636 -0.00345921 -0.00278668 0.00412232
H -1.25347271 14.31301366 14.28159590 -0.02507948 -0.00295904 -0.01210085
H 0.77738963 19.06541131 15.65058711 -0.06859684 0.02462477 -0.02706551
H 5.05464127 12.25247905 20.54416682 0.00637269 0.02330317 -0.03683826
H -1.11396827 18.22155477 22.07957985 -0.02509440 0.01622246 0.00802923
H 17.00663596 15.48756730 16.28686535 0.00210938 -0.00270527 -0.00558804
H 1.34018282 10.95838962 14.20104301 -0.04866962 -0.00557615 -0.00347643
H -2.35621450 13.99542766 19.29601651 0.02915599 0.00705678 0.00481776
H 0.55365216 18.09266196 21.66599572 0.01615684 -0.01373221 0.02994378
H 3.02202047 15.39455965 16.22438954 0.00439717 0.00309143 -0.03377802
H 2.76759075 11.86384151 14.66244508 -0.00292678 -0.02553525 0.01384006
H -2.39834952 12.50091662 20.13546300 0.00047121 0.00323875 -0.00056074
H -0.70324265 16.86261526 20.90162227 0.00945677 0.03000538 0.02307157
H 4.65429927 14.71813982 16.27647631 0.04498502 -0.02727914 0.04767050
H 3.05540684 10.75376027 13.42978500 0.01107508 -0.00171243 0.01105002
H -3.28485192 18.63759495 26.63546157 -0.00870535 0.00851959 -0.01474569
H -0.36095543 13.84691632 27.00882549 -0.01518270 -0.02584738 -0.01082638
H 2.16559600 10.27251653 33.27717122 -0.01055595 0.01452462 -0.01038082
H -0.55088070 15.20909873 32.29281537 0.00673361 0.00782022 0.00150938
H 2.50704607 17.80163318 24.41179820 -0.00329510 -0.00157653 0.00097541
H 0.62092544 13.28715040 28.88255278 0.01194497 0.01477294 -0.00366577
H -3.32776391 11.32969720 34.61812070 0.00380574 -0.01206501 0.01007295
H -1.64490018 15.98101522 30.53735052 0.00094180 0.00031239 0.00216472
H 0.86574340 16.24635236 34.33197820 -0.00773192 0.00728882 0.01724834
H 0.81435666 11.65847006 30.75542688 -0.01444583 -0.01160444 0.01587027
H -1.91445051 12.88858044 24.99312914 0.00042374 -0.00840372 -0.01305039
H -1.64946282 17.35742410 28.36813543 0.00516780 0.03492287 -0.02062219
H -0.50519278 14.82937294 23.86940239 0.02612369 -0.02374865 -0.00614726
H -3.19410349 10.21877962 29.85626185 -0.02934928 0.00455287 0.01951446
H 4.39235732 14.10511059 0.34053319 -0.00053088 -0.00236738 -0.02792220
H 2.38682730 18.39491887 29.42475509 0.01170377 0.00035763 0.00178522
H -0.46667221 16.70443903 25.44021412 -0.00136703 -0.00805513 0.00333472
H -3.30271401 11.96948656 27.98401521 0.00121125 0.00301557 0.01187303
H -0.65250164 12.34328735 34.14050694 0.01670003 -0.02775665 0.01713531