2160
Time=51000.00000004 pbc="T T T" Lattice="20.69976788 0.00000000 0.00000000 0.00000000 28.94263031 0.00000000 -4.72166210 0.00000000 35.44882985" energy=-13797.18167007 virial="-46.77684551 -28.60890836 58.88145519 -28.60890836 -7.69245857 25.79390653 58.88145519 25.79390653 -2.09405990" stress="0.00015825 -0.00132457 0.00275828 -0.00132457 0.00210326 0.00121538 0.00275828 0.00121538 0.00241523" Properties=species:S:1:pos:R:3:vel:R:3
O 0.52869419 8.51109339 2.41650437 0.00037723 0.00139413 -0.00279584
O 1.88436873 3.64194982 3.40952340 0.00175615 -0.00162703 -0.00406942
O 4.48546781 1.20689688 9.18495816 0.00473768 -0.00401079 0.00419758
O 3.42291939 5.68365970 7.95602677 -0.00621855 0.00160369 0.00452620
O 1.37361894 4.72919639 9.31513210 -0.00773702 -0.00038217 0.00602451
O -0.18272528 9.51341749 8.08589655 -0.00234685 -0.00173874 0.00061363
O 4.11702753 4.76608376 2.27411781 0.00022733 0.00158111 0.00339925
O 5.63039183 0.02097053 3.40148704 0.00656390 0.00218993 -0.00427489
O -0.84494757 8.50535690 14.26669135 -0.00092024 0.00008082 0.00784212
O 0.04309743 4.34413001 15.68621312 -0.00387598 -0.00081677 0.00043424
O 2.84521562 1.21540981 21.21185627 -0.00453842 0.00080540 -0.00120372
O 1.73515716 6.17139824 20.22752304 -0.00048263 0.00433295 0.00092548
O -0.10972091 4.93899019 21.35023363 -0.01000957 -0.00534431 -0.00237998
O -1.89334886 9.93385287 19.97796055 -0.00469869 0.00299275 -0.00296013
O 2.28308690 4.54858948 14.16920320 -0.00502194 0.00382042 -0.00615246
O 4.19923447 0.04092167 15.55278684 0.00014572 0.00014751 -0.00143681
O -2.33951578 8.52967604 26.17680945 -0.00099402 -0.00361401 0.00381274
O -1.44890472 3.88309965 27.41163658 0.00186330 -0.00302544 0.00403975
O 1.46060189 1.28086098 33.00892495 0.00599817 -0.00664935 -0.00293025
O 0.39569571 5.63068921 31.86290960 0.00497108 0.00034127 0.00069384
O -1.81331953 4.89537961 33.01807779 -0.00701047 0.00477478 -0.00070058
O -3.71329087 9.32456629 31.72359925 -0.00459936 0.00284369 -0.00176284
O 0.73978819 4.97573822 25.97894710 -0.00220460 -0.00194904 -0.00302048
O 2.29312065 28.57621990 26.91258970 0.00437816 -0.00140398 -0.00055545
O 0.68025123 18.25435121 2.64635643 0.00112115 -0.00281339 -0.00439101
O 1.97375860 13.39186561 3.33184403 0.00704006 0.00129958 -0.00278183
O 4.65535545 10.41824523 9.25744566 0.00182837 0.00063010 0.00093831
O 3.61447817 15.18975903 8.33042979 -0.00201609 0.00977145 -0.00300629
O 1.68742958 14.18887140 9.89371129 0.00143711 -0.00035616 -0.00197667
O -0.18276985 18.90060110 8.26801830 -0.00118003 -0.00735432 -0.00233735
O 3.93840026 14.77414270 2.28291975 -0.00716224 0.00855534 0.00164618
O 5.57894545 9.56359983 3.51917805 -0.00394134 0.00081287 0.00125798
O -0.82315120 18.02887934 14.22691070 -0.00128067 -0.00093556 -0.00111205
O 0.51296148 13.48960251 15.55047851 -0.00280044 -0.00502241 -0.00253096
O 3.01146568 10.80624931 21.39258896 0.00516122 -0.00281202 -0.00134561
O 1.86943081 15.76549104 20.48152657 -0.00106703 -0.00201036 0.00194994
O -0.35307550 14.91734173 21.56199114 0.00654093 0.00338535 0.00424493
O -1.68623887 19.05227961 20.19526574 -0.00016121 0.00483642 -0.01028667
O 2.32655137 14.13734496 13.88011495 -0.00097837 0.00156313 0.00002570
O 3.83158886 9.36228194 15.38103920 0.00841869 0.00534362 0.00073734
O -2.46415841 18.01787233 26.37511436 -0.00156512 0.00425602 0.00246901
O -1.51879273 13.33719872 27.20566025 0.00839643 -0.00362122 0.00505757
O 1.50888146 10.93271369 32.86294090 0.00374192 -0.00339982 0.00552874
O 0.38983076 15.86877047 32.01913413 -0.00104007 -0.00906675 0.00375164
O -1.72344726 14.88211897 33.16024661 0.00106141 0.00365210 -0.00634257
O -3.30205187 19.45593825 31.59195712 -0.00355550 0.00187071 0.00289222
O 0.81063907 14.23796487 26.32088837 0.00387358 0.00384517 -0.00114440
O 2.39627103 9.83474038 27.40013666 0.00218156 0.00114859 -0.00229817
O 0.44690050 27.79818244 2.36741956 0.00477775 -0.00550382 0.00047035
O 1.64815011 23.08404129 3.80074529 0.00166942 0.00463853 0.00157461
O 4.51585855 20.52948371 9.28428195 0.00063117 -0.00054494 0.00619630
O 3.48846203 25.39526486 8.27165741 -0.00096345 0.00424216 -0.00421794
O 1.28535208 24.55325534 9.07804285 0.00383536 -0.00354561 -0.00330994
O -0.46309230 28.69818951 7.97334183 0.00309675 -0.00051977 0.00103269
O 3.99183927 23.89238202 2.39231253 -0.00240109 0.00376166 -0.00067885
O 5.50612732 19.48725300 4.01466569 -0.00213415 0.00332212 -0.00647502
O -0.80562363 27.84165581 14.16796506 -0.00224283 0.00330040 0.00272413
O 0.16021586 22.69797295 15.31871855 0.00670917 -0.00591366 -0.00007221
O 3.45063775 20.57115857 21.06622761 -0.00224102 -0.00192958 -0.00292361
O 1.96324647 25.07585293 20.26770013 0.00083532 -0.00235364 0.00137466
O -0.21326835 24.17162853 21.58257661 0.00399321 0.00291309 -0.00687095
O -1.70831560 0.00785349 20.02348392 -0.00588934 0.00563715 -0.00717502
O 2.46186409 23.71365300 14.51095319 0.00299117 0.00021068 0.00394489
O 4.01006975 19.10880564 15.35797792 0.00072815 0.00403533 -0.00055991
O -2.42956279 27.87871363 26.15908927 -0.00548182 0.00198504 0.00123043
O -1.16949810 23.21254797 26.81020973 -0.00794817 0.00334018 0.00361157
O 1.46415069 21.00793729 32.59207169 0.00325194 -0.00092954 -0.00382217
O 0.23584123 25.45980835 32.18685515 -0.00167929 -0.00815425 -0.00011896
O -1.83330362 24.27955720 33.16063215 0.00200271 -0.00346034 -0.00377724
O -3.48617189 0.10058252 32.06769678 0.00086873 -0.00089911 0.00284472
O 1.17004008 24.21771595 25.92721073 -0.00168318 0.00271638 0.00260215
O 2.45901052 19.36487833 27.12250767 -0.00002702 -0.00268761 -0.00401441
O 7.72148897 8.52159278 2.45833197 0.00008353 -0.00042202 0.00676385
O 8.96271910 3.74171542 3.69647762 0.00002906 -0.00089689 -0.00590507
O 11.66105653 1.47835896 9.03419684 0.00836301 0.00420816 0.00281730
O 10.28196144 5.95257281 8.49528742 -0.00428858 0.00135415 0.00135595
O 8.29834176 4.91738598 9.61572292 -0.00467328 -0.00431653 -0.00572211
O 6.85577767 9.51575492 8.26545817 0.00215084 -0.00792597 -0.00943310
O 10.88613200 4.78484874 2.48415460 0.00029187 -0.00075788 0.00371637
O 12.43616464 28.75198569 3.37540635 0.00384784 0.00231212 -0.00332324
O 5.98048394 8.54989538 14.09060491 -0.00068538 -0.00046531 0.00101799
O 7.05249845 3.67410925 14.94146104 0.00922393 -0.00560490 0.00251823
O 9.70921391 1.11977121 20.97896392 -0.00386080 0.00058234 -0.00747035
O 8.56155311 5.82861889 20.18798046 -0.00677916 -0.00317503 0.00335652
O 6.45659177 4.90298991 21.35163926 0.00150349 -0.00443274 0.00630088
O 5.29424939 10.09557789 20.42198550 0.00624973 -0.00612542 -0.00175961
O 9.14127940 4.72237708 13.82330942 0.00390869 0.00309498 0.00114778
O 10.81708299 0.35765789 15.47679435 -0.00152340 0.00704413 0.00098807
O 4.52115930 8.71092495 26.14009093 -0.00230584 -0.00034881 0.00144120
O 5.65227921 3.93199839 27.44640412 0.00424018 0.00131488 0.00372532
O 8.22426334 1.24437304 33.06054580 0.00369737 0.00009916 0.00467771
O 7.13546727 5.90985562 32.23382554 0.00685826 -0.00081383 -0.00593381
O 5.08693169 4.55497601 33.39377594 -0.00284727 0.00843999 -0.00041180
O 3.73251646 9.60942668 32.02399967 -0.00342601 0.00634325 0.00728975
O 7.67966491 4.68002043 26.06301005 -0.00011453 0.00071799 -0.00682955
O 9.26145424 28.92098157 27.03341940 0.00292096 -0.00508775 -0.00080308
O 7.55985275 18.21661960 2.58528704 0.00282269 0.00510421 -0.00043739
O 8.87756534 13.05458826 3.42127358 -0.00176490 -0.00001818 -0.00254916
O 11.56590393 10.70449663 9.35010656 0.00825027 0.00252007 -0.00063304
O 10.16356131 15.74342567 8.64146659 -0.00043725 0.00118657 -0.00666397
O 8.31212600 14.27613639 9.76390565 -0.00081415 -0.00432033 0.00014836
O 6.58803048 19.39003434 8.09833202 0.00406000 0.00186577 -0.00168923
O 11.02458897 14.13321081 2.35717591 -0.00027598 -0.00267240 0.00078839
O 12.47424262 9.59305345 3.74132123 0.00612441 -0.00003858 -0.00011644
O 6.08678724 18.20605411 14.14737607 -0.00453706 -0.00865497 0.00119518
O 7.19917139 12.99927743 15.17595290 0.00545686 0.00198731 0.00221076
O 9.94630942 10.62003242 21.35641059 0.00709729 -0.00644647 0.00462672
O 8.64507557 15.21795307 19.80980667 -0.00099029 0.00307978 0.00045043
O 6.70822921 14.41913252 21.41486975 0.00478940 0.00412724 0.00108435
O 5.49031178 19.28860149 20.14793855 -0.00066876 -0.00259665 0.00083156
O 9.24108835 14.05236988 14.24070770 -0.00339982 0.00141227 -0.00115145
O 10.80212982 9.63682896 15.41507588 0.00368825 -0.00282872 0.00024707
O 4.50939501 18.51807877 25.90052161 -0.00355940 -0.00116832 0.00022872
O 5.54168978 13.38068991 27.10745822 -0.00006929 -0.00013639 -0.00017425
O 8.78993538 11.02264418 32.97527368 0.00248621 0.00611049 0.00174880
O 7.23284163 15.62104359 32.04903635 -0.00340778 -0.00156726 0.00032688
O 5.18602056 14.35642216 33.63306666 0.00207613 -0.00159844 -0.00255465
O 3.54353099 19.67147304 31.89988177 -0.00286758 -0.00243628 0.00262882
O 7.81436164 14.25364139 26.03199665 0.00407279 0.00003159 -0.00028303
O 9.25965091 9.52963999 27.15453421 -0.00330405 -0.00122363 -0.00171807
O 7.84253491 27.96668001 2.42844816 -0.00772938 0.00014089 0.00238494
O 8.83062826 23.20345644 3.52775441 -0.00103754 -0.00311159 -0.00143328
O 11.32654454 20.38092939 9.52104141 -0.00361520 -0.00266888 -0.00235588
O 10.45489685 25.10776822 8.32003843 0.00264588 -0.00324684 -0.00873503
O 8.36679263 24.30358898 9.50538939 0.00323600 0.00149427 0.00289087
O 6.55621936 0.26371053 8.16372667 -0.00761499 0.00489950 0.00877602
O 10.88404401 24.25829687 2.22811674 -0.00347278 -0.00300707 -0.00273356
O 12.27762481 19.13894191 3.50662516 0.00321336 0.00164990 -0.00677372
O 6.02771774 27.76050367 14.28717659 0.00104856 0.00154622 -0.00684097
O 7.25641937 23.00061243 15.53369271 0.00180349 -0.00045331 0.00137629
O 10.28413686 20.31893276 21.33722792 0.00187161 0.00377800 -0.00204128
O 9.07669936 25.25854791 19.95142279 0.00028620 0.00115845 -0.00381133
O 7.11991334 24.40906379 21.19968730 0.00157317 -0.00154475 0.00306120
O 5.09661773 0.18866622 20.05897611 -0.00257023 -0.00328704 -0.00376332
O 9.44276541 24.08628326 14.28890837 0.00283777 -0.00591391 0.00156965
O 10.81633476 19.73269971 15.65128036 -0.00162577 0.00139684 0.00774957
O 4.61663291 28.04548230 25.72525603 0.00159676 -0.00268986 -0.00537717
O 5.81683533 23.01974526 26.96186445 0.00019159 -0.00466589 0.00139695
O 8.25980585 20.37719205 33.04193475 0.00159924 0.00030837 0.00257866
O 7.17519280 25.43316376 31.89326001 0.00264884 -0.00102198 -0.00116438
O 4.93971721 24.76867612 32.94367819 0.00367797 0.00091847 0.00431829
O 3.55853726 0.15003119 31.76151384 0.00436317 0.00054942 -0.00254276
O 7.78352757 24.34581863 25.59716483 -0.00273217 0.00407494 -0.00712027
O 9.38569317 19.37940351 27.21927485 -0.00390925 -0.00304610 -0.00444334
O 14.47960772 8.42503334 2.48684133 -0.00122476 -0.00231251 0.00078058
O 15.82156346 3.47931262 3.60251454 0.00292212 0.00671216 -0.00665252
O 18.46108995 0.99325437 9.61462049 0.00535437 0.00044350 -0.00357647
O 17.18517890 5.94459208 8.14542113 -0.00309308 0.00465573 0.00383025
O 15.13668529 5.01344731 9.33761474 0.00290908 0.00240852 0.00090227
O 13.76028623 10.07369158 8.28811232 -0.00545786 0.00965519 -0.00374246
O 17.68055488 4.55430808 2.44309729 0.00262074 0.00509740 -0.00053653
O 19.10133764 28.76185589 3.53588856 0.00701459 -0.00203305 -0.00232611
O 12.93031869 8.48983766 14.24536999 -0.00180117 -0.00536896 0.00182497
O 14.15417034 3.74936147 15.12544970 0.00473252 0.00285389 0.00172596
O 16.67820220 1.11087705 21.03559306 -0.00017524 0.00207366 0.00054211
O 15.51108839 5.81696903 20.46134537 0.00021593 0.00088572 0.00037015
O 13.33830562 4.69940094 21.21481508 -0.00253736 -0.00226174 0.00587536
O 12.17920377 9.71580998 20.41705479 -0.00063245 -0.00296870 -0.00038200
O 16.02249539 5.11309827 13.82360306 -0.00782589 0.00348672 -0.00093293
O 17.81679118 0.21145390 15.13634250 0.00257037 -0.00185622 -0.00234292
O 11.42998433 8.48196316 26.00268895 -0.00137558 0.00530412 -0.00037124
O 12.43700381 3.86834674 27.32971014 0.00092012 -0.00332966 0.00173868
O 15.13900137 1.20299056 32.97668690 0.00255168 0.00769150 0.00046999
O 13.88488056 5.75142077 31.91990109 -0.00302807 0.00024951 -0.00089862
O 11.87913948 4.80688151 33.32777848 0.00552825 0.00352496 0.00147974
O 10.38510547 9.27012157 31.33739496 0.00080362 0.00700936 -0.00018724
O 14.63746282 4.63304452 26.16846114 -0.00242925 -0.00925988 -0.00013661
O 16.16184010 0.02902053 27.32860691 0.00180677 0.00013282 0.00039980
O 14.46959074 18.03824031 2.70556572 0.00206985 -0.00073106 0.00305147
O 15.85887755 13.42298347 3.52232889 0.00651921 0.00176125 0.00740312
O 18.62011943 10.82641036 9.32417801 -0.00831676 0.00266555 -0.00272348
O 17.38839328 15.50719471 8.55412653 0.00562228 -0.00338645 0.00820678
O 15.09336300 14.38782951 9.88613177 0.00141170 -0.00296339 -0.00206418
O 13.52987972 19.19233844 8.56100273 -0.00091703 -0.00010670 -0.00551983
O 17.75129690 14.67034001 2.19162743 -0.00022796 0.00474449 -0.00063100
O 19.34062742 9.80099522 3.39810704 0.00258207 -0.00554623 0.00387414
O 12.86163317 18.16459063 14.52137394 -0.00296239 -0.00428738 -0.00838424
O 14.14532253 13.11728875 15.36762876 -0.00002078 -0.00347054 -0.00265002
O 16.70796419 10.71005890 21.24049356 -0.00215442 -0.00617541 -0.00327622
O 15.52506780 15.53130636 20.31824281 -0.00817347 0.00156385 -0.00859082
O 13.57699740 14.26954621 21.38344900 -0.00211492 0.00022598 -0.00199981
O 12.14426688 19.62555948 19.96742473 0.00064867 -0.00216871 0.00051591
O 16.24767295 14.40719776 14.23625579 -0.00320913 0.00687326 0.00218687
O 17.70162746 9.18803842 15.40569721 0.00129109 -0.00602759 -0.00136550
O 11.35643837 18.24040123 25.77176399 0.00189669 -0.00111625 -0.00343150
O 12.34933936 13.45292127 26.93081322 0.00152236 0.00154428 -0.00803004
O 15.15677085 10.89376104 32.87370381 -0.00194675 0.00880110 -0.00033888
O 14.23982303 15.48731911 31.83322672 -0.00345676 -0.00530299 0.00202650
O 12.02422465 14.86025685 33.19894382 0.00043265 0.00547082 -0.00004998
O 10.37286712 19.36454928 31.74907309 -0.00809164 -0.00333876 -0.00130151
O 14.48136151 14.42308202 25.86302232 -0.00569049 0.00766087 0.00147705
O 16.14037533 9.48697698 27.21003653 0.00861386 -0.00608531 -0.00146461
O 14.43691000 27.67089171 2.39814743 0.00216185 -0.00029771 0.00435776
O 15.63598474 22.75091093 3.47554132 0.00035536 -0.00478002 0.00590176
O 18.35484089 20.20063677 9.18758532 -0.00079858 -0.00310134 0.00414380
O 17.37388700 24.66441615 8.16678495 -0.00417661 0.00506042 -0.00270260
O 15.13099347 24.32674387 9.55648916 0.00391351 0.00216857 0.00020330
O 13.53295616 28.75800933 8.08004372 0.00700314 -0.00170057 -0.00412498
O 17.68239085 23.87733769 2.22263058 -0.00182130 0.00244956 -0.00163640
O 19.10608082 18.86997978 3.54999086 0.00100030 0.00091858 -0.00206697
O 13.12625606 28.26049413 14.04837799 -0.00314452 -0.00923734 0.00211094
O 14.20172844 23.20371983 15.28515698 0.00435593 0.00705567 0.00296435
O 17.17221371 20.77271802 20.98938903 0.00352009 0.00396554 0.00678573
O 15.89564998 25.29475379 19.97649199 0.00170981 0.00341966 -0.00306619
O 13.76963669 24.47726247 21.32361358 -0.00110546 0.00669472 -0.00519453
O 11.89061529 0.00135474 19.95444048 -0.00047164 -0.00539942 0.00083256
O 16.22337095 24.01369810 13.68940226 -0.00110521 -0.00080148 0.00447050
O 17.54884358 18.52343762 15.22119531 0.00134815 -0.00031218 -0.00078126
O 11.43774205 27.77017950 26.05298496 -0.00332135 0.00519299 0.00168819
O 12.63240698 23.19071850 27.10441856 0.00222120 -0.00200791 -0.00058909
O 15.42562433 20.38207506 33.02685433 -0.00136738 0.00495848 -0.00733223
O 13.94361309 25.25467007 31.94916761 0.00201034 -0.00156161 -0.00062783
O 11.97990679 24.07533450 33.04751915 0.00129991 0.00069262 -0.00116736
O 10.47664324 0.23595963 31.93622870 0.00097355 0.00018551 0.00019137
O 14.59593137 24.14051024 25.68585753 -0.00256207 0.00062724 -0.00617998
O 16.18773417 19.31139153 27.23155687 -0.00245097 -0.00116111 0.00027453
H 20.36536528 8.96272155 2.50607597 -0.01716384 0.00481190 -0.00829936
H 2.71068083 4.03889609 3.22098809 -0.01430646 -0.02182526 0.00405699
H 5.44361034 0.93096317 8.87514033 -0.01122355 -0.00845034 0.00177472
H 2.54468654 5.47920447 8.35549844 0.01690521 0.01920454 0.00929532
H 5.60576945 7.87674182 1.03703300 -0.00192101 0.01895525 0.00541811
H 3.90578541 3.10138523 4.99246087 -0.00849395 0.00885305 0.01030000
H -0.24639775 1.50306680 11.29938737 0.01953748 -0.00204667 -0.01609398
H 1.26546854 6.57294980 6.57437937 -0.00097910 -0.01008516 -0.00102223
H 4.10913354 6.74926582 10.48819134 0.00506294 0.01018006 0.01776105
H 3.77594915 1.58840741 6.96280368 -0.00343716 0.01661180 -0.01207841
H 1.04812257 2.80251087 1.28541292 -0.01878541 0.01658685 0.00578881
H 1.38263866 8.37500015 4.89384253 -0.02665849 -0.00543449 0.00805119
H -2.21589064 5.16942092 35.44217008 -0.01299264 -0.01190842 0.00572694
H -0.28811422 0.76776828 6.04691436 0.02280765 -0.01132439 0.02307150
H 2.39193390 4.20420694 11.72066957 0.03843048 0.00949243 -0.00557872
H 5.60031418 8.93529157 5.71847101 -0.00722941 -0.01209264 0.00565635
H 2.59410261 6.77841424 1.67945734 -0.00930589 -0.00948191 0.02178973
H -0.21416418 2.22654885 4.09676591 -0.00395100 -0.02027356 0.02220078
H 2.32357867 2.34765422 10.06283770 -0.01430697 0.00139974 0.00511679
H 5.44135503 7.21519000 7.41393435 -0.00853358 -0.00136328 -0.01470396
H 5.13774479 4.78818208 9.59631382 -0.00496082 -0.01692328 -0.00420449
H 2.62704409 28.80250428 8.02381940 0.02756783 0.02303065 -0.01258960
H 0.09611751 4.70345167 2.07233512 -0.00544945 -0.00911242 0.01624453
H 2.43999228 9.67492375 3.51069048 -0.00806034 -0.00077833 0.00986689
H 5.78901527 3.74279114 7.95983736 0.02664945 0.00184451 0.00516316
H 2.54287630 8.07830809 9.28966049 -0.00866240 -0.01077906 -0.00943085
H 19.45580045 5.47368048 4.48845358 -0.01187007 -0.01373928 -0.01128115
H 4.96756735 0.91643833 1.20951337 -0.00450341 -0.00628978 -0.01845241
H 0.16613009 3.94829912 7.01735401 -0.00524244 0.01845267 0.00855621
H 0.93757317 7.26828903 9.05595977 0.00600388 0.01980579 0.00754962
H 4.80335849 6.49022972 3.99628431 0.01726265 -0.00764463 0.01915913
H 3.30067615 0.76707497 1.59889818 0.00172761 -0.00985610 0.00351316
H 19.36029688 3.42160642 7.94274671 0.00865690 0.00335886 -0.00847328
H 1.13045369 8.53439129 10.28885253 -0.01175924 0.01286954 -0.01210326
H 5.98625406 5.28341804 4.54247526 0.01954479 -0.02635343 0.02386022
H 4.17211791 2.21847583 2.14824986 -0.00456675 -0.00620039 -0.01418477
H -1.66998644 8.89858763 14.45296146 0.00222321 -0.02556295 -0.01754926
H 0.81733886 4.51001278 15.06982644 0.01534899 -0.03543638 -0.00551612
H 3.76157740 0.99006451 20.90816421 0.00555488 0.01672141 0.01653197
H 0.93595146 5.66465500 20.61750108 0.01180030 0.00706280 -0.01869795
H 4.13124730 8.38115537 12.26009191 -0.00690592 -0.02479052 0.00968061
H 2.25761447 3.54051488 17.09441540 0.01150574 -0.00077712 -0.01563802
H -2.12630511 1.41157046 22.78706753 -0.01605164 0.00231772 -0.01072364
H -0.14125348 6.39887835 18.65740296 0.01704116 -0.01942773 0.01633541
H 2.42097423 6.78624048 22.48548509 0.01550514 -0.00188843 -0.00435000
H 2.33985989 1.75461053 18.69189402 0.01159549 0.00424743 0.00555504
H -0.34086797 3.25717821 12.96647541 0.01566126 0.00077294 -0.01363646
H -0.21911901 7.85624677 16.52627448 0.02151103 -0.01964124 0.00084104
H 1.22035511 5.53090748 11.49078010 0.01235652 -0.02749921 -0.00497482
H -1.79654184 0.91195017 17.97087197 -0.02010548 -0.02938193 0.00969457
H 0.58311174 4.06055248 23.82039805 0.01584752 -0.02990860 -0.00210540
H 3.69870321 9.25952570 17.65790745 0.00703979 0.00586932 -0.00487388
H 1.22757096 6.93900922 13.49718149 0.02955042 0.00614726 0.01623696
H -1.90251030 2.86447849 16.39849126 -0.00887751 0.01300016 0.00137208
H 0.84631077 2.50614759 22.00197965 0.03031629 -0.00727143 0.02006289
H 3.60630739 7.82793193 19.63449342 -0.01537810 -0.00565801 0.01203667
H 3.38282998 5.09531801 21.31011275 0.01305607 -0.00071376 0.00304047
H 1.42081618 28.82383091 19.64104691 0.01004754 -0.00874998 -0.01974835
H -1.55823620 4.86225036 14.23320002 -0.00652729 0.00516243 0.00299204
H 0.69239272 9.44051056 15.44470373 0.00569171 0.01021200 0.00105284
H 4.31509394 4.51630158 19.17766343 0.01774652 0.01353834 0.00407361
H -0.98535762 8.93907137 22.51844484 0.02429593 0.01051698 0.01772010
H 16.23480300 6.22577490 15.89111543 -0.01224290 0.01033816 0.01368378
H 2.67479276 2.19110745 14.58042494 0.00939876 0.00461692 -0.00134216
H -1.24663872 2.62986234 20.58887666 0.00094205 0.00748947 -0.02135298
H 0.39114905 8.30434607 21.60566183 0.00190081 -0.00681302 0.01562349
H 2.93711747 5.96944522 16.08480341 0.00127413 0.02615676 0.00938212
H 3.11950050 1.07614361 13.31055206 0.01307484 -0.00915422 -0.00779088
H -1.27357738 3.77411077 19.22404059 -0.00372567 0.01421819 0.00562990
H -1.22891874 7.68311762 21.28706655 -0.00676071 -0.01342537 -0.00449813
H 4.51057447 5.18293382 16.30718816 0.02027400 -0.01979643 0.00563025
H 1.48250769 1.04026561 14.01933462 0.01459326 0.02465272 -0.01543103
H -3.25304813 8.92699910 26.38739976 -0.00000270 -0.01436629 0.00290490
H -0.57637007 4.04100188 27.02279552 -0.01065036 -0.00173773 0.01374615
H 2.30134365 0.84298753 32.65462060 0.00774196 0.00054389 -0.01760627
H -0.42077443 5.17653990 32.31238847 -0.00807376 -0.02902167 -0.03358517
H 2.40731322 8.23263365 24.52618689 -0.01155876 -0.01008688 -0.02476702
H 0.55826681 3.31229894 28.83720969 -0.00286538 -0.01078128 0.03668626
H -3.67920217 1.43838503 34.61798789 -0.00353364 -0.04084111 0.00048130
H -1.46433337 5.92627698 30.23896922 -0.01168437 0.01818750 0.01373285
H 0.84338459 6.54081101 34.46385942 -0.02127278 -0.01267596 -0.01676032
H 0.71477806 1.73476684 30.70741085 0.00789868 -0.01507950 -0.02583472
H -2.17470618 2.76818324 24.87971686 -0.00635190 -0.01411373 -0.00167832
H -1.72939431 7.85042917 28.52337095 -0.03461931 -0.01485595 -0.00569002
H -0.25207023 5.63847528 23.48150928 0.00718635 -0.01198410 -0.00328848
H -3.37826572 0.56162900 29.81391946 -0.01640905 -0.00775159 0.02757112
H 4.30835343 4.37363788 0.12717435 -0.04653698 0.00510477 0.00245885
H 2.11880778 9.35775299 29.71512281 -0.01256296 -0.01864309 0.01303681
H -0.18254178 7.16623797 25.43703846 0.00995792 -0.00322432 0.01419144
H -3.29266209 1.93226847 27.81271050 -0.01034471 0.02617847 -0.01412304
H -0.55097732 2.71790935 33.77055298 0.01784263 -0.01331703 -0.00774897
H 2.27271157 7.51882970 31.48195560 0.00752633 0.01338283 0.01593632
H 1.91358387 4.97567185 33.33743466 0.02029222 0.01778597 0.00566808
H -0.29342693 28.77879774 31.76711300 -0.04239856 -0.01389947 -0.00196280
H -2.95540843 4.88719448 25.66523543 0.02673366 0.00217174 0.00682903
H -0.71601333 9.62933786 27.60419657 -0.04648488 0.02615884 0.00527452
H 2.88836057 4.22804324 31.09265566 0.02755304 0.00819281 -0.00694185
H -1.07411602 8.58116129 33.33577203 0.02034736 -0.01711418 0.02171616
H 16.40991406 6.90315306 27.05783598 -0.00611360 0.01436978 0.01156337
H 0.87124168 1.90578601 26.15779521 -0.01258715 -0.02468791 0.00583684
H -2.39187651 2.86575035 31.97728452 -0.00430510 -0.00678745 0.01249460
H -2.36571177 7.27976096 33.05482390 -0.00750782 0.01619802 -0.03944387
H 3.17432866 5.24138584 28.03516298 0.00879780 -0.00127295 -0.00742599
H 1.34428144 0.93746389 24.85809330 0.01498348 0.00654449 -0.03221915
H -3.20214000 3.86414429 30.85851366 -0.01856053 -0.01516413 0.01083274
H -2.70416735 8.56911453 34.10603966 0.00815986 0.01464690 0.00397136
H 2.90654397 6.78497791 27.18506826 0.01239190 -0.00058091 0.00327869
H -0.38425648 0.90721291 25.45987136 -0.00573468 -0.01288491 0.01091023
H -0.21803538 18.56779715 2.90331241 -0.00848347 0.01566708 0.01565866
H 2.84133754 13.86614865 3.15722762 -0.00308414 -0.00776733 0.02136106
H 5.60394755 10.15859384 8.97371398 -0.00600170 -0.02846390 0.01337762
H 2.78674702 14.66358033 8.56138169 -0.00573624 0.01194327 -0.00217467
H 5.53115053 17.74993533 1.02803896 0.01410735 -0.01123312 -0.01970350
H 3.99637591 13.21757124 5.13627430 0.00588227 -0.00414821 -0.02780722
H -0.18695964 11.04268476 11.14706165 0.00076303 0.00287247 0.00099226
H 1.55218908 15.60266940 6.81839868 -0.01880888 -0.01285761 0.01032413
H 4.39240294 16.30117931 10.48733642 -0.01180099 -0.02149904 -0.00905186
H 4.02081460 11.60124131 6.83556061 0.00654945 -0.00375813 -0.00062757
H 1.13334352 12.63777003 1.15846917 0.00301689 0.01241978 -0.01475915
H 1.50585979 17.19333395 4.81921787 0.02452751 0.01451325 0.01490859
H 2.80030980 15.15124048 0.11789815 -0.01632537 -0.01170067 0.02410952
H -0.05265761 10.40615008 5.95398388 0.02222248 -0.00811562 0.01549832
H 2.52580182 13.23556184 11.99552053 0.00713403 0.00519679 -0.00002527
H 5.26596946 18.85095140 6.03887334 0.01816798 0.03628019 -0.02743813
H 2.67695349 16.64791896 1.89270952 0.00594794 0.00516888 0.01379652
H 0.03556920 11.89774640 4.10135726 0.03236456 0.02605591 0.00782629
H 2.49512772 11.52243660 10.18011003 -0.00642151 0.01322437 0.00082776
H 5.48838164 16.92473933 7.59586415 0.00680394 0.03041217 -0.02091221
H 5.21288904 14.28250315 9.56742972 -0.00990061 0.04212693 -0.01018375
H 3.02630689 9.96441563 7.95887405 -0.00365160 0.00496268 0.02532283
H 0.10291955 14.10943365 2.38369003 -0.00305393 -0.00955299 -0.00741911
H 2.34858375 19.29286153 4.02510045 -0.02753717 0.00300350 0.00050509
H 7.44807890 12.19073159 8.25887279 0.01265229 0.02116781 0.01276791
H 2.00161614 18.62408552 10.59959567 0.00377653 0.03023330 0.00547208
H 18.44149640 16.00786269 4.22688641 -0.01315661 0.03720029 0.01617636
H 3.16992011 10.02377654 1.43468802 0.02626306 0.00872435 0.02212343
H 0.86711016 12.06870746 8.56283154 -0.00398601 -0.01927368 -0.00744846
H 1.64052304 17.07543933 9.54371454 -0.02507424 0.02122305 -0.01604765
H 5.78548881 16.78508692 3.57093992 -0.02556333 -0.00300343 -0.01165502
H 3.78298885 11.52346068 2.04613595 0.02041925 -0.00682232 0.00569679
H 0.59058678 13.57738448 7.58609275 0.01009081 0.01688707 -0.02981761
H 0.36408585 17.90412687 10.42257643 0.00078286 0.01987132 0.00992042
H 4.66279277 15.76141637 4.52948143 -0.01104264 -0.01206591 0.03135380
H 4.98288354 10.49514880 1.21101942 -0.00414010 -0.00321559 -0.01859910
H -1.70571472 18.34416243 14.41769089 0.00252036 -0.03371833 -0.01588236
H 1.37257080 13.59308889 15.20650953 -0.00536891 -0.00215954 0.01375299
H 3.89771245 10.53274994 21.04309833 -0.00672021 -0.01681916 0.00216551
H 0.98988213 15.38253571 20.78664475 -0.02099873 0.01692831 -0.02217381
H 4.10224378 17.57942705 12.45090274 0.01756282 -0.01515355 0.02012097
H 2.48692092 12.89231699 17.16337327 -0.02376389 0.00486706 0.02234064
H -1.93497807 11.10696410 22.96947212 0.00669281 -0.00515329 0.02333615
H -0.23095772 16.15901719 18.87510735 -0.01220075 0.00073219 0.01028118
H 2.63288599 16.37633188 22.35521504 0.00293675 -0.03872530 0.00014306
H 2.32945151 11.69838552 19.26585645 0.01601153 -0.01722355 0.01530241
H -0.36000258 12.43111904 13.30759836 -0.00114316 -0.02033644 -0.00941128
H -0.11589022 17.45510291 16.77739921 0.01351459 -0.00457611 0.00153764
H 1.25508003 14.90059898 11.77816733 -0.01511873 -0.00872593 -0.01395427
H -1.50813702 10.22531230 17.94449117 0.00112533 -0.02684908 0.01680105
H 0.80314795 13.60388289 24.20028136 -0.00283210 -0.00024427 0.01631381
H 3.86354874 18.71372168 17.78342010 -0.02019454 0.01502314 0.02450767
H 1.12294865 16.62034265 13.73061910 0.02606099 0.00124922 -0.00771314
H -1.46527743 12.05249202 16.15014402 -0.00891044 0.02642871 0.01069413
H 0.77034236 11.89680772 22.49850951 -0.00887306 -0.00699699 -0.00640817
H 3.87310443 17.03206189 19.59918572 -0.01791493 0.00247366 0.01705295
H 3.56954788 14.71083300 21.43086546 -0.01983556 0.03697408 -0.04418676
H 1.17141460 10.13493567 20.53642198 0.01978689 0.01560903 -0.01747675
H -1.24046691 14.41274006 14.07934346 0.01599377 0.01183062 0.00180946
H 0.94191357 19.06117831 15.51480644 -0.00514564 -0.01588289 -0.00430913
H 5.58647526 12.24067359 20.51748771 -0.00460927 -0.00319892 0.00793820
H 0.21409696 18.85154585 22.53057129 0.01277305 0.00724455 -0.05897787
H 17.32929222 16.29921862 15.71314171 0.01659227 0.01184103 -0.01604230
H 1.27211681 10.52272073 13.84666133 -0.01081878 -0.02544526 -0.01672211
H -2.51653958 12.80125343 20.06484479 -0.01552924 -0.00643274 0.01751073
H 0.69135658 17.45537133 21.54556561 0.01792452 0.01132201 -0.01400197
H 2.70239822 15.53217059 15.93964777 -0.01374787 0.00651000 -0.02213385
H 2.73545355 11.58485930 14.16127200 -0.01129586 0.01107884 0.00377157
H -0.97690179 12.38271382 20.70247989 -0.02360043 0.00394577 0.04151166
H -0.97827704 17.51267410 22.09112212 -0.02672758 0.01118460 -0.00795207
H 4.12768323 14.31532330 16.27148508 0.01689396 0.00529753 -0.00922193
H 2.87691483 10.18749129 13.01840053 -0.01938913 0.01722865 -0.01736196
H -3.22043627 18.56467634 26.58064475 -0.00966030 -0.00424198 -0.00793707
H -0.68077242 13.71748839 27.12042647 0.01799129 -0.00083698 -0.02477445
H 2.40321205 10.43085977 32.60101741 -0.00187671 0.01020673 0.01722316
H -0.45130619 15.46714396 32.39228196 0.00051190 0.00120018 -0.01355083
H 2.45272409 17.90920610 24.47808510 -0.00384485 0.00934504 0.00463074
H 0.32266351 13.13038328 29.06690605 0.03389124 0.00859935 0.00629359
H -3.50849052 11.17949863 34.54569716 -0.00618024 -0.02276379 0.00076630
H -1.56887027 15.94724036 30.24200817 0.00959250 0.00535471 -0.00284422
H 1.07053901 16.35161866 34.38786270 0.00473281 -0.02910457 -0.00520295
H 0.33280096 11.47287246 30.77694420 -0.00373816 -0.02118530 -0.00100757
H -2.14671639 12.35512319 24.96273276 0.00744910 -0.00227747 -0.02658871
H -1.61150923 17.42299013 28.20334492 0.00890731 -0.02394250 -0.01722278
H -0.67252150 14.87600381 23.71050172 -0.00844934 -0.01319228 0.01821014
H -3.59265850 10.19538901 29.82016528 -0.01092872 -0.02210941 0.03349100
H -0.52038523 14.00040087 35.32071045 -0.02269469 0.01859912 -0.02736819
H 2.30837979 19.00039284 29.20948613 -0.01557911 -0.01036413 -0.03177819
H -0.76354733 16.04843738 25.77700135 -0.01129340 -0.00026108 0.02661050
H -3.45326046 11.62393436 27.68045877 0.00275779 0.01920608 0.01740525
H -0.51480752 12.45825582 33.56541905 0.00857294 -0.00695183 -0.00020410