2160
Time=61000.00000005 pbc="T T T" Lattice="20.61377147 0.00000000 0.00000000 0.00000000 28.93982821 0.00000000 -4.73366217 0.00000000 35.62924475" energy=-13795.56753874 virial="-84.42490755 4.03176406 66.58309189 4.03176406 -42.93148935 4.42669271 66.58309189 4.42669271 -42.08135679" stress="-0.00142274 0.00018332 0.00321400 0.00018332 0.00040958 0.00016712 0.00321400 0.00016712 0.00036918" Properties=species:S:1:pos:R:3:vel:R:3
O 0.54820349 8.55980099 2.44341780 0.00332491 0.00088354 0.00074418
O 1.71341868 3.82324609 3.58774139 0.00487262 -0.00003961 -0.00353058
O 4.68668815 0.90044125 9.77775201 0.00265557 -0.00493816 0.00092275
O 3.39316756 5.86889064 8.17876690 0.01039873 0.00033006 -0.00144856
O 1.28868679 4.73893100 9.40982141 0.00198153 0.00940563 -0.00215030
O -0.30458325 10.09717196 8.50890810 0.00148706 -0.00237012 0.00062100
O 3.97685582 4.75491276 2.37479652 0.00428625 -0.00480842 -0.00083746
O 5.38500392 0.02483585 3.68325530 -0.00615154 0.00082625 0.00342897
O -0.84376899 8.42802052 14.34710773 0.00292311 0.00009903 -0.00323301
O 0.59191475 3.89751653 15.31830261 -0.00379371 -0.00545072 0.00485844
O 3.14843830 0.84811706 21.36382325 -0.00154423 0.00061077 0.00202755
O 1.68976398 6.03469636 20.02409573 0.00237777 0.00372019 0.00127517
O -0.43664238 5.05643128 21.44350107 0.00217106 0.00106736 -0.00479665
O -1.79616872 9.78403528 19.81630127 -0.00398015 -0.00607907 0.00314191
O 2.43781549 5.03308770 14.01926285 0.00289623 -0.00046058 0.00752956
O 3.84797473 28.74753351 15.22849208 0.00167102 0.00742352 -0.00315863
O -2.27140295 8.61255400 26.37097417 0.00457697 0.00335582 0.00013364
O -1.35710862 3.72599983 27.39981344 -0.00569801 0.00303138 -0.00524350
O 1.39768988 1.04062579 33.31412944 -0.00006024 0.00106327 0.00377954
O -0.05063352 5.50519136 32.41619151 -0.00484237 0.00192333 -0.00096000
O -1.98737899 4.50441242 33.66238932 -0.00675971 0.00036319 0.00342606
O -3.19427128 9.64314085 32.38473525 -0.00425139 -0.00127063 -0.00593138
O 0.76963060 4.86285860 25.87955548 0.00289690 -0.00313588 0.00179398
O 2.52809907 0.02272044 27.51005070 -0.00240754 -0.00181078 -0.00551573
O 0.53464228 18.04660761 2.26183175 0.00277421 0.00136316 -0.00383692
O 1.76025705 13.37205158 3.28376004 -0.00111081 -0.00087257 -0.00318777
O 4.38169443 10.72738439 9.53195085 -0.00778781 0.00204939 0.00507687
O 3.16711399 15.37252141 8.09013347 0.00215977 -0.00618605 -0.00307084
O 0.83064442 14.63597734 9.31563055 0.00016662 0.00105524 0.00310278
O -0.25213615 19.66187802 8.40835995 0.00437930 0.00060915 0.00707604
O 4.04837636 14.29213771 2.33139925 0.00483382 0.00555268 0.00003982
O 5.38390440 9.60986829 3.23351405 0.00160150 -0.00318794 -0.00103441
O -0.56325700 18.49770664 14.43376856 0.00176501 -0.00697859 -0.00525758
O 0.54433754 13.94349685 15.89887441 0.00081663 -0.00320137 -0.00240714
O 2.96119205 10.73441622 21.33387784 0.00382405 0.00011065 0.00205970
O 1.73253786 15.70896332 20.39203607 0.00045746 0.00341923 0.00362805
O -0.22458133 14.44778978 21.53342584 -0.00394987 -0.00486522 -0.00129628
O -1.78233071 19.76628695 19.92366654 0.00455831 -0.00146762 0.00104148
O 2.53754391 14.45794514 14.29146734 -0.00428713 0.00122125 0.00479610
O 3.90616663 9.70993314 15.13900712 0.00168728 0.00026686 -0.00239196
O -2.55469250 17.97366457 26.20536989 -0.00561690 0.00037032 0.00233669
O -1.41790281 13.40033122 27.59905826 0.00080130 0.00149081 0.00422949
O 1.50166867 10.79125597 33.22713922 0.00372318 -0.00457114 0.00134579
O 0.40532683 15.68004907 32.15638081 -0.00005327 0.00224205 -0.00064948
O -1.61532848 14.30993226 33.14294602 -0.00053841 -0.00120881 0.00482112
O -3.34222211 19.11769747 31.58379205 -0.00223843 -0.00312873 0.00618216
O 0.99230069 14.06738955 26.44912512 -0.00113387 -0.00144272 -0.00561001
O 2.55833596 8.96684485 27.89464289 0.00237175 0.00290721 -0.00397397
O 0.73676122 27.77148221 2.72683043 0.00021704 -0.00224726 0.00176439
O 1.99845261 22.83182717 3.18743917 -0.00090260 -0.00230557 0.00110661
O 4.45496176 20.72688133 9.30128051 0.00202537 -0.00359916 0.00094165
O 3.43214164 25.46352399 8.55642345 -0.00123341 -0.00641842 -0.00024774
O 1.31443247 23.92570156 9.59722546 -0.00202808 0.00117524 -0.00035494
O -0.16908789 0.28378223 8.48794948 0.00103548 0.00443372 0.00126487
O 4.02013751 24.05154277 2.24940120 -0.00535751 0.00305681 -0.00392390
O 5.51708843 19.23567883 3.41109415 0.00742210 0.00450426 0.00014054
O -0.96057032 28.17855868 13.87904936 -0.00218345 -0.00255208 0.00444799
O 0.55909163 23.12975666 15.29999245 -0.00259434 0.00682210 -0.00398757
O 3.07882332 20.62721913 21.31206234 -0.00089059 0.00652903 0.00049364
O 1.91998224 25.16359412 20.18691281 -0.00357828 -0.00788871 0.00202374
O -0.37426136 24.58064190 21.41038461 0.00200449 0.00292355 -0.00501955
O -1.85625006 0.26559865 19.95543718 0.00091452 -0.00548339 -0.00051049
O 2.51930119 24.64775703 13.97564120 0.00033503 -0.00290416 0.00280345
O 4.08210114 19.18284418 15.57686775 0.00241827 0.00158358 0.00293075
O -2.22413620 28.00628123 26.26222549 -0.00592326 0.00655109 -0.00381336
O -1.11858334 23.15327373 27.22298124 -0.00133871 0.00197398 -0.00685777
O 1.52079424 20.48559272 33.26819037 -0.00455322 0.00103031 0.00255893
O 0.11180678 25.09462250 31.97078111 0.00774516 0.00011970 -0.00065317
O -1.95462386 24.42781445 33.31180567 0.00063273 0.00627557 0.00301747
O -3.26216429 0.01557252 32.18133730 -0.00164261 0.00204833 -0.00242038
O 1.16920014 23.90588051 26.39318122 -0.00142645 0.00667053 0.00098182
O 2.42588737 19.30400575 27.43449676 0.00007246 -0.00407242 0.00143280
O 7.52636231 8.41542910 2.33580215 -0.00468263 -0.00699879 0.00165586
O 8.95341337 3.47342514 3.34864010 -0.00313150 0.00362914 -0.00336284
O 11.35141990 0.98378306 9.76603347 0.00578119 -0.00141263 0.00051349
O 10.04599363 5.96631912 8.21906627 -0.00088569 0.00043674 -0.00147394
O 8.17781939 4.86571770 9.57328930 -0.00595435 -0.00207980 -0.00147246
O 6.48861532 9.90937800 8.22269269 0.00437241 0.00739360 -0.00070941
O 10.71258845 4.93189152 2.15806454 0.00173692 0.00121443 -0.00403378
O 12.39335035 0.01639049 3.89499189 0.00805597 -0.00184685 -0.00009622
O 6.05521133 8.64578020 14.10512088 0.00005481 -0.00010364 0.00135512
O 7.22923807 3.89649008 15.68217535 -0.00764628 0.00074460 0.00034220
O 10.00949822 1.22662472 21.10937283 0.00506420 -0.00005298 -0.00202942
O 8.86451661 6.18239052 20.38884047 0.00528035 0.00299095 -0.00335489
O 6.92246222 4.81120640 21.46423226 0.00539141 0.00133492 -0.00077324
O 5.07882526 9.75237727 20.08710975 0.00110824 0.00400565 0.00679837
O 9.45246321 4.55364442 14.28382615 0.00280584 0.00073976 -0.00604759
O 10.99643731 0.19176394 15.49317079 0.00215276 -0.00541928 0.00355146
O 4.34699168 8.59177799 26.11401846 0.00171090 -0.00259254 -0.00676470
O 5.61352523 3.96502357 27.24923291 0.00165619 0.00112178 -0.00652957
O 8.08943488 0.84390590 33.44432282 -0.00150888 -0.00218067 -0.00121500
O 6.91710430 6.06443084 32.25968549 0.00083684 -0.00198191 -0.00254202
O 4.72955673 4.78566165 33.08029593 0.00140199 -0.00577101 0.00013288
O 3.41749955 9.62629174 32.03286177 -0.00659644 -0.00138440 -0.00130266
O 7.77732554 4.81724117 25.78965046 0.00272901 -0.00294821 -0.00513586
O 9.33816488 0.12895097 27.35301758 0.00383512 -0.00027385 -0.00146040
O 7.76407686 18.43507541 2.42471630 -0.00050443 -0.00007162 -0.00127298
O 8.76774461 13.71258069 3.44415859 0.00431132 -0.00521846 -0.00182090
O 11.14836250 10.79089343 9.30303446 0.00186504 -0.00082306 -0.00099426
O 10.00214291 15.59839132 8.54301692 0.00204685 0.00052397 -0.00438993
O 8.06817113 14.20303942 9.50798015 0.00580854 -0.00617839 0.00816226
O 6.34369407 19.32047161 7.78529850 0.00073718 -0.00135998 -0.00145831
O 10.89452343 14.64799300 1.83839180 -0.00158611 0.00194750 -0.00125482
O 12.22769824 9.74203079 3.51418164 -0.00402986 0.00447271 -0.00246071
O 6.17392317 18.22217965 14.36974239 -0.00315576 -0.00012486 -0.00440887
O 7.31507337 13.54956279 15.50918448 0.00197255 0.00115111 -0.00405105
O 10.01450013 10.54837098 21.01367998 -0.00005089 -0.00186391 -0.01006776
O 8.49316229 15.37994365 20.40421638 -0.00110570 0.00298909 -0.00036849
O 6.80766409 14.45758291 21.90380648 0.00048593 0.00155524 0.00132320
O 5.17281312 18.95848549 20.13416649 -0.00267886 0.00073979 -0.00355717
O 9.32287527 14.65535128 14.05032520 -0.00707876 0.00357837 -0.00048654
O 10.79893981 9.73523531 15.15670705 -0.00359046 0.00843536 0.00433027
O 4.34346098 17.98158035 26.51269794 0.00108434 0.00151705 -0.00047635
O 5.50066730 13.33723234 27.26929425 0.00123720 0.00478892 0.00344931
O 8.34457484 10.30538036 33.35191125 -0.00116191 -0.00682256 -0.00299441
O 7.32946973 15.34522916 32.10140595 0.00313373 -0.00356117 -0.00253565
O 5.19048035 14.56339029 33.54795695 -0.00161740 -0.00023476 -0.00405355
O 3.46960422 19.45685609 32.11156221 0.00159994 -0.00449090 0.00670400
O 7.89808419 14.12930917 25.86924153 -0.00262506 -0.00497747 0.00195310
O 9.01961844 9.37217951 27.29049879 0.00298303 -0.00048520 -0.00191516
O 7.52387172 27.70081348 2.77727098 -0.00064812 0.00451859 -0.00443635
O 8.83983381 23.28890639 3.55319700 0.00794984 0.00307688 0.00084074
O 11.16463601 20.22786669 9.27792274 0.00054011 0.00174832 -0.00371377
O 10.46669365 24.72618755 8.16475172 0.00162346 -0.00415316 -0.00550867
O 8.14206458 24.15535349 9.29815342 -0.00725766 -0.00138130 0.00388992
O 6.51716253 0.07810238 8.13474578 0.00129999 0.00028211 -0.00498763
O 10.80086382 24.37642156 2.13594808 -0.00210441 0.00146255 0.00538595
O 12.61432301 19.13008082 3.96015100 0.01199952 0.00066367 0.00009394
O 6.14741779 27.97187797 13.95843462 0.00467581 0.00728205 -0.00258206
O 7.19516329 23.19027565 15.49162273 -0.00401374 0.00476631 -0.00086674
O 9.86644045 20.00875555 21.81070971 0.01128487 -0.00272809 -0.00372169
O 8.86644203 25.44948062 20.39543495 -0.00056442 -0.00401408 0.00079162
O 6.84862465 24.16323942 21.54157322 -0.00156769 0.00356582 0.00065581
O 5.23478331 0.00570381 19.97844958 -0.00476242 -0.00106060 -0.00203163
O 9.49856638 24.25826855 14.05362884 0.00666296 -0.00162790 -0.00094909
O 10.88488172 19.08592329 15.76643184 0.00907977 -0.00313452 -0.00194204
O 4.46666147 28.08453175 25.70283396 0.00266163 0.00519994 -0.00048633
O 5.53580179 22.87929078 27.17219368 0.00263665 -0.00362713 -0.00193852
O 8.29607491 20.53857746 33.17697748 -0.00124456 0.00233177 -0.00118040
O 6.89265446 25.28248046 31.95060165 -0.00252062 -0.00306980 -0.00074123
O 4.91535156 24.19712077 33.33401876 -0.00143783 0.00275915 0.00303301
O 3.44353909 28.91333203 31.78251035 -0.01209383 0.00340467 -0.00458340
O 7.65014633 24.23315710 26.06882928 -0.00052555 0.00288621 -0.00301991
O 9.21036195 19.03763968 27.51739842 -0.00283160 -0.00285058 -0.00537032
O 14.31309556 8.83832486 2.37996982 0.00312490 0.00180094 -0.00126755
O 15.63203279 3.52627038 3.32597024 -0.00311145 0.00006456 0.00461159
O 17.94167250 0.96571036 9.19548900 0.00278269 0.00046511 -0.00247800
O 17.05619512 5.66860270 8.12709761 -0.00888079 0.00155417 -0.00204362
O 15.20143392 4.95861971 9.74164239 0.00473739 0.00060430 0.00027168
O 13.44874621 9.81144099 8.37238227 -0.00042285 0.00112915 -0.00391990
O 17.43774424 4.78650748 2.08401572 -0.00765800 -0.00427480 0.00075012
O 19.13515220 28.76018878 3.72403521 0.00574637 -0.00889485 0.00594945
O 12.81893892 8.46068291 14.29089920 0.00248660 0.00512347 0.00218542
O 14.19480431 3.57993647 15.49434898 -0.00518620 -0.00282234 -0.00077335
O 16.78184992 1.15108107 21.20619887 0.00537359 -0.00306600 0.00773445
O 15.69229593 6.04944823 20.02987416 0.00353860 -0.00504385 0.00755365
O 13.71979150 5.07263192 21.50703673 0.00058080 -0.00088767 0.00088022
O 12.13225474 9.47397112 19.58491967 -0.00344299 0.00069748 0.00118775
O 16.18871315 4.54236237 14.09617669 0.00234650 -0.00566191 0.00937349
O 17.70301061 28.79070544 15.74030247 -0.00056534 -0.00027272 0.00355925
O 11.37336919 8.40557460 26.37511498 0.00205011 0.00191644 -0.00634142
O 12.88419293 3.80677676 27.55883499 -0.00322357 -0.00115074 -0.00354697
O 15.08494010 0.64424225 33.54381599 -0.00077165 -0.00719326 0.00200245
O 13.91563219 5.75960448 32.23149635 -0.00176704 -0.00706627 -0.00503010
O 11.80132331 4.96095698 33.54703173 -0.00454642 0.00254330 -0.00233510
O 10.30191227 9.82341611 31.88911570 0.00179332 0.00350687 -0.00250904
O 14.76220011 4.73773779 26.00024096 0.00123748 0.00740989 0.00352833
O 16.22861194 28.84588092 27.31979254 0.00152439 0.00368733 -0.00524903
O 14.64866381 18.38383186 2.38278413 -0.00763296 -0.00344615 0.00191521
O 15.59210482 13.58722346 3.76201014 0.00274954 0.00271698 -0.00431294
O 18.03231350 10.83745854 9.58791467 0.00032613 -0.00579158 0.00578511
O 17.27163788 15.49878383 8.42571362 -0.00198379 0.00206670 -0.00068169
O 15.10087419 14.60224197 9.51031180 -0.00320773 0.00362716 0.00343851
O 13.41110325 19.34862497 8.29095831 0.00034392 -0.00304726 -0.00192355
O 17.61666432 14.45441360 1.95667012 0.00675739 -0.00315652 -0.00467178
O 19.06162566 9.56443421 3.62203020 0.00282470 -0.00040603 -0.00375243
O 12.89726754 18.16524345 14.18550506 -0.00863424 0.00134600 0.00093061
O 14.38125947 13.45315175 15.21382130 0.00106775 -0.00000196 0.00030980
O 16.98128217 10.37964174 21.24160300 -0.00014521 -0.00425786 0.00561170
O 15.62807153 15.19667113 20.19901699 -0.00493248 -0.00157718 0.00248532
O 13.55562687 14.14696889 21.32710175 0.00400305 -0.00536021 -0.00092482
O 11.93472246 19.05898791 20.54845423 0.00233356 0.00282418 -0.00566276
O 16.17740760 14.76321886 14.15680484 -0.00180658 -0.00306381 -0.00434466
O 17.57030379 9.59101333 14.96893114 -0.00216132 -0.00064807 0.00159422
O 11.31322868 17.85363450 26.03537224 0.00605779 0.00205900 -0.00158478
O 12.69624518 13.38024884 27.33727704 -0.00219875 -0.00149832 0.00118361
O 15.16035801 10.47688892 33.14816932 -0.00212332 0.00152154 0.00728176
O 13.88793784 15.62540824 31.95977432 -0.00982559 -0.00470718 -0.00422428
O 11.85675072 14.62426319 33.21919942 0.00953205 0.00827629 -0.00116453
O 10.33341234 19.42140696 31.87356963 -0.00167238 -0.00637963 0.00193468
O 14.67422674 13.98323598 26.11813850 -0.00228097 -0.00254362 -0.00345745
O 16.43190834 9.46933463 27.82920973 -0.00224913 -0.00156859 -0.00756456
O 14.38301565 27.96935637 2.28909966 0.00627710 0.00427711 0.00125268
O 15.55035309 23.37737508 3.81166099 0.00079553 -0.00143637 0.00274902
O 18.21864740 19.87984440 9.85935629 0.00294924 -0.00279814 0.00088481
O 16.95757329 25.46333737 8.59316511 -0.00222540 -0.00204609 0.00162643
O 14.86973253 24.12987429 9.41906959 -0.00180568 -0.00166885 0.00036127
O 13.25882552 28.74331501 8.24721981 0.00013625 -0.00301854 -0.00560823
O 17.63171808 24.02142973 2.16727044 0.00088451 -0.00209468 -0.00444407
O 19.05995269 19.12074181 3.46753511 0.00392165 0.00352391 -0.00149252
O 13.00017858 27.81498029 14.34110073 -0.00038681 -0.00572630 -0.00224800
O 13.97805183 22.95400587 15.77557689 -0.00520701 0.00310069 0.00074066
O 16.60018857 20.29146414 21.38523043 0.00187320 -0.00409781 -0.00001018
O 15.39846750 25.13841149 20.50735456 0.00214066 -0.00302445 0.00122957
O 13.36188051 24.01965322 21.70949856 0.00868502 -0.00166366 -0.00004582
O 12.26610896 0.08035898 20.61808846 0.00582474 -0.00429796 -0.00034244
O 16.12057964 23.54452738 14.60094329 -0.00879577 0.00057485 -0.00171561
O 17.44835964 19.12937646 15.41787202 -0.00203134 -0.00527729 0.00086408
O 11.17529728 28.02856244 26.12991939 -0.00189505 0.00025186 -0.00475352
O 12.33971002 23.17433573 27.40584957 -0.00423454 -0.00119333 0.00168360
O 15.13478438 20.23885667 33.10268496 -0.00368106 -0.00734464 -0.00021268
O 14.03878448 25.13609976 32.09829282 -0.00060976 0.00673535 -0.00049338
O 11.87049106 24.29555895 33.16427448 -0.00567608 0.00251061 -0.00144578
O 10.09349780 28.82458066 31.81562090 0.00066964 0.00370921 0.00115324
O 14.56170471 24.08802939 26.05155948 -0.00065835 0.00929374 0.00400189
O 15.94219131 19.49180785 27.36027950 -0.00026095 0.00222734 -0.00209633
H -0.30950242 8.92779111 2.73556605 0.00698474 -0.03425192 -0.00912186
H 2.55746713 4.30474392 3.46852489 0.00111013 0.00455459 -0.02306926
H 5.86796275 0.48268524 8.81190059 -0.00416184 0.00578452 -0.01999245
H 2.50183062 5.40088454 8.36636836 -0.03235085 -0.01458225 0.01422785
H 5.58818333 8.25289411 0.66312557 0.00921024 -0.01354939 0.01934205
H 3.80036231 3.41936787 5.27064021 0.02519527 -0.00942017 0.02194483
H -0.69267305 0.86781387 10.91882996 0.00634460 0.01644217 0.00719709
H 1.28324358 6.45753095 6.69084721 0.00889224 -0.00315189 0.00270734
H 4.00492024 6.74051942 10.46500114 -0.02008897 -0.01161897 -0.01992263
H 3.81587503 1.71230135 7.03802483 -0.01002623 0.00394082 -0.00640839
H 1.01698181 2.72005921 1.37431165 -0.02289016 0.00076523 0.00996900
H 1.39139207 7.72108347 4.52061728 0.00340050 0.01970913 -0.00306565
H 2.82863887 5.53408963 0.05793875 -0.00479364 0.00216857 0.00477308
H -0.14279209 0.60302158 6.17937310 -0.01350304 -0.02081786 -0.00589556
H 2.64968519 4.21104537 11.97620024 0.00045812 0.01550097 -0.03173701
H 5.18128321 9.09448439 5.56652988 0.01018319 0.00847285 -0.01300039
H 2.66766206 7.21591072 1.74923414 -0.01340761 0.00332984 0.01160785
H -0.27835874 2.18679496 4.31739689 -0.00841583 -0.01387740 -0.00961597
H 2.67642235 2.51385355 10.09129617 -0.01572872 -0.00644255 -0.00311818
H 5.21023621 7.65148181 7.63856054 -0.01795801 0.00264686 0.02134936
H 4.98737685 4.79055420 9.76711645 0.00332184 0.01102133 0.02782271
H 2.91945259 0.15983545 8.21493496 -0.00287486 -0.00774187 0.01139142
H 0.08703482 4.62154845 2.19299878 0.02646783 0.00498131 -0.01280325
H 2.31513273 9.91506259 3.81432754 0.00336039 -0.00078358 0.00439058
H 7.28451102 3.88826203 7.31003086 -0.00687923 0.01864356 -0.01929756
H 2.37069706 8.46622923 9.58074037 0.01252321 -0.01846853 -0.00648488
H 18.82583303 5.47683438 4.46870684 -0.01100033 -0.00088793 0.02299981
H 4.60307225 0.92299498 1.48174053 0.01384192 -0.01289358 -0.00164282
H -0.45908687 3.89160211 7.31377945 0.02370440 -0.01323237 -0.00758815
H 1.01213438 7.56233176 8.97733974 0.00095056 0.01167940 0.01333680
H 6.48235895 5.75808372 4.27351015 0.02747948 0.01048015 0.02454734
H 2.87426851 1.13497216 1.91853610 0.00495673 -0.00512219 -0.01926327
H 19.32748877 3.01649211 8.52038302 0.01796245 0.01228902 -0.00052205
H 0.74792903 8.76067540 10.32645659 -0.01507971 0.00719571 -0.00338241
H 5.74847881 7.01911746 3.40256611 0.01196174 -0.00172787 0.01835066
H 4.19003553 2.15834038 2.59691887 -0.01821888 0.03137666 -0.03394566
H -1.74938238 9.01905309 14.56169964 -0.01947651 -0.02031436 0.00478150
H 1.45149751 4.46099187 15.07588634 -0.02817339 0.01143035 0.02249774
H 4.02741836 0.53238882 21.01465346 -0.00486371 0.00994545 -0.00449573
H 0.82020994 5.52315600 20.11975345 0.00503055 -0.01011722 0.00578914
H 4.06301873 8.31240317 12.35132801 0.01230963 0.01513270 -0.01593340
H 2.53934363 3.49151082 17.05183628 -0.01995186 0.00569455 0.00801263
H -1.85365667 1.30051586 22.92497000 -0.01123760 -0.01561920 -0.01494790
H -0.33905003 6.50391999 18.35725740 -0.00550037 0.01400815 -0.03290166
H 2.69594380 6.59351403 22.39895389 0.02031788 -0.01993580 0.00940248
H 2.21198894 1.92897203 19.05221232 -0.01735936 0.02071972 0.02132709
H -0.48185362 2.33456245 12.92884359 0.02246578 -0.00915173 0.00054366
H -0.20514937 8.17041939 16.37217111 0.03139879 0.01138373 -0.00056224
H 1.15995313 5.42148505 11.65518753 -0.01491255 0.00905865 0.02584977
H -1.63331666 0.74709923 17.78594819 0.01563630 0.02894789 0.00777684
H 1.07947579 4.20344510 23.69121920 -0.00135247 -0.00021661 0.00424365
H 3.67987576 9.35170817 17.62090069 0.00553841 0.01232740 -0.01660292
H 1.21669212 7.03357115 13.47653591 -0.01256370 -0.03575590 -0.00891474
H -1.51949365 2.31127132 15.82674760 -0.00444752 -0.00318649 -0.00961085
H 1.06199734 2.24291414 22.04559724 -0.00092467 -0.00864085 0.01214144
H 3.68849166 7.56395105 19.41258525 0.01767853 -0.00354188 0.02654239
H 3.77960468 4.97251994 21.44638299 0.00243932 -0.00593574 -0.00889997
H 1.31438625 28.92089361 19.77268177 0.00194113 -0.00980509 -0.01956127
H -1.27152961 4.49405568 13.84292755 -0.00526628 -0.00018170 -0.00172028
H 0.77109173 9.84642353 15.45512502 -0.00260902 0.00915790 0.00350197
H 4.45240871 3.75812400 19.69981688 0.00082038 -0.00152894 0.01130943
H -0.89049136 9.14246472 22.25936377 0.00985884 0.02633995 0.00009239
H 16.98838062 5.95033141 16.09781788 0.00528488 0.02425608 -0.00051962
H 3.20660171 1.60407947 13.43304076 0.03648864 0.00336943 -0.00105521
H -1.47699876 4.12916957 19.17647990 -0.00972077 -0.02245589 0.00729654
H 0.64068225 8.50494163 21.64518920 -0.02077737 0.02515957 0.01322316
H 4.76845974 6.63797105 15.41445960 0.01224064 -0.03722561 -0.01307511
H 1.50938851 1.51119385 13.73506391 -0.01294774 0.00852804 0.00591031
H 17.62644539 3.59878136 19.87839662 0.02461631 0.00021530 0.01940966
H -0.99713917 7.84163276 21.07647157 0.02070692 -0.01190523 -0.01040476
H 3.04695931 6.59115510 15.79004272 0.00092537 0.02441782 -0.01615295
H 2.58221165 2.45755324 14.82509596 -0.01795117 0.02565643 0.02660979
H -3.18046628 8.94182819 26.69605238 -0.01936175 -0.00325853 -0.02412792
H -0.45695572 4.05787375 27.19227953 0.03073259 0.00234791 0.00786907
H 2.22254646 0.80935109 32.85120465 0.01811485 -0.01082026 0.00492294
H -0.89779518 5.12490425 32.86706160 -0.01389597 0.00074265 0.00271768
H 2.48752127 8.35576101 24.14475675 -0.01877136 0.00615914 -0.00569299
H 0.54524529 3.43407809 28.95896669 0.00561289 0.01929172 -0.00508446
H -3.83760726 0.84113293 35.44157800 0.00162546 0.00460261 -0.02999025
H -1.99998178 6.54487419 31.06760852 0.01571862 -0.00199299 -0.00141866
H 0.74221143 6.76911278 34.31339595 -0.00602223 -0.01524051 -0.00215726
H 0.68231437 1.76552556 30.99400153 -0.00256057 -0.00491708 0.00707115
H -1.75349073 2.80079897 24.85519322 0.00385510 -0.02174677 0.00302210
H -1.75320020 7.68741410 28.86688909 0.00673557 0.00288757 0.01365905
H -0.41488614 5.76567813 23.52993773 0.00778073 -0.02836512 0.01477512
H -3.11340797 0.23116767 29.94531141 -0.01959000 0.00279574 0.01299851
H 4.14792631 4.18123210 0.19930936 0.02063169 0.00648805 -0.00016434
H 2.29163339 8.51710366 30.09042912 -0.01249833 0.01626441 -0.01358743
H -0.30733926 7.31803045 25.37477402 -0.03677487 -0.00864049 0.01111153
H -3.19500964 1.98590399 27.87518332 0.00236147 -0.02099994 -0.02350442
H -0.68715459 2.49383011 34.09247416 0.03761415 -0.01489774 0.00946492
H 2.18172105 7.00016110 31.91226305 -0.01639412 0.02771217 -0.01912591
H 1.54412680 4.96405901 33.19650904 0.00761796 0.02710457 0.00445706
H -0.11881512 28.93143467 31.82000877 0.01711790 0.00293013 -0.01293905
H -2.74672942 4.32791490 26.23942711 0.00758899 -0.01129641 -0.01123483
H -0.53924433 9.53205749 28.03412737 -0.04059909 0.00473563 -0.02761924
H 3.60831779 3.63917204 30.97350134 0.00830983 -0.02990998 0.02170664
H -1.19452609 7.57777756 33.45385529 -0.00902384 0.00476641 0.00012883
H 16.38571294 4.76433751 28.53196092 0.01199056 -0.00605415 0.01043355
H 1.97533750 1.38549131 25.55852727 -0.00736646 0.01986702 0.01391401
H -2.72780882 2.48532513 32.43324715 -0.01690013 -0.00098537 -0.00178428
H -2.57799252 8.12406282 34.36567949 0.00866220 -0.00139332 0.00153361
H 1.51702214 6.43137157 27.71166196 0.00967040 0.01469868 -0.01218722
H 0.32894996 0.80365299 25.20080031 -0.01929014 -0.01369544 0.01192285
H -3.17871394 3.91748900 31.23242503 -0.02325973 0.01908613 0.00159785
H -1.01065630 8.94609632 34.50344571 -0.02308848 -0.01468191 -0.01035527
H 2.44790117 4.86803955 28.01331352 -0.00390287 0.00690644 -0.00621876
H 0.42895641 2.15417816 26.39147106 0.00865639 -0.00942921 0.01152930
H 20.26947106 18.31834051 2.39580867 0.01755243 0.00658136 -0.01194616
H 2.60879072 13.85976585 3.19221712 -0.02446204 -0.01453397 0.03641491
H 5.19625421 10.18454069 9.39226128 -0.01380302 -0.00503109 0.02013394
H 2.22905540 15.26301379 8.34675871 -0.02622899 0.00060663 -0.03449313
H 5.76616780 18.01799755 0.70999832 0.00712583 -0.00247664 -0.01330553
H 3.78926106 13.01629575 4.93683033 -0.01839213 -0.00317018 -0.01461654
H -0.60259806 10.97272026 11.25946495 0.01252749 0.00250181 0.01327926
H 1.23515769 15.99318894 6.42904000 -0.00897544 0.02412504 0.00382008
H 4.13300961 16.54907699 10.63673364 0.00658478 0.01150975 0.00292083
H 3.72302905 11.74328604 7.02469899 0.01274213 -0.01072293 -0.00119156
H 1.14506379 12.52833466 1.14375536 -0.01658651 -0.01075565 0.00997282
H 1.36608207 17.74553373 4.67122844 0.01007170 0.00938911 -0.01551198
H -1.85138219 15.09526228 35.41577122 0.00007049 0.00383913 0.03739235
H -0.33406475 10.55143043 6.16986220 -0.00200666 0.02135126 0.01398941
H 2.48661161 13.95109272 12.05301460 -0.02905015 -0.02074670 -0.00905594
H 5.50455500 18.42412026 5.44930716 0.00470016 0.02416997 0.01869247
H 2.60066190 16.46732496 1.54258093 -0.01476365 -0.00607306 -0.01500651
H -0.35890185 11.95692114 4.23111188 0.00351676 0.01144277 0.00562044
H 2.44635007 12.54215534 10.17202291 -0.02060704 -0.00088497 -0.00326502
H 5.40162590 16.62739757 7.15531804 0.00635703 -0.00692251 0.00727463
H 4.96198956 14.57121520 9.74332758 -0.00887311 -0.00647110 -0.00825250
H 2.84573917 10.13506970 8.07099665 0.00806082 -0.02207016 -0.01194244
H 0.19870916 14.60350649 1.74543654 -0.01250671 -0.00787368 -0.00366199
H 2.42072202 19.42900216 3.83166268 -0.00089839 0.02332439 0.00358845
H 6.43662418 12.15019427 8.60422095 0.02621344 -0.00950917 -0.00054400
H 1.17603944 17.29109742 9.32375828 0.00106951 -0.01499012 0.01943475
H 18.42317268 16.30307913 3.68175004 0.00274621 0.00454082 0.01697797
H 2.74739937 10.86446347 1.91849109 0.01522925 0.01396602 0.00235784
H -0.84982109 13.93192898 7.34223963 -0.02670680 0.01412885 0.00460742
H 0.84034556 18.60433578 10.40876235 0.03443557 -0.01155536 0.00839084
H 5.71470514 16.83312382 3.26849843 -0.02605786 0.01211251 0.00536814
H 4.07399006 11.78322091 2.30409784 0.02282535 0.02939811 -0.01297181
H 18.61877863 13.28264761 8.49167157 -0.00475393 -0.01325377 -0.01054559
H 2.49474447 18.39938699 9.72749653 0.03033491 0.00024096 0.03356982
H 4.68910484 15.80022030 4.25601703 -0.00134497 0.00408669 0.00035685
H 4.17992949 10.49653512 1.01236757 -0.01779088 -0.00466057 -0.01295459
H -1.47795853 18.85603469 14.81338265 -0.00131578 -0.00419065 0.00575267
H 1.27002473 13.99883919 15.24011289 0.03353884 0.02492199 -0.00269869
H 3.91165644 10.29958084 21.11207954 -0.00399563 0.00498926 0.00898337
H 0.87481691 15.24411164 20.63747724 0.00448108 -0.00938399 -0.01048577
H 4.05518847 17.94979581 12.66997405 -0.01663193 -0.02669289 -0.01216853
H 2.55760320 13.12656575 17.20171050 0.02044992 -0.00147337 -0.01913811
H -1.65063819 10.77549406 22.87583291 0.00192544 -0.02235860 0.00295649
H -0.15834153 15.75643649 18.36872308 -0.01541729 -0.00420963 -0.02385788
H 2.58968264 16.45082241 22.58711778 0.03231843 0.00300262 -0.01472294
H 2.63655395 11.36222758 18.81635805 0.00683915 0.01457445 -0.01135027
H -0.34443550 12.67770976 13.13393233 -0.00859338 -0.02858831 0.02405749
H 0.02980501 17.19258199 16.34750570 -0.00285926 0.00775092 0.00323933
H 1.08811591 15.32490450 11.62855056 0.01011270 -0.01607225 -0.02960100
H -1.45650238 10.46953579 17.69811984 -0.00685765 0.00832762 -0.00465106
H 1.11646300 14.01719158 23.98345416 -0.00708746 0.00696861 -0.01116998
H 3.66020623 19.02264548 17.84623385 -0.00026114 0.00644686 0.01159388
H 1.35327836 17.10444253 13.35235468 -0.00673392 0.00970012 0.00796540
H -1.37678173 12.22752561 16.10648897 -0.00804998 0.01629893 0.00276681
H 1.00990514 12.46593392 21.96944279 0.00617844 0.01468158 0.01585398
H 3.62803175 17.30588703 19.72809852 -0.01875564 0.00324086 -0.02329034
H 3.54702114 14.42799369 21.64502844 0.00298437 -0.02267276 0.01034729
H 1.26626676 10.16742863 20.18957636 -0.01992266 -0.00410824 -0.01794561
H -1.29207174 14.87173349 14.06422557 0.02757193 0.01661875 -0.01087261
H 0.97808175 19.08258824 15.35911650 0.00320198 0.01169833 -0.00043999
H 4.66272801 13.79583059 19.61252289 -0.00145381 -0.01829575 -0.01798163
H 0.22961347 17.62854839 21.13144688 0.01823218 0.01114877 0.00666610
H 17.94642593 16.60237658 15.72424371 0.02073142 -0.00972457 -0.02843633
H 2.87792876 11.75288607 13.78129849 -0.00085924 -0.01064614 0.00480415
H -1.58701621 13.75570986 19.15814134 -0.00819936 0.01081974 0.02359298
H -1.41781542 18.00966208 21.82134763 0.00793989 0.01620384 -0.00642598
H 3.24341366 15.62700373 16.31626308 -0.00808068 -0.01880392 -0.01074050
H 2.68917125 10.12421574 12.80494214 0.01496981 0.00561248 0.01242448
H -2.25777252 12.46049018 20.01704139 0.02563336 -0.01307714 0.00538923
H -0.13635465 19.01694709 22.24906283 -0.05363516 -0.00949789 0.01352615
H 4.89847107 15.97989582 15.72899790 -0.00720038 -0.01716708 0.01372289
H 1.20567975 10.81607562 13.82481250 -0.00467765 -0.01336127 -0.00238923
H -3.39000842 18.52736751 26.39387861 0.01527955 0.00104747 0.00336508
H -0.61771588 13.82215203 27.22845179 0.00267803 0.02348220 0.00133900
H 2.45286169 10.68798476 32.86918035 -0.00582232 -0.00872000 0.01040504
H -0.42957347 15.27258791 32.44305806 0.00441925 -0.00604685 -0.01031963
H 2.62937787 17.91455699 24.62306962 0.00188268 -0.00070494 0.01286666
H 0.72744360 13.13812168 29.16612738 -0.00302265 -0.02205010 0.02132357
H -3.55725688 10.83750222 35.01779273 -0.00539351 0.01498508 -0.01516229
H -1.66048018 16.12780255 30.66603940 -0.01316685 0.03770630 -0.00090283
H 1.14324540 16.52339015 34.36652367 0.00374505 -0.00361538 -0.01366141
H 0.89325331 11.76941759 30.98818133 -0.00041254 0.01298785 -0.00814471
H -1.59553945 12.10215614 24.88793282 -0.00664848 -0.01520731 0.00235871
H -1.77259010 17.50543715 28.63932421 -0.02706218 0.01793494 -0.00864583
H -0.30475789 14.96301279 23.58236616 0.00049840 0.03591323 -0.01604138
H -2.98239354 9.91210907 29.92917875 -0.02081137 -0.01875914 0.02784354
H 4.16369030 14.09624211 0.12486197 0.01221984 0.01705137 -0.00357992
H 2.17322343 18.86595947 29.49669891 -0.01634486 0.00843548 0.00130671
H -0.46163221 16.44148926 25.44243301 0.01030635 -0.01140273 -0.02104273
H -3.13778592 11.66456088 28.17256853 0.01675437 -0.02222786 -0.00034539
H -0.61522274 12.37077810 33.89140134 0.00118355 0.03100178 0.00727322