2160
Time=76000.00000007 pbc="T T T" Lattice="20.59628925 0.00000000 0.00000000 0.00000000 29.16397138 0.00000000 -4.72704595 0.00000000 35.52971670" energy=-13799.46695751 virial="-79.38623051 -4.19124755 70.98062767 -4.19124755 -116.03331158 4.82567505 70.98062767 4.82567505 -99.99281741" stress="-0.00131057 -0.00024540 0.00345254 -0.00024540 -0.00304870 0.00019277 0.00345254 0.00019277 -0.00237709" Properties=species:S:1:pos:R:3:vel:R:3
O 0.81997395 8.44661266 2.55763499 -0.00210199 0.00339741 0.00457252
O 1.96805493 3.66898227 3.69404680 0.00211009 0.00113098 0.00231702
O 4.59641025 1.11730259 9.61862193 -0.00090847 -0.00026861 -0.00215465
O 3.26154431 5.77451588 8.40581449 0.00135287 -0.00285314 0.00291795
O 1.18038129 4.95268738 9.56801077 -0.00411097 0.00165348 -0.00482512
O -0.16507476 9.61666420 8.23543701 -0.00205949 0.00086060 0.00093432
O 3.97970985 4.47899480 2.33953443 -0.00218765 -0.00186139 0.00438370
O 5.42079674 28.95891453 3.53797166 -0.00126264 -0.00385518 0.00197084
O -0.84778044 8.77737546 14.10332148 0.00065280 -0.00123257 -0.00210396
O -0.02284197 4.12134621 15.77425472 -0.00672982 -0.00059386 -0.00317266
O 3.03174306 1.39949382 21.16406203 -0.00114644 -0.00022588 -0.00102944
O 1.62651106 6.10910232 19.81334819 -0.00054191 -0.00547307 0.00326355
O -0.26661552 5.36044832 21.34008795 0.00133872 -0.00319918 0.00332596
O -1.67616238 10.22814081 20.31425822 0.00382202 0.00392343 -0.00299139
O 2.20732313 4.99998966 14.19465651 0.00250797 -0.00106176 0.00058687
O 3.72571315 0.04507620 15.49898901 -0.00260696 -0.00084245 -0.00522720
O -2.65863564 8.74609686 26.20320505 0.00488940 -0.00281043 0.00547065
O -1.18241662 3.75121124 27.01909305 -0.00254121 -0.00384473 -0.00160062
O 1.34931358 0.93413711 33.09327634 0.00500914 0.00438824 0.00698230
O -0.00143189 6.15366512 32.26666221 -0.00384619 0.00438922 0.00052010
O -1.80269806 4.78968354 33.29933533 -0.00242664 -0.00161004 -0.00438374
O -3.48111030 9.76941418 31.71050295 -0.00502613 -0.00140587 -0.00022010
O 0.73200423 5.00873550 25.85857862 0.00081456 -0.00238739 -0.00115647
O 2.38694811 29.00076022 27.19905718 -0.00221541 0.00306921 0.00179895
O 0.86066775 18.25037179 2.17816862 -0.00594623 0.00142852 0.00524184
O 1.95549438 13.33434924 3.42687151 0.00432308 0.00485437 0.00856493
O 4.60797826 10.75035589 9.30946168 -0.00352610 0.00271087 -0.00112572
O 3.60037756 15.69240078 8.17104086 -0.00797936 0.00538857 -0.00060793
O 1.52080610 15.45474201 9.63135229 0.00581511 -0.00839178 -0.00044449
O -0.02292340 20.02331588 8.40177730 -0.00023586 -0.00102688 -0.00040102
O 4.00808933 14.40052608 2.21240137 0.00361500 0.00178010 -0.00573530
O 5.55869741 9.28965317 3.44773104 -0.00297771 -0.00342429 -0.00208078
O -0.85021921 18.32498369 14.72204294 0.00599946 -0.00060452 -0.00556597
O 0.35895494 13.42510895 15.36793866 0.00260716 0.00194818 0.00463152
O 3.05523217 11.18730352 21.18890587 -0.00154278 0.00275392 -0.00226832
O 1.89851974 16.07960140 20.51522330 0.00099514 0.00120509 0.00163778
O -0.39795204 14.70526028 21.63859310 0.00022760 0.00265406 0.00076057
O -1.76565082 19.39203929 19.84313561 0.00243085 0.00420058 0.00159044
O 2.49011279 14.43194098 14.21608419 -0.00141101 -0.00457222 -0.00048510
O 3.97803486 9.66548283 15.45492283 0.00698678 -0.00078974 -0.00081622
O -2.36380198 18.30264446 26.35626811 0.00714841 0.00656924 -0.00066183
O -1.34152175 13.41720834 27.11155391 0.00319575 -0.00106687 0.00162399
O 1.51075525 10.72036367 32.97786521 -0.00089637 0.00536016 -0.00227328
O 0.30228661 15.59099258 32.01934286 -0.00000313 -0.00078918 0.00248856
O -2.01656521 14.80967646 32.90185597 0.00055631 0.00380840 0.00016917
O -3.38094255 19.26661842 31.82613904 0.00299447 -0.00345228 0.00284520
O 0.92338989 14.72412752 26.41525096 -0.00766625 0.00173513 0.00170393
O 2.45603644 9.87225350 27.67774823 0.00245554 0.00830052 -0.00608406
O 0.83283585 28.15626445 2.29144353 -0.00422079 0.00276324 -0.00237285
O 2.07951346 23.13126720 3.29361794 0.00142907 -0.00268243 0.00190219
O 4.55104116 20.47080013 9.79405029 -0.00590956 0.00624505 0.00348627
O 3.39662944 25.16462437 8.22139222 0.00332083 -0.00126441 -0.00614176
O 1.35754994 24.35452512 9.59114849 0.00244051 -0.00305873 -0.00309114
O -0.29637627 0.02620810 8.40454602 0.00019768 0.00595072 -0.00078943
O 4.03010056 24.30854414 2.06795304 0.00026209 -0.00172150 -0.00345577
O 5.65486341 19.61905994 3.58055862 0.00494872 -0.00218552 0.00477743
O -1.11465802 27.95981121 14.14732036 -0.00155785 -0.00072914 0.00626942
O 0.50404274 22.90559487 14.99192851 0.00367632 0.00306887 -0.00602810
O 3.00444334 20.79846666 21.16816013 0.00018773 -0.00220133 -0.00027864
O 1.93994987 25.43030502 20.33176885 -0.00036299 -0.00062887 0.01216744
O -0.25004190 24.44443883 21.30282412 0.00574775 -0.00308714 -0.00004863
O -1.70884617 0.26402296 20.42771357 0.00071747 -0.00374717 -0.00213163
O 2.31613155 24.46865276 14.00560576 0.00163771 -0.00165962 0.00063975
O 4.05194260 19.08637786 15.25692329 -0.00486128 -0.00267246 0.00227011
O -2.25604845 28.01671750 26.18091773 0.00049326 0.00102943 -0.00749861
O -1.44021058 23.40970538 27.48867746 -0.00688408 0.00182810 0.00458505
O 1.25006451 20.44629742 32.93114321 0.00560633 -0.00175131 0.00013127
O 0.20714117 25.62644973 32.06779950 0.00107823 0.00283943 0.00430079
O -1.65225229 24.32164753 33.20003889 0.00600367 0.00567206 0.00612928
O -3.43863952 28.83752468 31.70648965 0.00054576 0.00054968 -0.00069855
O 0.74563697 24.35033337 26.10871973 0.00013232 0.00749746 -0.00494980
O 2.43515106 19.47438961 27.41958603 -0.00384402 -0.01004602 0.00603381
O 7.73420350 8.27990756 2.43384737 0.00364317 -0.00532161 -0.00431002
O 8.58496658 3.46714856 3.31500867 -0.00029024 -0.00431748 0.00743290
O 11.48355224 0.98207878 9.17611048 0.00234699 0.00207383 0.00143838
O 10.23360905 6.02138775 8.17757252 0.00037017 -0.00630794 0.00057762
O 8.08542718 5.15759733 9.50901577 0.00168468 -0.00043783 -0.00269036
O 6.78981397 10.04540147 7.97205612 -0.00498837 -0.00216180 -0.00147268
O 10.63250757 4.65946778 2.26529942 0.00122783 -0.00004295 -0.00064328
O 12.45344120 28.93936999 3.70794388 0.00051270 0.01108861 0.00269404
O 5.94958801 8.54311266 14.28412084 0.00202721 -0.00501056 -0.00035433
O 6.91932939 3.77598752 15.26712262 -0.00198879 0.00527144 0.00252515
O 9.83593594 0.85780222 21.38758983 -0.00166552 -0.00072720 0.00105302
O 8.73704475 5.70213110 20.25538910 -0.00115768 -0.00326312 -0.00446552
O 6.53881676 4.87598363 21.29434412 0.00889350 -0.00512210 -0.00097686
O 5.05621970 9.94571493 20.11599960 -0.00333278 0.00460278 0.00327605
O 9.44325644 4.45324536 14.25815450 0.00062613 -0.00430650 -0.00856916
O 10.72477499 0.06815990 15.47372674 0.00574911 -0.00464506 0.00149248
O 4.41681692 8.70272873 26.04679265 0.00792542 -0.00043204 0.00098844
O 5.52003043 3.56665085 27.05449251 0.00552129 0.00719298 0.00076818
O 8.19235250 0.88896507 33.19412862 -0.00228132 -0.00003420 0.00214934
O 7.06113603 5.76537834 31.99202376 0.00553803 -0.00480732 0.00193253
O 5.20615033 4.60390385 33.19325476 -0.00293818 -0.00217238 0.00548716
O 3.48748109 9.61035825 32.02624670 -0.00386337 0.00101407 0.00051558
O 7.66503968 4.85298107 25.93003202 0.00260320 -0.00044182 0.00119291
O 9.22302111 28.81586168 27.36718926 -0.00716937 -0.00341712 0.00426443
O 7.68924881 18.24884430 2.41724634 0.00406229 -0.00052001 0.00067593
O 8.86601921 13.27675272 2.99187421 0.00258663 0.00207616 0.00310722
O 11.57590633 11.07683198 9.09569882 -0.00331740 0.00166183 0.00486127
O 10.20790455 16.13428075 8.49320944 0.00215784 0.00024835 0.00186617
O 8.34539086 14.46456826 9.23113035 0.00523059 0.00257250 -0.00096074
O 6.71903791 19.95713489 8.32862926 0.00449244 -0.00027446 0.00885064
O 10.82861709 14.71413204 2.31229143 0.00660102 0.00205074 -0.00576132
O 12.40699525 9.26567334 3.19804463 0.00508885 0.00018175 0.00030554
O 6.12023754 18.25338103 13.99392432 0.00628695 -0.00411114 -0.00224846
O 7.05709441 13.59008245 15.46178226 -0.00041522 0.00565105 0.00138840
O 9.89647771 10.59905415 21.34105621 0.00872502 0.00247303 -0.00262641
O 8.43581732 15.69118930 19.79999579 -0.00442353 0.00541875 -0.00087171
O 6.48947957 14.58176291 21.26708273 0.00172123 0.00387545 -0.00761934
O 5.09368094 19.57747499 19.91497397 0.00209858 -0.00426692 -0.00534933
O 9.32341091 14.35683417 14.12748201 0.00359894 -0.00226691 0.00231319
O 10.94444895 9.43764162 15.74254396 -0.00140649 0.00022123 0.00407794
O 4.63815877 18.72753887 26.11448627 -0.00151565 -0.00097873 -0.00002011
O 5.33359842 13.52943679 27.19393484 0.00717748 -0.00558883 0.00030219
O 8.31675151 10.88453006 33.19941339 0.00931230 -0.00341340 0.00226641
O 6.99192609 15.54533507 32.00310745 -0.00164293 -0.00035925 -0.00054564
O 5.14772422 14.54288310 33.31843526 0.00315282 -0.00055483 0.00271743
O 3.45688936 19.29699346 31.96882312 0.00191376 -0.00056975 -0.00564146
O 7.77587130 14.43845110 25.82085089 -0.00677981 0.00267185 0.00539840
O 9.30891400 9.90170240 27.56280330 -0.00259116 -0.00674127 -0.00257611
O 7.59159870 28.06905064 2.50077820 -0.00451030 0.00039441 0.00391901
O 8.85009911 23.45157842 3.40025376 0.00198410 -0.00277899 -0.00033359
O 11.46416543 20.85338318 9.40187079 -0.00507642 0.00234686 0.00484689
O 10.06002254 25.37689392 8.40156858 0.00015415 0.00330726 0.00252822
O 7.97654118 24.57997973 9.65229543 -0.00102974 -0.00193338 0.00460013
O 6.43777604 0.09561656 8.13538245 0.00143729 0.00187088 -0.00258861
O 10.95652472 24.40273504 2.28630894 -0.00408373 0.00073038 -0.00232569
O 12.38133260 19.94506536 3.70408362 -0.00037650 0.00280924 0.00099993
O 5.84762293 28.35381801 14.38424975 0.00463116 -0.00216268 -0.00206744
O 7.31886093 23.13461976 15.22126423 -0.00338355 -0.00460809 -0.00512894
O 9.81133382 20.45784881 21.22857346 0.00338537 -0.00991633 -0.00130388
O 8.65851561 25.56982860 20.26269968 0.00697809 0.00098139 -0.00132743
O 6.69668557 24.52367299 21.69370216 0.00342984 -0.00106676 0.00375711
O 5.08049372 0.28819224 20.29353512 0.00324754 -0.00413024 0.00008737
O 9.22834673 24.75095177 14.14697742 0.00062285 -0.00065961 0.00451102
O 10.79293683 19.15927834 14.92239246 -0.00792172 -0.00350180 -0.00095493
O 4.42865586 27.76069112 26.44593311 -0.00003071 0.00390113 0.00095191
O 5.41886367 23.15514504 27.30589293 -0.00275915 0.00330285 -0.00009488
O 8.24619300 20.58411104 32.99006062 -0.00394237 0.00012389 0.00119263
O 7.12132705 25.29494648 32.17209335 0.00366908 0.00386545 0.00075046
O 5.01330876 24.18314371 33.28642120 0.00387554 -0.00151650 -0.00014824
O 3.42092952 0.24535083 31.82078279 -0.00523014 -0.00936954 0.00222052
O 7.58414665 23.79103374 26.11763155 -0.00086546 0.00352771 -0.00312903
O 9.49972590 19.11257258 27.37881289 -0.00230944 -0.00308794 0.00668238
O 14.63444371 8.90969519 2.11727637 0.00963498 -0.00444977 0.00437607
O 15.53663436 3.67246320 3.45656148 -0.00102733 -0.00323834 0.00120119
O 18.36102439 1.00797271 9.59972297 0.00495232 0.00317162 -0.00681307
O 17.02537998 6.15401693 8.57736339 -0.00121549 -0.00296556 -0.00180676
O 15.22538812 4.73467135 9.82167488 0.00134161 -0.00026052 0.00235929
O 13.65412750 9.79188068 8.25250102 0.00016123 0.00324769 0.00873472
O 17.71698156 4.27561238 2.19569809 0.00605018 0.00861226 0.00201313
O 19.24823867 29.04435161 3.64222707 -0.00007365 0.00695171 -0.00724443
O 12.84649064 8.74679161 14.10113479 -0.00491355 0.00235512 -0.00386453
O 13.85173375 3.68640443 15.58493917 -0.00500117 -0.00680633 -0.00270746
O 16.64813275 1.11524029 21.16873336 0.00406274 -0.00221623 -0.00138399
O 15.39603433 6.36752643 20.27446360 -0.00048627 -0.00766222 -0.00230373
O 13.33837972 5.13980612 21.27443306 0.00317670 -0.00147961 -0.00155181
O 11.86570446 9.86681295 19.80017253 -0.00311928 -0.00228166 0.00177262
O 15.94387638 4.76697696 14.28488086 0.00311677 0.00134995 0.00300916
O 17.72599616 0.06264782 15.65256106 0.00269489 0.00563928 -0.00023002
O 11.22293661 8.74127719 25.87882274 -0.00575308 -0.00427075 -0.00012038
O 12.33535581 3.66001240 27.06349147 0.00372659 -0.00091244 -0.00279598
O 15.01862134 0.62528978 32.99211662 -0.00629628 0.00283913 0.00317804
O 13.71152703 6.06987466 32.17793366 0.00555470 -0.00026741 0.00398373
O 11.96766084 4.50008906 33.40652786 0.00238762 -0.00150488 0.00190792
O 10.32528136 9.81904291 32.12982382 -0.00599767 -0.00043339 -0.00027683
O 14.44734938 4.71418738 26.10311585 -0.00371692 -0.00369007 0.00371140
O 16.15476289 0.00217665 27.32762237 -0.00722035 -0.00005276 -0.00487570
O 14.16738362 18.44918421 2.55449279 -0.00470655 -0.00472374 -0.00039499
O 15.70989944 13.51155787 3.44982481 -0.00125550 0.00691085 -0.00105469
O 18.59785724 11.33408802 9.26893612 -0.00724214 0.00353238 -0.00056677
O 17.16796936 15.72302556 8.28488707 -0.00007336 -0.00034411 0.00015988
O 15.04730696 14.88559379 9.39107013 0.00219373 -0.00233476 -0.00000386
O 13.41570676 19.57855603 8.13939920 -0.00401942 -0.00238139 -0.00199508
O 17.78937183 14.89821784 2.47954748 -0.00018280 -0.00532759 0.00239639
O 19.21917691 9.44734737 3.76802867 -0.00199971 -0.00340081 0.00734417
O 13.09059135 18.20037484 14.24785864 -0.00388967 -0.00035307 0.00619490
O 14.31133207 13.55277627 15.14549644 0.00094043 0.00282111 -0.00488410
O 16.71501856 10.78142330 21.41804660 0.00264883 0.00054051 -0.00603331
O 15.56910594 15.40095704 20.07264444 0.00187828 -0.00265432 0.00279231
O 13.43559413 14.51117099 21.26300726 -0.00636987 0.00128142 -0.00350132
O 11.63487145 19.31863709 19.81359149 0.00377174 -0.00656454 -0.00142661
O 16.23738415 14.80621231 13.86297946 0.00248586 0.00030679 -0.00500549
O 17.71273776 9.80204635 15.22999474 -0.00189398 0.00153143 -0.00263554
O 11.43442484 18.15210286 26.08344062 0.00038625 -0.00379000 0.00050273
O 12.37341057 13.42607149 27.39108080 -0.00177327 0.00006431 0.00139560
O 15.16220386 10.94052075 33.09399538 -0.00060307 0.00083669 -0.00218005
O 13.93550868 15.65308747 32.19225686 0.00253616 0.00649657 0.00573207
O 11.69709095 14.72236389 33.26847204 0.00219143 0.00412246 0.00119886
O 10.30800374 19.58201187 31.78282308 -0.00307913 0.00056228 -0.00812573
O 14.53991769 14.32939514 26.30158320 -0.00176694 -0.00218400 0.00408282
O 15.75324424 9.45580626 27.26507592 0.00308734 -0.00045052 -0.00317558
O 14.56472274 27.83997447 2.49369983 0.00567109 -0.00014287 0.00365804
O 15.91815759 23.29115417 3.44338219 -0.00542871 0.00611191 0.00242179
O 18.31349654 20.66749760 9.47421666 0.00315356 -0.00060446 -0.00008670
O 17.15067897 25.46557457 8.53736302 -0.00037820 -0.00180602 0.00239636
O 15.04276331 24.39427852 9.78610502 -0.00211313 0.00166057 -0.00153840
O 13.62587851 28.99237796 8.18372224 -0.00348740 -0.00295549 0.00300715
O 17.75668391 24.30125310 2.10076710 0.00643752 -0.00046702 0.00243704
O 19.26982039 19.01377056 3.34329347 0.00089193 0.00108064 -0.00650951
O 12.78915286 27.97280824 14.45815382 -0.00244310 -0.00545893 0.00269822
O 14.11368896 23.29073350 15.51262030 0.00054936 -0.00500336 0.00385680
O 16.74127017 20.56359247 20.99897655 0.00354672 -0.00543216 0.00308622
O 15.48683646 25.37673790 20.37485839 -0.00005416 0.00383573 -0.00751875
O 13.21687488 24.40764916 21.25277849 0.00294483 -0.00528949 -0.00432630
O 11.94437867 0.08011908 20.23399713 0.00236091 -0.00016399 0.00108146
O 16.28313159 24.25291614 14.25597121 -0.00475224 0.00239827 0.00219029
O 17.57805399 19.33225306 15.39362584 -0.00394900 0.00424878 0.00185190
O 11.46399829 28.19629969 26.04820407 0.00719531 -0.00816445 0.00447128
O 12.60853368 23.16442388 27.20124132 -0.00510598 -0.00018830 0.00442123
O 15.17599148 20.50237787 32.91984801 0.00184629 -0.00229828 -0.00531979
O 14.11723972 25.22187118 32.08990203 -0.00465893 -0.00170767 -0.00130352
O 11.85049831 24.41307737 33.27903176 0.00463332 -0.00028217 0.00052801
O 10.15761301 0.03947390 31.82294791 -0.00481971 -0.00035894 0.00696586
O 14.83708154 23.98702339 26.07191971 -0.00062389 -0.00140215 0.00050708
O 15.98286076 19.34043579 27.10642950 0.00113587 -0.00511161 -0.00035033
H -0.05405743 8.91076543 2.73891890 -0.00004976 0.01723142 0.01875510
H 2.91158284 3.92243414 3.22440373 0.00032151 -0.02282536 0.02019404
H 5.45026310 0.74978582 9.29911867 -0.02926002 0.00252110 -0.01050846
H 2.37455814 5.39350044 8.50539638 -0.01434441 -0.00172052 0.00969417
H 5.68441728 7.93842963 0.82139450 -0.01430608 0.00184762 0.00516339
H 3.97683846 3.09269776 5.14025762 0.01467296 -0.01157921 -0.02790115
H -0.23967131 1.61002349 11.37808207 0.01114721 -0.00127101 -0.02241937
H 1.22594185 6.27600850 6.70145482 -0.01719955 0.00675025 -0.02678929
H 4.15160615 6.58205385 10.63764104 -0.00640948 0.01322710 -0.01142397
H 3.93838019 1.62128074 7.17548889 0.01325837 0.00072905 0.01189148
H 1.38453936 2.92137122 0.68540680 -0.02149908 0.01103441 0.00117813
H 1.39503588 7.55439399 4.74273990 0.02490718 -0.00484270 0.02363015
H -1.81337148 5.55270321 35.19392945 0.03748913 0.00725441 0.00449523
H 0.06660394 0.40470235 6.13613636 0.00905107 -0.01442006 0.03810366
H 2.36055596 4.10926327 12.14225915 -0.02976370 0.00641853 0.01431749
H 5.34830233 8.88839438 5.82742375 0.02210804 -0.01829343 -0.02651561
H 2.83599948 7.05695109 1.65639906 0.00400868 0.00805075 -0.05318675
H -0.04559106 2.05837112 4.36648234 -0.00920598 0.00087345 -0.00512035
H 2.55367481 2.58078164 10.27727021 0.00801558 0.02293270 -0.00179552
H 5.31628190 7.35703804 7.68027364 -0.00765005 0.01941196 -0.00114505
H 4.86460520 4.93328976 9.79098992 -0.03304437 0.01019581 0.00823978
H 2.83965843 29.11780499 8.43548364 0.01184833 -0.00008635 -0.00691027
H 0.26592096 4.69973268 1.83864891 0.00164466 -0.00828449 0.01274179
H 2.38896375 9.37585962 3.65129855 -0.00021187 -0.00244722 0.01353956
H 7.29743868 3.51121613 7.52222758 -0.00243059 -0.01272360 -0.00299470
H 0.75030570 8.81257124 10.53148067 0.01235044 -0.01027460 -0.01076055
H -0.24466813 5.79536389 3.49231296 -0.00965258 -0.01084623 -0.00681947
H 4.40332842 0.82172482 1.25654705 -0.00371476 0.01656009 -0.01017734
H -0.20467036 2.55164219 8.66929026 -0.00209804 -0.02032363 0.02935848
H 2.44457959 8.68375608 9.71330919 -0.00306011 -0.02159197 0.00084882
H 4.68908501 6.58732888 3.77563880 -0.03264590 0.00603444 0.02176342
H 2.89309454 1.27557662 2.15423065 -0.00011214 -0.00503621 -0.00916515
H 0.58210233 3.70489094 7.52400670 0.01561202 0.00723960 -0.00566579
H 1.14308854 7.50132055 9.39429141 0.00007674 -0.00361737 -0.00763209
H 5.44826389 5.08955670 4.52036553 0.00383985 -0.00090999 -0.00956230
H 4.35451356 2.26801954 2.35473506 0.00611454 0.02118430 0.00503798
H -1.79715697 9.18793478 14.33145086 -0.01927696 -0.00659960 -0.02601887
H 0.89838689 4.27279628 15.38935172 0.01699763 0.00628540 -0.00072655
H 3.89639530 0.97289361 20.93727947 -0.00947765 0.00580272 0.01026172
H 0.71638101 5.75037854 20.14325232 -0.01996750 0.02961876 0.01103501
H 4.13932586 8.24856646 12.48367849 -0.00812174 0.02105321 -0.00349204
H 2.09951220 3.58092730 17.19658296 0.02905090 0.02725654 -0.00032262
H -1.99806198 1.50874330 22.79908302 0.01937160 0.01666183 -0.00173696
H -0.41961078 6.82327400 18.30217223 -0.02230690 0.00468315 -0.00978598
H 2.60848247 7.01610456 22.28372160 0.00442085 0.00035752 0.01144754
H 2.25572429 1.92595627 19.06213741 -0.00208186 0.02431427 0.01151109
H -0.35058739 3.27868885 13.10384208 0.00257057 0.02264513 0.00763699
H -0.24900971 8.22754975 16.32949850 0.00962472 0.02500095 0.02976142
H 1.03155518 5.55665983 11.47789413 -0.00886091 -0.01566313 -0.02082587
H -1.74720546 0.73385505 18.33974581 0.02052339 0.00516064 -0.00420914
H 0.85563013 4.51980235 23.63474714 -0.02541767 -0.01339602 -0.01881931
H 3.50653777 9.58481233 17.54677663 -0.02217823 0.03271422 0.00994735
H 1.14937912 7.24742614 13.36382565 -0.01176076 0.03077782 -0.02051439
H -2.02932752 2.36544583 16.60322219 0.00646185 0.01036507 -0.00721968
H 0.88495133 2.76985151 22.00352321 0.00363190 -0.00197007 -0.00888671
H 3.69563274 7.69018499 19.30145150 -0.00308497 -0.00131374 -0.01095002
H 3.40379112 5.06272912 21.43692241 -0.02243283 -0.00280996 0.01877557
H 1.45597863 0.12755843 20.35395226 -0.00456779 0.00589699 -0.01018528
H -1.51611611 5.22219315 14.05236103 -0.02503239 0.02171664 0.00939883
H 0.80744483 10.00841669 15.44673221 0.00263488 -0.00260352 0.00712426
H 5.29360542 3.97944625 18.89367305 -0.01117825 -0.01604886 -0.02580721
H -1.26359691 8.12360103 21.65228184 0.00975276 0.01324290 -0.00788612
H -1.96950062 6.04964976 15.59449766 0.01025642 -0.01670292 0.00328235
H 1.89212562 2.30121270 14.48488800 0.01680207 -0.01033920 0.01385760
H -0.88983993 3.81319890 19.44323201 0.00269853 -0.00744456 -0.01603058
H -0.10820009 9.31961618 22.41425819 0.02053898 0.00078516 0.01572437
H 4.54085048 6.79744402 15.41421867 -0.02095365 -0.00503286 0.00769544
H 2.99499682 1.26388044 13.46483424 0.00858682 -0.00997589 -0.01282336
H 17.99894678 4.16507344 19.49393443 0.00291371 0.00747873 0.01092147
H 0.55267036 8.25322752 21.18531570 0.00119251 0.00672413 -0.00664830
H 2.75231716 7.17561103 15.42884585 0.00501635 0.00904648 0.00396824
H 1.23954019 0.91720707 13.58672722 -0.00281501 0.00517408 0.00210126
H 17.03682623 9.04269933 26.55160800 -0.03640139 0.01172889 0.00886695
H -0.35127983 4.20675420 26.68602176 0.01406757 -0.01550649 0.01807780
H 2.18705427 0.94081123 32.58859361 -0.01199065 0.00709541 0.02114531
H -0.86341678 5.67053360 32.33342747 0.00123697 0.01672705 -0.00991686
H 2.35030321 8.25439285 24.44850113 0.00010023 0.01166387 -0.00231050
H 0.86130030 3.27537242 28.64665401 -0.01673311 0.00911769 0.00963587
H -3.36942912 1.53533863 34.34110189 0.01618315 -0.00222349 0.01219672
H -1.74130100 6.26518986 30.28167722 -0.00183150 0.01162775 0.01176989
H 1.08358979 6.66329603 34.16476543 -0.00824534 -0.01996791 0.00784605
H 0.67393910 1.84079284 30.63479126 0.02225912 -0.01176289 0.00044387
H -1.86642325 3.26675927 24.62589803 0.00820619 -0.00766510 0.01388175
H -1.63292761 7.81248481 28.37538934 -0.01471284 0.02177445 0.01374612
H -0.44494028 5.84078757 23.51760151 0.01083444 0.01764609 -0.00850179
H -3.46233973 0.77062754 29.72030792 -0.01039739 -0.01992723 0.00107156
H 4.14298316 4.28677180 0.04633271 0.00293656 -0.00677544 -0.02328684
H 2.18494866 9.30187119 29.78825313 0.01646974 0.02777169 0.01548381
H -0.63859443 7.67507550 25.47164084 -0.00209287 0.01164878 -0.01581792
H -3.30018683 2.38038710 27.79838275 0.00726191 -0.00090142 -0.01517173
H -0.65055459 2.68888140 33.62864245 0.01247924 -0.01018255 -0.00101739
H 2.09372905 7.81489268 31.71690479 0.00971974 0.00882686 0.01020268
H 1.99138797 4.83963883 33.24501854 -0.00146270 0.01000330 0.00097428
H -0.37405720 0.16333172 31.70714237 -0.00783509 0.00653935 0.00277696
H -3.01077349 4.87295139 25.77835760 -0.01564664 0.00125192 -0.00937156
H -0.67258459 9.26210103 27.22890649 -0.01238420 -0.02685181 -0.02353115
H 2.79815245 4.11093788 31.11868581 0.01077838 -0.00005574 0.00893673
H -3.07152335 8.54288369 33.94971521 0.02261952 -0.04243408 0.02463137
H -3.69785852 5.44411669 28.16725781 0.03232838 0.01766163 0.00432731
H 1.98859248 1.51920220 25.27900110 -0.01327035 -0.01483497 -0.02444195
H 16.34040254 3.74325850 31.34246508 0.01922759 -0.00738591 -0.01909624
H -1.50656221 9.35389263 34.19959712 0.01594662 -0.01010189 -0.00544775
H 1.18510154 6.62063776 27.50351822 0.01695846 0.00232580 0.00181645
H 0.43679813 0.67257475 24.98847199 0.03001522 -0.00007071 0.00253915
H -3.13458277 2.63650463 32.25925104 0.00429203 0.01691411 -0.00899900
H -1.67808624 7.82623709 33.34858709 0.01634264 -0.01472157 0.02185418
H 2.45708423 5.57632219 28.22755340 -0.02873041 0.01153201 -0.00714033
H 0.45761873 2.22171742 25.91108551 0.00873602 -0.00139095 -0.03236559
H -0.00457417 18.75417360 2.40013021 0.04032413 0.02497210 -0.01191412
H 2.79949759 13.81675120 3.08592007 0.00738730 -0.00396670 -0.01353090
H 5.52131578 10.46680350 8.96598107 -0.00515607 0.03163989 -0.02786555
H 2.74432146 15.58395289 8.65916660 0.00682040 -0.01423501 0.01250648
H 5.52479343 17.57305476 1.06665075 0.00492604 -0.01590619 -0.01409623
H 3.93659145 13.04159245 5.10079220 -0.02189724 0.01446895 0.02406703
H -0.20225598 11.31094942 11.12835286 -0.01266835 0.00890847 0.00029650
H 1.52616222 16.19499730 6.60401984 -0.00263594 -0.01374121 -0.00833144
H 4.38324669 16.24969810 10.22357577 -0.01058021 0.00676689 -0.00555785
H 3.85739813 11.69075159 7.05686545 -0.01075081 0.00115471 -0.02359475
H 1.38665958 12.95063738 1.14217824 -0.01077704 -0.00165313 -0.00761172
H 1.52681528 17.98240905 4.76581905 -0.00039483 0.00174442 -0.00237153
H -1.95505129 14.97582952 35.29675173 -0.01496796 -0.00657574 -0.01082653
H 0.01166277 10.29159094 6.11357164 0.00127560 0.02796649 0.01478082
H 2.72199934 13.97303364 11.86433327 -0.01364880 -0.01250281 -0.03374411
H 5.65700356 18.71263432 5.53483242 0.00388319 -0.00922395 0.00797502
H 2.82571711 16.64990836 1.49899654 0.03029447 -0.00989692 0.00769985
H 0.10570945 11.67044132 3.97420057 0.03733581 -0.00136110 -0.02773149
H 2.54178068 12.15547450 10.40777699 0.00219337 -0.01834084 0.00787296
H 5.67210684 17.16244968 7.34923367 -0.03019044 -0.02419375 0.00547973
H 5.15437405 14.26864636 9.75876040 -0.00931213 -0.01899056 -0.00478164
H 2.99734650 9.88224862 8.13668249 0.02282223 -0.00006651 -0.00421938
H 0.35282068 14.37832835 2.40787153 -0.02652515 0.00890835 0.01298221
H 2.44208754 19.57671534 3.65696893 0.00388906 -0.02153819 -0.00015335
H 7.25854383 13.64349015 7.04649835 -0.00594238 -0.02729929 0.00932849
H 2.49223226 18.77366089 9.96556382 -0.00661923 0.00720243 -0.01335619
H -0.04383444 15.74691385 3.71316329 -0.00167756 -0.00924607 0.00892340
H 4.91146795 10.57797339 1.45726397 -0.01956187 0.00884262 0.00004760
H -0.86761770 13.63263704 8.54803628 -0.00382288 0.00422601 0.01708721
H 1.47054235 17.59105994 9.24874938 -0.00919416 -0.00428213 0.01831392
H 5.66237023 14.88572212 4.54935251 -0.01651768 -0.00117771 -0.02384214
H 3.10062636 10.61220864 1.90917128 -0.01584868 -0.00924148 -0.01701304
H 0.74640809 13.19952091 8.12924728 -0.00117125 -0.01481246 -0.00066042
H 0.69878779 18.53852543 10.48488362 0.00872517 -0.00426214 -0.01588122
H 6.35862297 16.14108288 3.52708264 -0.00503193 0.00753419 0.01178431
H 4.23274803 11.59767824 2.68366830 -0.01385186 -0.01563913 -0.01904114
H -1.75285055 18.69625060 14.78656138 0.00149313 -0.01029976 0.01612045
H 1.29342375 13.80545037 15.05378643 -0.01177805 0.00553817 0.00521698
H 3.99340148 10.76877826 20.90361710 0.00577496 0.00785235 0.01498769
H 1.09808996 15.54139064 20.68394910 0.01906790 -0.00500356 -0.01341013
H 4.11768333 17.79579480 12.23770907 0.02330687 -0.00136326 -0.00084285
H 2.20724091 13.28767065 17.05719217 0.00934057 -0.01679293 0.00298975
H -2.04566017 11.18094884 22.96155946 0.01019130 -0.04706968 -0.01625188
H -0.24249247 16.38840428 18.62229660 0.01480389 -0.01134680 0.01282883
H 2.44741293 16.56621223 22.73617719 0.00910927 0.00698457 0.01571100
H 2.06927125 11.81885190 19.30902223 -0.01609089 -0.00465383 -0.00865705
H -0.20153536 12.62035852 13.19824998 -0.01253507 0.00810982 0.00018458
H -0.02548965 17.55217450 16.67877007 0.00466975 -0.02251851 -0.00476671
H 1.41776744 15.61096393 11.89076224 0.00468561 0.01692686 0.00692214
H -1.59773276 10.22372973 17.93414041 -0.00619601 0.00396740 0.00033425
H 0.86138264 13.94102348 24.13185618 0.01317251 -0.01198224 0.00600321
H 3.96849869 18.69374940 17.44433383 -0.00366041 0.00705341 0.03339822
H 1.43828463 17.01000797 13.77527193 0.00130334 -0.00526187 0.00737571
H -1.75178532 11.99928698 16.15671754 0.00275856 0.00699977 -0.00205797
H 0.93425973 12.43975168 22.21554232 0.00352916 -0.00413319 0.03583446
H 3.86703596 17.38115149 19.59303283 -0.00479894 -0.02103773 0.01136958
H 3.35223153 14.64968093 21.84901243 -0.01129291 -0.01618691 0.00854257
H 1.44241095 9.84212872 20.12836531 0.02529452 -0.00232341 0.00561628
H -1.12243086 14.59097146 14.13561767 -0.01046375 -0.01038585 0.00891295
H 0.82885716 19.16777420 15.49653834 -0.00306376 -0.01280589 0.01901996
H 3.64193674 13.95061773 19.74029823 -0.00760194 0.00827976 -0.00599983
H 0.44420743 18.01264319 21.73754212 -0.00015261 -0.02030276 -0.02558677
H 18.09482316 14.72510116 16.36901765 0.02317802 -0.02259657 -0.01812774
H 1.65599856 10.18227239 13.38752102 0.00174549 -0.01117610 -0.00285988
H -1.34056180 12.79404399 19.87062259 -0.00224448 -0.00224443 -0.01542909
H -1.09846548 17.26692196 21.17272292 0.00676284 -0.01343499 0.01326551
H 3.86054896 16.73806549 15.03494276 -0.00052030 -0.01133857 -0.02606080
H 2.19842420 11.83667627 14.01397751 0.02752002 0.01760826 -0.00326307
H -1.18584284 14.24910437 19.16949458 0.00090068 -0.01092931 -0.01498369
H -1.15437603 18.70487905 22.12224681 0.02165189 0.00560750 -0.00982621
H 3.32727774 15.70783982 16.22779687 0.02767428 -0.01816768 0.01003319
H 3.30427035 10.70193131 13.21743202 0.00898165 -0.01326871 0.01175282
H -3.18214807 18.86898198 26.43205163 0.00224241 -0.02806840 -0.00464193
H -0.56261611 13.86856990 26.71670764 0.00281442 0.00985291 0.00777079
H 2.36528599 10.20034047 32.76649349 -0.03672564 -0.00727475 -0.00885716
H -0.55997372 15.16078221 32.17625461 0.00212448 0.02422165 0.01450591
H 2.51642057 18.24898412 24.67656513 0.00199677 0.00878711 0.00889527
H 0.67707742 13.07213338 28.75746833 0.01236731 -0.01774965 0.00880626
H -3.45238236 11.13920016 34.92945956 0.00615478 0.00156261 0.00402532
H -1.52287580 15.88146264 30.32298510 -0.02262498 -0.00764288 0.00225386
H 0.88611436 16.07563701 34.46417901 0.00517575 0.02689585 0.00447340
H 0.54770088 11.52692026 30.81200902 -0.01498550 0.01206654 -0.00003364
H -2.11976115 12.72069307 24.99992278 0.01407488 0.00982729 -0.00595677
H -1.55529743 17.49692447 28.50009158 -0.00552999 -0.01432785 -0.01380644
H -0.39130759 15.24445487 23.81486023 -0.01762204 -0.01538011 -0.01719526
H -3.33333982 10.26787851 29.67045968 0.01408609 -0.00903795 0.02040464
H -0.57277227 13.83194326 35.47070223 -0.00808385 0.01726137 -0.00847121
H 2.08379043 19.24266322 29.86849853 -0.00754995 -0.01138259 -0.01068694
H -0.40540493 16.63142522 25.62946152 0.00706167 -0.01217240 -0.00288533
H -3.34149209 12.00923991 27.73731293 -0.00944704 0.00935262 0.00578128
H -0.38962461 12.63658848 33.45609608 0.00792978 -0.03019858 0.01258709