2160
Time=97999.99999997 pbc="T T T" Lattice="20.69518228 0.00000000 0.00000000 0.00000000 28.88675340 0.00000000 -4.74066488 0.00000000 35.73473840" energy=-13794.74908644 virial="-68.02248274 -19.68412137 27.10851741 -19.68412137 -38.43228452 -3.56221719 27.10851741 -3.56221719 -55.93566173" stress="-0.00076459 -0.00094264 0.00124748 -0.00094264 0.00056628 -0.00014588 0.00124748 -0.00014588 -0.00023300" Properties=species:S:1:pos:R:3:vel:R:3
O 0.89290434 8.20564087 2.54495235 0.00657087 0.00198609 -0.00182856
O 1.86326607 3.80435083 3.85230433 -0.00528127 0.00124514 -0.00341970
O 4.51753620 0.76152815 9.35138922 0.00277775 0.00337824 0.00745139
O 3.23417507 5.79396243 8.70692425 0.00306558 0.01137510 0.00009838
O 1.16376123 4.66810153 9.63770586 -0.00701726 -0.00244520 0.00549534
O -0.45259724 9.45136406 8.42912260 -0.00056494 -0.00345192 0.00182261
O 4.03887494 4.45104125 2.48487942 0.00298407 0.00454298 0.00096587
O 5.78078373 28.67834936 3.76096146 0.00361738 -0.00003096 0.00025115
O -0.90863143 8.54695248 14.40387544 0.00368899 0.00205812 -0.00002020
O 0.37854058 3.84124362 14.99608373 -0.00007972 0.00260815 0.00237769
O 3.25167391 1.43278554 21.38187852 -0.00225570 0.00029089 0.00330664
O 1.87355532 5.97949355 20.45285677 -0.00190720 -0.00181590 0.00006501
O -0.03152002 4.78288496 21.80289429 0.00570888 -0.00183091 -0.00083403
O -1.82635817 9.87432563 20.23866847 0.00224197 -0.00064089 -0.00454487
O 2.64255646 4.63839232 14.02884047 -0.00590750 -0.00249190 0.00192141
O 3.95891921 28.68335891 15.38747380 -0.00172498 0.00404992 -0.00199757
O -2.71289272 8.40247255 26.25260276 0.00094315 0.00110833 0.00093034
O -1.47535751 3.67307714 27.21311876 -0.00305387 0.00092932 -0.00188575
O 1.35408528 1.04515926 33.22016456 0.00043812 0.00080209 -0.00171985
O 0.23082611 5.79212309 32.33792703 0.00607890 0.00060018 -0.00227520
O -2.01859290 5.02111142 33.16207161 0.00215321 0.00259713 -0.00773881
O -3.45959567 9.81633644 31.82658883 0.00316184 -0.00584995 -0.00322458
O 0.81252987 4.63932197 26.21022913 0.00072721 -0.00386914 0.00151033
O 2.41458977 28.80216100 27.38757740 -0.00741042 -0.00111830 -0.00358029
O 0.82155829 18.32997667 2.22483074 -0.00326559 -0.00367094 0.00621422
O 1.99113555 13.39104039 3.82705177 0.00070265 0.00384069 -0.00015689
O 4.71561904 10.62499577 9.24356111 0.00625542 0.00119214 -0.00637297
O 3.33456307 15.66720032 8.48076953 0.00426488 0.00167071 0.00561804
O 1.34626983 14.38042563 9.68629122 0.00176193 0.00285607 -0.00245109
O -0.22411028 19.67181020 8.11620218 0.00560676 0.00350038 -0.00346679
O 4.11133031 13.83771810 2.45256325 0.00243063 -0.00187015 0.00225808
O 5.35494334 9.36964383 3.91194965 -0.00401986 -0.00082753 0.00348448
O -0.96880650 18.19179642 14.35833263 0.00298478 0.00215810 -0.00239818
O 0.56549571 13.59664597 15.51474394 -0.00477395 0.00105828 0.00011160
O 3.11516217 10.75232156 21.19943336 0.00366673 -0.00585446 -0.00037826
O 1.82153983 15.85566282 20.45917458 -0.00301994 -0.00218925 0.00244272
O -0.37067415 14.91958156 21.41876720 -0.00071661 -0.00358587 0.00542671
O -1.94507123 19.40343424 20.29672831 -0.00211982 -0.00165725 0.00222734
O 2.54733166 14.10660092 14.06544841 0.00292224 -0.00410868 -0.00050081
O 3.92581546 9.43438568 15.64390386 0.00554726 0.00136308 0.00463508
O -2.37884266 18.56995054 26.05534628 -0.00817968 -0.00576678 -0.00115075
O -1.09556928 13.70164938 27.32706822 -0.00219444 0.00513407 0.00162392
O 1.35137344 10.65841566 33.15483263 -0.00369869 0.00073372 -0.00502514
O 0.31732118 15.87322954 32.39955202 0.00049842 -0.00005570 -0.00265433
O -1.76286329 14.59074489 33.50395936 -0.00654845 0.00329876 0.00435388
O -3.47224768 19.42468441 31.69987441 0.00581497 0.00463448 -0.00102616
O 0.86776228 14.30848584 25.89956832 -0.00323292 -0.00050345 0.00027554
O 2.14253461 9.49344302 27.62744953 0.00392311 -0.00048467 0.00151871
O 0.87330397 27.90268690 2.16169104 -0.00272951 0.00307387 -0.00151300
O 1.99017896 22.95520583 3.33322586 -0.00260555 0.00559569 0.00469971
O 4.60996044 19.98478665 9.85888604 0.00104375 0.00744898 0.00625576
O 3.47513961 25.30213208 8.56326501 0.00290156 0.00488981 0.00288220
O 1.26757307 23.74988062 9.69949097 0.00264032 -0.00441554 -0.00081980
O -0.30503392 0.04742441 8.64228409 -0.00348718 -0.00105952 0.00077296
O 3.76690663 24.04554881 1.95525603 -0.00674602 -0.00209506 0.00436474
O 5.48839488 19.07185623 3.45986764 -0.00377367 0.00168119 -0.00179293
O -0.82484056 27.91958547 14.24098986 0.00135294 -0.00346703 -0.00357494
O -0.02928694 23.23534606 15.47645019 -0.01131206 -0.00140656 -0.00275159
O 2.92674367 20.41190827 21.27045764 0.00115453 -0.00151909 0.00205281
O 1.74266629 25.53811585 20.41678638 0.00534280 -0.00148419 0.00321164
O -0.22539531 24.38256287 21.67660338 -0.00490512 0.00819274 -0.00200799
O -1.45606858 0.00872917 19.57980056 0.00368552 -0.00194008 -0.00427216
O 2.19239281 23.85947202 14.26823044 0.00937551 0.00126830 0.00341703
O 4.05742414 18.90998541 15.39010769 -0.00331179 -0.00097877 -0.00203784
O -2.46174187 27.92316954 26.54666473 0.00334698 0.00068891 -0.00277014
O -0.93746811 23.30841433 27.44263958 0.00355449 -0.00321266 -0.00305288
O 1.28520766 19.89192267 33.28292102 -0.00011284 -0.00316689 -0.00117213
O 0.23422824 25.06721070 32.06748989 0.00184290 0.00549361 -0.00109306
O -1.83452274 23.83401975 33.30530815 0.00362310 -0.00109069 -0.00186703
O -3.38496663 0.31973881 32.23834268 0.00963195 -0.00098923 -0.00398416
O 0.97969802 24.29770314 26.04057724 0.00074782 -0.00092191 -0.00316505
O 2.50827274 19.40068088 27.68202534 -0.00458392 0.00368454 -0.00143597
O 7.55576055 8.58476228 2.48557333 0.00546667 0.00514986 -0.00632676
O 8.80830670 3.81770886 3.61632740 -0.00069255 0.00198248 -0.00710447
O 11.61047988 0.99295136 9.46687551 0.00287591 -0.00257645 -0.00060173
O 10.43023548 5.62578171 8.16077680 -0.00123065 0.00112784 -0.00077923
O 8.41583560 4.91073161 9.74061011 -0.00399410 -0.00564188 -0.00006399
O 6.76741399 9.27483450 8.31650638 0.00516307 0.00521408 -0.00451552
O 10.75180931 4.96531096 2.24093744 0.00243534 0.00016003 0.00019464
O 12.73213651 28.58966721 3.59415588 -0.00151080 0.00363768 0.00094928
O 6.19723765 8.52431361 14.52773350 -0.00312205 -0.00153946 0.00007930
O 7.34892484 3.50311724 15.27637687 -0.00298975 -0.00264629 0.00028770
O 10.01284100 1.27286753 21.31792886 -0.00200826 -0.00055101 0.00519575
O 8.65503616 5.84394380 20.54822192 -0.00312625 -0.00312872 -0.00396132
O 6.52823491 5.09689762 21.65543349 0.00308429 -0.00632395 -0.00323188
O 5.01449897 9.64871515 19.88073598 -0.00187009 -0.00775205 0.00618924
O 9.32814861 4.55968231 14.13291176 -0.00487777 0.00096173 0.00101172
O 10.78151582 28.45421323 15.45222295 0.00358962 0.00679699 0.00175925
O 4.26024189 8.65541368 26.39739902 -0.00210396 -0.00221855 0.00618937
O 5.72838802 3.60156915 27.36658314 0.00114286 -0.00199274 0.00198382
O 8.22792863 0.89111151 33.49755243 -0.00869043 -0.00048359 -0.00459234
O 7.19789912 5.72482152 32.12344899 -0.00055080 -0.00901138 0.00127758
O 5.07297740 5.15941051 33.42524180 0.00052343 0.00161799 0.00732839
O 3.35722200 9.59135489 31.89868509 0.00309620 0.00379874 0.00030337
O 7.48408966 4.69490510 25.98799515 0.00386078 0.01170764 -0.00385983
O 9.42102941 28.88369856 27.58365377 -0.00250816 -0.00370615 -0.00453263
O 7.84565674 18.07348464 2.52417051 0.00334382 -0.00105885 -0.00274842
O 8.89342125 13.34143590 3.55468224 0.00207051 -0.00540027 0.00311250
O 11.46081836 11.11506051 9.40441664 -0.00087865 0.00682820 -0.00437322
O 10.18621523 15.66690330 8.71184448 0.00122491 -0.00120579 -0.00103273
O 8.06042391 14.40657640 9.45124874 -0.00264203 0.00068470 0.00117565
O 6.58475251 19.34566502 8.03100308 -0.00002223 -0.00162541 -0.00248613
O 10.88239089 14.33886971 2.08994630 -0.00413550 0.00350839 0.00777330
O 12.43528494 9.77178879 3.84375289 -0.00169402 0.00270156 -0.00190593
O 6.21302474 18.18108444 14.29390096 0.00446943 -0.00271924 0.00389666
O 7.29199551 13.49555751 15.29684338 -0.00007706 0.00130429 0.00059949
O 9.81346378 10.27376133 21.64717777 -0.00487783 -0.00290551 0.00024989
O 8.72345865 15.34047771 20.28383208 0.00155447 0.00542213 -0.00354769
O 6.79129163 14.37320990 21.62514615 0.00307251 -0.00343531 0.00028881
O 5.02173176 19.29686240 20.36961877 0.00037587 0.00524698 0.00330880
O 9.34300108 15.01948503 14.23503751 -0.00244845 0.00220136 -0.00096481
O 10.89372836 9.67798974 15.69483494 0.00525086 0.00706630 0.00151799
O 4.52812459 18.01014740 26.44951437 -0.00218415 0.00119331 0.00147063
O 5.56022066 13.21634691 27.15011315 0.00167405 -0.00329198 -0.01344055
O 8.71572630 10.63446512 33.32358383 0.00300961 0.00358064 -0.00124966
O 7.08231261 15.57632755 32.15696181 0.01139423 0.00274556 0.00010400
O 5.04047619 14.50788662 33.43590178 0.00027851 0.00725137 0.00072256
O 3.62736985 19.68332712 32.14710210 -0.00267563 0.00135748 -0.00433648
O 7.76499882 14.05101615 26.22701647 -0.00297518 0.00077468 -0.00335176
O 8.92878737 9.73584689 27.54533215 0.00289707 0.00582866 -0.00178122
O 7.98210387 28.32447094 2.36993128 0.00640954 -0.00163465 -0.00080824
O 8.87595696 23.15930235 3.80026781 -0.00906227 0.00188186 -0.00457523
O 11.42499377 20.38980618 9.50303357 0.00366116 -0.00565800 0.00504579
O 10.45865893 25.02112355 8.53836305 0.00444080 -0.00134619 0.00279918
O 8.40633870 24.10654357 9.73923537 -0.00008308 0.00156461 0.00596990
O 6.69506787 28.61844413 8.20766204 -0.00752336 -0.00064944 -0.00077082
O 10.85998154 24.24125888 2.22696880 -0.00980667 0.00346345 0.00405597
O 12.25053484 18.79552806 3.51425427 -0.00307202 -0.00266227 0.00247256
O 6.12810045 27.56158017 14.38137329 -0.00329889 0.00120809 -0.00168313
O 7.03367649 22.84330429 15.30397248 -0.00368817 0.00019306 0.00100918
O 9.61573560 20.12888361 21.50790529 0.00187820 0.00285089 -0.00369069
O 8.45975759 25.48022638 20.63021257 0.00147968 0.00205755 0.00049146
O 6.49974405 23.83520585 21.68879580 -0.00007761 -0.00070644 -0.00005044
O 5.19268915 0.15501792 20.19139065 0.00527697 -0.00482128 -0.00083175
O 9.27736469 24.39527035 14.02205674 0.00396855 -0.00004569 -0.00147115
O 10.66355752 19.24101805 15.62908516 -0.00433489 0.00076940 0.00091016
O 4.52551105 27.68511623 26.33295067 -0.00291332 -0.00249082 -0.00001437
O 5.58517737 23.21499082 27.19730214 -0.00386269 0.00165444 -0.00202736
O 8.41187614 20.46393676 33.01222846 0.00485022 0.00176359 0.00701115
O 7.15789055 25.33519997 32.41730614 -0.00133334 -0.00012035 -0.00290248
O 5.18627723 24.28275201 33.66237836 0.00453221 0.00040381 -0.00020793
O 3.39934220 28.68449834 31.86279451 0.00058271 0.00581745 -0.00299211
O 7.87697684 24.09813531 26.10377207 0.00416738 0.00090680 -0.00291055
O 9.27336494 18.62288046 27.20306369 0.00576279 -0.00409765 -0.00398044
O 14.45622275 8.44526322 2.42836496 -0.00759081 -0.00162833 0.00083529
O 15.70003935 3.61905143 3.22839598 0.00306495 -0.00272863 0.00275929
O 18.30031947 1.27649280 9.30800184 0.00265580 0.00133741 0.00457513
O 17.22534939 5.73367452 8.39712715 0.00777870 0.00269296 -0.00108349
O 15.23886552 5.15778999 9.79715522 -0.00224635 -0.00122001 0.00501746
O 13.71364013 9.83448548 8.52608811 -0.00108665 -0.00135408 0.00330388
O 17.87892715 4.68509126 2.36358484 0.00131983 -0.00355330 -0.00142976
O 19.50270078 28.86866366 3.39883895 -0.00149102 0.00233874 -0.00066599
O 12.81002820 8.51838551 14.43668823 -0.00207848 -0.00553708 -0.00505685
O 14.44837845 3.51482184 15.47475469 0.00523728 -0.00460713 0.00266635
O 16.92912461 0.73147693 21.46174425 -0.00132570 -0.00177863 0.00567106
O 15.61783599 5.80768742 20.36297558 0.00134484 0.00363496 0.00056784
O 13.64124312 4.89046552 21.70613543 -0.00037265 0.00716381 0.00122606
O 12.18275463 9.83039654 20.42399415 -0.00415793 -0.00368989 -0.00184452
O 16.27017075 4.64355921 14.26552672 0.00446049 0.00397932 0.00164597
O 17.80159489 28.61752000 15.77497900 -0.00303340 -0.00409352 -0.00165609
O 11.00222855 8.32555326 26.45965301 0.00379897 -0.00059624 0.00005406
O 12.31030535 3.85083838 27.44964706 -0.00545893 0.00042308 -0.00048275
O 15.07406084 1.22502130 33.32836703 0.00476659 0.00395677 -0.00062467
O 13.90918889 5.95321424 32.29254579 0.00631187 -0.00124834 0.00176439
O 11.93736617 4.58937765 33.45030261 -0.00374860 -0.00023682 0.00489284
O 10.59770591 9.69111095 31.90260064 -0.00060610 0.00155805 -0.00265499
O 14.45098347 4.53800263 26.04639588 0.00378603 -0.00310407 0.00458777
O 15.95649233 0.13946935 27.36771214 0.00202800 0.00078924 0.00058710
O 14.41922574 18.12799675 2.19181426 -0.00569049 -0.00603584 0.00007520
O 15.83687375 13.30298329 3.72002667 0.00314458 0.00365948 -0.00551411
O 18.28181295 10.66138173 9.52022952 -0.00364403 -0.00102569 -0.00453173
O 17.25960363 15.48675385 8.04124590 0.00130238 -0.00134366 -0.00237600
O 15.27870149 15.02102696 9.80345568 0.00196270 -0.00493391 -0.00074870
O 13.54217689 19.61784804 8.31483718 0.00042536 0.00442277 -0.00863901
O 17.74697064 14.13823131 2.28131367 -0.00286536 -0.00408878 -0.00114270
O 19.32258251 9.06619689 3.47670244 -0.00403106 -0.00262875 -0.00637622
O 12.83447658 18.15407157 14.75384927 -0.00259791 0.00096877 -0.00427273
O 13.81988946 13.62245751 15.68309775 0.00032455 -0.00484001 0.00513002
O 16.74123651 10.96933951 21.22523309 0.00296659 0.00345892 0.00319236
O 15.83224043 15.76634308 20.55062905 0.00018361 0.00434239 -0.00108346
O 13.49212567 14.69622243 21.34306073 0.00342739 -0.00036272 0.00451305
O 11.75337233 19.26637793 20.32611403 -0.00345933 0.00194933 -0.00414253
O 16.33576734 14.40854368 14.44878894 -0.00355447 -0.00727201 0.00421428
O 17.64151883 9.50873225 15.49022740 0.01068358 0.00156027 -0.00420651
O 11.51922036 18.19952792 26.20211995 0.00106801 0.00606410 0.00946356
O 12.44830889 13.37204277 27.08371745 0.00294347 0.00401161 -0.00638488
O 15.16000949 10.62234315 33.16215720 -0.00161745 -0.00709012 0.00239190
O 14.02178077 15.38524136 31.90317126 -0.00136167 -0.00046682 -0.00479923
O 11.89536380 14.69035449 33.23183937 0.00025980 0.00308616 0.00442882
O 10.42601025 19.27788939 31.78548621 -0.00363686 -0.00065334 0.00380167
O 14.59475564 14.29030429 26.17205427 -0.00440962 -0.00234128 0.00117330
O 16.11523421 9.48933743 27.66738601 -0.00303258 -0.00409677 -0.00662948
O 14.64630559 27.48764234 2.26625679 -0.00222985 0.00423031 0.00622430
O 15.76256737 22.96529142 3.31236027 0.00698211 -0.00140812 0.00246149
O 18.33715355 20.42572839 9.51680779 -0.00049713 0.00509896 0.00437757
O 17.27713983 25.16235296 8.17227001 0.00149723 0.00433566 -0.00707320
O 15.16603742 24.30228109 9.52988726 0.00310564 0.00420536 -0.00614744
O 13.75316304 0.03742024 8.14782064 0.00412719 -0.00020633 -0.00063514
O 17.91693507 23.79491697 2.18690796 0.00241855 -0.00041814 -0.00621095
O 19.41080156 19.34277035 3.39251238 0.00273889 0.00396487 0.00437581
O 12.94786733 27.58310575 14.35658688 -0.00571528 -0.00151861 0.00194015
O 13.90900407 23.03053635 15.65018264 -0.00203129 -0.00090903 0.00007867
O 16.59369656 20.46088432 21.36493006 0.00471919 -0.00016487 -0.00396942
O 15.55865128 25.09189414 20.53929509 -0.00569832 0.00379298 0.00040442
O 13.30094757 24.38660601 21.33953069 -0.00199138 -0.00760384 0.00479593
O 11.93931615 0.09017485 20.11681103 -0.00173024 -0.00240869 0.00178035
O 16.16938664 23.84236447 14.31406862 -0.00725627 -0.00887164 0.00367030
O 17.59787708 19.11126498 15.42120947 -0.00910769 0.00358970 0.00029489
O 11.25689279 27.61052389 26.30571930 -0.00035589 -0.00226807 -0.00120128
O 12.58033503 23.12522173 27.47479595 0.00494169 0.00111008 -0.00324450
O 15.30871897 20.37690571 33.04468915 -0.00150262 -0.00151638 -0.00527013
O 14.24003969 25.00722180 31.75310889 0.00173969 -0.00528482 -0.00038449
O 11.89923729 24.50775323 32.92954515 0.00103729 -0.00207879 0.00399692
O 10.56389616 0.04577134 32.51934655 -0.00457755 0.01273673 0.00399716
O 14.56994313 24.13552331 26.22119281 -0.00004219 0.00125111 0.00129407
O 16.13840372 18.90368346 27.30629670 -0.00066289 -0.00145758 -0.00027837
H 0.07143141 8.57911471 2.73848142 -0.00637449 -0.00463811 0.00658978
H 2.63487859 3.76251914 3.18341389 -0.00933872 0.02279333 0.01961059
H 5.43322326 0.48553648 8.96855950 0.01058703 0.01782424 0.00014271
H 2.40756726 5.29597478 8.94094787 -0.00309567 -0.00972782 -0.01423272
H 5.60696182 8.10504248 0.69137804 0.00776380 -0.00884303 0.00944220
H 3.78986340 3.41664847 5.53653768 0.00746714 0.00245535 0.02319164
H -0.38437050 1.53264299 11.01556182 -0.03558054 -0.00174477 -0.00797515
H 1.32769449 6.04665763 6.88421245 0.01371228 0.01535560 -0.00121261
H 4.24527471 6.75506028 10.93658373 0.00469311 -0.01152025 -0.00618716
H 3.96504048 1.77065853 7.24976224 -0.00363006 0.02739238 -0.00994925
H 1.06708335 2.69779671 1.37573734 -0.01524655 0.00119409 -0.00265158
H 1.24585010 7.79211433 5.12196636 0.01428938 0.00953234 0.00191953
H -2.03341774 5.20203440 35.45164501 0.02283189 0.00549410 -0.01148761
H -0.07652653 0.43165766 6.38007649 0.00496281 -0.00013072 0.01198155
H 2.70110336 3.95517922 11.99070383 -0.00696079 -0.01622751 0.01280459
H 5.25805577 8.88486437 6.08367347 -0.01354548 0.02341103 -0.01217424
H 2.83929386 6.63843390 1.86248803 0.01685543 0.01728553 -0.00013207
H -0.11789115 2.16411614 4.43003604 0.00811694 0.00256541 -0.00585464
H 2.53207839 2.31797198 10.11603745 -0.00254615 -0.01059337 0.01174567
H 5.28753673 7.36041266 8.00790310 0.01567021 0.01540313 0.01293262
H 5.21308500 5.15952002 9.66668708 0.05732296 -0.01603176 0.02061681
H 2.77818642 28.71474044 8.25604694 0.00606824 0.02992214 -0.01430140
H 0.34502760 4.94778951 2.14399598 0.00735794 0.02066343 -0.01652436
H 2.27399202 9.30200337 3.89338188 -0.00299998 0.01961151 0.00037238
H 6.73197513 5.08520960 7.29121217 0.01000737 0.00037586 0.00172227
H 2.34999846 8.54345005 9.88344827 -0.01369757 0.00409700 -0.02453157
H 20.15357378 6.59718228 3.33473207 -0.03121063 0.00025829 0.00921240
H 5.00780989 1.07006569 1.50846764 0.01040599 -0.00697716 0.00207699
H -0.44115654 2.96795112 7.91526770 -0.02771420 0.00629261 0.01996372
H 1.38099207 7.24076227 9.21526772 0.00615565 0.00814045 0.00815451
H 6.04187039 6.78271096 3.21312500 0.00291783 0.00102772 0.04067532
H 3.34699000 0.90904657 2.10908674 -0.00663824 0.00889979 0.00337038
H 0.53174201 4.21323257 7.17092622 0.02664222 0.00838890 -0.00439602
H 0.59420107 8.23345698 10.52376718 -0.00442138 0.01347751 0.00647248
H 4.59854300 6.30412768 4.09733011 -0.00138412 0.01368036 -0.00218874
H 4.43133901 2.20517649 2.78395979 -0.02171033 -0.00431482 -0.00262577
H -1.83954666 8.88781855 14.64284345 0.01995112 -0.00609383 -0.01298713
H 1.15238106 4.36524941 14.81164748 -0.01350291 -0.01557300 0.00995283
H 4.14358311 1.07959912 21.13131302 -0.02453655 0.00887665 -0.02441847
H 1.08484532 5.42162867 20.78503152 0.00697804 0.03317089 -0.00297549
H 4.14671001 7.87284648 13.10583652 0.00298975 0.01900824 -0.00472306
H 2.20004255 3.96041133 16.72601796 0.00866922 0.01265150 -0.00465386
H -1.70336758 1.33681458 23.07777247 0.01559284 0.01692961 0.00187330
H -0.21395037 6.34387355 18.75133733 0.01138000 -0.00608808 0.00370520
H 2.48373168 6.98570222 22.57740777 -0.00070569 0.01462526 0.00569982
H 2.47929450 2.47811693 18.75264734 -0.01455719 0.00675762 -0.02485532
H -0.29434544 3.22476095 12.89625894 -0.00631857 0.00700836 0.00191618
H -0.21606138 7.86155497 16.90934486 -0.00818489 -0.01133630 -0.00724220
H 1.22054675 5.73202241 11.49986837 -0.02168684 0.00453194 -0.00600123
H -1.49650883 1.09675609 17.93959360 -0.00138006 0.01569094 0.02471518
H 1.19325926 4.41531550 24.11413824 0.00431275 -0.00559028 0.01584095
H 3.83377154 8.75555425 17.41122111 -0.00014914 -0.00717318 -0.00183981
H 1.29904898 7.28464474 13.29325430 -0.01116701 -0.00927180 -0.03619192
H -1.53944294 2.33985863 15.99889020 0.00028466 0.00994473 0.00075026
H 0.99978792 2.67370601 22.30769131 0.00544254 -0.01948576 0.01479636
H 4.03223257 7.19525003 19.45715075 -0.00959897 -0.00525930 0.00768730
H 3.38455526 5.12533791 21.47474854 0.02755937 -0.00839048 0.01764077
H 1.56919036 0.77645096 20.07377878 -0.02200593 0.00783190 0.01799060
H -1.39763251 4.77694806 14.08793737 -0.02574709 -0.01464788 -0.02384929
H 0.74317555 9.59386689 15.74740577 0.01793146 0.00572978 -0.00309989
H 6.17557975 3.70888835 19.65860655 -0.00645061 -0.01083981 0.02216661
H -0.46789857 7.36005199 20.94363406 0.01488538 -0.01372460 -0.01168411
H 16.80983198 6.80370541 15.33703686 -0.00071718 -0.00636309 0.02960010
H 1.70336618 0.65647385 13.46690252 -0.00894426 0.00992011 0.02584720
H -0.94786183 4.24089337 19.21973430 0.00070856 0.02806248 0.01519729
H -1.07295161 8.49033340 22.07720203 0.00586153 -0.01738815 0.01778579
H 3.62765370 6.61438170 15.41024119 -0.01926149 -0.00492231 0.00104972
H 2.31427848 2.09640997 14.24275188 -0.00707014 -0.01160291 -0.00252784
H -2.29151324 3.30327604 19.91917648 0.00662130 0.00474307 0.01726012
H 0.67170636 8.50409789 21.75960206 0.00082761 -0.01856586 -0.02912126
H 4.08810385 5.07606138 16.37414791 0.01536502 -0.00879885 -0.00006020
H 3.45899980 1.11004471 13.30678595 -0.01996763 -0.01697103 0.03088863
H 17.07890983 8.74979365 26.52922086 -0.01106774 -0.00027900 -0.01570531
H -0.54312190 3.99501301 26.82994400 -0.01789165 -0.02023783 -0.03699387
H 2.21788637 0.53508398 33.05858029 -0.01024182 -0.00453927 -0.03260151
H -0.63976582 5.49178606 32.66037023 0.01344154 0.01950532 -0.00362292
H 2.33387032 8.30625482 24.51613391 -0.00701048 -0.01330294 -0.00785671
H 0.36973842 3.65070397 28.90901124 0.01838021 0.01803312 -0.01092976
H -3.66855334 1.39170934 34.95633305 0.01208114 -0.02253493 0.01334023
H -1.94487889 6.27057053 30.80530815 0.01284388 0.00290071 -0.00152152
H 0.83845472 6.65564794 34.75216327 0.00468926 0.01955370 0.01848336
H 0.57328877 2.10996628 30.99607353 -0.01858030 -0.02346158 -0.00474237
H -1.80750863 3.08020131 24.78530586 0.01318484 0.00975096 0.00154689
H -1.94229842 7.64860938 28.89370806 -0.01494938 0.03158165 0.02099554
H -0.29131005 5.59595664 23.63459545 -0.02105070 -0.00718461 -0.01405034
H -3.40725950 0.62222245 30.07028238 -0.00029418 -0.01113321 0.01889573
H 4.05242057 4.04717744 0.16144029 -0.01157526 0.01551359 0.01282832
H 2.13358011 8.85856390 29.70705065 0.00152112 -0.01109731 -0.00347326
H -0.50664051 6.98059313 25.78253389 -0.00200259 -0.00534575 0.00572245
H -3.41835442 2.03059178 27.98676388 -0.01326181 0.00405162 0.00387988
H -0.71572169 2.15543358 34.23299092 0.01297079 -0.01106269 -0.01995311
H 2.20161770 7.19350305 31.54026839 0.03521847 0.00508838 -0.01961201
H 1.85801438 4.83527635 33.69183702 0.02625935 -0.00821360 0.02955764
H -0.23696820 0.56605305 32.13983024 -0.03515731 -0.02037804 -0.01755700
H -3.10253945 4.53245986 26.11561680 -0.01473272 0.01706404 0.02224025
H -0.96992757 9.37303481 27.80160668 0.02386336 -0.00886559 0.00715155
H 2.55021990 4.21628830 31.76659599 -0.01708330 -0.01349946 -0.02275035
H -2.78251425 8.71315723 33.94041575 -0.00743602 0.00614930 0.01153603
H 15.10656633 6.08636186 27.86998680 -0.00637835 -0.03017077 -0.00026764
H 1.82612230 1.18476612 25.37970964 0.02646094 -0.00940349 0.01956085
H -2.79097768 2.63049713 32.02586429 0.00368614 0.00802950 -0.01397544
H -1.02407668 8.33336015 33.47210616 0.02781816 -0.00524960 -0.00138727
H 1.46851566 6.56018507 27.95277283 -0.01266706 -0.03088155 -0.00324697
H 0.15403045 0.60337033 25.50711110 -0.01060023 -0.01711528 0.00662694
H -3.22910234 3.94817061 30.97661610 -0.00255451 -0.00838979 -0.01336988
H -2.37004427 7.40833735 32.80323553 0.02128800 0.00858909 -0.00068788
H 1.55372174 5.06347860 28.82289176 0.01447943 -0.02306470 -0.00853825
H 0.47015903 2.25316251 26.15206353 -0.00203375 0.01910233 0.00274921
H -0.09520821 18.66439326 2.50256175 -0.00044287 -0.00308860 -0.03637009
H 2.86710717 13.48383949 3.26642225 -0.02059998 0.02069627 -0.02015022
H 5.48234546 10.07141434 9.02043072 -0.00237782 -0.01009417 -0.00383907
H 2.47088488 15.21557632 8.83711333 0.00718729 0.01732919 0.01421926
H 5.98854892 18.07726131 0.74154049 0.02338641 -0.00591033 -0.01223959
H 4.00405982 12.57310859 5.32311896 -0.00245136 -0.01238340 -0.01401133
H -0.48825999 10.84720895 11.21363701 -0.01049555 -0.00527844 0.01835807
H 1.31572815 15.94971091 6.72636396 0.00560758 -0.00269923 -0.00477299
H 3.84877917 15.94431190 11.19047099 -0.00495473 0.01989274 -0.01695000
H 3.66919061 11.40376522 7.43314670 0.00918586 -0.01182547 0.03036564
H 1.19006161 12.53796029 1.02767018 0.01838585 -0.00752659 0.00722032
H 1.38681372 17.46333004 4.80866427 -0.01359843 -0.00267272 0.00225072
H -2.02385224 15.20216394 35.51525442 0.00308803 0.00381440 -0.01197659
H -0.40025222 10.28997234 6.10230600 -0.00197349 -0.01268184 -0.00214050
H 2.81226124 13.58634835 12.21270416 0.00556710 0.04321229 -0.01931885
H 5.27029625 18.74078292 5.75649594 -0.00142334 0.01408008 0.01451082
H 2.88731099 16.83714346 1.46192537 -0.00327301 0.00371293 -0.00376229
H -0.06136537 11.95145467 4.26017816 -0.02397576 0.04299045 0.01429167
H 2.80046546 12.09734688 10.04453142 -0.02936003 0.00497865 0.00097563
H 5.43094656 16.97433763 7.37540123 -0.00368856 0.01235157 0.01738518
H 4.91543871 14.34577744 9.88549475 -0.01621620 0.00257299 0.00004401
H 2.67265983 9.36878596 8.13808147 0.03117241 0.00020038 -0.02064666
H 0.33004570 14.38877890 1.89751327 0.01521622 0.01353783 -0.00762025
H 2.39015912 19.00928471 3.63056110 0.01404968 -0.04162948 0.01828072
H 6.03564722 12.45032108 8.22805801 -0.00245019 0.00170800 0.00343363
H 2.21427883 18.28509020 9.83420903 -0.00183650 -0.01351178 -0.01196648
H 18.41735966 15.94682717 3.92416673 0.00036752 0.00952373 -0.00438053
H 4.42236432 11.61055577 2.57800257 0.00714614 0.02393414 0.00285655
H -0.11837391 12.14532484 8.67674818 0.01713851 -0.01707954 -0.02462968
H 0.63934932 17.54587028 9.63908759 -0.01085911 -0.01545124 -0.01884271
H 6.26093189 15.97773750 3.66050512 0.00693644 0.00031334 -0.00571472
H 4.33407534 10.25785244 1.47220460 -0.01263556 0.01057893 0.00186573
H 0.26588590 13.22251737 7.37634560 -0.00652145 -0.01570121 -0.02301574
H 0.69884461 18.89523908 10.56107920 0.01126713 0.01181870 -0.01505653
H 4.40818238 15.70229519 4.10453855 -0.00307288 0.01576775 -0.01311849
H 2.93572107 10.87476426 2.31952419 -0.00590998 -0.00015239 -0.00232992
H -1.77173433 18.66034994 14.65925104 -0.03278551 -0.01253855 0.00546993
H 1.76448705 13.89728298 14.76607442 -0.00721044 0.00398126 -0.00173332
H 3.97857981 10.47883919 20.83994067 0.02682606 0.00020097 0.01267056
H 0.91866329 15.44650867 20.83578662 0.01315169 -0.00172339 0.02210387
H 3.92976741 17.55364974 12.87531156 -0.01144908 0.00558797 -0.00234703
H 2.43660566 13.28920009 17.25025695 -0.01877723 0.00262299 -0.02099277
H -1.81412728 11.40253633 22.91740223 0.01193454 -0.01458114 -0.00092460
H -0.22041196 16.32188516 18.76986082 -0.00720697 -0.00516379 0.00116938
H 2.70837118 16.46772299 22.52444984 -0.01242377 -0.00283382 0.02683250
H 2.30675504 11.73808136 19.19056646 0.00468338 -0.00965227 0.00826065
H -0.27016510 12.72717536 12.96602711 0.00950096 0.00735378 -0.02793465
H 0.02987907 17.68902475 16.70378538 0.01036512 0.01487577 0.00124655
H 1.33142123 15.43779914 11.72317363 -0.01010776 0.00303409 0.01007200
H -1.75109231 10.60587428 17.86683479 -0.02930626 -0.01164305 -0.00456754
H 1.17578629 14.06304133 23.60017160 -0.01124963 0.02713888 -0.01405773
H 3.96885988 18.71958210 17.72658396 0.00036647 0.00375664 -0.02326775
H 1.21898194 16.99878300 13.49586267 -0.02531159 -0.02090338 0.01913626
H -1.41975722 11.93022738 15.92680782 -0.01674102 0.01037375 -0.00791454
H 1.17910133 12.37513520 21.94047273 -0.00292607 0.00330183 0.00204372
H 3.88979771 17.13266936 19.66020795 -0.01365710 -0.00585144 -0.00672688
H 3.77300426 15.10266290 21.14775853 -0.00889224 0.00156145 -0.00420173
H 1.37124689 9.70948183 19.91318361 0.00006392 -0.01326386 0.03507620
H -1.19196694 14.29848122 14.19568925 0.01238729 -0.00410991 0.01790821
H 0.94934311 19.43507640 15.67272042 0.00641238 0.00126960 0.00732288
H 5.84153076 13.50724601 19.12256893 -0.00803135 0.02369000 0.00404140
H -0.77080624 18.38229838 22.36055807 0.02706222 0.00475656 -0.00925329
H 18.04986664 14.86396658 16.46771572 -0.00186361 0.00651685 -0.01222229
H 1.56817364 11.40247410 14.47861384 -0.02397544 0.00006555 0.00854477
H 17.85194871 13.19623215 20.19736451 0.00904930 0.01164344 -0.01080150
H 0.81652963 18.19540503 21.51075706 -0.02138973 -0.02339738 0.00559137
H 3.42223324 16.61041067 14.81998066 0.00392757 0.00235605 -0.01664564
H 3.37145394 11.47259062 14.00736263 0.01824556 -0.00659845 -0.03822464
H -1.11187875 12.45785093 20.59518841 -0.00677402 0.00607082 0.03308446
H -0.66602665 17.20779200 20.96839815 -0.00445486 -0.01623445 -0.01671916
H 3.82441819 15.58932635 16.21851173 0.04374856 0.00688312 0.00560087
H 2.25914365 10.23360843 13.40085479 0.00632604 0.00012390 0.00634499
H -3.19927042 18.77503606 26.51216747 0.02618756 0.00692205 -0.00584074
H -0.19674490 13.97016377 26.89523457 -0.01379188 0.01755004 0.02157445
H 2.23216709 10.19113047 32.92465957 0.00467403 0.00286276 0.00580078
H -0.48456068 15.47530375 32.83050527 -0.00078520 0.00392207 -0.00177623
H 2.71168289 17.99201170 24.59610405 0.01258010 -0.00989411 -0.01225644
H 0.88111275 13.18444931 29.01052321 0.01634935 -0.03253578 -0.00889399
H -3.75513183 10.78616131 34.81427843 0.00744997 0.00486556 0.00317620
H -1.59529055 16.02269617 30.56217538 0.00823545 -0.01236700 -0.01520454
H 0.94363085 16.27408726 34.81460554 -0.00541497 0.01364727 -0.01526404
H 0.77275700 11.59333957 30.80154028 -0.00218568 -0.01780483 -0.01545088
H -1.96807730 12.63393216 24.96858829 -0.00618832 0.00780699 -0.01721710
H -1.56170620 17.61998267 28.62226559 0.01404451 0.01124206 0.01141684
H -0.45887493 15.39884395 23.56797389 -0.00779047 0.00298460 0.01574299
H -3.29446808 10.58065133 29.67372473 -0.01048242 -0.01802798 -0.01530431
H 4.20006477 13.56631889 0.22245148 -0.02772454 0.00054404 0.03193282
H 2.21703648 18.95759721 29.79701139 0.01257642 0.01505887 -0.01777481
H -0.36556286 16.87561414 25.32786598 0.00271393 -0.01213867 -0.01641577
H -3.04362926 11.83913111 27.77206054 0.01828797 -0.00135761 0.00009789
H -0.60442375 12.14571839 34.02476882 -0.01488900 -0.02116229 -0.01400358