2160
Time=30000.00000001 pbc="T T T" Lattice="20.63807154 0.00000000 0.00000000 0.00000000 29.06140612 0.00000000 -4.72556273 0.00000000 35.50742365" energy=-13794.18933702 virial="-45.40672680 21.68572471 80.34309453 21.68572471 -60.86513671 -26.27793906 80.34309453 -26.27793906 -37.73716268" stress="0.00035215 0.00090703 0.00378586 0.00090703 -0.00050073 -0.00133117 0.00378586 -0.00133117 0.00067864" Properties=species:S:1:pos:R:3:vel:R:3
O 0.63733479 8.56984601 2.28216612 -0.00195745 -0.00189963 -0.00167549
O 1.98683778 3.97796871 3.57342342 0.00450745 0.00349072 -0.00580948
O 4.45387088 0.73848051 9.56448488 0.00285593 -0.00242555 -0.00262137
O 3.51982368 6.03544598 8.29040918 -0.00312272 0.00561760 0.00110007
O 1.44138897 5.25231035 9.58040883 -0.00029532 -0.00738610 0.00174083
O -0.10073335 9.93988120 8.30597381 0.00168838 -0.00086763 -0.00146590
O 3.97077008 5.02071280 2.13933763 0.00137428 -0.00664019 0.00050812
O 5.67110870 29.05089628 3.53407920 0.00151692 -0.00486981 -0.00264848
O -0.96431880 8.28974556 14.65840918 -0.00563083 0.00015488 -0.00865200
O 0.42192212 3.81610826 15.42961262 -0.00168141 0.00357515 -0.00672512
O 2.95092012 1.06183433 21.35075140 -0.00484742 0.00001182 -0.00100752
O 1.79169034 5.68333189 20.21562097 0.00127988 0.00046930 -0.00243901
O -0.49069012 4.90613568 20.93049675 0.00068226 0.00078908 -0.00558453
O -1.87819377 9.47568085 19.68421940 -0.00028022 -0.00204473 0.00238652
O 2.72786034 4.31562428 14.39759395 -0.00032865 -0.00410161 0.00593454
O 4.08319898 28.75036795 15.32246418 -0.00051421 -0.00282084 0.00129994
O -2.24861635 8.46161325 25.99407264 0.00351160 -0.00333509 0.00347665
O -1.31109774 3.66181460 27.01029676 0.00534767 -0.00113335 0.00335241
O 1.35546792 1.24090033 32.95168774 0.00122660 0.00033516 0.00125787
O 0.31494011 6.00819452 31.93380427 -0.00536794 0.00024605 0.00606925
O -1.79111954 5.02957961 33.03517738 0.00101309 0.00616821 -0.00118276
O -3.37778191 9.56017927 31.89888235 -0.00715798 -0.00025156 -0.00314473
O 0.93038266 4.83899490 26.00780736 -0.00513465 0.00237227 0.00089607
O 2.27271728 28.81349210 27.42674959 -0.00032891 0.00371648 -0.00395299
O 0.70734899 18.21369726 2.40694979 -0.00161477 0.00267425 0.00068251
O 1.97586962 13.47003826 3.46494694 -0.00136966 0.00140630 0.01023882
O 4.68209209 10.87285711 9.12239335 0.00562291 -0.00453125 0.00644434
O 3.49456979 15.62286491 8.21422733 -0.00023802 -0.00021687 0.00402572
O 1.38199221 14.52751881 9.49991257 -0.00727894 -0.00250187 0.00131863
O -0.42797890 19.41547744 7.87722400 -0.00340443 0.00124158 -0.00035531
O 3.91660597 14.38452868 2.14417565 -0.00579138 0.00122776 0.00071581
O 5.47754435 9.40117895 3.30962547 0.00249211 0.00326478 -0.00427823
O -0.83348854 18.24962385 14.31079717 0.00032035 0.00347763 -0.00254024
O 0.34697511 13.48544494 15.19601702 -0.00589284 0.00289317 -0.00203022
O 2.93962185 10.66543707 21.23214884 -0.00298300 0.00369415 -0.00780038
O 1.90064305 15.84406098 20.62195843 -0.00009728 -0.00624333 0.00064789
O -0.25900226 14.36110645 21.21723988 -0.00163190 -0.00947197 0.00200701
O -1.96980322 18.95979568 19.79619775 -0.00250975 0.00032134 -0.00297323
O 2.39188748 14.33807277 13.95131653 0.00090008 0.00441724 0.00115789
O 3.97284222 9.40304199 15.77350028 -0.00462583 -0.00198765 -0.00334554
O -2.51162494 18.24844981 25.94804897 0.00073919 0.00252044 -0.01210617
O -1.27438809 13.20001542 27.21216749 0.00205013 -0.00028115 0.00017604
O 1.51885950 10.65862941 33.29150701 -0.00038172 -0.00210480 0.00701632
O 0.17862164 15.59749163 31.91804640 -0.00142334 -0.00484597 -0.00126330
O -1.85387984 14.36284544 33.47009225 0.00299067 -0.00511845 0.00297846
O -3.39928761 19.65665460 31.92433124 -0.00233362 -0.00131441 -0.00008898
O 0.81433333 14.13616466 25.97221543 0.00022372 0.00228714 -0.00260033
O 2.50710701 9.66274520 27.08073936 -0.00307118 0.00574819 -0.00591766
O 0.66447863 27.99701209 2.40635953 0.00917349 -0.00084143 -0.00185099
O 2.26424065 23.14179633 3.33826682 -0.00384735 0.00386493 -0.00092887
O 4.62964282 20.52148206 9.51238891 -0.00487987 0.00562827 -0.00366395
O 3.09927269 25.15238578 7.92519143 0.00686401 -0.00360658 -0.00116273
O 1.10218705 24.51547490 9.25279062 0.00290863 0.00209976 0.00104426
O -0.27672400 28.88595439 7.87046134 -0.00167432 0.00193191 0.00244701
O 4.30959068 24.34108401 2.17152227 0.00293443 0.00352345 0.00258231
O 5.42711845 19.14674944 3.27728770 -0.00468706 0.00146426 0.00284889
O -0.73569213 27.79092842 14.39437435 0.00461325 -0.00561040 0.00214301
O 0.41008936 23.04306181 15.50824557 -0.00314979 0.00597190 0.00039349
O 3.02277081 20.57827337 21.35120754 0.00316640 0.00036579 0.00358332
O 1.77386481 24.87009469 20.02066263 0.00331489 0.00666832 -0.00054247
O -0.45089704 23.99154934 21.28155095 -0.00201587 -0.00004538 -0.00204295
O -1.80926175 0.32653445 20.17592016 -0.00231352 -0.00041715 -0.00221798
O 2.54267859 24.06978588 14.40227685 -0.00192198 -0.00825637 0.00195363
O 3.70439864 18.78309468 15.37393777 0.00326591 0.00491188 0.00551522
O -2.52049860 28.00142185 25.94293755 -0.00549515 0.00424224 0.00474347
O -1.03638176 22.96137059 27.03233128 -0.00370448 0.00345620 -0.00169597
O 1.33731342 20.51094171 32.99236987 0.00058187 0.00192827 -0.00110571
O 0.14900777 25.46265579 32.28620550 0.00143813 0.00584710 0.00161131
O -1.78713904 24.01762818 33.46238008 -0.00012004 0.00078465 0.00432973
O -3.22358810 0.25302395 31.97969317 -0.00017767 0.00411530 -0.00044698
O 1.01523291 24.23718492 26.16527117 -0.00049457 -0.00029156 0.00134657
O 2.23507273 19.67146407 27.45431125 -0.00592584 -0.00321884 0.00048008
O 7.85869198 8.51816245 2.26940000 0.00450125 0.00113319 0.00127227
O 8.73815336 3.83740330 3.50773534 -0.00375848 0.00157419 -0.00916112
O 11.27708047 1.22938514 9.34748859 0.00685771 0.00154495 0.00103499
O 10.06500873 5.93441434 8.37931308 -0.00043288 -0.00104385 -0.00390116
O 7.97123270 5.41345685 9.49879703 0.00005684 0.00264136 -0.00526633
O 6.81558075 9.99301900 8.06514772 0.00648135 -0.00063635 0.00586201
O 11.04400087 4.60042431 2.42220393 0.00364944 0.00169820 -0.00348518
O 12.31405883 0.21934514 3.72827786 0.00188391 0.00063538 0.00873961
O 6.07952353 8.91539499 14.31333173 -0.00266651 -0.00160068 0.00356866
O 7.44365208 3.33244068 15.00970667 0.00160269 0.00305886 -0.00265099
O 9.79271086 1.28324686 21.42992291 0.00636440 -0.00204196 -0.00050316
O 8.72459252 5.82270200 20.26138199 0.00226347 -0.00277655 -0.00017246
O 6.47991603 5.12111732 21.34623562 0.00269624 -0.00067595 -0.00238165
O 5.23908423 10.23145893 20.50239592 0.00364980 0.00090685 -0.00185560
O 9.32295243 4.96682829 14.18213790 -0.00115505 0.00773392 0.00372649
O 10.99250239 28.82387161 15.65437533 -0.00228829 -0.00127978 -0.00176292
O 4.88436728 9.02937468 25.80981454 0.00015319 0.00063120 -0.00382774
O 5.75799495 3.82935730 27.36133780 0.00123701 -0.00712625 0.00481643
O 8.28436557 0.92742709 33.13309889 0.00407591 0.00184579 0.00479351
O 6.90079505 6.17858201 32.18490083 -0.00139861 -0.00029942 0.00016914
O 5.13724829 4.59817989 33.13645078 0.00112781 0.00292591 -0.00320554
O 3.53458611 9.88701901 31.77737566 -0.00246702 0.00047120 0.00319087
O 7.65318939 5.16955046 26.08995567 -0.00717797 0.00011941 0.00382258
O 9.17070704 28.73927766 26.98320489 0.00227988 0.00368514 -0.00896771
O 7.67279205 18.68353767 2.06011942 0.00319466 -0.00162492 -0.00112796
O 8.86255946 13.54959166 3.39472085 -0.00285987 -0.00369942 -0.00216161
O 11.42115628 10.91709671 9.41108989 -0.00389100 0.00020861 0.00038060
O 10.49449513 15.91461990 8.27137068 0.00855720 0.00513655 -0.00612326
O 8.14240240 15.18210941 9.22516058 -0.00155451 -0.00084763 -0.00010278
O 6.71476562 19.71387389 8.01331896 -0.00720260 -0.00378581 0.00013356
O 10.89592277 14.72728050 2.09669849 0.00492702 -0.00242310 0.00432530
O 12.70283071 9.49582632 3.89477222 0.00277234 0.00454470 0.00306096
O 6.07063747 18.36735229 14.27035227 -0.00152859 -0.00215251 -0.00253564
O 7.16157622 13.17656347 15.36767067 0.00375361 -0.00729764 0.00437091
O 9.80190770 10.50953672 21.45106375 0.00334670 0.00507643 -0.00583268
O 8.64072720 15.90535291 20.33170791 0.00473508 0.00541877 0.00253237
O 6.81286224 14.99312980 21.73044038 -0.00234660 -0.00897078 0.00046702
O 4.94676806 19.47656108 20.01559657 0.00199869 -0.00160185 0.00372568
O 9.09325660 14.60161217 14.20907191 0.00006884 -0.00309351 -0.00312361
O 10.93844160 9.53946392 15.74311413 -0.00166438 0.00223492 0.00451805
O 4.06650177 18.38840664 26.44728331 -0.00221048 0.00223773 -0.00102247
O 5.54579339 13.42799811 27.16386626 0.00756623 0.00056971 0.00116985
O 8.20479040 10.63517196 33.01097816 0.00102494 0.00157816 -0.00773738
O 6.97002399 15.47922114 32.14326717 -0.00437949 -0.00237622 0.00117052
O 4.97860084 14.39751754 33.44864387 0.00164398 -0.00927631 0.00146195
O 3.49931314 19.55121563 32.09284427 -0.00245702 -0.00101078 0.00346847
O 7.81679877 14.50628622 26.05749404 0.00551272 0.00047762 0.00405695
O 9.39812069 9.74723373 27.36527960 -0.00037604 0.00026651 0.00339195
O 7.68712564 27.90756853 2.48137285 0.00474255 -0.00093931 0.00640526
O 8.97051802 23.19856633 3.28795094 -0.00566757 0.00184809 -0.00007475
O 11.38908250 20.33436854 9.35638912 -0.00126405 -0.00023660 -0.00198625
O 10.06186128 25.45839060 8.45162494 -0.00537913 -0.00131165 -0.00131449
O 8.00953286 24.21459581 9.42391556 -0.00194929 -0.00366882 0.00281573
O 6.62263506 29.03285849 8.21702281 -0.00125094 0.00151418 0.00464368
O 10.91394722 24.39136486 2.34566307 0.00051218 -0.00372393 -0.00086764
O 12.29724608 19.42017265 3.27354688 0.00382718 -0.00386688 -0.00619515
O 6.03200388 28.12655388 13.88242794 0.00506736 -0.00245600 -0.00534590
O 7.10640604 23.28855263 15.15213963 -0.00150715 -0.01228243 0.00276757
O 9.77627453 20.44708933 21.20718356 0.00422077 -0.00554044 0.00589108
O 8.57405728 25.43221252 20.35802176 0.00002044 -0.00820693 -0.00023369
O 6.59630038 24.32453218 21.43652425 -0.00732496 -0.00335506 0.00330320
O 5.11540458 29.04460193 19.86920743 -0.00013073 -0.00169305 -0.00460290
O 9.39623980 24.09863628 14.09925160 -0.00105686 -0.00119395 -0.00025230
O 10.79770704 19.37086955 15.39511158 -0.00130219 -0.00129147 -0.00053460
O 4.45088084 27.89304109 26.10035262 -0.01035443 -0.00134988 -0.00524642
O 5.83384161 23.00289444 27.36801664 0.00230214 -0.00310656 -0.00033694
O 8.31411644 20.60795867 33.33674397 0.00243179 0.00056611 0.00242037
O 7.38617572 25.46005937 32.05598985 0.00038147 0.00047101 0.00166089
O 5.08796015 24.31253085 33.01631235 0.00195944 0.00130828 0.00052449
O 3.31034920 0.05985151 31.86461534 0.00127057 -0.00396005 -0.00136214
O 7.83167471 24.25971116 26.01018097 0.00112575 -0.00158483 -0.00240689
O 9.34410875 19.58972441 27.95536796 -0.00265811 -0.00063220 0.00215161
O 14.60099795 8.45768436 2.57093754 0.00292320 -0.00342202 0.00366630
O 15.65887707 3.84301668 3.49840727 -0.00324454 -0.00566758 -0.00265795
O 18.43164855 1.21812946 9.43728786 -0.00342026 -0.00101160 -0.00258885
O 17.09888584 5.87827232 8.68149553 0.00134251 0.00021864 0.00656358
O 14.94876551 5.11156084 9.68870926 0.00161976 0.00314758 0.00001114
O 13.80006175 9.91948865 8.89082160 -0.00795322 -0.00263567 -0.00161184
O 17.88145794 4.77007111 2.50490536 -0.00187919 0.00294243 0.00330016
O 19.32468817 28.97735666 3.67594760 0.00363704 0.00475045 -0.00154099
O 12.82622996 8.66024193 14.30655429 -0.00075231 0.00398572 0.00245057
O 13.98953307 3.81123918 15.33787959 0.00210471 -0.00692503 -0.00481122
O 16.74867765 1.14256293 21.35707960 0.00372639 0.00796058 0.00016289
O 15.61653789 5.87279907 20.07356149 0.00519792 -0.00011245 0.00117148
O 13.51588113 4.93624284 21.56980174 -0.00288744 0.00321495 0.00698211
O 12.07794475 9.49367488 20.01237907 0.00557511 -0.00061273 -0.00623305
O 16.13535119 4.78922483 14.24399862 0.00149764 -0.00078712 0.00447726
O 17.72222966 28.93769738 15.48006101 0.00137068 0.00131320 -0.00580137
O 11.47896178 8.96941610 25.90181017 -0.00407340 -0.00190597 0.00001265
O 12.48738127 3.93031767 27.45165325 -0.00005168 0.00434724 -0.00314194
O 15.34285709 1.13648932 33.10743579 -0.00321277 0.00355702 -0.00307803
O 14.10177947 5.96864882 31.95204085 -0.00305891 0.01152017 -0.00570165
O 12.01405550 4.89647406 33.17090482 0.00446418 -0.00067314 0.00272465
O 10.19053901 9.83038141 31.60714038 0.00147910 0.00385135 0.00268004
O 14.58380981 4.86385205 26.05269642 -0.00511216 0.00023017 0.00244361
O 16.07482709 28.98680784 27.16474370 -0.00379618 0.00705107 -0.00103190
O 14.26809222 18.19050203 2.33197259 0.00074031 0.00333395 -0.00068391
O 15.34420159 13.10301771 3.56560851 0.00487986 -0.00469092 0.00202498
O 18.31758859 10.62255133 9.71211016 0.00029009 0.00287940 0.00426402
O 16.99419596 15.74404929 8.26010316 -0.00004699 0.00184364 0.00452481
O 15.23983035 14.54817042 9.62479074 -0.00519369 -0.00280297 0.00286066
O 13.71182391 19.45139735 8.28960571 -0.00452944 -0.00480774 0.00294553
O 17.13736555 14.16738005 1.99684154 -0.00538911 -0.00415700 0.00004977
O 19.32701951 9.64651173 3.68983332 0.00054946 0.00037426 -0.00272061
O 12.81319914 18.39705122 13.94318995 -0.00426834 -0.00011895 -0.00316737
O 13.91018288 13.40848685 15.39455338 -0.00019196 -0.00475223 0.00031682
O 16.89667164 10.78735290 20.97556706 0.00074493 0.00052813 0.00495318
O 15.64696301 15.68259416 20.18912602 -0.00138729 -0.00320695 -0.00080793
O 13.36807601 14.78604368 21.08287649 0.00551985 -0.00397799 -0.00518151
O 11.86408951 19.46384429 19.80706489 0.00393702 -0.00121046 -0.00241927
O 16.14514032 14.23571356 14.36567753 0.00206954 0.00343374 -0.00282250
O 17.62734035 9.57410196 15.54301002 0.00394992 -0.00360605 0.00706226
O 11.51657281 18.12674849 26.44236120 0.00804745 -0.00152114 -0.00594523
O 12.86801684 13.50407186 27.08445164 0.00104577 -0.00058003 -0.00101320
O 15.13872947 10.72684996 32.90387586 -0.00075661 0.00066767 0.00226884
O 14.03142802 15.34352345 32.00029180 -0.00300298 -0.00163066 -0.00118659
O 11.84046133 14.53775883 33.09192991 0.00077519 -0.00253713 -0.00242593
O 10.29097715 19.68666929 31.94126366 0.00358045 0.00482155 -0.00059588
O 14.65911763 14.42929187 25.69351749 -0.00103320 0.00328777 -0.00285423
O 16.11730762 9.49263534 27.00485557 -0.00283513 0.00568389 -0.00540095
O 14.47819012 28.20208730 2.71264100 -0.00267058 0.00392771 0.00190284
O 15.81929334 23.26449623 3.62170860 -0.00119570 0.00614584 0.00054359
O 18.48740670 20.43440969 9.43049804 0.00465643 0.00474965 -0.00120788
O 17.19884811 25.15759746 8.16028818 0.00558050 -0.00184615 -0.00092981
O 14.99026629 24.17422372 9.43544654 0.00946019 -0.00229224 0.00375219
O 13.41969524 0.25676750 8.19227500 0.00078560 0.00670303 0.00257146
O 17.85077639 24.28762666 2.29615597 0.00193164 0.00123692 0.00360985
O 19.43036668 19.47788486 3.59872612 -0.00210149 0.00024598 -0.00075105
O 12.96475995 28.06826852 13.85977562 0.00225335 -0.00279957 -0.00114722
O 14.22162318 23.01877999 15.06082574 0.01158364 0.00235433 -0.00253657
O 16.73449620 20.51041165 21.02896076 -0.00215922 -0.00299294 -0.00451724
O 15.41936705 25.31332776 20.37125119 -0.00415939 0.00287934 0.00319856
O 13.34713458 24.13319579 21.47813619 -0.00339375 0.00600531 0.00134781
O 11.80083303 0.16764154 20.00832879 -0.00086032 0.00185632 0.00218207
O 16.17856287 24.02678629 13.99740407 -0.00480914 -0.00371396 0.00129206
O 17.78538674 19.23671213 15.44216162 0.00414772 0.00121583 0.00521866
O 11.53037140 27.92877528 26.01979321 0.00174713 0.00111353 0.00079706
O 12.49698485 23.10124357 27.31152216 0.00249269 -0.00260115 0.00250651
O 14.90694571 20.29518071 33.25329198 0.00049498 0.00835097 -0.00389097
O 14.12396827 25.31805478 32.08494784 -0.00028831 -0.00349288 -0.00172903
O 12.12546040 24.59545748 33.51130580 -0.00333587 -0.00318151 -0.00142492
O 10.29262660 0.00859034 31.75766475 -0.00315186 -0.00065254 0.00242774
O 14.84405119 23.40344114 26.37134962 0.00432642 0.00402494 -0.00114673
O 15.89112108 18.97533845 27.25617646 -0.00462554 0.00497729 -0.00168998
H -0.24183717 9.03168317 2.48717782 0.01456986 0.00304770 -0.00337152
H 2.79372309 4.35137646 3.22412745 0.00621743 -0.00525380 0.00822243
H 5.32777216 0.58759780 9.09376686 -0.01776770 0.01638712 -0.01710183
H 2.76481132 5.51123459 8.55588157 -0.00668225 -0.00161045 -0.00032645
H 6.00548803 8.31114881 0.60475606 -0.02847513 0.02598695 0.01691251
H 3.89475849 3.54112507 5.39800583 0.00542696 0.03106093 -0.00287962
H -0.47707986 1.17333831 11.43446625 -0.00334997 -0.00146782 -0.01476484
H 1.45442443 6.31380305 6.50196232 0.00159062 0.00052336 0.00701577
H 3.90445184 6.90988493 10.86438574 0.00321069 -0.01106079 -0.00816246
H 3.83204403 1.89709547 7.13479421 -0.01331913 -0.00291815 0.00538612
H 1.32001774 3.12028500 1.18953816 -0.02780839 -0.00872946 0.00232245
H 1.58447564 7.79547077 4.57083160 0.00635818 -0.00954607 -0.01217227
H -2.07256126 5.32921143 35.16221667 0.00097164 0.00939616 0.00621218
H 0.04615730 0.54402819 5.81054235 -0.02505059 0.02228644 -0.01743446
H 2.63922134 4.04451593 12.27320339 0.00792789 0.00113203 0.00014460
H 5.45440874 9.09466361 5.59232980 -0.01400605 0.00992204 0.02371876
H 2.62401605 6.76139789 1.81617108 -0.02974106 -0.01462771 0.00937886
H 0.11261724 2.16133927 3.95951043 -0.01578781 0.00652138 -0.02425205
H 2.52103506 2.38273624 10.24045665 0.00379829 0.01564230 -0.01193372
H 5.55185691 7.70245111 7.39176601 -0.01022539 -0.01576247 0.02723077
H 4.91403957 5.10151910 9.96863032 0.00856408 -0.01780644 0.00218898
H 2.87595703 0.08834643 8.02380007 -0.02254490 0.01920418 -0.00018515
H 0.42018281 4.90808460 2.26186223 -0.00715416 0.01976910 0.01785480
H 2.34007422 9.23060572 3.47199135 0.01354748 0.01213780 0.00964401
H 6.48207007 4.77920394 7.10724737 -0.01291624 -0.00204172 0.01264829
H 0.60043412 7.41225945 9.19470384 -0.00741270 -0.01193155 -0.01922235
H 19.18027333 7.14014705 3.25829800 -0.01013627 -0.01012440 -0.01386316
H 5.05735070 1.14193452 1.49702166 -0.00413539 -0.01665065 0.00253171
H 0.07770184 4.39814567 7.23381458 0.00564801 -0.00495066 -0.00620097
H 0.81948623 8.76037438 10.34649261 -0.01628517 0.01620797 -0.00619648
H 5.87916144 6.79664420 3.63525925 0.00685363 -0.03328196 0.03815603
H 3.53480811 0.56990625 1.41290772 -0.02063899 0.02041590 0.00350142
H -1.03334723 3.58980531 8.45281609 0.02328674 0.01435941 -0.00675263
H 2.35213216 8.12338647 9.43797703 0.00540353 0.01203349 -0.00004278
H 4.49518880 5.82956710 4.43576920 -0.02129783 -0.01044111 0.00780229
H 3.69318674 2.17768335 2.20778803 0.01529550 -0.02796960 -0.00877292
H -1.85180743 8.94798200 14.82507167 0.01627084 -0.01309363 0.01481289
H 1.31316396 3.99718323 15.09869607 -0.00698215 0.00427784 0.01348968
H 3.83853132 0.62907426 21.20431389 0.00222775 0.02325005 0.01456443
H 0.91721040 5.25612483 20.50326878 0.00723179 -0.00901489 0.01537896
H 4.02221263 8.37338279 12.81489078 0.03212181 -0.01510366 0.03165628
H 2.22254030 3.49145408 17.30783866 -0.00232511 0.01458458 -0.01696917
H -1.81096126 1.81482317 22.81330983 -0.01600791 0.00765699 0.00709503
H -0.08974982 6.01791841 18.40093081 -0.00835647 0.00911646 0.01654921
H 2.38259121 6.81370478 22.82639390 -0.01504988 -0.00020996 0.03288744
H 2.07293996 2.02484135 19.23705104 -0.00360127 -0.01536679 -0.01747935
H -0.40636043 3.14658638 13.18406254 0.01803065 0.00053008 -0.01595456
H -0.04504449 7.72106626 16.67001073 -0.02214132 0.00382802 -0.00132837
H 1.35831663 5.50320059 11.86007561 -0.00082904 0.00200165 -0.01037365
H -1.52207563 0.31414462 17.74440202 -0.00535012 -0.02684624 -0.00955143
H 0.93385284 3.97327907 24.16799394 -0.01828741 0.00106699 -0.01075108
H 3.76163552 9.14434570 17.90502468 -0.01093950 0.00408225 0.01491300
H 1.18464812 6.74766938 13.92089761 0.00102422 0.00574558 0.01659102
H -1.50001001 1.86963792 15.78598961 0.00902468 -0.00762813 0.00687074
H 0.98747093 2.50840571 22.06694339 0.00917378 -0.01421801 -0.00215898
H 3.68815715 7.37445588 19.77655324 -0.00319618 -0.01393898 0.02613918
H 3.37387611 4.88063806 21.35543215 0.01004378 0.00093962 0.02610582
H 1.30299950 0.00909597 19.99847572 0.01051167 -0.00756969 -0.00895803
H -1.34081166 4.72757545 14.29478813 0.00586626 0.01070119 -0.00761242
H 0.85910914 9.59436314 15.85539639 -0.00044924 -0.00481240 -0.00929598
H 4.10053954 3.57871762 19.77400908 -0.00601059 -0.00515096 0.01661965
H -1.05778314 8.57877119 21.96533201 -0.01542931 -0.00853522 0.01220314
H 16.94294268 6.04074746 16.44832871 0.01898676 -0.00942751 -0.01161887
H 2.49401693 2.02499558 14.35109339 0.02852582 -0.00459760 0.00976642
H 17.90643942 4.03427381 19.07430528 0.01733883 -0.00085540 0.04246468
H 0.65129210 8.49521379 21.38900951 0.03527278 0.01013409 -0.03234470
H 3.59400230 5.72276899 16.49772026 -0.01681426 -0.02181432 -0.00892782
H 3.25303428 0.81580954 13.21142602 -0.01281110 -0.02105977 -0.02123529
H -2.65596716 2.75138521 20.22569049 -0.00876719 -0.01864700 0.01822465
H -0.45363136 7.29180153 20.98925441 -0.00137169 0.01814300 -0.00314560
H 5.33021149 5.56314829 15.95718072 -0.02004285 -0.01171644 -0.00995751
H 1.55809100 0.71249981 13.65021972 -0.00978034 0.00415202 0.02081240
H -3.15566642 8.79684079 26.34438420 -0.00816326 -0.00401134 0.01337693
H -0.51905403 4.10598411 26.58235991 -0.01123293 -0.01037205 -0.00103255
H 2.15827379 0.76782226 32.60625738 -0.01272359 -0.00204055 0.00504400
H -0.61200474 5.65531164 32.16878809 0.01356900 0.01111287 0.01442438
H 2.70866515 8.42541684 24.59145430 -0.00191071 0.00748384 0.02183867
H 0.74418329 3.45442371 28.59186993 -0.01272078 0.02454432 -0.02154554
H -3.30291988 1.75061103 34.63909791 0.02145282 0.02284890 -0.00012465
H -1.71220346 6.41206329 30.18505785 -0.00785145 0.00729131 -0.00890141
H 1.25919875 6.84070783 34.10425929 -0.01468739 -0.00216753 0.02059068
H 0.85248974 1.77800613 30.57204003 0.01186363 0.02022653 0.01080579
H -2.00796139 3.58986416 24.64443191 0.00387113 -0.00163606 0.00905996
H -1.66164115 7.80643180 28.36484075 0.01619332 -0.00247029 -0.01037573
H -0.42088622 5.39135860 23.12391122 -0.01246140 0.01704248 0.03873471
H -3.19256211 0.66166061 29.89362026 -0.01217411 0.02262207 -0.01061265
H -0.33592594 4.63317828 35.38184238 0.02331115 -0.00683391 0.00739653
H 2.38963950 9.02326611 29.08448976 -0.01736809 0.00380432 -0.01097098
H -0.29435981 7.25499166 24.99962376 0.00799291 -0.02212339 -0.00155833
H -3.27603026 2.19195502 27.98528252 -0.01104655 0.00010473 -0.03609660
H -0.55416748 2.81479364 33.59022915 0.02721774 -0.00216574 0.00101202
H 2.43547654 7.40266944 31.11563360 -0.00662587 -0.01686254 -0.02151547
H 2.03995077 5.16276901 32.90246705 0.00815748 -0.00481785 0.01688596
H -0.10165381 0.35331388 32.02142960 -0.02175138 -0.00231617 -0.01015562
H -2.95103357 4.92016156 25.78019223 -0.00005679 -0.00596969 0.01106474
H -0.67275528 9.72448033 27.21996316 -0.02881836 -0.00439970 -0.02680435
H 4.34793261 2.57637800 31.80399201 -0.01162220 -0.01009855 0.00569468
H -1.11368560 7.91219108 33.22177633 -0.00305831 0.00200256 -0.01759733
H -3.23549830 5.63623231 27.62015281 0.01492977 -0.00760390 0.00940002
H 1.76793568 1.23211157 25.31655939 0.03368174 -0.00883823 0.01139919
H -2.63464096 4.13768014 30.76151594 0.01843717 -0.01472474 -0.00043549
H -2.74589385 8.36616036 34.05422822 0.00498260 -0.01182186 0.01707990
H 2.15818634 7.07336570 27.32530093 -0.00851942 -0.01464592 0.02050481
H 0.06463450 0.42531299 25.13869606 0.00032955 0.00292590 -0.03202569
H 16.41899019 3.63831599 31.54759921 0.02652497 0.00635821 0.04013269
H -1.45628019 9.36868311 34.17322097 -0.01084967 0.01734998 0.00935564
H 1.90748424 5.60565442 28.26372444 0.01168898 -0.00336058 -0.02875148
H 0.25929729 1.73178089 26.22876848 0.01720931 0.00215821 -0.00411820
H -0.06193969 18.80348858 2.59880798 -0.00371417 0.00208117 0.01893583
H 2.79810052 14.08128690 3.33429288 0.00462622 0.00893308 0.00321138
H 5.55946052 10.58040790 8.73145417 -0.01419009 -0.01394360 0.01492366
H 2.69691763 15.21156386 8.56546202 0.00724583 -0.00771997 0.01733539
H 5.78512484 18.37753606 0.22420544 -0.01100461 0.03095811 0.00289406
H 3.97815585 12.94250863 5.07806537 -0.00950348 0.00709411 0.01098200
H -0.27462259 11.04867540 11.44699790 0.00196095 0.00129158 -0.00576323
H 1.53563934 15.72913025 6.40563753 -0.01143207 0.02326064 -0.00472459
H 4.34670763 16.92756202 10.40254584 0.00294708 0.01601685 0.01241166
H 3.93771178 11.50951258 7.01986596 0.01001660 -0.00615921 0.00018264
H 0.87437022 12.80240228 0.99470353 -0.02759142 0.02619280 -0.02692930
H 1.46184865 17.65497136 4.63916212 -0.01883572 0.00864777 -0.01053125
H -2.06216828 15.24962317 35.43958787 -0.02009098 0.00492920 0.01092775
H -0.08741198 10.31321371 6.00748378 0.00626133 -0.00481880 0.01647276
H 2.50306941 13.95261962 11.87917613 -0.00893881 -0.01279191 0.00183619
H 5.25408755 18.96083400 5.74916569 0.01074834 0.00202972 0.01025531
H 2.70183083 16.59130870 1.82869332 -0.00861973 0.01082793 0.00223929
H -0.05766876 11.87271314 4.21541667 0.03359003 -0.00402699 -0.00640341
H 2.49532395 12.04099923 10.13594805 0.01487911 0.02602147 -0.03544284
H 5.62065674 17.16620214 7.18311310 -0.00361720 0.01506701 -0.00106667
H 5.09221982 14.66211800 9.53134436 0.02951012 -0.01302905 -0.02307895
H 3.02062813 9.65461080 7.96685248 -0.00082596 0.00818106 0.03386938
H -0.28476558 14.28198058 2.16399553 -0.00554100 -0.00530281 -0.01038411
H 2.32218584 19.12104955 3.24362429 -0.01979670 0.01199168 -0.01471082
H 5.85370291 13.60333146 7.50930903 -0.01544048 0.00228725 0.00878202
H 0.52327605 18.98145750 10.42540057 0.02784212 -0.02665943 -0.02110392
H 17.44000580 15.06618132 4.28783256 0.00019625 0.00509291 0.01316079
H 4.65872797 10.60564462 1.17421406 0.01453858 -0.01333339 0.04331668
H 19.55463106 13.32867423 7.67626169 -0.00759724 0.01182784 0.00558220
H 2.03435046 18.37362783 9.76422467 0.00891678 0.00821251 -0.01205083
H 5.16717090 16.74821342 3.35343165 -0.01055644 -0.00808870 -0.00528337
H 2.98799473 10.65471239 1.70752798 -0.00673095 0.00578255 0.00543767
H 0.38878298 12.38604281 8.28979252 -0.00597417 0.01995512 0.02278508
H 0.52372316 17.45281717 9.55501995 0.02084819 -0.00900075 -0.00432611
H 4.23077351 15.51534692 4.29939364 0.00796130 0.00112553 -0.01825609
H 4.17751567 11.78723709 2.34337820 0.02222908 -0.00164076 0.00503315
H -1.71976407 18.53568142 14.57887231 0.00683694 0.00964936 0.02294038
H 1.20634859 13.83618183 14.87968850 0.03892691 0.04675360 -0.01329570
H 3.86643482 10.48935282 20.88997948 0.01273012 -0.00361313 -0.00626983
H 1.09917018 15.35314720 20.87500570 -0.00531886 0.01220692 0.00722947
H 4.19360900 18.18568338 12.46421053 0.01764588 -0.00776461 0.00788980
H 2.22584338 13.26562957 16.96881495 -0.01760240 0.00192540 -0.02281700
H -1.87289099 11.10612982 22.64706078 -0.01802483 0.02203402 -0.01301773
H -0.18720732 15.91327013 19.09524674 -0.00033435 0.01298105 -0.01800182
H 2.44239526 16.93321018 22.55794365 -0.01445080 0.01290390 -0.00802057
H 2.11340855 11.88058668 19.02322586 -0.00659811 0.00101767 0.02006783
H -0.32922713 12.90219161 13.22218336 0.02816110 -0.01316735 -0.00641542
H -0.23446015 17.23427001 16.82289067 0.01786176 -0.00712652 -0.01953440
H 1.28010012 15.14527133 11.93685327 0.01145797 -0.00907950 -0.00211359
H -1.70879412 10.50902559 17.98947158 -0.02724155 -0.00792216 -0.00128271
H 0.81774520 13.67383464 23.75775624 -0.01495346 0.01617209 0.01734656
H 3.60003832 18.72454905 17.56012086 -0.00394121 0.01054770 -0.00022334
H 1.21012788 16.59105499 13.64379111 -0.01289301 0.00102096 0.00655547
H -1.68599265 11.86985906 16.02476779 -0.04059830 -0.00658114 -0.01801789
H 0.81756026 12.05889954 22.09630478 0.01910846 -0.01442265 -0.00913719
H 3.72185658 17.24578187 19.69353324 -0.01466809 0.01046924 0.03225003
H 3.59398141 14.89230725 21.62791204 -0.00877166 -0.00983065 0.02141010
H 1.28244487 9.98951614 20.09836387 0.02262664 0.01279021 0.02610553
H -1.32101219 14.50577819 14.16931532 0.02138186 -0.00378165 -0.00362789
H 0.55213143 18.65216859 15.52933204 0.03070251 0.00587823 0.01045074
H 4.55478020 13.37580088 19.89008804 -0.01764946 0.02151299 0.00775796
H -0.93279412 17.28413234 21.55406944 -0.01262821 -0.03107126 -0.00836079
H 17.22075176 16.72755275 14.89511529 -0.01004564 0.02284062 0.00389048
H 3.26325417 11.36635836 13.95788492 -0.02355877 -0.01607796 -0.00301717
H -2.04917970 12.34416636 19.96320542 0.01202508 -0.00379067 -0.01625905
H -1.37377863 18.72841830 22.34072907 0.01287764 -0.01131961 0.01716373
H 2.74703125 15.62576868 16.02156292 -0.00822541 0.01009448 -0.01274734
H 2.94788639 9.74867651 13.32627694 -0.01717101 0.00460278 -0.01830264
H -0.85402808 13.21067515 19.16707629 -0.00684194 0.00650203 0.01715920
H 0.34882354 18.54437212 22.11572654 -0.00186300 -0.02021562 -0.03910989
H 4.46834647 15.10075809 16.05154645 -0.01961781 0.01523130 -0.00815682
H 1.48174735 10.69213234 14.00371291 0.00909550 -0.01038240 -0.00151129
H -3.45414748 18.54161697 26.18253169 0.00506466 0.01310206 -0.01801006
H -0.48853707 13.44766655 26.69790375 0.03101969 0.00360351 -0.00975464
H 2.30374232 10.38971319 32.75568316 -0.00371375 0.02570622 -0.01145428
H -0.65219254 15.43939561 32.46409522 -0.02085681 -0.00191936 0.03014172
H 2.27665677 18.06813742 24.60458059 -0.00531919 -0.00299588 0.00438284
H 0.91062435 12.82067888 28.89171682 -0.00757774 -0.01767355 0.01003627
H -3.67647408 11.29196169 34.46651674 -0.00843668 0.00598949 -0.00350752
H -1.80661432 15.86498309 30.25756760 -0.00240004 0.01676849 0.01223546
H 0.93884255 16.55433895 33.99990858 -0.00174157 -0.00939371 -0.00341006
H 0.72796937 11.39976596 30.86107569 -0.01286003 -0.00368942 -0.00150421
H -1.83003308 12.74659010 24.63165778 -0.03265216 0.00364464 -0.00734208
H -1.91899813 17.50854897 28.40355340 -0.00075442 0.00988099 0.01738435
H -0.32852635 15.33040884 23.22287738 0.00829957 0.01004147 -0.00399152
H -3.06707782 9.94951805 29.82496850 -0.00572045 0.01416117 0.00991045
H 4.12700912 13.91016861 0.15260615 0.00682006 0.01454284 0.00389861
H 2.07889231 18.66050149 29.24942129 -0.00579342 0.00474330 -0.00107115
H -0.51960210 16.92453099 25.18440686 0.00362121 0.03083376 -0.03253220
H -3.18377161 11.65956648 27.89331312 0.00710796 0.00077440 0.01283800
H -0.49230193 12.44926307 33.74131663 -0.01369701 -0.02389704 -0.00943431