2160
Time=74000.00000007 pbc="T T T" Lattice="20.55158822 0.00000000 0.00000000 0.00000000 28.97280102 0.00000000 -4.73554103 0.00000000 35.65753394" energy=-13795.72586787 virial="-38.53481117 -6.02940088 35.98733878 -6.02940088 -13.67229466 14.32931941 35.98733878 14.32931941 -28.38101279" stress="0.00055838 -0.00034269 0.00166282 -0.00034269 0.00179915 0.00061192 0.00166282 0.00061192 0.00120077" Properties=species:S:1:pos:R:3:vel:R:3
O 0.74315122 8.35722281 2.44671308 0.00521443 -0.00415042 0.00319375
O 1.87947810 3.51802538 3.48189533 0.00468502 0.00312890 -0.00270267
O 4.60590244 1.32899154 9.50197153 -0.00508640 0.00316683 0.00693420
O 3.20182762 5.95401120 8.70799266 0.00076886 -0.00447420 -0.00195476
O 1.21518286 4.68133527 9.92032112 0.00685092 0.00337856 0.00066978
O -0.07638917 9.63479994 8.46026429 -0.00419656 -0.00292611 0.00214930
O 3.94325180 4.70440337 2.17078447 -0.00019152 -0.00083497 -0.00087179
O 5.42553118 28.83399006 3.70150891 0.00538245 0.00326486 -0.00359844
O -1.01692780 8.83234620 13.92745313 -0.00414002 0.00617715 0.00428548
O 0.27785783 3.89430953 15.21257432 -0.00324066 0.00083365 0.00035844
O 3.01991691 0.95727446 21.31717171 0.00130441 -0.00103513 -0.00369177
O 1.89881856 6.02104815 20.13144574 0.00576505 0.00262918 -0.00318206
O -0.28898460 4.90705744 21.18385638 0.00025044 0.00472817 -0.00144505
O -1.73495410 10.03895458 20.35622099 0.00273227 0.01134006 -0.00212351
O 2.30289582 5.17072745 14.10848848 -0.00011953 0.00039032 -0.00285031
O 4.17170919 0.01161847 15.45497876 0.00169396 0.00246866 0.00642343
O -2.34312754 8.37446718 26.21912399 -0.00348925 0.00161045 0.00352371
O -1.42819831 3.65037246 27.35592897 0.00240708 -0.00375602 -0.00221689
O 1.40824855 0.80369935 33.47814331 0.00114245 -0.00994251 0.00012437
O 0.36700483 5.79224277 32.42417992 -0.00042433 0.00089412 0.00385915
O -1.87692862 4.76786323 33.21088261 -0.00429546 -0.00073802 -0.00515988
O -3.52429822 9.33226182 31.87488028 -0.00110997 0.00007703 0.00194411
O 0.68516864 4.59412955 26.16151700 0.00218164 0.00454817 0.00501112
O 2.27083594 28.62335268 27.22535390 -0.00314385 0.00231025 -0.00012945
O 0.50661380 17.92878627 2.48006174 -0.00035160 -0.00167750 -0.00438542
O 2.01307856 12.77303331 3.20402020 0.00387535 -0.00161529 -0.00107043
O 4.67924270 10.93594889 9.75487338 -0.00075186 0.00842858 -0.00324498
O 3.40506898 15.54855815 8.18908250 0.00652661 0.00481582 -0.00044421
O 1.34638646 14.59654116 9.81731879 -0.00033776 -0.00456196 0.00085610
O -0.27310153 19.02840215 8.15755166 0.00490712 -0.00236345 0.00069382
O 3.88935266 14.22398823 2.15618630 -0.00263204 -0.00271868 0.00104575
O 5.51624586 9.29148422 3.70647753 -0.00324740 0.00237477 -0.00210477
O -0.90835012 18.33760535 14.32146686 -0.00423189 -0.00358433 0.00162962
O 0.54628261 13.45544175 15.49618559 0.00172709 -0.00087708 0.00083280
O 3.13186014 10.98251754 21.31498377 -0.00326258 0.00597760 0.00273394
O 1.83128384 15.36572864 19.81017952 -0.01100136 0.00167837 0.00696480
O -0.35993739 14.80175757 21.14611673 0.00114111 -0.00091618 -0.00529546
O -1.83069113 19.71945055 20.19370633 -0.00719462 -0.00134600 0.00030499
O 2.28399280 14.74142419 14.27498067 -0.00183324 0.00413979 -0.00845464
O 3.87851488 9.76724706 15.27907973 -0.00762428 0.00125595 0.00154571
O -2.23094656 18.10512699 26.29931465 0.00203060 0.00777803 0.00339364
O -1.31054282 13.45061548 27.70876271 -0.00049550 -0.00521878 -0.00223825
O 1.41451432 10.82252174 33.03878396 -0.00056238 0.00158591 -0.00137247
O 0.16454471 15.65549898 32.15008201 0.00008997 -0.00040594 0.00157049
O -1.94210231 14.43655638 33.40736307 -0.00469141 -0.00249689 -0.00297997
O -3.53240581 19.43374617 31.69589693 0.00282291 0.00126675 0.00185061
O 0.77706968 14.05422462 26.30982206 -0.00004423 0.00271490 -0.00178529
O 2.30971781 9.39407492 27.53573378 0.00035977 -0.00253814 -0.00340104
O 0.65697041 27.73095949 2.37510479 0.00539229 -0.00349453 0.00613152
O 1.91182363 22.78857924 3.41241075 -0.00723560 0.00334652 -0.00182410
O 4.40470783 20.59779673 9.21525135 0.00122010 0.00205594 -0.00567364
O 3.28721310 25.33911013 8.48989888 -0.00207327 0.00844598 -0.00868212
O 1.35040897 24.56483022 9.93538768 -0.00064141 0.00480575 -0.00152125
O -0.29634100 0.10682792 8.28758613 -0.00372742 0.00292039 0.00562831
O 3.93301752 23.98865868 2.36399783 0.00734545 -0.00360876 0.00319745
O 5.39987039 19.38905591 3.62781046 0.00417844 -0.00010092 0.00605493
O -0.84754752 28.04298381 14.62332844 -0.00111537 0.00218172 -0.00127509
O 0.56477730 23.49554528 15.79624484 0.00074293 0.00093262 -0.00364868
O 3.05756039 20.74374937 21.32526816 -0.00450095 0.00050142 -0.00860686
O 1.83597940 25.41282313 20.22469653 0.00963382 -0.00355148 -0.00344710
O -0.23960218 24.47192640 21.47937579 -0.00039658 -0.00534619 -0.00313445
O -1.67272730 0.48836589 20.18340725 -0.00194806 -0.00155009 0.00405123
O 2.56550750 23.97232943 14.27382005 0.00095407 0.00106549 -0.00088502
O 3.89953502 19.36719681 15.32476764 0.00085353 0.00427613 -0.00660275
O -2.62517757 27.69124321 26.40892638 0.00242123 0.00379249 -0.00461259
O -1.00764856 23.40182404 27.59840095 -0.00841413 0.00385542 -0.01076349
O 1.54405610 20.49859495 33.09594080 -0.00079154 -0.00118202 -0.00477283
O 0.30449713 25.10056414 32.08015545 -0.00604365 -0.00738742 -0.00069677
O -1.83453337 24.31837337 33.37330691 0.00539985 0.00846974 0.00224625
O -3.34509794 28.79601028 32.21255206 0.00203793 0.00724946 0.00157564
O 1.05730251 24.09729630 26.19302776 -0.00069242 0.00274981 -0.00467756
O 2.52070690 19.26957701 27.48608830 -0.00786291 0.00174222 0.00237429
O 7.74734069 8.66028019 2.13613845 -0.00083746 0.00931199 0.00979790
O 8.75797930 3.52965767 3.21522433 -0.00359329 0.00151914 0.00355909
O 11.40948967 0.66003088 9.38773205 -0.00758453 -0.00297395 -0.00027560
O 10.12029957 5.90840315 8.31886015 0.00237924 0.00211990 0.00550752
O 7.89433554 5.26512417 9.56353927 0.00226362 0.00278856 -0.00416791
O 6.51890921 9.97028600 8.36184622 0.00523478 -0.00709755 -0.00183102
O 10.87536820 4.83275780 2.33203418 0.00447935 -0.00568200 -0.00224278
O 12.16358680 28.63902597 3.87780223 -0.00492569 0.00326247 0.00053983
O 5.97190259 8.67819541 14.42508080 -0.00264207 -0.00098606 0.00072411
O 7.18451075 4.03507857 15.33246973 0.00138792 -0.00003819 -0.00493900
O 9.82712240 1.46747097 21.32298530 -0.00277272 0.00360443 0.00095362
O 8.53500797 5.82862488 20.12000451 0.00100762 0.00136402 0.00187662
O 6.65518204 5.00592844 21.47610634 -0.00446849 0.00974862 0.00050890
O 4.89813981 9.61899706 19.95979307 0.00238950 -0.00033647 -0.00315522
O 9.16816496 4.53960099 13.92972808 0.00131567 -0.00300779 0.00353706
O 10.79357253 0.00588433 15.52677913 0.00103433 -0.00026047 -0.00466746
O 4.33280137 8.58029990 26.27936558 -0.00298656 -0.00558271 0.00070674
O 5.62931097 3.67611382 27.28624644 0.00494348 0.00250121 0.00438053
O 8.20214921 0.63888772 33.79388216 -0.00055846 -0.00037307 0.00294032
O 6.98466958 6.13915341 32.56597167 -0.00272376 0.00733510 0.00063657
O 5.36780960 4.32928022 33.45737879 0.00479429 -0.00841907 0.00187848
O 3.58038981 9.61415862 32.03076420 -0.00383070 -0.00337571 0.00202209
O 7.62615162 5.08384553 26.04169228 -0.00095065 -0.00546619 0.00304934
O 9.08994953 0.16041512 27.50429777 -0.00017442 -0.00003481 -0.00865256
O 7.32735507 18.10398455 2.40046662 0.00175635 -0.00302394 0.00153564
O 8.66186554 13.49403966 3.64839598 0.00302633 0.00014558 -0.00194569
O 11.22331126 10.65472459 9.45481409 -0.00414695 -0.00396854 -0.00467803
O 10.36932224 15.65797099 8.46062450 -0.00680562 -0.00056078 -0.00230013
O 8.14811230 14.65951051 9.69218610 -0.00235680 -0.00267068 -0.00267933
O 6.45597669 19.22912373 7.88749204 -0.00098320 0.00144391 0.00021939
O 10.76135807 14.31313073 2.22386368 0.00154543 0.00285993 0.00202142
O 12.18286676 9.61160300 3.56408014 -0.00444747 0.00026931 -0.00441837
O 6.10468991 18.62968679 14.11407460 0.00266499 -0.00018121 -0.00423687
O 7.08792737 13.49811213 15.30113326 0.00327259 -0.00464945 -0.00652218
O 10.25206248 11.18686743 20.87901171 -0.00450547 0.00516251 0.00539137
O 8.53719758 15.93861557 20.32971348 -0.00073028 -0.00034494 0.00567519
O 6.65095370 14.52605066 21.52513233 -0.00711982 0.00552349 0.00042967
O 5.04670387 19.59434731 20.11107926 -0.00173436 0.00994171 -0.00121837
O 9.32543614 14.44848112 14.22264050 0.00112383 -0.00647925 -0.00305380
O 11.11743612 9.36980280 15.65480794 0.00012465 0.00472947 -0.00596547
O 4.42302341 18.12865159 26.22374922 -0.00334541 0.00118258 -0.00221252
O 5.41127381 13.47927276 27.58284581 0.00286580 -0.01206436 0.00075743
O 8.42004749 10.29783725 33.36398346 0.00421603 -0.00396906 -0.00001620
O 7.33383740 15.39139248 32.10275013 -0.00325554 0.00005225 0.01115778
O 4.82294806 14.71554125 32.93158363 -0.00185479 0.00027195 0.00095195
O 3.62934197 19.41094880 32.08481930 -0.00446661 0.00262266 0.00271393
O 7.53192796 13.96576124 25.99161523 0.00412110 0.00138693 0.00503509
O 9.23977937 9.52991144 27.51289124 -0.01106824 -0.00161558 -0.00642555
O 7.63053196 27.83498961 2.32921571 -0.00134310 -0.00273564 0.00139738
O 8.71838296 23.09277707 3.55506810 -0.00047144 -0.00454682 0.00245286
O 11.44805819 20.23705113 9.54546986 0.00059862 -0.00308099 0.00551467
O 9.89289114 25.06665217 8.55382616 -0.00372225 0.00504595 0.00421246
O 7.95611677 23.75697182 9.77233296 0.00049342 0.00367837 -0.00815296
O 6.54115809 0.08504313 8.13263072 -0.00243959 0.00218498 -0.00503868
O 10.61109482 24.00488278 2.19482900 -0.00282249 0.00413386 -0.00018884
O 12.45542843 19.21786294 3.63330374 0.00333407 0.00419282 0.00117788
O 6.19997001 28.24422598 13.94462397 0.00337537 -0.00003450 -0.00255324
O 7.00128667 23.46669037 15.52710776 -0.00010098 0.00058527 0.00126077
O 9.58530674 20.43834488 21.56356204 -0.00255958 -0.00056449 0.00240146
O 8.66158847 25.11530998 20.05329836 0.00846319 -0.00295705 0.00048731
O 6.71635671 24.64893661 21.53330498 -0.00646604 0.00509264 -0.00291019
O 5.01296370 0.24572092 19.87710711 0.00154297 0.00097660 -0.00197211
O 9.13262126 24.33571368 14.05880174 -0.00662855 0.00582352 0.00344483
O 10.75672349 19.07445349 15.16738306 -0.00067767 0.00196021 0.00207517
O 4.56721705 28.16151437 26.19654568 0.00179476 -0.00299274 0.00231170
O 5.82017196 22.98864220 27.42903624 0.00100249 0.00677112 0.00285390
O 8.27946709 20.62856822 33.08756112 0.00041182 -0.00590647 -0.00063468
O 7.23025508 25.04756671 31.83597285 -0.00225844 -0.00011502 -0.00355820
O 5.00256754 24.36266391 32.96593122 0.00202326 0.00262137 0.00210238
O 3.50378691 0.13276768 32.20592403 0.00264962 0.00160347 0.00436551
O 7.74087878 23.73290749 26.27166877 0.00556102 -0.00061235 -0.00065810
O 9.11970164 19.34825441 27.22086664 0.00081404 -0.00937934 0.00170015
O 14.43965910 8.45319259 2.63958205 0.00314140 -0.00132824 0.00147749
O 15.92924476 3.64245810 3.47590388 0.00278983 -0.00081031 0.00621832
O 18.10569395 0.98463631 9.45473013 -0.00146696 0.00002669 -0.00226938
O 16.84537119 5.93142662 8.34356909 0.00261008 -0.00469906 -0.00493479
O 14.87387293 4.56663366 9.79450961 -0.00311677 -0.00460972 -0.00510415
O 13.42018307 9.91231159 8.37442011 0.00050876 0.00668932 -0.00592614
O 17.82948619 5.09650201 2.06593875 0.00261188 0.00436315 0.00175536
O 19.15264980 28.79447786 3.53700470 -0.00686669 -0.00256822 0.00245376
O 13.09116136 8.83470351 13.86232877 0.00195190 0.01020040 -0.00244293
O 14.15780083 3.18859394 15.02374438 0.00178274 0.00217706 -0.00615373
O 16.51353273 0.85684932 21.45862665 -0.00171283 -0.00030958 -0.00091632
O 15.48774210 5.91694850 20.02354392 -0.00602650 0.00432464 0.00321295
O 13.22373830 5.35297181 21.17393621 -0.00312462 -0.00338863 0.00116273
O 11.92001547 9.23298607 19.92749947 -0.00073462 -0.00432979 -0.00049433
O 16.13914908 4.75893053 14.40324547 -0.00048120 0.00062159 0.00461914
O 17.44727931 28.60558223 15.67124665 0.00275181 -0.00390058 -0.00262660
O 11.31127976 8.56311107 26.26652010 0.00547677 -0.00555375 0.00763856
O 12.62578097 3.73487506 27.57748680 0.00165897 -0.00330118 0.00067167
O 15.25265080 1.04084438 33.18462134 0.00261038 -0.00115996 0.00752247
O 13.97909506 5.54710598 31.65061875 0.00439970 -0.00139376 0.00112995
O 11.94007986 4.82624394 33.24500143 0.00064162 -0.00055413 0.00036952
O 10.37406196 9.61912635 32.00383984 0.00338408 -0.00302355 0.00042318
O 14.32113248 4.79351939 25.89855641 0.00497523 -0.00101851 0.00164321
O 15.90290669 0.03862637 27.53057905 -0.00346367 0.00104933 0.00028435
O 14.14328233 18.03965305 2.34834945 0.00036476 0.00270416 0.00534630
O 15.60250921 13.24558282 3.63254735 0.00102081 0.00197566 -0.00417855
O 18.22641588 10.69121061 9.52227015 0.00357904 -0.00672746 -0.00187532
O 17.06780276 15.18144411 8.00586191 -0.00218303 -0.00028009 -0.00071272
O 14.98488496 14.23033612 9.38156906 0.00063709 -0.00262316 0.00354837
O 13.55043245 19.11593717 8.46107732 -0.00189933 -0.00123694 0.00140950
O 17.73304990 14.06175131 2.46751863 0.00103609 -0.00016264 -0.00729134
O 19.25422047 9.38707278 3.48345241 0.00545160 -0.00167871 -0.00467865
O 13.02026774 18.12114002 14.41518140 0.00156984 0.00096446 -0.00950075
O 13.81660735 13.19512443 15.32693825 0.00328851 -0.00562541 -0.00855628
O 16.58884772 10.75486929 21.43402228 -0.00219412 -0.00288963 0.00126130
O 15.51710325 15.52725472 20.10544364 0.00241499 0.00211271 0.00099277
O 13.48257028 14.59750419 21.40601045 0.00310920 -0.00031593 0.00668820
O 11.86317578 19.73829495 20.15790066 0.00356267 0.00081467 0.00417892
O 16.00041159 14.16182113 14.33409871 -0.00293278 -0.00473513 -0.00193297
O 17.67908035 9.64762104 15.58482366 0.00144686 -0.00291449 -0.00328920
O 11.12332636 18.11365616 26.14781570 -0.00098178 -0.00204802 0.00113312
O 12.36819718 13.38867886 27.27841393 0.01197410 -0.00629672 0.00087929
O 15.23453028 10.75129847 33.20912709 0.00122087 0.00183023 0.00183118
O 13.97015831 15.79709858 32.22643531 -0.00076045 0.00166607 0.00150989
O 11.95232091 14.62057135 33.38354690 -0.00225235 -0.00199208 -0.00360728
O 10.25189145 19.16482015 31.58628542 0.00470661 0.00068732 0.00141099
O 14.51993355 14.24784934 26.26068024 -0.00367987 0.00114663 0.00277858
O 16.20438415 9.57588201 27.27255354 0.00464094 -0.00254624 -0.00504925
O 14.30452345 27.48962389 2.64310850 -0.00460314 0.00210524 0.00539570
O 15.48866777 23.06849239 3.96896371 0.00200411 0.00038119 0.00361888
O 18.31439393 20.36183050 9.51236685 0.00005748 -0.00115553 -0.00349645
O 17.19725774 25.29703139 8.47426574 -0.00191160 -0.00426269 0.00258600
O 14.88282774 24.52078272 9.43768316 0.00453868 0.00006320 0.00115158
O 13.52799341 28.61458344 7.99337893 -0.00118575 -0.00316831 -0.00076602
O 17.65578927 23.97003325 2.38051898 0.00493394 0.00237111 0.00170464
O 19.24327870 19.19858446 3.60559292 0.00045133 -0.00198966 -0.00200657
O 12.77687765 27.85327891 14.37753635 0.00245987 -0.00409394 -0.00205733
O 13.96565715 23.32031822 15.47955539 -0.00212816 0.00104576 -0.00865642
O 16.57524467 20.71304942 21.38773900 -0.00952052 0.00403264 -0.00409061
O 15.36304991 25.59566875 20.72288412 0.00704985 -0.00283221 -0.00139855
O 13.59940416 24.13060488 21.68340047 -0.00579739 -0.00457643 -0.00203103
O 11.65172395 0.21138848 20.14047844 0.00419717 0.00634922 -0.00108293
O 16.08886600 24.22308621 14.17170475 -0.00154302 0.00130299 -0.01263828
O 17.69024793 19.46164733 15.76010886 -0.00781587 0.00089076 -0.00186496
O 11.27584378 27.84299647 26.20502587 0.00174088 0.00374208 0.00185876
O 12.47827279 23.15723751 27.18451995 0.00091178 0.00643149 0.00241553
O 15.02132656 20.45248130 32.99259117 0.00239094 -0.00019374 0.00254786
O 13.82192524 25.10516419 32.17792494 0.00464444 0.00316403 0.00929285
O 11.83117217 24.15496088 33.37146934 -0.00136146 0.00258342 -0.00907730
O 10.25355308 0.13699942 32.29441493 -0.00142859 0.00200705 0.00522870
O 14.89049328 23.87487490 26.49010761 0.00168960 0.00120840 0.00043346
O 16.24003703 19.28657622 27.29857421 0.00263792 0.00577972 0.00071126
H -0.09932351 8.79095637 2.78754680 -0.00429575 -0.00588745 -0.01084453
H 2.73591513 3.73219298 3.14943460 -0.02455734 0.00644755 0.01238222
H 5.48700224 0.91548664 9.23135491 -0.00802214 0.00433737 0.00378938
H 2.35473440 5.51114582 8.89510034 0.00859513 0.02683688 0.00159211
H 5.82306193 8.06243282 0.43526576 -0.00156780 0.02943404 0.00014546
H 3.78232900 3.26528931 5.13212614 0.00018916 0.02385302 -0.00484975
H -0.23800503 1.49102142 11.18952207 0.02301602 -0.00013494 0.03670075
H 1.24667737 6.52704954 7.17939588 0.01627551 -0.01389515 -0.01383610
H 3.86800881 7.13377560 10.72815755 -0.00500949 0.00296556 -0.01182539
H 3.82800567 1.75782630 7.20156063 0.01269255 -0.01920758 -0.02405227
H 1.38126882 2.77365439 1.16958562 0.01238129 0.00143103 0.01000580
H 1.44361217 7.68576049 4.98816932 0.03840604 0.00653961 0.03262173
H -1.97585756 5.40007294 35.38391076 -0.00241347 0.00733801 0.00120055
H -0.22149632 0.46808090 5.97590428 -0.00417854 -0.02085597 0.00347972
H 2.43302470 4.56390823 11.86978232 0.01097932 -0.02023198 -0.02668734
H 5.57231162 8.58823665 5.84758022 -0.00784781 0.01020795 0.01803057
H 2.68372738 6.85175868 1.71778449 -0.00838295 -0.01601255 0.02365475
H -0.09639384 1.92121773 4.14005183 -0.00445104 -0.01488543 -0.00807304
H 2.63424946 2.85436541 10.00672856 0.01568528 -0.00536551 -0.00180755
H 5.40477472 7.10012058 7.80954999 -0.00299347 -0.00804327 -0.01413441
H 4.66128222 5.32634930 9.61182382 -0.00517183 -0.00932284 -0.01814409
H 2.84734197 0.16465267 8.22357935 -0.01109377 0.00218014 0.01375046
H 0.43019004 4.59999858 2.17351799 -0.01116160 0.01904480 0.01043094
H 2.35916808 9.33488493 3.83166447 -0.01052969 -0.00244768 -0.00511985
H 7.51516339 3.93746609 7.62188821 0.00864915 0.00379748 -0.01403377
H 2.59155779 9.15529264 10.23443743 0.00741107 -0.00801650 -0.00362013
H -0.02038820 5.84739804 3.81894663 0.01022188 -0.02564929 -0.03911429
H 3.16719382 0.79756568 1.51383822 0.00152024 -0.00953556 0.00830047
H -0.67705670 2.65192427 8.28896337 0.00609546 -0.01784351 -0.01139450
H 1.03426484 8.41699120 10.43904861 0.01782226 0.00758020 0.00755871
H 4.67857957 5.71680917 4.34719059 -0.02570881 -0.00174798 0.00320573
H 4.72139316 1.31745051 1.77747323 0.02694670 -0.02853978 -0.00386521
H 0.93414578 3.39918956 7.69948509 -0.01590048 0.01810478 0.01603978
H 1.25811414 10.24846917 10.66835610 -0.00473864 0.00255178 0.00904639
H 6.30549647 6.27549133 3.98947775 0.00642598 -0.03870106 0.01878171
H 4.62255593 28.78256636 1.06320038 0.03346441 -0.02446732 0.00656272
H -1.79015430 9.07886631 14.44286409 0.01552964 0.00073850 -0.02840109
H 1.11459854 4.37712781 14.88207438 -0.00810805 0.00149042 0.00812829
H 3.93207464 0.81083569 20.94270944 0.01050800 0.01475643 0.00069310
H 1.00480934 5.58418498 20.31600981 0.01196247 0.00154149 0.01897839
H 3.94525068 8.35585203 12.92009385 0.00585986 0.00001322 0.01049123
H 2.20141081 3.74994465 17.06432680 -0.00038386 -0.01280938 -0.02570439
H -2.24640387 1.07872493 23.31055940 0.01051394 -0.00456488 -0.01712974
H -0.24815595 6.60319335 18.42954115 0.00321737 0.01585254 0.00296051
H 2.35920839 6.61253960 22.73321255 0.00703669 -0.00199270 0.00483904
H 2.21584467 2.23979722 18.87882224 -0.00518165 -0.02632026 0.00064310
H -0.31389795 2.92218167 12.96019222 0.01846426 0.00830277 -0.01570957
H -0.30078150 8.30204754 16.83802887 0.01044433 0.00709719 -0.00894535
H 1.02050203 5.33357072 11.78604655 0.02273286 0.00907477 -0.00371191
H -1.70863611 0.87092731 17.71251061 -0.01811356 -0.00240751 0.02362744
H 0.87568612 4.04535519 24.11523819 0.00361616 0.00940115 -0.02689650
H 3.83190738 9.11962059 17.46900428 0.00025597 -0.01547564 0.03573912
H 0.79401785 6.92964318 13.63657502 0.00559675 -0.00073147 0.01618292
H -1.74148623 2.44829454 15.91471038 0.00920758 -0.01361068 0.02441855
H 0.86455609 2.14478681 22.28070878 0.02237817 0.01505771 0.01224661
H 3.86643154 7.62482239 19.46669485 -0.00588926 -0.04251791 -0.01743009
H 3.45807634 4.90108193 21.48306754 0.01129160 0.00140653 0.00284946
H 1.35553777 0.34400103 19.84344005 -0.00828207 0.01228289 -0.01592619
H -1.36419489 4.67124090 14.11025987 -0.02042837 -0.00685139 0.01176904
H 0.72715554 9.62935014 15.61160850 0.01108625 0.00662751 0.00776877
H 6.00594494 2.94096596 20.20470876 0.01889511 -0.03025139 -0.00002299
H -1.47338197 7.62319188 21.45550186 -0.00532531 -0.01463527 0.02943910
H 17.22549334 5.65422074 16.53285443 0.02458323 0.00786157 -0.01265319
H 2.19436014 0.53732116 13.26574032 0.01101359 -0.01719346 0.00609315
H -1.68594997 2.84316427 19.91128565 0.00816988 0.00629561 -0.00011994
H -0.63700706 8.68866737 22.42568116 -0.01293670 0.00576226 0.01507519
H 4.81155992 6.21609294 15.80775219 -0.00831636 0.01111705 -0.01424831
H 1.94432042 1.95906166 14.34351576 -0.01592288 -0.01135031 -0.02231455
H -1.18433961 4.19813871 18.97484550 -0.02219302 -0.00581695 0.02205479
H 0.31532235 7.79855520 21.40323574 -0.02700356 -0.02169247 0.00790047
H 3.29383217 7.24314462 15.65441556 0.00371297 -0.01428190 -0.01909539
H 3.61774845 1.61567319 13.65707398 -0.00591683 0.00912530 0.00537313
H -3.12641691 8.91988545 26.37760185 0.01163250 0.02230038 0.01348013
H -0.59908175 3.94064291 26.95702060 -0.00401446 -0.00848758 -0.00330117
H 2.37575321 0.70811624 33.13874422 0.01294899 -0.00376609 0.03038384
H -0.53703012 5.46338242 32.69355696 -0.02027708 0.00485044 -0.01523423
H 2.28875447 7.93347496 24.78081292 0.00791633 -0.01574555 -0.00900008
H 0.58343275 3.38022703 29.03645459 -0.00882293 0.01499388 -0.00358519
H -3.64878747 0.92103678 35.20798411 0.00620584 0.00345864 0.01198433
H -1.62177042 5.97383590 30.63245259 0.00851313 -0.01212271 0.00321033
H 1.05820826 6.47831655 34.39247121 0.00681833 0.00509503 -0.01592185
H 0.61923618 1.84334324 30.97485947 -0.01136986 -0.00594625 0.01948240
H -2.02708276 2.76581382 24.86494459 -0.02675161 0.01086400 0.00281915
H -1.63679798 7.66536752 28.72858712 0.02177240 0.00069966 -0.00158605
H -0.22269970 5.42312070 23.48008308 0.00197878 -0.02774375 0.02381028
H -3.12862386 0.24879835 29.92954720 0.00246238 -0.01467155 0.01518832
H 4.08985549 4.13549518 0.09741445 0.00646318 -0.00410279 0.00818269
H 2.27754386 8.80474388 29.71527308 -0.00922927 -0.03731861 -0.00814388
H -0.35323649 6.90552515 25.38808609 0.00765767 -0.00691175 0.00724465
H -3.36506742 1.82900877 28.11327141 -0.02708223 -0.02317991 0.00882622
H -0.67819608 2.44283859 34.08609546 -0.02141654 -0.00052417 0.01475474
H 2.29350920 7.48400177 31.73270737 -0.01299544 0.00109779 0.03546915
H 2.16348446 4.34022479 33.73704403 0.03051581 -0.02118120 0.01457037
H -0.16314822 28.95972495 31.90218370 -0.00735034 -0.01437365 -0.00360051
H -3.02505082 4.58072621 26.15938770 -0.00297991 -0.01012478 0.00434522
H -0.91514158 9.43068143 27.83219644 0.04797793 -0.00772463 0.03065442
H 3.63050091 2.37255154 32.31272656 0.00877480 -0.01366148 -0.00146518
H -1.40867397 8.83550105 34.17076338 0.00405045 -0.02663635 -0.00158751
H 16.21282413 6.92037392 26.84219996 -0.02507717 0.01821692 -0.00943097
H 0.84764061 0.83668444 25.07343473 0.04251278 0.00988702 -0.00517382
H -2.81799804 3.62269677 31.21198926 0.00772554 -0.02314170 0.01331450
H -1.62433505 7.35903105 33.40310847 -0.00482962 -0.01742385 0.00189650
H 3.16015206 6.17261001 27.48892169 0.01033224 0.02213787 -0.02693651
H -0.04437459 1.57827704 26.36626980 0.00806878 -0.02202043 -0.00127629
H 16.18774071 3.15414313 31.94512321 -0.00227467 0.02906830 -0.00363496
H -3.14810082 8.22829652 33.85614295 -0.00623004 0.01037872 -0.00031186
H 1.46329296 6.64191028 27.39503947 -0.01906678 0.01253836 -0.00469221
H 1.68401063 2.01868974 26.22383910 -0.00698912 -0.00871856 -0.01389204
H -0.32342002 18.47534122 2.64383535 -0.01262822 -0.03091335 -0.01134310
H 2.70871352 13.43069709 2.86524594 0.00091699 0.00561327 0.01349372
H 5.62270348 10.61042790 9.53126854 0.00382163 -0.01242737 -0.03696445
H 2.55712480 15.21558059 8.60134199 0.01031633 -0.00262437 -0.02586709
H 5.64772080 18.24926429 0.39352916 0.01591369 -0.00707220 -0.01059361
H 3.99925578 12.71732300 4.97397482 0.02748805 0.00337569 0.01113862
H -0.19782088 11.11587077 11.16179091 0.03294029 -0.01289964 -0.00615795
H 1.30060903 16.08880586 6.63127051 0.02293988 0.01410319 -0.00714797
H 4.18301084 16.69326655 10.55566871 -0.00696048 0.01557962 0.00620701
H 3.93681661 11.47421680 7.10372450 0.00661122 0.01952576 0.00871594
H 1.24707521 12.38986963 1.23154187 -0.02407991 -0.00419563 0.00302081
H 1.35491394 17.37291293 4.70727926 0.00446307 0.02041777 0.00824075
H 2.62847004 15.01185067 0.01037227 0.00540801 -0.00280332 0.00451610
H -0.06590088 10.09633761 6.29436769 0.01045977 -0.02350975 0.00529300
H 2.51305121 14.34962351 11.94947904 0.01128700 -0.00303369 -0.00974299
H 5.42950954 18.56954099 5.47015460 0.01441400 -0.03073510 -0.00191850
H 2.64969815 16.67582606 1.62175685 0.00622037 -0.01105122 -0.03548409
H -0.01028139 11.51834666 4.12173005 0.00310176 -0.00401755 -0.00969410
H 2.48036082 12.53624785 10.33224419 -0.00934093 0.03861532 0.00398217
H 5.46173421 16.98655683 7.32930101 0.04066143 -0.00974644 -0.01823282
H 5.04966220 14.88952976 9.49583460 -0.00433283 0.00179076 0.00307667
H 3.10013965 9.59495089 8.16178182 0.00229431 0.00225910 -0.02815052
H 0.22161273 14.20694096 2.43691158 0.00406288 0.00559233 -0.00781533
H 2.24177653 19.41778725 3.63724043 0.00478467 -0.00117035 0.01917558
H 5.83644210 12.69070418 8.67984169 -0.00911287 -0.00330715 0.00829575
H 2.07755769 18.25348650 10.11421509 0.00670372 0.01459905 -0.01197383
H 18.19945689 15.54840105 4.42726868 -0.01532984 -0.00397113 0.00351262
H 2.96835444 10.60303261 2.29714134 -0.01910710 0.01109106 -0.02002855
H -0.94305939 13.93301644 7.89085094 -0.02652359 -0.02314957 -0.01474409
H 1.09745928 16.99586129 9.33538678 -0.01080141 -0.02084892 0.00178372
H 4.85298108 16.90796014 2.91007183 0.00067988 0.00896755 -0.01095797
H 4.60550191 11.28037608 2.20718018 0.00359588 -0.01168287 -0.00239630
H -0.60112144 12.39492542 8.58929078 0.00352337 -0.01482294 -0.02399931
H 0.35777680 18.16673941 10.45929880 -0.00831501 0.01838471 -0.01638861
H 4.39824208 15.65882674 4.02972259 0.01457499 -0.00638467 -0.02030841
H 4.23144193 9.65346349 1.34786177 -0.01466097 0.00880614 0.02321555
H -1.77991124 18.59401467 14.80325872 -0.01071856 -0.00002376 0.00601072
H 1.48276537 13.85401657 15.17021301 -0.02352537 0.00903848 -0.00948435
H 3.97356412 10.52461028 21.40112236 -0.00714342 0.01873525 0.01168774
H 0.92925128 15.16167876 20.20445280 0.00469953 -0.00773956 0.02208519
H 4.28369559 18.42187312 12.28213755 -0.00522784 -0.00929872 0.00638572
H 2.17400499 13.51230897 17.57665784 0.01951177 0.01312687 0.00793689
H -1.97817274 11.15206114 23.12954030 0.00649762 0.01171702 -0.01200963
H -0.11698779 15.68749423 18.10484860 -0.02895605 0.01526210 0.01637978
H 2.54022380 16.28785729 22.47048545 -0.00151490 -0.00649151 0.01081565
H 2.40533981 11.49746400 19.11575687 -0.00299294 0.00061181 -0.01986126
H -0.15966400 12.91598169 12.99885437 -0.02298011 -0.00206185 0.00539162
H -0.19150809 17.70312336 16.67633734 -0.00338784 -0.02660154 0.01243842
H 1.22231919 15.30155227 11.84473933 -0.00031275 -0.02133294 0.00040353
H -1.63490003 10.39041102 18.00782118 0.00339746 0.02136903 0.03204953
H 0.96952167 13.92045266 24.05442584 -0.00299326 0.01949394 0.01306660
H 3.77556032 18.86506814 17.71955486 -0.02843828 0.00953410 0.01440826
H 1.00196657 16.86174220 13.63235906 0.00148693 0.00221473 0.00593159
H -1.53420532 11.75455971 16.09765861 -0.00892994 -0.01760659 -0.00977946
H 0.95523326 12.48984260 22.28288893 -0.02319994 -0.00983972 0.00443053
H 3.67531697 17.22816408 19.45180682 0.01975314 0.00171720 0.00307202
H 3.46611859 14.63810222 21.31699069 0.01318453 -0.01627462 0.00605299
H 1.35580415 9.71646164 20.16482988 -0.03567454 0.01148102 -0.00210178
H -1.36011538 14.54535842 14.07726844 -0.00700956 0.00433277 0.00571221
H 0.86958880 19.75332411 15.75466080 0.01355405 0.00211791 -0.01631525
H 3.97370817 13.48999976 19.84463483 -0.00720708 0.02059190 -0.01790614
H -1.24007526 18.36404091 22.10572066 -0.00030768 -0.00364652 0.02274221
H 17.28637929 14.91694165 16.67673902 0.00544599 0.01898151 -0.00070755
H 2.75176031 12.04196935 14.30828305 -0.00999614 -0.01206468 0.00407150
H 17.68437134 12.89552114 20.45082360 0.00655880 0.00001491 -0.00423465
H 0.37568657 17.71740509 21.70374233 0.01880185 0.00158085 -0.02471223
H 4.54774145 15.49039531 16.40983173 -0.00305609 -0.01458314 0.00886748
H 2.86031116 10.78818411 13.14673031 -0.00075722 -0.02079469 -0.02869175
H -1.15394017 12.22817997 20.56819297 -0.00518682 -0.01519937 0.02512589
H -1.07049410 17.11466891 20.89081349 0.00013676 -0.00447457 0.05206274
H 4.08200773 16.91133622 15.44530928 0.00945632 -0.05767904 0.01296255
H 1.30844610 11.03250739 13.92864108 -0.00809718 0.02401917 -0.01351061
H -3.05033699 18.67417992 26.44350809 -0.00453881 -0.00218659 0.01013023
H -0.51541942 13.98287263 27.47252047 -0.00136613 0.01251534 -0.01830249
H 2.36537736 10.38737842 32.91064162 -0.00661798 -0.00104056 0.00717053
H -0.50556681 14.98786097 32.09689254 -0.02674397 0.00795239 0.01360226
H 2.45998025 17.82232642 24.34988213 -0.00056168 0.01705881 0.01267301
H 0.79047218 12.80467897 29.20570650 0.00836360 -0.01484780 -0.00401742
H -3.35322292 11.08815992 35.04294677 -0.02231459 -0.02883202 0.02500358
H -1.61989401 15.86160830 30.34474127 -0.00323209 -0.02715301 0.00922520
H 0.80713633 16.53113851 34.16946839 -0.00864739 -0.00010927 0.00357512
H 0.77164404 11.20000847 30.99495495 0.00907418 0.01226052 0.01456546
H -1.87991073 12.76043776 24.80875223 0.06025888 0.01526333 -0.01056992
H -1.52823667 17.44458623 28.28255747 0.02335781 -0.01813159 0.02746937
H -0.43271115 15.01844230 23.59616115 0.01328552 0.01356961 -0.00937766
H -3.33454210 10.15630301 29.81376428 -0.02560361 0.00617342 0.00727320
H -0.52669886 14.15431084 35.64002825 -0.02854947 0.01199006 0.01396402
H 2.27235090 18.85212189 29.70614946 -0.00574392 -0.00481774 -0.03665215
H -0.23490798 16.36461908 25.48490409 0.01722858 -0.00278225 0.00486529
H -3.32572419 11.62544240 27.99446649 0.00996261 -0.02999162 -0.01935366
H -0.60909447 12.47242856 33.72178281 0.00259947 0.01125245 0.02835801