2880
Time=95999.99999999 pbc="T T T" Lattice="39.42615492 0.00000000 0.00000000 0.00000000 29.10285115 0.00000000 -12.02614371 0.00000000 24.39417774" energy=-18395.93142778 virial="-15.42134018 3.26485409 -34.17901558 3.26485409 -43.59410086 -10.38902590 -34.17901558 -10.38902590 -24.21608799" stress="0.00194609 0.00006191 -0.00118221 0.00006191 0.00089160 -0.00038781 -0.00118221 -0.00038781 0.00159634" Properties=species:S:1:pos:R:3:vel:R:3
C 3.30087132 3.77222429 5.26381570 -0.01058338 0.00340372 -0.00522530
C 0.38639880 8.52674419 1.01964723 0.00181748 -0.00029813 -0.01038223
C 6.89753113 5.98999731 1.08234797 -0.00341115 -0.00332929 0.00086896
C 9.71687557 0.98823706 5.02491172 -0.00068778 0.00245235 -0.00150511
C 4.51685876 3.64996249 4.59327159 -0.00003614 0.00483608 -0.00361907
C 12.18531428 8.65217058 1.81086082 -0.00377905 0.00252557 -0.00076211
C 5.76600887 5.95187158 1.80795422 0.00476611 0.00744091 0.00676003
C 37.18710914 0.88760833 4.30935080 -0.00254025 -0.00277703 0.00102063
C 5.43327911 2.75152771 5.10995273 0.00273756 -0.00804867 0.00120850
C 11.20445345 7.84756800 1.34929951 -0.00849836 -0.00077333 0.00019729
C 4.74131134 6.83435718 1.46523792 0.00136399 -0.00404885 -0.00112014
C -1.25804089 1.73643220 4.71048275 -0.00620649 0.00163517 -0.00054736
C 5.26293567 1.96486407 6.25040157 -0.00616404 0.00216276 -0.00444609
C 11.42008297 7.07029938 0.20324982 0.00350750 -0.00349239 -0.00226979
C 4.80002613 7.73647773 0.31270889 0.00159504 0.00331499 -0.00184664
C -1.43418143 2.65049028 5.76983029 0.00212342 0.00364419 -0.00369773
C 7.18819902 2.03910537 0.67147045 -0.00068879 0.00448597 0.00355795
C 9.68095330 7.06747626 5.48777414 0.00313137 0.00637072 -0.00000775
C 3.35943137 7.61089004 5.75680854 0.00279314 -0.00033726 -0.00277619
C 0.30393867 2.99285736 0.35135911 -0.00120263 0.00673248 0.00114262
C 6.16993529 2.88905676 0.20802572 -0.00339208 -0.00332283 0.00064420
C -2.53312251 7.70282668 5.96540328 0.00316179 -0.00700917 -0.00647141
C 4.32807996 6.72786461 6.22223407 -0.00878458 -0.00925546 -0.00238336
C 12.70547872 1.96791578 0.14289931 0.00060079 -0.00578726 0.00257315
C 2.08221291 5.04820219 3.64192763 -0.00785969 0.00084886 -0.00821779
C 1.69268018 0.20283367 2.38789307 -0.00100152 0.00379591 0.00542552
C 8.31943810 4.58988546 2.45104674 0.00338610 -0.00262590 -0.00732254
C 8.44663745 9.51046829 3.81086957 0.00033482 -0.00269932 0.00065262
C 0.84846834 5.89980957 3.50471218 -0.00338469 -0.00206147 0.00186614
C 2.96084697 0.97016214 2.55345633 0.00258586 -0.00171846 -0.00815390
C 9.62303042 3.76818675 2.44113697 -0.00256622 0.00484825 0.00390413
C 7.24041697 8.56142589 3.56560955 -0.00022051 -0.00247778 0.00439263
C 0.11910838 3.92974381 11.48008053 0.00127034 -0.00305549 0.00266450
C -2.78003641 8.58480990 7.04462564 0.00099200 0.00118334 -0.00001349
C 4.11712347 5.99884041 7.37854497 0.00716734 -0.00074965 -0.00013138
C 6.69988193 1.22702091 11.31693857 0.00423150 0.00145930 -0.00140816
C 1.42402288 3.75824897 10.83417445 0.00100067 -0.00197421 0.00104052
C 9.30223269 8.57324419 7.73908480 -0.00746025 -0.00443691 -0.00053592
C 2.82065915 6.02159303 8.00181820 -0.00289156 -0.00218884 -0.00618064
C 34.11861050 1.33083342 10.44355437 0.00903905 0.00206348 0.00719781
C 2.34568744 2.79018097 11.21908006 -0.00032569 -0.00574710 0.00217346
C 8.29880321 7.71883936 7.30639260 -0.00057457 0.00044922 -0.00060867
C 1.84767079 6.77444358 7.44287792 0.00027530 0.00378456 0.00905756
C -4.35383704 2.07477041 11.03119420 -0.00309833 -0.00217674 0.00512930
C 2.13490512 2.07067151 12.44060377 0.00104502 0.00448726 -0.00277242
C 8.49777378 6.83616603 6.22163983 -0.00848322 0.00830839 0.00256418
C 2.11022933 7.68006586 6.31900540 0.00028297 -0.00156945 0.00028621
C -4.53108208 2.88789875 12.15228996 -0.00650479 0.00015550 -0.00182636
C 4.07305923 2.20632231 6.95132323 -0.00181485 -0.00627109 0.00235854
C 6.62114945 6.96566860 11.54931730 0.00064447 -0.00436048 0.00454214
C 0.20621104 7.62081381 11.73247213 0.00434223 -0.00173921 0.00084369
C -2.69403090 2.75852010 6.28292638 -0.00207899 0.00764645 0.00150562
C 3.12349467 3.03412618 6.42655871 0.00195475 -0.00474235 0.00658874
C -5.39339367 7.77776073 12.00054569 -0.00217495 -0.00054503 0.00420089
C 1.20095126 6.86396492 12.24893680 0.00292226 0.00291146 0.00420136
C 9.47248661 1.80849986 6.18404607 0.00442836 -0.00439713 -0.00076215
C -1.03636702 5.10897576 9.68482677 -0.00024787 -0.00488922 0.00797716
C -1.38128102 0.35621801 8.62880233 0.00031439 -0.00091602 -0.00049068
C 5.19049437 4.46731934 8.86519416 0.00370878 0.00022756 -0.00629878
C 5.77917172 9.43586885 9.59186881 -0.01018314 -0.00949519 0.00482450
C -2.38142807 5.76660702 9.45973022 0.00011759 -0.00716805 0.00485478
C -0.27026028 1.41891459 8.86612905 -0.00043724 0.00438029 0.00549646
C 6.45599368 3.74770302 9.15382979 -0.00873627 0.00552266 -0.00068724
C 4.70700016 8.40995169 9.35866331 0.00185775 0.00101631 0.00396354
C -2.81561248 3.64156395 17.39385012 0.00302737 0.00544684 0.00450806
C -5.56907839 8.59224412 13.16014223 -0.00167716 0.00216926 -0.00331555
C 1.01331259 6.02521694 13.34642433 -0.00180368 -0.00545699 0.00026742
C 3.88350395 1.30153029 17.40193958 0.00270419 -0.00066041 -0.00153914
C -1.64707981 3.47714232 16.69789798 0.00062109 0.00141209 -0.00678418
C 6.25340040 8.61443178 13.71215546 0.00659973 0.00231003 0.00172079
C -0.23681988 6.08145165 13.97607841 0.00081489 -0.00028109 0.00297462
C 31.23469982 1.21317357 16.54572262 0.00012780 -0.00091858 -0.00344792
C -0.66413869 2.55271289 17.04237405 0.00013857 -0.00756459 -0.00144419
C 5.32091779 7.71422616 13.40128057 -0.00275038 0.00718337 0.00348574
C -1.24023968 6.93331445 13.50260448 -0.00270072 -0.00885534 0.00098192
C -7.20334125 2.11014222 16.87145378 -0.00809135 -0.00128487 0.00635211
C -0.81265718 1.79811254 18.20027165 -0.00190900 0.00675869 0.00336085
C 5.43336940 6.87905020 12.24341313 0.00196317 -0.00216119 -0.00501897
C -1.02190214 7.78132763 12.37832214 0.00175401 -0.00692479 0.00184535
C -7.23694236 2.80972837 18.08769635 -0.00216262 0.00361719 0.00693812
C 0.91274500 2.25406899 13.08093265 -0.00398390 0.00499665 -0.01026172
C 3.75772886 6.81124555 17.82104088 0.00247614 0.00205130 0.00062310
C -2.60927622 7.47982714 17.86057571 -0.00493900 0.00036216 0.00347358
C -5.78555321 2.86380074 12.71692698 0.00310736 -0.00090944 -0.00551489
C -0.06367876 3.10813017 12.62518439 -0.00750140 0.00376638 -0.00178352
C -8.48862798 7.84313737 18.09596006 0.00109139 -0.00359894 -0.00342382
C -1.63118518 6.69339904 18.37140859 0.00030471 -0.00488596 -0.00793512
C 6.62444717 2.00507468 12.48998231 -0.00423730 0.00152508 -0.00421461
C -4.05414959 5.04187853 15.85128307 0.00417273 0.00331224 -0.00467464
C -4.61677966 0.40925355 14.61073913 0.00646976 -0.01745542 0.00122997
C 2.29793645 4.66094611 14.96245903 0.00203276 0.00044083 -0.00469528
C 2.46341276 9.40388285 15.68429104 0.00662452 -0.00684803 -0.00310595
C -5.31732926 5.87465300 15.71718482 0.00296746 -0.00490503 -0.00101582
C -3.46073951 1.35382652 14.66923340 -0.00666213 -0.00376343 0.00363220
C 3.52640191 3.84659674 15.21610971 0.01006338 0.00515876 0.00301906
C 1.16146254 8.65861664 15.45606777 0.00087457 0.00067964 -0.00276042
C -5.78744186 3.64296274 23.42738119 -0.00825613 0.00290611 -0.00320872
C -8.67114154 8.68966909 19.20883864 -0.00980640 -0.00538174 -0.00454048
C -1.86833631 5.83685212 19.43735568 -0.00093998 0.00664833 -0.00024727
C 0.86138062 1.02409174 23.49839045 0.00697535 -0.00136439 -0.00019883
C -4.58745110 3.44999042 22.66671202 0.00396799 0.00028294 0.00090361
C 3.20684541 8.61314867 19.97916229 -0.00264908 -0.00302312 0.00224660
C -3.06947567 5.98501914 20.13206661 0.00431056 -0.00260279 0.00233094
C 28.11140621 1.34138450 22.48161685 0.00388634 0.00180697 -0.00219049
C -3.60353196 2.58319229 23.10998892 -0.00456663 -0.00045162 0.00026122
C 2.20356931 7.76370106 19.54308153 -0.00104610 -0.00056324 0.00051100
C -4.10601917 6.79309482 19.63965694 -0.00819825 0.00956967 -0.00758323
C -10.34509599 2.18735212 22.96932723 0.00131046 -0.00294216 0.01105657
C -3.73194016 1.87622530 24.25614471 -0.00246299 0.00252364 -0.00013563
C 2.43834430 6.84991917 18.42518658 -0.00280938 0.00713096 0.00344452
C -3.85318081 7.54719260 18.48209459 -0.00277376 0.00161183 -0.00790814
C -10.45236708 2.95482131 24.15888854 0.00096236 0.00149287 -0.00404543
C -2.01964624 1.98018068 18.91026353 -0.00553321 -0.00059019 -0.00463376
C 0.65865211 7.07926777 23.97516551 0.00687673 -0.00385410 0.00147400
C -6.04429238 7.69422129 23.98942611 0.00255944 0.00572194 0.00984837
C -8.52323789 2.79938512 18.71359023 0.00423740 0.00636578 0.00371785
C -2.99314302 2.87678143 18.52777048 -0.00181273 -0.00260449 0.00122971
C -11.42729973 7.73781868 24.23408056 0.00173868 0.00611216 -0.00748661
C -5.03920860 6.79969672 24.37594948 -0.00317257 -0.00461955 0.00493638
C 3.66451058 2.13005757 18.53502967 0.00920182 0.00238892 -0.00201977
C -6.87172349 5.12989977 21.86399113 -0.00476813 -0.00231887 -0.00282029
C -7.44944847 0.23835365 20.67115396 0.00051595 0.00112461 0.00670271
C -0.41289031 4.64208078 20.91887565 0.00625299 -0.00494435 0.00691842
C -0.43078331 9.30311834 21.83093402 0.00103173 -0.00279928 0.00137219
C -7.92120973 6.21312155 21.65387387 0.00046094 0.00097120 0.00562402
C -6.22196751 0.99176078 20.71864097 -0.00913761 0.00030600 -0.00772617
C 0.73968820 3.72786447 21.09299056 0.00910360 0.00270074 0.00167347
C -1.58528349 8.38943345 21.62376190 0.00180599 0.00585914 -0.00289842
C 3.03569337 13.50060599 5.21033966 -0.00264092 0.00244967 0.00690973
C 0.61262311 18.22335019 0.82443669 0.00023044 0.00002958 0.00071359
C 7.09562252 15.48190344 1.11954750 0.00299834 0.00191640 0.00387552
C 9.62704439 10.90367363 5.42610682 0.00229031 -0.00214063 0.00452401
C 4.34415490 13.49992300 4.64944926 0.00027545 0.00218958 0.00546736
C 12.20797728 18.15834861 1.71167261 -0.00511984 0.00342590 0.00541313
C 5.85743738 15.63558554 1.73179270 -0.00225752 0.00116632 -0.00270156
C 37.23800655 10.92877567 4.26044244 -0.00010669 0.00258404 -0.00027496
C 5.40371766 12.72324404 5.04091393 -0.00184599 -0.00234307 0.00045655
C 11.40927566 17.12024001 1.27088459 -0.00222329 -0.00098255 0.00201376
C 4.96378885 16.52223110 1.17718757 0.00431510 0.00197588 -0.00061441
C -1.20035957 11.79532200 4.73585318 -0.00075287 0.00595025 0.00519043
C 5.21485762 11.87244707 6.16463813 0.00244163 -0.00070157 -0.00121023
C 11.60691312 16.43707869 0.04762660 -0.00174110 0.00142472 -0.00118072
C 5.21793698 17.28608296 0.03618635 0.00578769 -0.00687372 -0.00344881
C -1.42482688 12.57767295 5.84191371 0.00067587 -0.00162662 0.00086968
C 6.96786203 11.80390096 0.64553010 0.00110240 0.00108620 -0.00053521
C 9.73206412 16.51974639 5.67460037 -0.00590820 0.00473564 -0.00537778
C 3.11557733 17.54868016 5.41002700 -0.00453323 -0.00068204 0.00044613
C 0.56557277 12.51647962 0.59223479 -0.00578375 -0.00331315 0.00136661
C 6.00019710 12.66267610 0.17468516 0.00605532 0.00340365 -0.00215548
C -2.37335214 17.29410518 5.90222472 0.00309861 -0.00242238 0.00183474
C 4.13582337 16.76429321 5.97340384 0.00211785 0.00696689 0.00305113
C 12.41025476 11.59968950 0.17103581 0.00223209 0.00653334 -0.00141352
C 2.02976912 14.89860087 3.55349199 0.00101440 0.00107390 -0.00029656
C 1.54524758 9.78958922 2.70941518 -0.00142190 0.00516793 -0.00025930
C 8.38768776 14.31944935 2.84201958 0.00093115 0.00686306 0.00277954
C 8.54284614 19.04802097 3.29031139 -0.00534823 0.00122906 0.00007941
C 0.92730894 15.89411613 3.26398492 0.00294895 -0.00599741 -0.00449325
C 2.77272754 10.61399927 3.00638579 0.00141636 0.00162907 -0.00450927
C 9.68389193 13.57319794 3.01691563 0.00874015 -0.00012090 0.00021009
C 7.20755371 18.40956978 2.89129835 -0.00271553 -0.00709997 0.00001575
C 0.02482757 13.49412350 11.13135496 0.00223910 0.00514879 -0.00485353
C -2.67105849 18.16531703 6.97376080 -0.00905760 -0.00249699 0.00023420
C 3.80291741 15.82744319 7.00515866 -0.00354093 0.00707581 0.00683745
C 6.63391315 10.94840701 11.38955128 0.00124157 -0.00156626 0.00189684
C 1.32330195 13.43549632 10.52027815 -0.00459503 -0.00696745 0.00487152
C 9.39844892 18.15133427 7.85534040 0.00322509 -0.00109640 -0.00455322
C 2.48976953 15.86062040 7.62131592 -0.00901721 0.00246505 0.00336494
C -5.12332352 10.86278254 10.60602268 0.00394192 0.00415801 0.00098998
C 2.26610628 12.58764152 10.99569538 -0.00186958 -0.00110935 -0.00275673
C 8.34650902 17.29915740 7.49518071 -0.00518307 -0.00382364 -0.00410579
C 1.64473968 16.80647780 7.09245570 0.01011209 0.00139162 0.00235167
C -4.20744100 11.81730514 11.06018713 0.00229814 -0.00976062 -0.00763651
C 2.05560848 11.67404587 12.05460162 -0.00605000 0.00558741 0.00161172
C 8.46967886 16.50558038 6.39808746 -0.00574351 -0.00237502 -0.00840356
C 1.82069975 17.58027705 5.99845314 0.01174367 0.00059857 0.00815165
C -4.37452821 12.56939811 12.21473749 -0.00050304 0.00242857 -0.00531838
C 3.93585781 11.78709705 6.75396688 -0.00542760 0.01143576 -0.00477607
C 7.01314186 16.52637500 11.56868292 0.00314434 -0.01337888 -0.00325215
C 0.41401365 17.23889779 11.51619204 -0.00377559 -0.00430612 -0.00294522
C -2.63847218 12.35863521 6.55980198 -0.00496110 -0.00503198 0.00495559
C 2.94158432 12.62179442 6.33874318 -0.00214830 -0.00674049 -0.00049479
C -5.29280654 17.48791498 11.96352412 -0.00278151 -0.00227929 -0.00337806
C 1.47711040 16.37211786 12.01804489 0.00013155 -0.00068885 -0.00230239
C 9.36784548 11.63865575 6.58765272 -0.00023031 0.00578145 -0.00938352
C -1.13564795 14.98986553 9.55498508 -0.00399221 -0.00452089 -0.00085570
C -1.39931430 9.77373466 8.65019600 -0.00197952 -0.00471902 0.00348399
C 4.93021700 14.36493239 8.57394308 0.00011768 -0.00044464 0.00135794
C 5.69792555 19.12668618 9.53772883 -0.00903009 -0.00560210 0.00502297
C -2.39278383 15.72582138 9.29553166 -0.00178304 0.00020836 0.00148454
C -0.21374926 10.66976805 9.00414072 -0.00041190 0.00771026 -0.00050762
C 6.10811710 13.46054231 8.69122160 0.00098771 -0.00867885 0.00080488
C 4.56745992 18.31701192 9.17591510 0.00424120 -0.00335411 0.00495911
C -2.95172365 13.23705871 17.18517732 0.00091648 0.00843217 -0.00249009
C -5.52515175 18.29303224 13.15504942 -0.00713630 0.00104651 0.00350405
C 1.17590765 15.54949100 13.06862912 -0.00302440 -0.00325394 0.00399526
C 3.57648629 10.81428604 17.35823201 -0.00274908 0.00160589 -0.00478829
C -1.71291997 13.11954823 16.47536970 -0.00247415 0.00483302 -0.00441237
C 6.54868061 18.18189787 13.81191419 0.01086146 -0.00625443 0.00607978
C -0.11533255 15.65166904 13.75331721 0.00123861 -0.00000395 -0.00461480
C 30.96573326 10.91193774 16.65770773 0.00165476 0.00213253 -0.00416357
C -0.78747123 12.23744715 16.97766422 0.00635923 -0.00174969 -0.00194813
C 5.60088954 17.35732402 13.30113445 0.00531549 -0.00787441 0.00125126
C -1.03544253 16.59798400 13.33502068 0.00086959 -0.00327262 -0.00558218
C -7.55032077 11.82642923 17.19161093 0.00443463 0.00103076 -0.00352802
C -0.96886054 11.44831237 18.12978346 0.00460513 0.00592067 0.00108533
C 5.75395607 16.48252970 12.22618658 -0.00973690 0.00119136 0.00088594
C -0.81380672 17.37650147 12.14777825 0.00329483 0.00065651 -0.00297981
C -7.87106277 12.72138586 18.25319516 -0.00219963 0.00045692 0.00341606
C 0.86710092 11.78550880 12.71524311 0.00645906 0.00246026 -0.00766333
C 3.81660251 16.61869177 17.57620979 0.00001208 0.00702120 0.00362195
C -2.67350858 17.19585359 17.80419617 -0.00050244 -0.00606357 -0.00634263
C -5.62056087 12.43114316 12.89396390 -0.00172168 0.00083425 -0.00071533
C -0.08496852 12.69218827 12.33383939 0.00543456 0.00322410 -0.00279219
C -8.33338507 17.27476662 18.12233368 0.00325654 0.00471044 0.00537268
C -1.77908079 16.21352407 18.21497320 0.00007131 -0.00241447 -0.00583238
C 6.36018251 11.73881673 12.51326106 -0.00370978 0.00546700 -0.00662765
C -3.98622243 14.82255793 15.58859983 -0.00842377 -0.00934913 -0.00933316
C -4.19139070 9.82751700 14.75990288 -0.00715841 -0.00338471 -0.00185292
C 2.29227023 14.24018390 14.69386485 0.00931209 -0.00231875 -0.00138120
C 2.47272627 18.94086165 15.67957841 0.00658856 -0.00378390 0.00649912
C -5.30254163 15.47028392 15.24170453 0.00467306 -0.00199605 0.00032955
C -3.01075449 10.66742787 14.98751378 0.00295676 0.00491990 -0.00363826
C 3.36866603 13.21857099 14.95939455 -0.00071487 0.00089480 0.00255536
C 1.13710757 18.28660032 15.67361426 0.00090897 0.00127093 0.00118135
C -5.90170023 13.39570662 23.38354172 0.00319266 0.00494087 0.01042779
C -8.55686533 18.17221801 19.18693006 0.00118915 -0.00603943 -0.00263154
C -2.04868034 15.48194708 19.33566719 -0.00663298 -0.00567964 -0.00708744
C 0.62670409 10.79772703 23.46890587 -0.00003646 0.00305352 0.00118750
C -4.69942849 13.17848583 22.65723176 -0.00504255 0.00264694 -0.00593147
C 3.38448874 18.13044785 19.91116254 0.00697488 0.00280877 0.00282996
C -3.30084232 15.62058346 19.92730915 0.00656843 -0.00585264 0.00022875
C -11.08686129 10.83372501 22.78657206 0.00115522 0.00462670 -0.00778144
C -3.72288487 12.30420819 23.07085244 -0.00011477 0.00083986 -0.01052968
C 2.47374478 17.19556844 19.54243222 0.00752961 0.00329988 -0.00045023
C -4.23828890 16.51994884 19.47040989 -0.00226152 -0.00882246 0.00187649
C -10.14045748 11.68492911 23.19450272 0.00132896 0.00010983 0.00829106
C -3.86622330 11.62762358 24.30733409 0.00070059 -0.00964040 0.00113387
C 2.76477330 16.42382718 18.41059998 0.00175578 0.00059245 0.00045344
C -3.92200517 17.35404538 18.37243580 0.00009624 -0.00399462 0.00014698
C -10.24085003 12.51044544 24.37366049 0.00382771 0.00275470 -0.00486634
C -2.20005838 11.55478421 18.74090908 -0.00024220 0.00035784 0.00160526
C 0.72822457 16.70476111 23.68854905 -0.00099823 0.00546637 0.00342254
C -5.54048352 17.17218443 23.88848269 0.00267974 0.00572599 -0.00755746
C -9.07394606 12.51299435 18.88726032 -0.00131759 -0.00276762 0.00084768
C -3.22791759 12.34787140 18.21675134 0.00611775 0.00199174 0.00506540
C -11.29836017 17.30369629 24.16683224 -0.00612654 0.00485128 -0.00289341
C -4.61499912 16.22270031 24.35640653 -0.00303153 -0.00394057 0.00591268
C 3.31977187 11.71753860 18.40126973 -0.00086524 -0.00555307 0.00022516
C -7.12788784 14.91337740 21.79019979 0.00049268 0.00066753 0.00242050
C -7.35107589 9.74486627 20.94497689 -0.00328840 -0.00132307 -0.00661584
C -0.93588213 13.99599173 20.92353475 0.00011638 -0.00217154 0.00070804
C -0.43956842 18.89439934 21.53625830 -0.00274054 -0.00254208 -0.00020335
C -8.38955009 15.69089635 21.51332399 -0.00713931 -0.00079204 -0.00133446
C -6.30315461 10.75340643 21.15953570 0.00102691 0.00446747 0.00057579
C 0.31344988 13.21342900 21.14342378 0.00093544 -0.00040574 0.00174410
C -1.76749639 18.20389048 21.44636579 -0.00739668 -0.00461184 0.00416965
C 3.42170107 23.39347612 5.10311621 0.00008936 -0.00485326 -0.00187687
C 0.38153584 27.95413332 0.83545479 0.00139513 -0.00014364 -0.00249736
C 7.04995780 25.38410798 0.81848876 0.00120458 -0.00227570 -0.00084400
C 9.58034292 20.40124853 4.99542323 0.00175218 -0.00006939 -0.00425972
C 4.64270504 23.37325651 4.44357680 0.00212123 0.00358240 0.00384074
C 12.50294457 27.88821980 1.70462791 0.00323092 -0.00449233 -0.00254065
C 5.80141473 25.36395525 1.49652830 0.00114086 -0.00035530 0.00087372
C -2.16526450 20.54908477 4.43406566 -0.00307709 0.00592371 0.00351204
C 5.61555801 22.49436435 4.89284932 -0.00120524 0.00238265 -0.00112723
C 11.57420909 27.04990483 1.21191758 -0.00388182 0.00405380 -0.00733394
C 4.83514764 26.24970474 1.15212540 -0.00271924 -0.00002284 0.00061461
C -1.08886393 21.32996592 4.89041578 -0.00349216 0.00469867 0.00047328
C 5.26198030 21.55727646 5.94597994 0.00062739 0.00507334 -0.00361340
C 11.84104827 26.17854009 0.12576661 0.00027418 0.00198795 0.00351199
C 5.01247159 27.17042878 0.08928351 0.00380485 -0.00700492 0.00431896
C -1.38586523 22.26003618 5.97911207 0.00146006 -0.00161097 0.00129545
C 6.92858472 21.47948125 0.47025762 0.00557096 -0.00345659 0.00439794
C 9.83603371 26.40324729 5.39188811 0.00227545 0.00077043 0.00170857
C 3.42146702 27.30260797 5.67653472 0.00154300 0.00963813 -0.01072043
C 0.61414776 22.37974320 0.35999349 -0.00326415 -0.00020384 0.00180405
C -6.08986333 22.27502617 24.27257713 0.00205870 0.00377474 -0.00187939
C -2.37075602 27.32553888 5.99562679 0.00494913 -0.00014127 0.00677205
C 4.45694004 26.49541197 6.04200148 0.00746031 0.00872620 -0.00026403
C 0.38476640 21.22139552 24.25341731 -0.00108161 0.01192459 -0.00005959
C 2.27204184 24.68118361 3.40724830 0.00230197 0.01149990 -0.00162096
C 1.86656138 19.78662656 2.22833672 0.00252737 -0.00379794 -0.00939295
C 8.29068190 24.04170485 2.33421085 0.00226483 0.00031644 0.00131649
C 8.51680529 28.71980550 3.43734909 0.00087000 0.00205941 -0.00003186
C 1.04631335 25.48403821 3.24057478 -0.00406013 0.00098223 -0.00058052
C 3.11226443 20.57972257 2.41910893 -0.00710896 0.00168415 -0.00130089
C 9.48035048 23.24376075 2.51211226 0.00848750 -0.00143617 0.00822489
C 7.51577849 27.67514697 3.18478074 -0.00461588 0.00497628 0.00150118
C 0.27950934 23.22889376 11.30189707 -0.00573726 -0.00051917 0.00705589
C -2.62974626 28.20512084 6.99333148 -0.01287705 0.00081807 -0.00071836
C 4.16864825 25.52946164 7.06796428 0.00631897 -0.00269687 -0.00456119
C 6.83585696 20.52777868 11.17890911 -0.00762244 -0.00194749 0.00166981
C 1.52516635 23.25441709 10.65866109 0.00882362 0.00220334 0.00271186
C 9.43056405 27.86129716 7.66331486 0.00157533 -0.00066699 0.00457533
C 2.91345847 25.48571288 7.69438627 0.00317662 0.00193200 0.00679351
C 34.19706830 20.71188146 10.54870805 0.00199794 0.01085098 0.00309474
C 2.52145247 22.38682452 11.02026795 -0.00526549 0.00488266 -0.00014893
C 8.58399194 26.83784540 7.26598270 0.00108156 0.00207532 0.00362322
C 1.93959968 26.41872092 7.32450162 0.00074022 -0.00361846 -0.00274259
C -4.19647093 21.53179658 10.96545853 -0.00291972 -0.00112949 -0.00038333
C 2.38326486 21.55325529 12.17572125 0.00268456 0.00565021 0.00061746
C 8.60683188 26.20961464 6.03905995 0.00046946 0.00102395 -0.00354655
C 2.12280445 27.28557974 6.23303667 -0.00515873 0.00477565 0.00238655
C -4.41518524 22.38137869 12.07509081 0.00292892 -0.00433446 0.00258393
C 4.05418767 21.67153470 6.66995774 -0.00134607 -0.00451047 -0.00292078
C 6.75705001 26.32465270 11.69654045 -0.00407397 0.00303665 0.01050749
C 0.28769071 27.29140775 11.74119446 -0.00134600 0.00545229 -0.00196713
C -2.64161797 22.18702136 6.64079296 0.00580975 0.00465937 -0.00025957
C 3.14609157 22.59163002 6.20762940 0.00046024 0.00244416 -0.00700411
C -5.48825576 27.14746818 11.95633629 -0.00167626 0.00032587 -0.00102413
C 1.22352584 26.42847786 12.22138744 0.00074492 -0.00289062 -0.00282259
C 9.39449121 21.21483064 6.11598988 0.00202063 0.00381657 0.00262720
C -0.97014801 24.47671050 9.65567760 -0.00103768 0.00301372 -0.00149473
C -1.33667274 19.49452259 8.46077103 0.00329183 0.00338992 -0.00003839
C 5.39954541 24.17912581 8.72463196 -0.00468478 -0.00627093 -0.00384727
C 5.55396121 28.90288007 9.80695660 0.00826842 -0.00119833 0.00161678
C -2.31135210 25.08257214 9.38004350 0.00174055 0.00462314 0.00159939
C -0.10495932 20.39313030 8.60084911 -0.00360050 -0.00411589 -0.00479860
C 6.46177735 23.13951089 8.92954294 0.00053616 0.00363826 -0.00071152
C 4.36010226 27.97720290 9.69074574 0.00722094 -0.00139098 0.00065313
C -2.80665119 23.25555031 17.25961324 -0.00592402 -0.00366133 -0.00431355
C -5.77784417 28.03577320 13.07710022 -0.00755277 0.00659412 0.00477937
C 0.97233985 25.52811248 13.30066497 0.00436115 -0.00470731 0.00298163
C 3.77481730 20.37542216 17.16872036 0.00249137 0.00465124 0.00174619
C -1.61980808 23.09091651 16.51769818 -0.00213099 -0.00017673 -0.00487463
C 6.40138388 27.92813676 13.96900172 -0.00259108 0.00792432 0.00288778
C -0.25594927 25.58908261 13.89000956 -0.00049096 0.00092104 -0.00582296
C -8.11684711 20.59961010 16.50197456 0.00291593 0.00035368 -0.00723301
C -0.69010009 22.15310639 16.82741225 0.00597668 -0.00288359 0.00050939
C 5.42701705 27.03362145 13.58569050 0.00068891 0.00231426 -0.00078569
C -1.29004876 26.32345839 13.32332226 0.00128170 0.00428963 0.00050442
C -7.21831706 21.51362552 17.02653236 0.00189956 -0.00393762 -0.00370798
C -0.81383710 21.35241952 17.96574048 0.00310830 0.00053343 0.00691973
C 5.54833660 26.25442722 12.42518894 -0.00422135 -0.00025399 -0.00511175
C -0.97367698 27.23246791 12.31692848 -0.00565285 0.00059103 -0.00195286
C -7.46515445 22.21243892 18.24710589 0.00567543 0.00802903 0.00498912
C 1.15406880 21.58079974 12.82941496 -0.00366434 -0.00059846 -0.00342025
C 3.94718682 26.25037185 17.97276111 0.00451707 -0.00121104 0.00204225
C -2.77973811 27.09484115 17.62907607 -0.00190073 -0.00496158 0.00321191
C -5.63786754 22.47638329 12.70137064 0.00279089 -0.00847205 -0.00704841
C 0.04867307 22.28764677 12.27980962 -0.00081577 0.00359966 0.00580500
C -8.55901787 27.07962082 18.19492753 0.00466695 -0.00289823 0.00128183
C -1.77169002 26.29017984 18.10604502 0.00004028 -0.00473101 0.00462758
C 6.70059814 21.37903099 12.27881738 0.00065352 0.00830469 -0.00337024
C -4.12855614 24.68163133 15.84928761 0.00224396 -0.00373424 0.00089776
C -4.29753145 19.66057874 14.77882649 -0.00526750 -0.01593688 -0.00104531
C 2.13119493 23.98779233 14.77800891 -0.00342111 -0.00358556 -0.00205219
C 2.84357817 28.91642206 15.92455409 -0.00109340 -0.00775861 -0.00250162
C -5.36388986 25.48149480 15.61937127 0.00062159 0.00337268 -0.00140665
C -3.10975296 20.49771066 14.91030526 -0.00073449 0.00101244 -0.00312281
C 3.28861416 23.13728264 14.90679795 -0.00153269 -0.00341377 -0.00548748
C 1.75935843 27.84317293 15.80287563 -0.00324588 0.00497476 0.00038168
C -5.87625157 23.09033383 23.19894133 -0.00039636 0.00549560 -0.00237149
C -8.80686222 27.96189000 19.28457121 0.00716841 0.00770670 -0.00200506
C -2.01728645 25.42299622 19.24836933 -0.00371968 -0.00061012 0.00199270
C 0.69702426 20.38359646 23.16095934 -0.00630298 -0.00148765 0.00481633
C -4.61191693 23.00616769 22.54607196 -0.00163515 -0.00073640 0.00246539
C 3.39431264 28.03602617 19.98151124 -0.00306559 -0.00664006 0.00670468
C -3.14951036 25.68104085 19.99761311 -0.00417675 0.00677715 -0.00424398
C -11.07825924 20.67071374 22.53142345 0.00725498 0.00168187 -0.00167474
C -3.59715293 22.17231914 23.03548444 -0.00358177 -0.00327512 0.01066274
C 2.37107303 27.15911479 19.59991402 0.00139717 -0.00260773 0.00239503
C -4.09811625 26.55672188 19.58589365 -0.00259635 -0.00218747 -0.00207305
C -10.16432433 21.58758797 22.90787879 -0.00142842 -0.00744629 -0.00634035
C -3.79017199 21.49062015 24.26458140 -0.00334666 0.00090277 0.00189754
C 2.63209217 26.27810392 18.52628187 0.00480720 -0.00066054 -0.00245747
C -4.03233405 27.18263913 18.30406364 0.00017148 0.00174844 0.00589788
C -10.28594083 22.44497237 23.98163772 -0.00319123 0.00487355 0.00703170
C -1.97972945 21.49437356 18.72662285 0.00513426 -0.00035472 0.00924260
C 1.00934735 26.22116521 23.88087536 0.00034784 -0.00160125 -0.00223510
C -5.74186277 27.14303949 23.82540913 -0.00207211 0.00013742 -0.00436073
C -8.66900491 21.95853551 18.88681757 0.01129951 0.00714018 0.00160640
C -2.91278957 22.52577683 18.45265228 -0.00000634 0.00185574 0.00220892
C -11.55101146 27.23197817 23.98522641 0.00203725 -0.00833795 -0.00275969
C -4.75473097 26.28408372 24.16985863 0.00647204 0.00513153 -0.00271188
C 3.43775357 21.35397089 18.11483877 0.00846429 0.00124265 -0.00040880
C -6.77471720 24.71985692 21.72029305 -0.00187508 -0.00154684 -0.00162115
C -7.28195791 19.66662508 20.63912672 -0.00124945 0.00616153 0.00871635
C -0.66791453 23.99422887 20.67627561 -0.00572382 0.00407180 -0.00144489
C -0.31863557 28.68262926 21.89698584 -0.00565129 0.00045198 -0.00731892
C -7.92066218 25.71735742 21.57773329 -0.00209680 0.00085946 0.00150574
C -6.16194240 20.73157775 20.70629054 0.00293923 -0.00892602 -0.00191676
C 0.47904054 23.04802402 20.58102446 0.00535740 0.00495871 -0.00495748
C -1.53294369 27.90133844 21.74408773 -0.00416759 0.00257900 0.00937320
C 16.06736076 4.05160729 4.95303265 -0.00017216 0.00385166 -0.00293743
C 13.48688163 8.72755077 1.22338668 -0.00174237 0.00109254 -0.00202506
C 20.16508649 5.94883242 0.83771044 -0.00645075 0.00556005 -0.00373394
C 22.75656177 1.10726449 4.92069672 0.00428513 -0.00464383 -0.00576799
C 17.31764106 3.93201008 4.32603111 -0.00034121 -0.00953166 0.00435791
C 25.50817796 8.42192108 1.64366573 -0.00505013 0.00223943 -0.00789780
C 18.94312130 5.99065855 1.54602879 -0.00054063 -0.00615282 0.00790672
C 10.88638081 1.14048742 4.35251601 0.00009623 0.00711550 0.00014268
C 18.24598652 2.99888993 4.88809234 -0.00478890 -0.00429570 -0.00226432
C 24.53942591 7.56612223 1.11748255 -0.00968298 -0.00524098 -0.00999690
C 17.99827032 6.92729003 1.26191971 0.00120540 0.00074835 -0.00174904
C 11.74415022 2.18547396 4.67938221 -0.00583105 0.00451571 0.00282017
C 17.85195432 2.07960836 5.84941631 0.00140042 0.00294896 0.01427570
C 12.75674675 6.83644715 24.35111104 0.00312042 -0.00478276 -0.00126664
C 18.18252323 7.87522845 0.25086135 -0.00489722 0.00248711 -0.00110988
C 11.54809512 2.92606678 5.84623885 0.00231628 -0.00006385 0.00016327
C 19.96395133 2.15832715 0.50159531 -0.00874356 0.00217231 -0.00087850
C 23.15154922 6.87512220 5.63901482 0.00282224 0.00172971 0.00298819
C 16.57916157 7.72567867 5.54381843 0.00324439 -0.00116129 0.00143657
C 13.59493830 2.97533337 0.38231732 0.00203913 -0.00107601 0.00516404
C 19.02541896 3.03095516 0.04233374 -0.00367874 0.00283073 0.01031873
C 10.68458460 7.91106460 5.90141190 -0.00278279 0.00771874 -0.00121746
C 17.53423146 6.83836604 5.97651283 -0.00106605 -0.00019829 -0.00193399
C 25.61037691 2.17322950 0.18580962 -0.00128540 0.01241671 -0.00587965
C 14.80314849 5.26495872 3.37792876 -0.00585471 -0.00513464 -0.00526099
C 14.87956906 0.15741517 2.71428700 0.00389424 -0.00280511 0.00145426
C 21.35166202 4.40130321 2.34669549 -0.00073050 -0.00102165 0.00291307
C 21.55768009 9.41607189 3.63100026 0.00066187 -0.00128782 0.00265759
C 13.51649871 6.02768609 3.24650765 0.00130729 0.00294354 -0.00280509
C 16.20449898 0.88978367 3.02227394 -0.00028888 -0.00013012 -0.00378431
C 22.44651043 3.44927204 2.35814867 0.00130060 0.00120896 0.00752485