2880
Time=76000.00000007 pbc="T T T" Lattice="39.45209947 0.00000000 0.00000000 0.00000000 29.00238882 0.00000000 -12.04928904 0.00000000 24.48816539" energy=-18399.11641848 virial="-40.65294535 -18.34899368 -68.89079900 -18.34899368 -32.56924110 32.72031751 -68.89079900 32.72031751 -13.12882322" stress="0.00105339 -0.00062645 -0.00244500 -0.00062645 0.00126305 0.00111765 -0.00244500 0.00111765 0.00193380" Properties=species:S:1:pos:R:3:vel:R:3
C 3.35022208 3.72263918 5.05132943 -0.00261856 0.00332547 0.00170414
C 0.49038066 8.80483442 1.03091732 -0.00001536 0.00453518 -0.00179389
C 6.96800075 5.93788619 0.89273677 -0.00645346 0.00902675 0.00552874
C 9.81618215 0.97635590 5.07668615 -0.00726645 -0.00319275 -0.00631182
C 4.59838356 3.68922046 4.40979346 -0.00438644 0.00060946 -0.00195299
C 12.11787667 8.43812806 1.50133648 0.00440491 -0.00592579 -0.00439847
C 5.81395970 6.03873875 1.67878056 -0.00361111 0.00064642 0.00006611
C 37.36326582 1.33220117 4.16810313 0.00403973 0.00248372 -0.00425005
C 5.60479431 2.94681662 4.97991630 -0.00252834 0.00113155 0.00086321
C 11.06397905 7.62078807 1.03141252 -0.00068277 0.00192266 0.00487050
C 4.79443878 6.89592866 1.36119241 -0.00540713 0.00057328 -0.00453151
C -1.13875307 2.16031681 4.77683374 -0.00048971 0.00474467 0.00601522
C 5.30478763 2.02393008 6.04241406 0.00564263 -0.00108925 -0.00336525
C -0.78313901 6.82636005 24.39473647 0.00033556 0.00383114 -0.00310114
C 4.81446657 7.65490181 0.18894272 0.01033509 -0.00064182 0.00896385
C -1.44967837 3.11044038 5.78805353 0.00079702 0.00380225 -0.00102740
C 6.88053387 2.07365324 0.60224384 0.00050485 0.00026059 -0.00301456
C 9.71974993 6.98266894 5.53259892 -0.00194057 -0.01201438 -0.00006623
C 3.21740701 7.99383281 5.79968841 -0.00308794 0.00866344 -0.00331303
C 0.32530749 2.57912418 0.43948995 0.00219032 0.00435982 -0.00234027
C 5.93218509 2.92948211 0.16902865 0.00173978 -0.00102780 -0.00678981
C -2.47740144 7.75822133 6.10229767 -0.00230235 -0.00075096 -0.00163492
C 4.22057439 7.05837513 6.17560434 0.00245310 0.00424342 -0.00416649
C 12.60179137 1.93084065 0.18628319 0.00011102 0.00425370 -0.00761462
C 2.01751694 4.99227217 3.38476285 0.00838066 -0.00051294 -0.00042625
C 1.68038525 0.44778317 2.31435484 -0.00052137 -0.00261058 -0.00282345
C 8.23814619 4.67804236 2.49174232 -0.00749384 -0.00339879 -0.00231818
C 8.57716706 9.43239463 3.49913539 -0.00073107 -0.00503919 -0.00520172
C 1.16500396 6.19737216 3.41005646 -0.00531983 0.00026962 -0.00243797
C 2.85854186 1.32835829 2.22975981 0.00044786 0.00446581 -0.00140816
C 9.58022287 4.08529783 2.74017152 -0.00255889 -0.00192571 0.00185567
C 7.45578416 8.41909730 3.34875927 0.00337930 0.00278633 -0.00015615
C 0.28128251 3.73997505 11.23859824 -0.00202048 0.00471591 0.00276439
C -2.69450389 8.60426773 7.18160578 -0.00598560 -0.00497555 -0.00303555
C 3.94804990 6.15992006 7.21142699 -0.00077239 0.00412572 -0.00439754
C 6.88435614 1.06961059 11.20016029 0.00543470 0.00658949 -0.00092205
C 1.47380221 3.63112833 10.50485999 0.00032763 -0.00422566 -0.00058078
C 9.24114448 8.67388509 7.66537407 0.00691221 -0.00707969 -0.00284357
C 2.69886703 6.13873022 7.85187568 0.00081985 -0.00539631 0.00788771
C -5.16615113 1.25433888 10.57537316 0.00912699 0.00292424 0.00249504
C 2.42301675 2.81179266 11.03735248 0.00372693 -0.00150703 -0.00264827
C 8.35566733 7.64509709 7.39794972 -0.00164771 -0.00505304 0.00110071
C 1.73477735 7.06672781 7.51722579 -0.00264642 0.00323115 -0.00309189
C -4.15714048 2.08401572 10.89351901 0.00109351 0.00170425 -0.00434952
C 2.18511193 2.02085612 12.15558199 0.00268091 0.00279131 -0.00064281
C 8.52313684 6.78263930 6.26735630 -0.00319944 0.00488240 -0.00099729
C 1.88652794 7.93044693 6.47125487 -0.00681068 0.00130658 0.00661178
C -4.31505229 2.93551000 12.04318003 0.00628084 0.00564956 -0.00346160
C 4.06360885 1.96234744 6.60669582 -0.00664600 0.00511080 -0.00271037
C 6.85409255 6.95218186 11.62755074 -0.01020749 -0.00063288 0.00526575
C 0.02537066 7.58983667 11.80700093 -0.00180617 0.00315721 -0.00029927
C -2.62561593 2.89920294 6.50064861 0.00344531 0.00127219 -0.00165069
C 3.11134242 2.93645478 6.18486571 -0.00470207 0.00085298 -0.00486450
C -5.47177726 7.58387159 12.28524997 -0.00167140 -0.00116016 0.00602126
C 1.08643884 6.81628214 12.20942336 0.00309377 0.00311541 0.00373035
C 9.55173951 1.82666436 6.16436184 0.00151836 0.00082095 -0.00475102
C -1.02997442 5.08435295 9.70928017 0.00033535 -0.00195986 -0.00016958
C -1.44154476 0.29396346 8.50970793 0.00046762 -0.00057542 0.00233058
C 5.02841574 4.64976368 8.64820624 -0.00749441 0.00221187 0.00378835
C 5.45412675 9.54981216 9.75434705 0.00165048 -0.00239795 0.00280509
C -2.17625737 5.95202032 9.60128075 0.00275471 0.00203758 -0.00557043
C -0.19456492 1.08082453 8.70394121 0.00351674 0.00771040 -0.00413032
C 6.21435811 3.73681802 8.66787922 0.00250262 -0.00095064 -0.00173696
C 4.12756959 8.81745647 9.66490334 0.00343737 -0.00248070 -0.00136900
C -2.69785649 3.50965880 17.52312894 0.00126020 -0.00863184 -0.00084094
C -5.64545793 8.51374173 13.35411657 -0.00537536 -0.00180843 0.00000819
C 0.93849638 5.90051890 13.21028513 0.00474936 -0.00371652 0.00540030
C 3.89746045 1.10593454 17.34568937 0.00540050 0.00057249 0.00584226
C -1.41942756 3.49113529 16.89619660 0.00237595 0.00235446 0.00175078
C 6.35421324 8.52792375 13.82204020 0.00334482 -0.00011250 -0.00385239
C -0.26276514 5.94998383 13.99025785 -0.00146968 -0.00183588 0.00350923
C -8.06897543 1.02196909 16.85775044 -0.00562084 -0.00712130 -0.00109375
C -0.47082915 2.57874251 17.32040963 0.00539533 0.00316658 0.00066595
C 5.31995925 7.68276244 13.37621215 -0.00462177 0.00411619 0.00522087
C -1.28817995 6.78365659 13.62454978 0.00028551 0.00463641 0.00071365
C -7.09478615 1.76808974 17.40041902 0.00219768 -0.00336314 -0.00225309
C -0.61341461 1.89533116 18.51590302 -0.00448812 0.00086682 0.00115017
C 5.55028490 6.92455129 12.22032935 0.00120800 -0.00130517 0.00205851
C -1.14992580 7.55684945 12.48215159 -0.00526353 -0.00042636 0.00274262
C -7.29400129 2.56890757 18.49739118 -0.00467238 0.00214555 0.00347203
C 0.92760747 1.99720583 12.80335896 -0.00204343 -0.00225040 0.00038764
C 3.70884418 6.66693126 17.70968839 -0.00022052 0.00160746 -0.00221015
C -2.91014192 7.69040676 17.62586823 0.00141196 -0.00097047 -0.00218378
C -5.48151586 2.89257604 12.77340723 0.01144124 -0.00330680 0.00517935
C 0.04787613 2.94007994 12.36080460 -0.00316104 0.00068231 -0.00328974
C -8.68492472 7.52702691 18.27276041 0.00460395 -0.00191318 0.00169732
C -1.87296629 6.95248247 18.22351109 -0.00078267 -0.00827692 -0.00623716
C 6.60913248 1.93408624 12.29451277 -0.00726779 0.00324076 -0.00206874
C -4.20909293 4.71463062 15.92309844 0.00126891 -0.00224188 -0.00716567
C -4.24041023 0.20217314 14.80087784 0.00548073 -0.00024903 0.00285907
C 2.30825321 4.52838748 14.72320977 -0.01018119 0.00379210 0.00595932
C 2.30935035 9.56336964 15.56830736 0.00575727 -0.00470415 0.00069632
C -5.52512505 5.41452328 15.93275262 0.00677380 -0.00222192 -0.00488904
C -3.26393233 1.35110290 15.00751702 -0.00169656 -0.00922726 -0.00436513
C 3.49055077 3.63566614 14.88098643 -0.00586339 -0.00243587 -0.00127762
C 1.06689765 8.81760750 15.18741483 -0.00057167 0.00278619 -0.00141384
C -5.92785697 3.77207160 23.49090592 0.00318242 -0.00779143 0.00338292
C -8.88432406 8.52021775 19.27535520 0.00106624 0.00220237 0.00125292
C -1.99846946 6.13477136 19.34672925 -0.00145876 -0.00327407 -0.00024895
C 0.77748113 1.08822492 23.56938440 -0.00409521 0.00558559 -0.00497877
C -4.70768041 3.64198486 22.77827368 0.00227349 0.00035923 -0.00405186
C 3.08584465 8.46674070 19.72866542 -0.00019045 -0.00619534 -0.00140348
C -3.24933198 6.15960230 19.97248415 -0.00110204 0.00254678 -0.00075979
C 27.99734821 1.07446936 22.66271346 0.00015141 0.00732585 0.00426518
C -3.72854121 2.81898375 23.28749576 0.00057226 0.00060719 0.00296901
C 2.17574955 7.52435200 19.34440868 -0.00283530 -0.00552920 0.00498693
C -4.23175793 7.01007805 19.54213635 0.00515747 -0.00828944 -0.00323408
C -10.44318575 1.97043161 23.00548131 -0.00385594 -0.00326063 -0.00911838
C -3.89718545 2.05196828 24.47426431 -0.00768701 0.00417605 -0.00107228
C 2.47140167 6.54324545 18.32843555 -0.00712490 -0.00062745 0.00145709
C -4.10601946 7.70768845 18.27649500 0.00014272 -0.00232818 0.00127813
C -10.56888686 2.74676104 24.13082616 -0.00035950 0.00464660 -0.00777550
C -1.87117369 1.87735269 19.15041213 -0.00158561 0.00104753 -0.00133067
C 0.50681116 6.75269845 23.78649664 0.00031091 0.00096554 0.00001441
C -6.05393954 7.56669741 23.87175460 -0.00183882 0.00332368 0.00374533
C -8.55458612 2.62617583 19.03288925 -0.00581639 0.00194962 -0.00388661
C -2.89876420 2.62175873 18.56288138 -0.00474927 -0.00042242 -0.00201870
C -11.35397280 7.94146269 24.45195734 -0.00066961 0.00213602 0.00306546
C -5.01975726 6.66924287 24.19362102 -0.01022573 -0.00049015 0.00224690
C 3.91538325 1.89252544 18.45191681 0.00320086 -0.00330537 0.00655734
C -7.13777611 5.05395642 21.95101207 -0.00523152 0.00271892 -0.00013469
C -7.48993803 0.05817038 21.17832990 0.00315941 -0.00572384 0.00377072
C -0.74520488 4.58968839 20.78365560 0.00314933 -0.00099943 0.00270478
C -0.45643643 9.44655076 21.72324783 0.00027305 -0.00045663 0.00197163
C -8.41792033 5.85567554 21.79441129 0.00124027 0.00378053 -0.00507024
C -6.23161628 0.79274690 21.44910874 0.00352970 0.00431442 0.00425436
C 0.46341500 3.78208778 20.98039593 0.00014649 -0.00262826 0.00057708
C -1.61240829 8.52767767 21.55576750 0.00544909 -0.00273347 -0.00287686
C 3.33149407 13.35863691 5.33446764 -0.00030617 -0.00130180 -0.00291625
C 0.38606090 18.16654723 0.99058259 -0.00000655 0.00477741 0.00735819
C 6.83403950 15.45643475 0.90254633 -0.00400153 -0.00024427 -0.00403026
C 9.69319695 10.89930365 5.16270415 0.00153654 -0.00256962 -0.00387201
C 4.44439546 13.15718872 4.56510524 0.00647387 -0.00479853 0.00971938
C 12.36957055 18.03165718 1.91591268 0.00025468 -0.00031947 0.00369906
C 5.60287530 15.55929523 1.54489247 -0.00002502 0.00132139 -0.00243033
C 36.97708315 10.97352209 4.58225606 0.00117209 0.00249973 -0.00719357
C 5.36476801 12.15960688 4.83637383 -0.00108169 -0.00269736 0.00131176
C 11.45413696 17.07234284 1.56108056 0.01279109 0.00734539 -0.00804601
C 4.63341714 16.39826817 1.08034663 -0.00092583 -0.00563923 -0.00071065
C -1.49155679 11.86532613 5.09160976 0.00050224 0.00472263 -0.00055542
C 5.17319124 11.39397772 6.04762336 -0.00172698 0.00890214 0.00831017
C 11.54781990 16.37576290 0.36534914 0.00609288 0.00032666 -0.00551837
C -7.19381826 17.24442304 24.44557013 0.00180752 0.00830885 -0.01385185
C -1.71598584 12.67923760 6.31616127 0.00230032 -0.00729093 0.00314521
C 6.81877718 11.62269187 0.53146847 0.00239974 0.00361238 -0.00197442
C 9.86941550 16.61360206 5.76122523 -0.00241055 0.00166137 0.00196196
C 3.33276587 17.47999793 5.72690327 -0.00166287 0.00160225 -0.00505129
C 0.37895724 12.49420277 0.73167156 -0.00002223 0.00147024 0.00504741
C 5.77744181 12.38650753 0.00294439 -0.00162640 0.00186204 -0.00293123
C -2.33640356 17.59095552 6.24603184 -0.00805174 0.00408903 0.00020124
C 4.29079293 16.53748772 5.98862766 -0.00609850 0.00122972 -0.00277139
C 12.54919931 11.59352673 0.02440404 -0.00201771 -0.00278586 -0.00151030
C 2.01097695 14.80168263 3.82619568 0.00091164 0.00437841 -0.00318301
C 1.73794842 10.10713876 2.66752052 0.00313901 -0.00635749 0.00826034
C 8.08811745 14.03367821 2.51911765 -0.00487453 -0.00081287 -0.00013667
C 8.60906136 18.85542910 3.59461160 -0.00452283 -0.00038964 -0.00148932
C 0.96042835 15.85076742 3.62663609 -0.00426009 0.00022245 0.00441716
C 2.83329764 11.09897717 2.91721199 0.00998157 -0.00105402 0.00393301
C 9.27758806 13.18851238 2.73065983 0.00338478 0.00012468 -0.00020397
C 7.39949430 18.02676812 3.36063846 -0.00212098 0.00111001 -0.00453454
C 0.10021957 13.43144070 11.23599577 0.00868837 -0.00308694 -0.00222746
C -2.49640835 18.34246306 7.42733974 -0.00221942 -0.00288684 -0.00224877
C 4.01443600 15.70445583 7.10022259 -0.00168328 -0.00310320 -0.00173763
C 6.76736159 10.92031847 11.23669180 0.00615253 0.00443197 0.00353782
C 1.30467208 13.40067074 10.54179740 -0.00584105 -0.00232517 0.00689754
C 9.37980441 18.20206219 7.91209893 -0.00352837 -0.00186119 0.00448953
C 2.84358482 15.78867459 7.82152970 0.00915504 0.00324510 -0.00256627
C 33.98230095 10.63945219 10.60944247 -0.00397028 0.00202704 0.00879159
C 2.29670492 12.48963552 10.90452164 -0.00077134 -0.00281669 0.01196844
C 8.44893447 17.20531670 7.63380954 -0.00274917 0.00039698 0.00062500
C 1.90366990 16.75259097 7.42398362 -0.00709376 0.00543228 -0.00123377
C -4.46026487 11.57245136 10.89593279 0.00381642 0.00248030 -0.00016993
C 2.11311738 11.69880543 12.02054885 0.00554468 -0.00418230 -0.00464720
C 8.71347999 16.38066446 6.49810004 -0.00071007 -0.00014069 0.00291078
C 2.12186649 17.66324123 6.38480011 -0.00482237 -0.00409930 0.00027311
C -4.64196141 12.42585465 12.01294886 -0.00196533 0.00281085 0.00560756
C 3.92517960 11.42528377 6.70428243 -0.00268320 0.00746296 -0.00012657
C 6.67027292 16.45173702 11.75201040 0.00528760 0.00693095 -0.00446679
C 0.19245694 17.22755569 11.60812307 -0.00314738 -0.00258942 0.00067466
C -2.89595179 12.46885083 6.92955791 0.00395319 0.00175843 0.00426815
C 3.03676436 12.45508553 6.36067170 0.00445843 0.00274829 0.00049712
C -5.72526762 17.58211422 11.98733659 -0.00301429 0.00053100 0.00280803
C 1.15755200 16.29752394 12.06204245 -0.00443145 0.00483234 -0.00145094
C 9.50819367 11.80905096 6.25648068 0.00208740 -0.00417184 -0.00069909
C -1.04917591 14.91172868 9.72021574 -0.00276831 -0.00200153 -0.00367117
C -1.21600161 9.66543270 8.75378377 0.00146199 0.00123990 -0.00146366
C 5.24400228 14.14869970 8.45380097 -0.00454383 -0.00109500 0.00103043
C 5.54007298 19.06680588 9.76967783 0.00920381 0.00388689 -0.00785577
C -2.41402767 15.59816133 9.61948596 0.00059048 -0.00721679 -0.00129806
C -0.08934984 10.74042073 8.95599016 -0.00357903 -0.00760879 0.00233406
C 6.32209964 13.14116149 8.64062682 0.00546554 0.00030472 0.00049788
C 4.30164328 18.23737656 9.50870812 -0.00429634 -0.00311094 0.00098922
C -3.23623705 13.54178671 17.32166695 0.00210071 0.00253167 0.00961626
C -5.86303346 18.32371422 13.13996221 0.00214221 0.00157705 -0.00249838
C 0.93005192 15.51177965 13.19260559 -0.00971038 -0.00464259 -0.00192719
C 3.48893572 10.73880496 17.28410846 -0.00255885 -0.00018103 0.00664705
C -1.96727386 13.43941708 16.71205302 -0.00421094 -0.00450459 0.00638968
C 6.21781535 17.84780516 14.13342703 0.00166988 0.00548513 0.00095327
C -0.42415183 15.47167697 13.70417352 -0.00090649 0.00227338 -0.00651668
C 30.84712360 10.82232618 16.66605730 0.00099378 0.00292666 0.00006819
C -1.01724027 12.59960411 17.19683641 0.00101512 0.00600006 0.00159358
C 5.25064196 17.03648989 13.58027469 0.00526819 -0.00226488 -0.00582012
C -1.38951118 16.37677551 13.28901928 0.00501198 -0.00297669 -0.00472821
C -7.65239044 11.67111271 17.10289881 -0.00432520 -0.00149358 -0.00538819
C -1.30693590 11.69170883 18.19296163 -0.00137553 0.00447638 -0.00178184
C 5.44723953 16.32569670 12.40478301 0.00700615 0.00364715 -0.00246525
C -1.10205311 17.32189081 12.23749667 0.00262835 0.00198826 -0.00720439
C -7.85084605 12.50805747 18.26309935 0.00373564 0.00370341 -0.00088297
C 0.89897904 11.72634797 12.69873551 0.00334561 0.00100341 -0.00959381
C 3.80102655 16.43758015 18.12446674 -0.00692288 -0.00647306 0.00653919
C -2.90927108 17.37699980 17.75967022 0.00285071 0.00073560 0.00070663
C -5.86463786 12.37251522 12.71321865 -0.00020591 -0.00121224 -0.00795158
C -0.06340311 12.58950261 12.34055753 0.00477374 -0.00147067 0.00095239
C -8.51242406 17.35203000 18.04497148 -0.00422237 -0.00553144 0.00292110
C -1.93844642 16.53029501 18.20443501 -0.00128563 -0.00635812 0.00024288
C 6.57498306 11.87281229 12.24359359 0.00299135 0.00095011 -0.00414854
C -4.31711482 14.67995658 15.54923874 -0.00807631 0.00135142 -0.00137293
C -4.62032234 10.11872480 14.82862806 0.00141583 0.00483569 -0.00041652
C 2.09197096 14.07215381 14.85021199 -0.00183744 -0.00057627 -0.00001663
C 2.42351121 19.01036990 15.83036715 -0.00132440 -0.00360628 0.00782638
C -5.36724219 15.72346212 15.17490993 -0.00962217 -0.00332228 -0.00013217
C -3.56392820 11.19659026 15.05686063 -0.00080882 -0.00295501 -0.00320188
C 3.13611133 12.98870439 14.93889766 0.00300134 0.00235197 -0.00229038
C 1.10548026 18.22144648 15.88809225 0.00296021 0.00269720 0.00351108
C -6.06772885 13.25706025 23.40349648 0.00110152 -0.00386113 -0.00295992
C -8.57711172 18.17383004 19.23912261 0.00495396 0.00075503 0.00034801
C -2.19910853 15.66183451 19.30658056 -0.00382432 0.00057403 -0.00198613
C 0.72426995 10.75507712 23.36881889 -0.00235965 0.00467899 0.00604785
C -4.84680449 13.25017133 22.72599793 0.00623298 0.00093988 -0.00085571
C 3.09580801 18.11720217 20.15574886 -0.00030156 -0.00354242 -0.00408705
C -3.40280649 15.76445207 20.06469781 0.00209184 0.00933610 0.00132862
C 28.03639180 10.94300746 22.96238493 0.00456237 0.00138573 -0.00301019
C -3.84974276 12.43025223 23.16157848 -0.00603439 -0.00193073 -0.00119574
C 2.16890938 17.23051714 19.68323251 -0.00143714 0.00526231 -0.00504121
C -4.32343830 16.66646958 19.62360771 0.00797719 0.00946211 0.00192289
C -10.34582371 11.78649600 23.34551104 -0.00828611 -0.00943446 0.00126806
C -3.97024736 11.62990016 24.33603748 -0.00226701 -0.00251990 0.00107893
C 2.49459313 16.34755351 18.59413647 -0.00086347 0.00872159 -0.00430920
C -4.13510392 17.42627955 18.48474976 0.00029244 -0.00530381 -0.00458062
C -10.53781631 12.71241599 24.43014186 -0.00206239 0.00460789 -0.00354459
C -2.58374486 11.82076073 18.89332049 0.00827330 0.00334320 -0.00685476
C 0.68120005 16.56069926 24.06203753 -0.00032032 -0.00658040 -0.00137033
C -5.92182959 17.12263246 23.87659802 0.00385314 0.00817064 -0.00553806
C -9.08380312 12.41759575 18.96017607 0.00736207 0.00122487 0.00582982
C -3.49218142 12.73894143 18.41500803 0.00224796 0.00282349 -0.00261403
C -11.60887173 17.35828004 24.34218229 0.00458581 -0.00429123 0.00506205
C -4.96973865 16.25172087 24.26833445 0.00425006 -0.00097644 -0.00412194
C 3.21697583 11.41630948 18.41716070 0.00382413 0.00092063 0.00841693
C -7.46376213 14.52591718 21.88372184 0.00107488 -0.00392604 -0.00280099
C -7.54056957 9.75788263 20.86452940 -0.00106569 0.00210290 0.00069541
C -0.96975503 14.19548266 20.89128707 0.00154899 -0.01085891 0.00326258
C -0.50057214 18.95169319 21.99779795 -0.00367045 0.00692765 -0.00056411
C -8.77276323 15.29981283 21.71183254 -0.00153677 0.00170647 0.00037802
C -6.33519259 10.69291848 21.01564981 -0.00206009 0.00681185 0.01144986
C 0.21378805 13.20207299 20.91937077 -0.00202751 0.00669941 0.00078639
C -1.54664081 17.96819878 21.74748077 -0.00114232 -0.00082771 -0.00205276
C 3.19658652 23.18716344 5.22266872 -0.00056492 0.00154770 0.00586862
C 0.44945306 27.83675635 0.99885963 -0.00362632 0.00342841 -0.00508040
C 7.04881209 25.20644997 0.92765547 0.00774262 -0.00195366 0.00003468
C 9.70814984 20.34183425 5.15596319 0.00159919 0.00384970 -0.00544974
C 4.40682312 23.02347675 4.54962905 -0.00365185 0.00246720 -0.00204503
C 12.45586030 27.96456781 1.56976667 -0.00496554 -0.00421105 0.00073169
C 5.84791545 25.18695136 1.64146839 -0.00343954 0.00277587 -0.00064124
C -2.16090818 20.46160623 4.60040066 0.00575708 0.00413464 0.00139033
C 5.36477726 22.13337145 4.96150676 0.00436523 0.00522055 0.00048163
C 11.52255742 27.02986836 1.14736929 0.00200095 -0.00463347 -0.00233715
C 4.85156590 25.93494410 1.18615791 0.00288915 0.00189543 0.00019872
C -1.14192588 21.40604679 4.91034240 0.00430188 0.01165737 -0.00268053
C 5.23696513 21.55782920 6.22203233 0.00544210 -0.00030197 0.00318430
C -0.36028615 26.30061914 24.44289904 -0.00122283 0.00098879 0.00166189
C 4.95349187 26.81803414 0.05616082 -0.00325087 -0.00385741 0.00006363
C -1.38075485 22.33040647 5.95399793 0.00063810 -0.01086511 0.00303768
C 7.15193175 21.31849672 0.83560827 -0.00203051 0.00911059 -0.00077554
C 9.92362411 26.29459825 5.53556150 0.00002188 0.00399911 0.00671669
C 3.24525786 27.29807872 5.33168862 0.00220787 -0.00149802 -0.00125970
C 0.49226107 21.86499329 0.59707141 0.00606117 0.00583176 0.00057306
C 6.21070593 22.14668071 0.34118809 0.00038446 -0.00741588 0.00176618
C -2.46469074 27.12680635 5.84119460 0.00020777 -0.00113782 -0.00591988
C 4.17736950 26.45739079 5.80816561 0.00158692 0.00205714 -0.00123438
C 12.47540347 21.25726202 0.11698914 -0.00064319 -0.00266635 0.00080839
C 2.02630291 24.30221771 3.43883590 -0.00944321 -0.00114481 -0.00090779
C 1.68404104 19.55761692 2.48374844 -0.01011986 -0.00821466 -0.00431088
C 8.21007379 23.89746146 2.57886446 0.00123630 0.00343504 0.00186566
C 8.76723977 28.62432532 3.47418960 -0.01165282 0.00623328 -0.00298649
C 0.75615849 25.17002805 3.12964171 0.00152345 -0.00513592 0.00230879
C 2.95002616 20.38442065 2.64721799 -0.00900840 0.00110890 0.00227206
C 9.31157730 22.87672380 2.79342849 0.00388260 -0.00000265 -0.00478102
C 7.47139338 27.84391095 3.18052271 -0.00624421 0.00333144 0.00103676
C 0.19894553 23.38778555 11.08309413 0.00017472 -0.00452771 0.00216010
C -2.69819769 27.93557970 6.93313013 -0.00329625 0.00866043 0.00209577
C 4.05290059 25.61334706 6.93318482 0.00076391 0.00043550 -0.00504127
C 6.77923513 20.41147684 11.34555233 -0.00010886 -0.00614928 0.00158577
C 1.38441780 23.08942125 10.41619085 0.00463154 0.00756755 0.00565090
C 9.54795433 27.80241971 7.81695240 -0.00394228 -0.00139853 -0.00028843
C 2.84921845 25.78913022 7.69295342 0.00160762 0.01261527 -0.00514823
C 34.06035168 20.64926341 10.32750940 0.00680146 -0.00677456 0.00644288
C 2.29320590 22.20570565 10.92285929 -0.00245638 -0.00110846 0.00368338
C 8.64393126 26.86747943 7.48151325 -0.00932499 0.00124498 -0.00511954
C 1.93524035 26.72005351 7.31458156 0.00612587 -0.00365973 0.00799919
C -4.47973224 21.60688898 10.74929451 -0.00255888 -0.00245332 0.00027138
C 2.00246911 21.37409163 12.07056914 0.00585940 -0.00366341 0.00319588
C 8.80318301 26.03492752 6.33556685 -0.00156969 0.00444806 0.00077383
C 2.02308457 27.44126642 6.08067988 0.00086074 -0.00471178 -0.00213221
C -4.55414845 22.30071195 11.92918292 0.00427796 0.00149208 0.00146045
C 3.97606570 21.59202975 6.79216099 -0.01706176 -0.00427323 -0.00475545
C 6.82288896 26.18660599 11.75373297 0.00157483 -0.00660157 0.00095240
C 0.25790600 27.02744004 11.79191010 0.00741557 -0.00193362 0.00257828
C -2.53307303 22.18765608 6.75239015 -0.00363342 0.01005384 0.00127629
C 2.97869127 22.36343670 6.32310725 0.00923187 0.00070750 0.00751582
C -5.51983256 27.28054281 11.96305183 0.00348322 -0.00714941 0.00036607
C 1.23621076 26.12084104 12.17368963 0.00421505 -0.00258169 0.00538145
C 9.44777920 21.21607536 6.18617438 0.00799885 0.01097728 0.00095443
C -0.87126708 24.70605596 9.39905858 0.00516282 0.00097829 0.00209158
C -1.40052779 19.90968227 8.85671384 0.00037824 -0.00046688 -0.00430118
C 5.32533930 24.14861746 8.45764959 -0.00016979 0.00244858 -0.00168735
C 5.69996679 28.66171864 9.66758372 -0.00650255 -0.00218954 -0.00017098
C -2.12338882 25.48392847 9.13666023 0.00240135 0.00421735 0.00293961
C -0.15430147 20.71318166 9.03410963 0.00154740 0.00640868 0.00549261
C 6.61915401 23.47891049 8.73129610 0.00362121 -0.00464308 0.00163133
C 4.38757238 27.98114826 9.60454753 -0.00642910 -0.00614661 -0.00685228
C -2.89685967 23.11297821 17.32433031 0.00697404 -0.00803332 -0.00114234
C -5.62735951 28.01457561 13.15866190 0.00644462 -0.00184828 -0.00377351
C 1.01925853 25.36549219 13.33437532 0.00138219 0.01191146 0.00171596
C 3.80614794 20.37546480 17.28162390 -0.00278896 -0.00466871 -0.00592124
C -1.65740197 23.06303908 16.61379940 0.00280338 0.00005437 -0.00152882
C 6.43205350 27.82713140 13.96447696 -0.00581179 -0.00041609 0.00479893
C -0.18531749 25.47686725 14.00561647 0.00394148 0.00388740 -0.00774376
C 31.15422589 20.69940758 16.56629260 -0.00115547 0.00663025 0.00282505
C -0.67745955 22.16174060 17.04090098 -0.00899821 -0.00414562 0.00624511
C 5.36233392 27.09961778 13.45634424 0.00173304 0.00342440 0.00720483
C -1.10082352 26.46910602 13.63736759 -0.00423279 -0.00005412 -0.00360556
C -7.26822905 21.41520263 17.07344131 0.00653677 0.00401393 -0.00056288
C -0.92097719 21.24794755 18.07192129 0.00335423 0.00184055 0.00401882
C 5.55651482 26.22744331 12.34242220 0.00673168 0.00111941 -0.00404559
C -0.94947643 27.21722055 12.46849289 0.00037055 0.00253895 0.00513906
C -7.41788015 22.08554284 18.29511860 0.00023167 -0.00303355 -0.01136588
C 0.77211545 21.61093086 12.60393527 -0.00045727 -0.00313430 0.00789426
C 3.60530591 26.32662824 17.54581349 0.00081916 0.00308143 -0.00991150
C -2.89228314 27.08138621 17.85983934 -0.00463197 -0.00328599 -0.00113053
C -5.81412113 22.23659401 12.59876226 0.00139676 -0.00285305 -0.00276252
C -0.21351685 22.48236863 12.08984571 -0.00399388 0.00076141 0.00154213
C -8.42656202 27.00080504 18.40925743 -0.00529390 -0.00264687 0.00601380
C -1.83766042 26.27616903 18.29783160 -0.00568995 0.00364901 0.00401681
C 6.52266788 21.43731033 12.30037765 0.00398785 0.00271056 0.00059389
C -4.12196844 24.25450728 15.66469858 0.00459284 -0.00014479 -0.00859787
C -4.61979126 19.61066221 14.73522504 0.00296815 -0.00013692 -0.00308914
C 2.26828341 23.85663235 14.76813468 -0.01377266 -0.00141868 0.00181662
C 2.56393818 28.69749765 15.86178137 0.00278337 0.00651299 0.00016276
C -5.41210336 24.95115284 15.38570914 -0.00150614 0.00193225 -0.00571159
C -3.29024768 20.30485219 14.76975951 -0.00495116 0.00335722 -0.00186676
C 3.48817941 22.96168270 14.65152136 0.00003199 0.00159086 -0.00295767
C 1.26902806 27.91045222 15.67262390 0.00384545 0.00389283 0.00545233
C -5.68601027 22.95289683 23.68602162 0.00024481 -0.00431149 -0.00587770
C -8.62457981 27.70224156 19.60688807 -0.00068702 -0.00815147 -0.00510303
C -2.06095668 25.29149272 19.27089308 0.00573337 -0.00091398 0.00221079
C 0.67970016 20.34086400 23.50829309 0.00611760 0.00159482 0.00548797
C -4.47198998 22.83883493 23.00069256 0.00239856 0.00119260 0.00246458
C 3.45713993 27.77704406 19.92669937 0.00301672 0.00406813 0.00376541
C -3.33527724 25.18535065 19.85108805 0.00665377 -0.00488850 0.00892358
C -11.16354841 20.26107379 22.79747655 -0.00268118 -0.00033399 -0.00381619
C -3.44963770 22.06252268 23.51812281 0.00202032 0.00043914 -0.00316141
C 2.40042944 26.93179640 19.57150342 0.00189423 0.00297442 0.00186339
C -4.43307683 25.95927003 19.38623457 0.00442444 -0.00636045 -0.00071841
C -10.15601277 21.05991853 23.24452432 0.00171398 0.00362167 0.01078302
C 8.38073073 21.27645901 0.20401613 0.00399135 0.00048986 -0.00453101
C 2.41726727 26.29658610 18.32808275 -0.00776028 0.00599679 0.00137616
C -4.18025716 26.87617341 18.39837509 -0.00186165 -0.00031235 -0.00443528
C -10.29531065 21.84873269 24.42127465 0.00244481 -0.00371583 -0.00071711
C -2.21933802 21.20914488 18.65058267 -0.01292174 0.00797351 0.00371210
C 0.86905060 26.34624732 23.80117527 -0.00073960 0.00195639 -0.00662756
C -5.83665717 26.86531834 23.92636902 -0.00571498 0.00270567 0.00727775
C -8.69018819 22.06964144 18.88672297 -0.00284793 -0.00520775 0.00576160
C -3.12737789 22.20440999 18.37053710 -0.00890071 -0.00387187 0.00586159
C 0.67886214 26.89500303 0.00490489 0.00487923 -0.00100855 0.00746579
C -4.80063992 26.01380857 24.31425240 -0.00002640 -0.00546414 0.00421124
C 3.61244478 21.21235121 18.36014679 -0.00636819 -0.00323538 0.00106489
C -7.06299733 24.18893485 21.98343888 0.00111507 0.00213671 0.00309960
C -7.50068361 19.52607224 21.00004106 -0.00937334 -0.00772796 -0.00303385
C -0.88319329 23.86099101 20.76230666 0.00362813 -0.00684448 -0.00238470
C -0.64050982 28.68601353 22.11172977 0.00513483 0.00407816 0.00522669
C -8.32392982 24.91252286 21.70392295 -0.00471119 -0.00308486 0.00838854
C -6.32764710 20.37537788 21.40579905 0.00176753 0.00250127 -0.00252203
C 0.41942212 23.06922484 20.98806055 0.00461114 -0.00025940 -0.00731322
C -2.01966392 28.10415767 22.10776392 0.00267496 0.00181375 0.00025985
C 16.44270636 3.77584862 5.17476379 -0.01255727 0.00275590 0.00261449
C 13.39531880 8.42521237 0.83549340 0.00327758 -0.00313994 -0.00709161
C 20.02044198 6.01181424 0.94516232 0.00492257 -0.00345714 -0.00216784
C 23.06789743 1.06117555 5.03813637 -0.00355657 -0.00149964 -0.00277755
C 17.64720012 3.68664828 4.51311480 -0.00346659 0.00693089 -0.00955602
C 25.28336743 8.40948427 1.54987984 0.00095280 0.00060616 0.00097784
C 18.80492328 6.02477996 1.59701428 0.00465284 -0.00369672 -0.00009366
C 11.04170125 1.21019572 4.35184249 0.00167738 -0.00704550 -0.00150520
C 18.56887360 2.77344747 4.88857335 0.00095757 -0.00653693 0.00283931
C 24.27957120 7.60465973 1.02616737 -0.00617374 0.00037225 0.00833534
C 17.83926792 6.96706168 1.18371726 0.00779081 -0.00463740 0.00395146
C 11.99292091 2.12088322 4.82097809 0.00019708 0.00524950 0.00204499
C 18.52737156 2.11430549 6.13391653 0.00258918 0.00083610 -0.00074009
C 12.38410073 6.83767193 24.37346038 -0.00018719 -0.00025029 -0.00524248
C 5.86329581 7.65158983 24.44867502 -0.00442178 0.00104605 0.00099345
C 11.78639155 2.82462094 6.03275907 0.00282770 0.00153370 -0.00561504
C 20.20259469 2.05366312 0.56059627 -0.00259066 0.00629179 -0.00166090
C 23.09854517 6.84311393 5.63693892 -0.00346412 0.00382469 0.00256213
C 16.29355850 7.50005431 5.37628846 0.00131963 -0.00311898 0.00500221
C 13.47841389 2.99668241 0.37793961 0.01226030 0.00024742 -0.00622829
C 19.24459428 2.93696671 0.13013349 -0.00382138 0.00247391 0.00208884
C 10.68410856 7.90441070 5.96184008 0.00772245 0.00434474 -0.00385335
C 17.35937845 6.81427001 5.90059127 0.00723387 -0.00676925 -0.00556944
C 13.56904842 1.87275276 24.33394276 0.00212837 -0.00287676 -0.00314073
C 15.15966803 5.01529341 3.46996190 0.00478750 0.00040665 -0.00509015
C 14.93166808 0.40030305 2.51221292 0.00022774 0.00539928 0.01029647
C 21.32171478 4.58190649 2.42066332 -0.00027463 -0.00259776 0.00826860
C 21.58423540 9.21622159 3.32152807 -0.00180319 0.00248996 0.00088600
C 14.15523004 6.16610001 3.33632204 0.00385363 0.00127395 0.00591364
C 16.05646086 1.46853328 2.65004231 0.00080697 0.00790873 -0.00410907
C 22.42097539 3.54645019 2.63140622 -0.00479846 0.00339429 -0.00026285