2880
Time=6000.00000000 pbc="T T T" Lattice="39.54979954 0.00000000 0.00000000 0.00000000 29.02973034 0.00000000 -12.01869594 0.00000000 24.36397255" energy=-18399.55826414 virial="-2.01399997 5.02252344 -77.71017160 5.02252344 -15.45695440 -17.36446524 -77.71017160 -17.36446524 1.29802162" stress="0.00234615 0.00018055 -0.00289391 0.00018055 0.00186007 -0.00057838 -0.00289391 -0.00057838 0.00267583" Properties=species:S:1:pos:R:3:vel:R:3
C 3.03897460 3.81300768 5.08768591 0.00297545 0.00104080 -0.00566948
C 0.42046163 8.55121887 0.80118860 0.00260680 0.00399199 -0.00084354
C 7.02750712 6.06882946 1.20093163 -0.00146688 0.00538127 -0.00082576
C 9.88027703 1.14033558 5.19027370 -0.00035478 -0.00183171 0.00538553
C 4.29942414 3.73862849 4.49441093 0.00478178 0.00376852 0.00300697
C 12.25837715 8.53862384 1.83111312 0.00313765 0.00278313 0.00397556
C 5.75555840 6.16432962 1.75078611 -0.00512209 -0.00007227 -0.00727186
C 37.22771096 1.19088853 4.25304762 -0.00346388 -0.00631698 -0.00612782
C 5.19858335 2.71305477 4.84753427 0.00046575 0.00660030 -0.00103546
C 11.42087405 7.51564052 1.48204151 0.00365755 0.00053960 0.00704517
C 4.83266112 7.05811932 1.32109880 -0.00498830 0.00790101 0.00291672
C -1.28297229 2.07708695 4.63786127 0.00132470 -0.00001607 -0.00351276
C 4.92639217 1.81914861 5.89664289 0.00149677 0.00144707 0.00392160
C 11.54829012 6.88106196 0.27350798 0.00040483 -0.00401862 -0.00256331
C 5.12346806 7.96694551 0.31457013 0.00390528 0.00158107 0.00416941
C -1.40041884 2.80455658 5.83425329 -0.00356854 0.00120072 -0.00016124
C 7.00227929 2.14307495 0.53203864 0.00415505 0.00289697 -0.00276757
C 9.87300684 6.65307038 5.79467577 0.00092725 0.00132237 -0.00783583
C 3.49383697 7.55808200 5.64992317 0.00306193 -0.00367533 -0.00274439
C 0.32563314 2.90612960 0.66555771 -0.00476572 0.00174284 0.00441713
C 6.00044487 3.01225137 0.17217179 0.00771985 0.00249476 -0.00530588
C -2.44993504 7.72498875 5.84137506 -0.00583960 -0.00205453 0.00725282
C 4.48559364 6.60786796 6.09991951 -0.00362618 -0.00281482 0.00244865
C 0.51760699 2.17733124 24.33752224 0.00182044 0.00447356 0.00819801
C 1.95155222 5.34789285 3.57783487 -0.00849269 -0.00282926 0.00144611
C 1.45914875 0.23056970 2.84463774 0.00074878 0.00418892 0.00556824
C 8.06486848 4.52505858 2.69194669 0.00153714 -0.00255814 0.01042627
C 8.50981621 9.43340467 3.35680081 -0.00073449 0.00029564 -0.00246383
C 0.82501204 6.31066059 3.30450506 -0.00095143 0.00293952 0.00522585
C 2.69397428 1.05322908 3.21376860 0.00041259 -0.00668441 0.00069117
C 9.27048066 3.64326541 2.94966471 0.00185978 0.00192265 -0.00190158
C 7.21947157 8.70286762 3.25400799 -0.00152106 -0.00000768 0.00620583
C 0.08807856 3.63606416 11.09860123 -0.00106659 -0.00118996 -0.00259876
C -2.55941528 8.59077051 6.93024315 0.00517851 0.00252213 0.00191618
C 4.17323308 5.79238816 7.22024011 -0.00560733 -0.00307475 -0.00830827
C 6.73381973 1.09566631 11.29491814 -0.00529082 -0.00402833 -0.00366303
C 1.29601782 3.66503464 10.41968911 -0.00846768 -0.00447762 0.00098889
C 9.35539877 8.33034952 7.87693067 0.00396955 0.00906242 -0.00721883
C 2.92786684 6.02168062 7.88709044 0.00035467 0.00261881 0.00295978
C -5.00159512 1.45405257 10.48648406 -0.00170204 -0.00171406 -0.00323485
C 2.25763174 2.70230724 10.81987122 0.00248608 -0.00270907 -0.00567468
C 8.49488380 7.26633785 7.64861864 0.00417946 -0.00241613 -0.00988426
C 2.00617206 6.97115448 7.42515049 -0.00083215 0.00134599 -0.00308280
C -4.18048544 2.52956860 10.68885567 0.00534508 0.00002515 -0.00175965
C 2.00089204 1.77586805 11.89352662 0.00058410 0.00513851 0.00607643
C 8.65983482 6.53030714 6.50603292 0.00250516 -0.00137502 0.00336376
C 2.28778485 7.74094479 6.27988344 0.00017137 0.00537725 0.00215542
C -4.45770030 3.32017231 11.84549974 -0.00125728 0.00105353 0.00092918
C 3.75336496 2.06675146 6.60925181 0.00095968 0.00450395 0.00862567
C 6.78656245 6.59470622 11.85698093 0.00408966 0.00129090 -0.00191397
C 0.23867795 7.39938316 11.54707927 -0.00858042 -0.00527455 -0.00315202
C -2.62950845 2.78474550 6.51309908 0.00206125 0.00028752 -0.01179757
C 2.75777372 3.00755637 6.21268536 0.00050428 0.00115807 -0.00234441
C -5.49746438 7.91092616 11.87599706 0.00633540 -0.00050712 0.00105875
C 1.17658766 6.53582655 12.06467543 -0.00565044 -0.00100270 0.00131601
C 9.62279217 2.05236333 6.19577627 -0.00667025 0.00118337 0.00734769
C -1.18105815 4.96246915 9.47472387 0.00804545 -0.00525393 0.00274546
C -1.35617710 0.36558765 8.70000764 -0.00406798 0.00484831 0.00375454
C 5.07754894 4.41824701 8.91495017 -0.00256416 -0.00298535 -0.00300861
C 5.53867309 9.21043417 9.72364114 -0.00518895 0.00121554 0.00574125
C -2.43750671 5.86206185 9.27825880 -0.00772140 0.00140819 0.00434181
C 0.04838836 0.83836159 8.82718606 0.00430126 0.00239628 0.00304830
C 6.12645047 3.42102337 9.28374191 -0.00640775 -0.00255369 0.00919288
C 4.20217126 8.50184301 9.50332206 -0.00012015 -0.00410941 0.00114526
C -2.93462623 3.78940417 17.31770511 0.00171905 -0.00402427 -0.00013699
C -5.61219222 8.66294819 13.06565768 -0.00418515 -0.00843466 0.00001167
C 0.85508098 5.72988839 13.11060695 0.00131229 0.00731627 -0.00753765
C 3.74404761 1.07113781 17.46045925 0.00121385 -0.00263665 0.00369272
C -1.64101865 3.78749499 16.71142457 -0.00299003 -0.00266835 0.00423906
C 6.39804413 8.44732431 13.91194826 -0.00110203 -0.00099001 0.00153599
C -0.34744615 5.88099110 13.79170611 0.00263255 -0.00081504 0.00377258
C 31.29354976 1.30020852 16.43827842 -0.00026686 -0.00081843 -0.00440297
C -0.70351938 2.89393510 17.06730207 0.00242883 -0.00603131 -0.00355088
C 5.39003913 7.51562514 13.63652976 0.00346388 -0.00488717 0.00921369
C -1.28588020 6.71022428 13.27552388 0.00075973 -0.00090355 0.00293639
C -7.41997726 2.29767533 16.87582517 0.00375928 0.00594116 -0.00932960
C -0.94687547 2.00751452 18.17164252 -0.00269910 0.00358479 -0.00694237
C 5.53762925 6.65728605 12.48797558 -0.00083887 -0.00920962 -0.00193842
C -1.05338032 7.47872159 12.17384055 -0.00363319 -0.00120677 0.00297565
C -7.68906190 3.05887434 18.06609692 -0.00192599 -0.00070389 -0.00659675
C 0.79359617 1.96859776 12.62395806 -0.00326037 0.00113669 0.00344589
C 3.79680833 6.70194532 17.84767523 0.00224711 -0.00205513 0.00477454
C -2.71327919 7.70617293 17.74966535 0.00293716 0.00398275 0.00080326
C -5.59923576 3.05984375 12.59146991 -0.00026059 -0.00145086 0.01079492
C -0.15134716 2.83130032 12.23255280 0.00233089 -0.00132782 -0.00161805
C -8.30436997 7.79014592 18.05508257 0.00161167 0.00489570 -0.00341875
C -1.77280178 6.82659964 18.31681480 -0.00017238 0.00352874 -0.00704999
C 6.56732992 1.89877081 12.40544459 0.00475123 -0.00222242 0.00091419
C -4.10293071 5.26373098 15.77171196 0.00448395 0.00216727 0.00353867
C -4.23821107 0.47989289 14.66271410 -0.00111274 -0.00422253 -0.00086624
C 2.08053547 4.43116358 14.72933028 -0.00139912 -0.00806812 -0.00753207
C 2.69213169 9.17611593 15.73309834 -0.00123880 0.00487242 0.00249870
C -5.31329811 6.14630910 15.60299894 -0.00193696 -0.00422772 -0.00826051
C -2.94566667 1.20975430 14.87438188 -0.00198472 -0.00235826 -0.00411759
C 3.07457552 3.33009670 14.99877462 0.00037460 0.00611901 0.00520714
C 1.45734760 8.32424291 15.48217698 0.00404819 0.00030289 0.00411063
C -5.73616940 3.95322541 23.54213691 -0.00268931 0.00155278 -0.00495895
C -8.53976737 8.57599703 19.17986487 -0.00177211 0.00064889 -0.01245328
C -2.08319310 6.00078268 19.39504588 -0.00166332 0.00099693 0.00037378
C 0.78479104 1.16979622 23.30296419 0.00199288 0.00126808 0.00569820
C -4.57242169 3.86372631 22.79431167 0.00503530 -0.00050941 0.00050347
C 3.37003294 8.36461993 19.89887307 0.00133892 -0.00383184 0.00151666
C -3.27532695 6.23042492 20.09141918 -0.00266664 0.00318387 -0.00026342
C -11.12597629 1.26595851 22.77230838 -0.00257039 -0.00007351 -0.00158695
C -3.57773315 2.90489782 23.11354123 0.00262234 0.00016296 0.00477849
C 2.33023028 7.60633698 19.52176586 -0.00219314 0.00191046 0.00611295
C -4.17770962 7.18632720 19.57907400 -0.00319189 -0.00303703 0.00048650
C -10.17089040 2.17940147 23.22212514 0.00140807 -0.00520405 0.00945733
C -3.74774308 2.07787343 24.21304748 -0.00395960 -0.00052811 -0.00040732
C 2.53998238 6.68183563 18.46818335 -0.00311507 0.00142146 0.00002427
C -3.95364831 7.92901517 18.37678735 -0.00032216 0.00671406 -0.00550809
C -10.46466468 3.02982241 24.31416179 0.00623733 -0.00069031 0.00303296
C -2.23117690 2.02744773 18.81827174 -0.00542583 0.00245137 -0.00025814
C 0.66664475 7.00647948 23.83813307 0.00132315 0.00033739 0.00052499
C -5.65607505 7.86101881 24.00501181 0.00374487 -0.00406852 0.00553702
C -8.85922031 2.77272961 18.76083666 0.00493136 0.00011737 0.00665774
C -3.17175765 2.92389529 18.39393735 -0.00110784 -0.00003609 0.00162618
C -11.53737545 7.69107575 24.12053871 0.00257127 -0.00135120 0.00715268
C 7.30123029 6.93737172 0.07438848 -0.00159850 -0.00754878 -0.00268773
C 3.60646763 1.81380813 18.59954894 0.00174573 0.00389979 -0.00064650
C -7.13879486 5.01238657 21.89983443 -0.00092130 0.00148543 0.00354951
C -7.26274433 0.50887101 20.94632344 0.00076631 -0.00314515 0.00155994
C -0.97943867 4.52859879 20.89546869 0.00463118 -0.00167636 -0.00905003
C -0.46686604 9.49528328 21.68316759 -0.00702879 -0.00103241 0.00194121
C -8.32705877 5.82254605 21.62985718 -0.00244502 0.00384753 -0.00330999
C -6.07158370 1.41721655 21.14073469 -0.00212263 0.00272887 -0.00036867
C 0.18146217 3.52735991 21.07361176 0.00243683 0.00058168 -0.00789457
C -1.72382815 8.65848519 21.51809141 -0.00464917 -0.00300072 -0.00155312
C 3.11751546 13.37806977 4.96548794 -0.00345289 -0.00246962 -0.00030640
C 0.38092961 18.35160116 0.99524442 0.00340564 0.00177726 -0.00297223
C 7.10565382 15.69927159 0.81509530 -0.00444033 0.00172159 -0.00039040
C 9.66126543 10.81543246 4.88747012 0.00095992 0.00215068 -0.00206744
C 4.32857136 13.29801118 4.35816849 0.00009389 0.00743329 0.00439877
C 12.26577031 18.02740179 1.49279984 0.00330290 0.00057186 0.00100351
C 5.92396723 15.75272683 1.56130198 0.00075337 -0.00090764 -0.00143143
C -2.19729837 10.84215878 4.49257769 -0.00211021 -0.00542545 -0.00844148
C 5.31080108 12.45020970 4.85553935 -0.00281051 -0.00538981 -0.00240934
C 11.28755061 17.14128444 1.08405182 -0.00695906 0.00406349 0.00696312
C 4.90689078 16.61989037 1.17518387 -0.00133864 -0.00216838 -0.00469372
C -1.10340211 11.63669507 4.83612414 0.00132348 -0.00189200 0.00301025
C 5.10508001 11.77134265 6.07589313 0.00365833 -0.00219553 0.00401595
C -0.57543131 16.39566607 24.27752641 -0.00501262 0.00413625 -0.00476937
C -7.02265332 17.37461831 24.34981259 0.00249311 0.00396719 -0.00252387
C -1.22165992 12.48310960 5.99751948 0.00446303 0.00309643 0.00003874
C 7.13343148 11.90359969 0.48224110 0.00676285 -0.00099419 -0.00036961
C 9.78340649 16.49180862 5.59787748 -0.00101611 -0.00808945 -0.00966741
C 3.20396873 17.24875400 5.41712337 0.00082268 0.00189635 0.00005352
C 0.27463888 12.44988677 0.56487802 0.00414412 -0.00010323 -0.00149727
C 6.07416639 12.72621130 0.09440731 0.00160382 0.00784283 0.00062922
C -2.37488106 17.19920858 5.98499888 -0.00438906 -0.00243946 -0.00320671
C 4.12034299 16.38660093 5.85586210 -0.00006694 0.00888199 0.00312327
C 12.46485199 11.57982626 0.04477099 -0.00346454 0.00066620 -0.00670765
C 1.99528912 14.91013263 3.48183574 -0.00253164 -0.00564790 -0.00384441
C 1.86906829 9.82928246 2.32572864 0.00470724 0.00200299 -0.00756535
C 8.35435135 14.42850493 2.55163942 -0.00172242 0.00809736 -0.00236357
C 8.60784344 19.19940475 3.45447441 0.00102313 0.00622295 -0.00073389
C 0.69899654 15.50973014 3.22746978 -0.00596903 0.00384787 -0.00564569
C 3.12513333 10.69246733 2.32143828 -0.00578519 0.00418013 -0.00836944
C 9.53782840 13.50267307 2.81370940 0.00488162 0.00086183 -0.00054950
C 7.26894332 18.50032924 3.28424411 0.00497644 -0.00725534 -0.00260979
C 0.36248930 13.22896789 11.27699786 -0.00606924 0.00099766 -0.00367115
C -2.53783362 18.00466161 7.13768947 0.00150462 0.00084331 0.00197005
C 3.98707153 15.66113418 7.03347239 0.00014970 0.00057206 -0.00044645
C 6.84924614 10.46555056 11.26711605 0.00221750 -0.00179113 0.00359913
C 1.56983532 13.06418059 10.52901785 0.00321846 -0.00062652 0.00141008
C 9.32963271 18.24125848 7.79631561 0.00107390 0.00242609 0.00123556
C 2.73637890 15.72085287 7.71597434 0.00107725 0.00959048 0.00413084
C -5.04710582 10.99776776 10.49774581 0.00081603 -0.00480589 -0.00095497
C 2.56955564 12.19834482 10.98243121 -0.00048265 0.00454472 -0.00031616
C 8.28638461 17.40358327 7.40130562 -0.00184685 0.00366070 0.00299039
C 1.78715574 16.59021968 7.30010239 -0.00349324 0.00586154 -0.00164995
C -3.93761839 11.71255953 10.92393228 -0.00739005 -0.00074641 -0.00365645
C 2.47303350 11.41919628 12.17121743 -0.00249019 0.00215655 0.00403598
C 8.53783718 16.56026593 6.22787405 0.00459220 -0.00003274 -0.00266899
C 1.94973190 17.39382270 6.15410823 -0.00125229 -0.00091813 -0.00755052
C -3.97685143 12.57251577 12.02865509 0.00222162 0.00537765 0.00011284
C 3.82571440 11.77801486 6.60802773 0.00286065 0.00475895 0.00189139
C 6.85053297 16.83754403 11.45834169 -0.00758812 -0.00244503 0.00313892
C 0.46233403 17.24466860 11.56149631 -0.00176494 -0.00487360 0.00643519
C -2.46523619 12.54299530 6.65726334 0.00081602 -0.00066063 0.00368359
C 2.84168457 12.52693340 6.06569777 0.00144561 0.00832761 -0.00293266
C -5.26245589 17.62437930 12.02609047 0.00129891 0.00508620 -0.00112742
C 1.38950145 16.26614533 11.95323366 -0.00131233 -0.00030723 -0.00355228
C 9.42319332 11.60521729 6.00241944 -0.00084900 -0.00115108 0.00200512
C -0.83118109 14.59992736 9.72525973 -0.00233642 -0.00608304 0.00353666
C -1.34417030 9.81112722 8.59637317 0.00080575 0.00023733 -0.00292869
C 5.13712808 14.20111371 8.59416846 -0.00124276 -0.00870567 0.00324621
C 5.62706749 19.22488930 9.60722923 0.00761712 -0.00769852 0.00311334
C -2.08262217 15.44366691 9.70916295 -0.00261502 0.00095117 0.00946428
C -0.11648598 10.55350700 8.80060427 -0.00452904 -0.00162768 0.00324603
C 6.40785250 13.45737556 8.71988673 -0.00434082 -0.00041665 0.00043438
C 4.43315457 18.37569195 9.33186997 0.00452974 -0.00314976 -0.00010299
C -2.82118981 13.26581569 17.02715979 -0.00617713 0.00387327 0.00091582
C -5.37002842 18.39514939 13.18904954 0.00179496 -0.00322155 -0.00377749
C 1.28202653 15.50579498 13.09475634 0.00445687 -0.00108226 -0.00521089
C 3.71415118 10.70391010 17.25181230 0.00018537 0.00078790 0.00169118
C -1.63147288 13.13400787 16.31174642 0.00308619 -0.00456122 0.00241200
C 6.28509664 18.48529474 13.61826480 -0.00405763 0.00071269 0.00079939
C 0.02616265 15.62592245 13.76043635 0.00037038 -0.00494910 -0.00573429
C 31.26025663 10.93027075 16.55796628 -0.00681059 -0.00020461 -0.00513406
C -0.67990535 12.22171771 16.75212277 0.00763571 -0.00060231 0.00182686
C 5.28586363 17.62808908 13.13824773 -0.00482734 0.00025516 -0.00000602
C -0.97504583 16.45515955 13.34770852 0.01167258 0.00047775 -0.00364123
C -7.29436999 11.71590095 17.03828122 0.00774037 -0.00430052 -0.00399764
C -0.87947899 11.44935826 17.90650881 0.00717881 0.00552118 0.00866768
C 5.61347549 16.72537987 12.08147958 0.00241636 -0.00103627 0.00267671
C -0.78256404 17.26859166 12.20060507 -0.00795233 -0.00039961 -0.00983725
C -7.35782988 12.46629484 18.24161019 0.00263066 -0.00151873 -0.00095038
C 1.25200272 11.50474210 12.80405736 -0.00292818 0.00238487 -0.00201922
C 3.73484389 16.66842338 17.43264559 0.00488683 0.00589332 0.01143652
C -2.87492368 17.10047696 17.45334215 0.00453912 -0.00078686 -0.00722717
C -5.24136816 12.68714621 12.71710142 0.00204496 -0.00153272 0.00550420
C 0.25309199 12.39366491 12.44370175 0.00237421 0.00045077 -0.00199038
C -8.21786736 17.49522598 18.12965943 0.00012064 -0.00075397 -0.00036013
C -1.93431066 16.18830454 17.86721283 -0.00103286 -0.00054461 0.00057273
C 6.72178506 11.24880204 12.46134901 0.00486110 0.00266532 -0.01364354
C -4.05236844 14.59154300 15.42404569 -0.00295401 0.00021799 0.00092754
C -4.46474098 9.98713116 14.72159998 -0.00283194 -0.00700963 0.00442813
C 2.40268992 14.06663552 14.68536061 0.00480658 -0.00092695 0.00132593
C 2.60453588 19.03390614 15.52309386 -0.00450878 -0.00098935 0.00122726
C -5.25209888 15.40463336 15.08390452 0.00451926 -0.00365515 0.00116230
C -3.13996819 10.59220631 15.07806220 0.00398690 -0.00157765 0.00091849
C 3.73345215 13.34428252 14.84564396 0.00176810 0.00293465 0.00634642
C 1.52402094 17.95405298 15.27104274 0.00666349 0.00510581 0.00359055
C -5.78823080 13.47756040 23.30849856 -0.00024124 -0.00121259 0.00421170
C -8.53558778 18.26338530 19.27136666 0.00205949 -0.00792552 0.00523293
C -2.02814285 15.36724099 18.99670078 -0.00335792 0.00350855 -0.00346343
C 0.68472321 10.73847010 23.34394846 -0.00645502 0.00069604 0.00399709
C -4.53788897 13.38997289 22.65304584 0.00955600 0.00389100 -0.01002186
C 3.33268881 18.08610054 19.75934292 0.00388242 0.00372430 -0.00700064
C -3.24789303 15.42284164 19.66149528 -0.00289769 -0.00618486 0.00274221
C 28.31100727 10.90192077 22.72374962 0.00051911 0.00097337 0.00178456
C -3.49431628 12.57561899 23.10749438 -0.00164830 -0.00349405 0.00250714
C 2.27292090 17.35262669 19.21104399 0.00200845 0.00125926 0.00785743
C -4.22820472 16.31883305 19.28058329 -0.01022696 0.00354761 0.00270268
C -10.31324028 11.73595575 23.22995460 0.00087904 0.01256205 -0.00227652
C -3.63646712 11.81287396 24.26960577 0.00257568 0.00112607 -0.00741171
C 2.45155574 16.59795411 18.01485656 0.00078525 0.00204870 0.00051593
C -4.04156389 17.21371807 18.18179881 0.00550632 0.00119822 0.00074036
C 1.53385109 12.55445012 0.00841677 0.00520108 0.00385481 0.00380585
C -2.03374024 11.65817069 18.67051739 -0.00134159 -0.00350613 -0.00262024
C 0.69177760 16.51887008 23.56805167 -0.00375999 -0.00131125 -0.00735431
C -5.85908850 17.22276780 23.56209933 -0.00341858 0.00300683 -0.00055299
C -8.57494314 12.27459630 18.98144089 -0.00513476 0.00168867 0.00656715
C -2.99041067 12.53022921 18.23751235 0.00650561 0.00023704 0.00408718
C -11.49283372 17.64861797 24.11066504 -0.00549631 0.00736931 -0.00455419
C -4.81741836 16.34829909 23.93237116 -0.00634910 0.00357200 -0.00277079
C 3.51375008 11.57650893 18.33508039 0.00013473 -0.00097499 -0.00052350
C -6.91656955 14.93027340 21.72097357 -0.00299631 -0.00450395 -0.00080808
C -7.35585912 9.88954805 20.91020341 0.00321692 0.00016781 0.00567051
C -0.63727120 14.18181501 20.51897039 -0.00410382 0.00609006 0.00088731
C -0.64044373 18.85380919 21.76892124 -0.00125730 0.00092120 0.00545585
C -7.99600417 15.85339965 21.39110796 0.00129343 0.00178193 0.00551225
C -6.38871032 10.94872092 21.15079667 -0.00282372 0.00155213 0.00952507
C 0.76238825 13.58947961 20.64284444 -0.00907375 -0.00060409 0.00077458
C -1.75709226 17.90354754 21.62721483 -0.00178299 -0.00617273 -0.00641322
C 3.14736547 22.92772123 5.00548241 0.00015624 0.00194207 -0.00429950
C 0.37284460 27.88099791 1.19878299 -0.00190218 -0.00244464 -0.00120918
C 6.76825768 25.33836755 1.05039690 -0.00060809 0.00447053 -0.00271943
C 9.79213407 20.51009826 5.10957209 -0.00451429 0.00569646 0.00079068
C 4.34288131 22.77105738 4.30669970 -0.00244919 0.00001808 -0.00318547
C 12.32138980 27.79387750 1.76999231 0.00429458 -0.00534324 0.00266857
C 5.52833280 25.32946869 1.69771653 0.00067937 0.00578866 0.00042342
C 37.12319434 20.33244294 4.45673763 -0.00354268 0.00144074 0.00054703
C 5.38722305 22.01332217 4.80435640 -0.00135321 -0.00075370 -0.00187479
C 11.31986418 26.98098939 1.27997212 -0.00138980 -0.00161305 0.00087586
C 4.60148182 26.19558341 1.31370167 0.00397089 -0.00430047 0.00498376
C -1.36580006 21.18733574 4.72024583 -0.00254292 0.00845118 0.00238232
C 5.14828465 21.23685334 5.95253665 0.00193862 0.00661107 -0.00014282
C 11.55048102 26.14224945 0.16852405 0.00197149 0.00255634 0.00396378
C 4.70341533 27.10688721 0.20234442 -0.00208518 0.00517338 0.00195243
C -1.38997998 22.00462707 5.88924587 -0.00403731 0.00053805 0.00339255
C 6.65523455 21.44766182 0.33369128 -0.00332938 -0.00480789 0.00031904
C 9.86417816 26.31372671 5.35634882 0.00766359 0.00353192 -0.00190366
C 3.00204644 27.08143287 5.45139296 -0.00317909 0.00277212 -0.00174008
C 0.15832722 22.07825254 0.61030570 -0.00201756 -0.00687491 -0.00400110
C -6.32005914 22.36226120 24.31416599 0.00152834 -0.00331806 -0.00411193
C -2.27903925 27.20089580 6.06783791 -0.00198741 -0.00494681 -0.00538102
C 4.06138613 26.25586051 5.84687145 0.00207129 -0.00573509 0.00083201
C 12.34478577 21.18169229 0.12571199 -0.00190627 0.00267470 0.00247772
C 1.91969525 24.22175206 3.37162632 0.00120661 -0.00517087 0.00081162
C 1.58288744 19.70368643 2.60420866 -0.00565284 0.00288398 -0.00673899
C 8.06129441 23.85252836 2.43276563 -0.00294925 0.00322399 0.00140278
C 8.73658905 28.80822399 3.50377866 -0.00811574 -0.00389923 0.00087351
C 0.61855423 25.00379504 3.20881877 0.00106809 0.00093925 0.00201188
C 2.79600840 20.57939599 2.79095321 -0.00505212 0.00122755 0.00745028
C 9.35549209 23.12675482 2.53847178 -0.00684742 -0.00380530 -0.00664804
C 7.55348217 27.99476422 3.29528985 0.00034157 -0.00141917 -0.00499797
C 0.18680138 22.95837923 11.04048406 0.00127656 -0.00399706 -0.01346357
C -2.59355200 28.00736812 7.13785300 -0.00761416 -0.00013570 0.00406040
C 3.92121378 25.33853372 6.87359046 0.00005918 -0.00117232 0.00434798
C 6.86151166 20.62114353 11.16878952 -0.00156107 -0.00390838 -0.00581811
C 1.33666412 22.95206416 10.31113994 -0.00422476 0.00272830 0.00417482
C 9.42247373 27.72054527 7.75985810 0.00187796 -0.00268414 -0.00517145
C 2.69891647 25.26918434 7.53892807 -0.00626984 -0.00237940 -0.00253083
C -5.12947279 20.54719834 10.56062406 0.00484607 -0.00421063 -0.00077096
C 2.32846194 22.00941910 10.60212437 -0.00326966 -0.00009510 0.00005896
C 8.37189530 26.95450560 7.15093949 -0.00198562 0.00531956 0.01101901
C 1.63110187 26.05977952 7.19486880 -0.00308406 0.00281661 0.00398075
C -4.13521103 21.40235147 10.96104090 0.00372085 0.00128061 0.00016888
C 2.23310351 21.21846075 11.77944908 0.00606537 0.00051414 -0.00260919
C 8.57346220 26.31056428 5.91129777 0.00436865 0.00345606 0.00739873
C 1.81884855 27.02298182 6.17249244 0.00245857 -0.00216190 -0.00674544
C -4.21219011 22.17943123 12.18107837 0.00419664 0.00018814 -0.00759679
C 3.93469014 21.34462089 6.62469627 0.00031897 0.00211726 0.01032494
C 6.74408085 26.34578856 11.33159843 -0.00141725 -0.00124729 -0.00203516
C 0.46579421 26.89511211 11.46237423 0.00524176 0.00501450 0.00049883
C -2.55158105 22.01613315 6.65521185 -0.00011732 -0.00125792 0.00250968
C 2.96572194 22.15375370 6.14828129 0.00170639 -0.00704927 -0.00414531
C -5.19384784 27.15331148 12.18535293 -0.00518202 0.00825432 -0.00114770
C 1.40175182 25.97206689 11.91493443 -0.00001948 -0.00517920 -0.00121130
C 9.57017386 21.31796129 6.24345049 0.00432193 0.00135512 0.00036844
C -1.07635903 24.37974154 9.48344566 0.00246768 -0.00529612 0.00222562
C -1.38429286 19.42165605 8.70332320 -0.00376955 -0.00818716 -0.00130807
C 5.26475018 23.97305811 8.38085618 0.00290407 -0.00573877 -0.00206281
C 5.43204018 28.86720485 9.60482667 -0.00434113 -0.00104350 -0.00619579
C -2.20442674 25.33388362 9.24571025 -0.00186200 -0.00215771 -0.00099816
C -0.22033560 20.33549620 8.92000080 0.00848647 -0.00128116 0.00795822
C 6.55211528 23.25893165 8.51173508 0.00165390 -0.00053075 0.01166672
C 4.23110510 27.93293890 9.70816637 -0.00321356 0.00161274 -0.00158689
C -2.65582380 22.87860486 17.28551111 -0.00370926 -0.00241963 -0.00133453
C -5.46280338 28.06423959 13.19975958 -0.00014684 0.00754745 -0.00024242
C 1.11383073 25.15684876 13.00775655 -0.00584450 -0.01013038 -0.00240877
C 3.71728151 20.40415898 17.26863724 -0.00938922 0.00059953 0.00073714
C -1.39450861 22.75053057 16.65380205 0.00806110 0.00126857 -0.00138080
C 6.47402258 27.83135409 13.70980990 0.00259492 -0.00054995 0.00174287
C -0.04920505 25.32361380 13.68845186 -0.00381654 0.00412826 0.00409139
C -8.13944093 20.79605128 16.68788839 -0.00235620 -0.00093451 -0.00446955
C -0.41172279 21.86855227 17.07803847 -0.00391491 0.00715049 0.00129317
C 5.44776983 27.03241100 13.16811565 0.00054275 0.00189225 -0.00160340
C -0.98463271 26.28858423 13.30803608 0.00182838 0.00054876 -0.00758879
C -7.12784727 21.65595990 17.11098455 0.00493789 -0.00235603 0.00224852
C -0.71222871 21.05430316 18.18694160 -0.00741667 -0.00245335 -0.00515814
C 5.56562675 26.25117779 12.02772996 -0.00168440 -0.00631742 -0.00187400
C -0.75966498 27.03897857 12.16426532 -0.00728380 0.00029178 0.00432108
C -7.25356150 22.42397594 18.25890589 -0.00465271 -0.00483233 -0.00177586
C 1.08786210 21.26726309 12.55425130 0.00054688 -0.00041446 -0.00409524
C 3.92048938 26.16889997 17.47107803 0.00326219 -0.00088388 0.00629889
C -2.67420986 26.98432336 17.57890140 -0.00395537 -0.00056192 -0.00055893
C -5.39910397 22.08507128 12.92264802 -0.00691059 -0.00187770 -0.00243807
C 0.03459969 22.06817637 12.10767267 0.00306043 0.00415789 0.00505074
C -8.33705247 27.40654216 18.23680063 -0.00535149 0.00607231 0.00319196
C -1.75221864 26.08844453 18.17837072 0.00509081 -0.00731690 0.00139056
C 6.58160922 21.53986876 12.19037473 -0.00879440 -0.00224621 -0.00324700
C -3.66294485 24.43111533 15.69058861 0.00102032 0.00267454 -0.00248930
C -4.11951769 19.61440369 14.75868079 -0.00794691 0.00464286 0.00433618
C 2.25806216 23.99065423 14.68088640 -0.00189301 -0.01047732 -0.00035383
C 2.36916773 28.80226736 15.80239236 0.00052466 0.00004877 0.00478342
C -4.74264382 25.44691248 15.49452909 0.00123450 -0.00339128 -0.00681848
C -2.83524509 20.20502128 15.12465502 0.00000264 0.00059377 -0.00047585
C 3.52681797 23.26506028 15.06296208 -0.00779778 0.00359050 0.00546369
C 1.06661212 27.95125115 15.74768651 -0.00315294 0.00101043 0.00021167
C -6.03068528 23.29143488 23.24358434 -0.00205724 0.00397978 -0.00694274
C -8.52848231 28.32234182 19.30960632 0.01114723 0.00268456 -0.00337141
C -2.01704030 25.30516169 19.27014046 0.00021220 -0.00119048 0.00421807
C 0.45742843 20.36863604 23.32598777 0.00410767 -0.00094678 0.00055316
C -4.78280957 23.14060690 22.58524422 -0.00136191 -0.00477113 -0.00170920
C 3.45397382 27.71233503 19.81619753 0.00421584 -0.00032752 -0.00324498
C -3.24260689 25.45903723 19.91795753 -0.00063449 0.00956459 -0.00690840
C 28.05314756 20.58012317 22.69264611 0.00206974 -0.00894486 0.00170415
C -3.82963913 22.26302651 23.01974622 0.00172189 -0.00516394 -0.00974339
C 2.49615996 26.81163685 19.30391288 0.00517533 0.00216488 -0.00151918
C -4.08379933 26.41266762 19.43314905 0.00327819 0.00139820 -0.00165037
C -10.50506266 21.49670328 23.10424213 0.00422784 0.00109985 0.00412941
C -4.09542719 21.41113436 24.16306207 0.00062857 0.00484156 0.00558299
C 2.64280711 26.12960402 18.08547360 0.00289147 0.00439605 -0.00167592
C -3.95347061 27.10292690 18.19901284 -0.01213788 -0.00979493 0.00467663
C -10.66618413 22.35840942 24.17127182 0.00230431 -0.00482377 0.00260565
C -1.93925823 21.25698399 18.92650902 0.00032777 0.00241006 -0.00184055
C 0.75333168 26.22476224 23.90987774 -0.00127143 -0.00419721 -0.00349323
C -6.04349458 27.08870294 23.91019544 -0.00192636 0.00313569 -0.00263486
C -8.45688261 22.34388969 18.99377751 0.00300825 -0.00563357 -0.00417184
C -2.92245759 22.03221698 18.37531471 -0.00534429 0.00614132 -0.00367239
C -11.41854326 27.08621415 24.35918458 0.00152519 -0.01040799 -0.00481465
C -5.10795588 26.22789797 24.33808331 0.00143114 -0.00034610 0.00053789
C 3.38531837 21.20995974 18.42726808 -0.00268361 -0.00208828 -0.00229374
C -7.00302371 24.87078481 21.70560764 0.00109260 0.00074803 -0.00033245
C -7.38426570 19.62308348 20.97137850 0.00187718 0.00351168 -0.00804527
C -0.78531478 23.84733897 20.71884387 0.01096085 0.00136608 0.00264036
C -0.31328178 28.68533867 21.80546273 0.00476865 0.00736484 -0.00598905
C -8.24103765 25.60110110 21.43004259 -0.00554842 -0.00286724 -0.00356945
C -6.14346890 20.53094292 21.25191876 0.00139590 -0.00081157 0.00180177
C 0.50005998 23.05813820 20.92632801 -0.00672611 0.00011111 -0.00123495
C -1.52919787 27.91067732 21.68953624 0.00597716 0.00509265 0.00055128
C 16.39087297 3.87505731 5.13065369 -0.00266737 -0.00110780 -0.00065209
C 13.45554785 8.76473859 1.08599909 0.00673026 -0.00649541 -0.00140547
C 20.02847631 6.09740447 1.05832200 0.00024717 -0.00378026 -0.00135882
C 23.00497398 1.20838312 5.12131373 0.00617061 0.00457682 0.00869222
C 17.65086027 3.75196380 4.44439337 0.00355509 0.00372251 -0.00543290
C 25.49366835 8.56210140 1.53148111 0.00351043 -0.00193836 -0.00060606
C 18.88132740 6.31293769 1.78113505 -0.00169694 0.00341373 -0.00336357
C 11.08682746 1.20303925 4.57629364 0.00695316 -0.00116340 0.00438924
C 18.64363290 2.96854201 4.89924530 0.00184137 -0.00088079 0.00101865
C 24.45003861 7.73549055 1.20171161 -0.00121041 0.00745849 -0.00320611
C 17.82775318 7.06450332 1.30755409 -0.00044117 0.00150735 -0.00368170
C 12.10897456 2.02602964 5.01224544 -0.00394493 0.00472617 0.00379474
C 18.44316954 2.06433733 5.95459411 -0.00154104 0.00230303 -0.00067068
C 24.58873419 6.90177919 0.05148152 -0.00284988 -0.00104173 0.00406447
C 17.92318903 7.75469257 0.09161205 -0.00207174 -0.00548970 0.00069848
C 11.88853004 2.88199121 6.07909171 -0.00208642 -0.00152476 -0.00071621
C 20.05176452 1.84493138 0.46134990 0.00248634 -0.00313698 0.00044828
C 22.95726433 6.91229935 5.71073768 -0.00217053 -0.00066887 -0.00165455
C 16.43015082 7.72937079 5.78534615 -0.00667163 0.00202099 0.00411460
C 13.55424688 3.00515070 0.44290071 -0.00344962 -0.00250191 0.00376519
C 19.12159447 2.81534831 0.11816885 -0.00578096 -0.00097749 0.00010586
C 10.80928988 7.60034311 6.05844448 0.01150926 0.00304067 -0.00094080
C 17.34845781 6.73803766 6.01933398 -0.00131050 0.00286632 -0.00404198
C 25.74262091 1.79241235 0.24794967 0.00770776 -0.00246804 -0.00173748
C 15.16745794 5.15593620 3.57661705 0.00012187 -0.00405704 0.00299183
C 14.78370897 0.30279065 2.64884104 -0.00211753 -0.00153319 -0.00105112
C 21.29432826 4.76412770 2.58272082 -0.00419562 0.00180902 -0.00240354
C 21.73897323 9.53762661 3.63780576 -0.00069496 0.00156082 0.00217616
C 14.28016374 6.34376750 3.33872944 -0.00186260 -0.00266682 0.00018341
C 15.96330875 1.16012216 2.80300552 -0.00677540 0.00136993 0.00555561
C 22.64250961 3.93822664 2.67354220 0.00662710 -0.00438988 -0.00238957