2880
Time=49000.00000003 pbc="T T T" Lattice="39.46563984 0.00000000 0.00000000 0.00000000 29.12886831 0.00000000 -12.03600895 0.00000000 24.43421602" energy=-18398.07321692 virial="-39.05945473 -9.87312307 -31.95020844 -9.87312307 -38.43547985 10.72301978 -31.95020844 10.72301978 -57.05028971" stress="0.00103617 -0.00038795 -0.00115583 -0.00038795 0.00104289 0.00048208 -0.00115583 0.00048208 0.00045123" Properties=species:S:1:pos:R:3:vel:R:3
C 2.90786805 3.64885135 5.09258605 -0.00079293 0.00399017 0.00784424
C 0.29444702 8.58741411 1.09941626 -0.00177008 -0.00778023 -0.00924059
C 7.01590036 5.92226489 0.96511055 0.00270683 0.00162936 -0.00155224
C 9.82710143 1.04475473 5.11078025 0.00825989 -0.00188073 0.00630128
C 4.11466406 3.68689421 4.39661075 -0.00250796 0.00158215 0.00158071
C 12.35393389 8.48203957 1.71028810 0.00264455 -0.00480476 -0.01199705
C 5.71727518 5.81977540 1.51810290 0.00293935 0.00125674 -0.00123091
C 37.08594640 1.06878252 4.50219649 0.00100322 -0.00330319 0.00341304
C 5.14586439 2.76152833 4.64871157 -0.00229734 -0.00459747 -0.00367562
C 11.47527680 7.52862105 1.34529346 0.00225852 0.00264073 -0.00055090
C 4.67660516 6.64030530 1.16264451 -0.00198300 0.00582719 0.00232817
C -1.34102183 1.93662849 4.79130184 -0.00573072 0.00600658 0.00608158
C 5.01614941 1.90613427 5.75346658 0.00642003 0.00662720 -0.00084777
C 11.66553284 6.70770712 0.25001431 -0.00011701 -0.00047624 -0.00039523
C 4.82969682 7.60140873 0.13582147 0.00221808 0.00423784 0.00007321
C -1.44715188 2.88990688 5.87823601 0.00204810 -0.00278572 0.00672475
C 7.05321722 2.02446660 0.50386425 0.00324300 -0.00545143 0.00982624
C 9.71348815 7.12966126 5.47205257 -0.00277111 -0.00172695 0.00266158
C 2.93334099 7.64174147 5.47674256 -0.00317503 0.00869552 0.00507337
C 0.63198173 2.96516012 0.70423878 0.00006243 0.00329291 -0.00367791
C 6.09627151 2.96044796 0.11466059 -0.00408542 0.00411407 0.00358789
C -2.48810793 7.65040711 5.90878527 -0.00689670 0.00208103 -0.00322130
C 3.92325879 6.84662325 5.92904758 -0.00435397 -0.00201497 0.00225821
C 12.59196075 1.98059136 0.08826860 0.00729095 0.00694083 0.00145184
C 1.62537929 5.06285172 3.58805489 0.00032658 0.00772010 0.00063117
C 1.83052153 0.22544112 2.39780786 -0.00235235 0.01223300 -0.00422897
C 8.13661490 4.57822903 2.56069965 0.00274236 0.00149308 -0.00284358
C 8.53445195 9.31689819 3.70223654 0.00268699 0.00334247 0.00307731
C 0.30087999 5.78287920 3.46578183 0.00397693 0.01047879 -0.00208012
C 3.16956811 1.00193860 2.63299617 -0.00244890 -0.00347277 0.00077014
C 9.30369257 3.76479899 2.77624667 -0.00882804 0.00300561 -0.00732848
C 7.29129123 8.54554319 3.60270755 -0.00274097 0.00003940 -0.00072563
C 0.18327782 4.02566246 11.23576443 0.00708211 0.00486185 0.00300458
C -2.69050099 8.52405450 7.00790677 -0.00462596 0.00313979 -0.00647077
C 3.69648319 5.98240688 7.00286201 0.00421407 -0.01321613 -0.00143431
C 6.57615013 1.14547852 11.18565142 0.00603905 0.00239043 -0.00640144
C 1.49997992 4.01410610 10.70482166 0.00515589 0.00218387 0.00457132
C 9.36849533 8.38276519 7.95684556 0.00081689 0.00264250 0.00509814
C 2.55939690 6.10206382 7.76105007 0.00652629 -0.00008107 0.00669837
C 34.02448605 1.14863461 10.49452224 -0.00387595 -0.00254607 0.00461286
C 2.44312573 3.10566375 11.02348497 -0.00036123 0.00469776 0.00149285
C 8.36996550 7.55627716 7.46181921 -0.00257116 -0.00697117 -0.01245718
C 1.63956676 7.04264633 7.38708495 0.00108142 0.00388276 -0.00707243
C -4.41396965 2.04666723 10.89835964 -0.00018001 -0.00701839 0.00061822
C 2.13206450 2.20706643 12.04121158 -0.00355815 -0.00772683 -0.00748431
C 8.49869006 6.86170045 6.21313708 0.01061428 0.00353982 -0.00307880
C 1.80789770 7.85098057 6.26146713 -0.00299944 0.00359277 0.00053478
C -4.58533870 2.94062598 11.95895957 0.00282337 0.00205925 -0.00006350
C 3.84073809 1.97270733 6.48794681 -0.00113354 -0.00739295 0.01300097
C 6.85783445 6.73953946 11.86865772 0.00696186 -0.00531598 -0.00821809
C 0.18709813 7.71145562 11.66423826 0.00267780 0.00467560 0.00580068
C -2.69958959 2.79342193 6.64442938 0.00021233 0.00105893 -0.00484093
C 2.78731972 2.74030419 6.13470128 -0.00321039 -0.00143634 -0.00358515
C -5.28955260 7.88134454 12.21106260 -0.00571757 -0.00721528 0.00422738
C 1.22895992 7.06825540 12.23859154 0.00674409 0.00133919 0.00312373
C 9.51325172 1.90644996 6.14688255 -0.00365805 -0.00040004 -0.00261360
C -1.00701271 5.42261660 9.52177707 -0.00054688 -0.00199766 0.00836345
C -1.29063745 0.26022817 8.68569358 -0.00807284 -0.00530573 0.00349949
C 5.14839419 4.69409556 8.60939521 0.00093713 0.00075444 0.01005494
C 5.53984740 9.32845500 9.62443646 -0.00170938 0.00269475 -0.00395281
C -2.23612987 6.27302387 9.24473170 0.00371055 0.00347811 -0.00209926
C -0.24265076 1.24387292 8.83611294 0.00424221 -0.00452690 0.00240008
C 6.47776422 3.99653196 8.60256401 0.00413700 0.00335101 -0.00496028
C 4.34177289 8.46764965 9.32444947 -0.00175627 -0.00054636 -0.00665739
C -2.82449930 3.79379327 17.21971728 -0.00059637 -0.01319199 -0.00146456
C -5.46188935 8.73940234 13.30664804 0.00377936 0.00180326 0.00457824
C 1.09419815 6.11227885 13.32025552 -0.00725867 0.00344560 -0.00030100
C 3.67704203 1.22117753 17.23382984 -0.00765280 -0.00650744 -0.00053791
C -1.53823960 3.72971641 16.48858292 0.00182814 -0.00041441 -0.00003901
C 6.37882465 8.58007972 13.94166561 0.00036542 -0.00430108 -0.00343749
C -0.13919653 6.10889838 13.95929258 0.01298063 0.00128494 -0.00111917
C -8.02752401 1.26912720 16.72047738 0.00484687 0.00498512 -0.00835382
C -0.61894429 2.79314601 16.81115203 0.00005187 0.00195100 -0.01041197
C 5.41086871 7.63183531 13.55061825 -0.00585353 -0.00178439 0.00185893
C -1.15140102 6.93838550 13.51334296 -0.00354651 -0.00067947 0.00297759
C -7.05230930 2.12889021 17.13054884 -0.00159092 0.00294333 -0.00225308
C -0.70564757 1.89699300 17.92740174 -0.00473149 0.00686123 0.00285673
C 5.65751101 6.71779317 12.53869105 -0.00309433 0.00546676 -0.00371073
C -1.05362385 7.77770100 12.37991165 0.00239711 0.00215965 -0.00216901
C -7.22861662 2.89128678 18.27563545 0.00057140 0.00398468 -0.00120149
C 0.83973804 2.17846893 12.58102472 0.01016448 -0.00570559 -0.00245198
C 3.61150125 6.86338645 17.88124614 0.00107278 -0.00187928 -0.00659371
C -2.78737627 7.66664143 17.76101732 -0.00491566 -0.00212593 -0.00069726
C -5.83481772 2.83408552 12.68745961 -0.00202916 -0.00691993 0.00273810
C -0.15478066 3.14601418 12.27765820 0.00385223 0.00644210 -0.00340998
C -8.46066552 7.76057882 18.29575258 -0.00627418 -0.00068475 -0.00067435
C -1.90159644 6.69474144 18.07396227 0.00528508 -0.00855722 0.00425267
C 6.36169130 2.01177519 12.28625799 0.00233279 -0.00150264 0.00689477
C -3.92572268 5.14342097 15.58703557 -0.00632735 -0.00004497 -0.00478543
C -4.28813669 0.45600871 14.68569257 -0.00292299 -0.00063374 0.00459364
C 2.18859023 4.72857260 14.90925944 -0.00147036 0.00220476 0.00071630
C 2.49486321 9.61373816 15.66627716 0.00147249 0.00136703 0.00251884
C -4.99018600 6.19274928 15.35930796 0.00355575 -0.00097543 0.00519543
C -2.99899020 1.14556749 14.92550266 0.00256830 0.00049176 -0.00269823
C 3.33670067 3.79217794 15.20733680 0.00445422 -0.00610868 -0.00116657
C 1.40642523 8.58564725 15.60932543 -0.00334179 0.00236850 -0.00485384
C -5.74755070 3.77121703 23.41425429 -0.00773057 0.00307442 -0.00034061
C -8.70641450 8.66648183 19.38883648 0.00032309 0.00408172 0.00782648
C -2.08738219 5.85645349 19.24863726 -0.00352260 0.00330851 -0.00551684
C 0.73369511 1.28959205 23.37445371 -0.00008349 0.00109624 -0.00337649
C -4.53755989 3.69436451 22.72545585 0.00007132 -0.00022256 -0.00107075
C 3.45277775 8.33974014 20.26823836 0.00112559 0.00035238 0.00094278
C -3.21057480 6.04662236 20.03936527 -0.00423773 0.00383688 0.00254033
C -11.10670408 1.43549295 22.82384217 0.01039351 0.00097947 -0.00034643
C -3.56098241 2.83702973 23.09667848 -0.00296902 0.00563695 0.00146632
C 2.50862323 7.40513419 19.96216575 0.00808705 0.00246948 -0.00495144
C -4.22688446 6.94414186 19.62353548 -0.00376560 -0.00865694 -0.00171268
C -10.19765178 2.46923383 23.11740066 -0.00185258 -0.00877296 0.00180096
C -3.75897992 2.01515507 24.23742984 0.00160611 -0.00142435 0.00065602
C 2.54535926 6.64104767 18.76616904 -0.00072563 -0.00800788 -0.00373226
C -4.03194999 7.74224592 18.54191673 -0.00201449 0.00087264 -0.00331602
C -10.26497812 3.16357353 24.33727905 -0.00044809 0.00175643 0.00157860
C -1.95359852 1.99944464 18.55983517 0.00784441 0.00450496 0.00292328
C 0.75438969 6.92200869 23.87189438 -0.00684388 -0.00788158 -0.00965944
C -5.97084309 7.65118342 23.84471229 -0.00543809 0.00231374 -0.00505033
C -8.41666299 2.85326415 19.00003385 -0.00031869 0.00359804 0.00179150
C -2.93342113 2.96799090 18.32287623 0.00521699 0.00734006 -0.00583935
C -11.49285372 7.73177981 24.43169281 -0.00093512 0.00049604 0.00899979
C -4.87633538 6.84329990 24.34355534 0.00417595 -0.00673917 -0.00015008
C 3.34413347 2.11381051 18.24890961 0.00029348 -0.00614471 0.00109623
C -7.01360715 5.11258578 21.83831534 0.00893798 -0.00283994 0.00804387
C -7.49008923 0.39741475 21.01161858 0.00357082 -0.00238690 -0.00286798
C -1.01681650 4.58542461 20.96699176 -0.00460603 0.00379601 0.00174537
C -0.63220723 9.29847213 22.22110645 -0.00488590 0.00445849 -0.00376147
C -8.27213098 5.97082676 21.72676635 0.00781305 -0.00783274 -0.00167719
C -6.32408778 1.25288368 21.15628266 0.00504270 0.00202052 0.00192117
C 0.02992661 3.60249777 21.25873465 -0.00019726 0.00476459 -0.00691347
C -1.90793007 8.61973900 22.22525724 -0.00260745 -0.00479223 0.00362973
C 3.10724778 13.21223894 5.30306073 -0.00381672 -0.00507826 -0.00186451
C 0.30249790 18.28111763 1.08188632 0.00064268 0.00402134 -0.00081391
C 7.04419416 15.56825837 0.91479547 0.00499810 0.00743326 0.00306834
C 9.66161226 10.92155553 5.16545249 -0.00235214 0.00873836 0.00930715
C 4.33638844 13.16594098 4.58878461 -0.00195587 0.00447321 0.00636134
C 12.57681466 18.26870431 1.73539903 0.00210953 0.01057311 -0.00428765
C 5.81316120 15.74946514 1.61815164 0.00147324 -0.00026915 -0.00453340
C 37.15641962 10.77672379 4.44983364 -0.00036007 -0.00235851 0.00071109
C 5.30196076 12.19244203 5.01190611 -0.00379116 -0.00543116 0.00739851
C 11.56970325 17.37122814 1.37289931 0.00170167 -0.00848667 -0.00627751
C 4.80410847 16.52269085 1.05704175 0.00341491 0.00128083 -0.00271137
C -1.42785398 11.79807248 4.78870523 -0.00237383 0.00339513 0.00077952
C 5.22225613 11.32463249 6.12619221 0.00482045 -0.00387934 -0.00062738
C 11.81309193 16.48897916 0.34746291 0.00258584 0.00296175 -0.00125488
C 5.10106871 17.45826570 0.03111405 0.00191234 0.00563210 0.00224125
C -1.65625835 12.56821985 5.97366881 0.00125291 -0.00216265 -0.00424995
C 6.83236851 11.74850537 0.94085910 -0.00044005 0.00306670 -0.00090287
C 9.68576187 16.59711638 5.40126754 -0.00225446 -0.00440857 0.00462080
C 3.48245151 17.40456339 5.57214544 0.00503040 -0.00255458 0.00900644
C 0.36018560 12.76871812 0.36304340 0.00432726 0.00016252 0.00269957
C 5.91900612 12.62229591 0.39963212 -0.00850491 0.00356549 0.00220777
C -2.50344129 17.28013624 5.84731751 0.00364351 0.00070320 0.00046102
C 4.27503090 16.35701046 5.98999102 -0.00218076 -0.00006894 -0.00036649
C 12.62931568 11.60208273 0.30171732 0.00250510 0.00364996 -0.00569411
C 1.91615652 14.57622310 3.63402629 -0.00041759 0.00354793 0.00558355
C 1.49170208 9.97849246 2.61787556 -0.00470044 -0.00910300 0.00184904
C 8.24004988 14.28777495 2.57202017 -0.00756192 0.00281790 -0.00354134
C 8.37215852 18.92654943 3.53660266 0.00665409 -0.00011352 -0.00019877
C 0.76822805 15.56212173 3.39775775 -0.00560862 -0.00580125 0.00504477
C 2.76094374 10.80071802 2.71452407 0.00553506 -0.00534414 0.00416037
C 9.19683217 13.20147227 2.89273071 -0.00162374 0.00156438 0.00350430
C 6.95527091 18.33345684 3.39276310 0.00469625 -0.00018301 -0.00669299
C 0.04390450 13.56084909 11.28543092 -0.00906280 0.00041855 -0.00317083
C -2.58874526 18.16582404 6.97561333 0.01013077 0.00132697 -0.00202799
C 3.97620847 15.61235655 7.09113325 -0.00414716 0.00051149 0.00308823
C 6.70833309 10.82438898 11.15703082 0.00752230 -0.00069261 -0.00303276
C 1.26242207 13.47625634 10.58495028 -0.00179377 0.00164276 -0.00201005
C 9.26844696 18.08000756 7.73712646 -0.00715800 0.00236708 0.00402545
C 2.76488458 15.93516286 7.78331917 0.00222167 -0.00102481 0.00338554
C -5.06691245 10.84334264 10.51857726 -0.00337403 -0.00700427 0.00458901
C 2.24269553 12.54393317 10.91512210 -0.00226818 0.00031763 0.00219660
C 8.33232079 17.16681527 7.34692432 -0.00130064 -0.00029718 -0.00537116
C 1.81920847 16.76643994 7.25935929 0.00351664 0.00271348 -0.00036850
C -4.18805365 11.80258258 11.02274929 -0.00641034 -0.00441861 0.00894615
C 2.13669005 11.87562514 12.12646511 -0.00923702 -0.00462831 -0.00180158
C 8.51738697 16.38310863 6.18265689 -0.00301803 0.00215184 0.00221182
C 2.21149276 17.59119279 6.16639794 -0.00289032 0.00235915 -0.00662147
C -4.47885191 12.42617102 12.24526570 -0.00055863 -0.00259560 -0.00029742
C 4.04580946 11.55637126 6.85111661 0.00425760 -0.00324644 0.00480173
C 6.82925600 16.76052036 11.64781914 0.00150961 0.00259406 0.00107119
C 0.24784872 17.45367426 11.70837808 0.00015057 0.00363117 0.00503107
C -2.82061250 12.25772968 6.79150737 0.00277123 0.00050816 -0.00385002
C 2.98172403 12.33453307 6.39730664 -0.00168152 -0.00224961 0.00463501
C -5.27467186 17.28367871 12.05069484 -0.00350934 -0.00077426 -0.00307384
C 1.17089921 16.52835545 12.07796811 -0.00845439 0.00651587 -0.00100813
C 9.54576104 11.79738895 6.26117848 0.00455838 0.00088229 0.00222950
C -1.05871497 14.93313315 9.59398460 -0.01230775 0.00257777 0.00350143
C -1.53335157 9.87833288 8.61847850 -0.00449972 -0.00073516 -0.00491103
C 5.09524561 14.22569359 8.77413987 0.00890086 0.00493847 -0.00143594
C 5.76537835 18.91299801 9.60408389 -0.00045315 -0.00273118 0.00249061
C -2.19634521 15.75818528 9.19109656 0.00007009 -0.00130435 0.00462396
C -0.47948933 10.96264733 8.77552502 0.00370939 0.00121800 -0.00299652
C 6.29066283 13.38881921 9.03374774 -0.00020504 0.00200068 0.00400539
C 4.68596129 17.91580896 9.42099107 0.00313406 -0.00288410 -0.00346192
C -2.77666919 13.39003307 17.71473248 -0.00413313 -0.00286228 0.00498832
C -5.48833794 18.01709065 13.23777786 -0.00360551 0.00118239 0.00223681
C 0.85904230 15.70885318 13.12945179 0.00843662 -0.00799137 0.00130724
C 3.78586302 10.89858113 17.38568349 0.00780910 -0.00519776 0.00943449
C -1.62282736 13.17765264 16.95187669 0.00127965 0.00834830 -0.00765637
C 6.31645569 18.30292848 13.95050811 0.00458882 0.00555911 0.00800544
C -0.31832305 15.72579709 13.87841411 0.00428586 0.00309716 -0.00091107
C 31.15545257 10.92233368 16.74756475 -0.00455358 -0.00275361 0.00052594
C -0.70932774 12.27164591 17.39167765 0.00266083 -0.00010693 -0.00139463
C 5.41831313 17.38800813 13.55496585 0.00323850 -0.00607634 0.00688549
C -1.28163352 16.63989337 13.41191437 -0.00450326 0.00272004 -0.00062689
C -7.32858011 11.83561316 17.15169187 0.00406215 -0.00636913 0.00110120
C -0.85793228 11.45178394 18.55975916 -0.00679545 -0.00056610 0.00264434
C 5.65036045 16.58922164 12.41546287 0.00096623 0.00307303 0.00826995
C -1.00628616 17.54328409 12.40187509 -0.00200610 -0.00384898 0.00556209
C -7.56197806 12.75526615 18.14939998 0.00738308 0.00065616 -0.00237443
C 0.87742755 11.89610192 12.76436268 0.00062174 -0.00040423 0.00459584
C 3.86091751 16.42963442 17.83045313 0.00749766 0.00184335 -0.00407884
C -2.87270805 17.22817783 17.51628434 -0.00370972 0.00380856 -0.00793061
C -5.63677409 12.18283668 12.92966476 0.00220854 -0.00175610 0.00014823
C -0.10950233 12.72347824 12.39456504 -0.00839926 -0.00252596 -0.00405255
C -8.47311978 17.46453101 18.11650553 -0.01490483 0.00448693 -0.00590317
C -1.86950559 16.39204307 17.96037927 -0.00572156 0.00813270 0.00489430
C 6.41875195 11.64684616 12.21024824 -0.00191422 0.00142923 0.00257587
C -3.97188862 14.71450687 16.07415531 -0.00544970 0.00550132 0.00376905
C -4.11697085 10.01254008 14.92416289 -0.00061183 -0.00676586 0.00140641
C 2.19585552 14.40757600 14.81183833 -0.00142180 0.00421519 0.00077587
C 2.43808208 18.99099763 15.62756548 -0.00205238 0.00271378 0.00261876
C -5.16249474 15.50499712 15.83880021 -0.00768325 0.00291055 0.00484110
C -2.79125790 10.75508909 15.08729730 0.00471941 0.00099296 0.00127071
C 3.55161734 13.80479127 14.99587978 -0.00064894 0.00622664 -0.00021030
C 1.45416278 17.88751136 15.61374528 0.00268982 0.00101493 -0.00637770
C -5.95421773 13.37095059 23.69599322 0.00192127 -0.00605168 -0.00233266
C -8.72807728 18.35088263 19.21438965 0.00076963 0.00184238 0.00077951
C -2.01264527 15.80050324 19.21823481 0.00157253 -0.00703805 -0.00021173
C 0.64580349 10.85022199 23.57328249 -0.00817750 -0.00125811 0.00547516
C -4.72439566 13.18859035 23.09842264 -0.00127964 -0.00443650 0.00140777
C 3.21133907 18.19518730 19.95613375 -0.00200050 0.00227560 0.00530533
C -3.18927464 15.97293839 19.93675330 -0.00188114 0.00668380 -0.00112232
C -11.08454315 11.00639027 22.79975672 0.00250888 -0.00168805 0.00146967
C -3.83600995 12.18726446 23.41813170 0.00014059 0.00935019 -0.00421280
C 2.35252557 17.17669635 19.56937637 0.00369231 0.00113492 -0.00045331
C -4.12088560 16.85673588 19.48981491 0.00950315 0.00431558 -0.00674184
C -10.14574935 11.93034449 23.16844656 -0.00701611 -0.00795309 0.00142146
C 8.07410061 11.47849810 0.20147938 -0.00447199 -0.01484862 -0.00384082
C 2.66846789 16.32050533 18.54457569 -0.00393500 0.00294587 -0.00400654
C -3.94756219 17.54895308 18.30201332 0.00054171 0.00581923 0.00115470
C -10.40718058 12.81647497 24.24691067 0.01087118 -0.00307342 0.00610064
C -1.94806486 11.76167206 19.33428183 -0.00043059 0.01203613 0.00457776
C 0.99452272 16.54670662 24.09870453 0.00152681 -0.00660563 -0.00680413
C -5.71650213 17.30565620 23.80425319 0.00791025 -0.00079569 0.00447383
C -8.80284046 12.63772362 18.82983923 0.00310453 -0.00951618 0.00348204
C -2.92062026 12.69209379 18.91602161 -0.00569724 -0.00085411 0.00586430
C -11.51868939 17.56003875 24.31529377 -0.00410421 0.00483390 0.00547803
C -4.76584810 16.45188315 24.28230875 -0.00847217 0.00142859 0.00130662
C 3.60452495 11.61224019 18.60051306 0.00038289 0.00119846 0.00982042
C -6.98858018 14.76987423 22.01652103 -0.00539109 -0.00175893 -0.00122409
C -7.50348874 10.03064132 20.97783699 0.00118603 0.01073280 0.00992476
C -0.90273399 14.40648863 20.88115865 0.00346180 0.00166999 0.00275728
C -0.34439968 19.10070138 21.88874388 0.00662292 -0.00332601 -0.00167355
C -8.07646090 15.73389192 21.82683117 0.00297896 -0.00601971 0.00369612
C -6.54843744 11.14590706 21.25806031 0.00728874 -0.00669352 -0.00320520
C 0.18106408 13.42177253 21.18889150 -0.00549273 -0.00478272 -0.00163511
C -1.54181615 18.23008852 21.65455956 -0.00454210 -0.00085167 -0.00018803
C 3.32796117 23.09093869 5.08233380 0.00257636 -0.00783930 -0.00463455
C 0.66744362 27.92379059 0.91281956 -0.00640174 0.00027400 0.01009930
C 6.93031438 25.31608646 0.72698276 -0.00345161 0.00226731 -0.00341595
C 9.73920309 20.21112441 5.13295728 -0.00348583 -0.00093071 -0.00048095
C 4.60941446 23.00996224 4.46916540 0.00375401 -0.00036045 -0.00526208
C 12.13524833 28.06463217 1.47699339 -0.00591815 -0.00475710 -0.00025091
C 5.68593303 25.43214795 1.42243073 -0.00248922 0.00079096 0.00075538
C -1.88902035 20.57668537 4.61374507 -0.00506746 -0.00329302 0.00111294
C 5.51467037 22.05123560 4.86392786 0.00589309 0.01243692 0.00730638
C 11.26845225 27.03524213 1.11437405 0.00198706 0.01051161 0.00141743
C 4.69953942 26.27487277 0.94189332 -0.00261178 0.00165398 0.00241704
C -0.92186655 21.34273432 5.12332411 0.00035278 -0.00480147 0.00038176
C 5.34662492 21.35189917 6.02408649 0.01048004 -0.00120064 0.00212286
C 11.56712581 26.18722405 0.05094363 -0.00566227 -0.00249103 0.00208014
C -7.04297339 27.13789115 24.29367603 0.00274267 0.00146495 -0.00292700
C -1.18154163 22.21698629 6.14808880 -0.00594040 0.00274819 -0.00122036
C 6.73288283 21.39661354 0.39224046 -0.00514521 -0.00068648 0.00241355
C 9.88377533 26.03065597 5.68928167 0.00288907 -0.00145017 0.00172600
C 3.24361132 26.92491648 5.29613425 0.00195698 0.00163295 -0.00375389
C 0.31449501 22.12496779 0.44327109 0.00234992 0.00692433 0.01221650
C -6.22826920 22.34858914 24.38422750 -0.00001311 0.00223199 -0.00026216
C -2.20192806 27.20961363 6.02568771 0.00354309 0.00351165 -0.00274803
C 4.23517756 26.17262492 5.86056644 0.00084305 0.00572287 -0.00479678
C 12.61530757 21.26348983 0.17413098 0.00239397 -0.00325260 -0.00076948
C 2.16969636 24.30210605 3.38859119 -0.00503161 0.00025633 0.00167019
C 1.39212569 19.75998672 2.61011653 -0.00117078 0.00291764 0.00191850
C 8.21669424 23.85159397 2.33640166 0.00267082 0.00773032 -0.00345988
C 8.65754339 28.75252172 3.55387514 0.00415882 -0.01180416 0.00429569
C 0.92575798 25.16016237 3.12179001 -0.00250187 0.00254215 -0.00497163
C 2.58400891 20.66552633 2.85525759 0.00299563 -0.00023100 -0.00201801
C 9.10289947 22.65805339 2.52751670 -0.00525572 0.00108800 -0.00333913
C 7.44822498 27.95904004 3.37933602 0.00184492 -0.01374040 0.00134965
C 0.19396151 22.97681723 11.20307236 -0.00146013 -0.00310464 -0.00064794
C -2.40323598 27.98418689 7.15006257 0.01171822 0.00101450 0.00172173
C 4.05276341 25.36983731 7.03325644 -0.00304422 0.00225046 0.00578946
C 6.82257217 20.48025135 11.13853355 0.00283602 -0.00071381 0.00634386
C 1.28327276 22.75680600 10.39963016 0.00305821 -0.00075506 0.00601618
C 9.26476515 27.68037293 7.76868930 0.00048123 0.00002338 -0.00011666
C 2.76491493 25.40325834 7.57690944 -0.00233061 0.00384040 0.00378240
C -5.10068932 20.46402366 10.61639204 -0.00473043 -0.00647472 0.00265549
C 2.28910597 21.82782351 10.72032650 -0.00087838 0.00369854 -0.00196908
C 8.30041339 26.79531818 7.32379180 -0.00155658 -0.00657637 0.00494263
C 1.78514878 26.22528611 7.07277505 -0.00508450 -0.00396760 0.00230365
C -4.11184570 21.37479025 10.88184437 0.00770673 -0.00542152 -0.00408889
C 2.16663316 21.02608312 11.88655614 0.00614727 0.00167891 0.00539231
C 8.57596689 25.97899864 6.25405445 0.00357802 -0.00076687 0.00133323
C 1.99227349 27.03814998 5.93320483 0.00933053 -0.00211971 0.00704124
C -4.18652211 22.18892872 12.05904422 0.00039039 0.00787165 0.00462660
C 4.14946126 21.46895177 6.75191505 0.00628433 0.00197458 0.00333060
C 6.91954049 26.21016900 11.74663569 0.00095099 -0.01004386 0.01276816
C 0.24753026 27.14143528 11.63823619 0.00054901 0.00278604 -0.00262117
C -2.40240006 22.09890896 6.80170450 0.00089264 -0.00178477 0.00240151
C 3.15446893 22.24832524 6.22587777 0.00293030 0.00273847 0.00278347
C -5.17690903 27.17326988 12.22931386 0.00345036 -0.00218910 0.00299978
C 1.21646320 26.26104588 12.00401339 -0.00181028 0.00488718 -0.00652091
C 9.53981917 21.06857603 6.17075850 0.00353072 0.00095573 -0.00372054
C -1.14342603 24.46520535 9.80675085 0.00592025 -0.00014944 0.00966321
C -1.34285604 19.53315341 8.56714424 -0.00168157 -0.00501726 -0.00197037
C 5.20591149 23.90496648 8.63017160 0.00698964 -0.00229910 0.00268258
C 5.41113858 28.90058720 9.60446300 -0.00530965 0.00111873 0.00263201
C -2.27307914 25.38831381 9.77957428 -0.00099318 0.00122970 -0.00207958
C -0.09116310 20.38922046 8.76175036 0.00369517 -0.00407371 0.00467613
C 6.36040754 22.99167128 8.93979112 0.01001924 -0.00200493 0.00336679
C 4.14687209 28.12627957 9.48002677 -0.00189036 0.00099275 -0.00461252
C -2.99257060 23.12035584 17.41199148 0.00013192 -0.00037464 0.00149611
C -5.46261253 28.17875875 13.24089418 -0.00164898 0.00487048 -0.00053350
C 0.94841271 25.36896739 13.12464628 0.00998579 0.00025334 -0.00037316
C 3.63129883 20.45523013 17.13785841 0.00176963 0.00155398 0.00389041
C -1.79537088 22.93450583 16.68338264 -0.00045328 -0.00142437 -0.00253875
C 6.23071891 27.93579854 13.86471835 0.00491555 -0.00073760 0.00056497
C -0.17966199 25.50314875 13.93344339 -0.00017802 0.00192503 0.00001591
C 31.11964876 20.41999323 16.54890391 -0.00038898 -0.00476063 0.00159414
C -0.78869834 22.02491242 17.04472296 0.00522552 0.00143378 -0.00035925
C 5.34722389 26.99119069 13.34523088 -0.00126103 -0.00065540 0.00422574
C -1.15824436 26.33470833 13.46926435 0.00020324 0.00397845 -0.00612054
C -7.46926025 21.43550313 16.79779937 0.00396978 0.00661553 -0.00174588
C -1.03109241 21.23390424 18.16321952 -0.00038302 0.00050231 0.00121361
C 5.61257694 26.15196087 12.31517817 0.00754214 -0.00547148 -0.00302827
C -0.96917149 27.21456613 12.37090758 0.00062916 -0.00013871 -0.00340403
C -7.76783541 22.35775895 17.86830568 -0.00195173 0.00485133 -0.00666631
C 1.05849702 21.22048167 12.71125178 -0.00896726 0.00448970 -0.00111824
C 3.83762433 26.30158688 17.63769157 -0.00150288 0.00449133 0.00152269
C -2.84040523 27.15373020 17.60840854 0.00315185 0.00134657 0.00545462
C -5.41640850 22.08078530 12.77911005 0.00630971 0.00019504 -0.00048987
C 0.07995317 22.14726294 12.36000886 0.00413723 0.00920087 -0.00208908
C -8.43306833 27.26979863 18.22148828 -0.00017083 -0.00298738 -0.00597134
C -1.88271811 26.27916461 18.02001414 -0.00307538 -0.00148016 -0.00692941
C 6.55683249 21.28017017 12.27348798 0.00502780 -0.00412289 0.00315055
C -4.19284736 24.56253018 15.80371899 0.00075443 -0.00316013 0.00853948
C -4.43034995 19.54391235 14.75662998 0.00036946 0.00210040 0.00402791
C 2.08238511 23.80464922 14.62015712 -0.00287309 0.00142635 0.00240307
C 2.63208431 28.80157928 15.73212239 -0.00590653 0.00169803 -0.00569971
C -5.34850042 25.47713052 15.63381432 0.00065691 0.00379433 -0.00122608
C -3.26151581 20.45782136 15.01750826 -0.00267344 -0.00378533 -0.00028346
C 3.29653372 22.91425725 14.72522963 -0.00147059 -0.00398303 0.00509016
C 1.32125291 28.07657994 15.50325097 -0.00313440 -0.00305433 0.00143631
C -5.94361591 23.04674830 23.24916659 0.00680916 -0.00762036 0.00467924
C -8.56499042 27.93441351 19.49597207 -0.00249860 -0.00296800 0.00444579
C -2.15463397 25.43209082 19.13838680 -0.00931691 -0.00467890 0.00080297
C 0.83201393 20.43661007 23.50103903 0.00041226 -0.00410293 0.00323642
C -4.65162175 23.02354994 22.72667649 -0.00467827 0.00413438 -0.00037932
C 3.39341198 27.81069656 19.93133987 0.01029916 0.00161647 -0.00720032
C -3.37229753 25.56851724 19.86102009 -0.00803922 0.00234159 -0.00229600
C 27.95442588 20.52902138 22.62646074 0.00221990 -0.00017720 0.00441795
C -3.71042710 22.13063231 23.17138444 -0.00293307 -0.00220999 -0.00201789
C 2.46542441 26.85164748 19.57932135 0.00034766 0.00125202 -0.00289507
C -4.26886701 26.52635257 19.46419285 -0.00607416 -0.00033740 -0.00767194
C -10.47981976 21.40543735 22.94422229 0.00129624 -0.00369602 -0.00423998
C -4.06455028 21.15428313 24.17236573 0.00136603 -0.00018701 0.00747011
C 2.55161362 26.08157735 18.37836247 -0.00124196 0.00229046 -0.00349813
C -4.08296062 27.30371759 18.23563138 -0.00007603 -0.00553003 0.00517598
C -10.51668169 22.08607928 24.13490887 -0.00312457 0.00102186 -0.00129492
C -2.28800582 21.32277816 18.83584818 0.00286766 -0.00208783 0.00217884
C 0.74470146 26.30778510 23.86857480 -0.00193697 -0.00535334 -0.00086620
C -5.71353898 27.25909702 23.76700649 0.00785204 -0.01266753 -0.00218173
C -8.90255314 22.11227024 18.60490831 0.00710090 -0.00180246 0.00535167
C -3.23263867 22.29849806 18.50958752 0.00349213 0.00426691 0.00307517
C -11.21796455 27.06621163 24.23112890 0.00965644 -0.00387160 0.00208679
C -4.84644583 26.34676305 24.23172374 -0.00886846 -0.00295413 0.00371154
C 3.32835458 21.31228201 18.23829969 -0.00039408 0.00423272 0.00144366
C -6.96880760 24.47537618 21.58877325 0.00759113 0.00403163 0.00132065
C -7.54469955 19.75618307 20.77515416 -0.00678615 0.00261038 0.00302776
C -0.97706136 24.09290667 20.80398474 -0.00980148 0.00103620 0.00327138
C -0.31809949 29.08712489 21.69845302 0.00487155 0.00074223 0.00155021
C -8.29990084 25.23764162 21.33987235 -0.00224556 -0.00059899 0.00069897
C -6.41241526 20.66707436 20.87724045 0.00352786 0.00039887 0.00615049
C 0.27604731 23.33342583 21.01365365 -0.00957794 0.00742739 0.00221084
C -1.50641686 28.27277371 21.35715856 0.00483655 -0.00050081 -0.00019641
C 16.21720723 3.72169924 5.28105977 0.00680157 -0.01005998 -0.00059952
C 13.56302966 8.57953221 1.05922584 0.00428967 0.00136436 -0.00776280
C 20.30138190 6.14517756 1.00842868 0.00538893 0.00794506 0.00668999
C 22.95901935 1.14215442 5.05821545 -0.00513348 -0.00032966 0.00294423
C 17.40149525 3.63405928 4.56082734 -0.00249655 0.00590258 -0.00060898
C 25.46534319 8.89401013 1.64184890 -0.00323520 -0.01086531 -0.00643310
C 19.01531622 6.19127370 1.63928023 0.00156095 -0.00369466 -0.00133790
C 11.09373563 1.11178255 4.50238205 -0.00090248 -0.00040010 -0.00089786
C 18.48198855 2.87865198 4.95430933 -0.00142792 0.00247111 0.00248399
C 24.56525669 7.91155359 1.27538779 0.00322214 -0.00034876 -0.00633044
C 18.01233552 7.10267083 1.32372168 0.00729598 -0.00177545 0.00327220
C 11.98811508 2.10237005 4.93253543 0.00406483 0.00118134 0.00346464
C 18.31825558 1.96736664 6.00628708 -0.00938760 -0.00491928 0.00220559
C 24.75352089 6.99996594 0.23855350 -0.00719193 -0.00167844 -0.00534147
C 18.11717303 7.80931646 0.15539200 -0.01009134 0.00328297 0.00421077
C 11.76145284 2.88190783 6.01538660 -0.00458919 -0.00694575 -0.00414648
C 20.31220926 2.04950489 0.57525278 0.00117813 0.00711633 0.00043024
C 22.89300987 6.78325247 5.58785818 -0.00119407 0.00249221 0.00352827
C 16.37191456 7.86193455 5.51005314 0.00329292 -0.00020275 0.00093420
C 13.52739297 2.92978945 0.53528407 -0.01011074 -0.00460660 0.00103976
C 19.37339007 3.00825452 0.19014799 0.00115800 -0.00328493 -0.00752402
C 10.63943345 7.98252530 5.98053456 -0.00417732 0.00343844 -0.00394429
C 17.31443342 6.98806652 5.89412943 -0.00179649 0.00495338 0.00674208
C 25.85726660 1.87752867 0.24888198 0.00235951 0.00123476 0.00374057
C 15.08315172 5.22977295 3.71451052 0.00594741 -0.00412383 -0.00008246
C 14.71526517 0.21168265 2.50021906 -0.00717546 -0.00146458 0.00280699
C 21.50342246 4.59115796 2.43846459 -0.00006029 -0.00211972 -0.00388055
C 21.72682448 9.58557933 3.45796745 0.00357386 -0.00185204 -0.00277052
C 13.93275385 6.16686422 3.47548046 0.00224136 0.00171430 0.00114963
C 15.96793225 1.02781766 2.86549588 0.00401600 -0.00050233 0.00188397
C 22.64104014 3.68524514 2.53337069 -0.00063399 -0.00333269 -0.00348016