2880
Time=60000.00000005 pbc="T T T" Lattice="39.45771664 0.00000000 0.00000000 0.00000000 29.09669973 0.00000000 -12.00052695 0.00000000 24.29036483" energy=-18397.75613964 virial="-26.51499722 -21.03623059 -57.35220371 -21.03623059 0.32245197 0.43664081 -57.35220371 0.43664081 19.74336545" stress="0.00168029 -0.00075198 -0.00210731 -0.00075198 0.00242656 0.00008447 -0.00210731 0.00008447 0.00314511" Properties=species:S:1:pos:R:3:vel:R:3
C 3.10872434 3.99066372 5.11465098 -0.00233235 0.00478520 -0.00946482
C 0.37791419 8.69414460 0.89669580 -0.00230703 -0.00292420 0.00213873
C 7.00290740 5.86797002 1.03991877 -0.00251014 0.00527097 -0.00011826
C 9.40269562 0.87603257 5.20069405 -0.00539761 0.00207087 0.00393019
C 4.33426805 3.74210432 4.41239943 0.00999266 -0.00102822 -0.00589556
C 12.40403173 8.56042977 1.92920293 0.00211869 -0.00184712 0.00127641
C 5.76687123 5.95839551 1.67136713 0.00447771 0.00097352 -0.00139356
C -2.10744119 1.26302529 4.50203650 -0.00548851 -0.00382696 -0.00295801
C 5.17503742 2.77555172 4.89083702 0.00437741 -0.00575816 0.00162969
C 11.32801607 7.78889568 1.53352758 0.00310475 -0.00900719 0.00520529
C 4.80704722 6.86765053 1.20257654 -0.00102578 0.00610883 0.00111034
C -1.09183660 1.99934071 5.01573505 0.00028668 -0.00152480 -0.00007065
C 4.87908676 1.99144256 6.02338709 0.00432555 0.00732056 -0.00584523
C 11.45097193 7.07266975 0.29639456 0.00404774 0.00291759 -0.00077495
C 5.05641710 7.71671755 0.06403003 0.00153906 0.00175243 0.00217511
C -1.30164294 2.83914151 6.11013493 0.00082467 0.00465678 -0.00343270
C 6.74849776 2.01172830 0.60318934 -0.00205884 -0.00577631 0.00022077
C 9.59134434 6.99070974 5.69751513 0.00258071 0.00636261 0.00106793
C 3.34335258 7.66841745 5.84921117 0.00419978 -0.01040727 0.00097534
C 0.01232547 2.90046114 0.39371726 -0.01105359 0.00515825 0.00219771
C 5.76310680 2.94335685 0.18603566 0.00047073 -0.00225607 0.00301011
C -2.31282150 7.81544857 5.94093754 -0.00247227 -0.00383701 -0.00143948
C 4.24143346 6.72855648 6.30264755 -0.00759825 0.00160365 0.00233223
C 12.30966789 1.92544813 0.38739405 -0.00227244 -0.00313407 0.00036802
C 1.98462603 5.24121931 3.33071292 0.00373578 0.00283620 0.00317110
C 1.34787681 0.35875322 2.39328216 -0.00698205 0.00246690 0.00393901
C 8.07672928 4.41070790 2.60004501 0.00149953 0.00631141 -0.00128446
C 8.40662979 9.29381176 3.76881406 -0.00281878 0.00061773 0.00267277
C 0.82813134 6.16156545 3.02766849 -0.00002154 -0.00405306 -0.00481965
C 2.48849570 1.39591300 2.56823594 -0.00260285 0.00357734 0.00288664
C 9.29333888 3.50527702 2.84727920 0.00729995 0.00110819 0.00251718
C 7.38123932 8.20396289 3.63194155 0.00208938 -0.00097640 0.00094187
C 0.19334464 3.67422580 11.22839646 0.00180647 -0.00334762 -0.00541982
C -2.57509727 8.68017681 7.04503950 0.00201974 -0.00273463 0.00083398
C 3.95471906 5.81103810 7.34839980 -0.00256000 0.00443692 0.01033446
C 6.84526170 1.03697270 11.41323016 0.01000005 0.00200873 -0.00038990
C 1.38005974 3.51962726 10.45277919 0.00033288 0.00134405 0.00837681
C 9.27659496 8.51233897 7.95357217 0.00636802 -0.00209548 0.00053478
C 2.65531604 5.92425694 7.94471677 -0.00631449 0.00178878 0.00253414
C 34.30153062 1.16959675 10.32238943 0.01053296 -0.00204745 -0.00364611
C 2.31411246 2.61736747 10.85205693 0.00503189 -0.00245628 -0.00182500
C 8.24701474 7.75649195 7.55994599 -0.00142979 -0.00430863 -0.00293202
C 1.79008017 6.82228248 7.46459482 0.00392051 -0.00434947 -0.00391270
C -4.14435817 2.00826535 10.72349341 0.00066753 -0.00186319 -0.00135120
C 2.11508930 1.84096004 12.02358537 -0.00545431 0.00058444 0.00131636
C 8.40312498 6.89760589 6.40196444 0.00420908 0.00069441 -0.00156122
C 2.04296070 7.71919092 6.44200709 0.00376979 -0.00258160 0.00129433
C -4.33566974 2.85281385 11.86182786 -0.00384512 -0.00190601 -0.00114873
C 3.50392272 1.97747336 6.40894518 -0.00029739 0.00221501 0.00020610
C 6.65324960 7.13876134 11.75960326 0.00834594 0.00084147 0.00148202
C 0.21467739 7.71967825 11.80100350 -0.00340124 -0.00202443 -0.00050401
C -2.60448442 2.79239590 6.74824484 -0.00334712 0.00055739 0.00326989
C 2.67913678 3.01384629 6.01965666 0.00900046 0.00522651 -0.00460092
C -5.22952773 7.75780327 12.18180600 -0.00785003 0.00021818 -0.00201270
C 1.18622439 6.87733971 12.27206883 0.00059557 -0.00115738 -0.00298826
C 9.25810722 1.78919561 6.26170652 -0.00068720 0.00627099 0.00308518
C -0.94535444 5.13355393 9.60390136 0.00181566 0.00586171 -0.00851392
C -1.50412674 0.34234119 8.66553164 0.00042310 -0.00569531 0.00101001
C 5.09714475 4.62276482 9.00480049 -0.00380029 0.00601389 -0.00865810
C 5.55774972 9.41403664 9.67919861 -0.00323959 -0.00108998 0.00272510
C -2.09080136 6.09798425 9.44639778 0.00596590 -0.00480769 0.00283687
C -0.25904922 1.10845583 8.88733613 0.00096854 0.00082792 0.00253806
C 6.41710101 3.97966380 9.43402033 0.01231773 -0.00597330 0.00108437
C 4.22011301 8.55183785 9.51151648 0.00284819 -0.00319606 -0.00849935
C -2.62046081 3.97717830 17.40846269 -0.00000117 -0.00274476 -0.00280607
C -5.57556713 8.65154328 13.22849919 -0.00099524 0.00367460 0.00973400
C 0.91515613 5.95813872 13.34790494 -0.00711986 -0.00120044 0.00476891
C 3.75509239 1.24146510 17.50713671 0.00040222 -0.00532824 -0.00013152
C -1.39612573 3.75053495 16.79273442 -0.00399410 -0.01049315 0.00508575
C 6.26125914 8.56021765 14.12773620 -0.00028404 0.00141235 0.00299732
C -0.24044511 6.06871263 14.01829589 -0.00114693 0.00240339 -0.00542936
C -8.05027620 1.20080922 16.58148651 -0.01137783 -0.00274075 0.00107911
C -0.56354557 2.74361846 17.23454247 0.00576764 -0.00008519 0.00253922
C 5.31155334 7.68498667 13.72418644 0.00567682 -0.00591044 0.00089865
C -1.23919201 6.90284494 13.57791157 0.00389418 -0.00225122 -0.00812132
C -7.05003313 2.06337191 16.89589951 -0.00718304 -0.00057171 0.00146827
C -0.92119729 2.02878767 18.36369909 0.00289103 -0.00173008 -0.00591487
C 5.44715017 6.96308997 12.50433564 0.00194790 0.00488083 -0.00087591
C -1.06126588 7.70844020 12.43078102 0.00267975 -0.00089042 -0.00279788
C -7.34381400 3.01183503 17.98456206 -0.00009495 0.00532348 -0.00047754
C 0.92014465 1.97579442 12.74447243 -0.00274721 0.00007405 0.00549396
C 3.81923114 6.91936965 17.88108412 0.00393504 0.00087455 0.00208012
C -2.45407987 7.71450879 17.72738521 -0.00076656 0.00498859 0.00017812
C -5.58732767 2.76999053 12.52043595 0.00278472 -0.00015193 0.00166033
C 0.04260169 2.89350795 12.34616599 0.00824122 0.00232552 0.00010912
C -8.24437119 7.59725478 17.94567472 -0.00348126 0.00049041 -0.00076767
C -1.47919291 6.92734272 18.34942274 0.00031964 0.00258707 -0.00360959
C 6.59256042 1.84088260 12.57682359 -0.00300340 0.00712034 0.00095378
C -3.73814115 5.10634348 15.57201601 0.00100514 -0.01429361 0.00458551
C -4.06917767 0.36804513 14.63408895 -0.00074164 -0.00040441 0.00435877
C 2.09361863 4.53949586 14.90072952 0.00061718 0.00133222 0.00095323
C 2.53841169 9.38908689 15.79392387 -0.00749722 -0.00483216 -0.00320999
C -4.83394007 5.94891100 15.16186114 0.00169859 0.00189926 -0.00853601
C -2.78266674 1.08440069 14.48407519 -0.00054114 -0.00309818 0.00079206
C 3.29951627 3.60207325 15.03483386 -0.00248762 -0.00324438 -0.00291481
C 1.37955294 8.53939674 15.54262677 -0.00176252 0.00295768 0.00398783
C -5.97882991 3.79013837 23.39599518 -0.00691308 0.00237445 0.00115765
C -8.45186116 8.45810901 19.02925692 -0.00196454 -0.00418247 0.00583580
C -1.76426332 6.03838478 19.38120244 -0.00422114 -0.00223979 -0.00091609
C 0.44584208 1.08921848 23.53581145 0.00252597 0.00092483 0.00079908
C -4.71627378 3.67620683 22.75546346 -0.00106087 -0.00013449 0.00410040
C 3.32651253 8.49355941 20.10065990 0.00448886 0.00186335 -0.00047816
C -3.07623322 6.09273424 19.91862918 0.00372947 0.00007217 -0.00496317
C 28.00319831 1.33363849 22.41792994 0.00200342 0.01045100 -0.00107672
C -3.75115855 2.84392753 23.22704453 -0.00195034 0.00067949 -0.00737981
C 2.26018019 7.76150751 19.57681559 -0.00027807 -0.00201072 0.00027803
C -3.92661344 7.13164095 19.55973848 0.00301591 -0.00050975 -0.00694099
C -10.54666322 2.22141478 22.91579519 0.00312699 0.00485186 0.00711421
C 7.98517547 1.97300386 0.05011559 -0.00483764 -0.00202268 -0.00193982
C 2.54229423 6.91180753 18.48968396 -0.00082336 -0.00122034 -0.00211733
C -3.68443528 7.92571105 18.38105338 -0.00106628 -0.00379189 -0.00012243
C -10.80716616 3.05547844 24.03174399 -0.00592323 0.00811265 -0.00029954
C -2.13426916 2.25538764 18.99596422 -0.00066323 0.00485946 -0.01011876
C 0.64106304 7.19270340 23.82912367 0.01077049 0.00045201 -0.00029336
C -5.61392214 7.68447038 23.92522035 0.00131811 -0.00512496 -0.00537723
C -8.50111566 2.90914411 18.71920529 -0.00168723 0.00099239 -0.00483575
C -2.95813642 3.23813214 18.55704652 0.00399584 0.00018637 -0.00264489
C -11.43185659 7.75701988 24.11072480 -0.00965116 -0.00483499 0.00447792
C -4.70970348 6.74572910 24.24859430 0.00965708 -0.00806353 -0.00163040
C 3.49168060 2.06426594 18.59026449 -0.00624231 -0.00425536 0.00517978
C -7.03392736 5.16196581 21.65396684 0.00262914 -0.00843345 -0.00337446
C -7.45395923 0.37991056 20.71263766 -0.00499433 -0.00466586 0.00310811
C -0.62806818 4.62937449 20.97877550 -0.00136155 -0.00623155 0.00149360
C -0.48651417 9.56802918 21.93582536 -0.00091353 -0.00372236 -0.00646046
C -8.02713150 6.27171721 21.44557857 0.00313046 -0.00140701 0.00102651
C -6.32244580 1.30482481 20.75341194 0.00334781 0.00341468 -0.00250622
C 0.55291721 3.75521971 21.19588153 -0.00254963 0.00038740 0.00882275
C -1.55629353 8.52814379 21.87036586 -0.00381925 0.00006770 -0.00211950
C 3.06292767 13.31501738 5.01303174 -0.00295294 0.00324915 0.00051127
C 0.39279133 18.05385974 0.77558037 0.00327492 0.00335638 0.00610311
C 6.92073803 15.44314379 1.02514678 0.00426761 0.00381337 0.00262474
C 9.65974750 10.60443107 5.39235544 0.00580564 -0.00686343 -0.00110892
C 4.33248574 13.29657164 4.44562358 0.00589600 0.00129357 0.00177045
C 12.42655151 18.02605403 1.71083019 0.00154625 -0.00274353 0.00039145
C 5.67072677 15.52768636 1.65422610 -0.00375274 -0.00345862 0.00864718
C 37.02291650 11.02451411 4.34901605 -0.00147626 -0.00019776 0.00663388
C 5.29847927 12.40887527 5.05446251 0.00289306 -0.00227946 -0.00214998
C 11.58891666 17.05448194 1.24577943 -0.00062924 0.00035782 -0.00057601
C 4.74540436 16.44746340 1.13311950 -0.00214903 -0.00201212 0.00482104
C -1.39031925 11.85284217 4.61932042 0.00110404 0.00807721 -0.00113086
C 5.02690258 11.58929728 6.17331879 -0.00039038 -0.00691117 0.00508905
C 11.86522774 16.29110486 0.11461417 -0.00080361 0.00021480 -0.00280305
C 5.06093893 17.26407890 0.00343621 0.00077894 -0.00140408 0.00805948
C -1.53766787 12.77219458 5.67499835 -0.00103315 -0.00792305 -0.00042420
C 7.01840598 11.69278731 0.36612525 -0.00380632 -0.00004166 -0.00027556
C 9.49354228 16.47949233 5.45370066 0.00302302 0.00142335 0.00269971
C 3.19061736 17.27403433 5.47947094 0.00400044 0.00284094 -0.00588687
C 0.43275713 12.68822869 0.34189482 -0.00033928 -0.00209764 -0.00636824
C 6.05028691 12.53944574 0.03301104 -0.00407133 -0.00527265 -0.00301806
C -2.46262914 17.59528212 5.59320318 -0.00045721 0.00035082 0.00868986
C 4.10523024 16.29345978 5.88957285 -0.00091257 -0.00313729 -0.00481999
C 12.63274060 11.73147896 0.33573964 0.01014065 0.00067400 0.00826472
C 1.91897901 14.61307281 3.28424870 -0.00202193 -0.00267851 -0.00663131
C 1.72400168 9.89707123 2.56322267 -0.00281125 0.00482326 0.00875567
C 8.07855945 14.04678586 2.66664591 0.00249117 -0.00687060 0.00147287
C 8.38450293 18.69458665 3.40486032 0.00026873 0.00611685 -0.00159213
C 0.58338828 15.24255905 2.87347046 0.00755298 0.00132349 -0.00424884
C 2.87918319 10.71386974 2.82460641 -0.00122946 -0.01140015 -0.00025694
C 9.17037256 13.04031297 2.89736924 -0.00536250 -0.00731667 0.00105609
C 7.31904224 17.68603821 3.34290508 0.00212453 -0.00276631 0.00439163
C 0.06047441 13.52467350 11.20952698 0.00355246 0.00210819 -0.00526929
C -2.63408738 18.29359454 6.81726454 -0.00222194 0.00733237 -0.00243286
C 3.87060805 15.43478539 6.96191313 0.00082849 0.00034991 -0.00152839
C 6.58222566 10.90776518 11.26602359 -0.00962726 0.00167601 -0.00292897
C 1.39238452 13.44141054 10.61155406 -0.00896825 0.00040984 0.00146948
C 9.21124277 18.03497090 7.70141930 0.00051724 0.00019734 -0.00151722
C 2.64182384 15.53394879 7.58423905 0.00148337 0.00419537 0.00325185
C -5.05163340 10.90212332 10.29980727 0.00184491 0.00366361 0.00663513
C 2.26463230 12.51339935 11.02021036 0.00867254 0.00071348 0.00489168
C 8.23660507 17.11035135 7.42091035 -0.00308569 0.00172663 -0.00162238
C 1.71683626 16.47439710 7.22060347 0.00639945 0.00115102 -0.00084649
C -4.16939687 11.86942000 10.67003866 0.00108000 0.00349486 -0.00132167
C 1.98264468 11.69375773 12.13713144 0.00229638 0.00390094 -0.00581783
C 8.27385727 16.41949311 6.22634223 0.00612683 0.00051499 -0.00625199
C 1.93122089 17.34425453 6.13080636 -0.00008610 -0.00065586 0.00340348
C -4.46454387 12.83329665 11.66964928 -0.00411060 0.00358394 -0.00443756
C 3.77574443 11.76064112 6.70905622 0.00431392 0.00203715 0.00229087
C 6.85051028 16.37717144 11.75124558 -0.00296512 -0.00054146 -0.00528916
C 0.33865111 17.26565690 11.47455984 0.00208290 -0.00014938 0.00336853
C -2.67882348 12.63176695 6.48130570 -0.00266492 0.00806546 -0.00029959
C 2.79779848 12.55824429 6.16476483 0.00647130 -0.00104827 0.00244623
C -5.10682686 17.50132315 12.20978919 -0.00105906 -0.00326471 0.00611037
C 1.29015364 16.37525175 11.95480948 -0.00313441 -0.00963581 -0.00395385
C 9.54532275 11.48284904 6.45619185 0.00132134 0.00433296 -0.00465541
C -1.05217450 14.66976716 9.40150128 -0.00302503 -0.00275702 0.00282231
C -1.27507305 9.97713673 8.75420421 0.00417317 0.00005870 -0.00614354
C 5.07102632 14.12347431 8.67690325 0.00116791 0.00448395 -0.00444668
C 5.43331112 18.97802626 9.38918817 -0.00504582 0.00043367 0.00423828
C -2.15508986 15.60283139 8.99638968 0.00202326 0.00269235 0.00106407
C -0.17943841 10.91621724 8.98599680 -0.00046041 0.00618562 0.00147418
C 6.31518590 13.35299078 8.91483282 0.00181517 -0.00274691 -0.00133649
C 4.28966597 17.95767078 9.21001720 -0.00066213 -0.00237423 0.00337928
C -2.66352974 13.37020671 17.05684281 0.00158516 0.00042607 0.00574090
C -5.32336951 18.35677265 13.25371349 -0.00348733 -0.00103363 0.00440494
C 1.04564656 15.64950466 13.15435392 0.00042941 -0.00135535 0.00532810
C 3.66812357 10.77322101 17.36723231 -0.00130735 -0.00190281 0.00638623
C -1.48248100 13.22177242 16.43610322 0.00283654 0.00205613 0.00248422
C 6.22194303 18.27261880 13.62871886 -0.00159449 -0.00002834 0.01054563
C -0.21680115 15.73638104 13.74059903 0.01144048 0.00312816 -0.00289942
C 31.21981633 10.93445444 16.19714036 0.00311882 0.00068894 0.00232780
C -0.45362532 12.46650969 16.90485358 0.00218033 0.00355625 -0.00087904
C 5.29112076 17.30059632 13.21843676 0.00151989 0.00249450 -0.00248758
C -1.20686163 16.61602243 13.22865007 0.00540891 -0.00015749 0.00700322
C -7.19900277 11.80201204 16.56087481 0.00035328 0.01017547 -0.00415245
C -0.62091686 11.58653358 18.02572148 0.00183015 -0.00103332 0.00248091
C 5.57753825 16.33521351 12.30381877 -0.00596760 -0.01068102 -0.00077303
C -0.88455032 17.43884940 12.16657427 -0.00131537 0.00011972 -0.00391704
C -7.23397156 12.42115071 17.87718601 0.00308421 0.00256393 -0.00004473
C 0.71590272 11.76046343 12.71571540 -0.00304978 -0.00188097 -0.00298862
C 4.11944598 16.63857384 17.74634444 -0.00491057 -0.00864192 0.00098108
C -2.68904364 17.23868674 17.56856740 0.00492885 -0.00736015 -0.00257108
C -5.63118771 12.66436482 12.37537368 -0.00983350 -0.00313703 -0.00126609
C -0.23439041 12.60265086 12.21263280 0.00301915 0.00610380 0.00105349
C -8.15997702 17.52013840 18.12017849 -0.00012484 -0.00241395 0.00255828
C -1.60815339 16.46185915 17.96253725 -0.00708537 -0.00309097 -0.01077796
C 6.06576117 11.78076129 12.22117596 0.00004368 -0.00226004 -0.00142921
C -3.94444171 14.71435762 15.50054430 -0.00009557 0.00221786 -0.00416457
C -4.47141041 10.06666983 14.78075426 0.00182336 0.00764033 0.00367513
C 2.15172802 14.27076338 14.85138296 -0.00342492 -0.00282468 -0.00039335
C 2.49899513 19.38589601 15.53556970 -0.00303829 -0.00109288 -0.00143491
C -5.15138908 15.54943005 15.30611877 0.00107143 0.00190779 0.00389133
C -3.22443003 10.76903985 15.09697338 -0.00304820 -0.00162562 -0.00863031
C 3.17135743 13.26753837 15.12169329 0.00928662 -0.00462742 0.00167970
C 1.32344304 18.43517738 15.38831581 0.00197255 0.00186129 -0.00101391
C -5.82469268 13.46955249 23.22643235 -0.00114878 0.00506119 0.00259437
C -8.32806928 18.34593530 19.26652815 -0.00890107 -0.00301277 0.00148398
C -1.77770944 15.55211797 19.02521899 0.00232878 0.00154991 0.00727966
C 0.77770521 10.99067966 23.44704127 -0.00571453 0.00482467 -0.00696489
C -4.62071074 13.37346927 22.47584601 -0.00421608 0.00050417 -0.00283396
C 3.58595777 18.31612847 19.81775108 -0.00653975 0.00409762 0.00085004
C -2.99150588 15.63045282 19.78033480 0.00398039 -0.01067706 -0.00494546
C 28.27961034 10.80300637 22.50191115 -0.00627198 0.00641441 0.00269521
C -3.62565370 12.47284377 22.81526366 0.00034853 0.00505616 -0.00731533
C 2.64755095 17.24990045 19.50039847 -0.00660219 0.00131679 -0.00285859
C -4.04155435 16.41446164 19.39273276 0.00561769 -0.00915698 0.00234667
C -10.12060109 11.61659050 22.95543044 -0.00181651 0.00008353 -0.00311711
C -3.72466065 11.73557488 24.03224384 0.00246044 0.00080160 -0.00552436
C 2.89134064 16.45462810 18.44903839 -0.00387808 0.00247390 -0.00238534
C -3.94818904 17.13364426 18.21266443 -0.00273532 -0.00479268 0.00094253
C -10.31120361 12.57947525 24.01032753 0.00057638 -0.00919649 0.00359667
C -1.86938752 11.61226666 18.58924293 0.00139108 -0.00664067 0.00054519
C 1.06180688 16.48173661 23.70449307 -0.00281263 0.00385727 0.00371738
C -5.66718913 17.11131431 23.74346218 -0.00669170 -0.00461388 -0.00701446
C -8.49347878 12.38040138 18.54411177 0.00467002 -0.00269104 0.00641183
C -2.84112433 12.51831004 18.20017233 -0.00133492 -0.00332271 -0.00041164
C -11.43104394 17.30969281 23.88661190 0.00001394 -0.00456305 0.00193846
C -4.78028272 16.19140686 24.17998556 0.00443203 -0.00054381 -0.00574847
C 3.37564661 11.56263325 18.46355768 0.00239142 -0.00930664 -0.00338544
C -7.06904556 14.67666711 21.50405798 0.00088712 -0.00551939 0.00305357
C -7.28275312 9.93533464 20.60583740 0.00292486 -0.00252304 0.00446723
C -0.39488925 14.21229054 20.52974027 0.00018294 0.00303603 0.00044828
C -0.34819878 19.04133216 21.74073793 0.00042725 -0.00143487 0.00374898
C -8.29453839 15.45460829 21.29122798 0.00306009 0.00075471 -0.00386250
C -6.10146254 10.86583494 20.69322087 -0.00068863 -0.00445442 -0.00285883
C 0.81732491 13.35365652 20.62327735 0.00023883 -0.00555869 -0.00136921
C -1.68927483 18.32992698 21.48534837 -0.00006362 -0.00383978 -0.00322253
C 2.95039740 23.08601784 4.78493642 -0.00518400 0.00767018 -0.00971067
C 0.17413038 28.12080304 0.80079425 -0.00113876 -0.00179069 0.00468563
C 6.87729539 25.34658841 0.91821575 -0.00537434 0.00005187 -0.00307890
C 9.40404230 20.33666641 4.79039882 0.00471368 0.00468736 -0.00700015
C 4.20914400 22.96684920 4.16398410 -0.00276832 -0.00461311 0.00336242
C 12.10182449 27.87844883 1.75837971 -0.00798923 0.00669985 0.00150479
C 5.66263209 25.39698999 1.67363534 0.00327919 -0.00171264 0.00635937
C 37.02920485 20.60804856 4.20409557 -0.00102099 0.00020241 -0.00855963
C 5.11339935 22.03600414 4.62105386 -0.00039618 0.00366809 0.00945052
C 11.13323264 27.07040250 1.27098185 -0.00195908 -0.00035617 -0.00171917
C 4.73288542 26.36743055 1.28325551 -0.00186405 -0.00323845 0.00522294
C -1.33740065 21.34152401 4.67542182 0.00092481 -0.00493477 0.00014059
C 4.77285853 21.21633558 5.67383345 0.00786046 -0.00066289 0.00584158
C 11.38650167 26.14295420 0.22203282 0.00449265 0.00407665 -0.00295072
C 4.91900487 27.18137789 0.12189761 0.00147630 0.00088996 -0.00248695
C -1.47218405 22.21247920 5.77922762 -0.00773996 -0.00285077 -0.00418987
C 6.84291072 21.28487194 0.59390065 -0.00292609 -0.00384587 0.00837571
C 9.63688372 26.41726014 5.26956835 -0.00465663 -0.00092373 -0.00483091
C 3.25287309 27.10893024 5.64723153 0.00521275 -0.00166811 -0.00363602
C 0.45959916 22.05796510 0.37423219 -0.00162766 -0.00516004 0.00203887
C 5.93338859 22.25318336 0.20285390 -0.00046616 0.00398418 0.00054306
C -2.42097169 27.21917780 5.96807627 -0.00419111 0.00070396 0.00211624
C 4.14090886 26.08014978 5.96860934 0.00013454 0.00223556 0.00241016
C 12.56671466 21.19986294 0.16123489 0.00573209 -0.00194173 0.00001904
C 2.01606337 24.67078743 3.29715361 0.00208673 0.00054288 0.00683508
C 1.40003253 19.35845139 2.51434798 -0.00026995 0.00046526 -0.00809877
C 7.89912448 23.72063480 2.54330813 -0.00079745 0.00019920 -0.00551454
C 8.08685312 28.66668563 3.65236304 0.00166394 0.00684495 0.00321447
C 0.95311882 25.71782174 3.21333638 -0.00014148 -0.00236434 -0.00432926
C 2.52193056 20.31477991 2.92972123 0.00901175 -0.00507867 0.00291575
C 8.98628663 22.78375449 2.84521017 0.00337092 0.00555795 -0.00321000
C 6.89977967 27.79002734 3.44517777 0.00256064 0.00461577 -0.00431226
C 0.04438253 23.25044660 11.02243394 -0.00408162 -0.00015366 -0.00113854
C -2.62805332 28.01470602 7.09908490 -0.00249134 0.00189143 0.00591191
C 3.94034789 25.27547013 7.12536583 -0.00680688 0.00370838 0.00372212
C 6.49665639 20.36328366 10.97069419 0.00410577 0.00793820 -0.00083164
C 1.23372173 23.19729560 10.29705322 -0.00836036 0.00023701 0.00489649
C 9.29246952 27.87463145 7.68427506 0.00562420 -0.00262769 -0.00636666
C 2.74806142 25.50453583 7.82871617 0.00290545 -0.00554008 -0.00293026
C -4.94117924 20.70469133 10.45584340 -0.00511222 -0.00088932 -0.00546386
C 2.17521262 22.27356372 10.57841829 -0.00128738 0.00333081 -0.00349913
C 8.34108744 26.97907059 7.25520587 0.00790031 0.00821475 -0.00560953
C 1.78139034 26.40145211 7.39755681 0.00210310 0.00055249 0.00199116
C -4.01914791 21.64719587 10.94313367 -0.00350843 0.00031253 0.00692196
C 2.09526762 21.46541501 11.77510261 -0.00269079 0.00364729 0.00358760
C 8.44975044 26.21314756 6.05617522 -0.00184120 -0.00223417 0.00171964
C 1.99008362 27.20447722 6.29547836 0.00227126 -0.00197320 -0.00182932
C -4.26751810 22.46844316 12.06312118 0.01081580 0.00828865 0.00546636
C 3.58358863 21.32545779 6.36621771 0.00749483 0.00452077 -0.00226596
C 6.90350341 26.13837782 11.89533358 -0.00798417 0.00382268 0.00284594
C 0.11507118 27.06655788 11.43458992 0.00441148 0.00188086 0.00146262
C -2.71254925 22.18670073 6.47197379 0.00363999 0.01640869 0.00015579
C 2.72596788 22.28924075 5.91523040 0.00156523 0.00613860 0.00509594
C -5.32530634 27.20797231 12.13785743 -0.00813533 -0.00345799 -0.00048086
C 1.15423453 26.25137395 11.77045067 -0.00372774 -0.00435373 0.00352960
C 9.16313326 21.19767717 5.87704211 0.00120086 -0.00528186 0.00579009
C -1.16079994 24.57622419 9.44937614 -0.00075146 0.00307010 0.00190065
C -1.40003418 19.68003210 8.38027058 0.00075155 0.00009854 0.00087177
C 5.35264666 24.07612663 8.70822784 -0.00155500 -0.00368168 0.00251897
C 5.72862202 28.81543136 9.74369782 0.00444081 -0.00796337 -0.00005915
C -2.41441199 25.39421210 9.35693935 0.00121074 0.00358699 0.00426264
C -0.33207365 20.75689242 8.48657340 -0.00345050 0.00212594 -0.00624382
C 6.57281262 23.22484535 8.74967762 -0.00410987 -0.00400830 0.00421835
C 4.50264450 28.00181332 9.54202548 -0.01207847 -0.00361276 -0.00307506
C -2.77560110 23.26109591 17.41453598 -0.00634745 -0.00273382 -0.00147483
C -5.50025136 28.07281730 13.21253284 0.00108617 -0.00848689 -0.00578401
C 0.98434851 25.54768664 12.99280617 -0.00318709 0.00007449 -0.00412275
C 3.87329564 20.51456472 17.20107251 -0.00833685 -0.00087376 0.00054272
C -1.54115011 23.20414873 16.67122636 -0.00498835 0.00004936 -0.00704636
C 6.47407698 27.85830182 13.91701301 -0.00253553 0.00323048 -0.00727548
C -0.10904795 25.71522016 13.81080250 -0.00388338 -0.00171383 0.00522087
C -8.18660639 20.63623455 16.60734910 -0.00775384 -0.01103945 0.00484373
C -0.58527858 22.26803555 16.99423925 0.00323823 0.00212054 -0.00505476
C 5.47624531 27.02391110 13.60008132 0.00987448 0.00198943 0.00440359
C -1.11504350 26.53575034 13.44669202 -0.00821962 0.00393665 -0.00228917
C -7.26630661 21.54104482 17.03943073 0.00582702 -0.00464923 -0.00245489
C -0.90217262 21.32834546 17.97973762 -0.00266094 -0.00344273 -0.00254069
C 5.62941944 26.07530074 12.54824015 0.00156681 0.00230172 0.00227516
C -0.96676842 27.27723867 12.26358106 -0.00417682 0.00129877 -0.00031506
C -7.53123801 22.37849147 18.13921424 -0.00050084 0.00048149 0.00111129
C 0.89259046 21.55653325 12.47299961 0.00084204 -0.00035316 -0.00567079
C 4.05236407 26.28556832 17.93964673 0.00007597 0.00067731 -0.00624874
C -2.68577258 27.30169958 17.84699287 -0.00135164 0.00331877 -0.00095202
C -5.45476639 22.26209931 12.74608347 0.00248266 -0.00507045 0.00177775
C -0.10185807 22.42654657 12.15514275 -0.00010261 0.00231532 -0.00134713
C -8.38685681 27.03689050 18.18449259 -0.00188179 0.00467154 0.00346471
C -1.74350645 26.33562713 18.26678008 -0.00056217 0.00209027 0.00021635
C 6.21260451 21.26554465 12.02321909 -0.00480894 -0.00914132 0.00028953
C -4.00140889 24.62275466 15.78606254 0.00358265 0.00537176 0.00436359
C -4.12494663 19.67341985 14.86908333 -0.00318698 0.00617691 0.00494618
C 2.25084127 24.09641146 14.62158537 0.00616935 -0.00038458 0.00189403
C 2.65863160 28.92054560 15.86647713 -0.00066126 0.00564843 0.00480359
C -5.30047851 25.31692169 15.59696946 -0.00723844 -0.00435538 -0.00056801
C -2.83862599 20.33975875 15.10901971 0.00617682 -0.00559930 -0.00174485
C 3.47598479 23.18614324 14.67112394 0.00314715 0.00081628 -0.00052673
C 1.52544584 27.96021961 15.66684837 0.00163618 -0.00055937 0.00104641
C -5.83171887 23.03500878 23.32087594 -0.00785592 -0.00051804 -0.00338430
C -8.61043823 27.84645122 19.37432284 -0.00018763 -0.00904306 0.00916807
C -2.05163750 25.47757896 19.34504312 -0.00668940 -0.00865661 -0.00039344
C 0.78786554 20.40996923 23.28687721 0.00039875 0.00357186 -0.00615254
C -4.66318155 22.94930576 22.63196444 0.00089310 0.00863761 0.00129823
C 3.32881845 28.04013373 20.00895374 -0.00048328 -0.00561246 -0.00147120
C -3.29723349 25.56222774 19.99395524 0.00158956 0.00350875 -0.00033174
C 28.34153927 20.52772479 22.40428455 -0.00281974 0.00192673 0.00409562
C -3.69708800 22.07537105 23.04235602 -0.00279947 -0.00332415 -0.00316572
C 2.47644602 27.05473392 19.62964104 -0.01127332 0.00823631 0.00084867
C -4.10718362 26.63794779 19.65300758 -0.00603322 -0.00188258 -0.00130110
C -10.11065487 21.35143204 22.91052780 0.00195502 0.00096274 -0.00356012
C -3.93824758 21.24486213 24.18229824 -0.00061508 -0.00574429 0.00027298
C 2.78851648 26.20202206 18.48228141 0.00298896 0.00146047 -0.00662480
C -3.86613623 27.45624189 18.55327923 0.00020401 0.00599642 -0.00248278
C -10.29099108 22.09219792 24.05268096 0.00323649 -0.00039886 0.00182035
C -2.13489779 21.42432818 18.73055186 0.00150399 -0.00685148 -0.00315931
C 0.64208697 26.27932624 23.83099560 -0.00259368 0.00484539 -0.00296027
C -5.77687603 27.24933753 23.82886489 -0.00596601 -0.00082770 0.00066521
C -8.71274584 22.26585986 18.78843384 -0.00422557 0.00150447 -0.00337846
C -3.07218593 22.28104412 18.34873695 0.00785591 -0.00543074 -0.00168690
C -11.61228230 27.24686288 24.04039657 -0.00172152 -0.00552916 -0.00426514
C -4.80514520 26.30876223 24.24073745 0.00321133 0.00101744 0.00210778
C 3.68760818 21.30974945 18.28663763 -0.00051930 -0.00445079 -0.00252382
C -7.01782006 24.29951103 21.66517127 -0.00356241 -0.00250711 0.00950400
C -7.26816109 19.72103373 20.79058045 0.00601710 0.00415232 0.00370784
C -0.92727882 23.89344180 20.86824618 0.00237320 0.00169431 0.00112203
C -0.61118522 28.80195422 21.86288232 0.00204043 0.00585499 0.00227658
C -8.24661265 25.10793812 21.30472829 0.00641663 -0.00093157 -0.00635246
C -6.09101039 20.51875894 21.05675100 -0.00071632 -0.00524283 -0.00095240
C 0.15522817 22.78290152 21.02108151 0.00026149 0.00040621 0.01105845
C -1.90787756 28.09898173 21.57390649 0.00180861 -0.00009520 0.00446748
C 16.34538902 3.82769463 5.17708694 0.00196338 0.00119492 -0.00403756
C 13.60233422 8.70780382 1.14174008 0.00424851 0.00443035 -0.00641207
C 20.14245580 5.96111045 0.87346018 -0.00305668 -0.00339099 0.00485432
C 22.76872914 1.29834446 5.19266115 0.00061748 -0.00681273 0.00330171
C 17.52287278 3.75228039 4.46157358 0.00069643 -0.00829013 0.00094660
C 25.17638959 8.32975832 1.51883469 -0.00735485 0.00172068 0.00332565
C 18.89782492 6.12157747 1.54362629 0.00596506 0.00074400 0.00585152
C 10.66557436 1.01111606 4.51937680 -0.00393391 -0.00146337 -0.00521944
C 18.49142446 2.83341617 4.83675528 -0.00352814 0.00111729 -0.00098163
C 24.10826374 7.54680531 1.06632613 -0.00107349 0.00729557 -0.00033447
C 17.98725323 7.04539395 1.21176609 0.00834068 0.00118320 0.00270396
C 11.66175576 1.85098288 4.93868528 -0.00194459 0.00992736 0.00369893
C 18.30895255 1.99216160 5.92282086 0.00152077 0.00131053 0.00008202
C 12.26973074 6.70007732 24.26461343 -0.00486419 0.00057757 -0.00404196
C 18.15393075 7.80851913 0.01653683 0.00075827 0.00118743 -0.00215867
C 11.51417669 2.72396570 5.98408545 -0.00035940 0.00102925 -0.00100921
C 20.18367740 2.00735361 0.91691283 0.00792649 0.00103347 -0.00637455
C 22.85382050 6.98572456 5.51148449 0.00711621 0.00067185 -0.00498944
C 16.37850156 7.59553579 5.52437929 0.00475991 0.00540673 0.00285704
C 13.12386487 3.02424425 0.63855660 0.00155359 0.00483055 0.00367028
C 19.17464371 2.85211222 0.42381343 0.00735891 0.00025898 0.00102250
C 10.70432811 7.68699637 6.27098624 0.00327051 -0.00107087 -0.00051484
C 17.33812144 6.75458583 5.97041367 0.00240484 0.00210794 0.00214810
C 25.66088473 1.65914420 0.06643618 0.00048006 0.00566684 0.00581349
C 15.14867193 5.17375715 3.55777431 0.00208453 0.00446568 -0.00172996
C 14.46352187 0.37913920 2.76593148 0.00216053 -0.00252970 -0.00089715
C 21.30661824 4.70833013 2.64238375 -0.00098381 0.00228694 -0.00209345
C 21.59308364 9.79839279 3.51913200 -0.00463500 0.00046267 -0.00104182
C 14.02483930 6.10215702 3.40010195 -0.00105688 -0.00529287 -0.00044269
C 15.54578378 1.41064344 3.07537343 0.00410151 -0.00085620 0.00288527
C 22.56722203 4.07294936 3.00592571 0.00021382 -0.00389635 0.00107666