2880
Time=89000.00000004 pbc="T T T" Lattice="39.55455335 0.00000000 0.00000000 0.00000000 29.02662083 0.00000000 -12.03604433 0.00000000 24.43435966" energy=-18400.50962174 virial="-63.19982744 -16.17760538 -10.07025074 -16.17760538 -78.16704258 -26.81315422 -10.07025074 -26.81315422 -89.43928866" stress="0.00016538 -0.00061367 -0.00036705 -0.00061367 -0.00035378 -0.00099042 -0.00036705 -0.00099042 -0.00064114" Properties=species:S:1:pos:R:3:vel:R:3
C 3.15351105 3.82567075 5.13780577 -0.00165735 -0.00134594 -0.00094871
C 0.25034241 8.52756507 1.01110564 -0.00058171 0.01068215 -0.00247641
C 6.77071902 5.99840248 0.81941041 -0.00205487 0.00751737 -0.00105945
C 9.81122180 1.27769234 4.86595406 -0.00279269 -0.00869033 -0.00532960
C 4.37405259 3.70159398 4.46267840 -0.00490967 -0.00078702 -0.00639762
C 12.26656090 8.38579988 1.69801440 -0.00399207 -0.00444458 0.00318552
C 5.61014987 6.12152988 1.53458222 -0.00185252 -0.00203202 0.00019225
C -2.15066177 1.14516709 4.37118504 0.00928462 -0.00162275 0.00365919
C 5.27418086 2.76911231 4.87781353 -0.00305782 -0.00100041 -0.00114780
C 11.22690168 7.54392952 1.30994390 0.01032224 0.00356778 0.00135604
C 4.58983913 6.85877845 0.98448800 0.00351627 0.00090387 -0.00192482
C -1.11994325 1.97653340 4.78146179 -0.00064709 0.00261733 -0.00113738
C 5.05335552 1.83812849 5.97071568 -0.00491328 -0.00434304 0.00600345
C 11.48827416 6.62158950 0.25668492 -0.00212284 -0.00892760 0.00272715
C -7.28851156 7.50511981 24.23383675 -0.00471476 0.00373661 0.00451367
C -1.27028401 2.86241625 5.91568050 0.01061531 -0.00133759 -0.00508587
C 6.87339323 1.92865738 0.35975599 -0.00368943 -0.00187965 0.00299353
C 9.89040186 6.71312016 5.79746692 -0.00156260 0.00371557 -0.00045567
C 3.15754460 7.66237231 5.39975186 -0.00046420 -0.00363517 -0.00553992
C 0.09215385 2.83645263 0.33552994 0.00358132 -0.00111692 0.00363660
C -6.19170662 2.72178110 24.39044358 0.00077716 0.00064073 -0.00309965
C -2.50355614 7.82257576 6.03606516 0.00618440 -0.00153663 0.00176017
C 4.12912497 6.77700341 5.85255831 -0.00202623 0.00127257 0.00086086
C 0.58568525 2.13137739 24.26749990 0.00657815 -0.01011433 0.00819427
C 1.99991582 5.09277577 3.45039217 0.00555432 0.00252411 -0.00504516
C 1.50688882 0.33127625 2.61428187 0.00152167 0.00365387 0.00356611
C 8.04229958 4.71833278 2.46169619 -0.00112255 0.00424374 -0.00076511
C 8.65821687 9.30171146 3.59197729 -0.00047946 -0.00398733 0.00244533
C 0.71492553 5.82545445 3.26579099 -0.00985052 -0.01567635 0.00511969
C 2.62846380 1.26268959 2.99923629 0.00180221 0.00015330 0.00206469
C 9.13072479 3.67336252 2.74982541 -0.00071167 0.00543831 0.00766148
C 7.38222881 8.50588775 3.36947846 -0.00031034 0.00198203 0.00323942
C 0.27698150 3.78503664 11.18994186 -0.00312448 0.00431028 -0.00238811
C -2.66768428 8.60240459 7.17339231 0.00179725 -0.00289277 0.00033344
C 3.96437635 5.97126999 6.99086329 0.00281728 -0.00184613 -0.00302390
C 6.84126210 0.99285275 11.13942840 0.00496421 -0.00105188 -0.00669969
C 1.49331032 3.66160090 10.47521947 -0.00271999 -0.00076588 -0.00030247
C 9.40413548 8.47467201 7.85626081 0.00206058 0.00350273 0.00009284
C 2.78313653 6.22612482 7.75083481 -0.00558829 -0.00539431 -0.00088968
C -5.16092359 1.07154255 10.60075326 0.00473813 -0.00192933 0.00306293
C 2.48949170 2.72701429 10.84670409 0.00618004 -0.00073213 -0.00501125
C 8.44118372 7.61106558 7.40208488 -0.00205847 0.00329440 -0.00162660
C 1.85904471 7.12723884 7.37287599 -0.00207728 -0.00309036 -0.00661486
C -4.11078154 2.00569902 10.94630356 -0.00119085 0.00136205 0.00623583
C 2.27563738 1.91899943 11.96681872 -0.00262543 -0.00670299 -0.00017603
C 8.71070224 6.62493159 6.45506853 -0.00825859 0.00047755 0.00594892
C 2.01129850 7.89266137 6.19005188 -0.00198156 -0.00429048 0.00500686
C -4.38577347 2.93252532 11.98638982 0.00361318 -0.00449717 0.00348604
C 3.79623845 2.07688878 6.72590128 -0.00462457 0.00717294 0.00610839
C 6.89352369 6.49888552 11.68115614 -0.00584339 0.00410822 -0.00092770
C 0.28466633 7.80970242 11.62484964 -0.00491124 -0.00334988 0.00606282
C -2.49338639 2.89403262 6.56590018 0.00070666 -0.00043860 0.00531375
C 2.85960947 2.92631412 6.14667919 -0.00255605 0.00361563 -0.00627432
C -5.33588801 7.48679147 12.10629427 -0.00440379 -0.00065708 0.00321790
C 1.32939276 7.05921505 12.06087282 -0.00788987 0.00254718 0.00064738
C 9.62885518 2.09134384 6.01837402 0.00107027 0.00068097 -0.00107736
C -0.84293662 4.95551821 9.46278018 0.00099069 -0.00406364 0.00086728
C -1.41821735 0.38008945 8.68467682 -0.00369015 0.00221071 0.00127915
C 5.16502167 4.49964532 8.39815635 0.00307883 0.00222237 -0.00651916
C 5.61268982 9.24923249 9.91952720 0.00361873 -0.00219005 -0.00443446
C -1.95403422 5.92679047 9.24643496 -0.00120075 -0.00573287 -0.00470918
C -0.26127601 1.35220800 8.93652243 0.00143508 -0.00128315 0.00054514
C 6.54976791 3.78531278 8.48422128 0.00095902 -0.00096274 0.00069360
C 4.37174392 8.42969510 9.89803591 -0.00443912 -0.00194522 0.00475297
C -2.86143219 3.71856640 17.16292138 0.00339630 0.00068328 0.00214978
C -5.46233916 8.41034927 13.15671329 -0.00232269 -0.00119987 -0.00229183
C 1.06672342 6.06839536 13.05672955 -0.00289479 0.00554265 0.00580225
C 3.76997709 1.10883774 17.25554775 0.00400593 -0.00837134 0.00227771
C -1.59049812 3.79837910 16.58675871 -0.00167522 0.00064369 -0.00485205
C 6.27612144 8.17866979 13.83058484 -0.00048766 -0.00014235 -0.00420811
C -0.19279655 5.99259610 13.65189509 -0.00061595 0.00139772 0.00045373
C 30.99376303 1.08637366 16.62974665 0.00021235 0.00122609 -0.00321528
C -0.54333911 2.98285608 17.06104543 0.00520959 -0.00089287 0.00553638
C 5.32175074 7.22098718 13.44402973 -0.00172907 -0.00102180 -0.00078487
C -1.23997727 6.78776039 13.22935453 0.00480266 0.00208777 0.00702029
C -7.59237775 2.02533139 16.97277029 -0.00150001 0.00319628 -0.00937907
C -0.70962121 2.13022876 18.15691784 -0.00429569 0.00398556 -0.00033688
C 5.62855389 6.42360522 12.32982673 -0.00026468 0.00315304 -0.00302195
C -1.00165136 7.68354619 12.16645304 0.00485935 -0.00170488 0.00568480
C -7.66408787 2.77389231 18.15216629 -0.00467065 -0.00238212 0.00031592
C 1.09053744 2.14016755 12.69205336 0.00112901 -0.00081500 0.01123977
C 3.98359353 6.68815969 18.10950219 0.00187765 0.00033568 -0.00352653
C -2.81314840 7.42838896 17.59814763 0.00305235 0.00068510 -0.01189653
C -5.55374785 3.04372967 12.62641797 -0.00086067 0.00058419 -0.00428776
C 0.09426038 2.98858037 12.34739215 -0.00082682 -0.00012281 -0.00302736
C -8.50990887 7.82081634 18.18177166 0.00092709 0.00096741 -0.00730124
C -1.73984586 6.64222382 18.03136915 0.00436115 -0.00099681 -0.00170174
C 6.76777157 1.77963332 12.30443320 -0.00297406 -0.00226251 0.01157498
C -4.13957235 5.08312493 15.59820655 0.00361249 -0.00045571 -0.00140223
C -4.24519821 0.42544377 14.75688564 0.00067129 0.00768103 0.00005420
C 2.16316952 4.65440275 14.71463916 0.00236855 -0.00250571 0.00181725
C 2.92755820 9.28917370 16.07239320 0.00885999 -0.01083118 -0.00548382
C -5.32930233 5.88619901 15.47337514 -0.00109133 0.00333857 -0.00661637
C -2.85975705 1.07532739 14.77566287 -0.00378860 -0.00061803 -0.00092334
C 3.29122044 3.71447258 15.04811708 0.01063378 -0.00179528 0.00145966
C 1.69953776 8.43286533 15.88325398 0.00291113 0.00085297 0.00106164
C -6.08382862 3.57244361 23.33452851 -0.00163384 0.00476332 0.00714105
C -8.61237685 8.59113537 19.31851135 0.00473378 0.00047386 0.00500729
C -1.89004991 5.81250691 19.19078447 -0.00572775 0.00110714 -0.00682131
C 0.90563630 1.15036420 23.30097057 0.00170080 -0.00105715 0.00192661
C -4.93663540 3.58218035 22.60932606 -0.00373054 -0.00908365 -0.00304091
C 3.36110081 8.32302414 20.30978449 0.00026580 0.00364924 -0.00299768
C -3.15304371 5.79379384 19.83720353 0.00095499 -0.00288611 -0.00090844
C 28.09496452 1.10442437 22.63727955 -0.00423763 -0.00292306 -0.00785333
C -3.87116443 2.76754036 22.98112790 -0.00102414 -0.00384273 0.00232639
C 2.45099121 7.40254754 19.86381993 -0.00656469 0.00123150 0.00324516
C -4.17438328 6.57402777 19.40887595 0.00174594 0.00063013 0.00009925
C -10.47723164 1.99207198 23.04056044 -0.00225808 0.00471934 0.01272786
C -3.99348920 1.87741925 24.07317667 0.00098895 0.00285719 -0.00079917
C 2.65906741 6.70759125 18.63218712 0.00250796 -0.00107786 0.00138611
C -4.07417613 7.46070351 18.23887923 0.00504732 -0.00102423 0.00192298
C -10.70094468 2.90795898 24.09251284 -0.00232789 -0.00320774 0.00483075
C -2.00900175 2.16437887 18.74027665 -0.00496225 0.00304143 0.00137598
C 0.67149467 6.64982514 23.99737534 -0.00019204 0.00040074 -0.00796555
C -6.02614867 7.45681082 23.51450983 -0.00190297 0.00218916 0.00294877
C -8.82770725 2.62560729 18.94093806 -0.00653598 0.00325693 -0.00446770
C -3.03697954 2.90739523 18.23725720 0.00553315 -0.00435101 -0.00380810
C -11.75433259 7.71169062 24.25018243 -0.00242204 0.00542372 0.00389270
C -5.05987485 6.64991376 24.05428335 -0.00235169 0.00679897 -0.00100239
C 3.63518393 1.98715257 18.36043546 0.00574917 0.00554564 -0.00034762
C -7.38924203 5.04471373 21.83126156 0.00086290 -0.00308428 -0.00269621
C -7.46637258 0.23528438 20.69958191 -0.00050092 -0.00521016 -0.00327629
C -0.86382424 4.42273344 20.76025476 -0.00314311 -0.00131617 0.00110714
C -0.61847295 9.31270810 22.03349805 0.01291547 0.00162469 0.00194676
C -8.69602448 5.89068072 21.68026647 -0.00094706 -0.00076615 0.00319964
C -6.22233757 1.06527581 20.67916325 0.00338337 0.00218939 -0.00664775
C 0.22650743 3.45915528 21.11130951 0.00307976 -0.00038683 -0.00073524
C -1.66237278 8.31185936 21.96267701 -0.00486920 0.00353572 0.00180818
C 3.11618944 13.23625417 5.24913423 0.00119054 -0.00624419 -0.00053829
C 0.38733342 18.35675726 0.93852529 -0.00667614 -0.00900479 0.00034988
C 6.75738303 15.58624553 0.99895526 0.00085901 -0.00609710 -0.00253145
C 9.86840345 10.74148434 5.18352034 -0.00081962 -0.00292131 0.00913440
C 4.34509298 13.09049010 4.52378182 0.01044587 0.00240702 0.00872225
C 12.33590399 18.08619942 1.80144557 -0.00191700 -0.00199260 0.00085708
C 5.52456901 15.63887336 1.60496411 0.00116487 -0.00301675 -0.00627611
C 37.27474174 10.97915945 4.57952843 0.00392711 -0.00050734 0.00259253
C 5.21525539 12.08733606 4.87241165 0.00250334 0.00231482 -0.00400101
C 11.26186835 17.26473654 1.37344212 -0.00824672 -0.00125547 -0.00157151
C 4.54993927 16.45495642 1.15608765 0.00686230 0.00609233 -0.00169910
C -1.16795840 11.69756703 5.05494838 -0.00533118 -0.00514937 -0.00139793
C 5.04190996 11.41587331 6.11926610 0.00395281 0.00105290 0.00666003
C 11.46364380 16.31930274 0.34515194 0.00239379 0.00729136 -0.00403654
C 4.70166049 17.23344196 0.02591496 0.00227293 -0.00068041 0.00398709
C -1.28124768 12.46611251 6.18112476 0.01055578 -0.00255666 -0.00094474
C 6.76988953 11.64203198 0.75757944 -0.00294271 0.00089444 0.00424804
C 9.93305642 16.50428650 5.59825082 -0.00490660 0.00332324 0.00350740
C 3.08113376 17.13928627 5.63088989 -0.00291130 0.00517395 0.00502804
C 0.40174353 12.60377453 0.70980793 -0.00967833 0.00642892 -0.01017609
C 5.82112163 12.49013527 0.25410573 -0.00247493 0.00007978 -0.00112454
C -2.47226573 17.30937676 5.99756432 -0.00004531 -0.00449345 0.00023642
C 4.10704446 16.34973289 6.09512614 0.00466705 -0.00160437 0.00084398
C 12.39973469 11.54932665 0.27017713 -0.00002491 0.00358552 -0.00025057
C 2.04352067 14.70526130 3.69163919 0.00019336 -0.00557459 0.00306126
C 1.55069071 9.86062021 2.51343455 -0.00118199 0.00632380 0.00373326
C 7.85248623 13.99387136 2.46566820 -0.00266935 -0.00597492 0.00021294
C 8.53886364 19.13565779 3.41924558 0.00114323 0.00036684 -0.00199914
C 1.00851738 15.74644668 3.43248023 0.00010798 -0.00017227 0.00203203
C 2.82326191 10.50057059 2.83792156 0.00280030 -0.00066610 -0.00048523
C 9.16007324 13.30349520 2.64309889 -0.00067042 -0.00374743 -0.00562855
C 7.69377635 17.87300159 3.35044603 0.00104738 -0.00387338 -0.00063541
C 0.19384984 13.24575436 11.49940115 0.00223351 -0.00022042 0.00385095
C -2.68674827 18.22299215 7.03924102 0.00345840 -0.00490820 0.00177567
C 3.84716092 15.55448383 7.19351594 0.00301551 0.00346797 -0.00000635
C 6.87909236 10.70063548 11.39220837 -0.00104743 -0.00778883 0.00379394
C 1.41355863 13.15178195 10.77799914 -0.00197462 0.00259036 -0.00430068
C 9.34053240 18.16826754 7.71054236 0.00361271 0.00182137 -0.00200941
C 2.65008767 15.63290211 7.84117278 -0.00178819 0.00463009 -0.00471450
C 34.17638373 10.84616739 10.74914532 -0.00060089 0.00100001 -0.00714299
C 2.42303481 12.31969622 11.24216102 0.00174262 0.00306678 -0.00260025
C 8.40668921 17.26577144 7.25089102 0.00528922 0.00085540 0.00203367
C 1.65060237 16.45650995 7.36788796 0.00056475 -0.00485044 0.00856322
C -4.50098962 11.80551397 11.15194266 0.00950481 -0.00941165 -0.00011256
C 2.31249503 11.64772955 12.51050851 0.00131152 0.00862717 -0.01591200
C 8.66331644 16.35880303 6.19837033 0.00218592 0.00285065 -0.00999449
C 1.84428845 17.16695338 6.20346089 -0.00128663 0.00420900 0.00953428
C -4.61075234 12.50738144 12.34041474 0.00480596 -0.00089168 -0.00645489
C 3.85389918 11.51852351 6.81018005 0.00084813 -0.00339873 -0.00570739
C 6.79587054 16.65235970 11.61046326 0.00368617 -0.00488597 0.00407292
C 0.08819888 17.26280409 11.81409282 -0.00047304 0.00150585 -0.00548102
C -2.57854177 12.58117843 6.74022194 0.00362269 -0.00486105 -0.00768675
C 2.82390952 12.36822060 6.32886512 -0.00332035 -0.00112770 -0.00271088
C -5.47264843 17.32415101 12.05013639 -0.00352518 -0.00100368 0.00084502
C 1.14994084 16.49775887 12.29130385 -0.00067707 -0.00279520 0.00271386
C 9.55956161 11.62947144 6.22178144 0.00660538 -0.01152773 -0.00939279
C -1.03264127 14.57748677 9.96315083 0.00127381 0.00443834 -0.00349885
C -1.44096648 10.05439833 8.71683246 -0.00483045 -0.00225818 0.00013680
C 5.16589279 14.06130510 8.63326217 0.00053656 0.00257889 0.00240192
C 5.64138358 19.09620213 9.54078882 -0.00602379 -0.00236040 -0.00222268
C -2.20826662 15.47551350 9.64644234 -0.00129547 -0.00278076 0.00078800
C -0.21113929 10.85189582 8.99097687 -0.00136826 -0.00079366 -0.00321662
C 6.37975234 13.15294409 8.76791616 0.00050353 -0.00133305 0.00695588
C 4.39379643 18.36951005 9.24169192 -0.00513546 0.00230976 -0.00060922
C -2.82273989 13.19731359 17.59769224 0.00148981 0.00188016 -0.00175908
C -5.68908085 18.07343317 13.16703506 0.00689374 0.00086345 -0.00509546
C 1.10321942 15.70985637 13.43760096 -0.00615359 0.00240096 -0.00434115
C 4.05334367 10.78717983 17.64184126 0.00766109 -0.00034383 0.00108250
C -1.64957607 13.07823006 16.85606495 0.00396288 0.00004615 0.00175477
C 6.24126051 18.30682176 13.72700807 -0.00641069 0.00117007 -0.00253774
C -0.08979447 15.62857095 14.15290853 0.00222004 0.00374531 -0.00408541
C -8.23923108 10.73906076 16.74942705 0.00014396 -0.00179266 0.00393370
C -0.69075552 12.16685902 17.18066771 -0.00051808 0.00069191 0.00073784
C 5.29025133 17.42284364 13.30166234 -0.00329043 0.00087178 -0.00508998
C -1.15394949 16.44420324 13.71453248 0.00962732 -0.00297691 -0.00309261
C -7.30748727 11.65146391 17.12897046 0.00101889 0.00431759 -0.00498026
C -0.95760511 11.21202186 18.18438399 0.00666147 -0.00868826 0.00198436
C 5.52981287 16.54335414 12.20270873 0.00434508 -0.00343611 0.00311203
C -1.05023057 17.25449390 12.55039726 -0.00584511 0.00239362 0.00229204
C -7.44621332 12.44550534 18.31105314 0.00268976 -0.00058187 0.00794970
C 1.10175657 11.83160783 13.23366560 -0.00047466 -0.00505329 0.00149825
C 3.88734660 16.51028081 17.91538608 0.00046201 -0.00783219 0.00190779
C -2.83555987 17.31624089 18.08686935 -0.00146744 -0.00539292 -0.00193144
C -5.74292957 12.25546806 13.15321299 -0.00176435 0.00061185 -0.00468489
C 0.05743866 12.50767706 12.70044551 0.00545260 -0.00029362 -0.00597198
C -8.13292791 17.13083367 18.29726828 -0.00251219 0.01384914 -0.00264194
C -1.84822727 16.41812796 18.42732545 -0.00169664 -0.00069409 -0.00583568
C 6.66502782 11.59967272 12.48130595 0.00896862 -0.00043239 -0.00187342
C -3.92857341 14.64153962 16.03577952 0.00076700 -0.00190338 -0.00036796
C -4.32774942 9.81489102 14.67230907 -0.00011378 0.00028138 -0.00491481
C 2.37407415 14.33876305 14.97373917 -0.00386597 0.00227398 -0.00232225
C 2.23644822 19.21688308 15.80889201 -0.00386134 0.00204498 0.00180520
C -4.81817684 15.83303798 15.90768764 0.00574434 -0.00135154 -0.00089468
C -3.14885729 10.67986102 14.91322720 -0.00761144 0.00104674 0.00051011
C 3.68668308 13.67993037 15.04556520 0.00256681 0.00250643 -0.01060939
C 1.01867492 18.35140173 15.66328846 -0.00298913 -0.01200931 -0.00287728
C -5.96128917 13.22216775 23.51709085 0.00174036 -0.00455823 0.00399029
C -8.36056112 18.10806049 19.30685310 0.00090022 0.00297770 0.00352389
C -2.01447101 15.54977728 19.53361773 0.00176487 -0.01049471 -0.00205373
C 0.62212694 10.69241658 23.55054158 0.00179736 0.00105583 0.00051761
C -4.70251929 13.24602974 22.96018196 0.00326987 0.00026679 0.00213452
C 3.39489414 18.20094169 20.12211293 -0.00162573 -0.00138259 -0.00395409
C -3.18345868 15.77798713 20.26011727 0.00490395 0.00291600 0.00484570
C -11.31064616 10.90760707 22.99344111 0.00083235 0.00392457 -0.00130763
C -3.83919053 12.22192398 23.33643698 0.00221864 -0.00134622 0.00176928
C 2.43800768 17.30064026 19.70960737 0.00457886 -0.00134345 -0.00387767
C -4.23538401 16.59798496 19.85230343 -0.00793426 -0.00915228 -0.00098685
C -10.26427925 11.69244706 23.36905928 -0.00891546 0.00117766 0.00671302
C 7.92738559 11.41288464 0.06374501 0.00130548 -0.00232733 -0.00067453
C 2.66438094 16.45212102 18.57635325 0.00551970 0.00106296 -0.00170788
C -4.07215453 17.40473098 18.73226774 -0.00289477 0.00517521 -0.00394695
C 1.61064748 12.46007029 0.12256448 0.00128436 0.00351566 -0.00232944
C -2.14842068 11.29857987 18.92287976 -0.00279142 0.00272015 -0.00656809
C 0.68533833 16.35028251 24.12214851 0.00196966 0.00142447 0.00169111
C -6.05284949 17.30780948 23.89570991 0.00286919 -0.00368781 -0.00205922
C -8.65426843 12.30944360 18.99463993 0.00230633 0.00161339 -0.00205983
C -3.00133534 12.32765399 18.67225721 -0.00071828 -0.00143336 -0.00051215
C -11.63270758 17.62125585 24.14463107 0.00427232 0.00899515 0.00708221
C -5.03509257 16.50831555 24.39559643 -0.00151781 -0.00075606 -0.00342829
C 3.76543529 11.68870433 18.64394456 0.00042211 -0.00567207 -0.00056689
C -7.19704742 14.68691609 22.03256515 -0.00076144 -0.00003686 0.00015881
C -7.35891675 10.09638295 20.79609174 0.00070656 0.00311900 -0.00429422
C -0.91444621 14.00830610 21.08898973 -0.00002955 -0.00096240 0.00243267
C -0.44477254 19.13984229 22.06205658 -0.00010893 0.00043529 0.00173942
C -8.43997562 15.43907916 21.74037313 0.00117356 0.00076275 0.00452930
C -6.20476828 11.00787563 20.78129754 -0.00389379 -0.00395937 0.00007091
C 0.31927021 13.09865165 21.25618043 0.00105360 -0.00659612 -0.00592721
C -1.61034694 18.22690205 21.96445775 0.00054947 -0.00299053 -0.00054260
C 3.29336414 23.13800683 5.02188514 -0.00238413 0.00016796 0.00132046
C 0.40154247 27.99597354 0.99389115 0.00106024 -0.00665817 -0.00252117
C 7.08582190 25.27095751 0.92699542 0.00671817 0.00111202 0.00416227
C 9.80765969 20.39975536 5.07131651 -0.00375103 0.00079980 0.00581305
C 4.51161726 23.10935506 4.39024649 0.00498584 -0.00514505 -0.00007508
C 12.29362723 28.06355023 1.46102774 0.00587160 -0.00052996 0.00393690
C 5.86417868 25.30748054 1.66239429 -0.00212083 0.00178986 0.00198799
C -1.93853601 20.57926187 4.58225118 -0.00588240 0.00240427 0.00324983
C 5.39907324 22.09176895 4.66859354 0.00331952 -0.00456688 0.00021663
C 11.25458149 27.26680204 1.05721660 -0.00652001 -0.00440671 -0.00177147
C 4.80684443 26.15199502 1.27470474 -0.00001998 0.00201933 0.00941911
C -1.04649747 21.50085820 5.00719424 -0.00569078 -0.00595876 0.00409233
C 5.31099107 21.37338421 5.85624931 0.00038825 -0.00112953 -0.00071656
C -0.56013123 26.39550863 24.36208933 -0.00498562 -0.00237833 -0.00316723
C 4.98674190 26.99246666 0.13404033 -0.00183233 0.00032782 -0.00764082
C -1.41050991 22.54621232 5.92730616 0.00110765 0.00130440 -0.00318094
C 6.94873338 21.43115989 0.41870281 -0.00461291 -0.01366252 0.00188880
C 9.75995440 26.50121623 5.35344706 -0.00362285 0.00075050 -0.00255327
C 2.98115613 27.13203089 5.64849479 -0.00271729 0.00022732 -0.00472930
C 0.52942002 22.12073463 0.51687477 -0.00084621 0.00548803 -0.00774681
C 5.94340051 22.26572506 0.00864336 0.00150814 -0.00041728 -0.00121743
C -2.35845569 27.21873607 5.94900143 0.00304877 0.00356301 0.00661068
C 4.01505149 26.29946006 5.89241140 -0.00153520 0.00134941 0.00025208
C 12.68327315 21.50738690 0.12925774 0.00021743 -0.00551550 -0.00178096
C 2.04391903 24.43400854 3.51343941 -0.00203702 0.00462777 0.00303258
C 1.57634149 19.58517909 2.53229341 -0.00397621 -0.00278327 0.00044062
C 8.22985032 23.90147827 2.46922995 -0.00397910 0.00997057 -0.00473157
C 8.51197272 0.05179615 3.24281182 -0.00757907 -0.00314175 -0.00012229
C 0.98604998 25.49533724 3.30935429 0.00011026 0.00118920 0.00085004
C 2.57732550 20.71029869 2.68102090 0.00290610 0.00559723 0.00149088
C 9.38204371 23.01239982 2.69409653 -0.00023379 0.00638720 0.00111814
C 7.37625226 28.14846314 3.07027456 -0.00089950 -0.00092580 -0.00041290
C -0.05892051 23.15293227 11.14612481 0.00297501 -0.00122811 0.00641050
C -2.58437536 27.97230913 7.12814988 0.00076100 -0.00209097 0.00061307
C 3.98264470 25.45300769 7.03041832 -0.00105901 -0.00056174 0.00437794
C 6.76100293 20.50483344 11.18358536 0.00390143 0.00864485 0.00128662
C 1.21266438 23.15381956 10.47080687 -0.00525403 -0.00163153 0.00375037
C 9.23082730 28.07518638 7.60163599 0.00104583 0.00691457 0.00668944
C 2.79262977 25.40333651 7.81036963 0.00234070 0.00065102 0.00715882
C 34.32345241 20.67762815 10.26698458 0.00292009 -0.00071906 0.00609485
C 2.11959166 22.11108854 10.74768714 0.00312316 -0.00314911 0.00144897
C 8.24392949 27.20565992 7.08406467 0.00263972 -0.00012214 0.00487939
C 1.73381019 26.27019426 7.52176017 0.00907805 -0.00871557 0.00593232
C -4.27123122 21.56980267 10.66302418 0.00315650 0.00239778 -0.00050693
C 1.99962109 21.38453363 11.91108390 -0.00361177 0.00623227 -0.00192009
C 8.44499141 26.36906536 5.96596050 -0.00617183 0.00023510 -0.00308922
C 1.75300980 27.03700496 6.34038015 -0.00167591 -0.00943160 -0.00150799
C -4.54597407 22.43475160 11.77101123 0.00338333 -0.00364288 0.00854935
C 4.12247099 21.46755437 6.56777688 0.00427463 -0.00588539 -0.00092875
C 6.88251457 26.11970943 11.76336176 -0.00583230 0.00456865 -0.00138643
C 0.03838139 26.97479722 11.57126986 0.00705431 -0.00029601 -0.00214127
C -2.67957496 22.52766214 6.48677520 -0.00119900 -0.00035894 0.00716351
C 3.11685751 22.24154271 6.05475067 0.00028207 -0.00014799 0.00885230
C -5.45754336 27.26063911 12.12893960 -0.00436300 -0.00330885 0.00229042
C 0.99883953 26.05932499 11.99926838 -0.00588761 -0.00295693 -0.00541762
C 9.51925243 21.30274941 6.07926919 -0.00252882 -0.00194891 -0.00170631
C -1.51820626 24.47934182 9.73482313 -0.00208339 -0.00274936 0.00555801
C -1.48108357 19.34935417 8.83756163 0.00208889 0.00764111 0.00175330
C 5.36945039 24.13727245 8.50182253 0.00687953 0.00433150 -0.00007151
C 5.61767517 28.60362428 9.62610460 0.00260606 0.00369792 0.01135026
C -2.92816053 24.99279777 9.65424868 -0.00182403 0.00544196 -0.00463938
C -0.33322876 20.36997057 9.04867635 0.00923222 0.00070482 -0.00420930
C 6.52764013 23.25293727 8.56966728 0.00940481 0.00971013 -0.00544878
C 4.47751794 27.64363067 9.55622413 -0.00234534 -0.00074506 0.00166588
C -2.84943930 23.18424225 17.19557893 0.00538160 -0.00336918 0.00433746
C -5.57177046 28.03088386 13.29670333 0.00496694 0.00224964 -0.00440950
C 0.83557696 25.30124924 13.18875442 0.00486355 -0.00043633 -0.00855514
C 3.67607125 20.49609685 17.29594188 -0.00755713 -0.00739828 0.00313983
C -1.60715242 23.19127535 16.57507268 -0.00488487 0.00491352 -0.00070228
C 6.28603501 28.06394061 13.72226251 0.00607393 0.00490480 0.00483187
C -0.35038439 25.42546739 13.91269755 -0.00537242 0.00179649 -0.00068267
C -8.03243484 20.39987844 16.58973918 -0.00121711 -0.00045580 0.00336674
C -0.63334233 22.27565523 16.95471251 0.00345989 0.01074761 -0.00303463
C 5.24988914 27.21627324 13.19045515 0.00401684 0.00856915 0.00517608
C -1.32438586 26.28683573 13.44098096 -0.00084415 -0.00229584 -0.00303772
C -7.17836090 21.38079853 16.99248011 0.00771624 0.00001278 0.00658684
C -0.80784358 21.53207571 18.16471445 0.00056198 0.00564266 -0.00727265
C 5.57714000 26.18613539 12.30857955 0.00250800 -0.00297904 -0.00176996
C -1.12569136 27.09389832 12.31959979 0.00518128 -0.00703153 -0.00339244
C -7.41752640 22.23129155 18.07219857 0.00064776 -0.00361376 0.01071504
C 0.79418253 21.46159370 12.70354244 0.00267233 -0.00589187 -0.00536254
C 3.88721360 26.24802583 17.73212642 0.00400735 -0.00271732 -0.00121170
C -2.83618076 26.83563303 17.62574803 -0.00071962 0.00761549 -0.00094155
C -5.71816940 22.17563559 12.54231214 0.00241241 -0.00141316 -0.00865002
C -0.24946692 22.29618376 12.27279931 -0.00599110 -0.00645775 -0.00212543
C -8.50401431 27.00876702 17.93998826 -0.01085959 0.00315533 0.00401785
C -1.82917430 26.12547940 18.17232240 0.00554240 0.01124597 0.00146782
C 6.49053055 21.35523808 12.26117493 -0.00181811 -0.01082659 0.00224739
C -4.02806692 24.40265224 15.56524871 -0.00448958 0.00691404 -0.00280859
C -4.31399442 19.39201147 14.73420340 -0.00666848 0.00015642 -0.00264893
C 2.19354898 23.96446917 14.67494468 -0.00203378 0.00154420 0.00575695
C 2.38097901 28.94931423 15.73894787 0.00243504 0.00218066 0.00392261
C -4.99805714 25.44781461 15.31807292 -0.00317952 0.00250401 -0.00558742
C -3.25229860 20.47887536 14.73966092 0.00155444 -0.00108412 0.00478128
C 3.50429511 23.27130938 14.91116917 0.00800112 0.00048114 0.00149670
C 1.06074708 28.17351888 15.64745982 -0.00529209 -0.00063861 0.00339432
C -5.85441757 23.21608380 23.38204041 -0.00263870 -0.00414991 0.00041415
C -8.67872472 27.79748862 19.14614856 -0.00174404 -0.00287978 -0.00235062
C -1.97539793 25.25418494 19.24912681 0.00270689 -0.00435237 0.00486459
C 0.84570800 20.51944886 23.57251351 0.00526727 -0.00384394 -0.00232370
C -4.63241778 23.16473189 22.66948951 -0.00321218 -0.00012535 0.00676275
C 3.39926428 27.64684187 20.07707929 0.00163468 0.00245747 -0.00424900
C -3.25011139 25.30766250 19.85941964 -0.00590579 0.00038808 -0.00172904
C 28.37589605 20.57474555 22.61647275 0.00091972 0.00216055 0.00115808
C -3.60334072 22.32950886 23.11277946 0.00398855 -0.00006480 -0.00738459
C 2.42506486 26.83550315 19.52000962 0.00655056 -0.00132839 -0.00118748
C -4.28228863 26.15245417 19.42435680 -0.00297218 -0.00582529 -0.00046013
C -10.14073625 21.41077999 23.03857819 -0.00468517 -0.00014444 -0.00261491
C -3.81382036 21.39772408 24.17101763 -0.00180523 0.00382718 -0.00489758
C 2.64515306 26.10877445 18.32710201 -0.00432756 0.00646690 -0.00583962
C -4.08537830 26.98778205 18.28703270 0.00272590 -0.00774169 -0.00329811
C -10.26576631 22.09935950 24.24622171 -0.00132322 0.00245925 -0.00045064
C -2.06762839 21.52000181 18.76581880 -0.00257527 0.00111890 0.00178722
C 0.74079486 26.29228910 23.79174286 -0.00513943 -0.00038232 -0.00195006
C -5.83500164 26.94039326 23.89232812 -0.00124612 0.00245267 -0.00046314
C -8.63263015 22.11038431 18.71570016 -0.00128192 0.00140754 0.00632633
C -3.08083244 22.30631489 18.28277272 0.00213304 0.00669600 0.00425335
C -11.29901504 27.16001915 24.41922483 -0.00313176 -0.00162376 -0.00326505
C -4.77689749 26.13148058 24.27490100 -0.00227408 -0.00409893 0.00334325
C 3.47753757 21.23803202 18.49326033 0.00126029 -0.00462446 0.00282244
C -7.17601931 24.51496722 21.77308966 -0.00127269 -0.00040603 0.00194902
C -7.29552189 19.69401743 20.85571218 0.00078647 0.00613984 -0.00497010
C -0.84956184 23.90010667 20.87867650 0.00637515 0.00060275 -0.00254656
C -0.48637500 28.86449637 21.69388415 -0.00116010 -0.00389216 -0.00474409
C -8.35988846 25.37952209 21.64346798 0.00518865 -0.00151631 -0.00066698
C -6.17608439 20.58796069 20.96368730 0.00301333 0.00122253 -0.00098359
C 0.32019484 23.08422191 21.15442380 -0.00161811 -0.00535159 0.00280530
C -1.84201497 28.17053782 21.63223982 -0.00074291 0.00793254 0.00149930
C 16.37936220 3.65997336 5.07639029 -0.00181703 0.00162355 0.00388105
C 13.52393236 8.38500107 1.04424935 -0.00759087 0.01176749 -0.00046411
C 20.38740395 6.12863041 0.95015825 0.00086474 0.00730358 -0.00286877
C 22.89504885 1.14796507 4.90826147 -0.00498209 -0.00294824 -0.00183365
C 17.54227464 3.55380439 4.34619930 -0.00026421 -0.00515630 0.00300322
C 25.77845119 8.34831503 1.65728093 -0.00099266 0.00417325 -0.00561268
C 19.18810532 6.08399875 1.74463209 -0.00153110 0.00413186 0.00261026
C 11.00508280 1.39527819 4.16956520 -0.00587927 -0.00403568 0.00302823
C 18.57159084 2.77850841 4.78378247 0.00328602 -0.00223410 -0.00037904
C 24.77522026 7.46213737 1.21571028 0.00046004 0.00375432 0.00224373
C 18.18275827 6.93121914 1.36261312 0.00177888 -0.00094448 0.00703718
C 12.02971174 2.18242442 4.61381292 -0.00382582 -0.00358054 -0.00867450
C 18.38583364 1.99582478 5.90038054 0.00057940 -0.00082340 0.00492207
C 25.04052867 6.52015410 0.19916045 0.00726920 0.00222363 0.00360241
C 18.20065584 7.65968974 0.18010714 0.00440770 -0.00097904 0.00322618
C 11.79928185 3.06537453 5.67675892 0.00183296 0.00936267 0.00747126
C 20.01127627 1.89202780 0.50704623 -0.00423985 -0.00225280 -0.00242680
C 23.10393240 6.88156999 5.45801449 -0.00358961 0.00101776 -0.00190209
C 16.61017725 7.74916170 5.64516358 0.00599275 -0.00347649 -0.00056220
C 13.60415090 2.92574936 0.35002848 0.00164364 0.00301460 0.00087118
C 19.15446045 2.87171863 0.19277601 0.00126952 0.00379022 -0.00055168
C 10.83109545 7.63344578 6.12563310 -0.00035615 -0.00635827 -0.00299523
C 17.60307805 6.85077230 5.99590015 0.00080297 0.00005724 0.00178248
C 13.70014674 1.95926812 24.34664671 0.00502082 0.00181106 0.00230786
C 15.39655636 5.19385402 3.50995076 -0.00028024 0.00002738 -0.00001632
C 14.79475447 0.33788558 2.48991225 -0.00431994 -0.00827289 0.00409780
C 21.69833162 4.63376614 2.32877493 0.00251007 -0.00161715 0.00133468
C 21.96632410 9.46695550 3.79478670 -0.00218270 -0.00077375 -0.00238250
C 14.33173025 6.24458444 3.51442055 0.00290741 0.00140452 0.00221109
C 15.91861967 1.27320924 2.64460658 0.00322688 0.00076714 0.01114422