2880
Time=53000.00000004 pbc="T T T" Lattice="39.59102625 0.00000000 0.00000000 0.00000000 28.97106004 0.00000000 -12.04498312 0.00000000 24.47066641" energy=-18398.43937302 virial="-75.04695908 -1.34572043 -14.87239502 -1.34572043 -18.57688225 2.28681773 -14.87239502 2.28681773 -92.26701724" stress="-0.00022457 -0.00003223 -0.00054682 -0.00003223 0.00173961 0.00001328 -0.00054682 0.00001328 -0.00079329" Properties=species:S:1:pos:R:3:vel:R:3
C 3.20066095 3.53386430 5.07918969 -0.00669361 -0.00489842 -0.00478907
C 0.45681176 8.29439285 0.83349998 0.00215626 0.00222401 -0.00211110
C 7.07510002 5.92737410 1.06182106 0.00529182 0.00472816 -0.00169475
C 9.81946760 1.05517514 5.07446752 -0.00074843 -0.00055715 -0.00527633
C 4.43602785 3.53824468 4.37465678 -0.00472068 0.00415237 -0.00558318
C 12.61382310 8.69470289 1.66018902 0.00038053 0.00192177 -0.00071384
C 5.83718298 5.98771907 1.69665556 -0.00020673 0.00557621 -0.00232210
C -2.13545532 1.04552912 4.50425002 0.00301223 0.00742300 -0.00168527
C 5.39731262 2.65794343 4.81138006 -0.00493966 -0.00129113 -0.00785568
C 11.73229824 7.73766972 1.29087631 0.00138956 -0.00075586 -0.00123584
C 4.83770394 6.80307968 1.23844482 -0.00146560 0.00643100 -0.00105999
C -1.14712054 1.97407003 4.82194387 -0.00406540 -0.00108952 -0.00744260
C 5.12921873 1.75832171 5.79621306 -0.00254928 -0.00060373 0.00461853
C 11.86991398 6.86531849 0.12939830 -0.00481140 0.00299412 -0.00102978
C 5.08662255 7.66650072 0.15802219 -0.00643398 0.00139045 -0.00214028
C -1.27557019 2.85595282 5.89644984 0.00689759 0.00011204 -0.00239973
C 6.86359653 2.14415120 0.49782564 0.00366740 -0.00290503 -0.00382890
C 10.05805438 6.84632383 5.45323924 0.00689480 0.00219578 0.00409193
C 3.43195097 7.44859999 5.63688675 -0.00437573 -0.00214718 0.00136319
C 0.19352408 3.06047498 0.36874139 -0.00045583 -0.00409745 0.00189046
C 5.97038220 3.11201280 0.10781263 -0.00101293 0.00017652 0.00047928
C -2.31807806 7.86360566 5.81479066 0.00071346 0.00588067 0.00505567
C 4.43645164 6.64259372 6.21513847 0.00334827 0.00488475 0.00174096
C 0.66902300 2.02393338 24.40478333 -0.00038302 0.00078147 0.00163481
C 1.96251706 4.95115132 3.52557037 0.00428587 -0.00176264 0.00336250
C 1.59037504 0.34836329 2.48790329 0.00599451 -0.01419347 0.00058815
C 8.30872689 4.46196986 2.53658034 0.00026411 0.00379049 -0.00173785
C 8.84068130 9.43849106 3.75731710 0.00497791 -0.00470691 -0.00362608
C 0.66075599 5.74827731 3.45431872 -0.00145496 -0.01285674 0.00726124
C 2.60327345 1.38582983 2.58934896 -0.00232250 0.01098168 0.00089456
C 9.55600508 3.63163943 2.60038665 -0.00011851 0.00350590 0.00551762
C 7.78149918 8.37302869 3.59429581 0.00035720 -0.00698431 -0.00647759
C 0.31970500 3.64493600 11.09267793 0.00363774 0.00213420 0.00339236
C -2.47866023 8.67571694 6.95497489 0.00320192 0.00388917 0.00784791
C 4.16004191 5.78198910 7.23402451 -0.01107507 0.00421145 0.01173848
C 6.84078189 0.82554203 11.20290649 0.00009955 -0.00229856 0.00374924
C 1.51684729 3.38563981 10.41035106 0.00327590 -0.00537125 -0.00513086
C 9.56951138 8.50129446 7.63046516 -0.00878733 0.00715623 0.00043556
C 2.95834135 6.02447659 7.96402745 -0.00093434 0.00248132 0.00151750
C -5.10207401 1.25367786 10.80736476 -0.00393474 -0.00006883 0.01120919
C 2.43686082 2.49111227 10.84757075 0.00104363 0.00243574 -0.00454452
C 8.57101402 7.58838975 7.24291660 0.00190230 -0.00091694 0.00081601
C 2.02689859 6.85914592 7.47969108 -0.00285068 0.00100757 0.00351478
C -4.17652955 2.14214372 11.22661603 0.00556715 -0.00487352 -0.00462538
C 2.24211072 1.78593460 12.03745317 0.00522313 0.00160212 -0.00004022
C 8.83300404 6.77006395 6.13813613 0.00304273 -0.00052763 -0.00174628
C 2.17678532 7.56250820 6.25163111 0.00211537 0.00278398 -0.00107838
C -4.39213586 2.92909522 12.40856193 -0.00318821 -0.00085217 0.00718529
C 3.86599323 1.69813776 6.43404785 -0.00154635 0.00226383 -0.01197323
C 6.79384978 6.86372637 11.39760566 0.00301363 0.00582517 0.00754202
C 0.33336417 7.99599674 11.77454411 0.00208327 0.00428251 0.00085352
C -2.46382982 2.73999542 6.69367393 0.00454242 -0.00031502 -0.00359596
C 2.92579625 2.57019181 6.00608030 -0.00103614 -0.00560669 0.00115616
C -5.28532499 7.76776715 12.22005220 0.00554458 0.00481338 -0.00084037
C 1.27876946 7.05259925 12.00736814 -0.00663601 -0.00892353 0.00133653
C 9.67414840 1.94386968 6.15244469 0.00322916 -0.00028763 -0.00098277
C -0.65857928 5.30976814 9.66124542 0.00424364 -0.00335378 0.00704095
C -1.61256300 0.37827014 8.57255823 -0.00847304 -0.00378751 0.00401610
C 5.15002117 4.11144807 8.70102733 0.00348773 -0.00375791 -0.00604765
C 5.71797499 9.35989600 9.54146740 -0.00162713 -0.00019849 0.00087230
C -1.68966946 6.41117507 9.50599703 0.00165164 -0.00131466 -0.01074479
C -0.28725182 0.99390307 8.86753478 0.00026939 0.00067246 -0.00450677
C 6.25872992 3.18524466 8.86687875 0.00184371 0.00022119 -0.00252118
C 4.57830287 8.43953168 9.21438179 0.00520242 -0.00167295 0.00238833
C -3.04917634 3.58137254 17.36594057 0.00222356 0.00487861 0.00516497
C -5.57137242 8.57202304 13.31786961 0.00045017 0.00624150 0.00110845
C 1.08940641 6.00259782 13.00683407 0.00171907 -0.00251190 -0.00461224
C 3.57108437 1.09081917 17.09463699 -0.00210192 -0.00043245 0.01510328
C -1.86859746 3.58560941 16.65939364 -0.00402783 0.00354839 0.00063719
C 6.40465128 8.49214831 13.58650027 -0.00180399 0.00286330 0.00310030
C -0.05790187 5.95340614 13.76053763 0.00051488 0.00087281 0.00609442
C 31.07889916 1.18126888 16.91440328 -0.00152026 0.00614647 0.00634623
C -0.81541827 2.70236508 16.94549145 -0.00159957 -0.00313497 0.00239671
C 5.38275408 7.64933074 13.17696301 0.00006034 -0.00446567 0.00048387
C -1.12620034 6.79673666 13.39543318 0.00009491 -0.00366026 0.00043747
C -7.59947617 2.14820705 17.38143458 -0.00082061 0.00680371 -0.00379570
C -0.96175649 1.78040896 17.98125542 -0.00491576 -0.00346048 -0.00460491
C 5.49366478 6.89409894 12.00433299 -0.00539227 -0.00104557 -0.00435186
C -0.87480493 7.88407382 12.44578590 -0.00733786 0.00404883 -0.00184400
C -8.09974134 3.12162223 18.35226248 0.00056951 0.00167306 -0.00046791
C 1.02004043 1.96089346 12.78003182 0.00340416 -0.00585789 0.01026120
C 3.81522567 6.87715221 17.60050824 -0.01112747 -0.00061418 -0.00093077
C -2.63842457 7.56326524 17.84948942 -0.00129850 -0.00052467 0.00218047
C -5.62742847 2.73571442 13.02845567 0.00004758 -0.00202514 -0.00364082
C 0.09739342 2.85033826 12.25495524 -0.00930735 0.00782387 -0.00271363
C -8.62214471 7.78937009 18.19368279 -0.00810004 0.00686954 -0.00966897
C -1.70735365 6.63742788 18.30310190 -0.00065888 0.00342972 0.00002997
C 6.71694283 1.76811736 12.25282570 -0.00066618 -0.00250285 -0.00275508
C -4.34075026 5.17391739 16.12254821 0.00019747 0.00064799 -0.00067832
C -4.40043674 0.31994363 14.94050420 0.00004953 -0.00015012 -0.00170764
C 2.54415234 4.67675986 14.46639522 0.00082499 -0.00054595 0.00217896
C 2.52672953 9.36495805 15.81341274 0.00226680 -0.00481238 0.00431776
C -5.69684914 5.81814918 16.00046115 0.00848142 0.00464492 -0.00222058
C -3.02973849 0.93548684 15.08225007 -0.00128744 -0.00286154 0.00004146
C 3.75758309 3.75283034 14.37940677 0.00634056 0.00620892 0.00239258
C 1.51616657 8.23129744 15.55724608 0.00459023 -0.00268892 -0.00643069
C -5.90514945 3.90033953 23.41268004 0.00127710 0.00193807 0.00418152
C -8.73007925 8.51624552 19.33805066 0.00025515 -0.00938665 0.00126624
C -1.97958368 5.81606754 19.39485061 -0.00113297 0.00080629 -0.00272883
C 0.92232765 1.02508533 23.43743165 0.00044264 0.00083480 0.00040835
C -4.75732885 3.60989271 22.65331462 -0.00714202 0.00133622 -0.00338408
C 3.31155059 8.39735317 19.86250857 0.00836280 0.00297038 0.00404086
C -3.11845103 6.08119677 20.15034344 0.00548187 -0.00086574 -0.00483146
C 28.24461596 1.16763728 22.88909176 -0.01073784 0.00208115 -0.00558710
C -3.75582126 2.80869676 23.10434233 0.00560350 -0.00258103 0.00446319
C 2.42275732 7.42621238 19.46840438 -0.00314144 0.00360509 -0.00410589
C -4.00025926 7.09468832 19.76111797 -0.00159660 -0.00093510 -0.00722226
C -10.38742873 2.17202238 23.12285218 -0.00146022 -0.00861245 0.00075259
C -3.90143031 2.03582876 24.26401623 -0.00136919 -0.00467456 -0.00342437
C 2.58597713 6.65281847 18.29263857 0.00334170 -0.00013061 -0.00253471
C -3.83997377 7.85004704 18.54942947 0.00183568 0.00074437 -0.00178175
C -10.61973052 3.08330104 24.15032241 -0.00177077 0.00424494 -0.00445729
C -2.24213520 1.72097761 18.62460251 -0.00489746 0.00113384 -0.00115756
C 0.98115899 7.10287168 23.81966061 0.00171959 0.00483298 0.00123135
C -5.70195874 7.71707868 23.93683585 -0.00078099 0.00335564 0.00100159
C 30.25540114 2.80621399 18.93286836 0.00898279 -0.00359131 0.00046114
C -3.20031799 2.66104197 18.37234205 -0.00433591 0.00612988 -0.00691432
C -11.47603424 7.47115374 24.15092041 -0.00353434 0.00014044 -0.00461481
C -4.70777616 6.75540596 24.41808796 -0.00404355 -0.00670155 -0.00153771
C 3.37122447 1.96561998 18.22580330 -0.00255290 0.00445597 0.00235476
C -7.10096603 5.22159238 21.73387116 -0.00012339 0.00488834 0.00672638
C -7.48274387 0.26341736 21.04607648 -0.00062930 0.00212250 0.00655463
C -0.72130403 4.53687010 21.01486450 0.00321572 0.00106633 0.00330865
C -0.43333644 9.29579823 22.11669646 -0.00545052 -0.00026145 -0.00262676
C -8.33884360 6.09896488 21.52013539 0.00194731 0.00496612 -0.00143597
C -6.23634617 1.07379310 21.29423989 0.00201183 -0.00246628 -0.00280261
C 0.49194446 3.70348355 21.04978370 0.00024648 0.00507247 0.00725111
C -1.72988174 8.57136880 21.94496193 0.00414021 -0.00288438 -0.00329301
C 3.14264843 13.13340438 4.98095150 0.00461109 -0.00272883 0.00385374
C 0.42797017 18.21685905 1.28326818 -0.00256156 0.00311567 0.00630796
C 7.01861718 15.71568664 1.10586544 -0.01065885 -0.00529185 0.00354651
C 9.94843414 10.98896184 5.22704591 0.00085902 0.00539496 -0.00133291
C 4.33459505 12.96770772 4.22076681 0.00256753 0.00608876 0.00868633
C 12.49678986 18.12523276 1.70817043 0.00236121 0.00245205 -0.00499618
C 5.73688736 15.79432312 1.78268704 0.00173489 0.00234561 -0.00693025
C 37.25201159 10.81016556 4.36490580 -0.00727653 -0.00739107 0.00030472
C 5.34817638 12.15912786 4.65827725 0.00237483 -0.00150132 -0.00843704
C 11.59644797 17.19029129 1.28094237 -0.00034977 -0.00676234 -0.00017255
C 4.75797710 16.65797598 1.42926305 -0.00971929 -0.00178262 0.01244315
C -1.30331295 11.68670924 4.77267577 -0.00186202 -0.00492032 0.00445799
C 5.30615727 11.36722028 5.83133223 -0.00661261 0.00653218 0.00416818
C 11.89879888 16.26273353 0.26796073 0.00823249 -0.00209879 0.00325672
C 4.98473268 17.53738736 0.32391704 -0.00035566 -0.00130655 0.00205627
C -1.37364170 12.43840657 5.91140290 -0.00222822 -0.00605788 -0.00357196
C 7.04732348 11.54890360 0.42666672 0.00866813 -0.00407420 -0.00087225
C 9.81059543 16.61976358 5.56215975 0.00377712 0.00703856 0.00066747
C 3.15003219 17.04983619 5.37033985 -0.00329132 -0.00157773 -0.00161660
C 0.73067028 12.16535552 0.67854923 -0.00111085 -0.00185428 0.00637501
C -5.91922422 12.41761992 24.39635513 0.00595691 0.00392011 -0.00318952
C -2.54217017 17.15825877 5.95458245 0.00342173 -0.00702106 0.00010264
C 4.16816715 16.23476672 5.84045126 0.00228380 0.00013936 0.00836499
C 12.57988535 11.67606739 0.24293818 -0.00377023 0.00336132 0.01080550
C 2.06451697 14.72326004 3.41672015 0.00378690 0.00704575 -0.00001260
C 1.69853325 9.59357353 2.48560241 -0.00413747 -0.00517241 0.00072449
C 7.98870119 14.12623438 2.61998164 -0.00561346 -0.00193466 -0.00383288
C 8.48568855 18.93109574 3.60352678 -0.00127105 -0.00336212 -0.00171123
C 0.95309402 15.63373517 3.25517062 -0.00191887 -0.00296654 -0.00087482
C 2.98933582 10.23053682 2.65941588 -0.00118414 0.00120960 -0.00079313
C 9.10138628 13.24233848 2.93315964 -0.00069357 -0.00476226 0.00619205
C 7.21662156 18.15440241 3.51388261 0.00060140 0.00574524 -0.00836841
C 0.12456453 13.37124205 11.22487552 -0.00152237 -0.00886892 0.00253221
C -2.70854959 18.07926886 6.97237270 0.00299415 -0.00712400 -0.00155703
C 3.97179422 15.39969359 6.93207847 0.00378331 0.01253801 -0.00178389
C 6.79633931 10.69837526 11.22227838 -0.00089168 0.00006140 -0.00445674
C 1.33578236 13.42460936 10.56359335 0.00117090 -0.00246589 0.00078997
C 9.27810426 18.18683530 7.75911164 -0.00196594 -0.00022093 -0.00845717
C 2.75268374 15.57748704 7.65729364 0.00341496 -0.00350849 0.00724976
C 34.30700359 10.78296937 10.57868318 -0.00694296 0.00333612 0.00669587
C 2.33579022 12.47848511 10.83176693 0.00470596 -0.00735931 0.00068939
C 8.38396382 17.23223221 7.38459664 0.00848751 -0.00258360 0.00445784
C 1.76055413 16.49043373 7.28213406 -0.00397457 0.00599170 0.00278723
C -4.30291489 11.69474365 10.84678058 -0.00070417 0.00163335 -0.00005591
C 2.22823491 11.65434741 11.93237928 0.00371701 -0.00472090 0.00319512
C 8.54797764 16.49615991 6.18889933 0.00297508 -0.00821387 -0.00566072
C 1.91578689 17.19941492 6.07386764 -0.00494014 -0.00143960 -0.00133493
C -4.48696976 12.57241793 11.96335217 -0.00734979 -0.00861301 -0.00703140
C 4.02502661 11.44661134 6.54543121 0.00078676 0.00233075 0.00382683
C 6.47249272 16.78501939 11.43605405 0.00616753 0.00775165 0.00451369
C 0.20987520 17.15270231 11.70129811 -0.00085331 0.00109088 0.00005296
C -2.56186032 12.38668845 6.67746238 0.00459404 -0.00104664 0.00499617
C 2.98312920 12.18355466 5.97296874 -0.00178931 -0.00075236 -0.00761608
C -5.55444473 17.36593316 12.27864513 -0.00447646 -0.00065661 0.00067480
C 1.23860013 16.42633134 12.15239076 -0.00901822 -0.00081062 -0.00552092
C 9.84549551 11.71875167 6.43903548 0.00075693 0.00009304 0.00155581
C -1.17558219 14.66586629 9.66766353 0.00069695 0.00521388 -0.00045711
C -1.11980923 9.82340168 8.53597658 0.00452529 -0.00315938 0.00219554
C 5.19921193 14.22791804 8.54477119 0.00510872 0.00165101 -0.00071584
C 5.60708454 19.21506742 9.36765021 -0.00708944 -0.00023275 -0.01001859
C -2.38765201 15.50960788 9.63833856 0.00251203 0.00183628 0.00217884
C 0.29850739 10.27194660 8.69696380 -0.00642736 0.00294563 0.00007860
C 6.38946539 13.35306769 8.96720111 0.00574084 -0.00087259 0.00315886
C 4.62082213 18.02732310 9.13068768 0.00107798 0.00086065 -0.00048497
C -2.95332811 13.58021880 17.34122456 0.00046657 0.00231524 0.00511408
C -5.72875734 18.24783276 13.33371064 0.00685301 -0.00311587 0.00525953
C 1.07710128 15.60126412 13.27573410 -0.00070832 0.00156164 0.00864868
C 3.76111238 10.58938493 17.54277692 0.00392361 0.00208894 -0.00518807
C -1.66812921 13.55550142 16.76666010 -0.00431026 0.00510669 0.00454472
C 6.28509313 18.17544406 13.79268860 0.00014073 -0.00294565 -0.00037248
C -0.13718650 15.69177200 13.90613232 0.00177338 -0.00144689 -0.00217002
C 31.30715383 10.78968299 16.72829726 -0.00031538 -0.00388474 0.00697125
C -0.73214209 12.63800962 17.23405076 -0.00442247 0.00693412 -0.00145521
C 5.32605002 17.26241493 13.51578449 -0.00931724 0.00158203 0.00259641
C -1.16289763 16.60932038 13.61953533 -0.00254453 0.00473338 -0.00620510
C -7.33857178 11.61959815 17.16960772 -0.00484122 -0.00262822 -0.00924350
C -1.04011164 11.71271126 18.24591176 0.00327940 -0.00877231 0.00190119
C 5.49227296 16.43168984 12.40793278 -0.00537683 0.00136670 0.00714196
C -0.99489863 17.36906480 12.42733749 -0.00809934 -0.00098358 -0.00119808
C -7.50095503 12.53177903 18.20379744 0.00648942 0.00237241 -0.00067753
C 1.02577290 11.63490501 12.71153504 0.00259560 -0.00193639 0.00005094
C 4.01957946 16.63472666 17.82010409 0.00339393 -0.00392234 0.00519710
C -2.81260599 17.28071402 17.79241421 0.00378702 -0.00206017 0.00069407
C -5.68025821 12.49362235 12.62009831 -0.00716504 -0.00154026 0.00194316
C 0.04179380 12.52429379 12.36489674 0.00116417 0.00148439 -0.00091408
C -8.23933689 17.26846204 18.25833291 0.00793762 -0.00249221 -0.00501264
C -1.91930916 16.40250431 18.30532624 0.00054522 0.00392222 0.00251401
C 6.64321320 11.48852153 12.40629633 0.00381705 0.00729246 -0.00487165
C -4.16278489 14.69484330 15.60414769 -0.00403192 -0.00023274 -0.00339942
C -4.59848470 10.01278577 14.97650609 0.00424090 0.00720614 0.00202520
C 2.23139295 14.14253553 14.82511764 0.00499454 -0.00511769 -0.00565823
C 2.66278915 19.00080718 15.79437850 0.00179761 -0.00174746 -0.00041095
C -5.41601545 15.48086918 15.30800494 0.00413422 -0.00370455 -0.00616553
C -3.52575776 11.13161257 15.10445214 -0.00174810 0.00783072 0.00203560
C 3.51036608 13.39704590 15.01423525 -0.00311580 0.00070524 0.00605382
C 1.67178078 17.88241225 15.80142974 0.00263333 -0.00431471 -0.00539924
C -5.56156611 13.33389533 23.40813561 0.00162244 -0.00663069 0.00021003
C -8.38212296 18.01936212 19.38635270 0.00091072 -0.00256506 -0.00544413
C -2.26866816 15.61757657 19.40429874 0.00315081 -0.00316092 0.00577952
C 0.58747848 10.92780229 23.52446389 0.00303250 0.00424721 -0.00041887
C -4.29074023 13.34312142 22.90493688 0.00633175 0.00148130 0.00709671
C 3.39010944 18.07604403 20.14883376 0.00300950 -0.00395266 -0.00591412
C -3.45672017 15.76514136 20.03472083 -0.00037032 0.00490394 0.00536387
C -11.12343237 10.76041511 22.75446334 0.00390396 0.00067720 0.00294566
C -3.33903780 12.53901957 23.49630550 0.00421678 -0.00130242 -0.00407239
C 2.49682320 17.13934318 19.66613599 0.00267930 -0.00016588 -0.00071359
C -4.32325557 16.73234595 19.57338444 0.00148027 0.00161027 0.00799836
C -10.04371577 11.60266359 23.13947225 0.00696051 0.00437968 0.00137716
C -3.66522005 11.54124924 24.42863988 0.00361750 -0.00119494 0.00322686
C 2.83518320 16.40413833 18.55281356 -0.00218767 -0.00183477 0.00330188
C -4.09539001 17.43103399 18.36218780 -0.00800005 0.00079253 0.00715986
C -10.18118868 12.34614366 24.30590794 -0.00003211 0.00395069 0.00474268
C -2.27349819 11.90148393 18.84991302 0.00158870 0.00519354 0.00229927
C 1.01923281 16.51214415 24.03152658 -0.00104487 0.00337219 0.00450374
C -5.86670008 17.40777965 24.09323028 -0.00004005 -0.00052451 0.00451727
C -8.69757634 12.48348987 18.86573124 0.01239781 0.00506464 -0.00203607
C -3.26405416 12.76661883 18.41054465 -0.00417148 -0.00072547 -0.00051004
C 0.64113702 17.41737791 0.12355169 -0.00234484 0.01167902 -0.00038730
C 7.18813607 16.54406121 0.01794488 0.00174066 -0.00533010 0.00089109
C 3.57222113 11.35183227 18.66839943 0.00044314 0.00026197 -0.00424865
C -6.60259476 14.85328134 21.79922857 -0.00424686 -0.00268459 -0.00031274
C -7.44429830 9.87861934 20.87170378 0.00209407 -0.00491736 -0.00253565
C -0.98342906 14.33481058 20.98110846 0.00392232 0.00408669 0.00154456
C -0.36158765 18.81259194 22.11310978 -0.00063214 -0.00227471 -0.00292945
C -7.65156724 15.84842368 21.69699094 0.00709679 -0.00597235 -0.00025802
C -6.22457046 10.71553879 21.02301125 0.00456802 0.00486801 -0.00680719
C 0.21104279 13.40010139 21.28623755 -0.00214969 -0.00174030 -0.00285726
C -1.62525248 17.93446092 22.02583467 0.00675714 0.00426058 0.00599516
C 2.86829272 22.96506347 5.14463198 0.00101681 -0.00776239 -0.00263748
C 0.35858805 27.81346651 0.98489190 -0.00637659 0.00231246 0.00615545
C 7.05078141 25.14186763 1.13494452 0.00246782 -0.00374432 0.00463991
C 9.63761485 20.46661151 5.06712741 -0.00143225 0.00592744 0.00487611
C 4.12771041 22.98301095 4.47340157 0.00099163 0.00595175 0.00012664
C 12.39431930 27.77137833 1.53235255 0.01471873 -0.00117519 0.00727143
C 5.83337600 25.23773130 1.85576915 -0.00515432 -0.00339545 0.00978775
C 37.23156196 20.37232855 4.46743255 0.00132950 0.00070026 -0.00359800
C 5.12162090 22.13065574 4.70084946 -0.00100165 -0.00387328 -0.00530045
C 11.49379273 26.83561620 1.12141410 0.00547579 0.00283068 -0.00084396
C 4.96226561 26.25504680 1.47387989 -0.00312136 0.00991507 -0.00402488
C -1.43375275 21.35939850 4.83671707 -0.00101455 -0.00277828 -0.00065052
C 4.94398077 21.18814533 5.80026273 -0.00060203 0.00281688 -0.00308607
C 11.77905467 26.02194416 0.00419414 0.00590976 0.00279798 -0.00049503
C 5.13633543 27.06083667 0.35453544 -0.00147163 0.00013831 0.00009629
C -1.65955936 22.08757934 6.01356885 0.00113181 -0.00240101 -0.00257695
C 7.02486678 21.39039869 0.82489178 0.00230944 0.00219485 0.00408115
C 9.93404523 26.26149932 5.50889258 0.00152756 0.00446988 -0.00658255
C 2.95831985 26.98927595 5.66173362 -0.00679691 0.00174841 -0.00612404
C 0.38835444 21.93218473 0.85960942 0.00183126 0.00002129 -0.00724496
C 5.99366768 22.17629201 0.38326096 -0.00639249 0.00390073 -0.00031096
C -2.51607599 26.94795948 5.92114966 0.00134485 0.00134388 0.00095086
C 3.97348552 26.08935295 5.96923252 -0.00019900 0.00744117 -0.00103577
C 12.69090870 21.37221313 0.14915354 0.00137456 0.00146189 -0.00038922
C 1.64625352 24.47783047 3.74810692 0.00179363 0.00221722 0.00189847
C 1.55566211 19.65538782 2.77206675 0.00369826 -0.00024770 -0.00771442
C 8.36896600 23.93587704 2.77836822 0.00388145 0.00029213 -0.00491593
C 8.65957552 28.65029698 3.46404731 0.00169283 0.00549427 -0.00725084
C 0.45641432 25.38875678 3.67672182 0.00579787 -0.00299842 0.00186123
C 2.80639601 20.44365811 3.13851375 -0.00223751 -0.00230828 0.00055103
C 9.58014798 23.10136384 3.14247836 -0.00289065 0.00028056 -0.00524218
C 7.35047574 27.90713413 3.25533735 0.00174984 0.00378709 0.00824352
C 0.17859953 22.79856666 11.28774200 -0.00060503 -0.01009297 -0.00371692
C -2.62534613 27.72386584 7.14689754 0.01122907 -0.00285434 0.00312333
C 3.82377099 25.28049916 7.10444758 -0.00271438 -0.00185907 0.00302947
C 6.70422514 20.56827344 11.07575008 -0.00154294 0.00443557 -0.00132656
C 1.34648597 22.84579345 10.54501186 -0.00281321 -0.00589962 0.00542152
C 9.46282847 27.86996614 7.77916323 0.00431247 -0.00113490 -0.00016404
C 2.62633549 25.33335029 7.84561819 -0.00531526 0.00170005 -0.00580267
C -5.20566945 20.48320060 10.58566389 -0.00041651 -0.00049970 -0.00126261
C 2.48089463 22.10280038 10.80662150 0.00145067 0.00016349 -0.00381757
C 8.50857235 27.02149291 7.32385029 0.00685261 0.00269084 0.00660890
C 1.52643770 26.10109296 7.38452592 -0.00037560 0.00705043 0.00279119
C -4.33672700 21.47334231 11.05022491 -0.00382339 -0.00118418 -0.00603081
C 2.47211009 21.26922718 11.95306948 0.00490507 0.00687682 -0.00176411
C 8.74111674 26.06068616 6.26914223 -0.00946479 -0.00427117 -0.00421372
C 1.70963795 27.00287417 6.25467275 -0.00446213 -0.00230858 -0.00225939
C -4.55567501 22.25474056 12.22424712 -0.00406078 -0.00105916 -0.00021638
C 3.74409132 21.26560976 6.58936284 0.00368335 0.00264350 -0.00286330
C 6.73903963 26.02380237 11.78594797 0.00254718 0.00286951 -0.00811521
C 0.23577735 26.65425214 11.50691905 0.00006044 0.00037464 0.00179951
C -2.92582334 21.95582969 6.65146364 -0.00345313 0.00123734 0.00087751
C 2.71760414 22.09425311 6.21724608 -0.00331332 -0.00762559 0.00686768
C -5.41569833 27.01254115 12.29856912 -0.00128480 0.00058730 0.00230178
C 1.18374535 25.73170824 11.87630161 -0.00115543 -0.00835325 -0.00326207
C 9.41027444 21.30018431 6.11143034 0.00405522 0.01132692 -0.00288000
C -1.16982725 24.14007208 9.75210202 0.00090893 -0.00422549 -0.00016770
C -1.44955032 19.37394180 8.56138747 0.00624335 -0.00234799 -0.00597067
C 5.00289748 23.89834425 8.60203147 0.00718486 -0.00338680 -0.00162917
C 5.56252376 28.56531654 9.57892662 -0.00807220 -0.00450931 -0.00429194
C -2.44787497 24.94086578 9.56262540 0.00012986 0.00196469 -0.00055976
C -0.19051251 20.16988053 8.61767158 0.00845577 0.00721954 -0.00535664
C 6.05955980 22.87249095 8.80475309 0.01495795 0.00143085 -0.00506631
C 4.33658257 27.66443163 9.38273799 -0.00440087 0.00091459 -0.00242894
C -2.76336251 22.99417344 17.50019580 0.00185248 0.00383761 -0.00178207
C -5.65873284 27.83630808 13.40736187 0.00340992 0.00652823 0.00384754
C 1.02954923 24.98315094 13.11558009 -0.00087700 -0.00102057 -0.00199109
C 3.71637330 20.61539402 17.32990710 -0.00725630 -0.00505482 0.00129880
C -1.55273027 22.91004650 16.80504753 -0.00407677 -0.00259983 -0.00957005
C 6.22059036 27.49037238 14.09133132 -0.00212440 0.00145344 0.01088403
C -0.22916873 25.20704849 13.81238251 0.00866421 -0.00071459 -0.00318572
C -8.09363781 20.51408685 16.92628478 -0.00912084 -0.00507077 -0.00115289
C -0.53453511 22.10495028 17.16864677 0.00694918 -0.00194475 -0.00869072
C 5.30685441 26.57321859 13.63946091 -0.00462764 0.00543959 -0.00319968
C -1.18471402 26.08001765 13.36990824 -0.00065221 0.00159027 0.00419497
C -7.02302232 21.19495115 17.44301173 0.00110721 0.00310096 0.00110912
C -0.60556192 21.32336376 18.34292785 -0.00115810 0.00330848 -0.00652643
C 5.53394699 25.82639715 12.47355465 0.00080927 0.00459979 0.00149239
C -0.98040568 26.86729947 12.23743029 -0.00585841 -0.00625262 -0.00354353
C -7.29256301 22.10140049 18.48531309 0.00189489 -0.00338271 -0.00266894
C 1.30023339 21.16922429 12.67580002 -0.01060734 0.00037594 -0.00120622
C 3.65977750 26.29195065 17.72772009 0.00107938 -0.00218078 -0.00045460
C -2.89828535 26.77955188 17.64942510 0.00114822 0.00368993 0.00685196
C -5.81268823 22.07674538 12.85745548 0.00092467 -0.00115528 0.00034564
C 0.21218949 21.97191063 12.37285470 0.01148632 0.00342130 -0.00406612
C -8.40710500 27.21234544 18.20737110 -0.00192030 0.00564335 -0.00337148
C -1.87447795 26.06452689 18.23790979 0.00221176 -0.00462980 0.00245159
C 6.61522327 21.26626074 12.25899998 0.00188417 0.00230246 0.00221390
C -3.90432593 24.34238513 15.85941333 -0.00183170 -0.00300890 -0.00175824
C -4.53044323 19.65336657 14.81642701 -0.00119955 0.00447896 0.00197353
C 2.07711938 23.74001746 14.81670036 0.00294361 0.00373847 -0.00315488
C 2.43279892 28.64274428 15.48877362 -0.00176816 -0.00249847 -0.00135425
C -5.04994742 25.23118778 15.62326124 -0.00861779 -0.00361252 0.00582320
C -3.26451489 20.38176407 14.93454293 0.00523361 -0.00009460 0.00172444
C 3.23099469 22.82430870 15.02836613 -0.00473880 0.00394468 -0.00402844
C 1.18205733 27.90971318 15.25351500 0.00327469 0.00737336 0.00422853
C -5.87555212 22.91837525 23.67350769 -0.00486750 -0.00062588 0.00313334
C -8.63880629 27.99375096 19.31786355 0.00218776 -0.00257021 -0.00739341
C -2.03274254 25.27483067 19.38472275 0.00551026 -0.00093024 -0.00213158
C 0.74776666 20.38684858 23.55315487 -0.00551865 0.00001441 -0.00679542
C -4.67647352 22.84160033 23.01876566 -0.00072456 -0.00003581 0.00125436
C 3.28954293 27.98376198 19.90500478 0.00671175 -0.00761881 0.00105094
C -3.23239892 25.32732249 20.09160090 -0.00209660 0.00185966 -0.00738745
C -11.21694161 20.39871769 23.10903958 -0.00067007 0.00041978 0.00963787
C -3.75194157 21.87232909 23.35761309 -0.00507921 -0.00814427 0.00599038
C 2.32680799 27.10538756 19.57721789 -0.00227708 0.00485043 -0.01203843
C -4.24353495 26.07133944 19.54821208 -0.00245496 -0.00533946 0.00341110
C -10.19686063 21.14377836 23.64931651 0.00045424 -0.00508323 -0.00083894
C 8.17977725 21.07418701 0.01760136 0.00190432 0.00507469 -0.00570178
C 2.52918647 26.17334690 18.52356422 0.00030741 -0.00340403 0.00041197
C -4.12470042 26.73970287 18.34265879 -0.00118849 -0.00212582 0.00181754
C 1.63030777 21.94110891 0.28101114 -0.00207889 -0.00676922 0.00318913
C -1.77065543 21.36261686 19.07899077 0.00246739 -0.00689188 0.00058595
C 1.03883278 26.13760447 23.90384179 0.00391277 -0.00556486 0.00298127
C -5.75869628 26.77639469 24.00173803 0.00117194 -0.00115520 -0.00044287
C -8.47397368 21.92756301 19.25223635 0.00011954 -0.00335677 0.00114674
C -2.84901584 22.13657491 18.65281337 0.00134169 -0.00351917 -0.00088320
C -11.51887620 27.00901507 24.26725033 0.00509899 0.00510085 -0.00196012
C 7.22506335 25.92375731 0.00903725 -0.00299687 0.00401874 0.00165410
C 3.48074294 21.43489567 18.42962663 0.00854345 0.00254931 -0.00115774
C -7.08008058 24.28509502 22.12304181 0.00308305 -0.00226291 -0.00125835
C -7.21093280 19.48408463 20.95154119 -0.00117582 -0.00334156 -0.00369138
C -0.69910428 23.87476525 20.93869414 -0.00047043 -0.00052620 0.00262724
C -0.38255821 28.71984219 21.89500185 -0.00867707 0.00531573 -0.00632107
C -8.33940271 25.07000630 21.85879990 0.00357631 0.00307984 -0.00663587
C -6.11838033 20.53686589 21.10160770 0.00883761 -0.00015167 -0.00517831
C 0.60010445 23.09393428 21.04532554 0.00657571 -0.00145865 -0.00496556
C -1.60968497 27.88619413 21.69118947 -0.00514317 0.00016128 -0.00159674
C 16.68545559 3.65262906 5.15388602 0.00397039 -0.00012465 0.00530334
C 13.76846388 8.81702752 0.86594133 -0.00401411 -0.00192347 0.00113480
C 20.23975364 5.87982965 0.85318516 0.00190776 0.00580126 -0.00393148
C 23.12360980 0.99780452 5.17261718 -0.00307779 -0.00076323 0.00188358
C 17.88005537 3.70448905 4.46928598 -0.00063108 0.00712549 0.00371633
C 25.56668329 8.49678521 1.65052348 -0.00139255 0.00387409 -0.00508257
C 18.95445488 5.95016257 1.51394003 -0.00515758 -0.00025253 0.00246378
C 11.08668037 1.08668455 4.39375050 0.00131592 0.00392174 -0.00170490
C 18.92228681 2.88077331 4.94594968 0.00302914 -0.00394528 -0.00267776
C 24.64891118 7.55469153 1.16081158 0.00677172 0.00409542 0.00557075
C 17.92657953 6.70111218 1.06469132 -0.00334293 0.00118634 -0.00101958
C 12.04456366 1.99418919 4.80873605 0.00314075 -0.00357476 0.00596177
C 18.69656595 1.93672997 5.98459529 0.00504057 0.00353948 0.00143082
C 25.01386010 6.68452240 0.10057957 0.00466000 -0.00026602 -0.00168378
C 6.08831631 7.51651157 24.37891432 -0.00661279 -0.00166688 0.00242923
C 11.84029160 2.97320335 5.81763423 -0.00330724 -0.00373187 0.00695574
C 20.56006018 1.96771978 0.48447454 0.00982563 -0.00040621 0.00543077
C 23.06802829 6.69560788 5.61822769 -0.00405789 -0.00076662 -0.00182835
C 16.68010300 7.69529551 5.49986486 -0.00449682 -0.00326948 -0.00180903
C 13.63363952 2.98463767 0.32877960 -0.00032068 -0.00120080 0.00372689
C 7.38691524 2.58738839 24.37354025 0.00325935 0.00252476 -0.00551290
C 10.98628066 7.75713123 5.81904601 -0.00709665 0.00548938 0.00266250
C 17.65548245 6.80144647 5.88528521 0.00110728 0.00344181 -0.00501944
C 25.94375627 1.86471974 0.14379728 0.00035483 0.00082243 0.00445208
C 15.22982670 4.93391335 3.66878744 -0.00017725 0.00078661 -0.00411726
C 14.80674488 0.21305319 2.71688452 -0.00507537 -0.00490610 0.00563819
C 21.53750833 4.47623243 2.43923029 -0.00272209 -0.00568112 0.00325607
C 21.59816202 9.69885848 3.35779306 0.00613770 0.00233142 0.00589409
C 14.12954278 5.92912292 3.61758293 0.00625805 -0.00362101 -0.00014539
C 16.00859014 0.99281593 2.96528629 -0.00216944 0.00125817 0.00127168
C 22.79510856 3.62260925 2.50356116 0.00457752 -0.01226337 -0.00121052