2880
Time=8000.00000000 pbc="T T T" Lattice="39.54466202 0.00000000 0.00000000 0.00000000 29.00854299 0.00000000 -12.02408119 0.00000000 24.38581110" energy=-18399.02700967 virial="5.56685663 -12.54223250 -62.52155396 -12.54223250 -29.92629799 4.69506393 -62.52155396 4.69506393 -58.27258903" stress="0.00272782 -0.00050691 -0.00235400 -0.00050691 0.00137337 0.00023470 -0.00235400 0.00023470 0.00043688" Properties=species:S:1:pos:R:3:vel:R:3
C 3.09260440 3.72742154 5.04069474 -0.00333810 0.00581637 -0.00246653
C 0.40916309 8.50489750 0.94707017 0.00045841 0.00048396 -0.00306486
C 6.93011487 5.88908170 1.06646000 0.00587212 -0.00632533 0.00221982
C 9.76979995 1.20423434 5.19883882 0.00381914 0.00060792 0.00067033
C 4.29470366 3.50456287 4.36784086 0.00302433 0.00346100 0.00168081
C 12.34006215 8.41795066 1.67208453 -0.00002091 0.00692012 -0.00441454
C 5.73058883 6.02760605 1.83173183 0.00187933 0.00042715 0.00263240
C -2.10784654 1.11796933 4.45183238 -0.00139430 0.00572926 0.00300884
C 5.11862695 2.43778261 4.69631227 -0.00525708 0.00179967 -0.00011458
C 11.32300622 7.53444747 1.32863087 0.00008450 0.00353801 0.00586792
C 4.89257919 7.02292225 1.41963300 -0.00770101 -0.00169656 -0.00782051
C -1.11016201 2.05109058 4.90248713 0.00451559 -0.00346987 -0.00257337
C 4.89420842 1.62991135 5.84825526 0.00987043 0.00662145 -0.00171275
C 11.35648297 6.75007741 0.15579606 0.00309891 0.00652176 -0.00151628
C 5.10734976 7.82019579 0.29365227 0.00279825 -0.00237228 -0.00739452
C -1.35492783 2.79840244 6.07324814 0.00167507 0.00659417 -0.00085522
C 6.86285297 1.94176313 0.41965424 -0.00496597 0.00444086 -0.00242574
C 9.88916215 6.91169031 5.54657925 -0.00176570 0.00578446 0.00373898
C 3.33109875 7.66748701 5.65136482 0.00002690 -0.00004833 -0.00251619
C 0.42063709 2.73305354 0.61810507 0.00880849 0.00192677 -0.00345212
C 5.89984907 2.86790786 0.09465688 -0.00384226 0.00085790 -0.00178865
C -2.42079914 7.66932945 5.83751721 -0.00473673 -0.00419067 -0.00326299
C 4.29569669 6.83987307 6.15842047 0.00862763 -0.00834319 0.00481316
C 12.46139174 2.07053034 0.09635820 0.00111848 0.00101515 0.00394237
C 2.01675315 5.35487831 3.60074859 -0.00026950 -0.00285857 0.00454746
C 1.70949326 0.15279094 2.48994108 -0.00413500 0.00546718 -0.00017087
C 8.08700930 4.56716599 2.78639600 0.00477822 0.00451524 0.00300717
C 8.53631092 9.29201066 3.47644402 -0.00660971 0.00706742 -0.00215566
C 0.71618185 6.16471702 3.51833787 0.00102961 0.00906014 0.00316709
C 3.01643384 0.96654802 2.68986677 0.00725611 -0.00119398 -0.00186955
C 9.40814688 4.00218144 3.15426341 -0.00355283 0.00518534 0.01172667
C 7.48634150 8.31325582 3.42288793 -0.00036994 0.00392422 -0.00381956
C 0.09025426 3.69118437 11.11448996 -0.00474703 0.00142643 0.00298453
C -2.56494349 8.49064819 6.93832464 -0.00766765 0.00939750 -0.00259908
C 4.05543537 5.81325393 7.10327575 0.00148904 0.00588644 0.00682769
C 6.83383276 1.10427124 11.27646847 0.00087330 -0.00221162 0.00382715
C 1.30269936 3.56986760 10.41254064 -0.00266613 -0.00404353 -0.00403108
C 9.49624470 8.29310404 7.95578399 0.00009293 0.00123927 0.00215475
C 2.81877119 5.95364821 7.71568318 0.00353289 -0.00591737 -0.00141643
C -5.13932612 0.96857404 10.43414204 0.00948982 -0.00026327 0.00657808
C 2.38599904 2.80897024 10.84862730 0.00649074 0.00123229 0.00126327
C 8.61538425 7.33384201 7.50193315 0.00091779 -0.00863458 0.00540297
C 1.87464298 6.87560362 7.25903335 -0.00473697 -0.00010661 -0.00452905
C -4.24060805 1.94404597 10.81073976 -0.00121501 -0.00317165 0.00116555
C 2.23876753 2.02751971 11.96907107 0.00546677 -0.00170344 -0.00095493
C 8.74783462 6.66669913 6.27229027 -0.00247742 -0.00172409 0.00102998
C 2.05386294 7.76733129 6.21020695 -0.00230486 -0.00424385 0.00355706
C -4.47752244 2.84407217 11.87131622 0.00047576 0.00547661 0.00582583
C 3.67109284 1.83036807 6.50024221 -0.00386401 -0.00892142 0.00290853
C 6.51945955 6.89116729 11.70041962 0.00116601 -0.00338331 -0.00287349
C 0.10018443 7.31530147 11.52312057 -0.00101324 -0.00307760 -0.00343725
C -2.50181158 2.58458718 6.85161833 -0.00675815 0.00002743 0.00106274
C 2.77439685 2.76565631 6.06120555 -0.00085634 0.00021740 0.00448312
C -5.44454333 7.67312087 11.94338410 0.00323776 0.00351588 0.00474154
C 1.05008162 6.45982804 12.04622863 -0.00735883 -0.00444779 -0.00181327
C 9.67963033 2.08196214 6.29817498 -0.00074463 -0.00247886 0.00018133
C -1.20284934 5.14122978 9.60148547 -0.00188520 0.00624295 -0.00539084
C -1.35925220 0.11216810 8.68930243 0.00695884 0.00269982 0.00026437
C 5.26997934 4.59148840 8.73528694 -0.00410488 -0.00691184 0.00184742
C 5.49209364 9.22164117 9.74450835 0.00434037 0.00715854 -0.00614547
C -2.53986297 5.89760887 9.54725637 -0.00658352 -0.00318863 0.00397876
C -0.15298211 1.00656108 9.04678762 0.00018020 -0.00028294 0.00188680
C 6.49581698 3.68560753 8.88609903 -0.00393126 -0.00216963 -0.00087762
C 4.24741691 8.41023960 9.55771006 -0.00478282 -0.00976074 -0.00013433
C -2.71473615 3.66003968 17.24028087 -0.00126439 -0.00261011 -0.00351076
C -5.58225280 8.51526406 13.12502426 0.00037957 -0.00830734 0.00498701
C 0.80673365 5.89382437 13.29770060 0.00181586 0.00062390 -0.00170693
C 3.83414137 1.26865145 17.42285742 0.00551164 -0.00076648 -0.00164665
C -1.56003053 3.50359045 16.57868765 0.00381267 0.00455733 -0.00683487
C 6.13227179 8.70300729 13.86304877 0.00035447 -0.00128438 -0.00489170
C -0.38474712 5.97672948 13.91024076 0.00264641 -0.00006948 -0.00006176
C 31.33863256 1.07807170 16.57487295 -0.00602555 0.00480560 -0.00141319
C -0.58538835 2.53808560 16.95605288 0.00514687 -0.00498578 -0.00724308
C 5.16224904 7.84213894 13.42647138 0.00299326 -0.00476308 0.00171384
C -1.32325528 6.82569346 13.40773166 0.00210130 0.00528488 0.00281172
C -7.22093595 2.04070596 16.94199737 0.00308423 0.00643665 0.00615668
C -0.73120283 1.79178242 18.09245683 -0.00480602 -0.00015334 -0.00251536
C 5.28083255 6.91830106 12.33666287 0.00182726 -0.00134331 -0.00488406
C -1.15975181 7.57042939 12.19109039 0.00186415 0.00448858 0.00934795
C -7.41083635 2.76598028 18.14879143 -0.00104246 -0.00053627 0.00163217
C 1.02163854 2.07687101 12.66569991 0.00060514 -0.00351880 0.00050859
C 3.73991888 7.11886964 17.52864457 -0.00394104 0.00192902 -0.00008164
C -2.95561311 7.65033555 17.53908198 -0.00354608 0.00232849 -0.00103155
C -5.74504350 2.84820133 12.49047767 0.00380168 0.00376701 -0.00263036
C -0.03323953 2.86978688 12.26452385 -0.00473849 0.00023144 -0.00508067
C -8.20153745 7.89091142 18.05552394 -0.00377189 0.00268471 -0.00666796
C -2.00505040 6.86573315 18.02743436 -0.00054176 -0.00080182 -0.00000760
C 6.68365564 1.99504918 12.34721717 0.00262076 -0.00393120 -0.00881971
C -3.93235631 4.85344465 15.46723195 -0.00242393 0.00953270 0.00037110
C -4.64367805 0.33199852 14.86668307 0.00217239 0.00088795 0.00017980
C 2.09845998 4.58935733 14.94349559 -0.00086522 0.00522027 0.00483950
C 2.47982616 9.42361521 15.62751460 0.00135295 0.00027504 0.00177279
C -5.11159094 5.73932558 15.26438776 -0.00527905 -0.00178937 -0.00182073
C -3.59746937 1.36918956 14.94608715 -0.00015601 0.00339328 0.00799134
C 3.45813483 3.87514045 15.19316954 0.00541513 -0.00408917 -0.00507018
C 1.36176459 8.46189784 15.32543043 -0.00655720 0.00538375 0.00407290
C -5.86157458 3.73768295 23.42393715 -0.00236843 0.00337181 -0.00436448
C -8.46953975 8.66768467 19.19418416 -0.00558604 0.00048985 -0.00702739
C -2.20076931 6.04970463 19.21208496 0.00357945 -0.00178512 0.00262403
C 0.56489629 1.25052012 23.38249399 0.00244882 -0.00169788 0.00364822
C -4.69589568 3.62682066 22.68098947 -0.00081148 -0.00202212 -0.00069273
C 3.30661237 8.40064088 19.95690457 -0.00130727 0.00272276 0.00314203
C -3.38011433 6.15853378 19.84639310 -0.00358221 -0.00264921 0.00035391
C -11.08444314 1.08209283 22.83469646 0.00164620 0.00315364 0.00448574
C -3.75301551 2.73489134 23.07419229 0.00496933 0.00959591 -0.00768959
C 2.27834280 7.65552660 19.43485815 0.00076351 -0.00244739 -0.00044501
C -4.41981041 6.96091810 19.40187600 -0.00425031 -0.00194492 -0.00628742
C -10.13006285 1.97185547 23.24352057 -0.00488648 0.00400938 0.00101489
C -3.98522627 1.79572001 24.10904985 -0.00217091 0.00274378 -0.00197779
C 2.45508065 7.00689127 18.19372961 0.01140640 -0.00700303 0.00087316
C -4.15169908 7.84634336 18.30624743 0.00005271 -0.01069450 -0.00109160
C -10.29537464 2.85441965 24.37714662 -0.00751292 -0.00303660 -0.00172813
C -1.99149603 1.96937742 18.85820056 -0.00898160 -0.00118253 0.00084722
C 0.57269411 6.79290857 23.84849137 -0.00538766 -0.00366689 -0.00218993
C -5.69983698 7.69099140 23.98353000 -0.00224053 0.00373179 0.00036999
C -8.62379683 2.61332606 18.85119672 -0.00468182 0.00042477 0.00695536
C -2.89680131 2.89615556 18.43090782 -0.00567458 0.00252381 0.00048725
C -11.53585696 7.62520502 24.24052975 -0.00335536 -0.00036044 0.00203420
C -4.81629918 6.74706862 24.37559814 -0.00702044 0.00355465 0.00003600
C 3.53568592 2.06318911 18.53135296 0.00634661 -0.00569955 0.00735926
C -6.99494447 5.25161152 21.86867645 -0.00056196 0.00001686 0.00259444
C -7.18720395 0.15733584 20.89767499 -0.00101654 0.00313471 0.00332710
C -1.14866466 4.54230504 20.80210955 -0.00388844 0.00133781 0.00211919
C -0.37027523 9.28548204 21.82824777 0.00262025 -0.00461125 0.00475917
C -8.11516344 6.30165541 21.70588488 0.00057900 -0.00115700 0.00275840
C -5.97940978 0.99986631 20.94930284 0.00681257 -0.00126007 -0.00128521
C -0.10381515 3.53916330 20.92824032 0.00109697 -0.00434708 0.00031244
C -1.53816190 8.44025464 21.55823369 -0.00330269 0.00324627 -0.00447576
C 3.30546824 13.32126477 4.99974712 -0.00410369 -0.00553509 0.00492958
C 0.59158285 18.33669753 1.03634912 -0.00628327 0.00050847 0.00120338
C 7.06920608 15.58575019 0.99340759 -0.00362382 -0.00197279 -0.00134479
C 9.73485985 10.68879401 5.10471665 -0.00083265 0.00370546 -0.00406289
C 4.56070318 13.23602334 4.42697457 -0.00259619 -0.00600915 0.00316390
C 12.38282615 18.26857059 1.66973151 0.00464263 0.00053372 0.00487720
C 5.84401990 15.61099666 1.66386017 0.00475689 -0.00343648 -0.00121190
C 37.36515838 10.92469658 4.39274761 -0.00524433 0.00829293 0.00600413
C 5.53510237 12.34874395 4.94107978 0.00136194 0.00129358 0.00285215
C 11.44659652 17.40252847 1.18613751 0.00421558 0.00005447 -0.00112274
C 4.86015924 16.50842719 1.28153272 -0.00472365 -0.00622868 -0.00014351
C -1.14200911 11.79189028 4.84531341 0.00213495 -0.00120252 -0.00110129
C 5.27512583 11.59455748 6.06954962 -0.00312563 0.00284995 0.00090497
C 11.65986875 16.61079532 0.01257155 -0.00043606 0.00379075 -0.00365614
C 5.12079092 17.38892867 0.19569650 -0.00404240 -0.00504524 0.00126360
C -1.21402317 12.42932244 6.08400458 0.00530533 0.00763827 0.00464837
C 6.83823755 11.77515199 0.45012560 0.00998882 0.00427211 -0.00522665
C 9.65975283 16.37966382 5.59700502 0.00174857 0.00125940 0.00334274
C 3.20165269 17.30015018 5.51486613 -0.00696939 -0.00252366 -0.00351732
C 0.49304071 12.44947656 0.46837136 0.00365741 0.00535208 -0.00605539
C 5.92542857 12.65345934 0.01138181 -0.00845266 0.00320018 -0.00119170
C -2.32840076 17.45103197 5.85123534 0.00173857 0.00200392 0.00508595
C 4.19648184 16.41648616 5.97809337 -0.00333621 0.00730800 -0.00777628
C 12.63089643 11.29665319 0.31242108 -0.00070100 -0.00094982 0.00501067
C 2.07577303 14.77084684 3.34578190 -0.00075408 -0.00246726 -0.00664920
C 1.72442550 9.89452248 2.42444947 0.00019067 0.00221107 0.00409709
C 8.23073628 14.18683178 2.56177053 -0.00102859 -0.00154826 -0.00211608
C 8.45482664 19.35174592 3.73618003 -0.00529400 -0.00533899 -0.00157434
C 0.89080392 15.70791965 3.25215106 0.00276381 -0.00950003 0.00117277
C 2.94803022 10.83381101 2.47685261 -0.01246570 0.00197746 -0.00161216
C 9.29122152 13.19018591 2.76408314 -0.00065335 0.00097171 -0.00065587
C 7.22861874 18.44414243 3.70791443 -0.00315072 0.00202541 -0.00064027
C 0.16198101 13.37271568 11.10391918 -0.00095228 0.00190813 -0.00119006
C -2.54449627 18.28157622 7.00262325 0.00331311 0.00012633 0.00194731
C 3.91407422 15.59466494 7.10004761 -0.00494053 -0.00083844 -0.00313012
C 6.50945197 10.84802901 11.15073902 -0.00091645 -0.00566270 -0.00101310
C 1.37998530 13.22616061 10.44181057 0.00372311 0.00285740 0.00959690
C 9.34154234 17.94707187 7.82934825 -0.00427919 -0.00242824 -0.00004740
C 2.68229578 15.72329253 7.79955833 0.00558038 -0.00195298 -0.00236024
C -5.12387095 11.08205231 10.43160701 -0.00592597 0.00140681 0.00075856
C 2.34156536 12.33546145 10.85891921 0.00019028 -0.00197935 -0.00070959
C 8.34199100 17.08852129 7.37656605 0.00678605 0.00223416 -0.00272364
C 1.73837590 16.58166482 7.32092408 -0.00180013 -0.00035214 -0.00152505
C -4.22007963 12.07108952 10.77445361 0.00421981 0.00140491 -0.00208966
C 2.07860657 11.49261455 11.99330727 0.01179912 0.00117432 0.00404916
C 8.42766454 16.36160655 6.24951280 0.00063197 0.00326828 -0.00638656
C 1.96477111 17.31375741 6.13314415 0.00082652 -0.00246396 0.00247892
C -4.31659966 12.71465079 12.01024579 -0.00021112 -0.00210457 0.00537905
C 3.92958369 11.72577681 6.67040395 -0.00117408 0.00274551 -0.00192492
C 6.57027403 16.36146781 11.59322665 0.00630005 -0.00070977 -0.00445509
C -0.01486791 17.27400087 11.67057517 0.00086101 -0.00439054 -0.00747165
C -2.40782585 12.27639032 6.82901209 -0.00137528 0.00557745 0.00768447
C 3.00816942 12.55807737 6.13102221 0.00056326 -0.00297271 -0.00325035
C -5.58436309 17.46482499 11.91210495 0.00131497 -0.00373662 -0.00118026
C 1.02403767 16.44984863 12.10585096 0.00417697 -0.00124663 0.00279198
C 9.52130361 11.56641992 6.21145532 0.00254129 -0.00433882 -0.00370529
C -0.85851537 14.82739586 9.52912969 0.00295666 -0.00066258 0.00586822
C -1.31880354 9.82650724 8.48181261 -0.00377433 -0.00518709 0.01095686
C 4.91560847 14.30800487 8.75149946 0.00679381 -0.00671010 0.00306671
C 5.54833953 19.03488569 9.58841596 0.00155585 -0.00327571 0.00569181
C -1.98473676 15.75290316 9.13669483 0.00533520 -0.01191374 0.00575314
C -0.01270630 10.50802415 8.60756663 0.00435311 -0.00462722 0.00316302
C 6.11252418 13.46299925 9.12132867 -0.00212547 0.00021732 -0.00364912
C 4.36021831 18.12507715 9.32279884 0.00342611 -0.00348055 -0.00217845
C -2.89265409 13.44250246 17.31022530 -0.00038343 0.00596870 -0.00591246
C -5.74780714 18.28601776 12.98643537 0.00147898 -0.00264636 0.00353883
C 0.80676891 15.65044866 13.19693808 0.00281844 -0.00010258 0.00914351
C 3.62467071 10.79604246 17.28136658 -0.00085074 0.00630413 0.00067475
C -1.63133100 13.37499298 16.69978973 -0.00212058 0.00287306 -0.00281643
C 6.27264179 17.86021537 13.88684821 0.00615972 0.00595198 -0.00101952
C -0.50101472 15.51326090 13.74754897 -0.00414430 0.00329538 -0.00575511
C -8.08602069 10.94090768 16.64512985 0.00121995 0.00502124 -0.00188545
C -0.72552774 12.41141757 17.14917693 -0.00561271 -0.00223534 0.00313403
C 5.20543422 17.13584871 13.39048137 -0.00439835 -0.00993748 -0.00186071
C -1.57089033 16.16187143 13.20855802 0.00131961 -0.00082856 0.00293942
C -7.14433393 11.90085544 16.99113998 0.00072201 0.00053272 -0.00670054
C -0.97750234 11.48355535 18.17541076 0.00291509 -0.00243076 -0.00229995
C 5.29706396 16.36567140 12.22530794 0.00607159 -0.00510673 -0.00448154
C -1.31718206 17.14544256 12.18084030 -0.00211091 0.00720938 0.00220874
C -7.34648846 12.66581656 18.15646183 -0.00306858 0.00042313 0.00512606
C 0.84590794 11.69198958 12.67265448 -0.00326787 0.00017087 0.00465778
C 3.60145520 16.27219907 17.61363630 -0.00521162 -0.00221250 0.00360636
C -2.71140658 17.22194648 17.54599654 0.00533283 0.00717406 -0.00047364
C -5.41292586 12.48811801 12.83202395 0.00507016 0.00122786 0.00003453
C -0.09556886 12.58916897 12.21146632 0.00043040 0.00501479 0.00303458
C -8.40585524 17.50933219 18.15646925 0.00397562 0.00066190 -0.00355521
C -1.73246465 16.36478535 18.06351179 -0.00393134 0.00726370 -0.00735588
C 6.24041755 11.73548340 12.20165794 -0.00366420 0.00329467 -0.00679151
C -3.95370330 14.91306893 15.66824545 -0.00266206 -0.00809201 -0.00288426
C -4.21082186 9.95974013 14.61906732 -0.00153717 0.00192645 0.00251202
C 1.88630450 14.27944866 14.84139745 0.00258936 -0.01004263 -0.00036409
C 2.58651717 18.94262485 15.45546525 -0.00146815 0.00559661 -0.00180192
C -5.02731933 15.86906141 15.40832359 0.00907266 0.00475512 0.00224412
C -3.04593116 10.91417389 14.65480932 -0.00945692 -0.00635032 0.00409607
C 3.14445948 13.38624230 15.09230395 0.00303284 0.00329403 -0.00942326
C 1.47523626 17.94936169 15.37991475 0.00528447 0.00792912 0.00376003
C -5.86918235 13.53817857 23.35505931 -0.00493161 0.00172689 -0.00245348
C -8.56313866 18.36716972 19.24199176 -0.00294343 -0.00210026 0.00047922
C -1.93258199 15.64301262 19.27860218 -0.00052512 -0.00455427 0.00615743
C 0.84378349 10.58554377 23.53901845 -0.00065132 -0.00070859 -0.00416708
C -4.64529829 13.38372421 22.69313763 -0.00478434 -0.00529074 -0.00259430
C 3.23435048 17.94769748 19.88337364 0.01067588 0.00029367 -0.00326455
C -3.17170862 15.74648750 19.85010110 -0.00873836 0.00898492 0.00591524
C 28.33165903 10.87551374 22.59645273 -0.00573267 0.00211662 -0.00150941
C -3.69024379 12.49300493 23.11371425 -0.00612790 -0.01005476 -0.00156743
C 2.24027575 17.08293456 19.38508723 -0.00037810 0.00287260 -0.00533874
C -4.15067524 16.54995157 19.31378868 -0.00073261 0.00265870 -0.01261045
C -10.15802910 11.62976702 23.05571937 0.00359630 0.00017835 0.00394840
C -3.92027371 11.66908615 24.18192254 0.00132793 -0.00611697 -0.00004983
C 2.42169387 16.21543362 18.30419216 0.00184956 -0.00373260 -0.00376625
C -3.97023286 17.35022421 18.16789334 -0.00662541 0.00468076 0.00182980
C -10.25314235 12.45362344 24.24498103 0.00389254 0.00181672 0.00532143
C -2.22076249 11.64653280 18.80092415 -0.00217004 -0.00052024 0.00468175
C 0.89558273 16.81878885 23.71188629 -0.00194057 -0.00076735 0.00324202
C -5.65327978 17.39824448 23.99010076 -0.00097607 0.00332158 -0.00123295
C -8.61686097 12.59703705 18.77113895 0.00045415 -0.00219072 0.00084172
C -3.16409521 12.62038087 18.43484289 -0.00000750 0.00169842 -0.01009157
C -11.22558661 17.39920094 24.34979721 0.00307930 0.00422838 0.00141303
C -4.75557155 16.47953549 24.33002276 -0.00309991 -0.00579263 -0.00443015
C 3.47380448 11.59941186 18.40820196 -0.00315182 0.00092366 -0.00341773
C -7.03610860 14.95680867 21.80523306 -0.00669926 -0.00046346 -0.00153344
C -7.45266408 9.94206417 20.91875780 0.00283419 -0.00336767 0.00457787
C -0.95510628 14.36602981 21.07563054 0.00429241 0.00392120 0.00066097
C -0.52650935 19.26298633 21.73732553 -0.00974576 0.00309469 -0.00465861
C -8.35346141 15.60636417 21.57621751 -0.00023526 0.00146482 -0.00394471
C -6.32122192 10.86668113 21.33611759 -0.00024920 0.00002713 -0.00094321
C 0.23213046 13.61582599 21.61887437 0.00652413 -0.00206041 -0.00858818
C -1.80361918 18.58735725 21.51379368 0.00781793 0.00170410 0.00347990
C 3.30467188 23.13328929 5.03386057 -0.00160198 -0.00024741 -0.00304239
C 0.57291593 27.71364107 0.89581929 0.00125746 0.01093837 -0.00640393
C 7.25104779 25.36971345 1.01742306 0.00717323 0.00629720 -0.00235822
C 9.89524314 20.58288665 5.23098614 -0.00137717 -0.00019495 -0.00010131
C 4.50368191 23.02210825 4.33067449 0.00439765 -0.00176749 0.00669533
C 12.01856829 27.83197782 1.58614005 0.00004242 -0.00073984 0.00569563
C 6.07515053 25.41127828 1.79231579 -0.00222033 -0.00099753 -0.00584163
C -2.15949442 20.76521664 4.48903718 -0.00409950 -0.00379492 -0.00135027
C 5.44303700 22.08944221 4.75263392 0.00100637 0.00075508 -0.00220120
C 11.01300497 26.94925718 1.15867664 0.00519878 -0.00009368 0.00139239
C 5.11906778 26.35926890 1.54179219 -0.00047361 -0.00635443 -0.00068446
C -1.18575042 21.63470166 5.02220155 0.00252290 0.00096990 0.01016484
C 5.19597045 21.23647913 5.87973670 0.00310903 0.00784786 0.00596184
C 11.34070359 26.12688726 0.09557897 0.00065102 0.00227432 -0.00126610
C 5.24901194 27.11855558 0.34636271 0.00171831 -0.00833908 0.00523662
C -1.43968116 22.35533010 6.18392813 -0.00738959 0.00107830 -0.00143384
C 7.08044347 21.34743407 0.45227839 -0.00097470 0.01424838 -0.00173228
C 9.71379051 26.36885446 5.40144779 0.00090138 0.00511475 0.00198332
C 3.33646816 27.05829376 5.64078953 -0.00676467 0.00711635 0.00180569
C 0.59713250 22.09302194 0.58946534 0.00482744 0.00426167 0.00430052
C 6.05901445 22.25709609 0.12348116 0.00864242 -0.00278283 -0.00348371
C -2.37893611 27.01018719 5.89445376 0.00380240 0.00035311 0.00002799
C 4.38176406 26.18895418 6.07024562 -0.00411641 0.00033005 0.00554718
C 12.48416294 21.29868813 0.22892997 -0.00044497 -0.00547003 -0.00339308
C 2.04001832 24.46877430 3.46796848 -0.00075032 -0.00587365 -0.00633204
C 1.72292029 19.74123256 2.59174060 0.00229557 0.00078444 0.00092387
C 8.40296250 23.98627240 2.61803171 0.00186255 0.00635696 0.00472955
C 8.45814237 28.84522320 3.68473788 -0.00138797 -0.00270686 -0.00232705
C 0.83556312 25.26749759 3.06877057 0.00845028 -0.00294026 0.00220205
C 2.97847900 20.50667480 2.77621776 -0.00573674 -0.00251716 -0.00443948
C 9.62583447 23.00985282 2.77806064 0.00008114 -0.00543428 0.00172276
C 7.23741734 27.88902861 3.59033979 -0.00226788 -0.00094088 -0.00553450
C 0.04448616 22.90395815 11.21787795 -0.00123113 0.00021291 -0.00182626
C -2.51416437 27.74102178 7.11227735 0.00176804 0.00787616 -0.00262982
C 4.13369531 25.25430711 7.10236090 0.00055405 0.00287754 -0.00262709
C 6.74070330 20.32620196 11.19822042 -0.01389950 -0.00011377 -0.00203740
C 1.28273786 22.87342305 10.53843300 0.00520558 0.00042219 0.00421667
C 9.64994632 27.76627220 7.73416251 -0.00045335 0.00120181 -0.00350177
C 2.94591719 25.30412688 7.75904975 0.00485876 0.01089149 -0.00057394
C -5.09895834 20.47928928 10.49573669 -0.00248369 -0.00100731 -0.00398366
C 2.27633202 21.97955645 10.93064060 -0.00041227 0.00443413 0.00575525
C 8.64032097 26.92606323 7.43100179 -0.00088160 0.00084986 -0.00248537
C 1.88077312 26.15402624 7.35661035 -0.00110129 0.00645161 -0.00030424
C -4.06420018 21.25626869 10.98376032 -0.00377712 0.00019359 -0.00844272
C 2.14005670 21.21186272 12.01296534 0.00346363 -0.00599538 0.00042676
C 8.62763950 26.25340595 6.19048503 0.00378078 -0.00419884 -0.00503027
C 2.00890608 27.03665058 6.26220175 -0.00363543 -0.00091679 0.01082096
C -4.34805176 22.22946362 12.01473718 0.00181689 0.00501999 0.00264822
C 4.00273348 21.36930797 6.56472046 0.00000350 0.00289960 0.00278015
C 6.91057435 26.23033075 11.91607834 -0.00079602 0.00384767 0.00084235
C 0.23040305 26.95677007 11.62876562 -0.00052104 -0.00063486 0.00672342
C -2.75682749 22.24009749 6.78967224 0.00273007 0.00086106 0.00201881
C 3.06177521 22.33017529 6.13207222 0.00305739 -0.00270496 -0.00570509
C -5.47356579 27.04188317 12.11666729 0.00116752 -0.00819462 0.00247889
C 1.14545606 25.97355434 11.99215535 0.00506438 -0.00169480 0.00149464
C 9.64825830 21.53780202 6.20153993 0.00289160 0.00082839 -0.00467590
C -0.95992052 24.57598843 9.73467298 0.00298101 0.00097756 0.00657644
C -1.36193564 19.65953784 8.61153069 -0.00989803 -0.01121455 0.00619357
C 5.29062764 23.87393864 8.79605466 -0.00001798 0.00002101 0.00094826
C 5.44377299 28.81098442 9.70969717 -0.00010708 -0.00067222 0.00063091
C -2.10776808 25.47995442 9.58799260 0.00588056 -0.00649619 -0.00343527
C -0.10424950 20.45619406 8.74040680 -0.00408555 -0.00256501 -0.00318142
C 6.39268935 22.83579524 9.00095994 0.00508772 0.00063324 -0.00124879
C 4.20354118 27.90673895 9.77493951 0.00165527 0.00362535 0.00040696
C -2.70542585 23.07314239 17.30208365 -0.00311926 -0.00351652 -0.00589063
C -5.63452160 27.83194806 13.23697973 -0.00112210 0.00065235 0.00157647
C 0.99519595 25.15751126 13.15208200 0.00681025 -0.00464760 0.00601640
C 3.68613051 20.34388068 17.07049377 0.00372149 -0.00208387 0.00040881
C -1.61176337 22.91603916 16.52386157 0.00968905 0.00112944 0.00123962
C 6.48982576 27.95139197 13.99736628 -0.00493394 0.00139510 -0.00442790
C -0.20608116 25.37753074 13.93628545 0.00013392 -0.00271307 -0.00094438
C 31.18742439 20.62779987 16.57369624 -0.00411105 -0.00075382 0.00076283
C -0.57287881 22.08925902 16.92224925 -0.00377232 0.00453772 -0.00021190
C 5.46390025 27.10194321 13.67009874 0.00520465 0.00267672 0.00633412
C -1.03209448 26.42990635 13.68244426 -0.00069492 -0.00243727 -0.00691141
C -7.38796376 21.48191288 16.96154478 0.00214686 0.00047475 -0.00616454
C -0.66320256 21.29951043 18.04843945 0.00830849 0.00222972 0.00079702
C 5.68369944 26.27302870 12.54873439 -0.00229161 -0.00630275 0.00648045
C -0.87130229 27.18049039 12.49028569 0.00159181 0.00047309 0.00363833
C -7.56391908 22.25013787 18.12479084 0.00028814 0.00669777 0.00501263
C 0.91987684 21.34163351 12.75463754 -0.00180645 0.00719637 0.00032393
C 3.74034200 26.32155712 17.93536032 0.00632647 -0.00164259 -0.00112436
C -2.76130229 27.03559854 17.87848422 0.00276589 -0.00220008 -0.00880437
C -5.64072062 22.27049512 12.59716407 0.00615294 -0.00296550 -0.00310272
C -0.12718976 22.06800757 12.33681474 -0.00070855 -0.00550514 -0.00721705
C -8.33266002 27.03800678 18.27947523 0.00108828 -0.00243397 -0.00022713
C -1.73726290 26.28098298 18.31108890 0.00665530 -0.00380234 0.00035191
C 6.49185607 21.14318230 12.30076788 0.00500441 -0.00331448 -0.00084373
C -4.02713929 24.42306640 15.79020027 -0.00123732 -0.00158969 0.00414952
C -4.55814779 19.68737107 14.52728501 -0.00715396 0.00367988 -0.00133244
C 2.20334635 23.78689048 14.76068179 -0.00316997 -0.00098970 0.00569992
C 2.52887849 28.91392238 15.85867320 -0.00512692 0.00395392 0.00538727
C -5.33846200 25.19110153 15.71083001 0.00380297 0.00528467 0.00532968
C -3.46468632 20.72712660 14.80529555 -0.00013111 -0.00397338 0.00172473
C 3.46308962 22.88016553 14.86020482 0.00366108 -0.00218934 -0.00347500
C 1.31491457 28.11800903 15.83861359 0.00253403 -0.00145003 -0.00486020
C -5.79204506 23.16435231 23.52123363 -0.00188415 -0.00762070 -0.00091190
C -8.54637929 27.86566669 19.35983040 0.00746785 -0.00175039 0.00191927
C -1.92814649 25.38742105 19.34093897 -0.00098299 -0.00428475 -0.00162461
C 0.61286940 20.53433923 23.40221314 0.00078426 0.00199042 -0.00042441
C -4.49578821 23.17602396 22.80195486 -0.00431495 -0.00408260 0.00024171
C 3.36012325 27.95657426 20.11689479 -0.00507504 0.00421924 0.00083390
C -3.19605312 25.31304718 19.96738962 0.00124471 0.00891830 -0.00318717
C -10.96591889 20.49280857 22.76119175 -0.00160044 -0.00552263 0.00013340
C -3.52256078 22.23431285 23.05980372 0.00182501 -0.00279501 0.00065161
C 2.41522294 27.01593115 19.75529579 -0.00676249 -0.01258955 -0.00393216
C -4.28076248 26.06601517 19.54020806 -0.00205349 0.00149584 -0.00600841
C -10.01516938 21.35356518 23.12456305 -0.00300960 -0.00081611 -0.00162837
C -3.79566870 21.27567571 24.09784895 0.00146722 -0.00678338 0.00188216
C 2.55422871 26.18983148 18.63915350 -0.00709866 0.00420372 0.00579244
C -4.07666679 26.98047493 18.52251521 -0.00597737 -0.00353884 -0.00251403
C -10.17471707 22.10172059 24.32372492 0.00336815 0.00052595 -0.00141337
C -1.86878201 21.37849838 18.73611378 0.00040965 -0.00233803 0.00197449
C 0.53869441 26.18107133 23.81721926 0.00701453 -0.00287293 -0.00127572
C -5.64155721 27.02457890 23.91693351 0.00064885 0.00125716 0.00105544
C -8.72509446 22.17034752 18.85259554 -0.00562103 0.00060460 0.00264283
C -2.87787580 22.19099122 18.36237821 0.00050855 -0.00063483 -0.00194442
C -11.27769587 26.84100467 24.24263332 -0.00202466 -0.00685876 -0.00819172
C -4.66356096 26.16085675 24.30267869 0.00307503 0.00135241 -0.00583260
C 3.50877980 21.10617832 18.26065100 -0.00472099 -0.00052341 0.00915736
C -7.04989762 24.65175357 22.01928361 -0.00565064 -0.00638068 0.00312709
C -7.24801769 19.65150284 20.83985485 0.00638282 0.00336807 0.00347689
C -0.79667734 23.87402792 20.80063631 0.00404889 -0.00241708 -0.00049107
C -0.59943977 28.71433309 21.85442603 -0.00614690 -0.00656339 -0.00256077
C -8.22602007 25.56073763 21.91723022 0.00672864 0.00808874 -0.00116456
C -6.04446417 20.56634038 20.90151974 -0.00215649 0.00010888 -0.00126895
C 0.38707624 22.99816149 20.99514913 -0.00036714 0.00090815 0.00369505
C -1.80609838 27.81341001 21.83738450 -0.00107423 0.00891379 -0.00543894
C 16.47781473 3.63867309 4.93192362 -0.00084815 -0.00122386 0.00442987
C 13.57406322 8.40371330 1.05947953 -0.00062468 -0.00546095 0.00316196
C 20.18526351 5.96466458 0.96655686 -0.00302690 0.00268859 -0.00290207
C 23.05685571 1.13783970 5.05724091 0.00187957 0.00066725 -0.00254150
C 17.74836258 3.64230675 4.38919105 0.00536084 -0.00100228 -0.00059755
C 25.67583264 8.41049961 1.86000011 -0.00633625 0.00067443 0.00343129
C 19.00212914 6.14903319 1.68795735 -0.00502830 -0.00522300 -0.00444656
C 10.89407010 1.42310583 4.31805293 -0.00064290 -0.00571225 -0.00023393
C 18.68794280 2.72013202 4.83422709 0.00048417 -0.00339903 0.00378708
C 24.64348666 7.61471672 1.39041667 -0.00293758 0.00219518 -0.00473324
C 17.97043018 6.98905409 1.28530264 0.00809183 -0.00003262 0.00787757
C 11.89711637 2.28851230 4.62789904 -0.00016327 0.00194169 0.00780013
C 18.44557811 1.94032253 5.93343530 0.00699249 -0.01244930 -0.00093893
C 24.78505138 6.86566570 0.21710280 -0.00051743 0.00041311 0.00101541
C 18.19463833 7.80084546 0.19152311 0.00469978 -0.00450268 -0.00464038
C 11.84048235 2.99760127 5.91815249 -0.00193927 -0.00066824 -0.00765468
C 20.17619901 1.90815272 0.52410510 -0.00001462 -0.00664622 0.00414677
C 22.79775379 6.83108381 5.61037970 -0.00920075 0.00315639 -0.00054124
C 16.34066965 7.57254403 5.54651316 0.00371756 -0.00065258 0.00279334
C 13.41101001 2.97841888 0.50014252 -0.00126504 0.00031576 -0.00398709
C 19.16418727 2.71770117 0.12237065 -0.00175041 0.00670883 0.01116002
C 10.86900187 7.80772847 6.06082933 -0.00547802 0.00311474 0.00428866
C 17.28232744 6.64408526 5.87824435 0.00646187 0.00329453 0.00706565
C 26.05780432 2.00059363 0.12311783 0.00280187 0.00521562 0.00152921
C 15.32694011 5.11728874 3.48480033 0.00012482 -0.00492530 -0.00102599
C 14.49375105 0.30417882 2.51485971 0.00030608 0.00259958 0.00275969
C 21.41379860 4.51659678 2.56546350 -0.00380517 -0.00155706 -0.00063689
C 21.83397122 9.24536540 3.61011942 -0.00083123 0.00784386 0.00186728
C 14.25227693 6.12772473 3.44434128 -0.00447909 -0.00536047 0.00064724
C 15.64401968 1.28015129 2.57070544 -0.00296124 0.00225857 -0.00493416