2880
Time=5000.00000000 pbc="T T T" Lattice="39.51286112 0.00000000 0.00000000 0.00000000 29.20128340 0.00000000 -12.00838917 0.00000000 24.32220326" energy=-18396.72306669 virial="-41.94110141 29.90060374 -41.22434387 29.90060374 -46.31730385 -26.13325424 -41.22434387 -26.13325424 -28.52759761" stress="0.00105601 0.00118131 -0.00160238 0.00118131 0.00075280 -0.00093120 -0.00160238 -0.00093120 0.00157646" Properties=species:S:1:pos:R:3:vel:R:3
C 2.88030751 3.65134728 5.16930366 -0.00633701 -0.00154604 -0.00755605
C 0.55265003 8.59052253 1.10683925 -0.00110069 0.00117581 0.00163102
C 7.10002899 6.15802589 0.89846061 0.00010795 -0.00719248 -0.00762931
C 9.57366812 1.06742581 5.26018174 0.00636497 0.00409188 -0.00172114
C 4.08584781 3.46125580 4.43312135 0.00156955 -0.00518660 -0.00049629
C 12.54469118 8.60500453 1.52847484 0.00846780 0.00025291 0.00015224
C 5.94769925 6.20595576 1.65254007 0.00540162 0.00398538 0.00651338
C 37.36242950 1.09079988 4.31509877 -0.00902226 0.00300391 0.00025611
C 5.13237464 2.57683654 4.79167180 0.00334023 -0.00363348 -0.00320597
C 11.55402976 7.68125104 1.20236062 -0.00182426 -0.00117766 -0.00077170
C 4.93824734 7.08388173 1.28249194 -0.00120508 0.00035687 -0.00251976
C -1.10459927 1.88161919 4.78269797 -0.00460458 0.00242633 -0.00102664
C 5.04213782 1.85197397 5.94349494 0.00802235 -0.00157586 0.00114800
C 11.65837935 6.82286108 0.12487964 -0.00212960 -0.00224107 -0.00490355
C 5.04385587 7.95794349 0.19930468 -0.00175551 -0.00362550 -0.00352337
C -1.22779502 2.69815361 5.90555161 0.00301405 -0.00774536 -0.00171353
C 7.12789273 2.29574173 0.68077435 -0.00073144 -0.00120994 -0.00779107
C 9.85409066 6.85575227 5.36680672 0.00552399 -0.00111963 -0.00629117
C 3.23044952 7.33725396 5.52469529 0.00342378 -0.00165476 0.00079629
C 0.35036675 2.83301364 0.54812406 0.00184964 -0.00315055 0.00730331
C 6.10082561 3.13297887 0.21866766 -0.00260177 -0.00081690 0.00308388
C -2.18094689 7.80412942 6.16734433 -0.00505685 0.01010661 -0.00777960
C 4.13052999 6.40538126 5.92247698 0.00142993 0.00425839 -0.00161256
C 12.44515579 1.93905799 0.10810370 0.00543856 -0.00096104 -0.00676886
C 1.71740358 5.05351785 3.62645114 0.00166675 0.00596874 -0.00229720
C 1.56656940 0.10993017 2.58361758 0.00219214 0.00371816 0.00064518
C 8.28402741 4.56997191 2.30396136 0.00853053 -0.00185074 -0.00066461
C 8.66001451 9.32658632 3.38732851 -0.00190885 -0.00575605 0.00532240
C 0.46488389 5.85751857 3.42800157 -0.00097281 0.00182782 0.00193147
C 2.71895557 0.98122135 2.86065461 0.00414967 -0.00673773 0.00076605
C 9.46532574 3.67129840 2.43255807 -0.00671449 0.00423304 0.00366748
C 7.41528799 8.56172778 3.30152670 0.00041191 -0.00249899 0.00018045
C 0.00979839 3.69712386 11.34924598 0.00334835 0.00386706 0.00480711
C -2.43575965 8.61040241 7.31730737 -0.00242496 0.00258916 -0.00642280
C 3.93356354 5.64202080 7.07958134 0.00167774 -0.00101903 0.00201752
C 6.47737264 0.95152362 11.07684644 -0.00152991 0.00176351 -0.00647156
C 1.19204163 3.55275942 10.55043455 0.00499278 0.00078367 0.00154812
C 9.24934820 8.45105036 7.58908683 0.00399409 0.00151941 0.00489961
C 2.67047930 5.72857237 7.68642557 -0.00449709 0.00352622 0.00068295
C 34.26833824 1.03639131 10.47160849 0.00546400 -0.00419379 -0.00318560
C 2.16028773 2.63504852 10.95113800 0.00787653 0.00304433 0.00496589
C 8.40523493 7.46713851 7.15368943 -0.00111417 -0.00387473 -0.00619127
C 1.77942817 6.68434475 7.37426080 0.00680010 -0.00720561 -0.00077181
C -4.30084528 1.98229302 10.86243196 -0.00234512 0.00354650 0.00319523
C 1.98811159 1.75631688 12.06703357 0.00016912 -0.00001748 -0.00069951
C 8.60860015 6.74540889 5.95072385 -0.00489088 0.00090096 -0.00190108
C 2.01889301 7.51920964 6.25283863 0.00141465 0.00492654 -0.00170140
C -4.41614747 2.73786945 12.04964430 -0.00470160 0.00224412 -0.00412615
C 3.81067131 1.93184288 6.63015409 0.00492266 0.00207817 -0.01117928
C 6.99550973 6.79455387 11.53271412 -0.00512128 0.00505175 0.00430127
C 0.19901272 7.62646560 11.53816629 0.00581837 -0.00395965 0.00734060
C -2.52516268 2.84262966 6.51790950 -0.00202556 0.00359927 0.00293874
C 2.77807722 2.77674353 6.20303743 0.00202547 0.00807176 -0.00018240
C -5.32446023 7.58394677 12.19533804 0.00029339 0.00416046 0.00589421
C 1.21865784 6.81032790 11.91324908 -0.00033649 0.00011972 0.00061856
C 9.41659269 1.87572121 6.35618170 -0.00447457 -0.00520940 0.01012817
C -1.12934675 5.04555767 9.62302358 0.00626066 -0.00344414 -0.00223823
C -1.59787131 0.24002633 8.80051330 0.00367736 0.00289374 0.00128949
C 5.13256652 4.35443484 8.74864442 0.00547674 -0.00571019 -0.00278498
C 5.70875364 9.32276060 9.54986742 -0.00929555 -0.00859134 -0.00082905
C -2.24903752 6.05493193 9.38584335 0.00010423 0.00504982 0.00380509
C -0.40203530 1.03825167 9.12053220 0.00315015 -0.00534029 -0.00221604
C 6.30252105 3.42797422 8.85594267 0.00153600 0.00191552 -0.00339883
C 4.34846109 8.71033310 9.25666618 -0.00676711 -0.00276627 -0.00590793
C -2.73579432 3.82318209 17.18776319 -0.00139174 0.00001300 0.00373171
C -5.62715303 8.46461697 13.24966453 -0.00446553 0.00077443 -0.00077958
C 1.17827219 5.96314931 13.06756958 0.00324870 -0.00826136 0.00139755
C 3.75487647 1.11129014 17.15419457 -0.00235750 0.00078687 -0.00441537
C -1.51628076 3.70170085 16.50231347 -0.00499282 -0.00531349 0.00267650
C 6.68229004 8.34747197 13.81622862 -0.00453344 0.00292420 0.00470897
C 0.02892361 6.04354177 13.82971714 0.00139788 0.00019009 0.00003423
C -7.99603899 1.40365484 16.51268383 0.00068828 -0.00897906 -0.00359169
C -0.53758237 2.79703862 16.94236274 0.00345621 -0.00479551 0.00323939
C 5.61033904 7.66064525 13.29815910 -0.00258874 -0.00298429 -0.00351834
C -0.96233384 7.00214879 13.63236195 -0.00111717 0.00985134 -0.00275945
C -7.11007655 2.39542791 16.85163375 0.00549535 -0.00237683 -0.00214414
C -0.75102104 1.98646791 18.08444535 -0.00658549 -0.00217239 0.00580218
C 5.72107669 7.00149803 12.08111016 0.00776599 0.00069454 0.01177313
C -0.89305076 7.75829809 12.40539270 0.00069787 -0.00955388 0.01027812
C -7.26174942 3.18495183 18.06823505 0.00070636 -0.00447730 -0.00392371
C 0.81200681 1.87434526 12.81235973 0.00279463 -0.00442311 0.00253119
C 3.71897998 6.82664415 17.68243337 0.00237512 0.01069491 -0.00294800
C -2.68452555 7.92002504 17.81533144 0.00018210 0.00697816 0.00043770
C -5.68317687 2.76698397 12.66088646 -0.00067204 -0.00446415 0.00714431
C -0.12161384 2.83453414 12.44236420 -0.00294866 0.00478312 -0.00110469
C -8.46134051 7.82708499 18.09648575 0.00549437 0.00258205 -0.00104555
C -1.75714050 6.96908627 18.17755716 0.00675454 -0.00680130 -0.00358781
C 6.29251336 1.68914934 12.24224005 -0.00177712 0.00488296 0.00579062
C -4.00718132 5.08340050 15.51109167 0.00107816 0.00341803 -0.00408841
C -4.33021865 0.14177622 14.80221695 -0.00692316 0.00359791 -0.00423228
C 2.49799414 4.54262721 14.47033970 0.00178262 -0.00308638 -0.00056160
C 2.66624308 9.28242740 15.64895882 0.00072625 0.00249845 -0.00088116
C -5.24078035 5.87467329 15.35764058 -0.00008031 0.00430906 -0.00010586
C -3.08961310 0.97721448 14.99588922 -0.00282097 0.00480408 0.00449793
C 3.66877855 3.65794535 14.47083539 0.00054600 -0.00260929 -0.00548125
C 1.65266073 8.23303431 15.37525798 0.00253426 -0.00025017 0.00404336
C -5.79399763 3.72670102 23.25086601 -0.00083480 -0.00094002 -0.00280810
C -8.58268932 8.60907346 19.22820989 -0.00073857 -0.00415253 0.00895455
C -1.99124549 6.00148564 19.16979071 0.00336726 -0.00124948 0.00252693
C 0.66602327 1.12397084 23.31548993 0.00437095 0.00438155 -0.00036661
C -4.56814678 3.63662704 22.56265862 -0.00387637 -0.00731051 0.00527035
C 3.31913623 8.37204727 19.85995882 -0.00436062 0.00529512 0.00128518
C -3.21637062 6.02359962 19.82925124 0.00129276 0.00062205 0.00276338
C 28.26958830 1.22240396 22.59713149 0.00676084 0.00187474 -0.00438902
C -3.52341128 2.92803848 23.04739014 0.00184369 0.00072625 -0.00720738
C 2.30422373 7.56337710 19.43127555 0.00300688 0.00524071 -0.00045561
C -4.19652830 6.84755922 19.37717089 -0.00223682 -0.00384783 -0.00048981
C -10.25281763 2.07270133 22.98950588 0.00563539 -0.00505841 -0.00114852
C -3.68753660 2.13992537 24.19647708 0.00830214 -0.00233492 0.00115729
C 2.50190947 6.76124799 18.28905954 0.00898524 0.00077286 -0.00566962
C -3.96328683 7.79468823 18.39057985 0.00477942 -0.00154135 0.00533269
C -10.44412554 2.98080900 24.12404264 0.00096728 0.00266559 0.00502919
C -1.96078937 2.09321014 18.75459633 0.00072461 0.00153431 0.00571914
C 0.79380826 6.91001878 23.69325627 -0.00041751 -0.00170412 -0.00145340
C -5.78932179 7.83816037 23.70035013 0.00916757 0.00144903 0.00551558
C -8.44058829 2.98779947 18.84031825 0.00054155 -0.00172910 -0.00732569
C -2.90037986 3.01288598 18.33389466 -0.00638048 0.00349669 0.00580403
C -11.29407615 7.78303948 24.29427543 -0.00215138 0.00648753 -0.00050971
C -4.82607084 6.90681914 24.02883625 0.00718114 -0.00240447 0.00369752
C 3.54631588 1.96546514 18.26037270 -0.00341432 0.00028739 0.00416702
C -6.89217407 5.07434279 21.58837118 -0.00852683 -0.00063591 -0.00260395
C -7.30199427 0.28475866 20.72872860 -0.00444336 0.00225745 -0.00241798
C -0.72898390 4.56686197 20.67567003 -0.00121352 -0.00075998 -0.00303369
C -0.73823619 9.26083643 21.77988818 0.00579631 -0.00781960 0.00234370
C -8.01506372 6.12731355 21.30677702 0.00230372 -0.00622192 -0.00315489
C -6.20797999 1.26533280 20.81855329 0.00565226 -0.00164158 0.00292451
C 0.51989753 3.66165617 20.75885489 0.00021140 0.00376337 0.00190842
C -2.08510087 8.51994761 21.70780544 -0.00010781 -0.00128141 0.00621705
C 3.34884535 13.51546970 5.24082715 0.00434978 0.00103809 0.00093243
C 0.41082556 18.40216298 0.93906606 0.00264772 -0.00063513 0.00933942
C 6.95402666 15.87019802 0.89449589 0.00355326 0.00149916 0.00133497
C 9.80597799 10.74142892 4.98637233 -0.00082107 -0.00150867 -0.00062345
C 4.61461183 13.29314192 4.62589466 0.00216854 -0.00197501 0.00752721
C 12.35544417 18.26122289 1.62241885 -0.00210542 -0.00684194 -0.00219586
C 5.80507374 15.96780026 1.72482899 -0.00700687 0.00569085 -0.00127660
C -2.05280924 11.06064980 4.44543262 0.00371264 0.00283681 -0.00574156
C 5.46164938 12.34828271 4.97157204 0.00105478 -0.00272334 -0.00434752
C 11.32755087 17.42380617 1.19790512 -0.00154355 -0.00101082 -0.00239937
C 4.74151773 16.74755194 1.39188632 0.00721270 0.00055217 -0.00380899
C -1.01800710 11.88839722 4.84006768 0.00021440 0.00481153 -0.00192936
C 5.06683879 11.51602831 6.00456557 0.00759788 -0.00047122 0.00390488
C -0.59197962 16.69005536 24.28702761 0.00252875 -0.00350163 0.00317073
C 4.86798505 17.56702662 0.19852258 -0.00141997 -0.00189320 0.00325936
C -1.15156743 12.57080367 6.05620826 0.00754177 0.00431449 -0.00046844
C 6.82906657 11.93665688 0.67385040 -0.00640358 -0.00151197 0.00031679
C 9.94716688 16.72843575 5.65837089 -0.00169095 0.00024227 -0.00943851
C 3.41419353 17.38279117 5.55342905 -0.00044701 0.00015679 -0.00004359
C 0.52194368 12.33802359 0.56192406 -0.00324647 -0.00075306 -0.00140940
C 5.85603677 12.84192441 0.23309089 -0.01068579 0.00027748 0.00270352
C -2.22186694 17.50787904 6.03355517 0.00658479 0.00306689 0.00218681
C 4.38824104 16.52587220 6.01788236 0.00406587 0.00189955 0.00203954
C 12.56642399 11.43873096 0.04728541 -0.00568800 0.00069364 -0.00479889
C 2.14826866 14.70639841 3.43859335 0.00247075 0.00593656 -0.00053118
C 1.83658611 9.87749817 2.66416035 -0.00191255 -0.00533039 0.00353836
C 8.05648596 14.41490022 2.41222111 -0.00040560 -0.00896676 0.00252310
C 8.53355416 19.13094094 3.40066942 -0.00323934 -0.00153835 -0.00739730
C 1.04319176 15.63523948 3.17097989 -0.00126495 -0.00158758 0.00129833
C 3.02880179 10.85470912 2.74936991 -0.00158920 0.00059679 0.00250937
C 9.27640764 13.56657958 2.54977191 0.00051234 0.00150473 -0.00254012
C 7.35436603 18.34025726 3.18152285 0.01051967 -0.00062559 0.00806455
C 0.19618844 13.61815624 11.20318410 -0.00351679 -0.00025251 0.00284972
C -2.49613298 18.48560931 6.98798885 -0.00039397 0.00362419 0.00170692
C 4.22064799 15.67272774 7.13555740 0.00110565 -0.00422025 0.00370683
C 6.84487474 10.68540134 11.23689387 -0.00041913 -0.00020771 -0.00114597
C 1.44294649 13.54160894 10.63349841 -0.00298305 0.00318610 -0.00127795
C 9.39546199 18.37634559 7.92025240 -0.00101393 0.00786023 0.00256601
C 2.95644992 15.77632171 7.74225972 0.00465008 0.00405068 -0.00183317
C -5.14682114 10.92939027 10.55237337 0.00406392 0.00086664 -0.00108421
C 2.36963300 12.55061107 10.94270465 0.00349448 -0.00231575 -0.00667585
C 8.49373564 17.44437738 7.49288905 -0.00443934 -0.00427014 -0.00174349
C 1.92392260 16.54069753 7.17871301 -0.00132987 0.00721706 -0.00198705
C -4.15098639 11.76624736 10.98845619 -0.00392091 0.00106730 0.00489829
C 2.05825890 11.58373514 11.90979572 0.00380640 -0.00609467 -0.00542441
C 8.70950179 16.58540766 6.35522778 -0.00275298 -0.00109133 0.00641324
C 2.11028197 17.36827708 6.11544666 -0.01182441 0.00338035 -0.00380282
C -4.28795779 12.55558307 12.15595335 -0.00298203 -0.00736206 0.00683053
C 3.85195520 11.71250667 6.68101187 -0.00301452 -0.00005633 0.00113402
C 7.06526800 16.68382139 11.83919177 0.00178547 -0.00519537 -0.00735577
C 0.50446130 17.38042173 11.74852743 -0.00117072 -0.00447879 0.00580146
C -2.33869654 12.58687552 6.77216724 0.00271707 -0.00253249 -0.00236228
C 2.95724553 12.65573598 6.28621573 0.00351758 0.00366910 0.00141633
C -5.43328804 17.68193203 11.85787624 -0.00279863 -0.00461795 0.00173174
C 1.41551910 16.51002467 12.28023395 -0.00654179 -0.00708537 0.00349785
C 9.50266685 11.65059345 6.05389806 0.00610031 -0.00272844 -0.00267334
C -0.97092581 15.16007875 9.72694758 0.00496261 -0.00154073 -0.00309591
C -1.09488713 9.89647398 8.81303241 -0.00273179 -0.00165552 0.00025603
C 5.29548061 14.45237736 8.85563568 -0.00224764 0.01183049 -0.00466755
C 5.91622135 19.23805128 9.38688816 -0.00574304 0.00245617 -0.00084144
C -1.99058170 16.24749450 9.57625713 -0.00139221 -0.00320507 -0.00798058
C 0.08294169 10.79870392 9.03975115 -0.00398740 -0.00024016 -0.00435556
C 6.27583340 13.44315548 9.19352111 0.00731325 -0.00128054 -0.00645549
C 5.07265790 18.00723897 9.12570667 0.00571733 0.00343233 0.00065128
C -2.76448360 13.49287423 17.26263992 0.00109995 -0.00084847 0.00150861
C -5.61183960 18.45740349 13.00628323 0.00223490 -0.00216409 0.00205329
C 1.08417704 15.72051559 13.39681621 0.00653246 0.00263632 -0.00678085
C 3.60408050 10.75692978 17.32281493 -0.00500394 -0.00347734 -0.00096276
C -1.50800797 13.51364580 16.61395234 0.00637256 -0.00514185 0.00590924
C 6.48743415 18.43446082 13.89652785 -0.00174322 0.00157839 0.00565758
C -0.15015019 15.92930088 13.93774327 0.00848771 -0.00118203 0.00854630
C -8.06624604 10.88740318 16.45570100 0.00037072 -0.00105156 0.00267721
C -0.54257710 12.60164322 16.99859451 0.00649394 0.00071436 -0.00132864
C 5.61928091 17.41689632 13.55785476 0.00357421 0.00038278 0.00538232
C -1.03785284 16.88164230 13.46761357 -0.00183247 0.00592739 0.00294717
C -7.08101461 11.78095680 16.93676725 -0.00574477 -0.00242790 0.00359030
C -0.82462025 11.55816015 17.95870705 -0.00558644 -0.00245452 -0.00042991
C 5.88051948 16.47754554 12.50819951 -0.00476291 -0.00071374 -0.00041823
C -0.67400039 17.70511532 12.40560138 -0.00809324 -0.00500404 0.00340451
C -7.32974450 12.59198781 18.11270090 -0.00254549 -0.00301797 -0.00232496
C 0.83709152 11.74867237 12.62789092 0.00065210 0.00756446 0.00153685
C 4.00400860 16.51993441 17.68345151 -0.00157157 -0.00420091 -0.00535373
C -2.87365306 17.42027192 17.67459942 0.00200769 -0.00094592 -0.00615493
C -5.58002383 12.51443018 12.76593301 -0.00507994 -0.00049292 -0.00321405
C -0.08823715 12.68895185 12.21771377 0.00035206 -0.00039455 -0.00338458
C -8.20147398 17.68360892 18.14326448 0.00275971 -0.00410186 0.00227392
C -1.89063112 16.56591698 18.16372319 0.00012029 0.00011277 0.00449970
C 6.62020032 11.42989483 12.39977663 -0.00395045 -0.00273720 -0.00039076
C -4.02923514 14.88400491 15.67184400 0.00371317 0.01066272 -0.00057002
C -4.52140273 10.04615219 14.74552502 0.00393079 0.00658360 -0.00307139
C 2.05090394 14.07566699 14.92818703 0.01091413 0.00033200 0.00489972
C 2.63074847 19.25819843 15.53850162 0.00238213 0.00167530 -0.00062985
C -5.20971548 15.82002135 15.52809691 0.00420913 0.00515814 0.00401073
C -3.39032588 10.99783015 14.89856967 0.00296579 -0.00058621 -0.00074598
C 3.25966254 13.06881098 15.10266421 0.00364975 0.00873719 -0.00383488
C 1.42139500 18.36361556 15.31541348 0.00498067 0.00703481 0.00675865
C -5.94093007 13.60902772 23.38867948 -0.00080786 -0.00237204 0.00336810
C -8.46171034 18.46353229 19.28156597 0.00073539 -0.00707562 -0.01185130
C -2.12742990 15.67204097 19.19022820 -0.00495588 -0.00050333 -0.00211189
C 0.71619498 10.59585182 23.24034022 -0.00238594 0.00426578 0.00260245
C -4.81187689 13.35454849 22.59669404 -0.00684490 0.00094070 0.00214186
C 3.42410384 18.28811829 19.76772529 0.00001745 0.00445705 0.00029017
C -3.45632863 15.68920894 19.80279870 0.00496154 -0.00247527 -0.00076546
C 28.34764875 10.91984745 22.54082648 -0.00151510 -0.00865073 0.00119452
C -3.88157875 12.44296869 22.98227699 0.00129197 -0.00247923 -0.00843789
C 2.58801308 17.26429455 19.48546880 -0.00345833 -0.00626467 -0.00026371
C -4.39056957 16.56602385 19.40368911 0.00294377 -0.00439981 -0.00600706
C -10.19782415 11.74291784 22.95394946 0.00106307 0.00258089 -0.00077083
C -3.98101345 11.73270139 24.20617550 0.00339461 0.00041373 0.00065197
C 2.85020314 16.33105342 18.46885025 0.00135008 -0.00385154 0.00465366
C -4.17740109 17.41175851 18.34699826 -0.00116071 0.00616572 -0.00119007
C -10.38667948 12.56050150 24.10950247 0.00463944 -0.00274897 0.00597778
C -2.06251274 11.66815236 18.64502493 -0.00090501 -0.00900573 -0.00478467
C 0.59130691 16.84478658 23.58996490 0.00300701 -0.00401727 -0.00190231
C -5.96277887 17.49707624 23.74993836 0.00006468 0.00344447 -0.00243724
C -8.52905924 12.37350987 18.76983747 -0.00743457 -0.00350307 -0.00512723
C -3.02493980 12.58165297 18.30379298 0.00383801 -0.00257021 0.00361641
C -11.37748058 17.59369623 24.13303650 -0.00143693 -0.00432941 -0.00303128
C -4.93117603 16.63996725 24.04206265 -0.00186887 -0.00275282 -0.00074522
C 3.24559030 11.82140698 18.16974451 -0.00450425 -0.00065086 0.00151467
C -7.25811084 14.90935239 21.74735872 0.00319622 0.00633032 -0.00090668
C -7.43536629 10.10256518 20.85199228 0.00208329 -0.00004008 0.00365890
C -0.96784705 14.22442252 20.80634361 0.00289280 0.00043488 0.00020539
C -0.57284784 19.21393252 21.78916828 0.00566873 0.00381605 0.00501918
C -8.41717057 15.82009468 21.57528950 0.00089633 0.00022725 -0.00305465
C -6.26329388 11.02657784 21.04158221 0.00111625 0.00091742 0.00086978
C 0.23603670 13.38792402 20.89294710 -0.00669088 -0.00074318 0.00095497
C -1.87262548 18.50444988 21.70389262 0.00003026 0.00171252 -0.00542501
C 3.00156981 23.35599673 5.11288164 -0.00128825 -0.00194313 0.00421530
C 0.22747812 28.06668172 0.95520720 -0.00153335 0.00806408 -0.00237148
C 7.01488941 25.51619693 1.12067398 -0.00366926 -0.00347276 -0.00019579
C 9.58350574 20.48420999 5.04133766 -0.00208454 -0.00413428 0.00099634
C 4.25818716 23.32690519 4.38733807 0.00322937 0.00318675 0.00158890
C 12.61055543 27.93710640 1.70482423 0.00602411 -0.00496624 -0.00157383
C 5.81899104 25.73334135 1.86546140 -0.00203201 -0.00286452 0.00293265
C 37.20908775 20.71898105 4.24679918 0.00025516 -0.00469749 0.00745507
C 5.21278219 22.36917080 4.68509552 0.00033981 0.00521911 -0.00187522
C 11.58986466 27.10716796 1.28626063 0.00533002 0.00590156 -0.00133593
C 4.83845524 26.60780789 1.36895780 0.00421852 -0.00285600 -0.00210558
C -1.36716702 21.63802036 4.69340567 -0.00658407 -0.00321135 0.00256597
C 5.03310512 21.51858113 5.76692934 -0.00368970 0.00454163 -0.00491465
C 11.73819306 26.36167312 0.08705070 -0.00136792 0.00338443 -0.00902892
C 5.06196557 27.36484488 0.21344703 0.00126940 0.00289415 -0.00234533
C -1.70333955 22.44263728 5.78647985 -0.00358333 0.00310488 -0.00241659
C 6.99209571 21.47147979 0.81211700 0.00072214 0.00183967 0.00157635
C 9.69111352 26.33702720 5.41139577 -0.00463905 0.00326136 -0.00087603
C 3.11119988 27.02387891 5.75914128 0.00714575 0.00035334 0.00191420
C 0.25082563 22.36954542 0.59675456 -0.00110788 0.00241540 -0.00319793
C 5.99928744 22.36440412 0.39979381 0.00360259 0.00298157 -0.00659775
C -2.46864480 27.33671255 5.94708943 0.00501692 0.00546173 -0.00250249
C 4.12130510 26.15868154 6.13016005 -0.00686817 -0.00093974 -0.00018508
C 12.45013966 21.38312800 0.14842009 0.00105511 -0.00508101 -0.00415634
C 1.66379911 24.71314746 3.59244677 0.00420295 0.00356799 0.00245456
C 1.41322798 19.98516301 2.52021375 -0.00538023 0.00679637 -0.00152890
C 8.19306091 24.01073740 2.65168398 -0.00364851 0.00207092 -0.00052156
C 8.35743369 28.87121449 3.69707998 0.00512416 -0.00000535 -0.00403302
C 0.56542472 25.68003748 3.54500281 0.00049924 0.00235566 -0.00516794
C 2.62418576 20.76082906 2.67724739 -0.00136960 -0.00169145 0.00305620
C 9.33922067 23.16457071 2.93489636 0.00233951 0.00124898 0.00156725
C 7.11955182 28.02624271 3.61146563 -0.00113994 0.00162349 -0.01144533
C 0.21643317 23.20954610 11.19337202 0.00205079 0.00387683 0.00092656
C -2.61221169 28.02655415 7.14564501 0.00222713 0.00188395 0.00297332
C 3.94356413 25.21444461 7.19921404 0.00373453 0.01048530 0.00141402
C 6.86617094 20.60094863 11.18797827 -0.00116246 -0.00050024 0.00087012
C 1.38952804 22.97613436 10.48770398 -0.00298949 0.00573281 0.00609255
C 9.29938225 27.97656954 7.64370529 0.00354228 0.00882442 -0.00401075
C 2.71776696 25.27867864 7.91002197 0.00745952 0.00429857 0.00394525
C 34.20957655 20.94684228 10.41755237 -0.00291292 0.00390964 0.00182385
C 2.31587042 22.01329794 10.75134818 0.00432749 0.00464963 0.00422697
C 8.31269952 27.09708466 7.23494981 -0.00657726 -0.01100964 0.00592134
C 1.69890671 26.16742330 7.51909410 0.00201149 -0.00514843 0.00157099
C -4.33745666 21.87414652 10.71275376 -0.00473565 0.00390825 -0.00159679
C 2.05750298 21.19647629 11.84911691 -0.00320303 -0.00351228 0.00104209
C 8.50645782 26.27224039 6.12723819 0.00442285 0.00042887 -0.00127653
C 1.89606581 27.09456035 6.50706140 0.00049360 -0.00938311 -0.00314230
C -4.54240653 22.71729412 11.86187989 0.00216170 0.00078377 0.00599430
C 3.83918883 21.58536891 6.51988836 0.00011462 0.00338949 0.00248232
C 6.69486609 26.36719545 11.55133174 -0.00593662 -0.00387817 0.00268362
C 0.33665387 27.02716655 11.71321616 0.00494944 0.00271440 -0.00072030
C -2.97740323 22.44518573 6.36081358 -0.00285616 0.00447460 0.00181722
C 2.88401517 22.51967098 6.23333258 0.00014218 -0.00228047 -0.00246688
C -5.36826979 27.03721017 12.17249371 -0.00369337 0.00453121 0.00273597
C 1.28990326 26.12167098 12.06371143 -0.00019138 0.00313329 0.00021420
C 9.30561270 21.33630693 6.10027320 -0.00069273 0.00164188 -0.00125318
C -1.02754206 24.67706517 9.69598264 0.00108489 0.00189503 -0.00933093
C -1.34407078 20.00788988 8.46113713 0.00448887 -0.00088107 -0.00014973
C 5.08735262 23.86535562 8.80340455 -0.00504033 0.00211886 -0.00187922
C 5.37244304 28.76634576 9.52048555 -0.00176168 0.00001628 -0.00298455
C -2.26150731 25.45818406 9.61872422 0.00227900 0.00794614 -0.00446871
C -0.16236326 20.91509220 8.53275945 -0.00205721 0.00072148 -0.00196947
C 6.25550083 22.97289373 9.04272282 -0.00403744 -0.00780190 0.00219209
C 4.19234632 27.89102495 9.42498916 -0.00075777 -0.00127622 0.00525108
C -2.87909921 23.14306431 17.30480055 -0.00435269 0.00156494 0.00779428
C -5.60970033 27.92061279 13.21818470 0.00313031 0.00266621 -0.00085510
C 1.02160092 25.31848470 13.20520496 -0.00248836 -0.00530988 -0.00285025
C 3.76531318 20.54992312 17.23190773 0.00958152 -0.00009175 -0.00249504
C -1.74783704 22.99014197 16.55663355 -0.00101186 0.00653911 0.00145523
C 6.23386955 27.96114568 13.75482739 0.00436901 0.00807179 -0.00015545
C -0.11512826 25.37702207 13.88170070 -0.00145586 -0.00672945 0.01073735
C -8.21678159 20.84999028 16.68113490 0.00142292 -0.00342449 -0.00223077
C -0.78258396 22.09786121 16.92097970 0.00825457 -0.00228768 -0.00003190
C 5.27263875 27.03439680 13.39534598 0.00044945 -0.00495137 -0.00001433
C -1.08876079 26.32908783 13.56788724 0.00481076 0.00722004 -0.00000271
C -7.28078483 21.73740024 17.06399758 0.00019635 0.00520332 0.00300711
C -0.91894952 21.36559631 18.11947089 -0.00277320 0.00990422 0.00012668
C 5.46658341 26.17479666 12.26129640 0.00554409 -0.00600330 0.00164524
C -0.83661763 27.21460299 12.50318789 0.01017299 0.00520606 -0.00003085
C -7.48728761 22.40513863 18.27661828 0.00124836 0.00175658 -0.00599219
C 0.86272021 21.34836822 12.60136237 -0.00031749 -0.00766176 0.00295834
C 3.67668088 26.49564969 17.56394768 -0.00775167 0.00439502 0.00238634
C -2.75830005 27.06366963 17.66586928 -0.00492060 0.00650083 -0.00408381
C -5.69066146 22.51681319 12.69035360 0.00317470 0.00224888 -0.00082728
C 0.01568006 22.34836839 12.29295372 -0.00244861 -0.00180193 0.00213020
C -8.39409438 27.27380995 18.00323588 -0.00123083 0.00123559 -0.00518365
C -1.79759667 26.11057373 18.03123438 0.00523438 -0.00038975 -0.00465196
C 6.60109237 21.41484666 12.29085569 0.00473578 0.00340900 0.00474978
C -4.12195478 24.54094009 15.71067965 -0.00014892 -0.00252738 0.00543542
C -4.45594446 19.81044968 14.69907026 -0.00001208 -0.00789471 0.00159226
C 2.17889332 23.85634474 14.77238503 -0.00107489 0.00575485 -0.00263433
C 2.56952458 28.91233661 15.57296379 0.00815925 0.00043276 -0.00725148
C -5.38245282 25.39902770 15.47586868 0.00345355 -0.00195237 0.00172262
C -3.51447211 20.92235668 14.88966570 -0.00258890 -0.00434516 -0.00287305
C 3.38087441 23.06902604 14.88580444 -0.00194796 0.00014758 -0.00463623
C 1.30105379 28.16627116 15.32244879 -0.00267053 0.00259969 -0.00353099
C -5.85533496 23.24860189 23.57907473 0.00387649 -0.00287444 0.00302201
C -8.54574682 27.98418289 19.20493467 0.00061679 -0.00247798 -0.00425950
C -1.83368891 25.29517912 19.13077221 0.00568018 0.00341621 0.00203442
C 0.62099922 20.63136422 23.27627767 -0.00257496 0.00303643 -0.00317729
C -4.67281177 23.21421955 22.88347551 0.00454465 -0.00024677 -0.00771768
C 3.30924349 28.21001867 19.70981107 -0.00108111 0.00070251 0.00132791
C -2.96091638 25.42555304 19.96042307 0.00507227 -0.00216252 0.00148407
C -11.18088155 20.64416793 22.91197995 0.00183177 -0.00212991 -0.00145368
C -3.66689919 22.26796181 23.27108782 -0.00068883 -0.00084476 -0.00207069
C 2.32797677 27.28427787 19.34388225 -0.00152069 0.00210744 -0.00633480
C -3.96852030 26.34528369 19.64195496 0.00382753 0.00042585 0.00042272
C -10.21435132 21.51181828 23.36402421 -0.00468915 0.00188216 -0.00389607
C 8.19920977 21.44115321 0.04251411 -0.00210832 0.00253317 0.00278532
C 2.44959507 26.43552523 18.23079724 0.00722267 -0.00184485 0.00247536
C -3.85684144 27.17253154 18.45322929 -0.00649055 -0.00457958 0.00277500
C 1.52924101 22.40107709 0.04726942 0.00161416 0.00324161 -0.00935828
C -2.13055928 21.47729634 18.87956017 -0.00271028 0.00567029 -0.00066650
C 0.91480293 26.55323864 23.70179999 0.00316520 0.00714882 -0.00105228
C -5.76064871 27.16766349 23.82100336 -0.00316041 0.00530448 0.00263194
C -8.71238881 22.30471929 18.94836683 0.00312971 0.00287076 0.00303861
C -3.11599361 22.41029141 18.45640393 -0.00224607 -0.00621977 0.01082142
C -11.56223464 27.19123813 24.18404817 -0.00439228 -0.00376693 -0.00248677
C -4.76532450 26.32836636 24.30812716 -0.00533255 0.00418487 0.00079043
C 3.55457608 21.44355677 18.33080725 0.00305056 0.00398772 0.00930674
C -7.10880283 24.58587744 21.99172250 -0.00302114 -0.00077909 0.00026501
C -7.14033621 19.84125079 20.84964584 0.00012078 0.00253273 0.00473361
C -0.42247202 24.15046984 20.64658225 -0.00650490 -0.00426965 0.00479988
C -0.39052320 28.73197545 21.75796834 -0.00126677 -0.00337420 -0.00273025
C -8.39796622 25.44949911 21.89571490 0.00036111 -0.00314206 0.00357107
C -5.86565501 20.67446340 21.02019185 -0.00239424 -0.00132504 0.00220994
C 0.52198717 23.03056110 20.85356071 -0.00144177 -0.00345419 -0.00216024
C -1.60037408 27.90660299 21.52320546 -0.00518365 0.00395794 -0.00414608
C 16.23294006 3.84269318 5.04010270 -0.00790107 -0.00484376 -0.00130356
C 13.74501597 8.55280340 0.86966347 0.00131235 -0.00013015 0.00631988
C 20.13665346 5.94889580 0.84760218 -0.00651951 -0.00038132 0.00090180
C 22.87934454 1.29835478 5.16063593 0.00085335 -0.00326528 -0.00268226
C 17.48496187 3.73215118 4.36379116 0.00183078 -0.00217093 -0.00345215
C 25.58296678 8.54578575 1.49269527 -0.00489091 0.00030282 0.00693108
C 18.92939240 6.08367621 1.54090784 0.00168643 0.00432160 -0.00519090
C 10.75931323 1.11395252 4.55585260 -0.00169970 -0.00174596 0.00263862
C 18.38692285 2.74691631 4.75090561 0.00513168 0.00378403 -0.00167555
C 24.60546016 7.70032243 0.98397770 -0.00293506 0.00800163 -0.00013824
C 18.02943190 7.03439390 1.19843198 0.00015745 -0.00500998 0.00375717
C 11.68020157 2.08942054 4.90286293 -0.00438181 -0.00407018 -0.00029559
C 18.15050635 1.94463266 5.88081677 0.00308053 -0.00094879 0.00081707
C 12.77952505 6.99921437 24.08434181 0.00613829 0.00289827 0.00188431
C 18.21659214 7.85692427 0.12729088 0.00151700 0.01082880 -0.00535339
C 11.52695774 2.90223729 5.98898941 -0.00153589 -0.00924281 0.00109584
C 20.13837357 2.15988292 0.51248762 -0.00035017 0.00025997 0.00469552
C 22.86035597 7.04775137 5.43993821 0.00177172 0.00856431 0.00369294
C 16.53495004 7.68402853 5.41266039 -0.00792846 -0.00025744 0.00550374
C 13.43000386 2.76371747 0.64685801 -0.00356203 -0.00344503 -0.00273862
C 19.09476965 2.98302420 0.08669676 -0.00376966 0.00505911 0.00275835
C 10.79069574 7.75239689 5.84419134 0.00049580 0.00029372 0.00710312
C 17.48723829 6.85231679 5.96532013 0.00309818 0.00451429 0.00290364
C 25.64455842 2.13445165 0.17767697 0.00313491 -0.00208772 -0.00808908
C 15.11378128 5.16564769 3.47203082 -0.00111346 -0.00828724 -0.00018352
C 14.79471988 0.34379895 2.55344350 0.00139445 0.00163332 -0.01000767
C 21.30450245 4.52617654 2.36595280 0.00004677 -0.00527853 -0.00004868
C 21.64228551 9.40560740 3.44766803 0.00077027 0.00116248 0.00686528
C 14.02000832 6.14818925 3.22492017 -0.00479298 0.00063650 0.00682511
C 15.97348772 1.27624031 2.79521991 0.00339395 -0.00378495 -0.00638119
C 22.37917041 3.61015115 2.61285798 0.00382963 -0.00619139 -0.00358421