2880
Time=23000.00000000 pbc="T T T" Lattice="39.55466280 0.00000000 0.00000000 0.00000000 28.85010783 0.00000000 -12.04976876 0.00000000 24.49011531" energy=-18398.78403771 virial="-37.49216090 -22.39594937 -23.36769185 -22.39594937 11.19994420 -27.29737846 -23.36769185 -27.29737846 -34.17264044" stress="0.00119779 -0.00085246 -0.00083641 -0.00085246 0.00284155 -0.00099892 -0.00083641 -0.00099892 0.00117746" Properties=species:S:1:pos:R:3:vel:R:3
C 3.22868074 3.51881633 5.43412655 -0.00007727 0.00431033 0.00264416
C 0.51916147 8.37448594 0.88528876 0.00255505 -0.00932447 0.00476298
C 7.06639746 5.72885887 1.02327532 0.00499517 0.00678114 -0.00191221
C 10.01285038 1.13381538 5.16454172 -0.00287272 0.00164270 0.00756929
C 4.40310231 3.49984251 4.58185255 0.00097005 -0.00514247 0.00006614
C 12.47613189 8.49828420 1.55194635 0.00952390 0.00209757 0.00169938
C 5.85248240 5.88652709 1.67802473 -0.00347044 0.00186303 0.00122567
C -2.21843252 1.14616188 4.58163220 0.00118699 0.00007760 0.00088820
C 5.45021483 2.71779962 4.94061466 -0.00091506 0.00432574 -0.00076144
C 11.47573283 7.69493494 1.09691031 -0.00104109 0.00536194 -0.00086526
C 4.89248417 6.72880674 1.19635835 0.00302053 -0.00126105 -0.00336396
C -1.25950320 2.05386791 4.97850839 0.00170012 -0.00140043 -0.00147144
C 5.41415312 1.91923504 6.09962244 0.00227488 0.00257968 0.00083175
C 11.62484005 6.79548581 0.02321492 0.00822446 0.00375912 0.00178713
C -6.99752650 7.46221914 24.48018362 -0.00161759 0.00448542 -0.00476513
C -1.45399351 2.89041303 6.12356315 0.00193649 0.00035857 -0.00493293
C 6.93432363 1.89893899 0.49996872 -0.00463361 0.00037755 -0.00302254
C 9.70608896 7.03464375 5.45821636 -0.00397539 0.00167450 -0.00013623
C 3.37303342 7.41623944 5.50735381 0.00620060 0.00249106 0.00129934
C 0.21511600 2.73706107 0.52699527 0.01484920 -0.00609019 -0.00012518
C 5.92159211 2.72439117 0.18285048 0.00059539 -0.00094402 0.00071451
C -2.59969248 7.75730223 5.77393622 -0.00035321 0.00600151 0.00182858
C 4.35024492 6.60144072 6.06356544 -0.00578968 -0.00635818 0.00627255
C 12.53827589 2.16593310 0.28251935 -0.00416026 0.00219042 -0.00454658
C 1.96526214 4.84978106 3.77530337 -0.00208794 0.00007945 0.00827676
C 1.56123225 0.29112513 2.64882511 -0.01260138 0.00617059 -0.00676763
C 8.37757838 4.52768644 2.65048073 0.00527375 -0.00426216 0.00615171
C 8.56011267 9.50759068 3.56926567 0.00160795 -0.00639815 -0.00391109
C 0.74070279 5.71715344 3.52001171 0.00802638 -0.00467289 0.00207197
C 2.63442892 1.33526220 3.00550196 -0.00063615 0.00182746 0.00410477
C 9.56133514 3.58634298 2.89632784 -0.00153047 -0.00127749 -0.00135845
C 7.28057134 8.71099448 3.36790710 -0.00561549 0.00311154 -0.00430682
C 0.15404668 3.64149208 11.35759330 0.00323864 -0.00197830 0.00218590
C -2.71735222 8.37540459 7.01941817 -0.00199611 0.00326504 0.00157687
C 3.99450287 5.81467825 7.15441552 -0.00951178 0.00094000 -0.00166316
C 6.61067721 1.09090398 11.13829563 0.00740188 -0.00149677 0.00009498
C 1.35510577 3.55022093 10.66631022 0.00217760 0.00221180 -0.00096746
C 9.57281076 8.46658358 7.76470753 -0.00001648 -0.00046033 -0.01130589
C 2.78009752 5.99024879 7.78191735 0.00064378 0.00742173 0.00154920
C -5.19356503 1.16752711 10.56120635 -0.00731746 0.00562323 0.00135908
C 2.29024190 2.60082619 11.08928945 0.00138968 -0.00038514 0.00014467
C 8.51498429 7.85038926 7.32300768 0.00560557 0.00021312 -0.00622014
C 1.77271974 6.70374263 7.21787925 0.00192312 0.00471438 0.00425605
C -4.24869476 2.04258852 10.98109826 -0.00169393 0.00683545 -0.00060741
C 2.18215015 1.86456634 12.24026659 0.00122917 0.00140041 0.00949996
C 8.50616181 7.01841749 6.19175700 -0.00088944 -0.00293224 0.00695491
C 2.07036641 7.51672008 6.11190420 -0.01031984 0.00867323 0.00148041
C -4.33763588 2.72771198 12.28506445 -0.00637393 -0.00090157 0.00333127
C 4.32134310 2.04710566 6.92408531 -0.00432735 -0.00078115 -0.00285399
C 6.64160760 6.92405254 11.67904317 0.00516390 -0.00212045 0.00150704
C -0.09263359 7.28774921 11.55977338 0.00184409 -0.00329575 0.00035263
C -2.69539428 2.80400676 6.79554622 0.00285965 0.00183565 0.00512978
C 3.14030881 2.70490658 6.51550115 -0.00363311 0.00008111 0.00293577
C -5.72504210 7.61315042 12.12413516 -0.00193040 -0.00566071 0.00316787
C 0.92298545 6.52615634 12.09641408 -0.00345157 -0.00234770 0.00057377
C 9.80176004 1.90355126 6.36441697 0.00226405 0.00625327 0.00780262
C -1.08585838 4.77879898 9.63477497 0.00115591 0.00322122 0.00453194
C -1.40384876 0.14624991 8.94605732 0.00065593 0.00159276 0.00025263
C 5.11632905 4.60011830 8.85092384 0.00583501 0.00343170 -0.00497040
C 5.42305174 9.50457131 9.75815354 0.00843583 0.00015259 0.00403159
C -2.37978549 5.50397481 9.24421722 0.00447105 -0.00251550 -0.00942934
C -0.10416151 0.81376122 9.40168542 0.00749354 -0.00875431 -0.00237509
C 6.44623244 3.97685873 9.11896318 0.00386620 0.00871145 0.00274982
C 4.36787130 8.52302744 9.63443453 0.00415577 0.00036879 0.00952714
C -3.03437325 3.73953193 17.48434425 0.00155655 -0.00212915 -0.00310809
C -5.90351079 8.49014330 13.15977630 0.00776199 -0.00854335 0.00191120
C 0.81533382 5.83587098 13.26092854 -0.00414173 -0.00019221 -0.00587741
C 3.34457560 1.16410304 17.40317179 0.00751540 -0.00144844 -0.00456741
C -1.81497334 3.51897117 16.83233889 0.00492677 -0.00331395 0.00562695
C 6.29586716 8.60497528 13.89785572 -0.00153182 -0.00292279 0.00255551
C -0.39438041 5.81031047 13.96194473 -0.00649400 0.00106825 -0.00003739
C 31.20016804 1.09264282 16.58396082 -0.00238180 -0.01051829 -0.00390682
C -0.82994203 2.71112072 17.30184003 -0.00119302 0.00214974 0.00424734
C 5.25483687 7.84620771 13.43886339 0.00333307 0.00526814 0.00070460
C -1.45936818 6.67778872 13.54666697 0.00401720 -0.00170452 0.00099055
C -7.35653542 1.97169975 16.97945780 0.00113186 0.00640696 0.00152022
C -1.06175752 1.95141558 18.48748056 0.00916282 0.00052757 0.00341888
C 5.39503133 7.03930605 12.29801164 -0.00208126 0.00875055 0.00203532
C -1.34686199 7.38511033 12.30380799 0.00155535 -0.00325338 0.01047264
C -7.55206249 2.87247639 18.11824263 0.00533636 -0.00557345 -0.01036982
C 0.92774431 1.99056547 12.90875440 0.00768385 -0.00056570 -0.00118256
C 3.79010918 6.80372040 17.94078044 0.00540059 0.00088106 0.00635401
C -2.82936415 7.52995937 17.65457334 -0.00294333 0.00401146 -0.00217547
C -5.59329664 2.71205964 12.89209580 -0.00021206 0.00291893 0.00493279
C -0.01560099 2.85663934 12.48728846 0.00118477 -0.00014851 -0.00123719
C -8.53133449 7.56153068 18.20098113 -0.00171523 -0.00484231 -0.00337966
C -1.79691270 6.76538397 18.10219401 0.00018538 -0.00183093 0.00854324
C 6.41554575 1.95530299 12.26484717 -0.00232909 0.00230218 0.00357694
C -4.07955877 5.16679776 15.75298909 -0.00377386 -0.00255142 -0.00289415
C -4.47601585 0.19042283 14.92656096 0.00222365 0.00202275 0.00081728
C 2.13896799 4.59009605 14.93465342 0.00136838 0.00043603 -0.00104575
C 2.39155507 9.45141481 15.64671357 -0.00192436 0.00531143 0.00270413
C -5.28170244 6.04322660 15.49951672 -0.00274541 0.00279304 0.00190697
C -3.10848127 0.61887907 15.16719982 0.00858788 0.00463847 -0.00190150
C 3.47088138 3.99692049 15.20599748 0.00565861 0.00170252 -0.00876841
C 1.11769765 8.58249639 15.21191090 -0.00359192 -0.00210460 0.00089868
C -5.98728907 3.64767071 23.65847254 -0.00269603 0.00348380 0.00946466
C -8.69348272 8.49587500 19.26933172 0.00441261 0.00340557 -0.00085063
C -1.89424643 5.88642329 19.22006219 -0.00356280 -0.00712316 0.00447291
C 0.67002712 1.25454860 23.71041729 -0.00258478 -0.00713642 -0.00405818
C -4.80048135 3.56298856 22.85675239 0.00374627 -0.00527169 0.00116568
C 3.18650041 8.57950876 20.02186470 -0.00077700 -0.00358886 0.00863856
C -3.02739594 5.98325099 20.02284878 0.00092226 -0.00606384 0.00615302
C 28.28458858 1.13809780 22.80179162 -0.00003909 -0.00508092 -0.00420298
C -3.74058379 2.78941893 23.20418578 0.00194310 -0.00465166 0.00127221
C 2.26286462 7.58265154 19.62220641 0.00095223 0.00148586 0.00566492
C -4.07501827 6.79478830 19.51866995 0.00389976 0.00200493 0.00220573
C -10.32273204 2.00969874 23.27256265 -0.00458028 -0.00273577 0.00742866
C -3.85552019 1.97560182 24.31665534 0.00089699 0.00095398 -0.00796537
C 2.52628359 6.76849976 18.53153368 0.00400559 0.00230472 -0.00890219
C -4.06362984 7.55816855 18.35634376 0.00338712 -0.00808961 0.00339338
C -10.57744909 2.79020828 24.34496236 0.00412425 -0.00068967 0.00098890
C -2.34024242 2.11046615 19.09353070 0.00093074 0.00514696 -0.00190481
C 0.80762317 6.89765467 23.85353344 0.00038290 0.00565109 0.00249380
C -5.77904673 7.29472553 23.82555490 0.00260502 -0.00290844 0.00314172
C -8.87991510 2.88806951 18.67732963 -0.00270148 -0.00258189 -0.00100675
C -3.32712900 2.96275335 18.61103537 0.00639576 -0.00228550 0.00352726
C -11.40450930 7.51082722 24.29297239 0.00094873 0.00443936 0.00078975
C -4.77512281 6.52464023 24.36027591 0.00391680 -0.00452470 0.00383420
C 3.33673023 1.90812979 18.56871503 -0.00075399 0.00236359 -0.00212555
C -7.26977332 4.83473366 21.96298350 0.00392455 0.00109306 0.00643797
C -7.72684940 0.19713096 20.73981920 0.00071297 0.00334738 -0.00058972
C -0.64907197 4.57799934 20.81920302 -0.00433395 -0.00557577 0.00209128
C -0.45293638 9.45796258 21.99883473 -0.00359127 -0.00388081 -0.00339910
C -8.43160944 5.71312869 21.68597181 -0.00546768 0.00086646 0.00432470
C -6.49263610 1.10989726 21.04161104 -0.01193336 -0.00132990 0.00401410
C 0.54031502 3.63272506 21.06995824 0.00028768 0.00329090 -0.00136672
C -1.67146933 8.62669063 21.86162478 0.01002760 -0.00700936 -0.00629786
C 3.19896547 13.26112353 5.15588328 0.00566550 -0.00768911 0.00131761
C 0.23540081 17.97630322 1.11072523 0.00940861 0.00039566 -0.00067435
C 6.85612043 15.48239731 0.87123441 -0.00786536 0.00038412 -0.00575257
C 9.72627512 10.78133487 5.21590409 0.00300003 0.00154547 0.00566983
C 4.39295031 13.28821652 4.43428156 -0.00476565 0.00879577 0.00174852
C 12.40434205 17.90532617 1.60949392 -0.00207191 0.00257478 0.00152534
C 5.57616292 15.58733030 1.49018491 0.00223811 -0.00433591 0.00430243
C -2.16347288 10.69797047 4.53277470 0.00445284 0.00289415 -0.00307109
C 5.41878955 12.48871591 4.85097761 0.00842399 -0.00913035 -0.00446881
C 11.43064802 17.04187838 1.20392122 0.00952283 0.00337925 0.00037234
C 4.49225051 16.26051708 0.97369809 -0.00565315 0.00268670 0.00275601
C -1.13085116 11.52346135 4.94386767 -0.00176082 0.00432634 -0.00721611
C 5.26160054 11.59558079 5.93472356 0.00165036 -0.00123634 0.00284880
C 11.55901211 16.30841273 0.00000173 -0.00229980 0.00776495 0.00483890
C -7.42572221 17.03004669 24.34028279 0.00811706 -0.00351798 -0.00193457
C -1.35767182 12.27768241 6.15240191 0.00096803 -0.00285819 0.00437491
C 7.07517428 11.69726122 0.55152973 -0.00147854 0.00796001 -0.00418400
C 9.81660372 16.34966794 5.59120774 -0.00782410 0.00175554 0.00120797
C 3.04108722 17.13457865 5.60578796 -0.00281765 -0.00603398 0.00168837
C 0.30246097 12.25828253 0.64130880 0.00213070 -0.00667031 -0.00093265
C 6.00714817 12.41613265 0.00541337 -0.00495798 -0.00088079 0.00124833
C -2.60221237 17.35033212 5.87479416 0.00934764 0.00035697 -0.00646132
C 4.16946745 16.38768522 5.99540129 -0.00442364 0.00173001 0.00136938
C 12.74285014 11.59443357 0.22888194 -0.00088707 0.00287333 -0.00043864
C 1.90486368 14.58964611 3.61833048 0.00078187 0.00147589 -0.00426392
C 1.68552330 9.75129827 2.40845292 0.00375627 0.00455187 -0.00240923
C 8.02738362 14.17134400 2.50357977 -0.00767567 0.00273088 -0.00143647
C 8.72348116 18.69494307 3.47200809 0.00073326 -0.00779402 0.00130642
C 0.62424933 15.35018989 3.58157990 -0.00701682 -0.00525628 -0.00064763
C 2.94516307 10.61102350 2.55397906 0.00176684 -0.00323900 -0.00689309
C 9.13199144 13.11988821 2.74325880 -0.00253090 -0.00661004 -0.00871917
C 7.57042526 17.71995973 3.29902731 0.00759420 0.00082808 0.00083251
C -0.14022024 13.31745501 11.12797660 -0.00198600 0.00176968 0.00012444
C -2.62673900 18.01119355 7.10053641 0.00348328 0.00663809 -0.00000495
C 4.05358335 15.45425491 7.08313139 0.00132312 0.00319139 0.00326185
C 6.60801271 10.81261351 11.28202296 -0.00687756 0.01045025 0.00218513
C 1.07993036 13.21992320 10.43214433 0.00182310 -0.00332936 -0.00297578
C 9.33286673 18.13708677 7.62212910 -0.00403837 0.00143696 0.00811524
C 2.85945545 15.34650256 7.81274931 -0.00505010 -0.00069927 -0.00179507
C 34.10636120 10.72600219 10.58625472 -0.00090467 -0.00995361 0.00196368
C 2.11960342 12.40609233 10.93207991 0.00286931 0.01006671 0.00671716
C 8.38052678 17.14447742 7.33518826 0.00165838 -0.00479115 -0.00155388
C 1.79392497 16.23693348 7.44826108 -0.00330600 -0.00006900 0.00349315
C -4.41355565 11.58071293 10.98004009 0.00107760 -0.00564409 0.00238675
C 1.90746817 11.49027719 11.99820805 -0.00475503 -0.00115194 0.00270673
C 8.57352577 16.27157102 6.23272557 -0.00202780 0.00630401 -0.00429941
C 1.84164724 17.12071001 6.34951357 0.00768362 0.00011839 -0.00004012
C -4.58353249 12.38711508 12.12163231 -0.00810290 0.00232142 -0.00244926
C 4.06227249 11.66024206 6.64040191 0.00312968 0.00096004 0.00011077
C 6.77472765 16.24587163 11.64236970 -0.00054255 0.00063890 -0.00212694
C 0.30757460 17.07381257 11.74025724 0.00559077 -0.00179227 0.00634986
C -2.54474541 12.26771591 6.88286781 -0.00047153 -0.00100314 -0.00156845
C 3.05023904 12.44759453 6.25309295 -0.00546782 -0.00614144 0.00791547
C -5.42335969 17.39688962 12.27475811 0.00200579 0.00147231 -0.00868300
C 1.24822336 16.15410646 12.13691283 0.00058243 -0.00421794 0.00207353
C 9.59910116 11.62353705 6.35829955 0.00088645 -0.00274474 -0.00474947
C -1.23506706 14.87634467 9.66005304 -0.00161234 0.00127400 -0.00282055
C -1.52390335 9.58855991 8.70733050 -0.00584050 0.00452975 0.00424846
C 5.45723376 14.24860642 8.62257170 0.00048052 0.00315286 0.00235351
C 5.56435733 19.05673465 9.62550598 0.00503471 0.00272692 -0.00330407
C -2.48555594 15.67965518 9.42070697 -0.00738048 0.00151425 0.00074927
C -0.42376831 10.54614651 9.00225436 0.00181081 -0.00207998 0.00155546
C 6.77190673 13.53465183 8.68082531 0.00566084 -0.00518792 0.00041249
C 4.55860302 17.93354321 9.48038101 0.00119813 -0.00211791 0.00577213
C -3.11845816 13.22873815 17.32384437 -0.00035690 0.00191231 0.00286024
C -5.69638683 18.30119499 13.30450094 -0.00555410 -0.00052559 -0.00562902
C 0.99576001 15.37766698 13.24300486 0.00775847 -0.00506674 -0.00368141
C 3.58034544 10.62930133 17.30536171 0.00216767 0.00695705 0.00104735
C -1.92388723 13.08388791 16.62751587 0.00688156 -0.00263340 -0.00096709
C 6.65099029 17.63016483 14.01593047 -0.00561998 0.00176966 0.00652741
C -0.16797810 15.52685010 14.01491050 -0.00318762 -0.00527420 -0.00307136
C 30.99319171 10.76337552 16.70111432 -0.00435476 -0.00219680 -0.00260172
C -0.89342639 12.24010935 17.05314137 0.00082439 0.00208083 0.00220419
C 5.56446827 16.80658653 13.67450031 -0.00125599 0.00364681 0.00705942
C -1.08700037 16.43628261 13.63506391 0.00563746 -0.00021146 -0.00089424
C -7.52448669 11.58518202 17.13450093 0.00420872 0.00667440 0.00048626
C -1.00549103 11.47253245 18.21687292 0.00667294 -0.00655409 -0.00188980
C 5.62320145 16.03913585 12.41650904 0.00186748 0.00398103 0.00104936
C -0.88421691 17.25891425 12.47877307 0.00464577 -0.00454600 -0.00534276
C -7.63275144 12.45265951 18.17693121 -0.00176084 0.00182031 0.00427727
C 0.72131832 11.66392285 12.68326319 0.00028590 -0.00353497 0.00209493
C 3.38181936 16.22887521 17.55475857 -0.00702855 -0.00001306 0.00330477
C -2.89851717 17.19850301 17.69305485 0.00674506 0.00408002 -0.00867754
C -5.85238825 12.39452396 12.76763547 -0.00702350 0.00366860 0.00330919
C -0.26612645 12.53176363 12.26191378 0.00113304 -0.00682371 0.00391991
C -8.46803749 17.43826448 18.39567842 0.00348562 -0.00447447 -0.00031962
C -2.02359033 16.19689816 18.18952316 0.00825471 0.00113160 -0.00061309
C 6.54225615 11.62286150 12.41843251 0.00272198 -0.00624256 -0.00233209
C -4.32274510 14.59078551 15.73717477 0.00046468 -0.00999622 -0.00485538
C -4.63955713 9.87343053 14.59635754 0.00028474 -0.00043624 0.00655675
C 1.99060981 13.83946119 14.81378507 0.00099655 -0.00549450 0.00372979
C 2.37852278 19.06522108 15.75595822 0.00880608 0.00679494 0.00342291
C -5.67606420 15.28287936 15.69749458 0.00971013 0.00177020 -0.00231442
C -3.49576692 10.79561582 14.60109011 0.00066698 -0.00881547 -0.00291316
C 3.09623560 12.83235038 14.99029888 0.00216923 -0.00137371 0.00098189
C 1.03003840 18.59469151 15.24366707 -0.00296230 -0.00121577 -0.00380958
C -5.83048051 13.23797497 23.37185476 0.00179825 0.00106949 -0.00240366
C -8.77452103 18.26294109 19.51522525 -0.00163548 -0.00130282 0.00125221
C -2.32472018 15.41703302 19.31012788 0.00563806 -0.00491841 -0.00176946
C 0.79923107 10.78355006 23.56139667 0.00489276 -0.00161923 -0.00143826
C -4.69001747 13.10670061 22.62052062 0.01002976 -0.00064101 -0.00940300
C 3.01637221 17.87135202 19.78038930 -0.00350670 0.00437670 -0.00591077
C -3.47290205 15.64016509 19.99645361 0.00685581 -0.00337909 -0.00087627
C 28.22835934 10.75444772 22.79638772 0.00430449 0.00004851 -0.00275553
C -3.64262803 12.37103290 23.19757118 -0.00386355 -0.00059783 0.00382879
C 1.98278779 17.07946188 19.35920985 -0.00531803 0.00288362 -0.00248514
C -4.39108744 16.55690237 19.55278575 -0.00571520 0.00820332 -0.00396198
C -10.33009305 11.65493581 23.24466922 0.00670071 0.00295402 -0.00616980
C -3.75956351 11.62234478 24.34833231 -0.00252361 -0.00531256 -0.00902914
C 2.11825180 16.21990351 18.19218883 -0.00087268 -0.00598849 -0.00359789
C -4.19550408 17.28630304 18.31305779 -0.00184778 -0.00083621 -0.00054770
C -10.52099551 12.40162659 24.41497143 -0.00569742 0.00227188 -0.00019438
C -2.32577402 11.55645749 18.87683729 -0.00688559 0.00537260 0.00284964
C 0.73680480 16.54604604 23.70371249 -0.00091813 0.00088041 0.00217883
C -6.11725339 17.12430544 23.74970486 0.00661560 -0.00218216 0.00120138
C -8.85755048 12.37100611 18.95300789 0.00344554 -0.00199482 -0.00016413
C -3.34109607 12.34385086 18.45541082 0.00144403 0.00605583 -0.00397873
C -11.74007635 17.12927239 24.43514999 -0.00651614 0.00715334 -0.00513459
C -5.03722523 16.36460472 24.21461931 0.00507244 0.00148322 -0.00565092
C 3.34750919 11.39960532 18.46672747 0.00134034 -0.00229361 0.00166499
C -7.14066068 14.49780837 21.74017438 0.00241051 0.00046341 -0.00044397
C -7.21923642 9.84271310 20.63147702 0.00315712 0.00598896 -0.00588750
C -1.00276345 14.12284064 20.97799980 0.00786040 -0.00424761 -0.00224092
C -0.73050893 19.07576052 21.82539407 0.00403861 0.00277013 -0.00975792
C -8.39802074 15.30323122 21.51823307 -0.00011920 0.01006888 0.00521747
C -6.08331461 10.78471067 20.59083115 -0.00358712 -0.00479073 0.00505025
C 0.13595964 13.21277062 21.21328672 0.00234004 -0.00490498 -0.00254990
C -2.10993325 18.42612489 21.64712944 -0.00030654 0.00038315 0.00069811
C 3.06527931 22.93322460 5.09912494 0.00053210 -0.00268375 0.00343528
C 0.35086131 27.83146708 0.95920973 -0.00308517 0.00220361 0.00706771
C 6.96066083 25.18886109 0.92093477 0.00439653 -0.00483140 0.00732022
C 9.89078151 20.17184959 5.04988369 0.00730905 -0.00281293 0.00136523
C 4.28498484 22.87872185 4.37718877 0.00529325 0.00038505 0.00515234
C 12.68583479 27.72127910 1.68332731 0.00227681 0.00201104 0.00423591
C 5.68689594 25.22242498 1.50377872 -0.00898356 0.00035291 0.00460416
C -2.19425563 20.53934196 4.49542689 -0.00114059 -0.00029592 -0.00174053
C 5.30712794 21.99978853 4.65103456 0.00194772 0.00700443 0.00136843
C 11.71127968 26.85102366 1.29251665 0.00166240 0.00407973 0.00757844
C 4.71471528 26.05428689 1.04267958 -0.00616022 0.00099776 -0.00330762
C -1.21584443 21.46245670 4.85428407 -0.00662787 0.00407304 -0.00517412
C 5.14225916 21.09867061 5.72088443 0.00251104 0.00281061 -0.00038338
C 11.86504721 26.02124057 0.11423011 0.00121404 0.00812772 -0.00020866
C -7.08945266 26.95822823 24.38727700 -0.00260353 0.00378203 0.00062187
C -1.31153019 22.15180115 6.08408943 -0.00041176 0.00125075 -0.00024110
C 6.99059644 21.33889560 0.40471787 -0.00700468 -0.00279132 0.00459920
C 9.84745238 25.95230255 5.66437007 0.00171250 -0.00292882 -0.01164614
C 3.29517908 26.87957973 5.75024969 -0.00000641 -0.00084112 0.00649392
C 0.18505766 22.30078232 0.38083356 -0.00680314 -0.00351046 -0.00749581
C 5.95330236 22.18647283 0.04362346 0.00343201 0.00198144 0.00351561
C -2.18517076 27.05621787 6.03195732 -0.00680118 0.00401498 0.00270090
C 4.25874266 25.99847317 6.17729787 -0.00272287 0.00861386 -0.00603300
C 12.46658601 21.12535204 0.14997960 -0.00089183 0.00668966 -0.00827481
C 2.00668628 24.48415857 3.64513698 -0.00180862 -0.00472676 0.00335913
C 1.61852732 19.41315190 2.58081642 -0.00147494 0.00275727 -0.00689823
C 8.08851419 23.84300370 2.52572929 -0.00163143 -0.00361674 0.00038691
C 8.74368516 28.67245962 3.57396552 0.00060356 0.00112634 -0.00665422
C 0.76993640 25.41761286 3.50500038 -0.00400063 -0.00098614 -0.00378657
C 2.82259667 20.24190527 2.55404420 0.00664812 0.00205303 0.00009916
C 9.23497585 22.86921749 2.68715535 0.00196718 -0.00034700 0.00397622
C 7.58748149 27.75010512 3.34553141 -0.00341866 0.00571393 -0.00007241
C 0.38263133 22.88098816 11.23077103 -0.00273102 -0.00178593 0.00437001
C -2.49124821 27.79163877 7.17104370 -0.00773392 0.00304046 -0.00506589
C 4.03077131 25.14950247 7.27623601 0.00410763 -0.00248021 0.00320649
C 6.97004189 20.23744080 11.28890840 0.00539099 -0.00107131 -0.00093463
C 1.65251919 22.86412668 10.57098550 0.00344243 0.00628205 0.00369718
C 9.45569701 27.53864471 7.93653888 0.00804209 0.00266028 -0.00528158
C 2.81905947 25.31804356 7.98939424 -0.00283698 0.00579942 -0.00557767
C -5.08817672 20.24708302 10.61029682 -0.00097036 0.01191707 -0.00012448
C 2.64732607 22.00690855 10.97183918 0.00125810 0.00059637 -0.00502069
C 8.41836095 26.70660403 7.55169215 0.00185463 -0.00441487 0.00741984
C 1.85768140 26.15170100 7.52319119 0.00710197 0.00439447 0.00477354
C -4.08533834 21.04185479 11.09816366 -0.00467363 0.00099547 -0.00530198
C 2.47517461 21.24195445 12.16884242 0.00322718 0.00572399 0.00479594
C 8.64217595 25.87784757 6.34541645 0.00110414 0.00259697 -0.00242967
C 2.05022198 27.06865632 6.45273734 -0.00347139 0.00396485 -0.00445644
C -4.27620099 21.97125030 12.11433559 0.00228715 -0.00388854 0.00674339
C 3.94432965 21.09958658 6.49385587 -0.00314617 -0.00438545 0.00085764
C 6.68653223 25.99037461 11.68748993 -0.00256454 -0.00241898 -0.00194761
C 0.01149547 27.02168658 11.79968931 0.00527210 0.00504819 0.00214820
C -2.56455608 22.01506837 6.74561707 0.00085151 -0.00632245 -0.00104416
C 2.94103839 21.92381650 6.11530647 -0.00225794 0.00055774 0.00654629
C -5.39057358 26.93391460 12.22929595 0.00732113 0.00244885 0.00519889
C 1.06788257 26.18348552 12.13936877 -0.00026566 0.00212557 -0.00307851
C 9.61991223 21.01881099 6.14793122 0.00350573 -0.00002436 0.00472435
C -0.84173787 24.30637050 9.71557181 -0.00249448 -0.00261687 0.00009479
C -1.35315730 19.38805046 8.60748441 0.00032668 0.00254952 -0.00145451
C 5.28564645 23.65371185 8.71303450 0.00471379 0.00289020 -0.01066812
C 5.47482798 28.46881868 9.72148234 -0.00028879 0.00887811 0.00149958
C -1.99968878 25.22083582 9.61638351 -0.00416721 -0.00466069 0.00069674
C -0.14766214 20.29181026 8.73082618 0.00555159 0.00488343 -0.00556542
C 6.30315247 22.60608674 8.75650087 -0.00185148 -0.00602521 -0.00618002
C 4.35031006 27.56335802 9.55234380 -0.00343593 -0.00147186 -0.00181211
C -2.87195907 23.02640162 17.38650050 -0.00632825 -0.00208917 -0.00151883
C -5.67655669 27.76281786 13.26524391 -0.00252310 0.00269011 -0.00451341
C 0.96249997 25.21592897 13.12460696 0.00129871 0.00664761 0.00441603
C 3.54594059 20.46408611 17.37503467 -0.00903730 0.00021053 -0.00117319
C -1.63013564 23.07222860 16.73784107 0.00209286 0.00492676 0.00535438
C 6.29411752 27.44922057 13.99512833 -0.00349445 0.00239034 -0.00727184
C -0.30953136 25.21180768 13.76104715 -0.00616317 -0.00133733 -0.01024030
C -8.13154052 20.41368804 16.84070323 0.00494126 -0.00376189 -0.00218780
C -0.66083892 22.17822941 17.12257294 0.00158585 0.00076469 0.00453732
C 5.45152272 26.44884705 13.67210144 -0.00395624 0.00015142 0.00546519
C -1.39555871 25.90948993 13.37659779 -0.00044478 0.00701142 -0.00005738
C -7.25970400 21.40943093 17.13806888 0.00046424 0.00394574 0.00138460
C -0.85801904 21.32323882 18.26960320 -0.00420552 -0.00116724 0.00452987
C 5.62241928 25.67379708 12.51396237 -0.00107446 0.00317727 -0.00369059
C -1.25414230 26.88840457 12.39355256 -0.00131996 -0.00351997 -0.00083212
C -7.49218217 22.19770856 18.25691019 -0.01084381 0.00056925 0.00274362
C 1.25295481 21.31854727 12.84988648 -0.00495363 -0.00499769 0.00132600
C 3.95017067 26.08789363 17.67168284 -0.00371384 -0.00218726 0.00380383
C -2.62528975 26.83815456 17.73987236 0.00724563 -0.00353146 -0.00519907
C -5.62034758 22.19295431 12.58743817 0.00349691 0.00318537 0.00302407
C 0.18131317 22.11598420 12.42742654 -0.00315901 0.00050915 -0.00193458
C -8.56721585 26.74856098 18.10587822 0.00077177 0.00510514 -0.00618565
C -1.68319880 25.99571354 18.29800003 -0.00510560 -0.00045716 -0.00659493
C 6.74264445 21.06650407 12.37464738 -0.00751340 -0.00071598 0.00002646
C -3.94421055 24.34689085 15.74487159 -0.00390339 -0.00382957 0.00342170
C -4.56894883 19.69836337 14.96445554 0.00779350 0.00127313 0.00202904
C 2.23354138 23.88522171 14.77926148 -0.00038720 0.00450552 0.00147015
C 2.19264640 28.42335163 15.97272527 0.00540216 -0.00456415 -0.00582678
C -5.16221952 25.15166371 15.42319659 0.00063692 -0.00191532 0.00432853
C -3.29484292 20.53507994 15.22576753 -0.00528804 0.00061490 -0.01153951
C 3.62109882 23.22487999 14.91890636 0.00015411 0.00202785 -0.00759338
C 1.04414116 27.43659522 15.84974782 -0.00076083 -0.00226858 -0.00612295
C -5.93641758 23.06077489 23.47152109 0.00129787 0.00171076 -0.00264373
C -8.82067359 27.65926863 19.15193608 0.00047297 0.00436470 0.00699025
C -1.96099143 25.18011004 19.39304015 0.00111148 0.00242760 -0.00394059
C 0.63882093 20.32315540 23.50209082 -0.00256014 0.00211295 0.00557499
C -4.66613313 23.07187197 22.75805331 0.00151268 -0.00212657 0.00410579
C 3.40766521 27.76137513 19.90040099 0.00296114 -0.00146403 -0.00415743
C -3.28626444 25.13330108 19.85436885 -0.00593811 -0.00218825 -0.00640093
C 28.24850047 20.67857570 22.76498585 0.00867455 -0.00062358 0.00508576
C -3.70249697 22.24076461 23.16275189 0.00407339 -0.00226369 0.01022609
C 2.48907173 26.82008138 19.45395305 0.00236190 0.00901434 0.00956887
C -4.23542323 26.04711935 19.42095898 -0.00559340 -0.00638859 -0.00744410
C -10.35966298 21.64408050 23.24861858 -0.00138664 -0.00852883 0.00014105
C -3.81277645 21.38764504 24.29816582 0.00046466 0.00818729 0.00476364
C 2.75926022 25.93049239 18.41109228 0.00076651 -0.00184627 0.00380387
C -3.96976576 26.85272223 18.25654617 0.00051537 -0.00789682 0.00603314
C -10.51748575 22.36411681 24.37019313 0.00561241 -0.00155600 0.00005342
C -2.09210932 21.37071593 18.91894505 -0.00042427 -0.00006925 0.00297486
C 1.00574633 26.16166755 23.87145148 0.00275008 0.00044692 0.00059642
C -5.77696697 26.95823904 23.88256090 -0.00270361 0.00441807 -0.00126319
C -8.65299468 22.09360467 18.97709998 -0.00646003 -0.00478516 0.00544587
C -3.11675512 22.14946208 18.41978614 -0.00084272 0.00008214 -0.00397505
C -11.48453026 27.04865697 24.30760426 0.00229814 0.00551723 -0.00232703
C -4.89559631 26.00285796 24.28665774 -0.00441679 0.00089197 0.00529831
C 3.35977921 21.25130400 18.57252112 -0.00236873 0.00512419 -0.00270006
C -7.18027869 24.41556917 21.91684113 0.00754476 0.00672805 0.00563433
C -7.49407602 19.65013761 21.05437888 -0.00421734 0.00480940 0.00005081
C -0.83657227 23.92894494 21.08956622 -0.00458153 -0.00064047 0.00086607
C -0.67866365 28.77419816 22.19729032 0.00004373 -0.00518346 -0.00084937
C -8.29284558 25.40603757 21.73210823 -0.00087287 -0.00930544 0.00490725
C -6.19826552 20.38067257 21.20638371 0.00247438 0.00757753 -0.00283460
C 0.18835613 22.89185126 21.38468771 0.00129968 -0.00387074 -0.01053339
C -1.89744896 27.97394711 22.11051803 -0.00149289 -0.00147264 0.00853153
C 16.49782593 3.97810856 5.15812541 -0.00594261 0.00062332 -0.00312353
C 13.71890892 8.50892684 0.84115676 0.00731375 0.00089811 -0.00047484
C 20.29259141 5.98099607 0.91161706 0.00127295 0.00305416 0.00447038
C 22.96474745 1.07150509 5.01234673 -0.00216623 0.00537432 -0.00328064
C 17.68457939 3.79797217 4.45917599 0.00051274 0.00681979 0.00649296
C 25.95386783 8.16620440 1.71634376 0.00538159 0.00028914 -0.00262354
C 19.08772454 6.05221980 1.60902002 -0.00026658 -0.00273718 0.00277813
C 11.13407219 1.41567285 4.39712452 -0.00636381 -0.00106546 0.00834305
C 18.67536693 2.98302400 4.79906543 0.00488318 -0.00295110 0.00066009
C 24.96098124 7.25840581 1.35352361 0.00597891 -0.00148868 0.00552084
C 18.17560159 7.07143918 1.24258983 0.00185777 -0.00236348 -0.00956756
C 12.06281835 2.35214997 4.86075898 0.00433352 -0.00346734 -0.00278298
C 18.54853763 2.22274480 5.99863017 0.00214658 0.00165928 0.00093279
C 25.14129810 6.41402605 0.22038918 -0.00038400 -0.00353666 -0.00104838
C 18.36065414 7.87928582 0.13385672 0.00127110 -0.00901810 -0.00029894
C 11.86222769 3.12477847 6.02057131 -0.00172621 0.00126441 -0.00154100
C 20.18876770 2.34300938 0.53498313 0.00242330 0.00012993 -0.00163429
C 23.02960251 7.14212261 5.41532093 0.00301613 -0.00219365 0.00290167
C 16.51934986 7.99545545 5.50516979 0.00085759 -0.00079757 0.00235455
C 13.63448044 2.89310354 0.71147883 -0.00325094 -0.00111148 0.00388556
C 19.23384932 3.16039241 0.02850360 0.00754416 0.00160076 -0.00414998
C 10.77230777 7.87284640 5.76415071 0.00048988 0.00284358 -0.00091020
C 17.52250037 7.18642242 5.98285013 0.00009154 -0.00056043 -0.00878181
C 25.81420345 1.74467678 0.27011685 -0.00356292 -0.00234178 0.00571087
C 15.34709306 5.39480568 3.50935999 0.00147501 0.00419723 -0.00049853
C 14.98608936 0.53672676 2.38968274 -0.00267390 0.00276434 -0.00361088
C 21.71047285 4.67280738 2.47319957 0.00680106 0.00235283 0.00413110
C 21.91918928 9.25792659 3.61709969 0.00259937 0.00351720 0.00505885
C 14.09048073 6.19570685 3.28850532 -0.00191462 -0.00133563 0.00429778
C 16.20668772 1.39005421 2.60194578 -0.00269905 0.00259726 -0.00148097
C 23.05475042 4.12128190 2.71776386 0.00147565 0.00463557 -0.00107437