2880
Time=42000.00000002 pbc="T T T" Lattice="39.56653862 0.00000000 0.00000000 0.00000000 29.15037200 0.00000000 -12.02586210 0.00000000 24.39303527" energy=-18399.81449723 virial="-31.19990266 39.73467788 -27.38922767 39.73467788 -36.65559571 -8.60131517 -27.38922767 -8.60131517 -39.08712132" stress="0.00137021 0.00140745 -0.00100935 0.00140745 0.00114751 -0.00033127 -0.00100935 -0.00033127 0.00109453" Properties=species:S:1:pos:R:3:vel:R:3
C 3.12360959 3.77495293 5.06051647 -0.00400325 0.00121437 -0.00261005
C 0.36367445 8.63806932 0.92246456 0.00717349 0.00338167 -0.00585327
C 6.94103742 6.19674493 0.93129345 -0.01703728 -0.00690851 0.00208916
C 9.71747651 1.36395760 5.03785974 0.00286957 0.00155988 0.00084062
C 4.36308444 3.65840509 4.36680813 -0.00680821 0.00563387 0.00120254
C 12.45397602 8.53984594 1.54187618 -0.00108548 -0.00154325 0.00453768
C 5.76579287 6.35935829 1.64786131 0.00005819 -0.00291518 0.00179679
C 37.34549335 1.16249945 4.47458752 -0.00027822 0.00274881 -0.00060365
C 5.31267197 2.76346713 4.82939318 0.00522550 0.00204718 0.00572002
C 11.53870916 7.58517739 1.21682036 0.00058250 -0.00111054 -0.00283819
C 4.82508044 7.20766433 1.21012179 -0.00693749 -0.00861151 -0.00415050
C -1.23150837 2.01419117 4.92029158 0.00566941 0.00591653 -0.00171269
C 5.12612590 1.91814312 5.97627099 -0.00601361 -0.00565594 -0.00471423
C 11.73561494 6.70719133 0.13187705 0.00631122 0.00329847 0.00744305
C -7.12498973 7.86032411 24.35077000 -0.00535027 0.00023071 0.00340541
C -1.27439962 2.77812246 6.11220506 0.00215518 0.00602415 -0.00037011
C 7.05356288 2.03020851 0.57537647 0.00115568 0.00165351 -0.00433725
C 9.92762954 6.92080969 5.53945183 -0.00823753 0.00390155 -0.00194356
C 3.36037988 7.79657401 5.70865722 0.00037993 0.00739103 -0.00364469
C 0.36548180 2.96630487 0.50762830 -0.00946316 0.00851093 0.00057877
C 5.97164007 2.83060025 0.18713338 -0.00174585 0.00750925 -0.00266408
C -2.52890878 7.88230308 5.75857326 0.00270473 0.00015408 0.00340327
C 4.25634915 6.82527506 5.99186254 0.00549665 -0.00605309 0.00168263
C 12.75163612 2.08623015 0.34760550 -0.00345933 0.00270947 -0.00729173
C 1.89972631 5.17650122 3.61766801 -0.00027046 -0.00404964 -0.00586537
C 1.42191237 0.21938022 2.66104427 -0.00042728 -0.00353933 0.00402512
C 8.02131664 4.72896964 2.55729010 0.00035402 -0.00226845 0.00273287
C 8.51070935 9.54994791 3.64092575 0.00362231 0.00031542 -0.00087728
C 0.73846971 6.04582386 3.50823178 -0.00187080 -0.00282734 0.01050967
C 2.76297940 0.76562028 2.98585279 -0.00132264 0.00175996 -0.00285897
C 9.27865994 3.94940819 2.83044274 -0.00627117 -0.00080528 -0.00455416
C 7.17601148 8.88446971 3.43355255 -0.00004824 0.00259768 -0.00071078
C 0.20307387 3.81835661 11.12529278 0.00462845 -0.00175722 -0.00132344
C -2.63597661 8.58601860 6.96622563 -0.00952738 -0.00084591 0.00587542
C 4.00643120 5.99784337 7.07367164 -0.00642589 0.00097086 -0.00494585
C 6.75794763 1.00962681 11.46589718 0.00357686 -0.00015650 -0.00242301
C 1.41931464 3.77479619 10.48086126 -0.00208950 -0.00913524 0.00012264
C 9.53806736 8.44474731 7.85450060 0.00626596 0.00421958 -0.00390948
C 2.84832298 6.15876842 7.84494317 -0.00280728 -0.00060354 -0.00344921
C 34.11737139 1.40115818 10.57852453 -0.00420824 0.00133168 -0.00258085
C 2.31241849 2.79231804 10.86495991 0.00479202 -0.00037324 0.00914550
C 8.47304522 7.66245623 7.36953665 -0.00158972 0.00850187 -0.00319483
C 1.97002321 7.17225179 7.55709779 -0.00998218 -0.00476025 0.00616839
C -4.49780940 2.30640021 10.89007884 0.00167593 -0.00168054 0.00246510
C 2.04047765 1.91081769 12.00185807 -0.00021334 -0.00834866 0.00209760
C 8.67321060 6.84405503 6.23739792 0.00276705 -0.00029541 -0.00119024
C 2.21282320 8.02863229 6.51488667 -0.00289122 0.00135681 -0.00180277
C -4.55244780 2.97874133 12.13281627 0.00313674 -0.00014534 -0.00884724
C 3.89445526 1.99286299 6.57734068 -0.00002879 -0.00582051 -0.00196141
C 6.98047314 6.61270638 11.78527540 0.00169151 0.00848280 -0.00357323
C 0.59060166 7.48536611 11.85634478 -0.00879025 0.00460053 -0.00877747
C -2.51561578 2.67470586 6.80064966 -0.00020456 -0.00662590 0.00301577
C 2.82558881 2.87503421 6.13148635 -0.00015844 -0.00436368 -0.00017440
C -5.18763934 7.55971666 12.14222668 -0.01105726 0.00221325 -0.00179255
C 1.44922684 6.54734091 12.27387484 0.00161659 0.00209423 -0.00067167
C 9.42069437 2.23565462 6.13332670 0.00170052 0.00068668 -0.00806631
C -1.07890557 5.26117123 9.56547021 0.01054553 0.00805607 0.00188567
C -1.41251197 0.18853420 8.70396435 0.00041730 -0.00443311 -0.00424735
C 5.21819667 4.54174844 8.61870693 -0.00156258 0.00585020 0.00399847
C 5.65062999 9.14322523 9.79278821 -0.00604624 -0.00045801 -0.00251975
C -2.34211865 6.08100787 9.41950669 -0.00494603 -0.00604179 0.01198450
C -0.07448879 0.85466276 8.94856672 0.00169950 -0.00382990 -0.00578698
C 6.48610115 3.73544033 8.85849923 0.00086960 -0.00399120 -0.00534677
C 4.58214485 8.07915697 9.61836575 0.00175853 0.00780795 -0.00433978
C -2.77626339 3.41918292 17.27588900 -0.00236310 -0.00195565 -0.00046522
C -5.29930061 8.47254708 13.24494201 0.00001697 0.00410796 0.00613903
C 1.21188507 5.71599467 13.34478462 -0.00306520 -0.00375455 0.00395800
C 3.66160435 1.01633654 17.36857854 -0.00420400 -0.00214692 -0.00097199
C -1.56430349 3.43814869 16.63521790 -0.00117825 -0.01093693 0.00343141
C 6.38056026 8.31671267 13.93111137 -0.00156449 0.00274556 -0.00765785
C -0.00284748 5.82413448 13.98503226 0.00352656 -0.00412391 -0.00788737
C 31.15258398 1.25369627 16.69267418 -0.00451664 0.00037864 -0.00421490
C -0.55798848 2.55894561 17.15194805 -0.00299221 -0.00533172 0.00134898
C 5.46077710 7.27800930 13.53615091 0.00141275 0.00061470 -0.00000397
C -0.91823572 6.87021942 13.63706370 0.00131113 -0.00229561 -0.00044455
C -7.44481430 2.13684031 16.94329539 0.00186227 0.00268652 -0.00906768
C -0.78390872 1.69447331 18.20045135 0.00155143 0.00230128 -0.00742504
C 5.70796059 6.49000673 12.45437922 0.00650197 -0.00565816 -0.00283976
C -0.66244941 7.66089397 12.53766189 -0.00181754 0.00136228 -0.00846952
C -7.51290752 2.87894896 18.13368812 0.00280654 -0.00438184 -0.00128165
C 0.78446382 1.99436611 12.62336501 0.00201057 -0.00189339 0.00595479
C 3.66630952 6.82019698 17.82168682 -0.00053675 -0.00536040 0.00445219
C -2.78704296 7.29992292 17.61399582 0.00206428 -0.00479885 -0.00620392
C -5.68913821 2.78865253 12.92408642 0.00858795 -0.00229754 0.00216781
C -0.06764759 2.98182494 12.24345087 -0.00333307 -0.00318612 -0.00105869
C -7.92686287 7.73096594 18.23206337 0.00078082 0.00038818 0.00047694
C -1.78631116 6.47600492 18.05435189 0.00247109 -0.00207559 0.00372215
C 6.57629716 1.83745680 12.59624595 -0.00157030 -0.00101409 -0.00581344
C -4.02220331 4.79827580 15.70939752 -0.00570749 0.00374460 -0.00071357
C -4.16697006 0.13536570 14.60079827 -0.00152483 -0.00377163 -0.00278706
C 2.24328239 4.36724249 14.98610530 0.01033421 -0.00088719 -0.00530333
C 2.90843554 9.05107845 15.79574276 0.00057542 0.00319962 0.00853500
C -5.27140142 5.60172573 15.54787064 0.00163069 -0.00940616 -0.00357937
C -2.80999146 0.78573496 14.64310263 0.00133928 -0.00553851 0.00738130
C 3.38820115 3.49461055 15.39080111 0.00787259 0.00843037 -0.00274965
C 1.68412792 8.21430886 15.61910451 -0.00392274 0.00257225 0.00139198
C -5.96482844 3.61665645 23.41254771 0.00370486 0.00273520 0.00117192
C -8.16811840 8.52809867 19.36762680 -0.00043437 0.00048587 0.00369037
C -1.93563723 5.75086686 19.29070259 -0.00305450 0.00089409 0.00922767
C 0.81133732 1.27295017 23.53642752 0.00072018 0.00707954 0.00096537
C -4.73666003 3.52276096 22.64390317 -0.00852538 -0.00300910 -0.00629000
C 3.44243599 8.48327216 20.00328396 -0.00221141 0.00036504 -0.00847476
C -3.12575335 6.05161326 20.00808596 0.00148234 0.00596785 0.00077654
C 28.25661516 1.25741575 22.76312601 -0.00507866 -0.00191923 -0.00951172
C -3.72589916 2.68401794 23.08913697 -0.00851970 -0.00378756 0.00316164
C 2.49972397 7.56302318 19.70869583 -0.00143883 0.00909608 0.00474157
C -4.07515878 6.96773437 19.58775753 -0.00164722 -0.00553069 -0.00181763
C -10.23962552 2.02005536 23.11926824 0.00810437 0.01114065 -0.00237369
C -3.78917392 1.90783258 24.26480450 -0.00097619 0.00094364 0.00622207
C 2.53990982 6.73642462 18.58190856 0.00751437 0.00041641 0.00251538
C -3.84136598 7.64301202 18.39304719 0.00179373 0.00068341 0.00472449
C -10.40605916 2.90048947 24.26439611 0.00326029 0.00280412 -0.00451257
C -2.04859699 1.62071711 18.75787920 0.00021692 0.01060604 0.00547264
C 0.90429279 6.83260979 23.73616615 -0.00766853 0.00236925 0.00846571
C -5.89852939 7.76359572 23.65953058 0.00489473 -0.00106358 -0.00214067
C -8.74617710 2.95293350 18.81665173 -0.00783489 -0.00064533 -0.00058672
C -3.05700811 2.43001917 18.27055848 -0.00470314 -0.00021136 0.00437258
C -11.55841442 7.83080824 24.13614253 0.00500855 -0.00205994 -0.00080764
C -4.86229752 6.99382704 24.16741955 0.00372122 0.00790711 0.00275417
C 3.38688985 1.97756276 18.42026787 0.00169732 0.00536067 0.00483449
C -7.10265785 5.03926063 21.80446819 -0.00156615 -0.00180931 0.00610648
C -7.41484787 0.12339709 20.68990022 -0.00435325 0.00990768 -0.00322977
C -0.84533526 4.47622796 20.98576374 -0.00442319 0.00227881 -0.00136788
C -0.43886798 9.28313970 21.87677692 -0.00722635 -0.00486517 0.00254406
C -8.22283355 5.99595799 21.60635069 0.00158609 0.00117519 -0.00291951
C -5.99689056 0.61765266 20.88465815 -0.00320685 -0.00150317 0.00259789
C 0.22813354 3.48324549 21.25001294 -0.00846275 0.00037722 -0.00323787
C -1.72344279 8.54653339 21.74910841 -0.00322913 0.00507754 0.00182268
C 3.26117131 13.43972068 5.21903210 0.00325461 0.00000801 0.00041267
C 0.14941603 18.27460331 0.92435028 0.00494562 -0.00751712 -0.00200420
C 6.97783586 15.71482749 1.02706548 0.00491375 -0.00126909 0.00512813
C 9.81226880 10.91489882 5.27002814 0.00454999 -0.00340767 0.00084370
C 4.47314590 13.35228781 4.55048807 -0.00501838 -0.00547609 -0.00031110
C 12.35197030 18.48593385 1.72714807 -0.00427599 -0.00148736 -0.00062201
C 5.81717789 15.81266108 1.78578504 -0.00373032 -0.00540693 0.00262459
C 37.07334200 11.07436703 4.36523526 -0.00088324 0.00152583 -0.00248887
C 5.46793622 12.45493366 5.04940983 0.00568668 -0.00614397 -0.00423613
C 11.44862456 17.62978460 1.28809567 -0.00177200 -0.00548412 -0.00542822
C 4.85508031 16.71309640 1.44936209 0.00108623 -0.00357184 -0.00323031
C -1.49938258 11.95573448 4.75531066 -0.00434424 0.00013203 0.00355283
C 5.18777763 11.60747065 6.11376397 0.00532993 0.00625971 -0.00567896
C 11.68392536 16.73895635 0.17600773 0.00413529 0.00364688 -0.00295748
C 4.89757233 17.50820525 0.24809604 0.00177281 -0.00228183 -0.00129716
C -1.51848412 12.53922199 6.04984973 -0.00295997 -0.00226255 0.00131443
C 7.15840048 11.80466495 0.65549238 -0.00347000 -0.00269214 0.00357985
C 9.86417094 16.62800403 5.65215546 0.00048624 0.00483358 -0.00239826
C 3.39868414 17.39039846 5.64955241 0.00020079 0.00345521 -0.00391849
C 0.37089957 12.51961446 0.64019676 0.00146487 0.00363874 0.00413666
C 6.23448878 12.60100311 0.12909105 -0.00581247 0.00704384 -0.00600799
C -2.50054856 17.41600795 5.80053412 0.00071247 0.00116956 0.00540305
C 4.41342382 16.57314188 6.16034000 -0.00456443 0.00172472 -0.00258913
C 12.64263751 11.54363652 0.13045631 0.00133540 0.00038255 -0.00179314
C 2.15068890 14.82384348 3.54909715 0.00076447 0.00163733 0.00261998
C 1.55282704 9.96409379 2.58433747 -0.00304518 -0.00041764 -0.00579102
C 8.24841914 14.35111258 2.58661921 -0.00203284 0.00334311 0.00492606
C 8.52397333 19.13867031 3.51032243 0.00247646 0.00219655 -0.00451279
C 0.96052192 15.64911175 3.37512247 -0.00527275 -0.00116974 0.00205986
C 2.76326133 10.86632852 2.64848034 -0.00051062 0.00416154 -0.00324952
C 9.62231539 13.71936930 2.84593467 -0.00187640 0.00076779 0.00036500
C 7.46499968 18.18299807 3.38609237 0.00508440 -0.00865520 0.00080190
C 0.16866883 13.20266710 11.38515352 0.00268403 0.00121086 -0.00204714
C -2.74136458 18.10149300 6.98537124 -0.00619429 0.00173069 0.00648057
C 4.06619034 15.69392298 7.12087379 0.00283026 -0.00007291 -0.00431404
C 6.82004928 10.61783895 11.25564227 -0.00060970 -0.00300029 -0.00241956
C 1.34288955 13.03991456 10.64274132 0.00498610 0.00265399 0.00016685
C 9.41754797 18.32073246 7.72071097 -0.00282583 0.00666236 -0.00792630
C 2.79630712 15.63515945 7.75785631 0.00107748 -0.00301539 0.00877433
C -5.14889110 10.67254701 10.63966935 -0.00000726 0.00063961 0.00363802
C 2.29044257 12.17318087 11.13672102 -0.00132400 -0.00870902 -0.00042456
C 8.53321428 17.28828010 7.47753974 0.01178770 0.00281772 0.00390825
C 1.89283322 16.57046389 7.35281729 -0.00123807 0.00418430 0.00022337
C -4.17846888 11.52212920 11.10334642 0.00415627 -0.00708757 -0.00121485
C 2.06428088 11.55155652 12.36793930 -0.00008627 -0.00065600 -0.00032420
C 8.75795323 16.30591726 6.51166159 -0.00242578 0.00215044 0.00198418
C 2.10501260 17.41577685 6.24462224 0.00576138 -0.00185422 -0.00700006
C -4.30677085 12.45021321 12.17631424 0.00015812 -0.00214720 0.00691946
C 3.89207968 11.70370992 6.70555575 0.00246925 0.00198950 -0.00526824
C 6.74494526 16.58068226 11.65466131 0.00957591 -0.00755477 0.00426246
C 0.24476939 17.18345893 11.81778331 -0.00283381 0.00526253 -0.00493252
C -2.65360662 12.33568793 6.87650621 -0.00474125 -0.00245127 0.00208906
C 2.96974613 12.60004806 6.28364922 0.00230644 0.00130322 -0.00346853
C -5.24622766 17.46188873 12.29602383 -0.00572501 -0.00683742 0.00394656
C 1.08198053 16.14021615 12.09033596 -0.01059374 0.00332844 -0.00074459
C 9.74777819 11.59769037 6.44989568 0.00167639 -0.00198910 -0.00412476
C -1.19551336 14.59713466 9.77999149 0.00220847 -0.00162903 -0.00108288
C -1.23476644 9.82452223 8.59053962 0.00008302 -0.00629531 0.00114117
C 5.25938990 14.30117926 8.66409223 0.00436487 0.00538074 0.01175193
C 5.52751462 19.11924311 9.57002026 0.00140759 -0.00164151 -0.00365502
C -2.53776807 15.27820501 9.66979301 -0.00346842 0.00056993 0.00748708
C -0.06322896 10.73942670 8.76153329 -0.00606988 0.00090249 0.00248949
C 6.44039367 13.45481308 8.81004891 -0.00000593 0.00172748 0.00866778
C 4.29486070 18.33118194 9.43278188 0.00368183 -0.00081425 -0.00380027
C -2.85048199 13.30439095 17.44652441 0.00234095 0.00307428 0.00125031
C -5.51607999 18.42412126 13.25717504 -0.00386449 -0.00328255 0.00289792
C 1.04576142 15.44703028 13.29504853 -0.00273841 0.00588755 0.00453004
C 3.80642835 10.77938500 17.19274013 -0.00179470 -0.00341173 0.00242702
C -1.61718255 13.23897890 16.73153374 0.00522294 -0.00425325 0.00126533
C 6.30261784 18.24721736 13.83218723 0.00795515 0.00252717 -0.00069549
C -0.14036897 15.57155181 14.09782150 0.00883508 0.00520016 -0.00251782
C 31.31321056 10.84915094 16.58260435 0.00399242 -0.00539077 -0.00183340
C -0.62048952 12.40543706 17.09978345 0.00133325 0.00242235 -0.00650903
C 5.29208823 17.42099360 13.35062614 0.00003765 -0.00248446 0.00773136
C -1.10489187 16.42499843 13.62798967 0.00087889 -0.00318848 -0.00683288
C -7.33577278 11.86452701 16.96195201 0.00309338 -0.00107764 -0.00119339
C -0.76057407 11.59261586 18.20901889 -0.00225092 -0.00211412 0.00119691
C 5.48781447 16.57313814 12.25764873 0.00659076 -0.00240873 -0.00062107
C -0.98674736 17.27467136 12.50791328 0.00602716 -0.00021490 -0.00119757
C -7.50650593 12.65421689 18.12171404 -0.00113729 -0.00196944 0.00189567
C 0.85791385 11.73023450 13.11763970 -0.00717460 0.00021162 -0.00074307
C 3.95730645 16.55613179 17.75705933 0.00638088 -0.00224623 0.00614867
C -2.58957048 17.16079224 17.86320926 0.00560969 -0.00679586 0.00013095
C -5.51387812 12.31944911 12.91757735 0.00704290 -0.00048287 0.00487645
C -0.08880962 12.57617157 12.53209290 0.00385125 -0.00849258 0.00269975
C -8.30341575 17.62183893 18.11575530 0.00356947 -0.00044623 0.00305730
C -1.73542836 16.13691776 18.22370617 -0.00280722 0.00186989 0.00884118
C 6.55243164 11.54526020 12.29111825 -0.00511723 -0.00087507 0.00293546
C -4.08479285 14.69844015 15.76310439 -0.00036912 0.00359948 0.00392475
C -3.95353576 9.93989467 14.61931811 -0.00926667 -0.00187721 0.00603301
C 2.35409571 14.22992114 14.78432970 -0.00273653 0.00204975 0.01082696
C 2.23011621 19.32259706 15.98939391 -0.00350682 -0.00201654 0.00403330
C -5.35036429 15.46331745 15.60862286 0.00621171 -0.00250721 0.00463170
C -2.73469083 10.81311363 14.69662016 -0.00470752 -0.00638165 0.00543983
C 3.74543966 13.63483938 14.88914079 0.00271959 -0.00655768 -0.00510425
C 1.23896121 18.23069436 16.06254135 -0.00296518 -0.00559976 -0.00213331
C -5.69392595 13.41766702 23.36114704 -0.00155774 0.00519202 -0.00229107
C -8.57011266 18.38945475 19.28207292 0.00451637 -0.00095118 -0.00574485
C -1.88556701 15.45765186 19.44482780 0.00597209 0.00202114 -0.00048692
C 0.80515350 10.70585695 23.43420695 0.00097419 0.00255074 0.00205439
C -4.45315382 13.40868180 22.70197278 0.00147824 0.00284134 -0.00155594
C 3.61862747 18.06890010 20.08372805 0.00487964 0.00115945 -0.00162233
C -3.12216549 15.69451824 20.05366899 -0.00108214 -0.00077386 0.00131682
C -11.17375624 10.90865557 22.83533031 0.00246670 -0.00431894 -0.00089056
C -3.45696660 12.48843755 23.21479313 -0.00306470 0.00230563 -0.00336456
C 2.61696780 17.20618430 19.68554760 0.00438136 -0.00055035 -0.00037998
C -4.02223817 16.61605618 19.69093948 0.00585568 0.00394621 -0.00329344
C -10.25915534 11.87510603 23.16911269 0.00118412 0.00595458 0.00264428
C -3.64593141 11.63764022 24.29410419 0.00552901 -0.00350840 0.00914988
C 2.70938349 16.49132704 18.45412563 0.00069906 0.00078040 -0.00336676
C -3.76326365 17.44425308 18.59364711 0.00016430 0.00309113 -0.00194957
C -10.48229424 12.76046786 24.29115221 0.00345502 -0.00358364 -0.00519422
C -2.00945810 11.71123478 19.05908159 -0.00310603 -0.00184292 -0.00303652
C 0.95721279 16.63599002 24.09008237 0.00574959 0.00199942 0.00146430
C -5.92287347 17.44910239 23.93814937 0.00124064 -0.00138673 0.00102752
C -8.69248320 12.53262969 18.81347907 -0.00163460 -0.01111391 -0.00025792
C -3.02913989 12.54408381 18.59922590 -0.00718382 -0.00194775 0.00899985
C -11.75189517 17.37722825 24.24706639 0.00127528 -0.00609023 -0.00602576
C -4.86567566 16.60503777 24.38883951 -0.00021375 0.00099782 -0.00358828
C 3.50818078 11.56101857 18.32464701 0.00398896 0.00408042 -0.00677148
C -6.93876154 14.76353680 21.73625081 0.00559300 0.00130515 -0.00148578
C -7.12193188 10.10973844 20.82225487 -0.00357959 -0.00374248 0.00028472
C -0.76455216 14.12068574 21.05030744 0.00035719 -0.00383875 -0.00074543
C -0.37523653 19.04525155 21.59237632 -0.00555141 0.00101213 0.00354051
C -8.01187384 15.78771511 21.52168142 0.00068091 0.01026565 0.00815848
C -5.89757862 10.81430753 21.21356165 -0.00245528 0.00186537 -0.00182051
C 0.35726920 13.09931711 21.19048036 0.00603122 0.00145661 -0.00044808
C -1.51962962 17.96116771 21.39427977 -0.00091820 -0.00178210 -0.00165270
C 3.19270414 23.19941700 5.04262490 -0.00217978 -0.00329468 -0.00147108
C 0.21509481 28.16272716 1.05742519 0.00312165 -0.00136503 -0.00178111
C 7.00568456 25.46505762 1.09761181 -0.00634469 0.00406609 -0.00463013
C 9.77324320 20.46364803 5.11926595 0.00632899 0.00244190 0.00811114
C 4.34465265 22.87150681 4.24203924 0.01215374 -0.00911831 0.00601290
C 12.36986049 28.15042418 1.68725584 -0.00223242 0.00114370 0.00293295
C 5.79459967 25.43714342 1.76652129 0.00088923 0.00392897 -0.00508216
C 37.40723059 20.64756325 4.24917605 -0.00454627 -0.00248848 -0.00204344
C 5.35552149 22.07279773 4.74811988 0.00334261 -0.00357819 0.00270258
C 11.46435419 27.20329858 1.31107225 -0.00593707 0.00143151 -0.00200148
C 4.81678870 26.39215636 1.47261073 -0.00171212 0.00211190 -0.00183984
C -1.13067724 21.46704555 4.70197499 -0.00297313 -0.00148791 0.00101138
C 5.15919239 21.35892678 5.96051522 0.00599110 0.00189284 -0.00403923
C 11.70157045 26.41008893 0.20655156 -0.00248222 -0.00110991 0.00802935
C 4.89506051 27.18037241 0.29027008 -0.00142244 0.00812598 -0.00267856
C -1.29182525 22.33305241 5.78924582 0.00041604 -0.00647644 -0.00224174
C 6.93152971 21.48972204 0.47077579 0.00021396 -0.00228871 0.00536032
C 9.67432274 26.58946250 5.60575999 0.00424571 0.00143471 -0.00066318
C 3.34782121 26.98629315 5.61930580 0.00138604 -0.00000311 -0.00627923
C 0.41795638 22.24626866 0.45169039 0.00026073 0.00455769 0.00742410
C 5.96921376 22.44898367 0.15333715 0.00201700 0.00210853 0.00470214
C -2.35130453 27.10283633 5.93816416 0.00117802 -0.00123434 -0.00332485
C 4.41770221 26.25154104 6.13648530 -0.00150086 -0.00187980 -0.00105135
C 0.48364172 21.31932475 24.38143004 0.00219193 0.01178430 -0.00017886
C 1.96188304 24.54227963 3.50035526 -0.00011888 -0.00389229 0.00554346
C 1.60565689 19.48037601 2.59953627 -0.00021029 0.00252917 0.00346310
C 8.21396447 23.99024768 2.47581235 -0.00042409 -0.00261631 -0.00353465
C 8.62689984 28.96797657 3.52039395 -0.00462582 -0.00143499 0.00272795
C 0.78253916 25.42923757 3.36842368 0.00102797 -0.00584139 0.00822842
C 2.89042889 20.21961649 2.61162690 0.00635745 -0.00284988 0.00613673
C 9.34100824 22.99776069 2.48902412 0.00135602 -0.00242560 -0.00161069
C 7.56458038 27.95433078 3.30400314 0.00440877 0.00623022 -0.00214807
C -0.02653858 23.09451496 11.06432553 0.00383360 -0.00796740 0.00507121
C -2.55723985 27.98910838 7.00419002 0.00565974 -0.00742863 -0.00096259
C 4.19451821 25.35352475 7.17308395 -0.00730342 -0.00233012 0.00290533
C 6.94745281 20.29613699 11.23314645 0.01179679 -0.00004789 -0.00035119
C 1.14017484 22.81405661 10.36223690 0.00633649 -0.00224208 -0.00079211
C 9.19483458 28.16218029 7.89826234 0.00009117 -0.00450457 0.00002122
C 2.97424049 25.39686145 7.86385278 -0.00409162 0.00355401 -0.00144879
C -5.03836414 20.58812252 10.38688957 0.00127240 -0.00406067 0.00242161
C 2.13792428 22.01354922 10.80867269 0.00617282 -0.00029728 0.00712133
C 8.21394405 27.35112379 7.34698871 -0.00217275 0.00017806 -0.00036637
C 1.93424915 26.20880718 7.41637040 0.00175247 0.01172636 -0.00369935
C -4.21504464 21.67072000 10.60650969 -0.00442585 0.00568083 -0.00291533
C 2.02688824 21.32294093 12.01889535 -0.00446765 0.00748391 -0.00115786
C 8.41279748 26.52099978 6.18476538 -0.00170470 -0.00848691 0.00155926
C 2.07659299 27.06251925 6.25253301 -0.00686693 0.00135705 -0.00147351
C -4.35034016 22.53500584 11.66178594 -0.00575370 0.00613455 0.00269994
C 4.07590830 21.62291761 6.77120322 -0.00821532 -0.00489849 0.00575588
C 7.17380756 26.24962959 11.72858371 -0.00336560 0.00458636 0.00438853
C 0.26755527 27.08676751 11.58607423 -0.00049261 0.00515633 0.00257706
C -2.57840051 22.46390993 6.27760413 -0.00222362 -0.00549250 0.00323880
C 3.09849376 22.50935680 6.28855324 -0.00187293 0.00260284 -0.00090691
C -5.24234840 27.14913384 11.90010965 0.00978920 -0.00737842 -0.00752399
C 1.21702638 26.18495038 11.93523840 -0.00469566 -0.00383266 0.00584851
C 9.57914776 21.31792217 6.18295223 0.00073183 -0.00301846 0.00227358
C -0.88986387 24.69202156 9.52357769 -0.00724116 -0.00567370 0.00314508
C -1.48699800 19.41056369 8.66287786 -0.00012919 -0.00204276 -0.01302335
C 5.40114511 23.90451413 8.64366795 0.00321755 0.00265692 0.00010586
C 5.52169494 28.83793451 9.84653677 0.00102541 0.00388556 0.00657807
C -1.95731856 25.67416188 9.31733324 0.00066818 0.00086077 0.00686054
C -0.52887409 20.52116903 8.90669296 -0.00449501 0.00467111 -0.00552743
C 6.67117282 23.10650380 8.84204213 -0.00063703 0.00295529 -0.00390161
C 4.43334217 27.81350818 9.67315646 -0.00329231 0.00317625 0.00168434
C -2.91503211 23.29493154 17.14788763 0.00277948 -0.00178323 0.00020065
C -5.46219471 28.06003327 12.97419354 -0.00335515 0.00647863 -0.00006273
C 1.05776845 25.28239805 12.98506772 -0.00935242 0.00742681 -0.00052301
C 3.71726059 20.60528892 17.47504398 -0.00150723 -0.00619615 0.00395923
C -1.66744896 23.21368875 16.54203990 -0.00311420 -0.00840971 -0.00743243
C 6.37967019 27.84453916 13.91025978 -0.00062898 -0.00095700 -0.00016651
C -0.04677871 25.55440079 13.85204085 -0.00265815 -0.00133980 0.00235911
C 31.16955759 20.64476352 16.58847556 0.00246213 -0.00601372 -0.00909464
C -0.72653247 22.26279020 16.95343384 0.00552673 0.00404868 0.00594668
C 5.53918668 26.86287410 13.36512351 -0.00412543 -0.00595416 -0.00274493
C -1.04134991 26.46380424 13.46251811 -0.00140271 0.00120424 -0.00552397
C -7.38359769 21.43077860 17.04370102 0.00349973 -0.00586911 0.00001316
C -0.85669873 21.48257108 18.11751139 -0.00583794 0.00287627 -0.00723845
C 5.89275795 26.09354717 12.24020223 0.00258908 0.00533986 -0.00564330
C -0.92763517 27.21628158 12.29522881 -0.00231957 0.01312136 -0.00633847
C -7.47708766 22.31294402 18.11440524 -0.00037268 -0.00877908 0.00266628
C 0.81594728 21.48307498 12.71090568 -0.00016215 -0.00040700 -0.00495911
C 4.01614570 26.47581627 17.69770345 -0.00144014 -0.00350655 0.00517577
C -2.50915420 27.00615147 17.72001851 -0.00209496 0.00063094 -0.00317625
C -5.47695034 22.36735736 12.49245126 0.00293446 -0.00207440 -0.00626955
C -0.23017698 22.30990585 12.20239421 0.00201411 0.00171118 -0.00014267
C -8.64568366 27.28628296 17.94689314 -0.00007990 -0.01221595 0.00582165
C -1.58872872 26.15474148 18.20420183 -0.00542387 0.00062665 0.00247248
C 6.66616162 21.07142885 12.43769110 0.00681352 -0.00787082 -0.01002488
C -4.27042076 24.51081212 15.49428107 -0.00087735 -0.00287187 -0.00435007
C -4.36597261 19.74660024 14.81307639 0.00204002 -0.00161849 0.00379666
C 2.23179435 23.85077509 14.58321134 -0.00611982 0.00752351 0.00877503
C 2.54216114 28.77044379 15.76872455 0.00111189 0.00549618 -0.00541172
C -5.47417850 25.39429769 15.33467895 -0.00715085 0.00332621 -0.00921555
C -3.34002161 20.79296397 15.19373028 -0.00738520 -0.00218253 0.00445065
C 3.43080055 23.00791310 14.67415932 0.00557712 -0.00134431 0.00503790
C 1.42941888 27.80876785 15.68075326 -0.00009370 -0.00166806 -0.00803325
C -5.87766854 23.27175612 23.37086857 0.00213361 0.00972482 -0.00351401
C -8.68919418 28.04906819 19.12367285 -0.00407579 0.00316064 -0.00174421
C -1.83345882 25.37892017 19.35705288 0.00568569 -0.00089911 -0.00796040
C 0.73707732 20.40434078 23.38426054 0.00034756 -0.00097479 -0.00315232
C -4.69230906 23.16574411 22.65071929 0.00491304 -0.00357131 0.00585758
C 3.21766353 28.04972084 19.86849189 0.00724839 -0.00114743 -0.00283737
C -3.03617861 25.61697825 20.08003876 0.00341477 0.00204731 -0.00628689
C 28.33277057 20.60213830 22.64436133 0.00027972 -0.00370593 0.00002228
C -3.73903771 22.23712071 23.04468619 -0.01051928 -0.00292936 0.00301231
C 2.35780197 27.20501232 19.31342468 0.00889347 -0.00355792 0.00579459
C -4.03359827 26.43701984 19.52924844 0.00335055 0.00202175 0.00051164
C -10.25163660 21.52536995 23.03210683 -0.01442901 0.00794871 -0.00162432
C -3.93187060 21.32235214 24.13127687 -0.00249993 -0.00257879 0.00002843
C 2.73731397 26.32813930 18.23327296 0.00180651 -0.00073020 0.00491035
C -3.78416343 27.21442508 18.37402912 0.00355239 0.00315200 0.00144890
C -10.38013733 22.37840650 24.11259321 0.00477105 0.00662823 -0.00826662
C -2.07948173 21.60074102 18.75150481 0.00956878 0.00344361 0.00313496
C 0.85705362 26.52090580 23.90684154 0.00555130 -0.00327546 -0.00698081
C -5.92228978 27.11982230 23.91819711 0.00104278 -0.00177403 0.00298133
C -8.73726396 22.32546237 18.78474304 0.00056256 -0.00377104 0.00803680
C -3.03024968 22.49986981 18.35791648 0.00266883 0.00209387 -0.00093026
C -11.66065259 27.42240363 24.24495858 0.00815293 0.00328146 0.00616440
C -4.94854681 26.24995405 24.28177694 0.00121322 -0.00459929 -0.00457672
C 3.50912395 21.45712139 18.59611831 -0.00096180 0.00007343 -0.00209392
C -7.07650047 24.77653810 21.84356475 -0.00426314 0.00372170 0.00003843
C -7.50832828 19.77357721 20.85075295 0.00086365 -0.00712138 -0.00026625
C -0.61592706 23.94614014 20.90297888 -0.00379789 0.00417898 0.00395804
C -0.33599694 28.85672696 22.07827406 -0.00000725 0.00135097 -0.00228225
C -8.11024918 25.87620760 21.73907798 0.00123257 -0.00095719 -0.00051489
C -6.34689557 20.63821282 21.15227149 -0.00051285 -0.00026101 0.00026545
C 0.59514941 23.10081469 21.10175313 0.00028714 0.00094246 0.00316177
C -1.49879998 27.86696229 21.97825609 -0.00082980 0.00788843 0.00779524
C 16.33602403 3.92713343 5.11185891 0.00018073 0.00560977 0.00000487
C 13.68797533 8.43441297 0.88695376 0.00064332 -0.00335278 -0.00038241
C 20.21684683 6.02369340 0.87004466 0.00563714 -0.00227430 0.00848739
C 22.92214345 1.03692223 5.18484076 -0.00653448 0.00147224 0.00891429
C 17.58515548 3.88188143 4.49844968 -0.00412622 0.00697061 -0.00241577
C 25.73229416 8.49738581 1.77056454 -0.00425689 0.00212584 0.01169895
C 19.04542504 6.07406691 1.63867239 0.00201114 0.00146848 0.00769441
C 10.92644357 1.41318429 4.32059329 0.00661389 -0.00344455 0.00287218
C 18.51135392 2.98249549 4.90201101 0.00132299 -0.00043662 -0.00092637
C 24.75137281 7.62866571 1.32256556 0.00199408 -0.00329784 0.00433674
C 18.04629269 6.90003225 1.20541608 0.00582533 0.00258097 -0.00667719
C 11.85174146 2.36016813 4.79668168 -0.00218646 0.00483602 0.00034372
C 18.33185277 2.17258022 6.02900238 0.00781426 0.00143045 -0.00526969
C 24.98126660 6.80877295 0.16331558 0.00530914 0.00087073 0.00243316
C 18.18400490 7.77132013 0.10828239 0.00567893 -0.00028746 -0.00038033
C 11.67083479 3.10406128 5.94542072 0.00060877 0.00182390 -0.00204018
C 20.26351724 2.15679037 0.43796116 0.00703864 -0.00254336 -0.00369674
C 22.95800081 7.04394822 5.53642311 -0.00040243 0.00141455 0.00498309
C 16.51063667 7.68774244 5.38379330 -0.00181301 -0.01037739 0.00202756
C 13.79178999 2.78539596 0.86176603 -0.00033359 -0.00241344 -0.00710309
C 19.23069139 2.97824293 0.12159673 -0.00258679 -0.00079889 -0.00170306
C 10.86617152 7.85976945 5.97835444 0.00331941 -0.00453135 -0.00843034
C 17.51134927 6.90804314 5.91759417 -0.00483508 -0.00108276 0.00839846
C 25.83154011 1.87502601 0.21161703 -0.00011966 -0.00000351 0.00107671
C 15.21177034 5.33757329 3.53758260 -0.00153250 -0.00097650 -0.00162813
C 14.84050797 0.32153962 2.68317986 0.00744436 -0.00002224 0.01005305
C 21.44499920 4.55631923 2.39037424 0.00102728 -0.00362490 0.01064441
C 21.72041309 9.38407044 3.57265497 -0.00021849 0.00103005 -0.00460577
C 13.99519765 6.10534328 3.27273723 0.00199465 0.00367694 0.00626918
C 15.87354938 1.39349846 3.00438985 -0.00334791 0.00550165 -0.01081647