2880
Time=61000.00000005 pbc="T T T" Lattice="39.43196455 0.00000000 0.00000000 0.00000000 29.01648832 0.00000000 -12.01685299 0.00000000 24.35650116" energy=-18398.98032981 virial="29.36999925 -22.90570885 -84.35854332 -22.90570885 -11.72692295 -2.77504896 -84.35854332 -2.77504896 11.82261801" stress="0.00362713 -0.00084934 -0.00299808 -0.00084934 0.00204402 -0.00011433 -0.00299808 -0.00011433 0.00298296" Properties=species:S:1:pos:R:3:vel:R:3
C 3.22353163 3.62156888 5.01427687 -0.00996862 -0.00418657 -0.00010375
C 0.21713541 8.39960519 0.73551271 0.00142025 -0.00671758 0.00582110
C 6.68021797 5.99918090 0.85938234 -0.00253931 0.00658995 0.00321263
C 9.67787291 1.10604528 5.01124149 0.00167391 0.00130022 0.00138741
C 4.33571606 3.41669669 4.26857743 -0.00357667 0.00887943 -0.00328233
C 12.40615833 8.56136605 1.55275898 -0.00223596 0.00125747 -0.00082823
C 5.38059010 6.12940491 1.46395192 -0.00691133 0.00470931 -0.01323544
C 37.21267149 1.02511089 4.48219919 -0.00628215 -0.00018244 0.00581338
C 5.35300717 2.53932611 4.67151423 0.00007108 0.00026512 0.00320142
C 11.49670754 7.62818401 1.17054363 0.00207121 -0.00747854 -0.00418864
C 4.46782497 7.04839226 1.03495949 0.00604025 -0.00375819 0.00254238
C -1.20551591 1.87075823 4.88151713 0.00516383 -0.00648313 -0.00533008
C 5.18251225 1.72986946 5.79270568 -0.00070071 0.00389081 -0.00139383
C 11.65896513 6.77571977 0.08207793 -0.00292899 -0.00451967 -0.00631786
C -7.40938477 7.69775983 24.15766862 0.00266771 -0.00295049 0.00947254
C -1.33980178 2.76695778 6.01533813 -0.00448485 -0.00931811 0.00124658
C 7.10102635 1.91552933 0.72124147 0.00093623 -0.00102533 -0.00081716
C 10.02285033 7.01526728 5.45811575 0.00002503 0.00624475 0.00246574
C 3.20137779 7.66043878 5.34714203 0.00509577 0.00234065 0.00468816
C 0.10217074 2.92931009 0.52379716 0.00121655 -0.00222375 0.00411945
C 5.96126566 2.54652490 0.23618167 0.00384139 -0.00204684 0.01236651
C -2.43688768 7.54269239 5.95021380 0.00325764 -0.00435402 -0.00793020
C 4.23002230 6.82219327 5.79594153 -0.00200502 0.00167352 0.00164870
C 12.48949968 2.05757164 0.21568438 -0.00062471 -0.00040619 0.00090514
C 1.94070840 4.95850755 3.54556427 -0.00459036 -0.00604779 0.00303153
C 1.62339028 0.29540460 2.44189519 -0.00555526 -0.00042744 -0.00356559
C 7.96033391 4.69884275 2.56501955 0.00148129 0.00763590 0.00160205
C 8.80741691 9.26474788 3.28353878 0.00228042 -0.00091761 -0.00062719
C 0.69292031 5.80987911 3.36111893 -0.00108241 -0.00038870 -0.00034671
C 2.76893029 1.28678227 2.41385532 0.00273444 0.00113292 0.00488519
C 9.14576139 3.83870086 2.78111400 0.00263185 0.00255798 0.00866094
C 7.51895075 8.53360741 3.10307090 -0.00290563 0.00199906 -0.00531843
C 0.30601181 3.48190671 11.12630970 -0.00598434 0.00305456 0.00253368
C -2.60697837 8.39574122 7.06809115 -0.00339109 -0.00862634 0.00052276
C 4.06303494 6.05105567 6.93785572 0.00151300 -0.00070106 -0.00124582
C 6.76770188 1.06810829 11.11964545 0.00532800 0.00283079 -0.00299496
C 1.46416784 3.41986522 10.41663258 -0.00466095 -0.00769147 -0.00437787
C 9.50221634 8.58243129 7.59721841 0.00046752 0.00280308 -0.00096477
C 2.85833549 6.15685349 7.69526867 -0.00370115 0.00489683 -0.00033540
C -5.13281489 1.00852985 10.69140773 -0.00096826 -0.00485310 0.00120571
C 2.48861087 2.61316787 10.93301955 -0.00247287 0.00336901 0.00652827
C 8.51166216 7.63426406 7.17260304 -0.00149037 0.00461944 0.00859362
C 1.88737856 7.06694866 7.26300913 -0.00724002 0.00962730 -0.00394253
C -4.16150896 1.90691287 10.99831027 0.00054028 0.00921354 0.00732270
C 2.44773408 1.98762590 12.13766883 0.00453760 0.00891705 -0.00091794
C 8.72921827 6.87171643 5.99397855 0.01094717 -0.00530883 -0.00722000
C 2.10647080 7.82091628 6.10132425 0.00458547 0.00021488 0.00051737
C -4.32930871 2.72293632 12.10623365 0.00065408 0.01106807 0.00365564
C 4.07919115 2.00857133 6.65409982 -0.00030507 0.00615384 0.00405674
C 6.58043110 6.86074420 11.36297658 0.00107206 -0.00333354 0.00373633
C 0.09016854 7.60666730 11.64899460 -0.00145611 0.00069414 0.00382676
C -2.51330347 2.69334210 6.72865374 0.00353165 0.00046173 0.00213610
C 3.12189480 2.93491414 6.26934136 -0.00646409 -0.00030574 -0.00254843
C -5.33516432 7.66095153 12.26099962 0.00467461 0.00683297 -0.00111446
C 1.05148677 6.67698546 12.03140535 -0.00006006 -0.00253911 0.00111122
C 9.56772981 1.91648045 6.25076756 -0.00134257 0.00805322 -0.00018872
C -1.03984367 5.03544967 9.54818944 -0.00344022 0.00142853 0.00263087
C -1.65641504 0.23005494 8.61181012 -0.00058838 -0.00821827 0.00516470
C 5.17555393 4.39918696 8.41200576 -0.00183268 -0.00055534 0.00216137
C 5.57375058 9.31405511 9.48972951 0.00284576 0.00368320 0.00474043
C -2.32036577 5.78668767 9.56036394 0.00255805 -0.00175005 0.00234946
C -0.47593690 1.18642965 8.87386784 -0.00000500 -0.00034817 0.00404108
C 6.33769651 3.51045594 8.62107833 0.00173570 0.00199772 -0.00018816
C 4.23375219 8.55897606 9.32881780 0.00475619 0.00020673 -0.00901615
C -2.92867537 3.64097076 17.30825995 0.00584985 -0.00047555 0.00847469
C -5.45241189 8.53203828 13.28469541 -0.00126985 0.00748308 0.00563535
C 0.81689078 5.79676542 13.11227876 0.00386179 0.00044111 0.00373796
C 3.79176723 0.98090389 17.25315449 -0.00074764 0.00522631 -0.00277889
C -1.73905118 3.55910081 16.61258671 0.00086712 0.00255993 0.00456964
C 6.22777884 8.29019327 13.70758553 0.00224983 -0.00418126 -0.00470620
C -0.37347260 5.80726266 13.77040993 -0.00306208 -0.00309877 0.00474351
C -8.26723543 1.33716839 16.81241138 0.00094546 0.00053960 0.00087196
C -0.78350493 2.70026935 17.07832163 0.00466599 0.01124960 0.00204363
C 5.23660278 7.49861728 13.25187605 -0.00087216 -0.00334950 -0.00396976
C -1.35422990 6.66632765 13.37161042 -0.00458732 0.00715247 -0.00182180
C -7.24070036 2.20742470 17.28069459 -0.00709171 -0.00991153 0.00862095
C -0.99064908 1.82884780 18.23403323 -0.00410282 0.00030607 0.00553590
C 5.34435628 6.79134269 12.02455069 0.00335805 0.00246688 -0.00223801
C -1.14295632 7.60735418 12.29733134 0.00426138 0.00347062 0.00070989
C -7.34780314 2.96446705 18.42717116 0.01249580 0.00481035 0.00250967
C 1.13651730 1.84726546 12.69046070 0.00378502 0.00034818 -0.00365191
C 3.95729378 6.77102940 17.85105325 0.00384708 0.00258574 0.00122698
C -2.86098342 7.76405520 17.62692169 -0.00084001 -0.00481519 0.00496556
C -5.55277997 2.60874691 12.82553082 -0.00018289 0.00351134 0.00265539
C 0.10413847 2.61379709 12.23444903 -0.00466275 -0.00170462 -0.00505699
C -8.16101702 7.65985790 18.06038300 0.00052041 0.00148412 -0.00135679
C -1.97519037 6.82632545 17.99791273 0.00796791 0.00535109 0.00480922
C 6.54853380 1.92562409 12.18470866 -0.00296089 0.00413534 0.00973430
C -4.13731981 4.90083395 15.69845395 -0.00176780 -0.00115639 -0.00324003
C -4.14113754 0.28034667 14.88700078 0.00382563 0.00188405 0.00088877
C 2.19056623 4.65926654 14.75193572 -0.00072045 0.00789215 -0.00316392
C 2.58922698 9.42736372 15.57605601 -0.00121786 -0.00280276 -0.00085510
C -5.44089547 5.50383805 15.30709011 -0.00077365 -0.00212069 0.00631086
C -2.81895355 1.01355147 15.06982454 0.00892447 -0.00115125 -0.00417455
C 3.53457938 3.92632722 14.95737162 -0.00084355 0.00929181 -0.00431235
C 1.17268932 8.78684544 15.49927863 0.00146388 -0.00222617 -0.00410063
C -5.98497005 3.45922625 23.55473524 0.00721826 -0.00366964 0.00235836
C -8.34240141 8.61634861 19.16679429 -0.00293222 -0.00085286 0.00000178
C -2.18793356 5.99762141 19.11857427 -0.00030566 0.00504419 -0.00461051
C 0.48208184 1.16889040 23.49539816 -0.00024439 -0.00704133 0.00318153
C -4.74413179 3.56526632 22.94092107 0.00237964 -0.00074188 0.00515086
C 3.27821399 8.61616877 19.83693515 -0.00759114 0.00079323 -0.00616718
C -3.39695973 6.12495823 19.84930192 -0.00464091 -0.00181367 0.00339088
C 28.01849999 1.06111211 22.89223781 0.00086169 0.00873016 0.00424614
C -3.58654750 2.85521573 23.32833946 -0.00283625 -0.01197036 0.00610101
C 2.38833272 7.65464554 19.45199869 0.00196943 0.00188651 -0.00527354
C -4.29325329 7.13065429 19.55060113 0.00047638 -0.00451793 -0.00606218
C -10.41211754 1.94666844 23.28532494 0.00595145 0.00071598 0.00142007
C 8.30487266 1.95914188 0.06283969 0.00531311 0.00028203 -0.00124678
C 2.70159260 6.70407290 18.51169028 -0.00583421 -0.00406208 0.00464060
C -4.14096744 7.89331931 18.32310138 0.00143779 0.00259017 0.00435982
C -10.62193904 2.90513783 24.29652470 -0.00084375 0.00907662 0.00398772
C -2.30081582 1.90026043 18.86143546 0.00176565 -0.00375809 0.00092752
C 0.78579762 6.95107943 23.70087949 0.00467507 0.00087817 -0.00114100
C -6.08313722 7.46936090 23.53384915 -0.01122290 -0.00676447 0.00014113
C -8.63603277 2.83479755 19.12694565 -0.00092234 0.00132939 0.00076417
C -3.15450306 2.87525785 18.45898102 0.00282630 0.01111134 -0.00359922
C -11.68702836 7.66359978 23.90144147 0.00136999 0.00587785 -0.00909572
C -5.11241313 6.72276678 24.04984509 0.00287203 0.00304844 0.00422048
C 3.62023241 1.83988285 18.38622834 0.00137209 -0.00577334 0.00215409
C -7.15026382 4.85649995 21.91517461 -0.00600680 0.00185352 0.00232250
C -7.30313131 0.08633609 21.00409766 -0.00547765 0.00726478 -0.00617508
C -0.75108288 4.66974791 20.62089489 -0.00004943 0.00311640 -0.00140218
C -0.55014457 9.31296354 21.61087574 0.00016313 -0.00138208 -0.00343277
C -8.43009482 5.57434055 21.64617143 -0.00333263 -0.00626852 -0.00751991
C -6.08844662 0.95744042 21.17468980 -0.00309576 -0.00345091 0.00411856
C 0.56402364 3.92449969 20.64741816 -0.00205203 0.00678260 0.00199865
C -1.82096665 8.48634384 21.65041856 -0.00030107 0.00870628 -0.00652054
C 3.41521306 13.33572266 4.99811388 -0.00541723 0.00734489 -0.00563278
C 0.44904494 18.30648004 1.05141549 0.00280623 -0.00179868 -0.00373581
C 7.03685145 15.58752513 0.91206561 0.00001142 -0.00499850 0.00182893
C 9.86369866 10.79891892 4.96625980 0.00380937 -0.00141638 0.00263419
C 4.55527350 13.14773600 4.18306388 -0.00154950 -0.00895350 0.00238714
C 12.62181922 18.21717398 1.81785103 -0.00222130 -0.00463716 -0.00326452
C 5.76889656 15.65695424 1.52908440 -0.00373975 0.00156132 -0.00075633
C -2.00965888 10.59999658 4.45001525 0.00322218 -0.00311608 0.00214581
C 5.51822966 12.37545470 4.75143309 0.00403732 -0.01078688 -0.00408129
C 11.53605906 17.42017615 1.41211561 -0.00465816 0.00073348 0.00960891
C 4.78894934 16.47401115 1.10237703 -0.00417217 -0.00538987 -0.00223282
C -1.01517955 11.46235782 4.75501181 -0.00035618 0.00076381 -0.00177435
C 5.28438895 11.59755364 5.92943649 -0.00045053 -0.00339060 0.00194461
C 11.57927143 16.72276668 0.17287450 0.00025230 -0.00046612 0.00219477
C 5.08542274 17.39749246 0.04603386 -0.00004813 -0.00235747 0.00135671
C -1.06195763 12.37625986 5.87075867 0.00205005 -0.00083125 -0.00030802
C 7.06207895 11.65736915 0.36572122 0.00486690 -0.00189571 -0.00106842
C 9.87737495 16.28029721 5.53437975 0.00366098 0.00260511 -0.00074434
C 2.92524409 17.48258907 5.23904490 -0.00258587 0.00316926 -0.00055446
C 0.39197384 12.44303485 0.38985736 -0.00131556 -0.00066676 -0.00298464
C -6.00555879 12.39707590 24.30429918 -0.01215976 0.00149568 -0.00547999
C -2.33779124 17.31578918 6.04305336 -0.00162122 -0.00308865 -0.00379422
C 3.96674933 16.71962916 5.65232147 0.00337637 -0.00384936 -0.00009176
C 0.39029555 11.82809691 24.20448803 0.00141638 -0.00882404 0.00632974
C 1.94686938 14.47976571 3.39747719 0.00423831 0.00239240 0.00605810
C 1.45523568 9.66915764 2.35747420 -0.00569491 0.00354475 0.00140222
C 8.25970150 14.08066163 2.40274130 -0.00532223 0.00023910 -0.00091695
C 8.65703007 18.89184080 3.46708808 -0.00002682 0.00063920 -0.01084109
C 0.65588176 15.26102464 3.34025743 -0.00080363 -0.00153879 0.00402420
C 2.32080389 10.84005422 2.63332404 0.00290612 0.00206143 -0.00054119
C 9.54683658 13.29338629 2.63945000 0.00159047 -0.00094072 -0.00024355
C 7.43665432 17.99418002 3.34887016 -0.00763971 0.00394811 -0.00012714
C 0.32356707 13.49616055 11.05065897 -0.00224116 -0.00093879 -0.00661503
C -2.63716347 18.24775363 6.99409588 0.00072403 0.00620845 0.00403151
C 3.86465910 15.90883822 6.78410672 -0.00599346 0.00414415 -0.00327150
C 6.70584506 10.92682846 11.02690607 -0.00543734 -0.00055236 -0.00172925
C 1.52894741 13.45765940 10.34133764 0.00158942 0.00207628 0.00936486
C 9.40150546 17.97818506 7.62035574 -0.00150393 -0.00228571 -0.00251233
C 2.73454224 15.95077606 7.63213239 0.00817098 -0.00006898 0.00480604
C -5.22869532 10.85775184 10.61108318 0.01014363 0.00028784 -0.00205751
C 2.47916021 12.48605259 10.73132340 0.00587049 -0.00100873 -0.00182907
C 8.35896242 17.14453222 7.16542955 0.00433368 -0.00249321 -0.00212373
C 1.74965694 16.82125723 7.25314132 0.00189487 0.00093608 0.00080826
C -4.14029134 11.58807214 11.08787512 0.00596707 -0.00611392 -0.00323353
C 2.34236148 11.75454061 11.89364286 -0.00801338 0.00288620 0.00652089
C 8.59887367 16.26604697 6.11209954 0.00388559 -0.00270761 -0.00225252
C 1.77422083 17.63052635 6.05111593 0.00520179 0.00435283 0.00191213
C -4.38604426 12.46713286 12.17279890 0.00244121 -0.00559858 -0.00049570
C 4.13125706 11.87120149 6.72014649 0.00437170 -0.01191736 -0.00069468
C 6.66791314 16.80133618 11.43789520 0.00889304 0.00078711 -0.00178995
C 0.22606755 17.57823571 11.68668107 -0.00293825 0.00324543 -0.00366947
C -2.31689421 12.41741285 6.52582447 0.00291342 -0.00425658 -0.00485774
C 3.22689471 12.73580658 6.19493156 -0.00223234 -0.00105954 -0.00593020
C -5.29648367 17.40926829 12.01395608 0.00142596 -0.00422245 0.00203571
C 1.15587208 16.64216745 12.03426259 0.00067755 -0.00128740 0.00234162
C 9.61186216 11.66559101 6.06635760 0.00803814 -0.00397919 -0.00672924
C -1.07020630 14.81275044 9.44036088 0.00431917 0.00312653 -0.00515658
C -1.45764160 9.98787711 8.50012664 -0.00705777 -0.00149668 -0.00111270
C 5.20738953 14.44779201 8.26431895 -0.00232317 0.00515497 0.00347444
C 5.49085283 19.05645856 9.61659001 -0.00818554 -0.00014682 0.00349806
C -2.33119787 15.59001726 9.31359201 -0.00350072 0.00126680 -0.00829361
C -0.40546987 11.00505779 8.55498105 -0.00725859 -0.00174732 0.00132594
C 6.47771763 13.66054832 8.38572648 -0.00262870 -0.00187724 0.00183255
C 4.28733709 18.16420927 9.31256211 -0.00907931 0.00790961 0.00272858
C -2.72052322 13.55529309 17.34327425 -0.00208145 0.00178669 -0.00184236
C -5.53226818 18.19711729 13.16403328 -0.00596381 0.00070791 -0.00559918
C 0.93641385 15.83528156 13.17882849 0.00826882 0.00525812 -0.00589907
C 3.79714163 10.76234015 17.17318085 0.00321123 -0.00745196 0.00182701
C -1.50841956 13.44590348 16.64333267 0.00841791 -0.00376061 0.00056848
C 6.22071000 18.21012125 13.75792316 -0.00081055 -0.00099054 0.00507818
C -0.30079323 15.91261063 13.92615391 0.00392027 0.00166313 -0.00188448
C -7.76505356 10.95743139 16.70600663 0.00659711 -0.00280596 0.00416970
C -0.52623649 12.52774599 16.99598480 0.00202601 0.00573488 -0.00089812
C 5.28549648 17.37689345 13.23849648 -0.00053404 -0.00273658 -0.00365909
C -1.24156992 16.83350317 13.53969991 0.00390504 -0.00706051 -0.00016203
C -6.72348724 11.71445579 17.17970139 0.00312535 0.00103994 0.00416131
C -0.68642872 11.65668637 18.05004737 0.00553612 -0.00008218 -0.00645025
C 5.47339671 16.57810867 12.07862663 -0.00650797 -0.00038563 -0.00724740
C -1.06538029 17.64947775 12.38782740 -0.00192806 0.00384860 0.00015637
C -6.95814712 12.52469174 18.35299541 -0.00308612 0.00101017 0.00238349
C 1.17811135 11.95792549 12.64105777 0.00970178 -0.00067560 0.00245262
C 3.95064738 16.55804283 17.84757071 -0.00142195 -0.00303293 -0.00670231
C -2.71935475 17.34918564 17.73141068 -0.00435244 0.00200749 -0.00307803
C -5.62077171 12.40392064 12.84052517 -0.00436183 -0.00086237 0.00153812
C 0.14600501 12.71765580 12.12402458 0.00036804 0.00463151 -0.00263990
C -8.50827338 17.53843293 18.22543968 0.00355746 -0.00894235 -0.00572656
C -1.74566250 16.50111166 18.18224220 -0.00243545 -0.00542351 -0.00426728
C 6.45040288 11.80677454 12.10423281 -0.00839413 0.00024334 0.00044857
C -3.92265734 14.82029616 15.62975360 0.00304415 -0.00237612 0.00688819
C -4.25641890 10.00969225 14.71238241 -0.00360824 0.00054460 -0.00367462
C 2.23230043 14.34416168 14.61637221 -0.01081057 -0.00201861 0.00452997
C 2.86024945 18.99711390 15.66048140 -0.00802768 -0.00542294 0.00310096
C -5.17791226 15.53012562 15.31685720 0.00091670 0.00111388 0.00096319
C -2.97531035 10.83503753 14.90479419 -0.00434511 -0.00430230 -0.00006453
C 3.37279708 13.31458612 14.64031023 -0.00372167 -0.00440603 -0.00247767
C 1.83620118 17.87310858 15.73718415 0.00285404 0.00229012 0.00045261
C -5.85555588 13.37101744 23.35528125 0.00151738 -0.00035766 -0.00135910
C -8.72587818 18.35391209 19.28203326 0.00104240 0.00335325 -0.00571172
C -1.89740697 15.69058715 19.30519876 -0.00166463 0.01295318 0.00392948
C 0.60938501 10.87351742 23.14640270 0.00506199 -0.00225804 0.00562592
C -4.63437061 13.48107142 22.67882682 0.00418136 -0.00055402 -0.00260006
C 3.52095946 18.14645218 20.05100833 -0.00485776 0.00478231 0.00147296
C -3.09824983 15.72956102 19.97599420 0.00005897 -0.00046900 0.00427682
C 28.04266030 10.80120371 22.46723418 -0.00977492 -0.00337708 -0.00047155
C -3.60232634 12.64455617 23.01029261 0.00331198 -0.00740872 -0.00216626
C 2.60696184 17.19505903 19.77187214 -0.00235461 -0.00051899 -0.00064762
C -4.10988937 16.57944757 19.61775282 0.00733814 0.00136233 -0.00737688
C -10.37455630 11.71179720 22.77499519 0.00998958 0.00338822 -0.00870517
C -3.72955318 11.71413161 24.03356029 -0.00855700 -0.00255372 0.00082503
C 2.77118959 16.34688337 18.58760864 0.00197929 0.00399293 0.00556936
C -3.90257558 17.38833781 18.45757739 -0.00188637 -0.00177730 0.00225392
C -10.47643933 12.39145140 23.95980389 -0.00475060 0.00093821 -0.00565565
C -1.88615507 11.73153179 18.71319790 0.00432066 0.01187289 0.00087529
C 0.85906355 16.72193007 23.91613687 0.00171171 -0.00614618 0.00026738
C -5.68096157 17.42822161 23.82601776 0.00727668 -0.00192404 -0.00312957
C -8.18381671 12.59608988 18.98052341 -0.00251263 -0.00085794 0.00125416
C -2.83928664 12.68765819 18.42873096 -0.00578483 -0.00204694 0.00370475
C 0.77193805 17.34895939 0.09506721 -0.00111115 -0.00067786 0.00475221
C -4.73983368 16.47055747 24.23694266 -0.00460116 -0.00043560 0.00452420
C 3.47045374 11.63094512 18.20821854 0.00814469 0.00243246 -0.00407856
C -7.11186290 14.89572493 22.02862057 0.00129142 -0.00200173 -0.00458225
C -7.28814682 10.12122363 20.74370711 -0.00481392 -0.00278123 -0.00263349
C -0.49101394 14.42805633 20.79425518 0.00235420 0.00720383 -0.00195178
C -0.30556619 19.07433987 21.85008134 -0.00655167 0.00314257 0.00093463
C -8.41454063 15.68387886 21.94077687 0.00184868 0.00027855 0.00210921
C -6.01859793 10.87310365 21.00681087 -0.00832738 0.00096360 -0.00069141
C 0.53597833 13.39913569 21.04419520 0.00333615 -0.00533385 0.00370942
C -1.62732094 18.43808468 21.54198318 -0.00378877 -0.00339635 -0.01070053
C 3.39984417 22.92332865 5.15809682 -0.00211834 -0.00103751 0.00159920
C 0.44815219 27.65059638 1.16106101 -0.00165197 -0.00111300 0.00840299
C 7.01333667 25.14390712 1.21614123 0.00056115 0.00361248 0.00201401
C 9.80158089 20.27729794 5.13501015 0.00067637 0.00171547 -0.00023631
C 4.62369379 22.95465607 4.55751748 0.00526469 0.00513160 0.00767318
C 12.32907245 27.82328429 1.58044412 -0.00920108 0.00351349 -0.00254462
C 5.76464794 25.17466782 1.81525414 -0.00084042 0.00163365 0.00230575
C -2.13761530 20.50244339 4.45726927 -0.00468555 -0.00443614 -0.00811912
C 5.65343445 22.14429857 5.03030970 -0.00061173 -0.00687003 0.00407980
C 11.39624349 26.85910732 1.23610479 0.01006919 0.00500392 0.00362229
C 4.86664752 26.16500032 1.43329061 0.00148532 -0.01220984 -0.00382126
C -1.23057902 21.43862727 4.96739534 -0.00664929 0.00022722 0.00248945
C 5.37412672 21.25462146 6.04006019 0.00290798 -0.00228018 0.00554685
C 11.59533587 25.97853157 0.17381680 -0.00142627 0.00412010 0.00093129
C 5.05832187 26.95164723 0.32849377 -0.00326971 0.00184075 -0.00422996
C -1.51774782 22.22186883 6.05682024 -0.00739162 -0.00086304 0.00587873
C 6.90534808 21.42358530 0.66909355 -0.00290777 -0.00497089 0.00534835
C 9.53530771 25.90783240 5.57672811 -0.00592224 -0.00053247 -0.00459589
C 3.10173503 27.00408593 5.58077452 -0.00138081 0.00217994 -0.00952477
C 0.37244893 22.31060267 0.50723623 -0.00642394 0.00193520 -0.00089246
C 6.01331321 22.38677933 0.27526142 -0.00282106 0.00489693 0.00806924
C -2.65731051 27.09381001 5.78831882 0.00153480 -0.00308537 -0.00141074
C 4.05603795 26.05346012 5.93063724 -0.00355297 -0.00242838 -0.00383484
C 12.82850278 21.13175156 0.26373860 0.00086725 -0.00268362 -0.00041833
C 2.17292425 24.43135041 3.69079871 0.00295252 0.00256972 -0.00859701
C 1.39853130 19.86709514 2.54118908 -0.00127448 0.00666563 -0.00385629
C 8.22974674 23.64647856 2.69613135 -0.00167355 -0.00094704 0.00043977
C 8.37039229 28.68438149 3.54736061 -0.00155781 0.00411764 -0.00360808
C 1.03176173 25.29208856 3.47064540 -0.00601759 -0.00156784 0.00356975
C 2.35228415 20.89655266 3.01323287 -0.00088993 -0.00795454 -0.00436697
C 9.43910295 22.69099562 2.77753136 0.00383187 -0.00167677 -0.00024494
C 7.01658241 28.05777456 3.42906487 0.00685567 -0.00499186 0.01068432
C -0.01484717 23.04215293 11.18791831 0.00075637 0.00052092 0.00277867
C -2.73960104 27.84050887 6.99347469 0.00000467 0.00969825 0.00023378
C 3.89739386 25.28649008 7.11431790 0.00147762 0.00496907 -0.00477880
C 6.68373081 20.53279608 11.11596235 0.00340411 -0.00542499 0.00912683
C 1.18968534 22.99296033 10.48676420 0.00088739 0.00516188 0.00454087
C 9.18797151 27.56452668 7.72428942 0.00780966 -0.00532599 0.00709968
C 2.67140621 25.41509740 7.80690736 0.00168548 0.00072426 -0.00454546
C 34.19173274 20.56745363 10.60241015 -0.00570131 -0.00166229 -0.00409653
C 2.24381673 22.17325819 10.86685868 0.00218085 0.00366439 0.00860228
C 8.22953980 26.57436696 7.44176034 -0.00656881 -0.00594522 0.00362844
C 1.69347614 26.33601497 7.42454843 -0.00214959 -0.00055380 0.00549603
C -4.26493528 21.37659851 11.05425608 0.00125430 0.00286945 -0.00006877
C 2.21752824 21.48044826 12.09640279 0.00767239 -0.00364286 0.00032823
C 8.36859034 25.71693267 6.33359771 -0.00239538 -0.00460935 0.00590859
C 1.97364772 27.28929792 6.38551121 -0.00231086 -0.00511853 -0.00067772
C -4.47643171 22.21474794 12.14669551 0.00102198 0.00242652 0.00162141
C 4.10482759 21.30945052 6.71478800 -0.00275253 0.00252030 0.00905165
C 6.61616339 26.23383885 11.59170363 0.00209096 0.00253827 -0.00788350
C 0.12298895 26.96291051 11.61009903 0.00190848 -0.00699497 -0.00637297
C -2.81199503 22.20042193 6.59388518 -0.00740299 -0.00091567 0.00546333
C 3.09507652 22.11117147 6.24683669 -0.00059430 0.00161532 0.00327689
C -5.23331835 27.22040163 12.13356210 0.00004008 -0.00048480 -0.00000594
C 1.10528564 26.15471047 12.13248304 -0.00337805 -0.00492845 -0.00112587
C 9.61612622 21.13149754 6.25306514 -0.00315110 0.00386362 0.00750019
C -1.34157094 24.43788520 9.75507624 -0.00021611 -0.00085938 0.00217662
C -1.57592433 19.67194693 8.72919441 -0.00001335 0.00675546 0.00133703
C 5.01870043 23.83816140 8.65711163 -0.00107097 -0.00668253 0.00305827
C 5.43240850 28.82625542 9.53154016 0.00040748 -0.00005061 0.00438722
C -2.58364189 25.25365795 9.59359078 -0.00082310 0.00290131 0.00846139
C -0.60076902 20.78653163 8.93012767 -0.00214752 0.00048856 0.00076339
C 6.17105329 22.94438172 8.75519949 -0.00610229 -0.00142239 -0.00913745
C 4.17700533 28.15287204 9.46327676 0.00389133 -0.00583862 -0.00106543
C -2.84169063 22.99204207 17.22989916 0.00024977 -0.00132318 -0.00124998
C -5.44436357 28.02323075 13.28217463 -0.00093697 0.00862576 0.00016609
C 0.89014967 25.32930449 13.23666432 0.00255075 -0.00170241 0.00086591
C 3.86935319 20.52540981 17.20910811 0.00520391 -0.00145990 -0.00688489
C -1.60965467 22.98379690 16.61171604 0.00776914 0.00189876 -0.01099096
C 6.20936115 27.86433772 13.69207751 -0.00276146 0.00493918 -0.00393701
C -0.30384160 25.44997429 13.93548327 -0.00008740 -0.00170529 0.00072372
C 31.09664173 20.46683999 16.63763036 -0.00352482 -0.00341186 0.00315815
C -0.66838302 22.07167878 17.06970133 -0.00426565 0.00340938 0.00699277
C 5.13062958 27.14713591 13.23031863 -0.00366493 -0.00544785 -0.01237820
C -1.32409713 26.22812161 13.46867907 -0.00040723 -0.00112026 0.00296734
C -7.35241164 21.38124200 16.93684720 0.00216060 0.00835626 0.00266981
C -0.83038340 21.27393517 18.18622637 0.00388381 -0.00453412 0.00353486
C 5.29086646 26.22455803 12.21488901 0.00136331 0.00370920 0.00524377
C -1.13064775 27.05719396 12.32285461 0.00133397 -0.00037143 0.00267480
C -7.43007170 22.19626760 18.10246666 0.00210911 -0.00802491 -0.00061075
C 0.96894252 21.42575705 12.76397599 0.00038575 0.00271495 -0.01013751
C 3.87082131 26.26030127 17.60400171 -0.00234408 -0.00239522 -0.00484961
C -2.97935997 26.87248140 17.69194833 0.00056594 -0.00395471 -0.00273490
C -5.72426644 22.16863709 12.80015164 -0.00524908 0.00727245 -0.00774216
C -0.09420733 22.14300610 12.27939611 -0.00124592 -0.00457758 0.00203478
C -8.47756214 27.07018468 18.16517393 -0.00435374 0.00232795 -0.00622860
C -1.96673588 26.03676956 18.13967993 0.00837038 0.00512776 0.00019908
C 6.51177023 21.51365644 12.09019801 -0.00417678 -0.00370572 -0.00295528
C -4.13308073 24.39568995 15.78803937 0.00367372 -0.00225081 0.00280810
C -4.46371251 19.76270251 14.69659002 -0.00193182 0.00800533 -0.00022046
C 2.05808940 23.87689151 14.78762929 0.00567159 0.00606045 0.00240080
C 2.57914447 28.59723376 15.70483683 -0.00228119 -0.00382435 -0.00213675
C -5.42983139 25.19425448 15.56873463 -0.00379683 0.00057938 0.00163152
C -3.35411273 20.79020340 14.85826006 0.00457748 -0.00040407 -0.00764426
C 3.25317342 22.99028439 14.95464921 -0.00662274 0.00577816 0.00578262
C 1.49496967 27.64015653 15.54020628 0.00197745 -0.00156358 -0.00081675
C -5.75906299 23.11334581 23.46705991 -0.00567174 0.00087003 0.00364605
C -8.61767262 27.84323122 19.35533316 -0.00395743 0.00284628 0.00214099
C -2.16962242 25.24317422 19.27348113 0.00493335 0.00553695 0.00382814
C 0.95958284 20.34740615 23.47094504 -0.00127574 0.00371989 -0.00393200
C -4.54166577 23.01720736 22.78228651 0.00265426 -0.00494147 0.00040208
C 3.37093625 27.78467281 19.91320819 -0.00492190 -0.00118457 -0.00260913
C -3.45283637 25.31035503 19.89314697 -0.00044627 0.00091642 -0.00424860
C 28.14768631 20.66209553 22.69524275 0.00896158 -0.00130307 -0.00372302
C -3.59123235 22.10450316 23.17740188 0.00429374 0.00385243 -0.00243449
C 2.40251186 26.91952738 19.38822831 -0.00495353 0.00029791 -0.00864865
C -4.47240928 26.10907724 19.40763303 0.00424673 -0.00266541 -0.00913775
C -10.24958689 21.45355494 23.12151270 -0.00196035 -0.00100576 0.00553908
C -3.88721953 21.31796537 24.27099741 -0.00323591 -0.00180661 0.00563225
C 2.61859674 26.12908265 18.23678152 -0.00051521 0.00033161 0.00411743
C -4.24954298 26.99442349 18.29721389 -0.00251374 0.00479124 -0.00241960
C -10.36047653 22.31494039 24.22837831 -0.00184275 0.00334510 -0.01218349
C -2.08491169 21.19875877 18.78396813 -0.00472673 -0.00284929 -0.01327775
C 0.68746548 26.23487133 23.69612656 0.00271019 0.00046532 -0.00116426
C -5.67828175 26.96917890 24.10989785 0.01179312 -0.00066966 0.00278764
C -8.63650771 22.27670894 18.83345156 0.00410744 0.00450108 0.00077018
C -3.03516711 22.07402311 18.35450123 0.00623113 -0.00367728 -0.00654212
C -11.42578674 26.90160368 24.34794059 -0.00390402 0.00292717 -0.00330084
C 7.24781508 26.06126671 0.14682404 -0.00128494 0.00814432 -0.00309361
C 3.72274490 21.37538284 18.33177034 -0.00033327 0.00371622 0.00079293
C -6.98126923 24.30081881 21.83636893 -0.00152200 -0.00173411 0.00518687
C -7.43852654 19.77914487 20.78338983 -0.00080136 -0.00191678 0.00351365
C -0.95744268 23.82320090 20.86180967 0.00586534 0.00471291 0.00523173
C -0.63506771 28.65106324 21.96322364 0.00332062 0.00330354 -0.00740844
C -8.20549477 25.15453439 21.72537400 -0.00652957 -0.00292321 0.00299895
C -6.08314054 20.41244614 20.90104203 0.00722567 -0.00415680 -0.00339627
C 0.13877971 22.78137228 21.01145753 -0.00233286 0.00313683 -0.00643050
C -1.90567338 27.89010297 21.93597545 -0.00069213 -0.00104626 -0.00039128
C 16.15042792 3.95653262 4.98999954 -0.00720778 0.00262315 0.01183638
C 13.56364684 8.74973264 0.79966522 0.00659627 0.00128023 0.00389946
C 20.13711378 5.97690371 1.12465811 0.00370743 -0.00261026 -0.00342286
C 22.86705275 1.08774847 4.99081078 0.01157768 0.00043230 0.00036103
C 17.41439483 3.95985385 4.25923578 0.00663398 -0.00315161 0.00274810
C 25.56310020 8.18992727 1.67251669 0.00218198 0.00089158 0.00358793
C 18.92847965 6.14929339 1.76260141 -0.00245999 -0.00829888 0.00127048
C 10.82145890 1.27853146 4.24440820 -0.00363360 0.00050898 0.00061614
C 18.33907206 2.98395542 4.57545097 0.00586468 -0.00501256 0.00221369
C 24.53808727 7.42742845 1.07309665 -0.00654823 -0.00622094 0.00169040
C 17.98790393 7.08544471 1.33765555 0.00673706 0.00066218 0.00055348
C 11.84332635 2.14445293 4.65275359 -0.00295755 -0.00087865 0.00479714
C 18.19067769 2.19961403 5.78956660 -0.00313135 -0.00250401 0.00593465
C 12.74210205 6.61485717 24.32974731 0.00175595 -0.00588558 0.00083849
C 18.26308874 7.86886316 0.22293644 -0.00548106 0.00460066 0.00683623
C 11.74678060 2.87482667 5.85636867 -0.00445993 -0.00123092 -0.00443968
C 19.87409426 2.01054985 0.19354303 0.00009021 0.00219295 -0.01016743
C 23.28769426 6.70976195 5.70078116 0.00170932 -0.00493696 0.00633783
C 16.38906970 7.67164104 5.50484738 -0.00165697 -0.01266666 -0.00011693
C 13.59302573 2.83720099 0.57062598 -0.00310299 -0.00545511 -0.01150590
C 6.90175671 3.00325011 24.30139403 0.00632889 -0.00524023 -0.00261525
C 11.00546031 7.78620405 6.00525382 0.00397263 0.00346397 0.00151277
C 17.32544875 6.79915523 5.88859755 0.00322518 -0.00779397 0.00077702
C 25.59786309 1.95648494 0.17872918 -0.00568177 -0.00761166 0.00163866
C 14.83766328 5.24565471 3.40390193 -0.00213102 -0.00697785 0.00304938
C 14.81145375 0.19304187 2.57215124 -0.00159261 -0.00327631 -0.00034158
C 21.07059874 4.53630301 2.72814009 0.00309251 0.00382844 -0.00643719
C 21.61438447 9.32568815 3.59284003 -0.01012347 0.00059810 -0.00018030
C 13.66879919 6.17988079 3.19964510 0.00472280 -0.00063317 -0.00060777
C 16.09965477 0.85684789 2.95018650 -0.00006479 -0.00284024 0.00177790