2880
Time=86000.00000007 pbc="T T T" Lattice="39.61275503 0.00000000 0.00000000 0.00000000 29.13837608 0.00000000 -12.01233196 0.00000000 24.33817760" energy=-18395.81638658 virial="-63.01984943 -31.31601464 -56.65971194 -31.31601464 -59.27719986 31.65868301 -56.65971194 31.65868301 -28.52803846" stress="0.00020872 -0.00116793 -0.00206185 -0.00116793 0.00029386 0.00113993 -0.00206185 0.00113993 0.00156490" Properties=species:S:1:pos:R:3:vel:R:3
C 3.13467187 3.85984456 5.03198491 -0.00325601 0.00785365 -0.00071809
C 0.32327915 8.62287553 0.94517132 -0.00156395 -0.00317799 0.00408857
C 6.97392332 5.80765379 0.82495945 0.00116247 -0.00463060 0.00261402
C 9.93814391 1.01919644 4.85439012 0.00397365 -0.00541584 0.00099395
C 4.37930260 3.79229223 4.38688569 -0.00152835 -0.00130856 0.00068767
C 12.52499113 8.29278669 1.69966989 0.00179989 0.00085779 0.00249943
C 5.85037439 6.01721802 1.58899544 -0.00470250 0.00323729 0.00542384
C 37.34496910 1.22234931 4.46086362 -0.00124390 -0.00035444 -0.00385092
C 5.35477550 2.82457286 4.72005136 -0.00531238 -0.00111610 0.00126538
C 11.50382600 7.42563379 1.24781039 -0.00078539 -0.00125226 0.00320394
C 4.81544646 6.80889944 1.11886761 -0.00098382 -0.00073657 0.00129877
C -1.36408666 2.15437626 4.89310692 -0.00556487 -0.00272641 -0.00251096
C 5.18033936 2.01399003 5.85513895 0.00097259 0.00300499 0.00630039
C 11.73752561 6.69089677 0.06717577 -0.00042872 0.00317799 -0.00568852
C -7.08318201 7.46288296 24.22412950 -0.00359771 0.00427424 -0.00011538
C -1.60372897 2.93840676 6.04869026 -0.00099472 -0.00613053 -0.00279275
C 7.05382940 1.96788506 0.33135265 0.00865009 -0.00320343 0.00344511
C 9.80995037 6.68965041 5.52683391 0.00450690 -0.00378072 0.00402448
C 3.40763172 7.66213239 5.57659928 0.00673726 -0.00836722 -0.00719233
C 0.40941629 2.77986733 0.46851788 -0.00282824 -0.00223481 -0.00432510
C -6.02047622 2.70084390 24.21525868 0.00444073 0.00093254 0.00335807
C -2.53154665 7.85638007 6.03103841 0.00112086 -0.00349497 0.00235558
C 4.38616843 6.82646340 5.99732442 0.00462896 0.00379699 0.00332123
C 0.65353417 2.12946427 24.24037386 -0.00937875 -0.00211998 0.00801300
C 1.89505004 5.23603851 3.48632310 0.00561545 0.00339539 0.00739571
C 1.46893155 0.25893194 2.44397208 -0.00451659 0.00294920 0.00645527
C 8.31872768 4.49710036 2.35939866 -0.00039594 -0.00231571 -0.00323889
C 8.84270879 9.45889463 3.47399265 0.00299182 0.00104774 -0.00336950
C 0.66978917 6.14323409 3.60203045 0.00060774 0.00639148 -0.00920391
C 2.66141996 1.12133968 2.68668667 0.00083491 -0.00645226 0.00698010
C 9.57838319 3.66159749 2.60326425 -0.00634200 -0.00163527 0.00027058
C 7.73162851 8.53076141 3.06831192 0.00013544 0.00696234 -0.00477324
C -0.10605163 3.66563309 11.06607977 -0.00327010 -0.00551175 -0.00389203
C -2.68756658 8.70891794 7.11838589 0.00178933 -0.00472786 -0.00498339
C 4.19000979 5.92810900 7.10719223 -0.00943398 0.00354174 0.00587535
C 6.87413820 1.18064408 11.02580754 -0.00005191 -0.00419789 -0.00846723
C 1.03452466 3.62927676 10.29546203 0.00307257 0.00133140 0.00430480
C 9.40238616 8.23612331 7.75366473 -0.00073679 0.00705653 0.00073752
C 2.91108667 5.97658417 7.70129030 0.00296015 -0.00395854 -0.00377340
C 33.91609254 1.09854832 10.34229062 0.00406484 -0.00522757 0.00113047
C 2.16060856 2.88854742 10.51826405 -0.00454737 -0.00335578 0.00786640
C 8.51524712 7.27621713 7.48326106 -0.00249714 0.00474729 -0.00162457
C 1.94716782 6.90492682 7.30201009 -0.00395845 0.00016847 0.00071076
C -4.74586821 2.02969115 10.72814368 -0.00338475 0.00489665 0.00237667
C 2.14518655 2.05936507 11.71655261 0.00379254 -0.00340748 -0.00102386
C 8.68341849 6.51839358 6.25653856 0.00125261 -0.00016436 -0.00341774
C 2.15316524 7.74144129 6.18999490 -0.00586373 0.00169768 0.00026242
C -4.82353896 2.59882765 11.98482941 -0.00617098 -0.00134277 -0.00186373
C 3.92870095 2.12852903 6.57695754 -0.00246412 0.00665640 -0.00045687
C 6.51785988 7.04012548 11.51436886 0.00566526 0.00362267 -0.00421493
C 0.17618149 7.65923633 11.44486926 0.00324678 0.00631596 -0.00443238
C -2.86820427 2.77186033 6.68487535 0.00224037 -0.00469536 -0.00353981
C 2.98638951 3.00801942 6.15303699 0.00272369 0.00042120 -0.00545435
C -5.39712864 8.21309836 12.04917862 0.00394163 -0.00044174 -0.00282319
C 1.12915407 6.76640184 11.84315331 0.00380436 -0.00031818 0.00124803
C 9.77204525 1.68465368 6.07957989 -0.00971205 0.01011939 0.00110836
C -1.40592742 5.29997869 9.79806345 0.00172451 -0.01075130 0.00437150
C -1.53296308 0.29117180 8.50402659 -0.00516447 0.00521617 -0.00140422
C 5.19638316 4.47435690 8.73256853 0.00262009 -0.00310244 -0.00746526
C 5.35947042 9.62521572 9.59528371 -0.00022962 -0.00460811 -0.00564932
C -2.64129502 6.11325703 9.87469100 -0.00211052 0.00760329 -0.00702859
C -0.21193604 0.98826968 8.71585715 -0.00050631 0.00190514 0.00927380
C 6.33297139 3.59265969 9.10784053 -0.00057782 -0.00037200 0.00263793
C 3.97570200 9.22870119 9.28175318 0.00121319 0.00327096 -0.00023332
C -2.69717111 3.61277223 17.24637471 -0.00192556 0.00485675 0.00268101
C -5.68337406 8.84307429 13.32892862 -0.00821400 -0.00658398 0.00157562
C 0.85307831 5.83334093 12.83553151 0.01001594 0.00021831 -0.00450626
C 3.99654028 1.43274336 17.27186630 0.00480445 -0.00398395 -0.01363516
C -1.56006220 3.43549490 16.43471349 -0.00120432 -0.00265226 -0.00876795
C 6.25732948 8.40515447 13.97177768 -0.01053849 0.00039376 0.00192241
C -0.28819889 5.95478433 13.65074621 -0.00539808 -0.00357812 0.00758008
C -7.99068833 1.11266234 16.40454756 -0.00136405 0.01389240 0.00133264
C -0.62076807 2.51436570 16.78422970 -0.01076246 -0.00152874 -0.00111934
C 5.27227942 7.54232565 13.57075812 0.00228741 -0.00006203 0.00677831
C -1.26231059 6.85831276 13.32801750 0.00187284 -0.00335724 0.01065034
C -7.11404580 2.10665531 16.83846598 -0.00437526 0.00782369 -0.00150233
C -0.70136467 1.70267836 17.91629043 0.00313958 -0.00133610 -0.00122691
C 5.34815497 6.95291274 12.28787092 -0.00145809 0.00879424 0.00562181
C -1.06680657 7.72735836 12.15282256 -0.00237682 0.00788039 -0.00071704
C -7.38104689 2.89256429 18.00276374 0.00332239 0.00312423 -0.00590754
C 0.91679516 1.88678129 12.33275370 -0.00112820 -0.00007879 -0.00418830
C 4.21966939 6.94511486 17.74053279 -0.00429221 0.00038004 0.00360144
C -2.65513141 7.79309977 17.78667137 -0.00566658 -0.00344502 0.00178402
C -5.99355615 2.50616923 12.67577471 -0.00705646 0.00706594 -0.00215335
C -0.18739956 2.71694227 12.08333164 -0.00258269 0.00300673 0.00465127
C -8.43966830 7.71808146 18.10028804 0.01137149 0.00057206 0.00425357
C -1.70461184 6.89006330 18.16838929 0.00221163 0.00374444 -0.00590489
C 6.67452524 1.96606472 12.17575725 -0.00005592 -0.00373911 0.00249019
C -4.01477132 4.85791735 15.73036220 0.00103467 0.00238365 -0.00780453
C -4.72470235 0.32148970 14.52198438 -0.00793920 -0.00421038 0.00255120
C 2.25828962 4.71945766 14.49302838 0.00128459 0.00591946 0.00028284
C 2.62300120 9.19887578 15.89891869 0.00229489 0.00427733 -0.00056109
C -5.21218822 5.73937548 15.69446098 0.00110984 0.00578417 0.00223761
C -3.53189122 1.21692127 14.60963666 -0.00320474 -0.00531812 0.00261224
C 3.51613357 3.94545323 14.57066349 0.00551757 -0.00006980 0.00655393
C 1.42878571 8.28942388 15.60333534 0.00349990 -0.00164521 -0.00431456
C -5.82941671 3.56855388 23.13445280 -0.00139055 0.00091237 0.00753809
C -8.69266785 8.62344298 19.18529498 -0.00217585 -0.00514434 0.00160683
C -1.84871673 6.04291046 19.23918504 0.00202321 -0.00367412 0.00536779
C 0.94757112 1.24708936 23.18144752 -0.00298904 -0.00342127 0.00872144
C -4.61726515 3.58286408 22.42734258 -0.00268873 0.00084786 -0.00579782
C 3.56054707 8.54548192 19.99743182 0.00092629 -0.00042116 0.00314064
C -3.14277540 6.08384453 19.92262788 -0.00463927 -0.00011335 0.00416902
C -11.17403573 1.06445593 22.66378368 0.00419698 -0.00794581 0.00322958
C -3.66820264 2.65218068 22.77775831 -0.00030938 -0.00656914 -0.00007601
C 2.64199011 7.63545630 19.49355789 -0.00334827 -0.00414542 -0.00609001
C -4.11175163 6.98379819 19.50474452 0.00004315 0.00206336 -0.00394628
C -10.21152841 1.97269229 23.01619626 0.00517100 0.00374169 -0.00537117
C -3.79943778 1.88609690 23.93949777 0.00070209 -0.00388422 -0.00606894
C 2.95553247 6.88225270 18.37675646 0.00575248 -0.00509747 0.00020663
C -3.91799984 7.81679141 18.41867657 -0.00639783 -0.00022164 0.00022176
C -10.36562647 2.81662921 24.12025291 -0.00377853 -0.00165866 -0.00083404
C -1.85853700 1.88205700 18.67561385 0.00072383 0.01006520 -0.00381027
C 1.00021942 6.76745869 23.80145522 0.00130522 -0.00162147 -0.00029352
C -5.82902432 7.36742375 23.48332293 -0.00082863 -0.00401205 -0.00077506
C -8.58645971 2.72799151 18.67791401 0.00542747 0.00886976 -0.00602192
C -2.83258936 2.74299629 18.29336105 0.00083972 -0.00886664 -0.00257659
C -11.62604598 7.75093755 24.19335051 0.00060343 -0.00095370 -0.00013355
C -4.83030922 6.59175961 23.97639778 -0.00421717 0.00208478 -0.00127121
C 3.91277862 2.18603135 18.42215168 -0.00085027 -0.00533565 -0.00139576
C -7.07443483 5.06013477 21.71775659 0.00557638 0.00200338 -0.00155291
C -7.25755868 0.03570435 21.05384741 0.00385627 0.00051341 -0.00103346
C -0.68992600 4.59702960 20.84533482 -0.00514976 0.00008455 0.00239819
C -0.22190807 9.26297272 21.80922082 -0.00281094 -0.00045940 -0.00223399
C -8.38143504 5.80044163 21.67895950 0.00142926 -0.00348300 -0.00469484
C -6.25470958 1.22550974 20.97207188 -0.00109559 -0.00191060 -0.00027943
C 0.45321604 3.54924652 20.97500533 -0.00505300 -0.00178507 -0.00204633
C -1.24736948 8.23217702 21.60225916 0.00127301 -0.00354889 0.00096735
C 3.11670223 13.46262774 5.18309103 -0.00594835 0.00179641 0.00196329
C 0.38121040 18.18910300 1.18125607 -0.00492678 -0.00343130 -0.00175201
C 6.93395174 15.69320552 1.22237911 -0.00254868 -0.00712571 0.00456198
C 9.81621596 10.72692277 5.18911719 -0.00831130 -0.00025843 0.00498720
C 4.31126065 13.34828836 4.42080066 0.00479125 0.00110185 -0.00023563
C 12.37564155 18.42516348 1.68170792 0.00305960 -0.00012427 -0.00124955
C 5.69450849 15.89122191 1.87749434 0.00188577 0.00111717 0.00046702
C 37.22788545 11.13399544 4.47673473 0.00122554 0.00731093 -0.00333500
C 5.30504916 12.44393982 4.83845022 -0.00139364 -0.00580623 -0.00077870
C 11.36196596 17.46597585 1.36332561 -0.00626729 0.01077268 0.00041334
C 4.69299272 16.79600888 1.51495314 0.00566258 -0.00794668 -0.00119421
C -1.40271915 11.95206961 5.00762443 0.00380042 0.00507341 -0.00322768
C 5.00275687 11.56921846 6.00326498 0.00127523 -0.00401016 0.00087311
C 11.62001998 16.64336396 0.26866353 -0.00203022 -0.00477377 0.00237993
C 4.87871371 17.51304398 0.30861916 -0.00205264 0.00542900 -0.00518511
C -1.63130236 12.61677874 6.19173150 0.00018254 -0.00758904 0.00513617
C 7.09126429 11.56673404 0.46884495 0.00030363 -0.01018090 0.00053544
C 9.76171253 16.61281429 5.49470997 0.00302895 0.01318282 -0.01003990
C 3.12733187 17.30424656 5.70964536 0.00212243 0.00315406 -0.00036584
C 0.38019676 12.14497467 0.72689947 0.00576145 0.00199860 0.00681940
C 6.17037448 12.53909173 0.15745607 0.00880468 -0.00267694 -0.00157239
C -2.44217750 17.44115355 6.06587848 0.00449543 0.00405006 -0.00270124
C 4.11363227 16.46163264 6.10451789 0.00460598 0.00450924 -0.00012010
C 12.42734903 11.58974208 0.18018904 0.00191500 -0.00343092 0.00153862
C 1.97034190 14.76942407 3.49766070 -0.00306683 -0.00055204 0.00228420
C 1.72278013 9.90843081 2.55341807 -0.00532133 0.00177108 0.00086867
C 7.98995156 14.11475683 2.71681169 -0.00156959 0.00158535 -0.00190269
C 8.44617579 19.40457062 3.53595414 0.00077583 0.00414331 0.00052020
C 0.72326305 15.64463736 3.26787597 0.00287752 0.00529288 -0.00939175
C 3.07944888 10.46920288 2.71806929 0.00185701 -0.00158233 -0.00110527
C 9.11910524 13.12193258 2.91534418 -0.00232630 0.00558325 0.00045633
C 6.97756774 19.00426470 3.19493643 0.00800332 -0.00065011 0.00071645
C 0.03331046 13.52318454 11.43524114 0.00012520 -0.00071774 0.00246813
C -2.58612668 18.28795917 7.15773364 0.00195761 -0.00970472 0.00636917
C 3.98493435 15.67999773 7.31993519 -0.00029512 0.00194492 -0.00221134
C 6.70644160 10.82368392 11.23767847 0.00274669 -0.00150932 0.00741574
C 1.26751211 13.41567804 10.80306668 0.00237778 -0.00045956 0.00014713
C 9.36581638 18.14173792 7.82928700 -0.00637799 0.00013840 0.00399626
C 2.73665975 15.87255948 8.00839324 -0.00041489 -0.00100926 -0.00431036
C 34.22723287 10.94528048 10.42617224 -0.00684958 0.00483082 -0.00538726
C 2.28892323 12.57319947 11.22520415 -0.00055148 0.00199470 -0.00301837
C 8.48124752 17.13154043 7.47590372 0.00189822 -0.00402672 -0.00355667
C 1.81554951 16.74135547 7.65072611 0.00568685 -0.00365063 -0.00945490
C -4.35025273 11.82798342 10.82661945 -0.00781127 0.00020000 -0.00221544
C 2.06304248 11.68823520 12.32217738 -0.00650141 -0.00590163 0.00295289
C 8.60759531 16.36200285 6.25737720 0.00427152 -0.00074113 0.00369219
C 1.90088337 17.43040490 6.40767264 -0.00240878 0.00185794 -0.00237039
C -4.57740703 12.67045228 11.90240789 -0.00394496 0.00122820 -0.00298354
C 3.79013067 11.76707996 6.72093720 -0.00129007 0.00207752 -0.00593276
C 7.12167198 16.62816497 11.82405378 -0.00273887 -0.00262658 -0.00086678
C 0.18187006 17.39208916 11.92133471 -0.00768680 -0.00030785 -0.00818593
C -2.87386564 12.49209066 6.89294303 0.00324476 0.00516968 -0.00373306
C 2.94839766 12.79525038 6.35181213 0.00556203 -0.00312215 0.00191676
C -5.39163039 17.43658018 12.24488446 -0.00113965 0.00487459 0.00878497
C 1.20214295 16.62950483 12.37581884 0.00684490 -0.00220261 -0.00469911
C 9.57927945 11.48178401 6.37123788 0.00349921 0.00456223 0.00013002
C -1.02920969 15.03745727 9.70821409 -0.00182471 -0.00809678 0.00282651
C -1.50756337 10.21596925 8.62196491 -0.00079702 0.00825660 0.00263581
C 5.13978974 14.11269858 8.76003068 0.00076753 0.00244172 -0.00154303
C 5.69058430 19.17497285 9.74605707 -0.00466291 0.00314872 0.00197701
C -2.13101080 16.04852252 9.53477223 -0.00508033 0.00291510 -0.00552376
C -0.35639947 11.16509157 8.67602281 -0.00605821 -0.00202508 -0.00371338
C 6.30942800 13.24842449 8.97569167 -0.00226589 0.00759777 -0.00139498
C 4.48062975 18.19857839 9.47961176 -0.00204426 -0.00050650 -0.00792835
C -2.95066945 13.54354401 17.25579272 0.00091635 -0.00067785 -0.00051578
C -5.66014741 18.28816073 13.28958577 0.00382826 0.01111049 -0.00540195
C 0.98591336 15.70598190 13.36551890 -0.00075374 0.00066544 -0.00224616
C 3.76571673 10.75012387 17.37453314 -0.00068211 0.00765961 0.00128534
C -1.70774399 13.42774727 16.62804646 0.00111053 0.00313827 0.00217543
C 6.59530424 18.30277963 13.88841283 -0.00013958 -0.00516481 0.00199150
C -0.24891419 15.60061278 14.01710429 0.00286477 0.00202458 -0.00609939
C -8.06332050 11.14125232 16.70070540 -0.00534881 -0.00211087 -0.00648302
C -0.82375160 12.45465438 16.97356295 0.01243967 0.00362563 0.00616614
C 5.54146663 17.47977197 13.42894681 -0.00091864 -0.00104636 0.00011921
C -1.22385151 16.52178373 13.74583390 -0.00042374 -0.00129155 -0.00255643
C -7.18160012 12.08765556 17.15991074 0.00263476 0.00124866 -0.00380677
C -0.97697574 11.67722923 18.12719212 0.00821071 -0.00583935 0.00239836
C 5.82336375 16.51706114 12.40444862 -0.00851732 0.00465572 -0.00044209
C -1.03946761 17.48391593 12.67877283 0.00571664 0.00059573 -0.00319504
C -7.47602216 12.93985660 18.22565318 0.00115398 -0.00826042 -0.00508693
C 0.81424944 11.77439554 12.96763368 0.00591091 -0.00321985 0.00265631
C 3.80790264 16.53687692 17.70622638 0.00072754 -0.00414782 0.00490136
C -2.82567245 17.53225035 17.92805249 -0.00672492 0.00120513 -0.00175928
C -5.79952090 12.66677096 12.64324691 0.00059827 -0.00409789 -0.00192171
C -0.18887707 12.61829277 12.49702965 0.00069962 -0.00598025 -0.00058667
C -8.37860554 17.14001740 18.15717008 -0.00220533 0.00312524 -0.00631929
C -1.87521005 16.55762434 18.27773374 -0.00748328 -0.00158178 0.00427429
C 6.61962944 11.56514773 12.40689663 -0.00537895 0.00098250 -0.00511303
C -4.07124589 14.90127935 15.63815587 -0.00794743 0.00243465 -0.00621887
C -4.50898111 10.05957368 15.03074171 0.00417984 -0.00523335 -0.00509923
C 2.26998284 14.06571227 14.78642445 -0.00174546 0.00801442 -0.00285961
C 2.84491662 19.38485554 15.51041749 0.00382263 0.01006210 0.00572912
C -5.14340712 15.92960791 15.33123649 0.00542742 0.00137059 -0.00045083
C -3.26958340 10.69931276 15.34194915 0.00131663 0.00782373 -0.00503141
C 3.58976092 13.23821982 14.77776901 -0.00086589 0.00279946 0.00581492
C 1.59190130 18.51886964 15.35906691 0.00004329 0.00329515 -0.00300695
C -5.73076780 13.35154313 23.34127327 -0.00020859 0.00470275 -0.00459615
C -8.58710696 18.08423057 19.16432917 -0.00173143 -0.00287734 -0.00059339
C -2.07744547 15.72555214 19.38809727 0.00969915 0.00632528 0.00425773
C 0.69505459 10.82755315 23.40084962 -0.00222879 0.00527929 0.00094011
C -4.51126928 13.21101396 22.58092135 0.00546608 -0.00190131 -0.00376198
C 3.28880006 18.31503568 19.77696302 0.00235960 0.00563769 -0.00159301
C -3.24694536 15.82256556 20.20057072 0.01142735 0.00006430 0.00845090
C 28.23523884 10.65275033 22.73378580 0.00469070 -0.01211097 -0.00533468
C -3.56784513 12.28625367 22.92846059 0.00282279 0.00127329 -0.00691630
C 2.32980239 17.35526426 19.43193492 0.00312976 0.00171058 0.00732866
C -4.12826702 16.84976023 19.93260087 0.00613575 -0.00093281 -0.01197583
C -10.37287103 11.49408492 23.17611501 -0.00710380 -0.00672248 -0.00236734
C -3.75609266 11.44267734 24.07663984 -0.00320166 0.00210786 -0.00183098
C 2.56202177 16.47199257 18.31758303 -0.00116003 0.00126744 0.00222978
C -3.95144646 17.65835101 18.79694252 -0.00721293 0.00120925 -0.00472536
C 1.59599419 12.25747993 0.02515009 -0.00201594 0.00407258 -0.00150106
C -2.17669443 11.74717931 18.76930770 0.00028172 -0.00341107 0.00250511
C 0.87408610 16.64539670 23.93383922 0.00058728 0.00321993 0.00122395
C -5.81805845 17.43368883 24.04163728 0.00017888 0.00396413 0.00837691
C -8.75600517 12.73923749 18.81275850 -0.00225045 -0.00604026 -0.00105686
C -3.19512319 12.60410197 18.27839805 0.00497228 -0.00334574 -0.00204334
C 0.59203626 17.41417450 0.06279561 0.00376400 -0.00284797 0.00159928
C 7.13294671 16.54444044 0.11037944 -0.00046657 -0.01127961 0.00154778
C 3.56513305 11.50648637 18.58381837 0.00562161 0.00919127 0.00032464
C -7.09043415 14.73904813 21.93634708 -0.00298737 -0.00467683 -0.00079916
C -7.52848724 9.99591024 20.79531192 0.00652245 -0.00095419 -0.00349460
C -0.61682403 14.37153000 20.86531577 0.00548794 0.00212174 0.00054612
C -0.25208656 19.31933994 21.44637670 0.00696382 -0.00247874 0.00326256
C -8.41743853 15.42102190 21.84240075 0.00350643 -0.00566653 0.00447536
C -6.28099517 10.79807613 21.02780020 -0.00226992 0.00560368 0.00206902
C 0.64686199 13.67965985 20.90493577 -0.00700275 0.00553228 0.00233470
C -1.34691528 18.34172731 21.22054344 -0.00016930 -0.00868550 -0.00220644
C 3.23055829 23.21589991 5.10260392 0.00765698 -0.00199884 -0.00421884
C 0.38197425 27.86129062 0.95154436 -0.00375887 0.00268116 -0.00556857
C 7.06533942 25.18436231 1.08099280 0.00078334 -0.00411541 -0.00099849
C 9.78111974 20.46752159 5.25270340 0.00251849 0.00185129 0.00033400
C 4.44469678 23.00150367 4.43289154 0.00700983 -0.00024565 -0.00343435
C 12.54296562 27.81063927 1.60148982 -0.00249149 0.00091331 -0.00078805
C 5.90464609 25.17527011 1.83831134 -0.00184326 -0.00596908 -0.00255808
C 37.26187769 20.58140091 4.55069298 0.00594358 0.00460570 0.00449832
C 5.47888892 22.24329972 4.90573139 0.00147585 -0.00541993 -0.00706791
C 11.49010048 27.00874127 1.16306945 -0.00385535 0.00149187 0.00118712
C 4.85808137 25.98589105 1.54619933 -0.00124163 0.00364597 -0.00472201
C -1.38657836 21.42375326 5.00812152 -0.00213144 -0.00057226 0.00100446
C 5.36730601 21.49907872 6.11405100 -0.00315113 0.00113096 -0.00357527
C -0.33381263 26.22627201 24.32785618 0.00039910 0.00036222 -0.01140464
C 4.90488217 26.79583888 0.40033135 0.00160601 0.00354911 0.00375373
C -1.56885263 22.25985913 6.12899027 0.00316996 -0.00260794 -0.00242935
C 7.16166613 21.29046136 0.43148639 0.00240181 0.00366894 -0.00725487
C 9.59825255 26.00478882 5.29723884 -0.00341983 0.00156644 0.00252581
C 3.35532071 27.00004355 5.56600612 -0.00534132 0.00085165 -0.00148458
C 0.27212103 22.15099288 0.46796355 0.00226942 0.01032110 -0.00453301
C 6.14502003 22.19844200 0.05906986 0.00455409 -0.00194133 0.00480995
C -2.60327076 27.08578864 5.91074028 0.00411677 0.00849020 -0.00100077
C 4.32331294 26.09171228 5.98857726 0.00423654 0.00163717 -0.00291961
C 0.58218838 21.49666592 24.17502744 -0.00500035 0.00495417 -0.00119781
C 1.78841573 24.36590239 3.49164521 0.00587639 -0.00076628 -0.00284027
C 1.31348897 19.69509131 2.82533631 -0.00534203 -0.00243204 -0.00296307
C 8.49937692 23.78274554 2.42903771 -0.00359841 0.00316769 -0.00113609
C 8.71054766 28.79529247 3.26747731 -0.00315317 -0.00766370 -0.00269790
C 0.55675883 25.21434187 3.46775027 -0.00743426 0.00660121 -0.00181097
C 2.42540101 20.66497716 3.11880635 -0.00571166 -0.00501915 0.00676599
C 9.79827892 23.10456084 2.48064604 0.00035203 -0.00064415 0.00492893
C 7.53278077 27.91983083 3.02993373 0.00438634 0.00086724 -0.00196916
C 0.19185825 23.24353539 11.27072811 0.00224990 -0.00095019 0.00104706
C -2.78988808 28.02296288 6.94787646 -0.00503349 0.00099831 0.00814511
C 4.17386229 25.38540731 7.16499469 -0.00198752 0.00657371 0.00581762
C 6.77450179 20.54745383 11.31899767 0.00108951 0.00526833 -0.00374001
C 1.41617334 23.12490302 10.51830563 0.00180301 0.00771709 0.00227334
C 9.30860649 27.69016980 7.57290394 0.00073127 -0.00192626 0.00795263
C 2.91636371 25.51260354 7.81398610 0.00458913 0.00201840 -0.00107340
C -5.17457767 20.57672013 10.53073287 0.00298276 0.00796934 0.00255126
C 2.36261137 22.26021792 10.89686930 0.00202879 -0.00443241 -0.00025921
C 8.29017519 26.78074782 7.27473111 0.01210039 -0.00459058 0.00172326
C 1.90435320 26.33124006 7.36792581 0.00495002 0.00233096 0.00720594
C -4.17589028 21.39067056 11.03848270 -0.00083216 -0.00277340 -0.00159003
C 2.28602565 21.50362681 12.10999006 0.00911102 -0.00623353 0.00270662
C 8.40187836 26.02261930 6.06258125 0.00509854 0.00652579 -0.00496248
C 2.08278970 27.04102034 6.20620952 -0.00449499 -0.00113233 0.00714177
C -4.29138891 22.06581267 12.27096270 0.00128864 0.00470699 -0.00628463
C 4.11937943 21.61260922 6.72336330 0.00516889 -0.00384162 0.01038770
C 6.96485315 26.42806122 11.63441079 -0.00556287 -0.00192137 0.00371905
C 0.25702753 27.28915543 11.70668210 -0.00074100 -0.00482927 0.00219220
C -2.83178287 22.19467084 6.78613291 0.00526017 -0.00260359 -0.00669175
C 3.07984529 22.39487583 6.21847541 0.00330840 -0.00008679 -0.00078590
C -5.60087378 27.04125846 11.87458042 -0.00050936 0.00053791 -0.00541473
C 1.23364407 26.46301272 12.18994508 -0.00527040 0.00439821 0.00552739
C 9.63553987 21.28855985 6.33663744 0.00261190 0.00179843 -0.00344155
C -1.03221983 24.64805415 9.81262050 0.00223765 0.00380072 -0.00064542
C -1.27452730 19.72067332 8.61875293 0.00200025 -0.00415185 -0.00220354
C 5.23055123 23.94035432 8.73912308 0.00671235 -0.00565234 0.00275896
C 5.47509666 28.92037507 9.53962606 0.00193911 0.00016790 -0.00010904
C -2.22522768 25.62737758 9.76350203 0.00484703 0.00076128 -0.00118526
C -0.01676569 20.57384811 8.52280248 -0.00352504 -0.00015483 0.00233241
C 6.38053496 22.94109575 8.98004562 -0.00007927 -0.00269237 0.00238527
C 4.32084298 27.99631237 9.43487425 0.00594784 0.00328340 -0.00360533
C -3.02762965 23.24928074 17.11869896 0.00370388 0.00530422 -0.00006025
C -5.86684159 27.93999455 12.91099538 -0.00204257 0.00302711 0.00128323
C 1.03391104 25.51307825 13.25032647 0.00015815 -0.00847496 -0.00426650
C 3.93365338 20.82302423 17.19995166 0.00313739 0.00146218 0.00044381
C -1.78023524 23.20099743 16.44869587 0.00353299 -0.00230576 0.00521051
C 6.50780946 28.25070263 13.72268319 -0.00606847 0.00440769 0.00320151
C -0.19732501 25.69017300 13.91924558 -0.00005938 -0.00197869 -0.00245630
C -8.19843154 20.32860782 16.69938374 0.00148537 0.00641779 0.00360323
C -0.74485039 22.26340414 16.74263187 -0.00425439 -0.00197890 -0.00580924
C 5.55293888 27.36960622 13.38565759 0.00074760 -0.00195724 0.00137750
C -1.18880428 26.56782353 13.45640866 0.01081821 0.00374201 -0.00478584
C -7.21326802 21.22132543 17.17159375 -0.00078521 0.00172373 -0.00561393
C -0.88290818 21.40567212 17.80256950 -0.00269980 -0.00464939 -0.00174225
C 5.71768465 26.45850419 12.28461800 0.00334611 -0.00063543 0.00421422
C -1.02533179 27.33557713 12.34818736 -0.00224897 0.00007508 0.00018720
C -7.55847174 22.07475882 18.21621214 0.00264759 0.00876861 0.00485505
C 1.13686718 21.64138326 12.84418910 -0.00442883 -0.00504670 0.00059409
C 3.99146667 26.52283777 17.64638113 0.01086737 0.00019034 -0.00644288
C -2.61942455 27.40864454 17.74402566 0.01007548 0.00355157 0.00014123
C -5.58471139 22.08985646 12.88638279 0.00424443 0.00252388 -0.00104455
C 0.09880415 22.39392291 12.37790911 -0.00265443 -0.00337331 0.00647134
C -8.30953472 27.14989910 18.11698480 -0.00307009 0.00450507 -0.00649753
C -1.70534730 26.44372466 18.13599781 -0.00445427 -0.00037487 -0.00415617
C 6.67279909 21.38313776 12.48210815 0.00343523 -0.00257433 -0.00411123
C -4.21258209 24.57608989 15.58621978 0.00025854 -0.00033625 0.00514888
C -4.44013166 19.72264995 14.84062121 -0.00181616 -0.00010385 -0.00610066
C 2.43323908 24.12956333 14.73956769 -0.00113393 -0.00603639 0.00110648
C 2.77461538 29.13332902 15.77768768 0.00020325 -0.00543925 -0.00310955
C -5.49996742 25.32755456 15.08331494 0.00450144 0.00271657 0.00253229
C -3.23288530 20.63469724 15.00128625 -0.00766248 0.00607617 0.00493559
C 3.78933814 23.46548396 14.80635498 0.00081994 0.00729175 0.00240346
C 1.73605511 28.03152365 15.77708131 -0.00218465 -0.00097426 0.00180541
C -5.72464290 23.14153609 23.32907603 -0.00365882 -0.00358058 -0.00457878
C -8.53088858 27.85608956 19.35721866 -0.00310821 -0.00115973 0.00391498
C -1.89334855 25.47788909 19.16433369 -0.00285608 0.00404527 0.00147311
C 0.91470510 20.60054860 23.12148857 0.00015231 -0.00153809 0.00310258
C -4.55143036 23.05340752 22.59587962 -0.00266601 0.00247036 0.00172416
C 3.50808729 28.15999974 19.77852723 -0.00695410 -0.00177036 -0.00243936
C -3.08560127 25.58674180 19.88847860 -0.00080715 0.00335024 -0.01003549
C -11.15151783 20.26455604 22.83322365 0.00263070 0.00102428 0.00324632
C -3.49931294 22.24341430 22.96655740 -0.00177432 0.00133458 0.00580391
C 2.55632460 27.32490030 19.27635136 0.00131742 -0.00499710 0.00264732
C -4.13711979 26.38985707 19.39789002 -0.00580436 -0.00609290 -0.00650956
C -10.26736132 21.30630891 23.07329801 -0.00331865 0.00535546 -0.00157170
C -3.61420786 21.36849566 24.07899388 0.01046647 0.00020660 0.00220377
C 2.75567379 26.34541017 18.33373067 0.00143481 0.00612664 0.00514142
C -3.94301589 27.24604868 18.28968305 0.00363352 -0.00102183 0.00402950
C -10.58942798 22.39372978 23.99027282 0.00645124 -0.00129809 0.00056332
C -2.13377146 21.48572518 18.48270354 -0.00132844 0.00367427 0.00473304
C 0.91893885 26.30547577 23.67488636 -0.00314853 -0.00010158 0.01019136
C -5.88506185 26.85967858 23.99846705 0.00416380 -0.00050172 -0.00047065
C -8.82555596 21.95664324 18.81400472 -0.00264404 -0.00575352 0.00161834
C -3.13141563 22.35439869 18.19150744 0.00405265 -0.00248481 -0.00493036
C -11.43474863 26.97877085 24.25127841 -0.00098111 0.00562020 0.00014649
C -4.86229103 26.03793062 24.32470193 -0.00761358 0.00531196 0.00473618
C 3.65702961 21.64833305 18.30389327 -0.00539272 0.00159815 -0.00467450
C -7.05364968 24.36087614 21.79770139 0.00232286 -0.00906005 0.00199511
C -7.38003216 19.69413331 20.73360852 0.00922675 0.00825345 0.01127476
C -0.74324196 23.90217219 20.52670163 0.00336994 -0.00363336 0.00198828
C -0.31269709 28.91348749 21.73855729 -0.00042108 0.00305093 -0.00046362
C -8.43925340 24.93640730 21.56394939 0.00587106 0.00788112 0.00490033
C -6.33668500 20.71468244 20.83754971 0.00681796 -0.00412008 0.00769219
C 0.27986300 22.76107331 20.66309843 0.00422821 -0.00556242 0.00710850
C -1.38921773 27.88840512 21.70018572 -0.00680265 0.00426855 0.00249767
C 16.55184459 3.63514108 5.05676601 0.00843303 0.00347036 -0.00083137
C 13.68122838 8.53690840 0.99347893 -0.00082869 0.00078512 0.00176505
C 20.57049040 6.17697794 1.06119703 -0.00911271 0.00173396 0.00057861
C 23.00810020 1.02225323 5.36076319 -0.00692956 0.00181187 -0.00121958
C 17.74593089 3.49770292 4.40147194 -0.00407440 -0.00272757 0.00342250
C 25.55521143 8.31925033 1.72876483 0.00067063 -0.00007931 0.00313525
C 19.38483483 6.10726760 1.80345890 -0.00772458 -0.00499690 0.00328959
C 11.11498611 1.20651157 4.12345524 -0.00270126 0.00194672 0.00474249
C 18.72758850 2.69511677 4.86207446 0.00107606 -0.00100266 -0.00016559
C 24.65711146 7.39912374 1.17568533 -0.00018610 -0.00498403 0.00343477
C 18.27280069 6.93255398 1.45178068 -0.00033547 0.00147477 -0.00373721
C 12.08927363 2.09404905 4.57974827 0.00056956 0.00686699 0.00470156
C 18.63540834 2.05967407 6.14827736 -0.00232984 0.00151488 0.00688062
C 25.02587525 6.59363252 0.12056555 0.00769967 -0.00343152 0.00385007
C 18.35431051 7.71895946 0.25425133 0.00099959 -0.00045480 0.00236044
C 11.92270126 2.78442986 5.74092761 0.00886491 -0.00013642 -0.00369708
C 20.35598522 2.03170022 0.76373985 0.00869188 -0.00300873 0.00214064
C 22.84728128 7.02351325 5.37987107 -0.00096105 -0.00115791 -0.00067936
C 16.27943184 7.62144426 5.22746458 -0.00702618 -0.00532060 0.00075221
C 13.54676662 3.15338788 0.18434686 -0.00749166 -0.00190779 0.00311553
C 19.35547059 2.95511384 0.37606487 0.00273481 0.00005551 -0.00280378
C 10.86113955 7.42304752 6.04320105 -0.00960602 -0.00519463 0.00498218
C 17.28954301 6.83721789 5.71087357 0.00381770 0.00463212 0.00917823
C 26.02787878 1.71102823 0.27040413 0.00241242 0.00058588 -0.00849131
C 15.42359027 4.88166747 3.26087406 0.00092760 0.00083134 0.00004518
C 14.90601036 0.17627313 2.48322447 -0.00243651 0.00323298 0.00733681
C 21.75108925 4.69784696 2.53145623 0.00407691 0.00438904 -0.00406924
C 21.92402087 9.52585465 3.61497989 -0.00188070 -0.00253693 0.00209408
C 14.31787413 5.83631960 2.92076580 0.00216352 -0.00317583 -0.00395339
C 16.07117638 1.07430349 2.65289539 0.00091069 0.00269338 0.00255992
C 22.76367661 3.60326649 2.59723373 0.00882647 0.00346260 -0.00685808