2880
Time=17000.00000000 pbc="T T T" Lattice="39.48769453 0.00000000 0.00000000 0.00000000 29.06245105 0.00000000 -12.04852566 0.00000000 24.48506259" energy=-18399.35960364 virial="11.93908902 0.86990521 -72.85007626 0.86990521 2.70900680 -24.61298356 -72.85007626 -24.61298356 -0.94961795" stress="0.00293644 0.00002536 -0.00266281 0.00002536 0.00263495 -0.00085627 -0.00266281 -0.00085627 0.00238418" Properties=species:S:1:pos:R:3:vel:R:3
C 3.19625064 3.74682032 5.24728774 -0.00181823 -0.00503242 -0.00288801
C 0.48183090 8.53974213 0.90558794 -0.00378605 0.00001539 0.00153961
C 7.00251563 6.05557389 0.94318272 0.00941799 -0.00626725 0.00632821
C 9.72557682 1.07740004 5.13816449 -0.00053186 0.00208725 -0.00094299
C 4.38754826 3.66780785 4.52812918 -0.00194269 0.00131544 -0.00080565
C 12.37619798 8.47046888 1.61223295 0.00168498 0.00607887 -0.01025320
C 5.79267395 6.12835034 1.63984228 -0.00871975 0.00323430 0.00529057
C -2.15551537 1.11772209 4.68628157 -0.00241076 -0.00409724 0.00344684
C 5.34476380 2.80018154 4.93098032 -0.00230380 -0.00731460 -0.00691079
C 11.48182427 7.50547918 1.16414353 -0.00621375 -0.00204364 0.00902566
C 4.72405227 6.84047375 1.10408500 0.00333598 -0.00333312 0.00426944
C -1.21495592 2.03216663 5.11209316 0.00690615 -0.00068055 0.00358136
C 5.19709400 1.90393147 6.00302581 0.00201808 0.00512830 0.00883319
C -0.41383945 6.80821005 24.45113924 0.00245553 -0.00152768 0.00019097
C 4.93115365 7.75897231 0.07575102 0.00735440 -0.00382209 0.00077710
C -1.53183263 2.92942671 6.12537413 -0.00029726 0.00284561 -0.00378802
C 6.81484412 2.03365685 0.41743404 0.00033792 0.00100153 0.00630650
C 9.74613181 6.97069345 5.65100299 0.00460048 -0.00219739 0.00043858
C 3.04481420 7.74854741 5.56131685 -0.00112280 0.00192023 0.00123045
C 0.52276900 2.62588407 0.70296150 0.00407558 -0.00347502 -0.00288815
C 5.94638626 3.03413723 0.03968285 -0.00247041 0.00036550 0.00392176
C -2.50241588 7.53984625 5.73460580 0.00226740 0.00305863 -0.00632056
C 4.00217664 6.86644749 5.99669915 0.00272431 -0.00554749 0.00456548
C 12.60698549 1.94430165 0.21830437 -0.00398662 0.00116608 0.00193283
C 1.97273532 4.99620524 3.55857747 0.00585183 0.00564267 -0.00368620
C 1.66003613 0.19349461 2.69645045 -0.00216709 -0.00482314 0.00530288
C 8.28717084 4.72212971 2.56895559 0.00181622 -0.00012372 0.00108604
C 8.77829251 9.30178323 3.35953178 -0.00629416 -0.00868257 -0.00041461
C 0.89210238 5.93886169 3.32826987 -0.00205122 -0.00992251 0.00013436
C 2.94676374 0.94709668 3.02676549 -0.00275847 0.00486740 -0.00124963
C 9.55517141 3.84520031 2.72191370 -0.00710880 0.00024361 0.00104719
C 7.92469515 8.09869506 3.13394935 -0.01135416 -0.00280970 0.00630511
C 0.09381241 3.65096053 11.35212733 0.00175085 -0.00397948 -0.00637315
C -2.71982800 8.39020088 6.79114877 -0.00481404 0.00176339 0.00013763
C 3.91121002 6.05998938 7.13044811 -0.00394520 0.00341708 -0.00106638
C 6.70728975 1.16927628 11.30003759 -0.00730797 0.00096854 0.00270712
C 1.38727488 3.64784887 10.67516319 0.00041744 0.00150797 -0.00046926
C 9.29103947 8.70723832 7.85017599 0.00500028 -0.00195903 -0.00919045
C 2.67953136 6.14402559 7.85837972 -0.00019210 -0.00224697 -0.00603382
C -5.14045582 1.26032422 10.65720966 0.00187740 -0.00469800 0.00838945
C 2.33956557 2.75424819 11.04894806 0.00105344 -0.00260821 -0.00455029
C 8.25910897 7.90570658 7.33712242 -0.00712435 -0.00154648 -0.00023196
C 1.68331731 7.04273812 7.40202649 0.00296402 -0.00267623 -0.00206569
C -4.09550772 2.09565876 11.01315293 0.00149677 0.00806142 0.00611571
C 2.15164339 1.96412070 12.16020122 0.00247928 0.00302230 -0.00482147
C 8.42265962 7.03234001 6.21114634 0.00401005 -0.00206420 0.00160123
C 1.79809005 7.74792878 6.19451447 -0.00363997 0.00314797 -0.00480698
C -4.25437631 2.85339487 12.24281787 0.00137833 -0.00185746 -0.00803631
C 4.03833034 2.03698702 6.75895070 -0.00008387 0.00581536 0.00008448
C 6.90021984 6.87083068 11.89827545 -0.00165575 0.00205283 -0.00051192
C 0.20639383 7.59216235 11.72469200 -0.00322440 0.00238908 0.00601330
C -2.83507656 2.92161964 6.70666585 0.00406696 -0.00576753 0.00339123
C 3.05002125 2.93700928 6.37745459 -0.00443052 0.00356765 0.00260242
C -5.48910812 7.54468909 11.93195838 -0.00225986 -0.00018946 -0.00655662
C 1.15955764 6.72346700 12.10456778 -0.00320290 -0.00055489 0.00124717
C 9.55802138 1.72524816 6.33753910 0.00318343 -0.00525951 0.00336441
C -0.95813751 5.27002179 9.81358195 0.01038138 -0.00127409 0.00674927
C -1.36321253 0.30053390 8.77452662 0.01056520 0.00553145 0.00570547
C 5.31023553 4.75989964 8.65913115 -0.00220832 -0.00160901 0.01004531
C 5.54149875 9.34239467 9.98470109 -0.00100655 -0.00173920 0.00284525
C -1.99106039 6.32749739 9.52088616 -0.00123920 -0.00066231 0.00089962
C -0.04701297 0.91487404 9.00656731 0.00220073 0.00381204 0.00921588
C 6.64563872 4.04978332 8.79049138 -0.00317793 0.00939200 -0.00398254
C 4.51336879 8.23726839 9.89328798 0.00131384 -0.00630879 -0.00123160
C -2.93528030 3.87270683 17.46835576 0.00349782 -0.00909916 -0.00103017
C -5.57557801 8.39159779 13.07620767 -0.00514726 -0.00121362 0.00411014
C 0.96204039 5.95630842 13.26069230 -0.00092745 0.00051699 -0.00456667
C 3.81647991 1.14970055 17.50326780 0.00370862 -0.00028316 -0.00239916
C -1.72590348 3.72402118 16.79302106 -0.00191396 -0.00084289 -0.00138316
C 6.39064129 8.53028513 14.10548312 0.00194325 -0.00190622 -0.00093257
C -0.22798310 6.03267473 13.97848915 -0.00323803 0.00946568 -0.00043398
C -8.14554228 1.52029575 16.64402290 -0.00282891 -0.00279851 -0.00731114
C -0.78106247 2.80355964 17.14055519 -0.00082179 0.00241999 0.00343212
C 5.42510920 7.61977311 13.66259628 0.00532418 -0.00661584 0.00769019
C -1.24062373 6.75857505 13.37462839 0.00618444 0.00100705 0.00346920
C -7.34229322 2.53611212 17.05439417 0.00132084 0.00172653 -0.00649348
C -1.03183852 2.02872322 18.27124744 0.00633943 0.00378382 0.00058395
C 5.72999300 6.72601160 12.58056698 -0.00290312 -0.00604055 -0.00198590
C -1.11663456 7.64138299 12.27021846 -0.00015911 -0.01048891 -0.00729965
C -7.68458498 3.41192009 18.06889131 -0.00169125 -0.00180629 -0.00941110
C 0.92321622 2.02216610 12.85313597 -0.00116750 0.00419714 0.00116499
C 3.74053628 6.97101359 17.72028004 0.00043248 0.00176157 0.00176618
C -2.80843235 7.82800060 17.90131120 0.00279303 -0.01067798 -0.00427479
C -5.52660411 2.93880501 12.80396001 0.00135080 0.00663878 -0.00454045
C -0.09828453 2.84447548 12.42207384 0.00141558 0.00654045 0.00376735
C -8.59155571 7.61816875 18.19409036 -0.00027698 0.00277109 -0.00349393
C -1.79928619 6.95973905 18.26858392 -0.00524006 0.00517876 -0.00205972
C 6.55422260 1.92207524 12.46442857 -0.00407202 0.00554089 0.00828767
C -4.17839540 5.22405479 15.85287555 0.00166345 -0.00364580 -0.00197545
C -4.09233331 0.26542413 15.03603831 0.00174863 -0.00783702 0.00883116
C 2.14136725 4.55091762 14.83860674 -0.00524352 -0.00600198 -0.00475417
C 2.60179250 9.36203118 15.73546408 0.00102754 -0.00174071 0.00458694
C -5.37894228 6.10764015 15.65132586 0.00279625 0.00166379 0.00022248
C -2.71870354 0.86124835 15.33033985 -0.00433481 -0.00563128 0.00153705
C 3.27088978 3.60456145 15.14691649 0.00168571 -0.00024659 0.00234724
C 1.51525799 8.36497967 15.40720927 -0.00019528 -0.00017183 0.00333185
C -5.82196071 3.80625791 23.39201351 -0.00500134 -0.00092015 -0.00352918
C -8.61244093 8.52278936 19.31649828 -0.00503608 -0.00205718 0.00082712
C -2.02861632 6.04070477 19.30895878 0.00035941 -0.00571603 -0.00308128
C 0.83041561 1.14546638 23.53487484 -0.00336180 0.00333347 -0.00141294
C -4.53887149 3.73035160 22.81571906 0.00104329 0.00015175 -0.00346721
C 3.30095528 8.50359664 20.06971888 -0.00542009 -0.00200757 0.00312044
C -3.25064294 6.12099512 19.95281828 -0.00599975 -0.00232694 0.00726194
C 28.24844146 1.06100368 22.83411297 -0.00227032 -0.00500250 0.00722956
C -3.68177252 2.72777747 23.20632368 -0.00259795 0.00327020 -0.00406442
C 2.39339297 7.64344648 19.64356718 0.00420384 0.00057263 0.00730948
C -4.20596728 7.08237030 19.65636774 0.00185711 0.00006731 -0.00416499
C -10.34693498 2.04205312 23.12826410 -0.00134075 -0.00028632 0.00461343
C -4.02522716 1.76051541 24.17960724 -0.00271475 0.00123469 0.00154353
C 2.58517450 6.84524741 18.47165078 0.00051582 -0.00466917 0.00233761
C -3.91454890 8.00730583 18.64658520 0.00258335 0.00661711 -0.00294600
C -10.38627382 2.73806135 24.34609571 -0.00249110 -0.00389341 -0.00290287
C -2.24627879 2.12267459 18.94135601 0.00271251 0.01228871 0.00630437
C 0.83180043 7.03485987 23.80916343 -0.00095687 -0.00062618 -0.00121304
C -5.87143730 7.73916553 23.88482611 0.01340881 -0.00646510 -0.00098447
C -8.79472711 3.05364852 18.93621376 0.00219339 0.00281754 0.00024735
C -3.20103861 3.01910143 18.57321219 -0.00164135 -0.00139592 -0.00028685
C -11.49433917 7.67668512 24.25416505 -0.00383796 0.00349765 -0.00188764
C -4.83964201 6.84059922 24.27161391 -0.00809272 0.00300888 -0.00289422
C 3.68323077 1.97100808 18.70611230 0.00071219 -0.00286504 0.00028426
C -7.01429131 5.36986364 21.90172962 0.00572024 -0.00961397 0.00189380
C -7.38059738 0.19799208 20.97100301 -0.00213837 0.00448578 0.00010926
C -0.95540348 4.55550528 20.93340745 0.00016529 -0.00001742 0.00408460
C -0.57707448 9.33860029 21.81252932 -0.00098995 -0.00206538 0.00280179
C -8.22164464 6.26673335 21.92846495 -0.01004786 0.00083992 0.00081451
C -6.20209143 1.03116974 21.21928487 0.00335380 0.00332152 0.00925789
C 0.32632471 3.83376115 21.10809485 0.00512979 0.00093870 0.00524596
C -1.79366382 8.45107765 21.77733193 0.00514771 0.00488485 0.00199962
C 3.08040753 13.12729781 5.24628750 -0.00524055 -0.00038579 -0.00158003
C 0.62906034 18.10415840 0.98783053 -0.00023226 -0.00698017 0.00641632
C 7.09927766 15.63172851 1.07969551 0.00125951 0.00733456 -0.00181489
C 9.72983727 10.77912604 4.99883879 0.00764557 -0.00098620 0.00327100
C 4.23618168 13.01154856 4.48400601 0.00247176 -0.00024846 -0.01054827
C 12.38269786 18.18611128 1.78177260 -0.00513459 -0.00014495 0.00184425
C 5.84890601 15.65791048 1.75120594 0.00287881 -0.00273089 0.00054921
C 36.92476844 10.84925580 4.29655431 0.00384169 0.00691363 0.00257029
C 5.15752497 12.04642776 4.79190847 0.00370626 -0.00070766 -0.00672985
C 11.41221712 17.29794216 1.33288589 -0.00038192 -0.01280337 0.00484378
C 4.93786370 16.57490184 1.37284678 0.00065183 -0.00765146 -0.01131345
C -1.65750614 11.76137732 4.69035427 -0.00265887 -0.00403601 0.00492462
C 5.11986426 11.36508041 6.05085444 -0.00471862 -0.00856843 -0.00416292
C 11.62779343 16.46031018 0.29172152 -0.00502408 0.00866926 0.00016377
C 5.06415214 17.22550704 0.12464327 0.00271807 0.00546513 -0.00080698
C -1.71002769 12.54144353 5.87470048 -0.00476363 -0.00064828 0.00363693
C 6.88607429 11.68397379 0.40039920 -0.00639061 -0.00454997 0.00185480
C 9.94618475 16.44594555 5.65896352 0.00300963 0.00045431 0.00782313
C 3.50937629 17.06788897 5.54032531 0.00219050 0.00460889 0.00063964
C 0.47676416 12.43884188 0.76881027 0.00039017 -0.00191932 -0.00266689
C -6.07938238 12.63611546 24.45816011 0.00059881 0.00379905 -0.00649081
C -2.44806154 17.35103817 5.77506068 -0.00834045 -0.00311964 -0.00292061
C 4.41032816 16.08531194 5.89114291 -0.00331375 0.00778589 0.00233637
C 0.51253214 11.55628809 24.47999020 -0.00522505 -0.00694998 -0.00317738
C 1.94550682 14.69337489 3.82082533 -0.00086456 0.00150283 -0.00227957
C 1.59380520 9.86347719 2.55265759 0.00253706 -0.00390165 -0.00032494
C 8.37376144 14.19091086 2.52983684 0.00329324 -0.00797197 -0.00056662
C 8.49569477 19.00194276 3.68395415 -0.00102135 0.00828214 -0.00650881
C 0.88420261 15.66479128 3.77218580 0.00446303 -0.00518221 -0.00855905
C 2.87998258 10.64943758 2.76511906 -0.00189869 -0.00296976 0.00263086
C 9.55114529 13.27352195 2.63805168 -0.00151113 0.00349209 -0.00070845
C 7.46057351 18.01593885 3.57517815 0.00216108 -0.00211997 0.00036982
C -0.02259729 13.23254531 11.10845248 -0.00295568 -0.00556912 -0.00435749
C -2.51061464 18.21088597 6.83256071 -0.00312586 0.00020424 0.00015749
C 4.07652305 15.31979059 7.01813129 0.00028789 0.00174421 0.00077000
C 6.74833085 10.84857312 11.44975528 0.00069914 -0.00881422 -0.00199896
C 1.21093918 13.20185600 10.54652869 -0.00690825 -0.00255993 0.00275556
C 9.56339665 18.08654793 7.84283355 -0.00558676 -0.00283905 -0.00016075
C 2.90668209 15.54781523 7.76478991 0.00514253 -0.00561225 -0.00915149
C 34.11998825 10.72108870 10.36769249 -0.00241066 0.00356021 0.00098131
C 2.25868880 12.46564602 11.03679200 0.00261693 0.00432016 0.00195266
C 8.59806448 17.18824645 7.41650061 0.00285207 0.00261958 0.00537507
C 2.00113690 16.46346174 7.30949555 -0.00116894 0.00054916 -0.00296504
C -4.49013993 11.68372878 10.76621094 -0.00325776 -0.00375695 -0.01041559
C 2.03556457 11.64442680 12.16140612 0.00218135 -0.00337426 -0.00563178
C 8.76353255 16.32899486 6.35313138 0.00013885 0.00116207 -0.00289053
C 2.29605382 17.30527444 6.25752637 0.00386330 0.00133047 -0.00698472
C -4.74577101 12.46819972 11.93185688 -0.00713352 -0.00052109 0.00718568
C 3.90752096 11.42603298 6.80221890 0.00348852 0.00004093 0.00745034
C 6.73461149 16.70864169 11.81321728 0.00328625 -0.00474801 -0.00673420
C 0.30580916 17.29289808 11.60615384 -0.00248172 -0.00189453 -0.00005641
C -2.82823404 12.38329381 6.67887652 0.00298270 0.00079883 0.00523618
C 2.88420778 12.21935709 6.31674702 -0.00567263 -0.00640951 0.00418103
C -5.35720765 17.54669371 12.00493934 0.00540764 -0.00517796 -0.00400395
C 1.13639005 16.28896952 11.96464219 0.00715695 0.00796734 0.00156667
C 9.47433393 11.51664788 6.12953891 -0.00312972 -0.00198025 -0.00661333
C -1.03502584 14.79299374 9.56813152 -0.00706256 -0.00934692 -0.00707839
C -1.50746844 9.77209935 8.46894890 -0.00493742 -0.00020609 0.00280550
C 5.31734440 14.10867115 8.73257731 -0.00500634 0.00189031 -0.00068941
C 5.37928437 18.96392303 9.74325818 -0.00578867 -0.00692353 0.01075922
C -2.13397766 15.77203862 9.36710340 0.00887931 -0.00462320 -0.00999145
C -0.35701218 10.75986716 8.73771094 0.00208098 0.00127193 -0.00451334
C 6.57490207 13.28302649 8.92310012 0.00927300 0.00050925 0.00187278
C 4.18753324 18.10073213 9.62512745 -0.00081777 0.00271242 -0.00284478
C -3.24284181 13.29557611 17.23989942 0.00053784 -0.00594050 0.00201377
C -5.49308879 18.42754209 13.14430923 -0.00139048 0.00239624 -0.00006804
C 0.85538302 15.51089283 13.04604949 0.00361094 0.00419521 0.00380455
C 3.57752509 10.77113380 17.35695613 0.00085883 0.00356606 -0.00255064
C -1.96482402 13.21297482 16.56489455 0.00706877 0.00381081 -0.00356270
C 6.21297948 18.27383783 13.98559818 -0.00022188 -0.00576130 0.00955578
C -0.34223552 15.72799581 13.72796597 -0.00317977 -0.00114121 -0.00084076
C 31.10845127 10.82679636 16.73643827 -0.00393688 -0.00527750 0.00195019
C -0.90797003 12.45306868 17.05464314 0.00177076 0.01310822 -0.00351376
C 5.28737704 17.37249898 13.60569440 -0.00513027 -0.00078906 0.00566427
C -1.24669521 16.60136669 13.22932955 -0.00163196 0.00048594 0.00066694
C -7.38029185 11.72622947 17.19391910 0.00177434 0.00508688 0.00631058
C -1.12567527 11.60664769 18.15234353 0.00471898 -0.00501036 0.00406364
C 5.56026427 16.48768595 12.54826153 -0.00116806 -0.00358593 0.00566269
C -0.99242987 17.44740564 12.18019135 0.00086127 -0.00119584 0.00697898
C -7.64077373 12.55976905 18.33401559 -0.00370361 0.00398771 -0.00575564
C 0.77660122 11.55449929 12.65133533 0.00419874 0.00400428 0.00213837
C 3.66919489 16.51503728 18.09707138 0.00041037 -0.00041775 -0.00126937
C -2.94883402 17.41800980 17.63345746 -0.00239937 0.00411555 -0.00262913
C -5.87778047 12.20292658 12.71206074 -0.00462318 -0.00065440 -0.00515667
C -0.25679275 12.35196284 12.21142227 0.01158701 -0.00411407 -0.00738532
C -8.44897802 17.44050606 18.20170665 -0.00115684 0.00399676 -0.00040111
C -1.97937921 16.55247512 18.12608242 0.01154136 -0.00225596 -0.00056262
C 6.51523971 11.79765867 12.43500933 0.00065573 -0.00123203 0.00142564
C -4.22199626 14.85330787 15.69946025 -0.00557040 0.00084341 0.00126547
C -4.41581178 9.73205673 14.68815732 0.00206329 -0.00200576 0.00650300
C 1.95737646 14.37852904 14.82656385 -0.00208765 0.00183556 0.00284709
C 2.52505700 18.96151330 15.97107291 0.00727242 -0.00103027 -0.00437963
C -5.45320026 15.80659633 15.57483909 -0.00002488 0.00112868 0.00886012
C -3.51530177 10.94725283 14.82619667 0.00404737 0.00203399 -0.00126617
C 3.13566439 13.49284617 15.22068650 0.01008894 0.00156803 0.00213813
C 1.29760827 18.05824214 15.71428271 0.00459912 -0.00048572 0.00015137
C -5.79292694 13.51025528 23.45465709 0.00039681 0.00082274 0.00386895
C -8.47104644 18.25636972 19.34429678 -0.00151951 -0.00245751 0.00015454
C -2.21332858 15.63913429 19.16113993 0.00129832 -0.00358596 -0.00422190
C 0.72333915 10.71141045 23.35658153 0.00483887 -0.00072432 0.00543908
C -4.58270192 13.34082875 22.70966966 -0.00285467 -0.00122255 -0.00233000
C 3.24726463 18.24092281 20.16182552 -0.00132612 0.00041285 0.00367179
C -3.42269041 15.82478798 19.93060532 0.00026636 -0.00080604 0.00211953
C -11.23498449 10.92073612 22.89098714 -0.00045824 0.00233794 0.00139329
C -3.66062766 12.51063082 23.15582543 -0.00124654 -0.00185983 -0.00236220
C 2.27516088 17.33089414 19.80976355 -0.00223880 0.00518907 -0.00179833
C -4.37278916 16.71240676 19.52124178 0.00553040 0.00772464 -0.00310526
C -10.22589844 11.78094707 23.41746537 -0.00159999 0.00477872 0.00583058
C -3.88161199 11.63718506 24.23134855 -0.00324301 0.00105368 0.00463073
C 2.43640824 16.59755892 18.64558572 0.00105895 -0.00215620 -0.00038080
C -4.16564715 17.57943926 18.36207174 -0.00047892 -0.00198406 -0.00000933
C 1.73742344 12.47209765 0.12251302 -0.00031299 0.01148619 0.00841164
C -2.33138666 11.73959576 18.82514868 0.00195031 -0.00491347 -0.00385232
C 0.88334424 16.43092187 24.26508366 -0.00536063 -0.00051720 0.00277229
C -5.70552039 17.20216331 23.98406458 -0.00627990 -0.00541706 0.00195769
C -8.87962858 12.39613796 18.95975615 0.00039580 -0.00398234 -0.00085672
C -3.35748806 12.47101360 18.36926423 -0.00449941 0.00007272 -0.00165051
C -11.32439846 17.14812678 24.40504756 -0.00427168 -0.01225753 -0.00390857
C 7.37039956 16.48618378 0.04413085 -0.00234374 -0.00836757 0.00755669
C 3.30449987 11.58132688 18.45198468 -0.00194018 -0.00319884 -0.00527341
C -7.12702968 14.83061827 21.89635760 -0.00313075 0.00023628 0.00381124
C -7.49160684 9.95896023 20.86177942 -0.00077129 0.00012458 0.00234169
C -0.97332664 14.44983446 20.78936892 -0.00028738 0.00201010 0.00201044
C -0.28969447 18.91769974 21.89455207 0.00478851 0.00495676 0.00276809
C -8.41427880 15.57484408 21.81515637 0.00550693 0.00516555 -0.00018369
C -6.32943001 10.93549881 20.91244596 -0.00384823 0.00580849 0.00212232
C 0.20311454 13.53533749 21.17600056 -0.00263812 0.00499546 0.00418553
C -1.64563020 18.20523665 21.49687225 0.00266098 0.00779182 0.00133952
C 3.18493211 23.08760954 5.14323811 0.00676356 0.00271898 -0.00082956
C 0.45782099 27.90475011 1.07306570 -0.00025140 -0.00034225 -0.00133270
C 6.96103438 25.25584433 0.97086122 0.00221429 -0.00278361 0.00253535
C 9.73747158 20.38887008 5.28602371 -0.00120385 -0.00975597 -0.00582122
C 4.45534060 22.97345596 4.49906443 0.01079861 0.00653919 -0.00242778
C 12.22653682 28.03986975 1.70807241 0.00253010 -0.00352786 -0.00640916
C 5.83383012 25.33422391 1.76811104 0.00083298 0.00769196 0.00308693
C 37.27146336 20.57729888 4.34242061 -0.00277750 0.00244160 -0.00192420
C 5.35426515 22.17759670 5.09607218 -0.00019071 -0.00330730 -0.00328366
C 11.22500984 27.18071397 1.20547095 -0.00190400 -0.00776269 0.00159468
C 4.72413518 26.11181359 1.39835668 0.00106873 0.00314325 0.00171129
C -1.19936762 21.39519389 4.75198225 0.00299362 0.00355630 -0.00898284
C 5.11604978 21.41643329 6.23276866 -0.00362395 -0.00151190 0.00241127
C 11.44953736 26.42883167 0.03466134 -0.01216865 -0.00659511 0.00151493
C 4.77826393 26.84989903 0.21810979 -0.00502649 0.00265122 -0.00124892
C -1.35074914 22.10397883 5.95670610 -0.00213957 0.00294606 -0.00413049
C 6.93701295 21.41041834 0.69425661 -0.01361872 0.00387396 -0.00892210
C 9.73160685 26.16731424 5.52090610 -0.00203881 0.00067235 0.00099229
C 3.22030040 27.01515157 5.73868307 0.00414622 -0.00107433 0.00364790
C 0.29657100 22.04197702 0.60475097 0.01017601 0.00033725 0.00389197
C 5.97062182 22.23271110 0.21235582 -0.00900414 0.00264776 -0.00335142
C -2.29072353 27.13888427 6.13726951 0.00094637 -0.00135121 0.00479499
C 4.23527625 26.19355334 6.06398674 0.00520970 0.00160582 0.00202535
C 12.57049560 21.22233306 0.10477311 -0.00013950 -0.00140672 -0.00228620
C 2.07151177 24.57850403 3.65369886 0.00794574 0.00197166 -0.00197370
C 1.97005988 19.43082154 2.44250936 0.00215552 0.01210583 -0.00092440
C 8.23088238 23.91058126 2.52398603 -0.00066462 -0.00280549 0.00090500
C 8.56280976 28.77400146 3.52718059 0.00058138 -0.00693237 0.00302717
C 0.99795072 25.66399937 3.64870889 0.00215624 -0.00296895 0.00046935
C 3.32160765 20.11684901 2.49932187 0.00253904 -0.00632545 -0.00650684
C 9.45085253 22.96677851 2.63328908 -0.00340382 0.00882121 0.00184257
C 7.49514039 27.68732402 3.43213844 -0.00622750 -0.00117876 0.00451017
C -0.08813317 23.09952836 11.37180172 0.00283302 -0.00346502 -0.00237778
C -2.55392086 27.98063624 7.23289587 0.00387764 -0.00411852 0.00098887
C 4.08255566 25.23913350 7.12017582 0.00648908 0.00265234 0.00175908
C 6.49029809 20.45424836 11.31607868 -0.00296175 -0.00243395 -0.00478509
C 1.14131067 22.99974510 10.71873992 -0.00295130 -0.00570000 -0.00190568
C 9.43594485 27.81012313 7.79906029 0.00580620 0.00361690 0.00104574
C 2.84382203 25.25267386 7.84680926 0.00421774 0.00431585 -0.00049979
C 34.21790636 20.71761874 10.65144567 -0.00071583 -0.00195683 -0.00242939
C 2.15154115 22.12636734 11.13077634 0.00162878 0.00480020 -0.00152986
C 8.36588199 27.00612196 7.35414276 -0.00229513 -0.00928281 -0.00008385
C 1.87633017 26.16031264 7.53742515 0.00064368 -0.00107128 0.00031582
C -4.36093831 21.63958069 10.96905658 -0.00293148 -0.00025094 -0.00469801
C 1.85851674 21.31191874 12.24646546 -0.00002764 0.00001381 0.00678223
C 8.46162950 26.22189801 6.16802873 0.00193595 0.00445751 -0.00118765
C 1.96084262 27.03251300 6.42942951 -0.00051255 -0.00916397 -0.00448177
C -4.52260869 22.37233279 12.19445806 0.00211475 0.00069533 0.00650571
C 3.82555864 21.44845231 6.78448826 -0.00712587 0.01028748 -0.00049709
C 6.56833300 26.56995387 11.44303627 0.00069900 -0.00327678 0.00502965
C 0.20201595 26.99387104 11.69738558 -0.00289930 0.00356932 0.00183242
C -2.58199793 22.05078469 6.61222613 0.00441947 -0.00049240 0.00165108
C 2.87636171 22.24023376 6.21765639 0.01183782 -0.00170550 -0.00228811
C -5.15905743 27.41009452 12.13237533 0.00281587 0.00388149 -0.00065284
C 1.16763226 26.13154869 12.15767931 -0.00265039 -0.00418813 0.00343682
C 9.56194314 21.17505645 6.37763985 0.00104809 -0.00065256 0.00012562
C -1.02113511 24.55922088 9.79374227 0.00198067 -0.00317215 0.00358649
C -1.31158636 19.57357204 8.41926797 0.00471752 -0.00107588 -0.00746747
C 5.50095554 23.99859391 8.59697406 -0.00212710 0.00604274 -0.00312005
C 5.49545764 28.83285676 9.72488230 0.00138642 0.00147266 -0.00472715
C -2.04784608 25.61305041 9.63708799 0.00249069 -0.00028044 -0.00535860
C -0.12106879 20.50322266 8.63866698 0.00249919 -0.00277826 0.00361300
C 6.90514143 23.35909568 8.65981627 0.00490488 0.00355386 -0.00223526
C 4.28639153 27.99665950 9.49931897 0.00839544 -0.00778123 0.00567484
C -2.75092171 23.16023684 17.42353398 -0.00315181 0.00118429 -0.00944515
C -5.30266307 28.20065004 13.28638817 0.00195047 -0.00404621 -0.00336559
C 0.97510371 25.33704297 13.26082311 0.00007299 -0.00655149 -0.00124218
C 3.69077293 20.29894296 17.47193407 0.00010655 0.00646111 -0.00218255
C -1.53254738 22.99620657 16.71250175 -0.00910188 0.00694063 0.00267357
C 6.31855833 27.70731961 14.02867257 0.00583255 -0.00199419 0.00006852
C -0.22488042 25.48001720 14.00013353 0.00535491 0.00448768 -0.00648576
C -7.91500761 20.70537838 16.72757228 -0.00112308 0.00973952 -0.00567000
C -0.69294372 21.97720257 17.02686010 0.00718177 -0.00018003 0.00156756
C 5.29237578 26.90662706 13.46388545 -0.00720744 -0.00494396 0.00217573
C -1.09967949 26.45083929 13.63564628 0.00183046 -0.00728696 -0.00287394
C -7.01727258 21.60858556 17.24743499 0.00948941 -0.00905031 -0.00244698
C -0.93728739 21.16212982 18.18133391 -0.00879906 -0.00003591 0.01139497
C 5.44354025 26.25737675 12.21556695 -0.00678518 0.00290911 -0.00310664
C -1.04930192 27.16723174 12.39829304 0.00921828 0.00768784 -0.00181836
C -7.18079706 22.31508965 18.48918802 -0.00015074 0.00067279 -0.00160890
C 0.66960612 21.36638043 12.88192279 -0.00035063 -0.00334649 -0.00273558
C 3.71877571 26.34770306 17.83521901 0.00850810 0.01105835 -0.00190663
C -2.68095507 26.97661731 17.87644110 -0.00315604 0.00283642 0.00236449
C -5.74456922 22.28440738 12.80341580 0.00316041 -0.00104790 0.00549300
C -0.34103204 22.11761111 12.30928796 -0.00582272 -0.00013989 -0.00112285
C -8.35950282 27.22556192 18.09252010 -0.00092669 0.00011913 0.00320403
C -1.71503970 26.15719072 18.38858169 0.00115813 0.00724288 -0.00393104
C 6.29097045 21.28356484 12.50780215 0.00200188 -0.00319628 0.00407945
C -3.93178926 24.61191848 15.86414623 -0.01029682 -0.00197274 0.00181839
C -4.19729339 19.73963951 14.69853904 -0.00399035 0.00486126 0.00333782
C 2.09963386 23.85102892 14.71947401 -0.00785274 -0.00603577 0.00098610
C 2.52551810 28.82330804 15.99678304 0.00340140 -0.00554583 0.00181806
C -5.17612104 25.47569334 15.66806098 -0.00183055 0.00761024 -0.01035248
C -2.82630679 20.36661361 14.81143515 0.00154298 -0.00184624 -0.00058315
C 3.33005153 23.04214450 14.94661233 0.00161654 -0.00179363 -0.00472617
C 1.36307161 27.80515646 15.92925582 -0.00064330 0.00200886 -0.00543438
C -5.84660866 22.99842397 23.50419373 -0.00171920 -0.00108755 0.00063537
C -8.51316871 28.00151571 19.30449718 -0.00113700 0.00018938 0.00067456
C -1.93331543 25.30440899 19.50320648 0.00032476 0.00598576 -0.00495721
C 0.75594200 20.33776192 23.53374339 -0.00773326 0.00102858 -0.00087931
C -4.61226865 22.86851382 22.82099494 -0.00265152 0.00327450 0.00222269
C 3.27771385 27.84419573 20.12668740 -0.00872833 0.01024133 0.00128900
C -3.17517276 25.44585664 20.10095371 0.01290521 -0.00032679 0.00060829
C 28.12754250 20.50149876 22.83231518 0.00910350 -0.00508592 0.00379012
C -3.62653398 21.98686753 23.26587405 0.00299866 -0.00065230 -0.00023819
C 2.35127763 26.92292602 19.69146374 0.00935131 -0.00577786 0.00800467
C -4.11891613 26.26679188 19.60737233 0.00327995 0.00259555 -0.00760314
C -10.36846165 21.41497705 23.21951629 -0.00203553 -0.00488599 -0.00409615
C -3.83861021 21.29348193 24.47761852 -0.00866794 -0.00105275 0.00319623
C 2.49992137 26.19721405 18.50380658 0.00653609 0.00439143 -0.00375355
C -3.89571951 27.08077567 18.51839747 0.00083378 -0.00301808 -0.00831461
C -10.57138005 22.19927557 24.30423646 -0.00432630 0.00465803 0.00245254
C -2.04837744 21.46361233 18.95397494 -0.00086768 -0.00726251 0.00439030
C 0.70236853 26.32937353 23.95994664 -0.00213536 -0.00139457 0.00263363
C -6.07138480 26.82441060 23.91723341 0.00456820 0.00623107 0.00162919
C -8.44112646 22.15415169 19.14617056 -0.00244740 0.00645365 0.00569363
C -2.96523385 22.39308807 18.54317770 0.00138666 0.00380217 -0.00562005
C 0.69066215 27.03754642 0.02320064 -0.00011493 -0.00157657 -0.00530847
C -4.97034204 26.08722738 24.39659227 0.00401171 0.00651640 0.00552007
C 3.50969279 21.17538415 18.59111787 -0.00002008 -0.00349378 -0.00160470
C -7.00837492 24.60084264 22.05870852 -0.00481496 -0.00156037 -0.00664514
C -7.22666747 19.58671296 20.90746990 -0.00527944 -0.00244120 0.00230327
C -0.77710153 23.80644238 21.14772507 -0.00127059 -0.00498659 0.00142539
C -0.39304569 28.88841481 21.93635026 0.00138349 -0.00237393 0.00207275
C -8.32677179 25.37570076 21.89244898 -0.00669651 -0.00253866 0.00326682
C -6.15933250 20.61563883 21.14673545 -0.00649590 -0.00335320 -0.00617654
C 0.38922826 22.92534738 21.21311186 -0.00114353 -0.00051279 -0.00225605
C -1.70676441 28.26203815 21.61462028 0.00273821 -0.00569399 0.00321645
C 16.24322284 3.68437970 5.14281238 -0.00259631 0.00437826 0.00678328
C 13.61872069 8.61770014 1.00780791 -0.00179347 -0.00675286 0.01115916
C 20.22131820 5.90072366 0.94127152 0.00270316 -0.00707971 0.00434229
C 22.97819842 1.20537545 5.00154670 0.00068171 0.00138455 0.00169929
C 17.52178284 3.69326797 4.50849779 0.00526175 0.00218898 0.00279344
C 25.47506765 8.35644114 1.86809959 0.00263652 0.00110024 0.00473829
C 18.99860578 5.91107069 1.62839904 -0.00841445 0.00126010 0.01173679
C 10.85684504 1.27360886 4.36207296 -0.00176285 0.00141212 -0.00322411
C 18.43299370 2.72556904 4.85616182 0.00092112 0.00489046 0.00186741
C 24.67865117 7.34981296 1.40721836 0.01033691 -0.00073623 0.00295460
C 18.07792258 6.88775525 1.28824824 0.01411879 0.00627887 0.00248441
C 11.88413804 2.04649907 4.84308277 0.00438482 -0.00299814 0.00758588
C 18.24523336 1.81996397 5.91626742 -0.00556067 -0.00136664 0.00318617
C 24.84504982 6.71975730 0.13474946 0.00678323 0.00231314 0.00109568
C 18.20739302 7.66402186 0.10270172 -0.00480145 -0.00497047 -0.00234752
C 11.72605973 2.77675686 6.07391708 -0.00155883 -0.00143632 0.00413381
C 20.13326357 1.96252987 0.44691863 -0.00752468 0.00308499 0.00270494
C 22.89679741 6.90970932 5.65608050 0.00641341 0.00486493 0.00684034
C 16.37684189 7.66591401 5.81852684 0.00190562 0.00450994 -0.00161646
C 13.54378980 2.80473562 0.63700732 -0.00243145 0.00144575 0.00293520
C 19.15002343 2.85253991 0.03366419 -0.00403985 -0.00117418 -0.00278155
C 10.72741424 7.78847636 6.15943770 0.00384945 0.00695352 -0.00729815
C 17.35633479 6.74772250 6.20046494 -0.00247391 0.00176130 0.00000110
C 25.68721733 1.94427923 0.06498675 -0.00049963 0.00255678 -0.00402399
C 15.11287849 5.20467920 3.64927592 0.00040014 0.00971308 0.00116773
C 14.70836632 0.32386325 2.66553376 0.00074911 0.00090102 0.00398090
C 21.55588943 4.67524665 2.55140924 0.00571687 0.00322566 0.00618209
C 21.86101644 9.14498186 3.58691686 -0.00023646 0.00207383 0.00025886
C 13.92179040 6.16601737 3.57966601 0.00168289 0.00340599 -0.00178062
C 15.81936101 1.33372357 2.84742659 0.00976489 -0.00452051 -0.00531136
C 22.69576793 3.78825245 2.71812688 0.00291208 0.01094157 -0.00459938