2880
Time=45000.00000003 pbc="T T T" Lattice="39.60900110 0.00000000 0.00000000 0.00000000 29.09837160 0.00000000 -12.02955177 0.00000000 24.40800569" energy=-18401.05718815 virial="9.64711067 -40.34267484 -74.89481425 -40.34267484 -37.73073905 3.92404618 -74.89481425 3.92404618 36.28458066" stress="0.00284127 -0.00147341 -0.00264335 -0.00147341 0.00110619 0.00008770 -0.00264335 0.00008770 0.00386323" Properties=species:S:1:pos:R:3:vel:R:3
C 3.17125612 3.64428964 5.27028078 -0.00536410 0.00193221 0.00326919
C 0.54321074 8.51434230 1.22989716 -0.00377166 -0.00267782 0.01113266
C 7.17664012 6.08289485 1.10901411 0.00049875 -0.00518395 0.00037038
C 9.63306333 1.36771664 4.91362944 -0.00296514 -0.00098032 0.00537331
C 4.31079164 3.40530021 4.45436970 -0.00526272 -0.00302428 -0.00372284
C 12.45849116 8.93273021 1.66665185 0.00488772 0.00078390 -0.00561300
C 5.92427873 6.00847730 1.69129515 -0.00884700 -0.00285385 0.00154575
C -2.07847187 0.97984189 4.57312275 -0.00344137 -0.00320311 -0.00282954
C 5.32805591 2.57783920 4.85638503 -0.00316218 -0.00540376 0.00400474
C 11.47682497 8.00510707 1.33746500 -0.00856423 0.00534944 -0.00080684
C 4.87897815 6.80166432 1.26715486 0.00012720 -0.00066437 -0.00037340
C -1.05674414 1.90997154 4.87875945 0.00530169 0.00180936 0.00222401
C 5.26189976 1.81463806 6.04815379 0.00585433 -0.00280833 -0.00038414
C 11.64600503 7.09627536 0.21299549 0.00198111 0.00293973 -0.00586613
C 5.08286576 7.74607464 0.28102001 0.00141115 -0.00554057 -0.00293913
C -1.29540313 2.70919689 5.98044977 0.00186562 0.00125979 0.00569128
C 7.23735625 2.03443809 0.43294605 0.00163016 0.00208911 -0.00236113
C 9.72062766 6.91740429 5.44496559 -0.00081700 -0.00477895 -0.00371643
C 3.12123724 7.47937562 5.43663706 0.00096092 0.00296962 0.00408080
C 0.27750464 2.61459367 0.52926735 -0.00531819 -0.00325979 0.00102377
C 6.21162314 2.90307004 0.06902985 0.00238729 0.00379281 0.00943141
C -2.51578773 7.43977914 6.27754841 0.00260813 -0.00115452 -0.00882453
C 4.18670513 6.71926088 5.93023394 0.01142663 0.00023144 -0.00952220
C 0.62658991 1.84385961 24.37654417 -0.00356092 -0.00191015 -0.00328224
C 1.99397814 5.00025961 3.65505740 -0.00842577 -0.01018887 0.00586403
C 1.64267673 0.26375824 2.46173795 -0.00001832 0.00454549 0.00669221
C 8.34277849 4.63146281 2.60708473 -0.00105826 0.00738656 -0.01062220
C 8.41469247 9.41700042 3.60292081 0.00428042 -0.00042162 -0.00303665
C 0.83073218 5.95028951 3.45597522 -0.00343691 0.00585737 0.00212201
C 2.89127859 1.09967970 2.49032903 -0.00184748 -0.00359529 -0.00113369
C 9.49426677 3.69880201 2.76124938 -0.00063181 -0.00725281 -0.00194989
C 7.35368192 8.32168770 3.51035182 -0.00669937 0.00150160 0.00501854
C 0.03292244 3.58089140 11.36059087 0.00248377 0.00220909 -0.00506103
C -2.75720221 8.43937825 7.25277109 0.00069705 -0.00315477 0.00023768
C 4.00615796 6.07195788 7.11329857 0.00869489 0.00610393 -0.00208146
C 6.68768814 1.14438616 11.02878338 -0.00002715 0.00427325 0.00112015
C 1.26820038 3.39885938 10.64463386 0.00496811 -0.00400879 -0.00125777
C 9.28744888 8.63619784 7.66918731 0.00497125 0.00230601 0.00166471
C 2.75785921 6.12901804 7.74018071 0.00869484 -0.00148552 -0.00126968
C 34.33656978 1.13589317 10.52953022 -0.00583506 -0.00037858 -0.00663914
C 2.29309581 2.67236642 11.13881028 -0.00264600 0.00034115 -0.00793737
C 8.34064800 7.74184223 7.29202150 -0.00369662 -0.00162616 0.00035304
C 1.73039748 7.07034362 7.33213075 -0.00388716 -0.00544772 0.00470740
C -4.44169207 2.18976486 10.94064023 0.00280175 -0.00697513 -0.00419419
C 2.09464404 1.93915411 12.31077664 -0.00237063 0.00022394 0.00459986
C 8.51093426 6.88725199 6.19312784 0.00314361 -0.00699875 -0.00463171
C 1.91001796 7.72716734 6.13875509 0.00252916 0.00731136 0.00253876
C -4.78187807 2.99415682 12.04925387 0.00224319 0.00398736 0.01141970
C 4.08737369 2.06029980 6.84615646 0.00827125 -0.00523558 0.00136256
C 6.68163128 6.99543244 11.44870678 -0.00368818 -0.00431008 0.00441943
C -0.09273455 7.51269155 11.57986987 -0.00611532 -0.00273939 -0.00276104
C -2.52613508 2.58307711 6.67857170 0.00082598 -0.00145253 -0.00592253
C 3.09889477 2.92364355 6.49716348 0.00709105 0.00164120 0.00029747
C -5.50470368 7.91305715 12.19659219 0.00010169 -0.00003553 -0.00338378
C 0.96611455 6.76587253 11.95928331 0.00232056 0.00062375 -0.01025798
C 9.46149742 2.30887953 5.92890086 0.00645507 0.00238305 0.00480745
C -1.15486701 4.91330464 9.69012399 0.00320716 0.00045376 -0.00057575
C -1.42735094 0.36366916 8.70776412 -0.00761358 -0.00109475 -0.00028092
C 5.03369119 4.62928024 8.74277756 0.00014576 -0.00327870 0.00604078
C 5.44625548 9.36856282 9.73102957 -0.00435251 0.00271563 -0.00161281
C -2.27043791 5.76396875 9.40446876 -0.00320125 -0.00187806 0.00672246
C -0.24437064 1.23334393 8.89064596 0.00115784 0.00231677 -0.00259979
C 6.24546207 3.71314757 8.97442441 -0.00588285 0.00023647 -0.00143003
C 4.21042478 8.52926922 9.42199901 0.00088589 -0.00659218 -0.00651298
C -2.90865322 3.84967294 17.36584006 -0.00168310 0.00289833 0.00129198
C -5.83464057 8.71526393 13.29436756 -0.00538784 -0.00173196 0.00291037
C 0.80274346 5.94202905 13.12826619 0.00517688 0.00408948 0.00158455
C 3.66270020 1.01594203 17.35827644 -0.00099688 0.00159545 -0.00544762
C -1.71764877 3.69651147 16.68744401 -0.00225307 0.00074949 0.00013471
C 6.19248418 8.50853065 13.73541144 -0.00241552 0.00218815 -0.00235163
C -0.27910697 6.14340487 13.98586752 0.00492676 -0.00421027 0.00432317
C -8.12419064 1.05195836 16.73395787 -0.00381160 -0.00158712 0.00046168
C -0.76609359 2.82398983 17.18538244 0.00341743 -0.00372436 -0.00479180
C 5.25444179 7.63716111 13.21457640 -0.00059314 0.00062129 0.00327106
C -1.29971148 7.04365049 13.63584915 0.00117496 0.00608215 -0.00572523
C -7.14670635 1.94288833 17.12657360 -0.00994465 -0.01010555 -0.00383459
C -0.88588994 2.02836686 18.30288809 -0.00054411 -0.00544226 -0.00023260
C 5.39045640 6.92957852 12.01548817 -0.00332886 -0.00077035 -0.00375947
C -1.23916865 7.78028585 12.46880502 -0.00635740 0.00402631 -0.00505946
C -7.39871693 2.80899562 18.18043365 0.00711164 0.00474552 -0.00617758
C 0.94645349 2.07620784 13.04619728 -0.00100749 -0.00348685 -0.00297706
C 3.68320499 6.88292915 17.39619295 -0.00634135 0.00514553 0.00058739
C -2.82019989 7.67156067 17.59496597 -0.00191846 -0.00951434 0.00470041
C -5.99654212 2.72212156 12.62047005 -0.00247766 0.00392973 0.00205959
C -0.13196768 2.86486684 12.58375460 -0.00573073 0.00131835 -0.00369645
C -8.59262117 7.85895122 18.16278935 0.00469740 -0.00626727 0.00335640
C -1.85232693 6.81625512 18.04567883 0.00175874 -0.00324624 0.00196897
C 6.41039321 1.98812928 12.18485254 0.00268454 -0.01192997 -0.00624792
C -4.32012436 5.14380277 15.80975741 -0.00255826 0.00034957 -0.00259951
C -4.56807916 0.16607256 14.71352935 -0.00417202 -0.00465927 0.00631188
C 2.09773520 4.55041401 14.60465475 -0.00176296 -0.00608364 -0.00285241
C 2.59049928 9.43291278 15.75769586 -0.00373523 -0.00790211 0.00513289
C -5.56971457 6.06114508 15.70540946 0.00175482 -0.00354270 0.00582662
C -3.34752978 1.01654001 14.90870622 0.00992859 -0.00115705 -0.00599156
C 3.48450610 3.95428568 14.78231306 0.00259532 0.00102087 0.00724260
C 1.43413201 8.51561841 15.47028528 -0.01023621 0.00364957 -0.00034262
C -5.64082177 3.85628314 23.48615619 -0.00091289 0.00912290 0.00393729
C -8.75629202 8.70400521 19.22656441 -0.00036296 -0.00100975 -0.00212023
C -2.01196713 6.06445386 19.25272486 -0.00317397 -0.00038640 0.00077636
C 0.86777715 0.99698983 23.33793003 0.00517536 0.00145572 0.00145131
C -4.42510503 3.89422239 22.77865637 -0.00054791 -0.00250516 -0.00782514
C 3.42372159 8.22489201 19.78421829 0.00798245 -0.00632232 0.00218252
C -3.13258322 6.26212202 20.03591496 0.00238081 0.00724526 0.00438871
C 28.29046253 1.09891928 22.59471585 0.00544858 0.00293572 0.00219573
C -3.36008676 3.06860342 23.16322789 -0.00543039 -0.00582022 -0.00166524
C 2.34563450 7.50489899 19.30893351 0.00427213 -0.00099207 0.00090503
C -4.11278059 7.05662327 19.56501481 0.00164283 0.00789468 -0.00123353
C -10.36573092 1.98020364 23.02307788 -0.00198566 0.00076430 0.00189977
C -3.50709506 2.21651243 24.26115683 0.00029940 -0.00644349 0.00494326
C 2.49842299 6.74833871 18.12643763 -0.00334549 -0.00102751 -0.00605818
C -3.98279324 7.82549114 18.35265858 0.00254727 -0.00210451 -0.00623791
C -10.56121701 2.72769568 24.18921717 0.00085753 -0.00283838 -0.00199829
C -2.12591713 2.18748752 18.98036899 -0.01119716 0.00172840 0.00892874
C 0.90171684 7.00433070 24.04835474 0.00222247 0.00253082 -0.00443853
C -5.68237974 7.78445509 24.10328254 -0.00458197 0.00434438 0.00282925
C -8.63259812 2.75192938 18.90006001 0.00190548 0.00124091 -0.00286122
C -3.02901678 3.06129780 18.50006955 0.00586318 -0.00112020 -0.00132850
C 0.71045864 7.62205962 0.13577330 0.00074864 0.00048062 0.00039848
C 7.37757159 6.91687378 0.01033248 0.00419432 -0.00305644 -0.00083664
C 3.46992126 1.82950151 18.51766291 -0.00446535 -0.00434646 -0.00341653
C -6.97021136 5.11407439 21.92341619 0.00312154 0.00203804 0.00186336
C -7.14692029 0.30345061 20.82654147 0.00187225 0.00469629 -0.00533420
C -0.60025903 4.82916867 20.80714241 -0.00932939 0.00027389 -0.00855070
C -0.63108299 9.52626585 22.06536194 0.00055603 0.00478994 -0.00401519
C -8.23814150 5.84893646 21.80315434 0.00487283 -0.00214443 -0.00082788
C -5.87927545 1.11900976 20.92068686 0.00106281 0.00088214 -0.00130339
C 0.70374870 4.13606454 20.81125998 0.00640338 0.00512323 0.00579264
C -1.67139072 8.44394182 22.01837128 -0.00405856 0.00021115 -0.00198337
C 3.01398350 13.38457611 5.38021849 -0.00206767 -0.00295074 -0.00177423
C 0.34347509 18.29238143 1.08329559 0.00069591 0.00051720 -0.00039831
C 7.18495681 15.86174902 1.11059997 0.00264734 0.00183788 -0.00589665
C 9.52179436 10.89995729 5.14750829 0.00791931 0.00157698 0.00600620
C 4.26620376 13.26542635 4.73895778 -0.00524805 -0.00264291 0.00274309
C 12.30680178 18.57354942 1.63045032 0.00204955 -0.00547997 -0.00191246
C 5.99589373 15.85761556 1.83637929 -0.00561783 -0.00514415 -0.00086141
C 37.33602193 10.95646716 4.52849610 0.00178811 -0.00240541 -0.00233542
C 5.26640351 12.38975176 5.19000080 0.00121223 -0.00304585 -0.00356796
C 11.30774486 17.74813365 1.16953908 0.00214436 -0.00407059 0.00054482
C 5.00220371 16.76110438 1.51750965 -0.00226017 0.00225683 0.00348871
C -1.20687828 11.82031892 4.86689384 0.00175040 0.00449760 0.00085547
C 5.12311424 11.58559669 6.28321744 0.00108111 0.00390327 0.00191098
C 11.62287526 16.76882216 0.16480734 -0.01252252 0.00031465 -0.00136234
C 5.07562154 17.68774424 0.43375922 -0.00422451 0.00362027 -0.00357568
C -1.41764698 12.62317189 6.00366828 -0.00267690 0.00216052 -0.00841845
C 6.92241257 11.83582042 0.74625538 -0.00891939 0.00021997 -0.00779541
C 9.82087581 16.76046241 5.51902012 -0.00027055 -0.00149426 0.00682252
C 3.04605650 17.18850085 5.31804876 0.00458918 -0.00130705 0.00507941
C 0.51421192 12.53622201 0.66788049 0.00418885 0.00323172 0.00054211
C 6.03070849 12.82928724 0.39960777 -0.00387350 0.00311594 0.00084019
C -2.51061728 17.31991549 5.80469715 0.00249205 0.01403498 -0.00242830
C 4.05927192 16.43276681 5.88777868 0.00651891 0.00321772 -0.00756239
C 12.55567455 11.77843665 0.13432521 0.00965818 -0.00197898 0.00038941
C 1.86173817 14.75033908 3.74016482 -0.00240447 0.00892717 0.00727590
C 1.78101026 10.08467229 2.63762506 -0.00079077 0.00318192 0.00300993
C 8.51594921 14.55571489 2.52482100 0.00254179 -0.00027920 -0.00092253
C 8.47188463 19.18209749 3.58004514 0.00051973 0.00559489 -0.01231508
C 0.58599870 15.41206792 3.48354360 0.00095480 -0.00691363 -0.00160811
C 3.02552281 10.83653017 2.76657006 0.00017149 0.00179419 0.00179644
C 9.80353823 13.80033475 2.64967349 -0.00544299 -0.00521243 -0.00380823
C 7.51349315 18.08510175 3.30702464 0.00763150 -0.00005749 0.00450183
C 0.07159727 13.46029150 11.42413020 0.00211751 -0.00163393 -0.00758938
C -2.54245031 18.07340290 7.00200686 -0.00043004 0.00938999 0.00768405
C 3.93261874 15.70921344 7.08448567 -0.00331669 0.00325106 -0.00208659
C 6.74997697 10.70611116 11.27661633 0.00560297 -0.00152421 -0.00851069
C 1.29417958 13.46055240 10.73931534 0.00598025 0.00119851 0.00233835
C 9.37748793 18.30822367 7.76938860 0.00225389 -0.00106721 -0.00486893
C 2.76617286 15.94531192 7.80638157 0.00001426 0.00364755 0.00593581
C 34.27523128 11.10098014 10.69287336 -0.00702099 0.00552136 0.00437720
C 2.29489080 12.56796368 11.01334232 -0.00421142 -0.00836204 0.00151804
C 8.45506115 17.37003697 7.42988577 -0.01017193 -0.00147190 0.00339449
C 1.73772577 16.71918851 7.28973181 -0.00662538 -0.00808568 -0.00200962
C -4.35974735 11.98370769 11.13491766 -0.00023589 0.00281201 -0.00144803
C 2.19909430 11.74615777 12.15302659 -0.00008312 -0.00015809 0.00422977
C 8.62528105 16.64258908 6.24962126 0.00121127 0.00055353 -0.00640161
C 1.85067547 17.37009680 6.08357930 -0.00016016 0.00193655 0.00361467
C -4.58705848 12.89586176 12.18019080 0.00218492 -0.00091889 0.00167892
C 3.88796920 11.82807330 6.99705494 -0.00356934 0.00664174 0.00642409
C 6.79133544 16.68191089 11.67549402 0.00283345 0.00161997 -0.00165162
C 0.33254620 17.38415330 11.84377468 0.00411769 -0.00742414 0.00510291
C -2.63204633 12.57060299 6.72194596 -0.00464232 0.00049916 0.00020755
C 2.87809965 12.58353416 6.57997812 0.00189284 0.00118505 0.00293539
C -5.38838713 17.42436400 12.11930126 0.00419909 0.00116428 -0.00914741
C 1.19966221 16.35455499 12.28434058 0.00317677 -0.00037834 0.00502343
C 9.45086375 11.58033542 6.33214563 0.00541481 -0.00247265 -0.00054785
C -1.19810746 14.84802797 9.93307768 0.00311823 -0.00056287 -0.00106422
C -1.64224632 10.03914125 8.75632835 -0.00018534 -0.00374460 -0.00728010
C 5.20899241 14.45562915 8.67995970 -0.00778389 0.00610890 0.00503764
C 5.68513690 19.04068302 9.62733330 -0.00543272 0.00318168 -0.00426428
C -2.35162568 15.77213040 9.68856984 -0.00533829 -0.00091741 -0.00112702
C -0.51566179 10.97521634 8.92378426 0.00076025 -0.00608374 0.00241355
C 6.43765907 13.59470011 8.71082986 0.00247034 -0.00478354 0.00082786
C 4.46162287 18.23694467 9.37802455 0.00137899 -0.00140344 0.00342380
C -3.03977915 13.42825522 17.46431641 -0.00499886 0.00237699 -0.00485526
C -5.65111516 18.28552705 13.21252906 -0.00562971 -0.00033855 -0.00498559
C 0.78663710 15.62029833 13.37764087 -0.00203185 -0.00944228 -0.01088430
C 3.65461077 10.90788194 17.39668422 0.00295744 -0.00180677 -0.00328350
C -1.76305742 13.34785522 16.74694351 -0.00520024 0.00574692 -0.00164284
C 6.37399390 18.32685906 13.78929060 -0.00578668 -0.00314109 0.00068092
C -0.42033409 15.82282106 14.05102452 0.00371211 0.00428013 -0.00478826
C 31.38093630 10.93616161 16.61468887 0.00389825 0.00549111 0.01112265
C -0.77257891 12.46612006 17.12554978 0.00059337 0.00231034 -0.00115687
C 5.35925266 17.49365665 13.46081607 -0.00000514 -0.00094976 -0.00437213
C -1.21872563 16.86810207 13.60810282 -0.00162892 0.00455259 0.00714173
C -7.35942132 11.94657716 17.04467774 -0.00030321 0.00515336 0.00480428
C -0.92237642 11.69426699 18.21187089 -0.00373206 0.00692966 -0.00415812
C 5.55137075 16.55582489 12.38373342 -0.00476517 0.00227956 -0.00129592
C -0.85022692 17.62821747 12.49802788 0.00216239 0.00550177 -0.00443972
C -7.49904089 12.69797988 18.18623399 0.00464266 0.00659719 0.00062519
C 0.89055373 11.61379540 12.71938338 -0.00228589 0.00334712 0.00382202
C 3.95196916 16.62766435 17.84527138 -0.00187125 0.00532393 0.00545313
C -2.77697770 17.48346060 17.96185311 -0.00159871 0.00159392 -0.00181313
C -5.75445501 12.76874864 12.90060208 0.00228444 0.00218914 0.00034435
C -0.17032942 12.41377530 12.31267083 0.00695053 0.00242642 -0.00475897
C -8.37387476 17.22655050 18.38158025 0.00364789 -0.00544951 -0.00155289
C -1.77446534 16.66633042 18.43961684 -0.00616549 -0.00336221 -0.00925257
C 6.57320816 11.65406781 12.26296352 0.00513024 0.00318854 0.00117888
C -3.94896299 14.95688452 15.73257990 0.00024170 -0.00404988 0.00765665
C -4.72028654 10.15966930 14.89185940 -0.00212058 -0.00120507 0.00770743
C 1.80179223 14.15320292 15.03431821 -0.00112708 0.00686618 -0.00143988
C 2.64897197 18.86759825 15.77818747 0.00073460 0.00989987 0.00464855
C -5.00202742 15.98613283 15.50724232 -0.00354601 0.00144670 -0.00551192
C -3.71548003 11.24898090 15.06860155 0.00591645 -0.00199809 -0.00509065
C 2.73392475 13.11909232 15.44290539 0.00220130 0.00370536 -0.00370698
C 1.83011087 17.65204426 15.50434227 -0.00635117 0.00072608 0.00367007
C -5.84880687 13.64147737 23.68041631 -0.00035146 0.00593089 -0.00730038
C -8.59113025 18.16438227 19.47103316 -0.00234191 0.01000021 0.00310021
C -1.99107450 15.74130954 19.45971729 -0.00685025 0.00066119 -0.00800232
C 0.63674788 10.85943995 23.50003930 -0.00071706 -0.00526672 -0.00205997
C -4.67155195 13.49428923 22.91067383 0.00154308 0.00257573 -0.00453940
C 3.50893770 18.36394296 19.98001531 0.00459860 -0.00075360 0.00312885
C -3.12326093 15.89189007 20.15114793 0.00126438 -0.00713397 -0.00275634
C -11.09842717 10.94940767 22.82622570 0.00597885 0.00307333 0.00446005
C -3.74824455 12.53520112 23.24169764 0.00524827 -0.00548492 -0.00314434
C 2.58145548 17.36298980 19.64244209 -0.00393718 0.00643988 0.00203707
C -4.09806318 16.87344341 19.82040562 0.00798080 -0.00342969 -0.00582331
C -10.13774424 11.81314756 23.33259099 0.00115313 0.00569382 -0.00259736
C -3.96261029 11.73368188 24.31499443 -0.00086755 0.00000832 -0.00197336
C 2.73695264 16.48242624 18.49702869 -0.00285487 0.00164349 -0.00006881
C -4.04330256 17.57521564 18.62233372 0.00262377 0.00452236 -0.00324821
C 1.74176325 12.55818291 0.07396977 0.00537908 -0.00054673 0.00515508
C -2.06986210 11.79722548 18.99240010 -0.00274375 -0.00694076 0.00486348
C 0.82419329 16.80282698 23.93321947 -0.00402310 -0.00067625 0.00301888
C -5.74086673 17.67571735 24.10425189 0.00227923 -0.00063861 -0.00639811
C -8.74156022 12.62015952 18.86557156 -0.00305769 0.00045902 -0.00238539
C -3.10662148 12.65052781 18.66382029 0.00216315 -0.00069406 -0.00692943
C 0.59613041 17.30009320 0.06371164 0.00089615 -0.00407126 -0.00296251
C 7.27534961 16.81410555 0.06994821 -0.00290167 -0.00207417 -0.00080304
C 3.45378258 11.74356916 18.50430712 -0.00141819 -0.00347426 0.00557691
C -7.03403045 14.98350104 22.04340712 -0.00018046 -0.00201824 0.00300831
C -7.34001676 9.78874943 20.89232322 -0.00035689 0.00404705 0.00680389
C -0.82473503 14.38808340 20.99338776 0.00030995 -0.00728678 0.00065931
C -0.40531655 19.11499709 21.76054948 0.00329140 -0.00458673 -0.00636513
C -8.11256378 15.92987740 21.58766164 -0.00407116 -0.00234590 0.00455186
C -6.09316839 10.61557562 20.95593529 0.00098474 -0.00637268 0.00956616
C 0.23156161 13.35345826 21.17205372 0.00154422 -0.00424283 0.00008898
C -1.62044110 18.19220377 21.61549822 0.00158860 -0.00175818 -0.00525142
C 3.39520522 22.91824818 5.24150968 -0.00592383 0.00224057 0.00303401
C 0.41327164 27.82563611 1.06242193 -0.00118605 0.00199042 0.00155928
C 7.02446007 25.38384559 0.85191708 0.00088987 -0.00375773 -0.00136523
C 9.63216017 20.55184854 5.16703170 0.00226512 0.00051102 -0.00110112
C 4.66880726 22.93771590 4.59417325 0.00899540 -0.00127988 0.00344814
C 12.32276605 27.91036697 1.55099829 -0.00119944 -0.00187782 0.00357742
C 5.75904857 25.45079995 1.49970920 -0.00178847 0.00469176 0.00191954
C 37.39913305 20.56441428 4.44608587 -0.00438286 -0.00093804 0.00000612
C 5.60984705 21.98785861 4.92686516 -0.00643586 0.00516068 -0.00104813
C 11.28083976 27.18065807 0.97878017 -0.00444078 -0.00767108 0.00416530
C 4.72749907 26.21300345 0.99025899 0.00244015 -0.00012544 0.00349350
C -1.21894384 21.43065591 4.87519293 0.00130386 -0.00380163 0.00253436
C 5.39368646 20.93184409 5.83550051 -0.00305118 0.00540612 0.00240482
C -0.57258902 26.19114922 24.37538529 0.00225017 0.00358906 0.00245377
C -7.16855962 27.01180440 24.21308931 -0.00307611 0.00693242 -0.00548941
C -1.50808585 22.23969537 5.95189732 -0.00376055 0.01016488 0.00112754
C 7.25344633 21.60859440 0.46056762 0.00546888 0.00725876 0.00261096
C 9.81846090 26.66122257 5.50207546 0.00552812 -0.00194064 -0.00247382
C 3.54006906 26.93056500 5.70506934 0.00437288 -0.00294669 0.00051386
C 0.48158433 22.41682358 0.64078068 -0.01061339 -0.00036662 -0.00445111
C 6.16651876 22.36466291 0.02231463 -0.00191323 -0.00099695 -0.00149728
C -2.43037506 27.16401910 6.04154061 0.00322082 0.00049982 -0.00299411
C 4.49426328 26.05612043 6.10387043 0.00226487 0.00213915 -0.00604606
C 0.44304879 21.57538947 24.38127555 -0.00175744 0.00140224 0.00115056
C 2.19818035 24.49621581 3.81855065 -0.00031754 -0.00083569 -0.00429087
C 1.51556115 19.69264579 2.62397273 0.00573890 0.00559863 0.00105336
C 8.21870660 24.17215919 2.49904637 0.00410894 0.00174470 -0.00582271
C 8.60866328 28.84261752 3.46911823 0.01115951 0.00836743 0.00029638
C 0.98958670 25.38268060 3.81014071 0.00531411 -0.00137608 -0.00515150
C 2.76030404 20.34383944 2.97504941 0.00560837 0.00244527 -0.00512449
C 9.53742349 23.48180643 2.65810803 0.00091783 0.00384915 0.00746074
C 7.66220011 27.70311697 3.20798851 -0.00109443 0.00265634 0.00543373
C 0.28450977 22.93550896 11.29370216 -0.00056945 -0.00116485 0.00407501
C -2.61657650 27.99394588 7.15724614 0.00185076 0.00338509 0.00195534
C 4.26993044 25.17424160 7.20726657 -0.00555360 -0.00417490 0.00543550
C 6.70271540 20.45648775 11.31900077 -0.00796463 0.00317486 0.00332144
C 1.45440801 22.80961744 10.54159508 0.00432878 -0.00182257 -0.00722748
C 9.18787544 28.23895094 7.74241533 0.00592329 -0.00686098 0.00483845
C 3.06039249 25.31138228 7.89827341 -0.00542591 0.00251522 0.00664868
C 34.35234459 20.70535176 10.61820917 0.00132987 0.00404971 -0.00363770
C 2.39877013 21.87898578 10.88196316 0.00375062 -0.00203863 -0.00299449
C 8.29861764 27.24636143 7.32570273 -0.00053109 0.00234612 0.00047037
C 2.11598325 26.28119461 7.53696727 0.00847277 -0.00439560 -0.00334591
C -4.20225550 21.56828661 10.94969091 0.00190563 -0.00342413 0.00552826
C 2.20796406 21.06534866 12.00645059 0.00277557 -0.00014890 0.00293810
C 8.56612709 26.47325863 6.23290765 0.00574277 -0.00153927 0.01132013
C 2.31549681 27.04544571 6.39139399 0.00445191 -0.00398039 0.00046481
C -4.25274892 22.18507852 12.25032228 0.00867436 0.00347149 0.00098463
C 4.05878640 20.99865016 6.37937378 0.00733183 -0.00600240 0.00342264
C 6.67100323 26.30605877 11.76973346 -0.00427438 0.00329430 0.00508988
C 0.30929453 27.01643719 11.52342619 -0.00403046 -0.00005331 0.00072449
C -2.72099096 22.30313492 6.60949874 -0.00148429 -0.00315030 0.00586676
C 3.07550425 21.88791345 6.16145356 -0.00287331 -0.00010379 -0.00005164
C -5.43191710 26.95813937 12.08537429 -0.00202901 -0.00318403 -0.00355340
C 1.28302747 26.15773340 11.98735283 -0.00031213 0.00545691 0.00360689
C 9.39580843 21.48453855 6.15034213 -0.00008800 0.01279143 0.00570874
C -1.00722861 24.23287259 9.70894660 0.00880491 -0.00190890 -0.00291093
C -1.33728928 19.46497531 8.63250350 -0.00022083 0.00159618 0.00083136
C 5.42195255 23.73212018 8.81822820 -0.00699023 0.00289868 0.00268271
C 5.46268076 28.75937641 9.64146179 -0.00299419 0.00454237 -0.00005286
C -2.12099246 25.20106700 9.53741081 0.00275287 0.00189513 -0.00569105
C -0.15736525 20.37447656 8.74204289 0.00474344 0.00795370 0.00204081
C 6.60888207 22.80124020 8.97324241 0.00016217 0.00343155 0.01117093
C 4.20530021 27.96804472 9.53711437 0.00238826 -0.00525074 -0.00078319
C -2.89910267 23.23237760 17.19442963 0.00100437 -0.00523601 0.00426696
C -5.65838926 27.73880414 13.22603246 -0.00257545 0.00600547 -0.00129817
C 1.06546154 25.41702663 13.10737950 0.00412041 0.00026402 0.00460677
C 3.64795018 20.47934156 17.31313956 -0.00187255 0.00176520 -0.00980236
C -1.64658058 23.02816364 16.56635011 -0.00039020 0.00136703 -0.00729328
C 6.15984281 28.08282982 13.89392154 0.00582108 0.00463600 -0.00254034
C -0.14086104 25.64323678 13.80497604 0.00485322 0.00142331 0.00279367
C 31.27514126 20.28238483 16.72340706 -0.00408134 -0.00393439 0.00639749
C -0.74571259 22.10418457 16.93025512 -0.00645422 0.00342500 -0.00066963
C 5.23105368 27.19716767 13.47311358 -0.00049706 0.00675766 -0.00384667
C -1.12395592 26.48926169 13.29226793 -0.00709784 0.00264908 -0.00650513
C -7.40888981 21.28344426 16.97731772 -0.00441183 -0.00436610 -0.00572039
C -0.83094353 21.38845594 18.21198664 0.00450209 -0.00254312 -0.00118918
C 5.45727275 26.34092852 12.35716249 0.00631112 0.00012891 0.00406317
C -0.91753154 27.23392410 12.10461706 -0.00433018 -0.00364282 0.00964904
C -7.46933472 22.12312165 18.09994353 0.00529849 0.00887225 -0.00133597
C 1.09754255 21.25562109 12.79564164 -0.00035982 -0.00118594 0.00059928
C 3.87614351 26.30061954 17.59924184 -0.00127361 0.00494684 0.00108322
C -2.91975329 27.20328763 17.65445628 0.00536822 0.00731060 -0.00084016
C -5.37492496 21.98698416 12.99459408 -0.00233765 -0.00261566 -0.00684337
C 0.18135167 22.27063334 12.51661499 0.00206378 0.00261431 0.00352601
C -8.20050223 26.92662480 18.34754940 0.00105357 0.00125021 -0.00341858
C -1.81969922 26.49379004 18.06593481 0.00399138 -0.00050512 -0.01398263
C 6.40987947 21.39606205 12.35060469 -0.00272254 0.00137576 -0.00007997
C -3.84759592 24.64346313 15.54847447 0.00846149 -0.00395342 0.00101382
C -4.34334294 19.68552083 14.82958480 -0.00163329 -0.00566872 0.00774874
C 2.04051255 23.94082888 14.81389888 0.00241767 -0.00042644 -0.00318111
C 2.11969339 28.84310252 15.96203490 0.00670166 0.00196726 -0.00697453
C -4.91124358 25.59419049 15.27579289 -0.00093843 -0.00197548 0.00219739
C -3.16464650 20.63264409 14.99389182 -0.00493705 0.00789949 -0.00441982
C 3.30503093 23.16239697 15.08290846 -0.00357592 0.00433996 0.00270653
C 0.74499996 28.24481413 15.91460309 -0.00019046 0.00531691 -0.00316724
C -5.73173298 23.12310651 23.28371131 0.00010878 0.00262801 0.00452659
C -8.42845931 27.89828122 19.34649334 -0.01454871 0.01088918 0.00377609
C -1.98855087 25.55674686 19.16234333 0.00051211 -0.00330730 0.00271007
C 0.64819442 20.70016948 23.27584893 -0.00368258 0.00538998 0.00581648
C -4.46187392 23.18900997 22.59084280 -0.00430039 0.00357286 0.00625632
C 3.45641838 27.67860262 19.98616605 0.00360719 0.00492000 -0.00060526
C -3.17623079 25.52631611 19.86655621 0.00152440 -0.00345989 0.00435786
C -11.03068151 20.73724641 22.86113000 -0.00113537 0.00436297 -0.00335201
C -3.42479285 22.35774930 22.98649978 -0.00094344 0.00749423 -0.00360257
C 2.47158129 26.87319305 19.53268297 -0.00173821 -0.01254129 0.00137560
C -4.25654403 26.30862957 19.45246607 -0.00280983 0.00150920 -0.00342162
C -10.09150048 21.69021872 23.31032509 -0.00613581 -0.00184685 -0.00950053
C -3.56369713 21.57923151 24.16089291 0.00214491 -0.00231729 0.00483954
C 2.63919126 26.12351196 18.36377407 0.00500382 0.00806079 -0.00343774
C -4.12692682 27.30370877 18.44340354 0.00543825 -0.00129944 0.00094157
C -10.35363866 22.55685935 24.34639892 -0.00007038 -0.00473746 -0.00211262
C -2.06517614 21.56400340 18.85972009 -0.00507690 -0.00854370 0.00584597
C 0.78233456 26.15670141 23.90646412 0.01252395 -0.00004128 -0.00592470
C -5.93724453 26.87047968 23.59168123 0.00445694 -0.00596717 -0.00270124
C -8.67967641 21.98142640 18.91022534 0.00104310 0.00780478 0.00545160
C -3.04180768 22.41918376 18.38319519 -0.00152594 0.00692945 -0.00644326
C -11.45966145 26.95603875 24.34478962 0.00179043 -0.00037752 -0.00492578
C -4.86189439 26.11161982 24.07734362 0.00310828 0.00986319 -0.00391613
C 3.39746805 21.43204036 18.36165644 -0.00511198 0.00615378 -0.00201984
C -6.96355691 24.48024420 21.68799094 -0.00279651 0.00017213 0.00536730
C -7.32364081 19.54473410 20.98677400 -0.00227820 -0.00242957 -0.00408916
C -0.73244057 24.18321344 20.66242797 -0.00200620 0.00044385 0.00010662
C -0.39790807 28.71396603 21.78471695 0.00038019 0.00187233 -0.00674215
C -7.95272225 25.58453702 21.48508681 -0.00366333 -0.00515900 -0.00496808
C -6.21060818 20.46380667 21.09628230 -0.00298827 -0.00185526 0.00393945
C 0.47275476 23.31553576 20.72183955 -0.00121094 0.00350226 -0.01100677
C -1.72020623 28.00335628 21.61409463 -0.00569039 -0.01114039 0.00173328
C 16.27013480 3.78508248 4.89600963 -0.00366752 -0.00825917 0.00876224
C 13.68717250 8.83571743 0.94967964 0.00615927 0.00236580 0.00405934
C 20.24754199 6.00328721 0.92705455 0.00005491 0.00131745 -0.00035892
C 22.90990153 1.07900283 5.33863899 -0.00670613 0.00106157 0.00196530
C 17.53972459 3.69888433 4.22605319 0.00044205 -0.00204536 -0.00495086
C 25.36379983 8.44273259 1.50446060 0.00658677 0.01039898 0.00195628
C 18.98680203 6.26431148 1.42847047 0.00623682 0.00341009 0.00756201
C 10.85611956 1.27081768 4.24817657 0.00700532 0.00286714 -0.00498419
C 18.50043992 2.73680565 4.67462081 -0.00022809 0.00206465 0.00069631
C 24.37215662 7.64123409 1.04073540 -0.00175479 0.01094973 0.00125175
C 18.24242298 7.31424848 0.95289034 -0.00529424 -0.00364976 -0.00548196
C 11.90656858 2.11225712 4.57797909 0.00393861 -0.00006989 0.00291834
C 18.28201028 2.02683329 5.87854131 0.00638558 0.00001607 0.00154448
C 12.51867710 6.75723978 24.35290821 -0.00273783 0.00187182 0.01158120
C 6.55550211 8.09680199 24.22192414 0.00378463 -0.00082821 -0.00293011
C 11.80742733 2.97624898 5.72564771 0.00429679 -0.00030964 -0.00267012
C 20.09200922 2.11693861 0.48602102 0.00233848 -0.00513637 0.00282635
C 22.80984821 6.93861800 5.23445394 -0.00122464 0.00385852 -0.00482236
C 16.22569331 7.65551211 5.49701647 -0.00378855 -0.00353970 -0.00038676
C 13.63938633 2.80708039 0.28999928 -0.00459435 -0.00023527 0.00316151
C 19.10461412 2.92298176 0.02133501 -0.00440549 -0.00308664 -0.00334179
C 10.64490393 7.90627404 5.79697661 -0.01312733 -0.00098543 -0.00426441
C 17.22141179 6.82933519 5.86046319 0.00189832 -0.00140547 0.00341153
C 25.89639143 2.10721888 0.17478760 -0.00584530 -0.00312211 0.00201677
C 15.00165009 5.14264468 3.30466238 -0.00503919 0.00270861 0.00412009
C 14.69590392 0.25314712 2.66902114 -0.00001731 -0.00010776 0.00308300
C 20.95158438 4.45475512 2.64130223 -0.00409493 0.00068127 -0.00141655
C 21.63750330 9.63656980 3.44839812 0.00280129 -0.00343867 -0.00573376
C 13.79352743 6.00505297 3.10154509 -0.00127943 -0.00525677 -0.00445016
C 15.94753742 0.96480152 2.81509774 0.00497071 -0.00397570 0.00645553
C 22.00251749 3.40484125 3.10995769 0.00257980 0.00105656 -0.00167571