2880
Time=21999.99999999 pbc="T T T" Lattice="39.48106929 0.00000000 0.00000000 0.00000000 28.96223003 0.00000000 -12.03386630 0.00000000 24.42551725" energy=-18400.21509421 virial="58.71644080 2.70833244 -35.08938545 2.70833244 -10.80898403 -10.29032384 -35.08938545 -10.29032384 -40.70563871" stress="0.00472376 0.00008989 -0.00131714 0.00008989 0.00205121 -0.00039990 -0.00131714 -0.00039990 0.00110503" Properties=species:S:1:pos:R:3:vel:R:3
C 3.23507542 3.79730152 5.15927946 -0.00762924 0.00015260 -0.00207611
C 0.30103940 8.70275958 1.01549097 0.01013211 0.00313896 -0.00047589
C 7.01887679 6.18070687 1.01266866 -0.00174927 -0.00703585 -0.00445639
C 9.78853989 1.10543096 5.15452381 -0.00104758 -0.00371984 0.00772978
C 4.40132328 3.62013881 4.44442221 -0.00377105 -0.00243665 -0.00141236
C 12.27391781 8.45447485 1.64169927 -0.00391253 -0.00128904 0.00436667
C 5.84688901 6.18342758 1.77231491 0.00359191 0.00084195 -0.00181526
C 37.20704962 1.12835508 4.51710588 -0.00977008 -0.00443905 -0.00363996
C 5.35624794 2.72584034 4.85107835 -0.00108783 0.00241345 0.00082836
C 11.35692240 7.43864680 1.35819303 0.00097905 0.00389617 0.00411301
C 4.79742076 7.02920812 1.39192816 -0.00585738 -0.00204466 0.00336538
C -1.30349314 2.05758579 4.81755329 -0.00220199 0.00226428 0.00027511
C 5.10736538 1.83965682 5.93633388 -0.00239901 0.00235804 0.00198107
C 11.59027589 6.58421880 0.21624987 0.00497308 0.00075683 0.00461470
C 4.90265902 7.84155735 0.28161450 -0.00278171 0.00715715 0.00174089
C -1.39203834 2.87638296 6.00319192 0.00067455 -0.00298144 -0.00258624
C 7.30013841 2.16446186 0.76612555 -0.00261937 0.00158576 0.00263634
C 10.06431848 6.98257955 5.61870822 0.00275012 -0.00177654 0.00422340
C 3.38426793 7.69950715 5.49884534 0.00548320 -0.00065419 0.00267335
C 0.47734967 2.93782318 0.39232960 -0.00155090 -0.00412920 -0.00736767
C 6.23456615 2.98727789 0.26717076 -0.00081282 0.00142306 -0.00213958
C -2.36870806 7.96297566 5.87119116 0.00800976 0.00018889 -0.00442648
C 4.29701901 6.77364392 5.94046496 0.00077312 0.00379423 0.00165103
C 12.71771864 1.95685292 0.17328913 0.00739554 0.00107022 -0.00228433
C 1.93205721 5.09261388 3.54755365 -0.00740753 -0.00270597 -0.00564515
C 1.59625439 0.16205105 2.56001776 0.00114870 -0.00414476 -0.00422493
C 8.28302279 4.74135202 2.55655311 0.01062032 0.00271521 0.00023416
C 8.48859423 9.18628642 3.78906378 -0.00484090 -0.00083756 0.00476540
C 0.81465284 5.98990316 3.34381818 -0.00320364 0.00417305 0.00397340
C 2.72370368 1.16245373 2.83437257 0.00445205 0.00040753 -0.00916838
C 9.60494216 4.07516707 2.53458641 -0.00615709 -0.00064704 -0.01293138
C 7.29146252 8.36064800 3.74432373 -0.00618822 0.00759706 0.00266808
C 0.01910027 3.77910073 11.28258563 0.00733939 0.00337569 -0.00472550
C -2.58496627 8.69750027 7.06974693 0.00242899 -0.00203223 -0.00569253
C 4.05211437 5.94269264 7.04827350 -0.00040933 -0.00130793 0.00370693
C 6.80137014 1.00450102 11.51488729 -0.00017001 -0.00224537 0.00293265
C 1.25866108 3.64150666 10.61008709 -0.00094757 0.00155216 -0.00069128
C 9.48165965 8.64289928 7.80748883 0.00647276 -0.00068954 -0.00520438
C 2.87806252 6.11257461 7.75527029 -0.00260390 0.00065473 -0.00767470
C 34.09496190 1.03583136 10.46744791 0.00354536 -0.00342009 -0.01220077
C 2.21078426 2.83094882 11.06587683 0.00388543 0.00168509 0.00900964
C 8.53561665 7.70365550 7.38022735 -0.00254408 0.00470296 -0.00535372
C 1.88500015 6.96907983 7.28842279 0.00078946 -0.00184305 -0.00774198
C -4.39438355 1.92074847 10.86018546 0.00018402 -0.00019050 0.00209118
C 2.04805474 1.98739729 12.19040274 0.00635362 -0.00353268 0.00023920
C 8.79857557 6.94643067 6.23124950 -0.00228778 0.00013518 -0.00727810
C 2.15127823 7.78734249 6.10882933 -0.00030702 -0.00431153 0.00932693
C -4.61224840 2.78058344 11.94992247 0.00164498 -0.00373649 -0.00040436
C 3.89911379 1.93357506 6.60408800 -0.00677769 -0.00149258 0.00401162
C 6.92924403 6.83753145 11.62133671 0.00193417 0.00461242 0.00428963
C 0.19260637 7.77577029 11.83339908 -0.00442782 0.00138267 -0.00062298
C -2.58279095 2.71285065 6.76035715 -0.00554947 0.00186092 0.00630935
C 2.98348364 2.92942858 6.22662159 0.00099307 -0.01021519 0.00247791
C -5.39633024 7.68865174 12.37943761 0.00076087 -0.00130671 -0.00183643
C 1.21005369 6.85616585 12.11078700 0.00385609 -0.00028525 -0.00902035
C 9.58905764 1.97544504 6.29245459 0.00041514 0.00121552 0.00412251
C -1.21897550 4.93304230 9.70137318 0.00650316 -0.00054674 0.00365091
C -1.64361474 0.13293967 8.77352831 -0.00282759 0.00809415 0.00198301
C 5.17081482 4.43444551 8.65262867 -0.00233358 0.00108148 0.00160954
C 5.55265292 9.19658176 9.72843817 0.01287511 0.00117480 0.00325986
C -2.41702185 5.83747081 9.52355754 0.00399551 -0.00030761 -0.00324769
C -0.48866313 1.06618338 9.10594734 -0.00043154 0.00825740 -0.00028048
C 6.28720728 3.37042041 8.80903213 0.00428141 0.00242826 -0.00657132
C 4.44004024 8.20864182 9.48318756 -0.00570425 0.00824580 -0.00343521
C -2.92987424 3.79116422 17.13194370 0.00478071 -0.00529436 0.00401055
C -5.70760496 8.55671486 13.38996317 0.00074424 -0.00257397 -0.00470822
C 1.07178897 5.92498166 13.15791119 -0.00276337 0.00131369 -0.00045496
C 3.53659803 1.14016164 17.34295863 -0.00156997 -0.00478258 -0.00390264
C -1.67378336 3.70131136 16.48239044 0.00421665 -0.00283844 0.00346355
C 6.49146408 8.44809773 13.91341895 0.00085731 -0.00017903 0.00274106
C -0.12550340 6.02081533 13.86686072 -0.00217276 -0.00053584 0.00206508
C 31.09594287 1.24768961 16.53039340 -0.00207796 0.00378122 0.01066222
C -0.73812554 2.77517824 16.88160958 0.00149645 0.00475918 -0.00008921
C 5.44113089 7.70098599 13.45788926 0.00122981 0.00527375 0.00107111
C -1.12897454 6.94944984 13.57156083 -0.00350852 0.00759959 -0.00093247
C -7.33945449 2.02296543 17.03757637 0.00427439 -0.00661923 0.01070117
C -0.94386486 2.05045135 18.04560051 0.00205204 -0.00196947 0.00323562
C 5.67192708 6.82441747 12.31482315 0.00741537 -0.00049960 -0.00179656
C -1.06965529 7.78753236 12.47203448 0.00529082 -0.00885897 0.00079846
C -7.46352345 2.97344869 18.00617978 0.00333892 -0.00273541 -0.00218583
C 0.83373988 2.12137431 12.90281294 0.00223195 0.00009288 0.00755528
C 3.90911901 6.86707465 17.73403042 0.00052364 0.00026555 -0.00329522
C -2.95707676 7.64192804 17.85156444 -0.01052784 0.00243849 -0.00662222
C -5.86870993 2.70917177 12.57757929 0.00171286 0.01165125 0.00794578
C -0.11266259 2.96180318 12.41084319 -0.00791459 0.00159490 0.00191876
C -8.44479991 7.58648434 18.23683487 0.00497415 0.00947722 0.00277596
C -1.97788131 6.75458429 18.14075640 -0.00340831 0.00447806 0.00063489
C 6.59224222 1.81910802 12.61797572 -0.00606226 0.00059348 0.00500914
C -4.02900793 5.18425300 15.44837898 0.00319899 -0.00168677 -0.00467423
C -4.70473296 0.33922102 14.69655883 0.00426546 -0.00693393 0.00121396
C 2.23423126 4.64826713 14.73541493 -0.00472841 -0.00194103 0.00198920
C 2.42567962 9.38555157 15.98549840 0.00030501 0.00135921 -0.00116580
C -5.29609538 5.90937448 15.20184675 -0.00743807 -0.00146498 0.00346190
C -3.49534601 1.30159341 15.04271122 -0.00712070 -0.00131173 0.00611027
C 3.36760220 3.75217321 15.01751714 -0.00790906 0.00201096 0.00121490
C 1.30257749 8.39211081 16.05979552 -0.00267784 -0.00161139 -0.00412128
C -5.67106557 3.68402790 23.51763475 0.00023677 -0.00275317 0.00459171
C -8.70556349 8.44013215 19.30551238 -0.00373082 -0.00095806 0.00277579
C -2.15179687 5.91703625 19.28554407 0.00498266 -0.00320819 0.00086231
C 0.82550120 1.08619286 23.51050299 0.00708241 -0.00228713 -0.00501214
C -4.45499904 3.57568469 22.78389593 0.00645478 -0.00430498 -0.00124849
C 3.28459705 8.42709742 20.07165481 -0.00324631 0.00212349 0.00439817
C -3.37256621 5.85663215 19.93289079 0.00752622 -0.00467556 0.00674687
C -11.15579057 1.17490506 22.77097128 -0.00223462 -0.00146396 -0.00116464
C -3.40905021 2.78116784 23.21840354 0.00268955 -0.00320631 -0.00318611
C 2.40973299 7.41539778 19.57165511 0.00488147 -0.00551005 0.01037710
C -4.34366868 6.78812174 19.62279878 0.00629595 0.00174220 -0.00657020
C -10.14574580 2.01638579 23.06379446 -0.00415436 -0.00159799 -0.00886056
C 8.44026713 2.08341283 0.02054859 -0.00506885 -0.00068099 -0.00003683
C 2.66431755 6.67324691 18.42208373 0.00774352 -0.00647538 -0.00504200
C -4.19192688 7.63523171 18.54119153 0.00776268 0.00074897 0.00899086
C -10.31211806 2.81315797 24.23830349 0.00103609 0.00363218 0.00523581
C -2.20502220 2.09183671 18.71228198 -0.00580182 -0.00104839 -0.00810237
C 0.81603883 6.66430321 24.02717060 0.00496652 0.00114460 -0.00016736
C -5.93006033 7.78942759 23.94566907 -0.00254188 -0.00350117 -0.00074971
C -8.68391655 2.92597945 18.74856035 0.00052036 -0.00691442 -0.00577850
C -3.15028339 2.96937596 18.25052789 -0.00575140 0.00123021 0.00630192
C -11.43190588 7.81702458 24.39846188 0.00086773 -0.00568881 -0.00291278
C -4.86387596 6.97602117 24.32831202 -0.00729837 0.00151012 0.00539392
C 3.44391607 1.93911764 18.50982901 0.00009390 0.00184871 -0.00451805
C -7.05942777 4.98362907 21.95960886 0.00294208 -0.00581979 -0.00100680
C -7.71232121 0.32266436 20.86263354 0.00097697 -0.00112263 0.00382126
C -0.90889547 4.51390764 20.81901036 -0.00558833 -0.00676310 -0.00104254
C -0.68231668 9.29010727 21.75476450 -0.00593981 -0.00141979 -0.00466338
C -8.34024302 5.71394586 21.92706260 0.00132848 -0.00022114 -0.00265066
C -6.58805011 1.20616991 21.26407198 0.00736347 0.00030893 0.00890588
C 0.26791478 3.53271107 20.92474222 -0.00479786 -0.00864560 -0.00476977
C -1.80122169 8.38201837 21.51947506 -0.00247104 0.00277547 -0.00209077
C 3.46749014 13.37993939 5.22009565 -0.00248940 -0.00557682 0.00942848
C 0.52944810 18.17403566 1.06969405 0.00152123 0.00155863 -0.00565239
C 7.07184671 15.70992181 1.01888618 0.00215309 0.00052186 -0.00030066
C 9.66992783 10.70795712 5.22604675 0.00084104 -0.00370514 -0.00368866
C 4.62864253 13.14294601 4.43168783 -0.00156642 0.00039676 0.00272858
C 12.16229133 18.07232363 1.69664366 0.00884371 0.00477510 -0.00708819
C 5.88916696 15.84009832 1.74193061 -0.00430839 -0.00316102 0.00366478
C -2.02243720 10.84962542 4.55113570 -0.00221707 -0.00101312 0.00443658
C 5.62394123 12.28062154 4.84159701 0.00472260 0.00212119 0.00126577
C 11.14260929 17.17373168 1.34408949 -0.00324704 0.01167506 0.00406008
C 4.92219795 16.71106787 1.33261833 0.00520233 -0.00790110 0.00065023
C -1.08004835 11.77934403 4.83404062 0.00222612 -0.00442434 -0.00034019
C 5.40309911 11.42184059 6.02592641 -0.00464923 0.00124505 -0.00160443
C 11.32308856 16.27834163 0.18855404 0.00676888 0.00491949 -0.00165084
C 5.14941774 17.57566208 0.20184294 -0.00340450 -0.00851986 0.00466584
C -1.20783972 12.68804386 5.90156863 -0.00551163 0.00424763 -0.00336905
C 6.82775410 11.65150190 0.63665946 -0.00783199 -0.00713308 -0.00423371
C 9.67939649 16.49023371 5.57768284 0.00208550 -0.00751605 -0.00905932
C 3.52924119 17.52814645 5.87601515 0.00145938 -0.00170042 0.00748180
C 0.38085804 12.55757795 0.77801201 0.00311794 0.00815272 -0.00147812
C 5.90276582 12.59998853 0.23649330 -0.00444680 -0.00826674 -0.00517999
C -2.24953916 17.22756712 6.00150220 -0.00813801 -0.00242398 0.00646224
C 4.32574921 16.54741611 6.29877436 0.00101092 -0.00389924 0.00338202
C 12.27175549 11.42728740 0.08993270 -0.00190246 0.00237182 -0.00724533
C 2.33915110 14.88684144 3.70458705 0.01189079 0.00568386 0.00101158
C 1.38762060 10.19752664 2.62394193 0.00042637 -0.00080523 -0.00007217
C 8.30780400 14.17875318 2.60674599 0.00308746 0.00047240 0.00459484
C 8.56515213 19.20264689 3.67561984 -0.00960998 -0.00366703 0.00348292
C 0.95991001 15.50753623 3.51958374 0.00054849 -0.00344361 -0.00517144
C 2.48752558 11.19234293 2.82429727 0.00690481 -0.00294669 -0.01171606
C 9.29233278 13.03869375 2.75563142 0.00593737 -0.00439898 0.00300653
C 7.38164346 18.30784976 3.42563728 0.00125410 0.00388205 0.00511341
C 0.27274209 13.26377721 11.05115697 -0.00101363 0.00355437 0.00315818
C -2.44628230 18.11510493 7.06828229 -0.00426539 0.00254967 -0.00114024
C 4.10776273 15.75463801 7.45963942 -0.00283526 -0.00300559 -0.00328803
C 6.60780217 10.64745415 11.31318651 -0.00014566 -0.00184922 0.00229726
C 1.52772902 13.23784676 10.48367821 -0.00088389 0.00369827 -0.00393443
C 9.27192928 18.12285475 7.84252811 0.00075311 -0.00751158 0.00167510
C 2.93450222 15.91016404 8.14610965 0.00118324 0.00513005 0.00198234
C -4.87544227 11.21377992 10.51265918 -0.00775498 0.00627046 -0.00415750
C 2.49192099 12.35695240 10.93030499 -0.00037767 -0.00246654 -0.00751400
C 8.34209660 17.16846088 7.46725802 0.00206424 0.00260582 0.00104861
C 2.04599289 16.89204393 7.65608887 -0.00152834 -0.00115228 0.00214560
C -3.85975582 11.93039339 11.11870117 -0.00357865 0.01098479 -0.00123326
C 2.25098322 11.60779730 12.09385663 0.00966389 -0.00216121 -0.00110881
C 8.54531295 16.38065494 6.31403670 0.00366461 -0.00007967 0.00558400
C 2.28798026 17.69281719 6.51163809 -0.00924090 0.00192406 0.00766789
C -4.11474390 12.80933352 12.20812745 0.00475885 0.00197524 -0.00729010
C 4.15029703 11.58096145 6.69845608 -0.00688540 -0.00378606 -0.00392175
C 6.52444514 16.66742489 11.72938227 -0.00475341 -0.00173249 -0.00296206
C -0.07986106 17.25115749 11.53579664 -0.00055099 0.00289678 0.00053656
C -2.43843186 12.64384073 6.58239122 0.00071112 -0.00571742 0.00238269
C 3.20656466 12.59482132 6.32344126 0.00112987 -0.00367893 0.01326087
C -5.63265713 17.39188143 12.07903206 0.00565961 -0.00483437 -0.00064106
C 0.91409067 16.46882952 11.98716824 -0.00043708 -0.00188577 -0.00588211
C 9.48845589 11.55144955 6.34508416 0.00245369 -0.00194751 0.00093512
C -0.76693350 14.79809488 9.48196932 -0.00232835 0.00602000 0.00971307
C -1.35485052 9.93816151 8.75316089 -0.00335620 0.00004006 -0.00127538
C 5.25978315 14.15908917 8.89118700 0.00226724 0.00176904 -0.00337842
C 5.44667870 19.18083634 9.81420724 -0.00070983 -0.00395671 -0.00074606
C -1.96090733 15.67169506 9.38188452 0.00155184 -0.00546918 0.00279622
C -0.19888853 10.84271818 8.92962405 -0.00163863 0.00137595 0.00765802
C 6.36628687 13.07094511 8.89377460 -0.00810692 0.00649842 0.00055436
C 4.17269980 18.41489885 9.63711185 0.00949027 0.00280839 0.00227950
C -2.92746342 13.28583472 17.21222966 -0.00543763 0.00137929 -0.00977301
C -5.85149161 18.14697616 13.29554945 -0.00115812 0.00059654 -0.00173201
C 0.76598520 15.59212507 13.09065954 -0.00014061 0.00457412 -0.00192329
C 3.69284032 10.87619494 17.47181033 -0.00252082 0.00356435 -0.00355473
C -1.67893977 13.13296004 16.61301189 0.00015792 0.00213314 0.00375850
C 6.12930675 18.23782745 13.98443520 -0.00454650 -0.00261139 -0.00736559
C -0.48487131 15.65896355 13.78634206 -0.00123464 -0.00150951 -0.00023742
C -8.11843729 10.73964562 16.71009212 -0.00079096 0.00367480 0.00079869
C -0.73438111 12.18792177 16.94067980 0.00096873 -0.00309903 -0.00022147
C 5.17809403 17.32512748 13.63407372 0.00110013 -0.00271545 -0.00231699
C -1.53805135 16.43319676 13.28164328 0.00884931 -0.00111688 -0.00184082
C -7.22032288 11.62650931 17.25857021 -0.00724595 0.00384973 0.00300638
C -1.01167567 11.35919433 18.05565507 0.00298588 -0.00394250 -0.00430900
C 5.33655738 16.50519510 12.50964219 -0.00360901 0.00482828 0.00196770
C -1.39492319 17.29057687 12.16601145 0.00642417 -0.00361826 -0.00130867
C -7.44468165 12.41356679 18.34826048 -0.00039792 0.00165489 0.00071231
C 0.90161697 11.70040216 12.77107205 0.00888083 -0.00614396 0.00259296
C 3.49918922 16.38107304 17.96073724 -0.00228564 0.00061028 -0.00223527
C -3.09930260 17.40251307 17.71432592 -0.00245409 0.00300272 -0.00850813
C -5.37433002 12.69600057 12.81727507 -0.00370000 0.00586504 0.00235135
C 0.01514346 12.51484041 12.20245548 -0.00098138 0.00306582 -0.00551883
C -8.55214464 17.30900631 18.11154706 -0.00214423 0.00412185 0.01090275
C -2.16925817 16.43356639 17.97538451 -0.00094842 0.00405314 0.00742961
C 6.36934266 11.47915769 12.46735054 -0.00996945 0.00591157 -0.00088801
C -4.03737604 14.86303175 15.73346590 0.00171868 0.00006016 0.00437981
C -4.74349640 9.94540649 15.10114301 0.00435147 -0.00265744 -0.00730350
C 2.14269034 14.36525278 14.63746338 0.00237351 0.00297361 -0.00216226
C 2.57664054 19.02872108 15.48932339 0.00325378 0.00394771 -0.00131283
C -5.34707593 15.49955775 15.49539965 -0.00350052 -0.00178817 -0.00180709
C -3.65725719 10.94027117 15.43161035 -0.00355029 0.00278942 -0.00440512
C 3.42655521 13.62690702 14.93298052 -0.00094970 0.00180378 -0.00055459
C 1.37552917 18.09679112 15.30457922 0.00155239 0.00032004 0.00381067
C -5.84008838 13.44046043 23.60713415 0.00251975 0.00301145 -0.00296823
C -8.68600946 18.07669201 19.29456045 0.00358879 -0.00532497 0.00184492
C -2.27896504 15.62733789 19.11629000 -0.00370310 0.00202735 -0.00032492
C 0.41644224 10.66380241 23.36578356 -0.00094071 -0.00199111 -0.00633522
C -4.64369061 13.25736346 22.86389312 -0.00240717 0.00250509 0.00109636
C 2.97598762 18.24478380 19.90268930 0.00232583 0.00020219 0.00186664
C -3.41778087 15.71476203 19.91484200 0.00449400 -0.00474866 -0.00071726
C -11.08932503 10.99858516 22.91453953 0.00513232 -0.00596911 0.00530100
C -3.71864156 12.28891349 23.23614740 0.00307026 -0.00002699 -0.00329832
C 1.94867388 17.40938614 19.42555539 -0.00033353 0.00162845 0.00138471
C -4.40953516 16.51589237 19.51726268 -0.00163989 0.00619663 -0.00173808
C -10.19895588 11.93839871 23.37479902 0.00356681 0.00606559 0.00870881
C -3.96644905 11.51657548 24.39722438 -0.00177342 0.00216050 -0.00341359
C 2.18271858 16.44434371 18.39392294 0.00184963 0.00260138 0.00395101
C -4.26795921 17.41643821 18.44078058 -0.00576341 -0.00260241 -0.00028936
C 1.65328514 12.62581187 0.16418826 0.00023862 0.00331437 0.00102574
C -2.15025073 11.56863186 18.78759330 -0.00077176 -0.00361548 -0.00146544
C 0.42453689 16.49287574 23.80568423 0.00389345 0.00125091 0.00375572
C -5.68304458 17.44927798 23.91168236 0.00106254 0.00250468 -0.00852586
C -8.70850255 12.35519789 18.91850822 -0.00878290 -0.00359709 0.00592713
C -3.09435096 12.53369664 18.36683847 0.00550885 -0.00608111 -0.00365043
C -11.31258003 17.32345620 24.38622700 0.00094833 -0.00236359 0.00136521
C -4.64950588 16.54078378 24.34580673 0.00753924 -0.00148594 -0.00435062
C 3.61177613 11.80856329 18.52754685 0.00382488 0.00507740 0.00307236
C -7.20445952 14.77037948 22.02096501 0.00436107 -0.00212044 0.01088339
C -7.71001596 9.77358542 21.04288184 -0.00531791 -0.00606691 0.00559804
C -1.02828106 14.30927777 20.65923713 0.00627348 -0.00110441 -0.00667130
C -0.69811111 19.01979633 21.78489282 -0.00270228 0.00167423 -0.00541490
C -8.46150973 15.53088766 21.91437528 0.00621488 0.00155902 -0.00793150
C -6.61304238 10.80606192 21.31964415 -0.00383748 -0.00170930 0.00772844
C 0.13903038 13.34685684 20.81858517 0.00599758 -0.00382104 0.00915744
C -1.90781880 18.23569636 21.38335545 -0.00728968 0.00102891 -0.00283447
C 3.22207790 23.16469107 4.93695287 -0.00229222 0.00007188 0.00254034
C 0.40862649 27.97556956 0.87233948 -0.00495172 -0.00422678 -0.00391467
C 7.00793140 25.37112513 1.10260391 0.00041658 -0.00285589 -0.00325892
C 9.80524218 20.48570655 5.36416652 -0.00343437 0.00265441 0.00241396
C 4.33010312 22.90571537 4.19263352 -0.00269289 -0.00353675 -0.00226397
C 12.34279020 27.58254818 1.82074182 0.00531059 0.00070595 -0.00147204
C 5.72571286 25.53587921 1.71145824 0.00295453 -0.00349852 0.00507601
C -1.92016843 20.51863714 4.43098284 0.00035726 0.01068388 0.00458101
C 5.30597110 22.04101380 4.71459726 -0.00067969 0.00641775 -0.00854416
C 11.42336280 26.70867565 1.33376820 0.00141119 0.00331980 0.00652100
C 4.86424479 26.51828283 1.27045793 -0.00429152 -0.00408326 0.00099777
C -1.01226139 21.47987588 4.76343376 0.00019518 0.00606341 -0.00339125
C 5.09667401 21.39933057 5.95264537 0.00594704 -0.00272135 -0.00690724
C 11.66861114 25.94362303 0.20985081 0.00239425 0.00030072 0.00118864
C 5.16164121 27.35191508 0.20882016 0.00085609 0.00701413 -0.00487791
C -1.17836358 22.20985535 5.97279167 -0.00716591 0.00112697 -0.00244975
C 6.75190370 21.59553874 0.52344727 -0.00404719 -0.00227075 -0.00301576
C 9.71466074 26.19184199 5.74420655 -0.00493939 0.00591917 -0.00163145
C 2.87079685 27.22897831 5.62870982 0.00115665 -0.00058332 -0.00574525
C 0.50380412 22.40512674 0.28177420 0.00718142 0.00440950 0.00446825
C 5.86127710 22.49370614 0.02008662 0.00526946 0.00457961 -0.00169328
C -2.41808017 27.06502909 5.87669883 -0.00169528 -0.00237791 -0.00118939
C 3.88036277 26.40939480 6.03030346 0.00238638 -0.00561848 -0.00938129
C 12.18422929 21.07999174 0.15518999 -0.00522339 -0.00431656 -0.00246589
C 1.91473059 24.59751108 3.32598416 -0.00237087 0.00282640 0.00642256
C 1.70722162 19.70247989 2.57145797 0.00152228 -0.00125359 0.00586650
C 8.07161434 23.92070180 2.76739504 -0.00424381 0.00024142 0.00233571
C 8.61776377 28.54749300 3.63972831 -0.00183699 0.00095197 0.00180290
C 0.75672089 25.50264925 3.21888430 -0.00617680 0.00254949 -0.00791359
C 2.92545302 20.55433156 2.54835495 -0.00611969 -0.00146583 0.00135286
C 9.34971313 22.99785754 2.85161253 0.00210697 -0.00487322 0.00677823
C 7.43956383 27.68676122 3.46009393 0.00351184 0.00509088 -0.00166089
C 0.08800140 23.39090952 11.22190135 -0.00449335 -0.00461776 0.00012956
C -2.65799347 27.73865984 7.06653623 0.00578244 -0.00024286 0.00195038
C 3.81433794 25.49043699 7.12045600 -0.00703901 0.00081136 -0.00254375
C 6.63327380 20.58713102 11.31862197 0.00082703 -0.00408766 0.00081400
C 1.35324322 23.32076527 10.53691608 -0.00182709 0.00195262 0.00252998
C 9.27149501 27.83265236 7.93491630 0.00445469 0.00005055 -0.00270836
C 2.61146701 25.57780941 7.86341089 -0.00106561 0.00576045 -0.00153418
C -5.05520891 20.48874066 10.64561542 -0.00153762 0.00503470 0.00097126
C 2.25128057 22.40268385 10.98584170 -0.00336539 -0.00927127 -0.00098263
C 8.31670640 26.92044921 7.54832857 0.00078518 0.01126283 -0.00124132
C 1.62046626 26.49658265 7.49737650 0.00630756 -0.00502432 -0.00015501
C -4.08472006 21.30948263 11.08173176 0.00255135 0.00256558 -0.00761559
C 1.92961586 21.47292514 12.00952653 0.00121697 -0.00192938 -0.00554428
C 8.46722379 26.10024284 6.40792846 -0.00089179 -0.00220077 -0.00132032
C 1.69497801 27.28681269 6.34407576 -0.00167541 0.00420199 -0.00788809
C -4.28841009 22.12771144 12.21438164 -0.00056501 0.00126860 0.00338493
C 3.97393355 21.72033921 6.70741848 0.00388347 0.00155644 -0.00640569
C 6.73342473 26.24989241 11.80986770 -0.00710511 0.00815691 0.00145018
C 0.23513323 27.06656600 11.76928804 -0.00003452 -0.00420420 0.00476467
C -2.33942229 21.97024004 6.71740515 -0.00740944 0.00458916 -0.01098056
C 2.99659129 22.54133405 6.18777071 -0.00197507 0.00226257 -0.00322295
C -5.38070304 26.95661072 12.07290980 0.00424567 -0.00188853 -0.00036139
C 1.14312400 26.15045523 12.21465809 -0.00323753 -0.00642599 -0.00471983
C 9.68312071 21.36127162 6.41796230 0.00534030 -0.00316687 0.00381525
C -1.17249390 24.51742613 9.57009173 0.00049856 0.00777610 -0.00006145
C -1.26782892 19.60077811 8.60621930 0.00311448 -0.00050292 -0.00082970
C 5.05250208 24.07520689 8.54501323 0.00663030 0.00137885 -0.00495172
C 5.43678115 28.76992753 9.86018215 0.00073797 0.00405399 0.00556119
C -2.45890955 25.20847103 9.35556889 0.00040319 0.00194127 -0.00512912
C -0.12876350 20.53616279 8.66501881 -0.01228668 -0.00085841 -0.00541075
C 6.14983546 23.02781357 8.55532338 0.00583160 -0.00212771 0.00130601
C 4.21063440 27.88352691 9.94660816 -0.00595016 -0.00604532 -0.00115205
C -2.82518451 23.06981083 17.46871656 0.00531202 0.00618432 -0.00460037
C -5.74340705 27.80822130 13.10879437 -0.00303164 -0.00305809 -0.00308563
C 0.82673539 25.30585395 13.37136472 -0.00304266 -0.00202645 0.00010709
C 3.61907973 20.45209488 17.21581320 0.01036355 -0.00181572 -0.00159560
C -1.67630476 22.98320360 16.74380595 0.00531727 0.00358942 -0.00692018
C 6.32937897 27.85136698 14.05097585 -0.00183927 -0.00012653 0.00172862
C -0.39078654 25.48941650 14.02092461 0.00065812 0.00386030 0.00414929
C -8.07421181 20.53786340 16.70297748 0.00716462 0.00082384 -0.00381962
C -0.74520264 22.03238999 17.06557873 -0.00018950 0.00232353 -0.00358343
C 5.29866849 27.03294181 13.63407572 0.00363956 -0.00668335 0.01292551
C -1.27347918 26.36984277 13.55301814 0.00488778 0.00570100 0.00303316
C -7.13062847 21.45468288 17.06928209 0.00237129 -0.00873347 0.00613779
C -0.95711321 21.19403475 18.19388877 0.00465111 0.00464990 -0.00328588
C 5.46051708 26.26772255 12.46217292 -0.00200966 -0.00633438 0.00184979
C -0.98015937 27.17946505 12.43178144 -0.00255645 0.00683738 -0.00370252
C -7.30232487 22.32497995 18.24402551 0.00099892 0.00373267 0.00792198
C 0.62919455 21.44865799 12.60006556 -0.00587292 0.00599948 0.00106539
C 3.53828792 26.27112526 17.87116273 -0.00137572 -0.00093269 -0.00045584
C -2.76045607 27.21672164 17.78956598 -0.00300403 -0.00130798 -0.00155174
C -5.57619173 21.94121676 12.83329897 0.00637211 0.00325175 -0.00746077
C -0.26777881 22.47981377 12.25747214 0.00496780 -0.00047660 0.00709379
C -8.49034240 27.17708205 18.02427627 -0.00745975 0.00195371 -0.00313517
C -1.88218058 26.26209824 18.14052650 0.00094662 -0.00816971 0.00003864
C 6.45438191 21.44022913 12.38974223 0.00176710 0.00470278 0.00837325
C -4.02393579 24.52942831 15.76733356 0.00243567 -0.00482744 -0.00165296
C -4.58805366 19.55608696 14.87441847 0.00140330 0.00828161 -0.00348739
C 1.88574320 23.79089188 14.93552095 -0.00446959 -0.00607722 0.00171183
C 2.24450828 28.57784251 15.92661469 -0.00146401 -0.00052439 0.00391693
C -5.17848818 25.46684381 15.59319221 -0.00262626 0.00449187 0.00097693
C -3.20324548 20.21189096 14.94977194 0.00433897 0.00201008 0.00079830
C 2.93125269 22.71509546 14.94688667 0.00022700 -0.00600790 0.00440277
C 0.88582753 27.93538074 15.84682169 -0.00028199 0.00491328 0.00217537
C -5.85219026 23.29760175 23.37605461 0.00088332 -0.00259076 0.00069466
C -8.71649452 28.02240899 19.11312188 -0.01028921 0.00785485 0.00687667
C -2.03326619 25.47204681 19.27685917 -0.00155169 -0.00348169 -0.00214804
C 0.40230851 20.29499474 23.46211117 0.00222763 0.00012399 -0.00185585
C -4.67942292 23.13586715 22.71963432 -0.00088878 -0.00092249 0.00533293
C 3.29754580 27.74568950 20.18463483 0.00322297 0.00001245 0.01089498
C -3.26292577 25.57155168 19.97213658 -0.00188884 0.00162811 -0.01088082
C -10.96794210 20.52139564 22.77169123 -0.00139232 0.00445737 -0.00147652
C -3.82111213 22.14515771 23.17367704 0.00201176 -0.00261740 -0.00472180
C 2.28169270 26.86443712 19.75877482 -0.00390019 -0.00074891 0.00021727
C -4.26866169 26.50264248 19.52159926 -0.00999511 -0.00896450 0.00359558
C -9.98229623 21.46262890 23.12772943 0.00416134 -0.00138979 0.00009372
C -4.06947251 21.36105044 24.29919838 0.00650026 -0.00130325 0.00493338
C 2.34749207 26.07212350 18.58555799 -0.00641272 -0.00355700 -0.01137915
C -3.94282919 27.36145751 18.51756585 -0.00129655 -0.00096605 -0.00017732
C -10.32481041 22.55364252 24.03091997 0.00636449 0.00446717 -0.00193823
C -2.09540490 21.33171800 18.98656025 0.00164034 -0.00158516 -0.00583823
C 0.87826014 25.93076904 24.00918239 -0.00055159 -0.00136762 -0.00723701
C -5.67246141 27.12332688 24.00169839 0.00460008 0.00573575 -0.00558963
C -8.51238854 22.22831792 18.96448065 -0.00618733 0.00735980 -0.00181374
C -3.05863922 22.24657386 18.59352240 -0.01127662 0.00620726 0.00499162
C -11.38394810 27.17320035 24.20536897 -0.00084733 0.00428205 -0.00298305
C 7.26383609 26.17159959 0.00242695 0.00161807 0.00889850 0.00514504
C 3.28977154 21.28112948 18.33377062 0.00837694 -0.00536043 -0.00102328
C -7.02738431 24.67482803 21.73400820 -0.00907976 -0.00359382 0.00004708
C -7.38313466 19.45635976 20.85033200 -0.00254267 -0.00146660 0.00233138
C -0.86615557 24.01878399 20.80559404 -0.00101323 0.00478720 0.00140646
C -0.46196145 28.75527904 21.96684421 -0.00112864 0.00217947 -0.00636617
C -8.22192733 25.58385922 21.60829954 0.00650094 0.00051268 0.00345658
C -6.14112961 20.40711100 20.94112822 -0.00079622 -0.00163508 -0.00136807
C 0.32162613 23.15665657 20.94404477 0.00623533 -0.00178939 -0.00043576
C -1.68714780 27.87078065 21.74666848 0.00838612 0.00455194 -0.00246592
C 16.46301681 3.74534631 5.15670044 0.00321744 -0.00082901 0.00243935
C 13.48289248 8.60790011 0.94511761 0.00549450 0.00202440 0.00123737
C 20.09128565 6.09104854 0.94867588 -0.00562353 -0.00314133 -0.00087143
C 22.91463710 0.97392082 5.18370137 -0.00259609 -0.00632658 0.00286388
C 17.64384561 3.78962039 4.42154245 0.00135296 0.00542179 -0.00392309
C 25.55225282 8.32777075 1.72049329 -0.00061365 0.00126352 -0.00111848
C 18.85696334 6.04205444 1.64480376 -0.00469915 0.00244052 0.00005447
C 10.97985827 1.14475970 4.47028633 -0.00472296 0.00948193 -0.00162924
C 18.63976907 2.91645912 4.84875343 -0.00075922 0.00446419 -0.00029179
C 24.50243133 7.45038266 1.30905553 -0.00080829 -0.00219439 0.00107898
C 17.88906880 6.96690333 1.28398439 -0.00040139 -0.00244272 0.00481932
C 11.98976292 1.99218812 4.85857776 -0.00089921 0.00018703 0.00373631
C 18.46657344 2.14755234 6.01135306 0.00474186 0.00270761 0.00112618
C 24.68035917 6.69189634 0.10770757 0.00006874 0.00313915 -0.00415381
C 18.08212150 7.78110287 0.15963101 0.00999031 -0.00122917 -0.00209943
C 11.84614678 2.89848804 5.94657626 -0.00412312 -0.00217546 -0.00165639
C 20.15429395 2.00432744 0.50897881 -0.00641844 0.00046137 -0.00090168
C 22.90254945 6.58129973 5.67990112 0.00243426 0.00426478 0.00145357
C 16.49001332 7.73945440 5.54511496 -0.00904026 -0.00580266 0.00181838
C 13.74950717 2.67830060 0.69812270 -0.00700704 -0.00215120 -0.00738563
C 19.21584131 2.90776570 0.17494892 0.00042559 -0.00027115 -0.00086734
C 10.97417050 7.93105108 6.08374251 -0.00265934 -0.00211607 -0.00304913
C 17.47794868 6.89651570 5.98005037 -0.00582244 -0.00736261 -0.00284326
C 13.62889198 2.00873170 24.39117287 0.01036969 -0.00056938 -0.00387244
C 15.33169898 5.17968766 3.60236860 -0.00037366 0.00099310 0.00953650
C 14.73607250 0.20471185 2.56627702 -0.00299169 -0.00580688 -0.00305663
C 21.35719941 4.66236648 2.48282512 0.00429203 -0.00831128 0.00050708
C 21.71289855 9.18242755 3.42581328 0.00237676 0.00382405 -0.00912824
C 14.22557895 6.21437221 3.42629753 0.00517951 -0.00996144 0.00243872
C 16.01265901 1.07075581 2.71066914 -0.00505007 0.00010210 0.00109379