2880
Time=41000.00000002 pbc="T T T" Lattice="39.62757065 0.00000000 0.00000000 0.00000000 29.20324869 0.00000000 -12.02610093 0.00000000 24.39400417" energy=-18397.52664530 virial="-59.91412625 -3.08133640 -61.15868751 -3.08133640 -60.00016916 -6.56329679 -61.15868751 -6.56329679 -50.09333576" stress="0.00018125 -0.00004216 -0.00214119 -0.00004216 0.00043665 -0.00027898 -0.00214119 -0.00027898 0.00077526" Properties=species:S:1:pos:R:3:vel:R:3
C 3.33485849 3.62367711 5.01452335 -0.00394819 -0.00326695 0.00624850
C 0.53178583 8.78961113 0.87574563 0.00242048 0.00302490 0.00302668
C 7.11780361 6.00949666 0.95022941 -0.00210925 -0.00381138 -0.00109473
C 9.95484770 1.17009854 4.89536733 0.00320079 0.00494300 0.00121834
C 4.47638540 3.40212530 4.22893841 -0.00291962 -0.00117274 -0.00564622
C 12.38455117 8.85729837 1.71961977 -0.00327235 -0.00263467 -0.00305627
C 5.93254183 6.05687824 1.60663144 -0.00798971 -0.00103978 -0.00302922
C 37.35532950 0.93841535 4.31531524 -0.00261382 -0.00077277 -0.00796861
C 5.37114385 2.37097383 4.44306389 -0.00742911 0.00550384 -0.00710045
C 11.36356449 8.07738170 1.26038472 -0.00374709 -0.00626594 0.00343145
C 4.83698830 6.78239215 1.16673282 -0.00283874 0.00742200 -0.00078271
C -1.42859214 1.99093251 4.74016250 0.00078980 -0.01085882 0.00086502
C 5.30804927 1.69395969 5.67906259 -0.00598627 0.00255045 0.00165776
C 11.65106076 7.12586556 0.30457298 -0.00267008 0.00020597 0.00061504
C 4.92363590 7.68277789 0.03659430 0.00491945 0.00092256 0.00141754
C -1.59849951 2.73470731 5.92467331 -0.00047623 0.00676934 -0.00234934
C 7.23969065 2.07370786 0.26209665 0.00140483 0.00768392 -0.00138697
C 9.80685788 7.12486534 5.48567740 0.00258695 -0.00872456 -0.01403643
C 3.26656913 7.81666809 5.45358833 0.00544427 0.00277439 0.00601792
C 0.40607432 2.90042826 0.47697269 0.00252294 0.00210095 0.01119926
C -5.80667792 2.90606602 24.36260238 -0.00155957 0.00806361 -0.00504326
C -2.28235161 7.82835550 5.96260296 0.00575134 -0.00470477 0.00163950
C 4.30555018 6.92650495 5.76361199 -0.00255498 0.00390279 -0.00816947
C 12.80877822 1.89381922 0.00752823 0.00306983 0.00122542 0.00011898
C 2.13661269 5.14285262 3.62985188 -0.00347729 0.00236779 0.00600344
C 1.61081973 0.25847551 2.62595154 0.00365596 0.00219272 0.00118235
C 8.35839608 4.64324618 2.65311079 -0.00495880 0.00569941 -0.00073346
C 8.46473625 9.66571821 3.57148996 -0.00298187 0.00175229 0.00557004
C 0.91622035 6.03199447 3.44551672 0.00601198 -0.00127915 0.00118187
C 2.84322785 1.05074743 2.87753325 0.00302472 -0.00770119 0.00895439
C 9.71819780 4.00674770 2.80699433 0.00304778 0.00088014 -0.00190287
C 7.24023950 8.72570580 3.48667353 0.00653510 -0.00333137 -0.00292051
C 0.28659131 3.82520102 11.19309944 0.00751053 0.00428178 -0.00135178
C -2.53855683 8.71430343 7.02951935 0.00114767 -0.00455530 -0.00213988
C 4.13625960 6.09487013 6.91617010 -0.00361013 0.00328828 0.00269226
C 6.76209394 1.11511814 11.11763321 -0.00537977 -0.00315401 -0.00309274
C 1.42448202 3.64589182 10.32670575 0.00101759 0.00768693 -0.00229892
C 9.40437266 8.55716128 7.83195738 -0.00097772 0.00291673 -0.00057970
C 2.92294422 6.04521784 7.59933340 0.00803978 -0.00035908 -0.00092782
C -5.18097443 1.20954209 10.74598036 -0.00459510 -0.00575826 -0.00223879
C 2.44601976 2.85443811 10.74012047 -0.00430533 -0.00473230 0.00051142
C 8.40651146 7.68666852 7.33926873 0.00442941 0.00443189 0.00053756
C 1.89771734 6.84972560 7.26730057 0.00474434 0.00241804 0.00728453
C -4.14794840 2.05985231 11.12669845 0.00157776 0.00695384 -0.00239775
C 2.38279200 2.05076709 11.83335602 0.00114541 0.00749871 0.00004091
C 8.54958286 6.96014978 6.15360487 -0.00502659 0.00154710 -0.00000628
C 2.08119722 7.77526017 6.18471382 -0.00031756 0.00093428 0.00034447
C -4.34458235 2.74169159 12.29511440 0.00043134 -0.00237230 0.00295577
C 4.18076371 1.90867602 6.51280174 0.00323431 -0.00031710 -0.00479759
C 6.88858686 6.94732393 11.84458083 -0.00304866 0.00357786 -0.00201287
C 0.28094096 7.62556705 11.75212163 0.00647378 0.00396063 -0.00322854
C -2.81989195 2.45470362 6.57064220 0.00858798 0.00453903 0.00807392
C 3.16671405 2.77583127 6.14302012 -0.00207628 0.00499044 -0.00230662
C -5.41597187 7.78002197 11.84254724 -0.00390912 0.00439371 0.00011504
C 1.32931655 6.83143097 12.20083019 0.00318169 -0.00449055 0.00500758
C 9.75124519 1.83946169 6.12906934 0.00338738 0.00026465 -0.00235350
C -1.01619866 5.11053347 9.64192091 0.00077798 -0.00620427 0.00170774
C -1.19912513 0.26623098 8.57412424 0.00489230 -0.00103255 0.00050655
C 5.34819836 4.60843836 8.38556831 0.00223261 0.00378408 -0.00213947
C 5.70289906 9.46295660 9.70389891 -0.00166966 -0.00733626 0.00021879
C -2.18279523 6.03840432 9.56038525 0.00347195 0.00214942 -0.00195494
C 0.13159683 0.99313320 8.60505981 0.00112985 0.00158798 -0.00281534
C 6.64626283 3.78150104 8.37955672 -0.00472272 -0.00136724 -0.00329094
C 4.61957754 8.44600077 9.26003721 -0.00238081 0.00069765 -0.00703176
C -2.88486229 3.70023942 17.22219823 0.00253908 0.00448818 0.00087021
C -5.56000045 8.55587814 13.00900608 0.00296122 0.00162046 -0.00202786
C 1.08283267 5.91391388 13.21972580 0.00159266 0.00565734 -0.00533215
C 3.94010994 1.12379937 17.27329375 0.00084096 0.00487465 -0.00003943
C -1.70090687 3.63586900 16.42451746 0.00421985 0.00650077 -0.00146161
C 6.23427949 8.49341842 14.01385238 -0.00609624 -0.00336788 -0.00436106
C -0.12223821 5.86209854 13.87733006 0.00903902 0.00091362 -0.00005622
C 31.23051162 1.25102234 16.46001984 -0.00409810 0.00274820 0.00046052
C -0.70731670 2.78436968 16.80562321 0.00236509 -0.00273579 0.00166127
C 5.32883978 7.57375646 13.53406221 0.00143814 -0.00230933 -0.00561287
C -1.11680710 6.74989134 13.59861904 -0.00636469 0.00440860 0.00526268
C -7.47764513 2.20396896 16.82361839 -0.00114828 -0.00567844 -0.00530464
C -0.82209501 1.98835444 17.94359580 -0.00279744 0.00133037 0.00083684
C 5.59695478 6.87918710 12.32900846 -0.00471771 0.00593664 -0.00023159
C -0.98627418 7.56224261 12.46464358 -0.00082296 0.00911581 -0.01108864
C -7.66986121 3.05002833 17.90448236 0.00025484 -0.00347014 -0.00353368
C 1.22284942 2.15916597 12.70373679 -0.00021901 -0.00126539 0.00792011
C 3.81224439 6.62966913 18.14184245 0.00352585 -0.00396366 -0.00203051
C -2.72355256 7.83697752 17.74169963 0.00512004 0.00651119 -0.00203054
C -5.56233854 2.68718992 12.98222804 0.00105961 -0.00423249 0.00187514
C 0.16825629 2.98313785 12.30905590 0.00557253 0.00420421 0.00223758
C -8.50427336 7.76620071 18.34715190 -0.00206776 0.00316730 -0.00138593
C -1.81529074 6.82861568 18.07705075 -0.00197920 -0.00159592 -0.00200244
C 6.51158305 1.99997013 12.22046355 0.00202764 -0.00344549 0.00741790
C -4.10451251 5.26682423 15.79840618 -0.00009867 0.00001622 0.00798542
C -4.03706287 29.19361690 14.62144956 -0.00409978 -0.00507666 0.00043028
C 2.38343074 4.67678895 14.88258058 0.00332117 0.00269651 -0.00545008
C 2.57336441 9.42660975 15.71791648 -0.00703192 -0.00008384 -0.00572006
C -5.36200352 6.11213574 15.88353049 -0.00488489 -0.00077414 -0.00413906
C -2.93893784 1.02171032 14.57779763 0.00320413 0.00612553 0.00027744
C 3.60907505 3.71264551 14.94718080 -0.00278736 0.00794626 0.00139615
C 1.41114571 8.60114770 15.41870453 -0.00679780 0.00052133 0.00203831
C -5.70147077 3.76959777 23.25100633 -0.00589103 0.00081991 -0.00458754
C -8.69270443 8.70994484 19.40163350 -0.00381832 -0.00085983 -0.00053847
C -2.08336877 5.97370639 19.18419601 -0.00227390 -0.00034831 0.00052624
C 0.81083617 1.18681622 23.24649987 -0.00014074 0.00256830 -0.01420954
C -4.57894367 3.62888966 22.44340382 0.00304719 -0.00715434 -0.00495741
C 3.34481202 8.42040583 20.19362741 0.00461149 -0.00703482 -0.00359522
C -3.27872875 6.03426521 19.82119923 0.00784420 0.00128354 0.00433468
C -11.12651660 1.11295352 22.74468959 -0.00080961 0.00203011 0.00275226
C -3.51391045 2.92467903 22.77774890 -0.00242202 0.00424687 0.00320629
C 2.34444036 7.54307798 19.77933263 0.00411144 -0.00349437 -0.00303239
C -4.25898010 7.01582781 19.47077374 -0.00808209 -0.00950407 0.00684271
C -10.11773101 1.97631795 23.15934877 0.00113805 -0.00084615 0.00147196
C -3.57486826 1.98643652 23.94269012 0.00439134 0.00012021 -0.00227826
C 2.51942124 6.60423070 18.68915801 -0.00280039 0.00314262 -0.00518898
C -4.02964199 7.88245315 18.39139565 0.00164300 0.00937941 0.00165237
C -10.38711038 2.89817771 24.23185020 -0.00445860 -0.00403345 -0.00509266
C -2.02667148 2.01262350 18.70476717 0.00068805 -0.00182626 -0.00112961
C 0.87413697 7.12374363 24.05698428 -0.00005271 0.00289367 0.00355206
C -5.84747154 7.58521402 23.73766945 -0.00587955 0.00551593 -0.00659233
C -8.76087183 2.78748589 18.74571847 -0.00095458 0.00158513 -0.00381454
C -3.05760213 2.78810754 18.23652980 -0.00235683 -0.00061321 -0.00503666
C -11.39474287 7.89356601 24.18861658 0.00120778 -0.00264228 0.00155548
C -4.79672172 6.83911540 24.18702514 0.00331240 -0.00236028 0.00222725
C 3.63555683 1.97910639 18.35918085 0.00040685 -0.00240778 -0.00705061
C -7.03855992 5.06019233 21.68035691 0.00526910 0.00462943 -0.00103113
C -7.42794372 0.33028206 20.76690121 -0.00688809 -0.00170911 -0.00185873
C -0.79668763 4.81122703 20.85003219 0.00294918 -0.00494037 -0.00185803
C -0.40942639 9.64865865 21.87619579 0.00007272 -0.00747001 -0.00394141
C -8.11583057 6.16837221 21.59693517 0.00337554 -0.00825005 -0.00036339
C -6.31905661 1.34507747 21.01819591 -0.00317315 0.00245104 -0.00167611
C 0.56769879 4.16178688 21.14098263 0.00027029 -0.00254821 0.00064887
C -1.68061002 8.95947345 21.68271150 -0.00384528 0.00707182 0.00242562
C 3.20719226 13.44659290 5.06118761 0.00325958 -0.00324778 0.00051924
C 0.21233181 18.25115138 0.81728231 -0.00249567 -0.00492221 -0.00326774
C 7.04314118 15.57828209 0.71524842 -0.00406745 -0.00767056 -0.00285590
C 9.79894744 11.06003894 5.09487239 -0.00485320 -0.00386532 -0.01107093
C 4.41764286 13.45216661 4.36601384 0.00110930 -0.00875898 0.00860601
C 12.37906435 18.22855410 1.51251888 0.00342120 0.00117599 -0.00148022
C 5.82835611 15.66720333 1.44492537 -0.00232283 0.00204577 0.00683990
C 37.32312715 10.97290751 4.19216661 -0.01301683 0.00579432 0.00332306
C 5.43333919 12.61947286 4.81613475 -0.00244385 0.00358231 -0.00258239
C 11.40376426 17.33428546 0.95516054 0.00391387 -0.00106211 0.00727655
C 4.87274448 16.58856400 1.07732755 -0.00044367 0.00262124 0.00074799
C -1.29502615 11.81473819 4.64930848 -0.00619128 -0.00124174 -0.00765972
C 5.30244181 11.82183593 5.93850530 0.00355537 -0.00167971 -0.00012772
C -0.38319851 16.57601138 24.19996961 -0.00265871 -0.00524521 0.00225073
C -7.02048736 17.41445969 24.32894897 0.00653357 0.00555713 0.00481702
C -1.44393868 12.64096233 5.78963793 -0.00603495 -0.00494580 0.00335264
C 6.75590335 11.70353467 0.38140686 0.00358908 -0.00012240 0.00470528
C 9.68626234 16.80006631 5.41053135 0.00392811 0.00821184 0.00136869
C 3.48951836 17.55358341 5.53943086 0.00340640 0.00390563 -0.00001606
C 0.25479689 12.54236846 0.71541235 0.00029511 0.00374358 -0.00340714
C 5.81688715 12.66431391 0.01131187 -0.00139715 0.00352312 0.00236891
C -2.43554541 17.39100986 5.91735539 -0.01130633 0.00086934 -0.00891717
C 4.36952321 16.54601794 5.91208994 -0.00052920 0.00595639 0.00069072
C 12.52619862 12.01938151 0.08373564 0.00209546 0.00745215 0.00314475
C 1.92978615 14.84461770 3.45648762 -0.00671770 -0.00453236 0.00425011
C 1.68810660 10.27229679 2.39901749 0.00233940 0.00282597 0.00227058
C 8.26392856 14.33283299 2.30320217 -0.00001727 -0.00808830 -0.00784146
C 8.54750465 19.17796758 3.30987749 0.00042991 0.00013929 -0.00033713
C 0.71688179 15.69220010 3.19379387 0.00217907 -0.00098123 0.00313875
C 2.86451262 11.18992652 2.52716468 0.00107504 0.00127814 -0.00442096
C 9.40847404 13.39693837 2.44562117 -0.00251582 -0.00877699 0.00033402
C 7.45001532 18.16033380 3.09664600 -0.00313528 0.00548335 -0.00371935
C 0.29771882 13.50486069 11.14593633 0.00402579 0.00503389 0.00669201
C -2.58675597 18.27130865 6.99003205 0.00177830 0.00071486 0.01245748
C 4.04961407 15.70845814 7.05506242 -0.00335239 0.00325198 -0.00491617
C 6.73406360 10.83702133 11.35187243 0.00211915 0.00714207 0.00306797
C 1.60026608 13.60386761 10.59587018 0.00541674 0.00365421 -0.00079737
C 9.13498091 18.59075497 7.54291732 -0.00400203 -0.00420586 -0.00025096
C 2.87286505 15.92429884 7.76066513 -0.00243721 -0.00026823 -0.00317412
C 34.41971609 10.96381451 10.47377278 0.00685966 -0.00300820 -0.00504735
C 2.49504792 12.67818462 11.09963643 -0.00062906 0.00721558 0.00183933
C 8.24480211 17.57503675 7.16824850 0.00119797 -0.00609349 -0.00194252
C 1.93513638 16.77332452 7.25775203 -0.00031442 0.00033980 -0.00584344
C -4.19943629 11.66033160 11.07133180 -0.00435367 -0.00067167 0.00143291
C 2.14622425 11.74628743 12.08911130 -0.00371475 0.00519929 0.00074858
C 8.53167911 16.62932505 6.16558150 0.00673634 0.00297081 0.00331113
C 2.15472498 17.52321275 6.04749472 -0.00318198 0.00275339 0.00225068
C -4.31501629 12.39376132 12.22836872 -0.00423180 0.00522435 0.00473710
C 4.01546835 11.75507245 6.52692616 0.00941365 0.00082995 -0.00707557
C 6.73798647 16.95537935 11.65013148 -0.00100066 -0.00335210 -0.00851758
C 0.34053550 17.41958961 11.79208222 -0.00415650 0.00083950 -0.00250830
C -2.73218589 12.56476793 6.51426866 0.00691642 -0.00339338 -0.00199111
C 3.06186099 12.59895135 6.13285192 -0.00815758 -0.00288688 0.00500451
C -5.62332960 17.34499814 12.06009344 0.00603783 0.00331044 -0.00154731
C 1.29415755 16.49634590 12.11108350 -0.00369988 -0.00222189 0.00158318
C 9.56180848 11.84813599 6.21535649 0.00421975 0.00227274 -0.00528571
C -0.97204562 14.87693158 9.59151298 0.00077617 0.00571509 -0.00271951
C -1.15356573 9.96152915 8.55135075 0.00104248 0.00323635 -0.00132459
C 5.25662701 14.43357091 8.64460458 0.00324732 -0.00486157 -0.00768365
C 5.68335535 19.35617629 9.30393659 -0.00507918 0.00252144 -0.00655831
C -2.02880443 15.92762247 9.39510396 0.00135482 -0.00478756 -0.00259812
C 0.24889591 10.50143065 8.46848621 0.00318512 -0.00017904 -0.00911967
C 6.42510783 13.53470056 8.92782050 -0.00096997 0.00269485 0.00435046
C 4.49437072 18.49080104 8.96948951 0.00400316 0.00426121 -0.00826226
C -2.57759761 13.58754339 17.28228227 -0.00137512 0.00500530 -0.00099689
C -5.72753896 18.21716086 13.17417904 0.00538220 0.00900084 -0.00052071
C 1.14120446 15.76732446 13.31577523 -0.00267092 -0.00531334 -0.00562662
C 3.76996773 10.74119479 17.32451939 -0.00056889 0.00332977 0.00589837
C -1.41369510 13.31312614 16.55372840 0.00341123 0.00822916 -0.00837703
C 6.31142471 18.62894341 13.71077862 0.00254491 -0.00345005 0.00617630
C 0.02711641 16.07276025 14.06500052 0.00617510 -0.00177894 0.00380342
C -8.18693393 11.06939622 16.70973780 0.00159902 0.00241975 -0.00366521
C -0.49908883 12.37244895 17.06909144 -0.00690035 -0.00180852 0.00581211
C 5.29939216 17.74148115 13.36729228 -0.00417144 -0.00200544 -0.00379414
C -0.98989738 16.91948387 13.62950968 0.00262437 -0.00766470 0.00101098
C -7.14638192 11.91217969 17.22359307 -0.00024827 0.00212046 0.00747253
C -0.71041568 11.71628834 18.31883093 0.00075627 0.00533215 -0.00470968
C 5.44516572 16.92073783 12.27027070 -0.00075237 -0.00487795 0.00822762
C -0.88034714 17.66101333 12.48862016 0.00196358 0.00356727 -0.00669281
C -7.43714029 12.81544786 18.29882481 -0.00305061 0.00316829 0.00399823
C 0.80390840 11.66972420 12.62311084 -0.00124824 0.00648539 -0.00501039
C 3.98976076 16.77328000 17.80479907 -0.00215498 -0.00572969 0.00128257
C -2.50269441 17.96351787 17.99149143 -0.01008538 -0.00759420 -0.00617492
C -5.55779796 12.43640616 12.82228748 0.00135805 0.00119769 0.00248977
C 0.00169600 12.66371169 12.23573980 0.00405488 0.01079361 0.00148585
C -8.25849197 17.69805878 18.31503151 -0.00358686 0.00377154 -0.00500043
C -1.58406376 17.02601249 18.32654870 0.00002018 -0.00467239 0.00001010
C 6.49090957 11.63271548 12.45199502 0.00821643 0.00233245 0.00240387
C -4.03838308 14.94185327 15.78150344 -0.00520236 -0.00339828 0.00463802
C -4.32134113 9.88677208 14.59766945 0.00362793 0.00354059 -0.00221128
C 2.25345726 14.40785053 14.83826217 0.00193753 -0.00137516 0.00057839
C 2.80321034 19.37796755 15.76062695 0.00610779 0.00190364 -0.00027657
C -5.35175337 15.66478490 15.80712295 0.00283419 0.00540206 -0.00397037
C -3.10141143 10.66779636 14.95635301 -0.00670531 -0.00134944 -0.00566066
C 3.46204070 13.51389748 15.04261875 -0.01083484 0.00206956 -0.00000816
C 1.79574680 18.26554687 15.65188344 0.00139189 0.00192542 0.00086154
C -6.02809999 13.48256144 23.23808728 -0.00292568 0.00295247 -0.00421539
C -8.53003109 18.52847437 19.40913857 0.00015476 -0.00418999 0.00181580
C -1.86660238 16.07245811 19.33552581 -0.00441775 -0.00633638 0.00135161
C 0.74144058 11.08958975 23.45779795 0.00199666 -0.00636278 0.00345623
C -4.86164001 13.29273611 22.50618401 -0.00507375 -0.00288096 -0.00136073
C 3.46916889 18.40842918 19.90336321 -0.00476440 -0.00072561 0.00775392
C -3.07133520 16.15273562 20.01193029 0.00617519 -0.00478841 0.00327573
C 28.33670525 11.08192190 22.73466183 0.00467708 0.00199991 -0.00585558
C -3.85970670 12.46649373 22.94645020 -0.00866938 -0.00249338 0.00161430
C 2.47353085 17.60629803 19.43638218 0.00696734 -0.00012843 0.00442677
C -3.96423212 17.18156227 19.69311692 0.00018104 -0.00468147 -0.00792905
C -10.30719998 11.89593913 23.23818691 0.00233666 0.00413961 -0.00213686
C -4.02016943 11.62415582 24.10622281 0.00820277 -0.00309243 0.00649082
C 2.70708161 16.74410481 18.36772093 -0.00091447 0.00310986 -0.00159570
C -3.71872635 18.11312802 18.66871063 -0.00064706 0.00626264 0.00514314
C -10.53539456 12.70345833 24.33787388 -0.00033774 -0.00337623 -0.00955395
C -1.94486132 11.94549008 18.98594755 -0.00181948 -0.00781454 0.00539228
C 0.87526949 16.63375367 23.54732755 -0.00402650 -0.00112906 0.00022859
C -5.82098755 17.32377411 23.60037337 0.00160148 -0.00302609 0.00453228
C -8.66739920 12.68830271 18.96232095 0.00648390 0.00637130 -0.00173101
C -2.87879239 12.74890501 18.46322387 -0.00024364 0.00295938 0.00013216
C -11.66794560 17.26579471 24.19109406 0.00484944 -0.00232199 -0.00665010
C -4.90694117 16.36335510 23.95837244 -0.00156497 -0.00076402 0.00542467
C 3.58057576 11.45245985 18.51017766 -0.00310803 -0.00112006 0.00233422
C -7.01878417 15.05644308 21.83021752 0.00190220 -0.00586859 0.00272364
C -7.38987463 10.08924240 20.89986261 -0.01264734 0.00141495 -0.00088629
C -0.87357467 14.29392561 20.64574312 0.00229518 0.00029954 0.00924912
C -0.39093012 19.42184269 21.87267083 -0.00072405 0.00501604 0.00222891
C -8.35347711 15.76945839 21.55900218 0.00221539 0.00018542 0.00614531
C -6.14812755 10.96517308 20.91428872 -0.00267455 0.00250914 -0.00025006
C 0.36495159 13.43367204 20.81335711 -0.00467457 0.00193301 -0.00243273
C -1.50203520 18.42440447 21.86945211 0.00204447 -0.00825810 -0.00451939
C 3.03416747 23.09367480 4.92640679 -0.00119968 0.00414725 -0.00282133
C 0.39479706 28.10864096 1.02164422 0.00293116 0.00338963 0.00229818
C 7.10860572 25.62837146 0.93985815 -0.00050928 -0.00503098 -0.00527752
C 9.57304917 20.64558060 4.81063598 0.00134453 0.00161393 0.00587478
C 4.24537016 22.90392637 4.16687274 0.00115973 0.00144336 -0.00224461
C 12.45090569 28.12601300 1.72974543 0.00007449 0.00363138 0.00949548
C 5.93553737 25.73989020 1.65951895 -0.00162333 -0.00323770 0.00584309
C -2.12131474 20.64241750 4.49326073 0.00415032 -0.00262313 0.00726580
C 5.13048192 21.95651271 4.62652806 0.00238181 0.00383492 0.00252956
C 11.48887560 27.29006454 1.24821293 -0.00189850 -0.00067859 0.00577863
C 4.84736048 26.53005187 1.24923775 0.00461808 0.00020808 0.00072599
C -1.16240816 21.52628504 4.95456686 0.00053490 0.00298441 0.00166925
C 4.90673331 21.11543625 5.73550075 -0.00562453 0.00612758 -0.00190371
C 11.79089263 26.31067120 0.25388892 0.00694264 -0.00395411 -0.00080528
C 4.99075481 27.37584336 0.11215052 0.00543834 0.00450633 0.00488139
C -1.33079976 22.28658826 6.15057273 -0.00330151 -0.00024889 -0.00381993
C 7.09418236 21.69979792 0.55897391 0.00212501 0.00786119 -0.00036841
C 9.74339085 26.38409201 5.49347926 -0.00034158 -0.00697056 -0.00186381
C 2.85172163 27.07855506 5.32105490 -0.00395484 0.00242899 0.00750525
C 0.33220657 22.23782371 0.46917712 -0.00201014 -0.00558716 -0.00207627
C 6.06333701 22.48923880 0.18131797 0.00709833 -0.00391955 0.01158847
C -2.31231706 27.07648194 6.06358357 0.00569318 0.00587259 -0.00163313
C 3.92709999 26.34201895 5.83792389 -0.00243485 0.00348791 -0.00244721
C 12.74113863 21.46630145 0.33986793 -0.00167916 0.00294648 -0.00457936
C 1.96618872 24.43208088 3.28385828 -0.00231116 0.00092264 -0.00269838
C 1.72495731 19.62862081 2.12763787 0.00480608 -0.00137207 0.00260924
C 8.38251902 24.23702262 2.41574965 -0.00287483 0.00338754 -0.00342272
C 8.81480768 29.00501281 3.22199645 -0.00666052 0.00031787 0.00031711
C 0.86650522 25.37727917 3.05109396 -0.00321449 -0.00019025 0.00130209
C 3.05564914 20.27484486 2.11530529 0.00641026 0.00287852 0.00487765
C 9.63582097 23.48454203 2.76759012 -0.00395550 -0.00263643 0.00261891
C 7.90580360 27.75437804 3.10762653 0.00367905 0.00287217 0.00156980
C 0.28568497 23.10634159 11.09149624 0.00282956 -0.00068914 0.00498371
C -2.43604460 27.93487830 7.18040227 0.00399351 0.00027970 0.00149970
C 3.78024265 25.53138423 6.97017034 0.00429372 -0.00128633 0.00079928
C 6.68238756 20.80291852 10.93486771 0.00102738 -0.00412270 -0.00346005
C 1.54659574 23.11987216 10.43480421 -0.00353533 0.00616253 0.00078243
C 9.33484326 27.91403275 7.78547366 -0.00330760 0.00210798 -0.00007866
C 2.58825721 25.69179534 7.70517965 -0.00438514 -0.00676631 0.00133397
C 34.17704925 20.62494737 10.43903115 -0.00244528 -0.00184528 0.00927483
C 2.53360576 22.25400961 10.91157067 -0.00298510 -0.00107053 0.00057344
C 8.30919345 27.08994253 7.30244611 0.00229483 0.00122913 -0.00027635
C 1.62364560 26.63236543 7.34795971 0.00669394 0.00465441 -0.00430943
C -4.33891671 21.45963676 10.82338127 0.00450818 0.00865723 -0.00112045
C 2.47185385 21.35654857 12.01945279 0.00144523 0.00081857 0.00092662
C 8.47469778 26.34910684 6.17520108 -0.00206956 -0.00626195 -0.00116552
C 1.73328716 27.37093599 6.11431752 -0.00123452 0.00291553 0.00163269
C -4.47591528 22.32346882 11.89915482 0.01180979 -0.00212108 -0.00726338
C 3.71633799 21.31988928 6.41739293 0.00583473 0.00217893 -0.00088649
C 6.86782795 26.56833703 11.47049907 -0.00111277 0.00010494 0.00089725
C 0.49881267 27.15604099 11.59748367 -0.00030415 0.00607312 0.00274759
C -2.59127086 22.14542280 6.72835784 0.00354532 -0.00457987 -0.00258318
C 2.78125165 22.21078023 6.03138561 -0.00123368 -0.00563687 -0.01303318
C -5.34515940 27.03166375 12.06544699 0.00601780 0.00568292 -0.00137007
C 1.38988040 26.18152176 12.12244828 0.00396685 -0.00029251 0.00667944
C 9.37520239 21.42759173 5.95144344 0.00091112 -0.00275871 -0.00351003
C -0.90307680 24.68059694 9.76397155 0.00314627 0.00308944 -0.00010260
C -1.36060789 19.62413875 8.66325432 -0.00026896 0.00968190 -0.00359554
C 5.05904217 24.09183713 8.45057681 0.00226716 -0.00231892 0.00117886
C 5.62674911 29.11446252 9.38100365 -0.00255708 0.00542026 -0.00598269
C -2.09430810 25.57216631 9.68392076 -0.00104344 0.00104248 0.00011023
C -0.24644094 20.57312057 8.85278400 0.00068471 -0.00531190 0.00480912
C 6.10162324 23.01428961 8.58189667 0.00242595 -0.00273922 0.00300700
C 4.37556054 28.39310433 8.94854739 0.00033152 -0.00504846 0.00031544
C -2.69776899 23.18007634 17.30081797 -0.00690550 0.00151846 -0.00160838
C -5.47080902 27.92501146 13.05908401 -0.00158184 0.00040248 -0.00841849
C 1.12963292 25.44673682 13.29375666 0.00640378 0.00087351 0.00400188
C 3.91666648 20.78577830 17.40244940 -0.00113909 -0.00286341 -0.00095101
C -1.53494175 23.07703707 16.57808252 -0.00002280 -0.00059726 -0.00051118
C 6.34764121 28.07427813 13.80465713 0.00279206 -0.00116340 -0.00212143
C -0.11597897 25.57621004 13.92936939 -0.00427100 -0.00366495 -0.00043449
C 31.31885384 20.76900039 16.75963362 0.00124035 0.00071677 0.00498160
C -0.48969576 22.21898898 16.86838588 -0.00441391 -0.00298714 -0.00135135
C 5.40984630 27.18295001 13.35632582 -0.00192683 0.00102301 0.00177594
C -1.05202355 26.41466895 13.35134138 0.00425593 0.00125128 0.00418548
C -7.40235774 21.81282449 16.99024064 -0.00138315 -0.00571520 0.00666652
C -0.52598408 21.35306675 17.96446449 0.00160141 -0.00469175 0.00374995
C 5.64797016 26.40818688 12.16204860 -0.00149174 -0.00029826 0.00512692
C -0.76026876 27.29396391 12.26896703 -0.00517973 0.00035752 0.00626160
C -7.57207293 22.59397017 18.17318454 0.00470996 0.00903042 -0.00628129
C 1.15307339 21.38239758 12.71391105 -0.00819398 -0.00265760 -0.00327391
C 4.00803163 26.50551710 17.88712411 -0.00487689 -0.00507156 0.00303561
C -2.76702766 27.15363388 17.74855824 -0.00236175 -0.00194821 0.00555818
C -5.63966990 22.21139954 12.70353349 0.00631374 0.00087052 0.00304924
C 0.19490528 22.23991852 12.22582868 0.00064608 -0.00502244 0.00399230
C -8.43143703 27.38553905 18.00779188 -0.00447700 -0.00200914 0.00223364
C -1.74223039 26.26709203 18.14247502 0.00932358 0.00054859 0.00194666
C 6.33510507 21.56023168 12.06382760 -0.00081252 0.00186946 -0.00260392
C -3.96931136 24.54963521 15.77340167 0.00219997 -0.00486910 0.00189387
C -4.30771642 19.63766198 14.70031642 -0.00575428 -0.00320985 0.00382117
C 2.27279389 24.03838756 14.85496879 -0.00607533 -0.00268558 0.00177466
C 2.59709023 29.03909375 15.68158852 0.00079265 0.00416939 0.00324115
C -5.16185380 25.40840747 15.70434940 -0.00207131 -0.00011557 0.00024056
C -3.18031230 20.61721247 14.69027087 -0.00539319 0.00383154 0.00276346
C 3.61181910 23.30410803 14.91441520 0.00043325 -0.00721893 -0.00609600
C 1.29144689 28.31676233 15.54561484 -0.00512479 0.00112686 -0.00440508
C -5.75189430 23.29155194 23.48585293 0.00196746 0.00345677 -0.00148423
C -8.55089239 28.06720609 19.21479548 0.00060048 -0.00513576 -0.00044519
C -1.95530021 25.47283437 19.23950780 -0.00166249 -0.00231101 0.00238275
C 0.90563549 20.78392740 23.44306997 -0.00767053 -0.00176065 0.00270689
C -4.55847328 23.21820366 22.76378157 0.00112584 -0.00451660 0.00010647
C 3.57293512 28.06270889 20.09412313 0.00342638 -0.00176613 -0.00404214
C -3.13142578 25.52328559 19.95089411 -0.00336909 -0.00563752 -0.00492041
C 28.21134859 20.65138781 22.52218090 -0.00224095 0.00101036 0.00233165
C -3.48621501 22.49156672 23.14629711 -0.00357133 -0.00015371 0.00314342
C 2.54215242 27.21204431 19.63535955 0.01179943 0.00014264 -0.00255886
C -4.15626338 26.37226319 19.59926894 -0.00117125 -0.00308783 0.00465138
C -10.40621614 21.54998972 22.89122334 -0.00124736 0.00347125 -0.00789900
C -3.68481368 21.68023218 24.29266382 -0.00371838 0.00088077 -0.00045553
C 2.73885474 26.36432346 18.49503329 0.00627220 -0.00344201 -0.00376744
C -4.02896347 27.19419535 18.42843777 -0.00690537 -0.00083040 -0.00092313
C -10.56908360 22.39774973 24.01527483 -0.00236800 -0.00300393 -0.00300915
C -1.69742637 21.55461048 18.77922267 -0.00487572 -0.00491614 0.00078501
C 1.04345717 26.41737971 23.94212254 -0.00079513 0.00419581 -0.00031498
C -5.83038025 27.23950528 23.75136275 0.00517601 0.00024140 0.00577738
C -8.78349289 22.51384612 18.89845532 -0.00524934 0.00241963 0.00066632
C -2.65615454 22.49624475 18.56725951 0.00170056 0.00523726 0.00147517
C -11.43340082 27.26218701 24.32302247 -0.00243954 0.00446923 0.00297802
C -4.81764989 26.38812513 24.17990530 0.00392184 -0.00781249 -0.00151345
C 3.71781795 21.63004623 18.51504308 -0.00151415 -0.00060431 0.00224971
C -7.11262668 24.60752194 21.89852751 0.00336461 -0.00060087 -0.00218309
C -7.43959934 19.98610054 20.97160301 -0.00112346 0.00469714 0.00315487
C -0.59077887 24.27369226 20.89036658 0.00121702 0.00246971 0.00275647
C -0.36355204 28.82885261 21.70637613 -0.00274442 0.00179671 0.00491616
C -8.41103138 25.39153664 21.91929146 -0.00216937 -0.00767038 0.00450722
C -6.15975194 20.76357686 21.22251026 0.01100251 -0.00896513 0.00029524
C 0.77924483 23.77486968 21.13234522 0.00144276 -0.00033062 -0.00853271
C -1.47994136 27.86518165 21.57350616 0.00511057 -0.00303389 -0.00050419
C 16.44729266 3.77422971 5.12238990 0.00587799 -0.00088460 -0.00088986
C 13.60704484 8.84888586 1.08479306 -0.00429436 0.00960328 -0.00306877
C 20.23796275 5.99491193 1.14584387 0.00914936 0.00500501 0.00451362
C 22.71906943 1.12593186 5.17717529 -0.00106011 -0.00140248 0.00344426
C 17.65100450 3.65370793 4.39081020 -0.00707291 0.00088806 -0.00214552
C 25.70292260 8.44206965 1.69096047 -0.00110853 -0.00688965 -0.00307220
C 18.97719122 6.14473827 1.77639645 0.01070691 -0.00018113 -0.00292392
C 11.17042208 1.36909000 4.22037489 -0.00393981 0.00605867 -0.00503179
C 18.61775101 2.81643377 4.89671062 -0.00803263 0.00396158 0.00827034
C 24.68210124 7.62995395 1.24457398 0.00884874 -0.00184883 0.00961025
C 18.06350959 7.03545165 1.27845911 0.00652224 0.00420890 0.00129145
C 12.13565914 2.19228101 4.71487519 0.00004869 -0.00531520 0.00070282
C 18.30016124 1.92485478 5.94722631 -0.00612558 -0.00039041 -0.00225128
C 24.87015183 6.90003221 0.06917947 -0.00530120 -0.00149504 0.00395586
C 18.23754973 7.73415436 0.09649843 -0.00228768 0.00126342 -0.00689446
C 11.89810624 2.84765676 5.93483769 -0.00147894 -0.00072062 -0.00003781
C 20.05900081 2.01960050 0.70250636 -0.00139868 -0.00391313 -0.00215322
C 23.23090036 7.06616234 5.81107829 -0.00703747 0.00298601 0.00587611
C 16.50364565 7.64708208 5.67603234 -0.00592272 -0.00264753 -0.00146998
C 13.67243261 2.90563557 0.30975296 0.00391997 0.00240215 0.00506282
C 19.09297372 2.81577801 0.15784121 -0.00267985 0.00871555 0.00263959
C 10.79610168 7.97872399 5.95640228 -0.00278269 0.00438150 0.00009659
C 17.52127750 6.83694544 6.22020271 -0.00066654 0.00136416 0.00137128
C 25.65283702 1.68387753 0.16302143 0.00227958 0.00336117 -0.00174225
C 15.22426756 5.04725138 3.45111849 -0.00213681 -0.00060138 -0.00477460
C 14.87597206 0.37078618 2.59883924 -0.00028172 0.00960408 0.00563684
C 21.59253216 4.79545720 2.71576684 0.00821451 -0.00085829 -0.00259210
C 21.71227029 9.40611919 3.52126104 0.00105350 -0.00716395 -0.00333433
C 13.93634295 5.82221731 3.15904082 -0.00595879 -0.00041493 0.00319417
C 16.15611297 1.04877332 2.91141642 -0.00141593 -0.00664726 -0.00131098
C 22.80318180 3.94605009 2.87337433 0.00601300 -0.00104123 -0.00240060