2880
Time=77000.00000008 pbc="T T T" Lattice="39.33225444 0.00000000 0.00000000 0.00000000 29.05986359 0.00000000 -12.04638262 0.00000000 24.47635318" energy=-18401.96897614 virial="1.51857449 20.47956638 -90.80579390 20.47956638 -65.54016519 5.70558651 -90.80579390 5.70558651 -51.85236385" stress="0.00248511 0.00071199 -0.00324572 0.00071199 0.00017478 0.00022919 -0.00324572 0.00022919 0.00063971" Properties=species:S:1:pos:R:3:vel:R:3
C 3.16939422 3.78726393 5.21125321 0.00671364 0.00357775 0.00040748
C 0.58513207 8.23217077 0.70378972 0.00557572 -0.00530298 0.00478686
C 7.18299369 5.82872121 0.88828735 -0.00212116 0.00350254 -0.00820334
C 9.74286030 0.97765944 5.01674836 -0.00156707 -0.00753021 -0.00246464
C 4.39747042 3.79045925 4.56280087 0.00367253 0.00436470 0.00127905
C 12.35420405 8.41877426 1.76410789 -0.00160568 -0.00211786 -0.00359701
C 5.96363106 5.92213528 1.60194424 -0.00373319 -0.00026659 0.00413699
C -2.12887491 1.34987810 4.42059451 -0.00147773 -0.00309092 0.00229470
C 5.44400033 2.93630748 4.89457372 0.00544528 -0.00785104 -0.00289904
C 11.41077648 7.51657604 1.38639767 -0.00080024 0.00162903 -0.00533180
C 5.08876760 6.85415543 1.16357340 -0.00144315 -0.00396473 -0.00042499
C -1.14049941 2.15898783 4.86452813 0.00101317 -0.00056345 0.00055233
C 5.29261538 1.96453101 5.88132781 -0.00251572 0.00457998 0.00809009
C 11.67483337 6.67314008 0.27626736 0.00319865 -0.00011356 0.00065406
C 5.36114563 7.68675740 0.03674307 0.00397606 -0.00275663 0.00824802
C -1.29088723 2.88229453 6.15426667 -0.00314954 -0.00410790 0.00233157
C 6.82904172 2.16026701 0.39713419 0.00297378 0.00522261 0.00541276
C 9.83921742 6.62880625 5.69525557 0.00329508 0.00303752 -0.00382452
C 3.14835260 7.61168388 5.72017833 -0.00072225 -0.00202351 0.00003528
C 0.21643390 2.70812681 0.50219211 -0.00869967 0.00704081 0.00134566
C -6.20530893 3.04518744 24.44081811 -0.00380594 -0.00056919 0.00367750
C -2.37789731 7.77798786 5.91765453 -0.01078256 0.00516074 -0.00450293
C 4.17688382 6.79338590 6.13384017 0.00164725 0.00927305 -0.00371554
C 12.61140176 1.69687872 0.31510564 0.00768240 -0.00530787 -0.00138848
C 1.83454087 5.02863486 3.68917753 0.00270265 -0.00069574 0.00225591
C 1.62065855 0.32267716 2.50732395 0.00406776 -0.00030753 -0.00397924
C 8.36087175 4.57806592 2.59907908 0.00159797 -0.00234718 -0.00023921
C 8.61412425 9.08536560 3.63757794 0.00754432 0.00261339 -0.00064049
C 0.55255338 5.77699900 3.41670523 0.00768867 0.00199200 -0.00323289
C 2.78474701 1.24065623 2.71033648 0.00500462 0.00893134 -0.00968512
C 9.37156743 3.51475897 2.86709808 -0.00297157 0.00523572 -0.00767768
C 7.38992047 8.26060435 3.55796067 -0.00342865 0.00218196 0.00165462
C 0.10816392 3.88801893 11.30453088 0.00061542 0.00039574 -0.00331818
C -2.51914495 8.57443885 7.08276549 0.00685085 0.00164548 -0.00277966
C 4.04771519 5.93830636 7.25042260 -0.00743918 0.00549685 -0.00016047
C 6.71296244 1.15026565 11.31089489 -0.00297029 0.00403305 -0.00045094
C 1.26604923 3.77041977 10.59073480 -0.00768884 0.00142308 -0.00304912
C 9.44869429 8.48436766 7.79357996 -0.00885678 0.00433956 -0.00272553
C 2.79103692 6.07629917 7.91701507 0.00191005 0.00238553 0.00330492
C 34.17276967 1.44104100 10.47095028 -0.00264020 -0.00071545 -0.00476411
C 2.20277377 2.80156334 10.94474712 -0.00142803 -0.00108363 -0.00390188
C 8.45956676 7.58833402 7.41157940 0.00203783 -0.00296442 -0.00294646
C 1.76783292 6.96097578 7.53419318 -0.00640594 -0.00549936 -0.00731046
C -4.26574294 2.31951612 11.02690227 -0.00142344 0.00157419 -0.00332054
C 1.96204107 2.00021516 12.11172170 0.00839174 -0.00669221 0.00133705
C 8.57838209 6.73365844 6.34393952 0.00331982 0.00040072 -0.00707164
C 1.90966889 7.69669825 6.34158656 -0.00110817 0.00463335 -0.00251884
C -4.49256839 2.89072831 12.30156380 0.00086584 0.00264118 -0.00174595
C 4.09571377 1.99700580 6.53051594 -0.00068674 -0.00594370 0.00301140
C 6.91783591 7.01167016 11.73839154 0.00696535 0.00085795 -0.00213930
C 0.24174437 7.54648873 11.68318530 0.00447562 0.00341132 0.00133839
C -2.52166248 2.90775687 6.76380348 -0.00386592 -0.00406183 0.00218423
C 3.02139569 2.78552525 6.21030346 -0.00166506 0.00052917 -0.00330313
C -5.42397454 7.66565001 12.10382610 0.00023659 -0.00017559 -0.00276100
C 1.22584992 6.68951020 12.11688048 0.00079905 0.00138520 0.00343342
C 9.50025853 1.77602918 6.17018928 0.00140412 0.00189143 -0.00355129
C -1.05053321 5.23071471 9.64320529 -0.00103037 -0.00653646 0.00061300
C -1.39635113 0.33537164 8.67275635 -0.00260546 -0.00078250 0.00981727
C 5.30113244 4.53818444 8.70447027 0.00079684 0.00298643 -0.00056284
C 5.45330093 9.29241339 9.85206531 -0.00688378 -0.00280068 0.00567691
C -2.32192831 5.98763698 9.33806203 -0.00087508 0.00048324 0.00248851
C -0.11734494 1.13992331 8.97396121 -0.00288592 0.00297698 0.00104780
C 6.49091927 3.61601766 8.97844853 -0.00061411 0.00001180 0.00425018
C 4.11783200 8.53944969 9.60313662 -0.00080115 -0.00136436 0.00286105
C -3.20825703 3.74808453 17.43535383 0.00025705 -0.00379814 -0.00338443
C -5.63762894 8.47368931 13.25080525 -0.00195808 -0.00396963 0.00732631
C 1.05582572 6.01857766 13.28681805 -0.00308072 0.00179591 0.00160302
C 3.51394476 0.94717981 17.54639001 0.00305275 -0.00366479 0.00480443
C -1.91080023 3.76812288 16.77465476 0.00016619 -0.00057380 -0.00097675
C 6.38029553 8.51338626 14.01921400 0.00346936 -0.00838032 -0.00221244
C -0.15001715 5.97497020 13.98835880 0.00559959 -0.00668904 0.00098374
C 30.97075545 1.18197559 16.69023764 -0.00227819 -0.00027734 -0.00101853
C -0.86358411 2.92989435 17.15421622 -0.00706574 0.00063358 0.00965439
C 5.41806350 7.57611636 13.55873591 -0.00642489 -0.00139415 -0.00221755
C -1.11482317 6.92539941 13.62694311 0.00066069 -0.00581759 0.00904542
C -7.38348827 2.03824614 17.05351935 -0.00506562 0.00078100 0.00214143
C -1.05234859 2.03934048 18.26456213 0.00020205 -0.00303338 0.00541000
C 5.64226932 6.91257515 12.38044705 0.00670599 -0.00110754 0.00323875
C -0.92928260 7.79041158 12.55167059 -0.00463808 0.00077270 0.00284397
C -7.52763852 2.76250113 18.25266630 0.00290399 0.00205814 0.00421116
C 0.72581753 2.11829121 12.79174714 -0.00058900 0.00373733 0.00367605
C 3.63760756 7.03348571 17.98018966 -0.00275562 -0.00236244 0.00247302
C -2.96593669 7.56154818 17.77406229 0.00425863 0.00411174 0.00212224
C -5.80012050 2.67841793 12.82187625 0.00441185 -0.00086061 -0.00558227
C -0.24411573 3.04035932 12.41649782 -0.00415148 -0.00108655 -0.00283507
C -8.70872622 7.75735682 18.21190448 -0.00036431 -0.00533893 0.00796022
C -1.95012170 6.77530505 18.18394242 -0.01053670 0.00094650 -0.00128640
C 6.51960236 2.03869117 12.34621490 0.00250258 0.00537365 0.00118254
C -4.22404889 5.28276434 15.91219263 0.00472228 -0.00207379 -0.00236413
C -4.27594471 0.25770691 14.80000262 0.00220123 -0.00105827 0.00481379
C 2.27636123 4.70429530 14.86547433 0.00365603 -0.00562022 -0.00417095
C 2.56574288 9.39458860 15.92945043 -0.00253410 0.00845187 -0.00044621
C -5.59880646 5.87771433 15.60346225 0.00501949 -0.00308623 0.00051878
C -3.20604692 1.13557799 15.19297858 0.00097328 0.00232520 -0.00263715
C 3.42153601 3.78743638 15.06213998 -0.00261094 0.00034247 -0.00241659
C 1.42327789 8.40512405 15.84065264 -0.00387107 0.00303330 -0.00196020
C -5.98070950 3.80237567 23.28858665 0.00332219 0.00017702 -0.00005424
C -9.02108702 8.64947632 19.30808362 0.00125702 0.00184858 -0.00121152
C -2.14975313 5.94818951 19.26314389 -0.00295093 0.00445255 -0.00139564
C 0.70920259 1.00194685 23.57054436 0.00205681 0.00276327 0.00074005
C -4.68552902 3.75495600 22.71759447 -0.00332788 -0.00525241 -0.00144523
C 3.25460647 8.46512832 20.26454925 -0.00185410 0.00606536 0.00144155
C -3.35294508 5.99318495 19.99418885 -0.00540458 -0.00020196 -0.00220880
C 27.99919122 1.00127662 22.81432124 -0.00263302 0.00066312 -0.00292945
C -3.72112328 2.92686333 23.23603607 0.00009662 -0.00429630 0.00166807
C 2.25389546 7.65219875 19.82002614 -0.00148822 0.01111243 0.00045899
C -4.37351217 6.88560277 19.58501511 -0.00229799 -0.00397245 0.00106661
C -10.38929407 1.89927949 23.27254690 0.00189913 -0.00009220 0.00039808
C -3.95034672 2.10742172 24.31240129 0.00722252 -0.00345006 0.00342079
C 2.43569092 6.81146334 18.72088564 -0.00149683 -0.00029439 0.00058941
C -4.16023927 7.64218684 18.48974113 0.00319765 -0.00528549 -0.00024773
C -10.59855985 2.83258560 24.29329662 0.01124993 -0.00238301 0.00149621
C -2.32348720 2.09396359 18.93231171 0.00031057 -0.00465629 0.00457565
C 0.77920530 6.84190910 23.95835655 0.00336873 0.00328430 -0.00185206
C -5.47825409 7.58544378 23.83424499 0.00065622 -0.00151720 -0.00551803
C -8.73498609 2.64504750 18.93591092 0.00536325 0.00275242 -0.00029221
C -3.33317578 2.89930649 18.53769192 -0.00468541 0.00038951 0.00025489
C -11.41433444 7.38797055 24.12775832 -0.00137406 0.00291018 0.00589060
C -4.56976075 6.67463927 24.31927284 -0.00133784 0.00220450 -0.00244569
C 3.31868722 1.85377597 18.57799738 -0.00259733 -0.00838282 0.00290333
C -7.05170037 5.23853963 21.62491457 -0.00285412 0.00103033 -0.00005916
C -7.40867588 0.09426488 20.76493203 0.00044124 -0.00470943 0.00306560
C -0.97909494 4.71457204 20.95277502 0.00102497 -0.00065626 0.00737864
C -0.72133535 9.38124128 21.75723910 -0.00035686 -0.00147532 -0.00876561
C -8.18691161 6.17460293 21.25235918 0.00080267 -0.00459200 -0.00519356
C -6.06742258 0.85419928 20.69471852 0.00044072 -0.00208393 -0.00239374
C 0.15983199 3.81115298 21.11924505 0.00934321 0.00085707 -0.00017595
C -1.96419284 8.60715731 21.36345031 -0.00123247 -0.00693058 -0.00884037
C 3.28930918 13.25234599 5.15002202 0.00013217 0.00508715 0.00516533
C 0.59577817 18.12298172 0.89520927 -0.00356821 -0.00163100 -0.00348362
C 7.02719189 15.55830654 1.03088861 0.00964668 -0.00247408 -0.00666260
C 9.84486017 10.56415642 5.21654630 0.00541115 0.00644876 -0.00830762
C 4.51641384 13.21900192 4.53908790 0.00119427 -0.00490255 -0.00245214
C 12.20581139 18.26926998 1.79799414 -0.00008209 -0.00201001 0.00298491
C 5.80602779 15.62527053 1.59421769 0.00380524 -0.00503320 0.00128813
C -2.15792218 11.00111280 4.73456586 0.00637659 -0.00384641 0.00506494
C 5.49416005 12.37268392 5.01480045 -0.00011956 0.00522800 0.00119338
C 11.21527217 17.40970198 1.32634071 -0.00117332 -0.00481358 -0.00325817
C 4.87867269 16.57526563 1.21397680 0.00435334 -0.00846390 -0.01008658
C -1.07201976 11.69488412 5.19796639 -0.00727328 -0.00130777 0.00106470
C 5.28896817 11.62653817 6.22829710 -0.00625770 -0.00211942 -0.00661156
C 11.37572568 16.57507017 0.15905061 0.00020553 -0.00557375 -0.00070870
C 5.12634543 17.52111274 0.23244140 -0.00975279 -0.00090664 0.00438914
C -1.14501163 12.51171284 6.30199050 0.00772684 -0.00489200 -0.00116123
C 6.74055987 11.72981736 0.51331702 0.00264027 -0.00129782 0.00463724
C 9.75931544 16.68942228 5.52321476 0.00262609 0.00137740 0.00401731
C 3.08689442 17.13029472 5.35119119 -0.00710895 0.00442676 -0.00154904
C 0.46631899 12.17514729 0.76565513 -0.00697331 -0.00507414 0.00446107
C -6.18397515 12.66737150 24.45753781 0.00578145 0.00793178 -0.00143670
C -2.42249535 17.61324546 5.97546491 0.00088288 -0.00565955 -0.00729706
C 4.03424698 16.27715398 5.85580730 -0.00257562 0.00098533 0.00844000
C -0.05248604 11.52645260 24.39271006 -0.00155699 0.00708435 -0.00262535
C 2.05132087 14.71417149 3.52135229 0.00132025 -0.00842382 0.00270275
C 1.85338152 9.55693581 2.31792256 0.00355106 -0.00246217 0.00069007
C 8.11384991 14.12127318 2.61563946 -0.00185125 0.00941790 -0.00195109
C 8.50373961 19.11396818 3.66834049 -0.00085907 0.00137817 0.00374366
C 0.88826486 15.60713773 3.27183631 0.00568006 -0.00101206 0.00603421
C 3.13918576 10.35954180 2.45121499 0.00447456 -0.00119504 -0.00341024
C 9.23744775 13.19901208 2.88046971 -0.00561606 -0.00045745 -0.00425641
C 7.36095944 18.09381558 3.58525194 -0.00033970 -0.00135339 -0.00099491
C 0.15926321 13.43254563 11.12898598 0.00590494 0.00403584 0.00205495
C -2.61028083 18.37992999 7.11287888 0.00788877 -0.00485620 -0.00027002
C 3.88945827 15.58599331 7.08729961 -0.00907043 0.00197828 0.00307088
C 6.58649991 10.72227194 11.39877389 -0.00208973 -0.00145074 -0.00771087
C 1.46063075 13.42865940 10.62245792 -0.00151961 -0.00489609 0.00746400
C 9.30360228 18.21117025 7.81696371 0.00240675 0.00737394 0.00032553
C 2.69173125 15.74058961 7.72506102 -0.00078820 0.00413571 -0.00869296
C 34.06523648 10.76737909 10.66296133 0.00054112 0.00157310 -0.00114620
C 2.40312690 12.56477601 11.16753279 -0.00120695 -0.00158676 0.00309121
C 8.35679486 17.31415650 7.36487953 -0.00517209 0.00047731 0.01043692
C 1.80807935 16.75565733 7.31528322 0.00238441 -0.00636437 0.00036787
C -4.39908858 11.74802368 10.98478668 -0.00341271 -0.00375273 -0.00122344
C 2.12661506 11.75058667 12.27240406 0.00083003 -0.00472768 0.00090832
C 8.48823595 16.56084953 6.17802563 -0.00839436 0.00552989 -0.00056329
C 1.98814522 17.41475006 6.12235143 -0.00456116 -0.00076568 0.00375751
C -4.59174411 12.55242938 12.12027802 -0.00441572 0.00295258 0.00512050
C 4.03552330 11.74364828 6.86900321 -0.00602805 -0.01058638 -0.00017989
C 6.72587727 16.55802686 11.86355455 0.00281777 -0.00375099 -0.00132954
C 0.08593639 17.32369178 11.52599540 0.00196683 0.00032492 -0.00605551
C -2.34132049 12.52499758 6.98843085 -0.00275369 -0.00125683 -0.00067777
C 3.06653237 12.52492829 6.33157378 -0.01443520 -0.00254365 -0.00422762
C -5.46031039 17.74864660 12.09505581 0.00512910 -0.00130053 -0.00943151
C 1.03671282 16.47229788 11.96614968 0.00237012 0.00275110 0.00714869
C 9.61596641 11.47760982 6.30389961 0.00051489 0.00765974 0.00063356
C -0.88372516 14.98800083 9.52684621 0.00632220 0.00423751 0.00333948
C -1.32692781 9.96048987 8.70264743 -0.00134742 -0.00175693 0.00359746
C 5.17467355 14.30005636 8.71433382 -0.00560461 0.00213685 0.00446940
C 5.47450270 19.08992584 9.62034795 -0.00154844 0.00062353 0.00805645
C -2.06730332 15.91984591 9.33550730 -0.00187723 -0.00350461 -0.00054382
C -0.20140310 10.94090921 8.85739142 -0.00090134 0.00133301 -0.00256773
C 6.38970453 13.49659495 8.91118012 0.00208390 -0.00503958 0.00520890
C 4.13297488 18.44072213 9.35626676 0.00739131 0.00644948 -0.00106827
C -3.09687944 13.37826780 17.16138955 0.00641301 -0.00049159 -0.00121051
C -5.57223323 18.61815747 13.17422946 -0.00402623 0.00134849 0.00315103
C 0.88239961 15.63243382 13.11490083 0.00348577 -0.00306020 0.00147354
C 3.64678899 10.92250993 17.39930939 -0.00017810 0.00103256 -0.00147444
C -1.87391526 13.42434768 16.47760104 -0.00466078 -0.00557684 0.00013713
C 6.35588735 18.22279886 14.06066758 0.00622368 -0.00156717 -0.00494476
C -0.29420884 15.77170082 13.87600080 -0.00550428 -0.00283153 0.00544158
C 31.02613234 10.91369153 16.69369210 0.00155026 0.00439621 0.00505277
C -0.91492152 12.47078643 16.72972667 -0.00359578 -0.00013685 0.00427806
C 5.40554447 17.30646061 13.76081800 0.00301619 0.00197133 -0.00295802
C -1.32274609 16.68504947 13.42941896 0.00380520 0.00022537 -0.00096160
C -7.25341169 11.78340570 17.11496818 0.00342668 0.00079435 0.00075865
C -1.05790230 11.60860533 17.86241113 0.00491384 -0.00127352 -0.00217362
C 5.49125251 16.60859234 12.54046843 0.00182777 -0.00334071 0.00317301
C -1.15293070 17.50801015 12.27723241 -0.01100891 -0.00388959 0.00777534
C -7.43249202 12.52745006 18.30565868 -0.00758849 0.00277440 0.00118552
C 0.73801548 11.74003404 12.69377194 -0.00185267 -0.00191351 -0.00159219
C 3.71911755 16.72176420 17.83785488 -0.00723848 0.00369914 0.00324377
C -2.86160184 17.63471216 17.81610715 -0.00573403 -0.00087914 0.00302205
C -5.80767283 12.50194234 12.79489648 -0.00414622 0.00324340 -0.00098154
C -0.16037644 12.59595178 12.16313629 0.00601819 0.00382591 -0.00317006
C -8.62069361 17.61792788 18.03753278 -0.00244985 0.00330248 0.00767177
C -1.92492405 16.73704414 18.24520442 -0.00228112 0.00183297 0.00028027
C 6.43862376 11.56140966 12.48721274 -0.00500023 0.00268991 -0.00040083
C -4.37548134 14.81691529 15.73245100 -0.00643511 0.00092623 0.00095196
C -4.54194785 9.93584793 14.92368464 0.00427991 -0.00240874 0.00675728
C 2.05389474 14.21359663 14.74574053 -0.00175812 0.00163468 -0.00040883
C 2.61905109 19.33006548 15.58902918 -0.00082419 -0.00408651 -0.00600306
C -5.62076593 15.65602913 15.55288964 0.00115053 0.00334794 -0.00007122
C -3.34652386 10.78612191 15.00480786 -0.00350476 -0.00038656 -0.00848988
C 3.05120198 13.22093500 14.95258506 -0.00652907 -0.00066127 0.00333497
C 1.44355870 18.48046076 15.15989912 0.00146195 -0.00027597 -0.00168693
C -5.82643854 13.48542510 23.38455155 -0.00376553 -0.00210067 0.00501254
C -8.87056565 18.36422055 19.19007685 0.00609771 0.00442241 -0.01153888
C -2.21568358 15.73127842 19.25055209 0.00089666 0.00554650 -0.00151802
C 0.37085894 10.64075614 23.43956572 0.00191176 -0.00457437 -0.00589196
C -4.57782287 13.40742009 22.80542482 -0.00733756 -0.00393158 0.00331728
C 3.12770817 18.53194150 19.83920039 0.00320370 -0.00278369 -0.00235897
C -3.46946609 15.86106481 19.92275601 0.00164101 0.00461653 -0.00531505
C 28.08247778 10.91416902 22.72372691 0.00010550 -0.00185261 -0.00553825
C -3.65234943 12.49939566 23.36037006 -0.00118392 -0.00402398 -0.00219710
C 2.16671484 17.60536382 19.47802205 -0.00773319 0.00708557 -0.00183646
C -4.39812467 16.79534565 19.52433702 0.00223840 -0.00760175 0.00344712
C -10.29459772 11.67835267 23.21846520 0.00083621 -0.00781262 0.00001197
C -4.03004206 11.61799657 24.40719251 0.00248872 0.00355155 -0.00057118
C 2.38159718 16.73874436 18.40540782 -0.00013541 -0.00272358 0.00261905
C -4.15119658 17.57292318 18.40791615 0.00267865 -0.00460487 -0.00273340
C -10.42205087 12.38985846 24.46528492 -0.00529470 0.00287142 0.00285364
C -2.18917578 11.71994642 18.61473874 -0.00964434 0.00488867 0.00163666
C 0.63918497 16.56385112 24.00338425 -0.00254177 -0.00787773 -0.00214056
C -5.64467575 17.51405147 24.12582010 0.00391757 0.00243691 -0.00033293
C -8.66877244 12.51921726 18.95399033 0.00809453 -0.00189585 -0.00095424
C -3.23907956 12.53664442 18.26867148 0.00578762 0.00801258 -0.00679109
C -11.33493103 17.35190683 24.22873187 0.00100659 -0.00208810 -0.00041447
C -4.72622773 16.50313877 24.38195881 -0.00351691 0.00601842 0.00005600
C 3.44711084 11.78267853 18.46723273 0.00201188 0.00040637 -0.00272078
C -7.02991026 14.89018932 21.70405563 0.00380502 -0.00632007 0.00597124
C -7.67039896 9.80836245 20.93534148 0.00243442 -0.00036879 0.00287788
C -0.99667571 14.25788187 20.67923928 0.00845266 0.00114988 -0.00109355
C -0.46416920 19.05049356 21.83658463 0.00186877 -0.00259238 0.00378085
C -8.28953394 15.63300330 21.45718185 -0.00064517 -0.00102016 0.00489837
C -6.34530851 10.46926816 21.11660031 -0.00341821 0.00488405 0.00532189
C 0.17786177 13.31689270 20.83868491 0.01009135 0.00432450 -0.00226842
C -1.60292624 18.07674838 21.70673001 0.00263978 0.00033766 0.00691369
C 3.16839922 23.05030407 5.10049192 -0.00862837 0.00508080 -0.00039332
C 0.46502808 27.92252110 0.93151647 -0.00308737 -0.00035542 -0.00342839
C 7.12538073 25.26890055 1.11924441 0.00703746 0.00220718 -0.00283112
C 9.74880973 20.41211038 5.34931554 0.00258279 -0.00360416 0.00079856
C 4.40929982 22.92743328 4.47057862 -0.00162447 -0.00509710 0.00582940
C 12.31471628 27.81468351 1.82418195 0.00230900 -0.00525776 -0.00792238
C 5.88467732 25.24129678 1.67517738 0.00068925 0.00353176 -0.00299309
C 37.08339914 20.74863982 4.32240957 0.00250869 -0.00136609 0.00436926
C 5.43795573 22.06572222 4.94787725 -0.00208144 0.00612923 -0.00108047
C 11.37285060 26.77638112 1.65892594 0.00246192 -0.00197846 0.00510049
C 4.96754370 26.33719471 1.38817000 -0.00604736 0.00151183 -0.00009573
C -1.32951155 21.70388172 4.69063127 0.00397438 -0.00956312 0.00271022
C 5.24008546 21.27849342 6.06263156 -0.00114294 0.00058447 0.00394994
C 11.48110035 25.92503083 0.53411034 0.00162907 -0.00361410 -0.00088762
C 5.19009373 27.09776721 0.20028814 -0.00214138 0.00188332 -0.00599123
C -1.53644877 22.45781713 5.81956048 -0.00048417 -0.00135868 -0.00466100
C 7.14641433 21.47968194 0.55295160 -0.00445136 0.00225331 0.00007294
C 9.81045328 26.16195204 5.59103982 0.00041640 0.00242968 -0.00431970
C 3.27881731 27.00572401 5.61371708 -0.00107798 -0.01150684 -0.00211485
C 0.45432402 22.04257810 0.67031333 -0.00008437 0.00241496 0.00231376
C 6.08161841 22.26899417 0.05065369 0.00180119 0.00243725 0.00164626
C -2.36017960 27.25323927 5.92602871 0.00533789 0.00136153 0.00364540
C 4.18848627 26.10378897 6.01239195 0.00476448 0.00721909 0.00232675
C 12.61987430 21.11735101 0.25692340 0.00447647 0.00250880 -0.00270765
C 2.18527797 24.49797839 3.48971075 -0.00339046 0.00781217 0.00259708
C 1.70424078 19.61930482 2.42865054 -0.00335409 0.00359760 -0.00340801
C 8.22669356 23.87086261 2.74895867 -0.00167940 0.00121792 -0.00253106
C 8.53171600 28.82262376 3.26813933 -0.00211580 -0.00499503 -0.00313303
C 1.10927812 25.52495615 3.21303616 -0.00061013 -0.00744114 0.00779248
C 2.88085253 20.52189509 2.51383539 -0.00275341 0.00782779 0.00580658
C 9.14549402 22.69915119 2.90683284 0.00598015 0.00099570 -0.00016478
C 7.24786258 28.13329304 3.01223403 -0.00211270 -0.00132186 -0.01167730
C 0.18045349 23.33243097 11.15437594 -0.00163945 -0.00477040 -0.00166345
C -2.60949921 28.19155646 6.99726313 -0.00443379 -0.00276740 -0.00235970
C 3.97511781 25.31214072 7.16983841 -0.00729804 0.00256469 0.00332959
C 6.60961195 20.39225894 11.37561501 -0.00244244 -0.00744901 -0.00466818
C 1.33471760 23.07458409 10.45509918 0.00811126 -0.00409786 -0.00226192
C 9.58445478 27.85480912 7.71895740 0.00246851 0.00373366 -0.00583569
C 2.76750799 25.48408660 7.82575056 -0.00154370 -0.00425802 0.00576677
C 33.96380285 20.72482684 10.45769418 0.00067985 -0.00031129 -0.00031675
C 2.24742621 22.04977573 10.78639166 0.00250585 0.00326350 -0.00038266
C 8.50722978 26.96942062 7.47723507 -0.00171825 0.00135031 0.00442058
C 1.83301251 26.36761754 7.40203335 -0.00647797 -0.00529724 -0.00199568
C -4.34989333 21.55230975 10.94423484 0.00058941 -0.00163342 0.00453722
C 2.01651077 21.27679768 11.93215950 0.00080900 0.00081689 -0.00042041
C 8.52647065 26.16177731 6.31934007 0.00048683 0.00202008 -0.00741804
C 2.00048814 27.08731931 6.24897015 -0.00207803 0.00280584 -0.00286050
C -4.56046733 22.45605766 11.99192672 -0.00041074 0.00460466 0.00382692
C 3.98978711 21.41603363 6.64271305 -0.00447242 -0.00017254 -0.00324053
C 6.61770717 26.26966546 11.66677892 0.00257556 0.00247786 -0.00061351
C 0.27717033 27.22097580 11.83144134 0.00148170 0.00281020 -0.00308345
C -2.70061914 22.28360364 6.60350937 -0.01321740 0.00260442 -0.00427197
C 2.97136452 22.26933713 6.23997783 -0.00567088 -0.00085032 0.00384430
C -5.31936761 27.39023500 11.83638883 -0.00179068 -0.00604212 -0.00330370
C 1.19903044 26.28297781 12.20218751 0.00453427 0.00608862 -0.00459477
C 9.58689912 21.20509286 6.54120754 0.00983171 0.00306683 -0.00411774
C -0.96908346 24.60177726 9.46533679 0.00363270 0.00190729 -0.00214818
C -1.38406726 19.83437483 8.68445188 -0.00073133 -0.00026630 0.01007459
C 5.20923027 23.89152993 8.73967486 -0.00228720 0.00586008 -0.00332148
C 5.53072186 28.90878904 9.72404247 0.00399861 0.00109460 0.00785049
C -2.08489245 25.57840519 9.32247068 0.00105679 -0.00632412 0.00416111
C -0.16800347 20.61409913 8.77132962 0.00205995 0.00521512 -0.00013850
C 6.45611434 23.01752091 8.91546560 0.00218459 0.00801895 -0.00032358
C 4.47575917 27.88127456 9.63252814 0.00267735 0.00077858 -0.00350735
C -2.97173974 23.35339972 17.29652299 -0.00308201 0.00263541 0.01039320
C -5.48509146 28.16040590 13.02526713 -0.00210278 -0.00032342 -0.00133475
C 0.93262419 25.45235413 13.35679408 0.00193438 -0.00101438 -0.00478139
C 3.66072345 20.61850207 17.34112823 0.00041629 0.01210161 -0.00203159
C -1.71924926 23.29737906 16.69281091 -0.00178618 0.00045163 0.00027148
C 6.19888899 27.90042993 13.92862461 -0.00113985 -0.00172958 -0.01438262
C -0.32112395 25.57385782 13.91637921 0.00045186 0.00703738 -0.00112592
C 31.11014538 20.71815105 16.68393783 0.00350110 0.00035691 -0.00544741
C -0.68047956 22.50139383 17.16180497 -0.00245137 -0.00325668 -0.00164630
C 5.23940272 26.97368108 13.56222699 -0.00529551 0.00240911 -0.00033904
C -1.34214792 26.39634338 13.42934012 0.00571706 -0.00000530 0.00676753
C -7.28711000 21.69052638 17.02554471 0.00393259 0.00761319 -0.00518391
C -0.93162481 21.54960770 18.15623983 -0.00294144 -0.00254436 -0.00066795
C 5.42210377 26.18755621 12.39392358 0.00118510 -0.00108646 -0.00149347
C -1.01490376 27.28109694 12.36322459 -0.00403641 -0.00628535 0.00139162
C -7.51803527 22.42992140 18.17470442 -0.00469914 -0.00639634 -0.00642238
C 0.87260752 21.62421919 12.65821291 -0.00523319 -0.00055361 0.00087703
C 3.60598459 26.33414382 17.70295244 0.00057742 0.00262745 0.00102568
C -2.79950619 26.96226087 17.86171003 0.00212201 0.00118522 -0.00443903
C -5.79212952 22.47212531 12.60463523 -0.00574382 -0.00158553 -0.00604120
C -0.00772610 22.63465012 12.30929811 -0.00324202 -0.00335130 -0.00812490
C -8.62887303 27.03277469 17.96380222 0.00553079 -0.00076194 0.00087744
C -1.82665260 26.11285472 18.31426093 0.00216126 0.00410742 0.00668543
C 6.42464205 21.25560561 12.46812465 0.00394822 0.00575326 -0.00019360
C -4.01426307 24.83773666 15.74106377 0.00568843 -0.00918217 -0.00291904
C -4.48413778 19.91555363 14.86334515 -0.00564908 -0.00739791 0.00131450
C 2.01248527 23.96981289 14.94601122 -0.00007991 -0.00306451 -0.00200977
C 2.18589724 28.78137980 15.92588639 -0.00250673 0.00570406 -0.00575911
C -5.03434966 25.90035616 15.64873380 -0.00218340 -0.00129819 -0.00769567
C -3.17636328 20.79770024 15.12563043 0.00545944 0.00575677 -0.00048286
C 3.29871187 23.17185571 15.19290532 0.00399312 -0.00250374 -0.00147865
C 1.18085251 27.69717473 15.84058791 0.00670209 0.00916362 -0.00064428
C -5.74687352 23.14207056 23.49888425 -0.00253857 0.00075546 0.00464651
C -8.78680084 27.78509389 19.09957419 0.00095398 -0.00306760 0.00763661
C -2.08639907 25.24347512 19.45935650 -0.00858076 -0.00061111 -0.00398442
C 0.76150013 20.33008119 23.56224231 0.00297092 -0.00341365 0.00812098
C -4.48070470 23.20795480 22.85633780 0.00054619 0.00284563 -0.00353535
C 3.24760869 27.76411292 20.09610765 -0.00590940 0.00184035 0.00644272
C -3.31844257 25.35960826 20.11238904 -0.00350508 0.00061288 -0.00100158
C -11.15771898 20.71489628 22.68544548 -0.00131713 -0.00453307 -0.00602814
C -3.50008935 22.34499116 23.29988184 -0.00087100 0.00848672 0.00419009
C 2.24110251 26.98118783 19.65141172 0.01077980 -0.00602077 0.00169585
C -4.22007161 26.27271264 19.70915855 0.00774847 -0.00356371 -0.00282224
C -10.23301508 21.50707663 23.19279966 -0.00273643 -0.00333099 0.01034601
C -3.62049684 21.52837608 24.43914901 0.00035138 0.00286481 0.00567319
C 2.42605294 26.17548188 18.51881624 0.00825757 -0.00147882 -0.00372928
C -4.02208744 27.07783104 18.54880653 0.00110614 -0.00249018 0.00451976
C -10.37783017 22.17236398 24.45553032 -0.00121210 -0.00280180 -0.00101538
C -2.26124783 21.49751929 18.70786166 -0.00579641 -0.00671016 0.00468015
C 0.70085162 25.86602116 24.43001039 0.00243010 0.00114051 0.00477794
C -5.61725222 27.00471008 24.03914638 0.00109363 0.00229120 0.00413509
C -8.65116305 22.16067816 18.97824747 0.00722625 0.00510397 0.00245267
C -3.22239249 22.39463742 18.33800993 0.00810043 0.00172077 0.00270741
C -11.37497031 27.11169441 24.27755598 0.00721160 0.00291626 -0.00355408
C 7.40596485 26.13308720 0.04070633 0.00821985 -0.00156826 0.00568480
C 3.32847434 21.53104195 18.31602771 0.00174428 -0.00521185 -0.00264361
C -6.93317163 24.45082601 21.88093233 0.00929795 -0.00045272 -0.00276186
C -7.45932666 19.48863162 20.90814058 0.00136330 0.00258901 -0.00061404
C -0.89544492 23.96518429 21.11189145 0.00239485 0.00525202 -0.00633657
C -0.60932157 28.77989389 21.91726739 -0.00202195 -0.00756137 -0.00502309
C -8.13624439 25.30521113 21.46258961 0.00150668 -0.01152803 -0.00763971
C -6.18480632 20.29900952 20.84282450 0.00010119 0.00208609 0.00231328
C 0.50644635 23.41171568 21.24889563 -0.00514942 0.00183264 0.00216100
C -1.82190207 27.89049092 21.93215588 0.00020433 0.00212343 -0.00103286
C 16.63405140 3.63025445 5.22779447 -0.00377052 -0.00300883 0.00412028
C 13.47657175 8.64641772 0.94273462 0.00209246 -0.00269856 0.00111340
C 20.09317956 5.83033009 0.93920767 -0.00681271 -0.00375190 -0.00736882
C 22.82809805 1.08476147 4.98509287 0.00572406 -0.00083277 0.00044972
C 17.85940218 3.55748367 4.52941531 0.00164893 0.00602438 -0.00445521
C 25.18128279 8.48767813 1.53842113 -0.00246260 -0.00197736 0.00315526
C 18.83572333 5.91903392 1.60510159 0.00026516 -0.00215410 0.00116126
C 10.99936642 1.07501958 4.42363304 0.00014455 0.00155317 -0.00016102
C 18.89325599 2.75457296 4.99051893 0.00697875 0.00071166 -0.00204355
C 24.22858467 7.59834082 1.01006797 0.00004180 -0.00385369 -0.00388468
C 17.91160713 6.85401484 1.25177680 -0.00426572 -0.01182747 0.00170566
C 11.94378047 1.93050481 4.92832282 0.00559347 -0.00612442 0.00059387
C 18.78744842 1.92319749 6.12837063 -0.00284470 0.00698404 0.00023368
C 12.50068616 6.80264229 24.36756673 -0.00410459 0.00769834 0.00568142
C 18.13448975 7.79199110 0.18191068 0.00485506 0.00058997 0.00182935
C 11.65680811 2.86367195 5.92793383 -0.01038313 -0.00006205 -0.00186400
C 20.26343561 1.97828057 0.50880050 -0.00117948 0.00348540 -0.00587623
C 22.72720979 6.96622061 5.44981161 0.00092930 -0.00272907 0.00016198
C 16.51559703 7.48324392 5.62599440 -0.00571030 -0.00220072 0.00376026
C 13.52314987 2.57583740 0.75432595 -0.00374532 0.00367475 -0.00632325
C 19.26049628 2.84481683 0.15530958 -0.00541643 0.00468654 0.00067229
C 10.85719381 7.50210057 6.05567799 0.00618918 0.00056372 -0.00009148
C 17.50103265 6.66082949 6.08454570 0.00243146 -0.00246404 0.00739037
C 25.79372317 1.95652186 0.19577983 0.00476689 -0.00014948 0.00770277
C 15.28984971 5.05114844 3.70741257 -0.00191617 0.00574597 -0.00599369
C 14.96860601 0.20040609 2.48366086 0.00012849 0.00036536 -0.00044222
C 21.27177373 4.53591854 2.54931365 0.00091841 0.00084315 -0.00079288
C 21.70419697 9.16382696 3.50919657 -0.00265891 0.00760371 -0.00052375
C 14.06747334 5.90988167 3.71671601 0.00061965 0.00015640 -0.00334047
C 16.08099807 1.16603043 2.30498960 0.00088000 0.00422219 0.00398102