2880
Time=19999.99999999 pbc="T T T" Lattice="39.50646370 0.00000000 0.00000000 0.00000000 29.02310693 0.00000000 -12.03173281 0.00000000 24.41685717" energy=-18396.59365606 virial="-6.88780562 -5.45590304 -61.70674429 -5.45590304 -35.48434692 -8.45236304 -61.70674429 -8.45236304 -51.75047083" stress="0.00225160 -0.00022102 -0.00229330 -0.00022102 0.00106302 -0.00030263 -0.00229330 -0.00030263 0.00069150" Properties=species:S:1:pos:R:3:vel:R:3
C 3.22786361 3.73017294 5.32563551 -0.00102329 0.00039478 0.01093531
C 0.23636040 8.35386012 1.04473632 0.00102579 0.00302336 0.00778624
C 6.87361627 5.90263646 1.16171443 -0.00342807 0.00940476 -0.00136494
C 9.52955893 0.93963289 5.19781393 -0.00630509 0.00066094 0.00103122
C 4.35411954 3.62091281 4.60956577 0.00058922 0.00454092 0.00628574
C 12.32623300 8.64086692 1.86858927 -0.00703779 -0.00575368 -0.00235773
C 5.61568040 5.88471670 1.80898526 0.00064647 0.00269579 0.00351169
C -2.15248553 1.30841418 4.49634640 0.00622960 0.00546405 -0.00299855
C 5.42830260 2.84462015 5.05472114 -0.00294529 0.00082656 -0.00093129
C 11.40737910 7.65124162 1.55877686 -0.00016303 -0.00499389 0.00012732
C 4.57660131 6.73942361 1.39970109 0.00264714 -0.00328476 -0.00597803
C -1.19465360 2.08361810 5.06835658 0.00116529 0.00131891 -0.00592910
C 5.30672221 2.01771389 6.13180842 -0.00876902 0.00222710 0.00575188
C 11.72076472 6.75017515 0.55970696 -0.00287517 -0.00066812 0.00456693
C 4.67276006 7.46252931 0.21812769 0.00179209 -0.00294769 0.00520725
C -1.41492502 2.77603943 6.28396739 -0.00083990 -0.00432149 0.00323254
C 7.19250860 1.93800472 0.61936641 0.00682445 0.00856397 -0.00270619
C 9.78308529 6.80154585 5.71495584 -0.00071830 0.00136221 0.00184549
C 3.10083336 7.54793451 5.45786635 -0.00297037 -0.00262620 0.00372595
C 0.63848327 2.79859137 0.59379025 0.00305400 0.00244529 -0.00132660
C 6.21687217 2.84230456 0.31135841 -0.00091355 -0.00451593 -0.00075986
C -2.28062882 7.73918827 6.02596410 -0.00742090 0.00324034 0.00096710
C 4.10733620 6.80684764 5.98450623 0.00339926 -0.00136674 0.00485186
C 12.72360246 2.04831225 0.10434349 -0.00203054 -0.00222089 0.00123815
C 1.93414803 4.95789308 3.72874681 0.00269366 -0.00720169 -0.00243923
C 1.74041079 0.32651789 2.59442707 0.00245899 0.00588155 0.00420920
C 8.16187184 4.66566225 2.83710184 -0.00439619 -0.00110888 0.00429984
C 8.76297187 9.59729017 3.56642957 0.00407420 -0.00039287 0.00116431
C 0.74259557 5.76729850 3.53244093 -0.00276245 0.00093787 0.00507890
C 3.06573240 1.03634368 2.67636721 -0.00719157 0.00374485 -0.00272430
C 9.36127164 3.75374865 3.13841885 0.00469553 -0.00228215 -0.00812779
C 7.40389705 9.00285980 3.24874746 0.00252864 -0.00053773 0.00436661
C -0.12822121 3.78731090 11.16701513 0.00224116 0.00430245 -0.01112626
C -2.58871136 8.53645806 7.09201219 -0.00597136 0.00052996 -0.00834584
C 3.90076444 6.03453130 7.16494002 -0.00750728 -0.00372218 0.00564615
C 6.65668983 1.19169313 11.25023905 -0.00440077 0.00628466 0.00683922
C 1.08964735 3.62975180 10.48023422 -0.00512288 -0.00375689 0.00751162
C 9.40873094 8.41989499 7.98735915 -0.00171365 -0.00365843 0.00109434
C 2.64159188 6.02689476 7.83570954 -0.00478996 0.00092471 -0.00230510
C -5.25320450 0.91341681 10.79467245 -0.00244313 -0.00216515 0.00059771
C 2.03316227 2.74265369 10.82303005 -0.00441664 0.00103253 -0.00893574
C 8.44830978 7.46936918 7.66000712 -0.00307203 -0.01342754 -0.00942032
C 1.65077571 6.88831468 7.34168522 0.00559009 -0.00754281 0.00194836
C -4.41909270 1.87424073 11.13303534 -0.01364909 0.00170358 -0.00796955
C 1.83949536 1.92191515 11.99357450 0.00736795 -0.00093611 -0.01235380
C 8.56840308 6.64715143 6.48567737 0.00549164 0.00007925 -0.00179504
C 1.91853052 7.72948201 6.24420879 -0.01068775 0.00170993 -0.00370793
C -4.71686018 2.88790778 12.04328183 0.00078009 -0.00334002 0.00246300
C 4.03945000 1.94459375 6.75162860 0.00409899 0.00591136 0.00010946
C 6.54004627 6.90557333 11.62133171 -0.00469445 -0.00621491 0.00288255
C 0.18187398 7.75859966 11.75374904 0.00535132 -0.00178450 0.00104706
C -2.70385532 2.68555502 6.87393264 0.00273129 -0.00133460 0.00753523
C 3.06403534 2.80092651 6.36621194 -0.00081119 0.00507085 0.00252917
C -5.41943140 8.06068217 12.02529610 0.00876732 -0.00207384 -0.00456750
C 1.04885663 6.76835501 12.25392669 0.00120931 -0.00636664 -0.00303680
C 9.30896338 1.74589580 6.34066988 0.00103718 0.00898817 0.00484430
C -1.26108469 5.20801406 9.67387691 0.00359089 -0.00225416 -0.00449630
C -1.33657777 0.28643705 8.73670710 0.00268239 0.00190722 -0.00170885
C 4.87296579 4.66973602 8.79852921 -0.00631872 -0.00711597 0.00135595
C 5.24408920 9.51294149 9.53218174 -0.00779865 0.00057704 0.00751490
C -2.53690430 5.92441790 9.27826949 0.00352473 -0.01111190 -0.00224240
C -0.01363178 0.94670040 8.91015205 -0.00144424 -0.00075491 -0.00482219
C 6.01857332 3.69039271 9.05911716 0.00068865 0.00069973 -0.00060460
C 4.19226728 8.46683936 9.56935316 0.00043099 -0.00765938 0.00029210
C -2.89701515 3.74909708 17.48300421 -0.00171771 0.00198207 -0.00231584
C -5.56636006 8.74770437 13.23575351 0.00507473 -0.00304837 0.00751298
C 0.82734039 5.98358094 13.38774922 0.00197557 -0.00679530 0.00506431
C 3.55052415 0.88387228 17.30065664 0.00311972 0.00197356 0.00109480
C -1.73694049 3.55804265 16.74596197 -0.00229214 0.00144758 0.00376099
C 6.25617493 8.42759518 13.89576144 0.00242509 -0.00179815 0.00012437
C -0.32273319 6.35022898 14.12643129 0.00170464 0.00186804 0.00460139
C 31.21858451 1.40386711 16.61681624 -0.00309825 -0.00850685 0.00415382
C -0.71602109 2.72625826 17.23587117 0.00042389 -0.00459977 0.00479238
C 5.24249713 7.62734775 13.53826437 -0.00098374 -0.00317197 0.01085661
C -1.25030409 7.26328204 13.61098649 -0.00089362 -0.00530978 -0.00315204
C -7.42206332 2.39260090 16.97645552 0.00250513 0.00448985 -0.00606038
C -0.87222299 1.96660525 18.39755374 0.00468388 -0.00257954 -0.00232511
C 5.34190316 6.81301759 12.38103638 -0.00115782 -0.00320199 0.00367440
C -1.08231801 7.95695393 12.34425281 -0.00644252 0.00836869 -0.00256077
C -7.60786269 3.22506045 18.13449419 0.00305434 0.00577438 -0.00121705
C 0.69152714 2.16767609 12.74613602 -0.00824502 0.00065441 -0.00144242
C 3.48826810 7.00709457 17.63561367 -0.00398475 -0.00117342 0.00465021
C -2.71746764 7.63305452 17.92175792 0.00431263 0.00450020 0.00782338
C -5.94520783 2.86455967 12.64737785 -0.00373650 -0.00234014 -0.00013725
C -0.25664813 3.09172129 12.35477431 0.00226625 -0.00073461 0.00018080
C -8.44444545 8.03958908 18.19391858 -0.00265886 -0.00416209 0.00262806
C -1.85635439 6.57821642 18.31807705 0.00746191 -0.00179638 0.00377303
C 6.49563585 2.03324073 12.40645334 0.00058070 -0.00349860 -0.00320685
C -4.04895258 5.24773861 15.85742238 -0.00472568 -0.00072779 0.00091523
C -4.52505300 0.30036454 14.95785082 -0.00585421 0.00519093 0.00206472
C 1.82060154 4.31018133 14.89531480 -0.00098118 0.00218723 0.00034468
C 2.58275375 9.61858663 15.65926008 -0.00396078 0.00146779 0.00679667
C -5.24617362 6.14958794 15.76185656 0.00179260 0.00131645 -0.00197346
C -3.33419262 1.25343479 15.19814617 -0.00977223 -0.00368441 -0.00358754
C 3.06360213 3.41635773 15.01198972 0.00389333 -0.00242192 0.00352358
C 1.46490209 8.63660202 15.50587389 0.00180166 0.00181454 -0.00021765
C -5.72229024 3.60620079 23.54966838 0.00593888 -0.00512605 0.00546102
C -8.71300195 8.78293527 19.36983223 0.00707194 0.00709500 0.00434416
C -2.08530495 5.90857638 19.48355841 0.00423485 -0.00214262 0.00666312
C 0.83955094 1.13753252 23.47610920 -0.00249503 0.00306447 -0.00112557
C -4.49446161 3.63765372 22.83388823 0.00551776 -0.00571202 0.00431044
C 3.03244058 8.68219226 19.77954108 0.00105392 0.00350867 -0.00827612
C -3.28036712 6.17360234 20.23476095 0.00532139 -0.00452510 -0.00085451
C -11.16522536 1.18032565 22.76019653 0.00157885 -0.01122405 -0.00083710
C -3.47188519 2.78496827 23.23393908 -0.00031083 -0.00890703 -0.00241097
C 2.02488372 7.82583921 19.32013481 0.00175091 -0.00001577 0.00686207
C -4.10920655 7.22747719 19.86288017 -0.00798927 0.00287861 -0.00794600
C -10.10919546 1.98186912 23.13795899 -0.00188904 0.00870747 0.00908100
C -3.64352487 1.91261118 24.33435567 -0.00610174 -0.00230528 -0.00788337
C 2.21696137 7.00018145 18.22476384 -0.00088783 0.00149345 -0.00070460
C -3.79097072 7.94875329 18.70793877 -0.00153391 -0.00029101 0.00002381
C -10.17370517 2.78407934 24.31640934 0.00509451 -0.00338764 -0.00364192
C -2.08898343 2.12680842 19.12230011 0.00724710 0.00288733 -0.00274519
C 0.86132711 6.83984325 24.30327484 0.00009177 0.00838624 0.00270036
C -6.12716529 7.35543283 23.86991928 -0.00205087 0.00414243 -0.00018221
C -8.82137010 2.94332046 18.86625039 0.00254261 -0.00021941 -0.00202631
C -3.11522337 2.95372186 18.66175359 0.00156214 0.00243149 0.00196184
C -11.63902005 7.47655959 24.38429094 0.00138502 0.00771743 0.00705418
C 6.92084434 6.64952496 0.00863311 -0.00138143 -0.00193587 0.00533943
C 3.25208007 1.78594645 18.32510513 -0.00443454 -0.00242923 0.00282198
C -6.94198350 5.06352254 21.88944868 -0.00093468 0.00407450 -0.00216264
C -7.48686775 0.20556214 20.77421337 -0.00748312 -0.00074048 0.00076263
C -0.68436960 4.87131368 21.16505077 -0.00231169 -0.00092739 -0.00283857
C -0.44296598 9.49587990 22.05366193 0.00650859 -0.00211711 0.00458132
C -8.14827478 5.90806855 21.68587073 0.00313079 0.01113099 0.00076019
C -6.30980687 1.15239579 20.80983360 0.00972549 0.00367081 -0.00552536
C 0.61414382 4.06384464 21.41014067 -0.00116444 -0.00084252 0.00033124
C -1.66142490 8.73031069 21.88130664 -0.00374596 0.00310039 0.00121461
C 3.14622208 13.32039619 4.89489798 -0.00542635 0.01045877 -0.00053235
C 0.38856842 18.31782147 1.02087444 -0.00356135 0.00477130 0.00567760
C 6.96854497 15.40203739 0.89646722 -0.00039209 0.00251367 -0.00039708
C 9.91300600 10.93736685 5.22429123 -0.00243007 0.00013764 -0.00710881
C 4.37033978 13.25008430 4.24997806 0.00274396 0.00146801 0.00269918
C 12.49514726 18.22750520 1.78371405 0.00127068 -0.00051920 -0.01053960
C 5.66162927 15.25740280 1.38158590 0.00865754 -0.00480058 -0.00318533
C 37.19990328 10.96151382 4.23858774 -0.00244110 -0.00219619 0.00752807
C 5.34388372 12.35245730 4.64666797 -0.00486392 0.00099294 -0.00187663
C 11.55598747 17.25681085 1.51405215 -0.00347703 0.00132255 -0.00232660
C 4.72815214 16.10435597 1.07444203 0.00253345 0.00878427 0.00040565
C -1.25792975 11.75498486 4.65309202 0.00026572 0.00030403 0.00188773
C 5.06969818 11.45773113 5.63995856 0.00482758 -0.00852460 0.00722480
C 11.75944706 16.45867367 0.38648885 -0.00441342 0.00037931 0.00337976
C 4.95341341 17.04090284 0.08297849 0.00005168 0.00255329 0.00627856
C -1.37697910 12.55968225 5.89091397 -0.00357178 0.00054055 -0.00011629
C 6.89207688 11.53352529 0.40782604 0.00427674 0.00246249 -0.00346443
C 9.84183525 16.23396605 5.64616109 0.00059873 0.00090982 -0.00711408
C 3.44004870 17.34980844 5.68881935 0.00844806 0.00320180 0.00396090
C 0.38462733 12.41047921 0.39687537 0.00072831 -0.00422524 0.00309296
C -6.16196629 12.37506217 24.34722353 -0.00156297 -0.00256605 -0.00030569
C -2.41598916 17.46713563 6.00122487 0.00404479 0.00020354 0.00319794
C 4.26010635 16.27944267 5.98025919 0.00065653 -0.00113262 0.00560875
C 12.64153131 11.68169452 0.23658674 -0.00125790 -0.00213636 -0.00029928
C 2.03388334 14.78737255 3.20620491 0.00909185 -0.00398580 -0.00303296
C 1.50320593 9.84289234 2.54782154 0.00227733 0.00435726 0.00176328
C 8.08279451 13.95375715 2.49969772 0.00334578 0.00399368 0.00197955
C 8.43031504 18.68364919 3.52986743 0.00327361 0.00496627 -0.00305428
C 0.99196220 15.80335065 3.04774333 -0.00120380 0.00115679 -0.00701508
C 2.75627594 10.73943744 2.63794366 -0.00442382 -0.00552651 -0.00235568
C 9.35481213 13.17735136 2.61168453 -0.00535369 0.00728562 -0.00590706
C 7.34999026 17.57738348 3.59802407 0.00567106 0.00058128 0.00404168
C 0.02738535 13.54565259 11.08299610 -0.00405027 -0.00052758 0.00083255
C -2.60887036 18.36448790 7.01387550 -0.00348110 0.00405984 -0.00465203
C 4.07444799 15.48350871 7.07520204 -0.00070512 -0.00201434 -0.00191923
C 6.69088844 10.65321810 11.13770360 -0.00671293 -0.00410381 0.00651754
C 1.32177157 13.40415229 10.40374426 -0.00035931 -0.00791302 0.00427330
C 9.31908760 18.02090151 7.74277813 0.01157856 -0.00548282 0.00277086
C 2.89458971 15.82052242 7.82892920 -0.00579185 0.00385113 0.00091072
C 34.17417059 10.99983467 10.59546624 -0.00469737 0.00386159 -0.00256484
C 2.23325151 12.48018962 10.82537398 -0.00373285 0.00780630 -0.00115493
C 8.30934601 17.18479302 7.29159180 0.00169470 0.00049618 -0.00173801
C 2.00033592 16.86260187 7.53329451 -0.00281746 -0.00323840 0.00217818
C -4.37541956 11.99892821 10.90410644 -0.00356239 0.00347324 -0.00519028
C 1.98451232 11.70459785 11.96784058 0.00396520 -0.00162968 -0.00114061
C 8.53554192 16.37013107 6.16699133 -0.00229113 0.00081129 0.00561364
C 2.25896379 17.69027874 6.40351135 0.00519070 -0.00535317 -0.00235390
C -4.59390829 12.92636359 11.93961340 0.00507555 0.00500836 -0.00077441
C 3.81383556 11.41383489 6.27463913 -0.00312271 -0.00925209 0.01071233
C 6.73397736 16.46346203 11.58560615 -0.00054809 -0.00655014 -0.00053175
C 0.48397458 17.46271023 11.83980700 0.00766812 -0.00523081 0.00015249
C -2.61471250 12.56043251 6.54938707 -0.00136320 -0.00396037 0.00523472
C 2.92078095 12.43513917 5.96349435 0.00001224 -0.00467152 0.00245342
C -5.48359297 17.41500441 12.00290297 0.00062612 -0.00149188 -0.00556905
C 1.40245717 16.51769621 12.28662571 -0.00262127 -0.00191688 0.00490212
C 9.74158985 11.77305457 6.32504990 -0.00416943 0.00545926 0.00078898
C -1.06233379 15.04886251 9.64009818 -0.00437276 0.00099980 -0.00182966
C -1.26877019 10.03154068 8.55857900 0.00009205 -0.00341547 0.00482910
C 5.51514795 14.10215543 8.52396623 -0.00203060 0.00585381 -0.00243099
C 5.50266743 18.82400846 9.88906918 -0.00120583 0.00461213 -0.00347979
C -2.22307449 15.91741248 9.35479966 -0.00157427 0.00345098 -0.00126019
C 0.03839923 10.68071370 8.73603504 -0.00377579 0.00383913 -0.00288952
C 6.79911799 13.39688897 8.45145646 0.00047329 0.00090331 0.00326407
C 4.27248837 17.98336345 9.84988517 -0.00142640 0.00004145 -0.00316008
C -2.66582510 13.24563887 17.34656108 0.00298862 -0.00435093 0.00239905
C -5.60632618 18.19324521 13.16909154 -0.00065478 0.00524020 -0.00223985
C 1.03168674 15.56324619 13.23425980 0.00254515 -0.00932375 0.00975584
C 3.80924422 10.90667497 17.26562097 -0.00582383 0.00308361 0.00411223
C -1.46805234 13.25550950 16.62114599 0.00740846 -0.00895974 0.00364349
C 6.49070984 17.91565073 13.97585887 0.00164881 -0.00025775 0.00415865
C -0.20652609 15.71124661 13.87272557 -0.00404052 0.00531502 0.00768184
C 31.33046075 11.08015643 16.56708913 0.00255649 -0.00234398 0.00120599
C -0.41783656 12.38005796 17.03594817 -0.00987124 -0.00096762 -0.00205452
C 5.44702190 17.08505735 13.54510319 0.00269468 0.00093453 0.00492719
C -1.10502768 16.65838289 13.48692529 -0.00106679 0.00016387 0.00411734
C -7.08766073 11.88092404 16.94681231 -0.00544486 0.00010290 -0.00118334
C -0.54654013 11.64314487 18.20679507 -0.00840132 0.00728640 -0.00207453
C 5.56799884 16.32030422 12.35182889 -0.01000037 0.00221052 -0.00230821
C -0.76282444 17.52741575 12.43638348 0.00022726 0.00387511 -0.00461992
C -7.16493026 12.73013433 18.07053612 -0.00800322 -0.00005821 0.00997912
C 0.72661400 11.83243621 12.56432137 -0.00224554 0.00509673 0.00301173
C 3.64401148 16.28503863 17.78595241 0.00170030 -0.00555226 0.00005162
C -2.65576549 17.26171914 17.91544194 0.00677564 -0.00310232 0.00328243
C -5.81497905 12.78990921 12.65471795 0.00139100 0.00282850 -0.00747633
C -0.28718201 12.64532021 12.13647856 0.00341585 0.00797811 0.00495516
C -8.39789622 17.42145744 18.28006377 0.00137950 0.00576581 0.00331044
C -1.76523843 16.28309129 18.28176542 0.00317549 -0.00795271 -0.00521829
C 6.44821278 11.49331675 12.26064820 0.00145438 0.00161054 0.00416963
C -3.99377225 14.58027004 15.72911078 0.00103331 -0.00556629 -0.00643285
C -4.41982061 9.94434047 14.93496396 0.00372370 0.00598509 0.00695892
C 1.97532966 14.11305697 14.79862568 0.00154939 0.00023063 0.00024355
C 2.40737168 19.01202122 15.80976360 0.00430508 -0.00151796 -0.00033363
C -5.06284658 15.66284718 15.60000208 0.00259919 -0.00084531 0.00241049
C -3.61445804 11.17771036 15.29999729 -0.00555182 -0.00608681 0.00776903
C 3.11872001 13.22336125 15.07991313 0.00745673 0.00623258 -0.00047640
C 1.07686944 18.30444988 15.67983718 0.00051206 0.00149553 0.00632788
C -5.89753617 13.28167993 23.32543785 -0.00166435 0.00610615 -0.00011052
C -8.56988760 18.19472003 19.41520721 -0.00132160 -0.00119859 -0.00412552
C -2.01162235 15.44987016 19.38324331 0.00021571 0.00722764 -0.00823731
C 0.86261276 10.77230161 23.62670603 -0.00117383 0.00823788 -0.00053628
C -4.62855567 13.27390952 22.69595351 -0.00923412 -0.00177983 -0.00982482
C 3.26349972 17.98333256 19.98773323 0.00658917 -0.00042685 -0.00325830
C -3.19503419 15.63241954 20.13901921 0.00215729 -0.00720535 0.00302031
C 28.15307936 10.78685740 22.60456809 -0.00024778 -0.00041688 0.00601543
C -3.64291358 12.39728227 23.13130196 0.00119121 0.00231080 0.00340066
C 2.26774053 17.08671338 19.59255138 -0.00717168 0.00279271 -0.00720124
C -4.13239410 16.57812309 19.71662281 -0.00353794 -0.00238964 -0.00333497
C -10.33912945 11.66653304 22.90001376 -0.00104807 -0.00186248 0.00475016
C -3.93648070 11.49525669 24.16194166 -0.00366325 0.00000985 0.00816872
C 2.43071792 16.23893382 18.46071754 -0.00425852 -0.00400036 -0.00344665
C -3.90925128 17.41975734 18.65344778 -0.00214002 -0.00241909 -0.00032347
C -10.44898252 12.47456236 24.01923340 -0.00121658 -0.00381152 -0.00812475
C -1.74287690 11.73273660 18.91376720 0.00340280 0.00202103 -0.00571448
C 0.87462425 16.56927987 24.05316796 0.00567801 0.00942520 -0.00011468
C -5.79830583 17.16553647 23.91966994 0.00200354 -0.00339447 0.00259475
C -8.42029866 12.74583064 18.79340040 -0.00316902 -0.00193125 -0.00242304
C -2.85297045 12.38260998 18.49376585 -0.00601745 0.00152011 0.00496469
C -11.38766515 17.47129422 24.37226833 -0.00020955 0.00489945 0.00401476
C -4.76656617 16.32403839 24.34626484 0.00004769 -0.00828319 -0.00094662
C 3.77323675 11.59631912 18.46361479 -0.00252749 -0.00168022 0.00215004
C -7.17776851 14.66061581 21.74425732 -0.00081937 -0.00527467 0.00519045
C -7.49556521 10.10043464 21.03601400 -0.00677364 0.00005689 0.00234150
C -0.77079626 14.25689209 21.00350187 0.00548483 0.00945373 0.00649942
C -0.26230822 18.98585992 21.69511237 0.00305065 -0.00651257 0.00047607
C -8.42925438 15.44364167 21.64184531 0.00433241 -0.00410385 -0.00316855
C -6.20642239 10.81594546 21.25842096 0.00250936 0.00071471 -0.00021358
C 0.42432007 13.31783121 21.08287769 0.00212108 -0.00458131 -0.00405122
C -1.40629602 18.11461305 21.39839906 -0.00534409 0.00382881 -0.00088086
C 2.99930490 22.99388892 5.20589994 -0.00526929 -0.00394976 0.00201684
C 0.46615299 27.91888453 1.08759589 0.00645903 -0.00091477 0.00453054
C 6.97801674 24.92058267 1.07110384 0.00298518 -0.00006618 0.00396681
C 9.64656326 20.11827973 5.13663951 -0.00923315 0.00094415 0.00178893
C 4.18415492 22.82111018 4.51373369 0.00179810 0.00049260 0.00183023
C 12.31708828 27.87199643 1.87324821 0.00072802 -0.00332858 -0.00178283
C 5.67691899 25.06826433 1.67105342 -0.00570453 -0.00337849 0.00116215
C 37.27953430 20.42864276 4.29760697 0.00520031 0.00036312 -0.00032580
C 5.23285803 22.01334458 4.98387495 0.00303788 0.00527811 -0.00154590
C 11.24352524 27.10904481 1.43015958 -0.00769321 -0.00364481 -0.00245805
C 4.77213840 26.03728470 1.22891768 -0.00242340 0.00521543 0.00311421
C -1.25445192 21.33586859 4.65210449 -0.00110982 0.00407767 -0.00974643
C 5.01833019 21.34900763 6.21527236 0.00489924 -0.00325657 -0.00236638
C 11.35511139 26.25429903 0.29076628 0.00324768 0.00536810 -0.00027069
C 5.14169288 26.87541030 0.14732931 -0.00553855 0.00188414 -0.00533118
C -1.45519762 22.17501045 5.79266767 0.00235716 -0.00408521 0.00148430
C 6.92928815 21.17431957 0.51857348 0.00349568 0.00419929 0.01613335
C 9.81693557 25.97517496 5.72981054 -0.00918811 -0.00538134 0.00272966
C 3.01077176 26.86224678 5.39187402 -0.00137248 0.00320063 0.00862599
C 0.41157904 22.31647493 0.35200341 -0.00502456 -0.00186816 0.00596774
C 5.91174206 21.90023996 0.02689899 0.00054744 0.00039471 -0.00371384
C -2.52373789 27.23776448 5.96879171 0.00050286 -0.00275010 0.00102435
C 4.03332980 26.16609859 6.00408708 -0.00644855 -0.00507723 -0.00385606
C 0.45687951 21.23114814 24.35555639 0.00634018 -0.00103506 -0.00736240
C 1.87019569 24.37317450 3.52397240 -0.00095896 -0.00385453 0.00315916
C 1.50119016 19.70091457 2.66559403 0.00153425 -0.00345706 -0.00008667
C 8.22360120 23.52998380 2.61784853 -0.00356123 -0.00020929 -0.00253070
C 8.25863988 28.57285532 3.63853200 -0.00432775 -0.00107200 -0.00110611
C 0.57253713 25.18454168 3.31983302 0.00110917 0.00522517 0.00391302
C 2.37522857 20.87385224 2.87313672 0.00304510 0.00241660 -0.00106731
C 9.44597570 22.71513594 2.76774815 0.00205229 -0.00491989 -0.00317503
C 7.14227872 27.60147252 3.54397077 0.00432045 -0.00248865 0.00109586
C 0.13055201 23.03651642 11.24995246 -0.00133685 0.00223037 0.00476810
C -2.67738370 28.02332892 7.09984036 -0.00200710 -0.00186773 -0.00365503
C 3.84017460 25.35734739 7.17905914 -0.00271291 0.00314937 0.00276105
C 6.84880300 20.40701547 11.33661058 -0.00815745 0.00030544 -0.00091086
C 1.31726470 22.91252626 10.53552243 0.00722693 -0.00564614 -0.00053964
C 9.26840948 27.75509741 7.78589932 -0.00245150 -0.00125301 -0.00361042
C 2.57564193 25.41963770 7.78825224 -0.00309247 0.00232553 -0.00448207
C 34.28819046 20.52334801 10.55110215 0.01041532 -0.00488335 0.00172257
C 2.23923032 21.94370262 10.83604354 -0.00957167 0.00044281 0.00028039
C 8.30066537 26.83492583 7.33597645 -0.00212848 0.00237847 0.00168817
C 1.57931099 26.22881785 7.24878118 0.00139311 -0.00158919 -0.00686958
C -4.19074771 21.35681578 10.94281906 -0.00182216 -0.00093492 -0.00084982
C 2.14011735 21.23805116 12.06955921 -0.00289941 -0.00289630 -0.00196307
C 8.59101539 25.90868482 6.31311626 0.00310499 -0.00310272 -0.00300749
C 1.72789141 26.98098994 6.04537572 0.00240935 -0.00250199 -0.00128694
C -4.39349307 22.19769403 12.08981344 0.00075216 0.00875418 0.00271227
C 3.86899070 21.54880117 6.94130201 0.00483848 0.01054026 -0.00087413
C 6.68701691 26.36315790 11.46345752 -0.00209478 -0.00719434 -0.00090892
C 0.12371778 26.91870404 11.73552927 -0.00848856 0.00287431 0.00135974
C -2.70708625 22.06120456 6.47618189 -0.00079835 0.00054418 -0.00495731
C 2.81146313 22.22808882 6.44569942 0.00096241 0.00669239 -0.00086022
C -5.27373415 26.92877900 12.35302139 -0.00373116 0.00063793 -0.00183656
C 1.09848641 26.02064056 12.18563390 0.00758142 0.00848008 -0.00690382
C 9.47532500 20.96562033 6.22897150 -0.00142937 0.00487184 0.00042487
C -0.98512357 24.56811206 9.61420805 -0.00477188 0.00420077 0.00103710
C -1.41023266 19.72281214 8.56858893 -0.01051867 0.01637409 0.00235352
C 5.05676824 23.93644251 8.81333390 0.00330699 0.00248601 -0.00280594
C 5.34671449 28.85960564 9.72763525 0.00580054 -0.00390190 0.00107253
C -2.00870242 25.67559367 9.57242104 0.00121311 -0.00130514 0.00112142
C -0.28045846 20.66680255 8.72926221 0.00262149 -0.00018076 -0.00418446
C 6.37455212 23.25109785 9.00690260 0.00743414 -0.00249316 -0.00224842
C 4.11750495 28.00133889 9.45016676 0.00349852 0.00159865 -0.00665524
C -2.94748876 22.93209739 17.33383477 -0.00209236 -0.00100408 0.00842289
C -5.59415251 27.84201455 13.37952532 0.00731421 -0.00494804 -0.00229024
C 0.89879320 25.20870226 13.28856108 0.00560845 0.00319537 -0.00472531
C 3.86892033 20.25625285 17.36488205 0.00637151 0.00515107 0.00301936
C -1.66349706 22.81914919 16.67738719 0.00272981 0.00616043 0.00126832
C 6.33512251 27.86824098 13.78916427 0.00489125 -0.00054659 -0.00714147
C -0.32058451 25.32189138 13.92279706 0.00768228 0.00548766 0.00518728
C -8.04386195 20.42286562 16.69640626 -0.00116108 -0.00194504 -0.00683595
C -0.73204503 21.88462003 17.10196616 -0.00255259 -0.00416718 0.00450165
C 5.28256954 27.06814593 13.35833278 -0.00182718 -0.00425514 0.00203621
C -1.27367260 26.18797837 13.53527284 -0.00125628 -0.01042305 0.00183020
C -7.02749454 21.27589172 17.15666777 -0.00089281 0.00268786 -0.00090969
C -0.98506953 21.04672052 18.27110329 -0.00611837 -0.00607884 0.00200155
C 5.44588199 26.37187361 12.13350679 -0.00651657 0.00511535 -0.00532562
C -1.10578767 27.03994709 12.40274456 -0.00358799 -0.00166347 0.00062774
C -7.35995293 22.10751263 18.19929038 -0.00259921 -0.00366568 0.00145260
C 0.91000921 21.34842958 12.78982200 0.00462642 0.00338705 -0.00297589
C 3.79728931 26.32976887 17.63422511 0.00085012 -0.00765978 0.00071832
C -2.92162161 27.13055943 17.71018750 0.00114965 0.00195395 0.00305190
C -5.63001176 22.14616344 12.86568942 -0.00290687 -0.00051812 0.00445363
C -0.10654741 22.15649040 12.32748776 0.00088887 0.00639560 0.00295530
C -8.58195791 27.10805923 18.00244216 -0.00011380 -0.00090365 0.00126347
C -1.93068261 26.26335832 18.05876876 0.00091991 -0.00173390 -0.00546716
C 6.69208512 21.22651377 12.42349571 -0.00510856 -0.00310978 -0.00047297
C -4.10609603 24.48399264 15.82261227 -0.00099117 -0.00171614 0.00056596
C -4.42022045 19.47113260 14.81107340 0.00022661 -0.00035013 -0.00443139
C 2.05050908 23.81567430 14.89794272 0.00098361 0.00062842 0.00275018
C 2.36816837 28.63389776 15.66496612 0.00101345 0.00419819 0.00349281
C -5.24508129 25.42721378 15.84181908 -0.00502400 0.00164198 -0.00401255
C -3.20386227 20.40081807 15.02658512 0.00453311 -0.00060271 0.00283024
C 3.29925494 23.05460743 15.11033540 -0.00396531 0.00096653 -0.00219424
C 1.20749764 27.76265054 15.39004491 0.00268215 0.00374845 0.00474965
C -5.87616289 22.90541866 23.41514941 0.00010908 0.00448064 -0.00580541
C -8.71152956 27.85787134 19.21658011 -0.00015770 0.00090513 0.00270487
C -2.07021012 25.46425389 19.22121215 -0.00043679 -0.00220697 0.00563124
C 0.78940459 20.40986241 23.26766331 -0.00354489 -0.00158227 0.00242496
C -4.59876293 22.82924636 22.75416575 -0.00828372 0.00160126 -0.00365510
C 3.30857369 27.64650813 20.01097698 0.00534753 0.00047779 -0.00170044
C -3.28530261 25.51290868 19.94727798 0.00327031 -0.00170736 -0.00142626
C -11.18336706 20.47854086 22.72982214 0.00579995 0.00339319 -0.00044253
C -3.59775762 22.02433322 23.25533451 0.00124223 0.00296560 0.00518336
C 2.33798037 26.86755409 19.50594225 -0.00056305 0.00298693 -0.00664589
C -4.30049349 26.40641430 19.53004468 0.00418386 -0.00278674 -0.00764396
C -10.20480460 21.39350514 23.10130997 -0.00104358 -0.00181840 0.00389811
C -3.82499795 21.11140657 24.27012075 0.00430859 0.00300854 0.00276790
C 2.60348365 26.10635111 18.31285430 0.00401919 -0.00445208 0.00367311
C -4.12253248 27.20784678 18.41287832 0.00657092 -0.00261565 -0.00426327
C -10.38261211 22.38937165 24.14334994 -0.00195950 0.00464760 -0.00197324
C -2.09856099 21.32185981 19.01634759 0.00031756 -0.00218387 -0.00381048
C 0.61498093 26.22109223 24.12864777 -0.00382873 0.00326757 0.00013001
C -5.67453000 26.67937737 23.91049872 -0.00692481 0.00351022 -0.00006487
C -8.68938331 22.07337586 18.78258904 0.00314068 0.00226708 0.00537743
C -3.05104614 22.19139445 18.47665646 -0.00362520 -0.00003935 -0.00276814
C 0.62244209 27.13517633 0.00036169 0.00718579 -0.00066594 0.01061367
C -4.83230982 25.67802595 24.31764814 -0.00021508 0.00580965 -0.00526215
C 3.70572221 21.15709464 18.44607579 -0.00076136 0.00151195 -0.00473652
C -6.97631050 24.41852858 21.82330828 0.00750653 0.00031084 -0.00630729
C -7.42750314 19.49745547 21.02028946 -0.00633287 0.00701130 0.00237059
C -0.97955490 23.92579996 20.76017775 0.00044733 -0.00721679 0.00038605
C -0.31274339 28.60637984 22.01035544 0.00526687 0.00066801 0.00601060
C -8.14151003 25.30316357 21.55408919 0.00331655 -0.00746060 0.00533347
C -6.19114509 20.35280766 21.21835842 -0.00551310 0.00476464 0.00338449
C 0.12272076 22.92357083 20.90606189 -0.00209302 0.00097965 0.00798610
C -1.37037330 27.58986683 21.93513714 0.00013184 0.00430784 0.00291575
C 16.33232412 3.75159656 5.17155072 0.00706128 0.00486841 0.00220369
C 13.60345530 8.67984125 1.29057639 0.00168432 -0.00432623 -0.00081579
C 20.18442589 6.22145285 0.88974500 0.00303063 0.00071271 0.00533380
C 22.93881485 1.19776134 4.88248920 -0.00337506 0.00441831 -0.00725349
C 17.56790889 3.58337623 4.47531296 -0.00328845 -0.00338337 -0.00674281
C 25.68624702 8.62471999 1.49286293 -0.00166682 0.00336271 0.00368281
C 19.07016116 6.47724805 1.68924639 -0.00146102 -0.00465562 -0.00566832
C 10.69834420 1.06550337 4.47126327 0.00013349 -0.00088323 0.00627529
C 18.50358379 2.76175169 4.93185063 0.00303963 -0.00167789 0.00024167
C 24.72843179 7.69611063 1.22006462 -0.00429694 0.00169288 0.00047152
C 18.18701203 7.50194084 1.37409415 -0.00276299 0.00173624 -0.00473952
C 11.62834170 2.02318691 4.84140241 -0.00296647 -0.00049757 0.00079053
C 18.38995379 2.06959134 6.12523110 -0.00236195 0.00722485 -0.00652248
C 24.93399369 6.79672864 0.20915728 0.00205225 -0.00330904 -0.00117556
C 18.39532289 8.17494471 0.18130128 0.00037202 0.00649881 -0.00125887
C 11.43613600 2.78727760 5.98117683 -0.00698342 0.00503621 -0.00151904
C 20.10194059 2.15034325 0.43775629 -0.00242377 0.00454971 0.00739149
C 22.92634766 6.89470170 5.56663088 0.00537944 -0.00261315 0.00290841
C 16.31394372 7.54637346 5.49244329 0.00052600 -0.00307097 -0.00390365
C 13.76763481 2.88952317 0.42840601 0.00046965 0.00183678 0.00504979
C 6.95979771 2.86923090 24.41131005 0.00700369 -0.00741920 0.00237393
C 10.74521588 7.60727731 6.20797876 -0.00311302 0.00395163 -0.00003174
C 17.28515617 6.80650532 5.95620261 -0.00402124 0.00399802 0.00133491
C 25.70173747 1.90127427 0.00788001 -0.00094989 -0.00390247 0.00059789
C 15.09377363 5.06874523 3.47355529 0.00317676 -0.00560892 0.00140716
C 14.61829590 0.36820300 2.66364661 -0.00366726 -0.01006835 0.00606108
C 21.26849644 4.61642300 2.41221762 0.00480020 -0.00738137 -0.00035553
C 21.65623976 9.45327247 3.73124785 0.00280402 0.00102703 -0.00748630
C 13.83082683 5.90957539 3.28920793 -0.00109969 0.00604293 -0.00312786
C 15.73939389 1.30353722 2.84881544 0.00242341 0.00235817 0.00203696
C 22.51495147 3.76083971 2.38629520 0.00642976 0.00973334 0.00379296