2880
Time=52000.00000004 pbc="T T T" Lattice="39.59597452 0.00000000 0.00000000 0.00000000 28.94413972 0.00000000 -12.04981879 0.00000000 24.49031869" energy=-18401.46193242 virial="-41.22529736 15.06342607 -42.70267101 15.06342607 -28.83616136 -8.22188588 -42.70267101 -8.22188588 -62.56707439" stress="0.00099287 0.00048677 -0.00155572 0.00048677 0.00144232 -0.00026310 -0.00155572 -0.00026310 0.00017529" Properties=species:S:1:pos:R:3:vel:R:3
C 3.07705866 3.83723858 4.92710331 -0.00868870 -0.00514112 -0.00105613
C 0.46205919 8.63638111 0.90336619 -0.00115299 -0.00254698 0.00182705
C 7.14990870 5.88550620 0.93348131 0.00140523 -0.00178931 0.00351356
C 9.81078175 1.05014054 5.10509170 0.00633317 -0.00778101 -0.00106352
C 4.37862663 3.83503019 4.32568469 0.00965536 -0.00380912 -0.00911807
C 12.63775473 8.40052383 1.79908837 -0.00447938 0.00009902 -0.00488133
C 6.03108135 6.09808212 1.72129802 0.00602961 0.00031911 -0.00340993
C 37.24853311 1.38092893 4.40698086 -0.00061190 0.00446630 -0.00214724
C 5.42414021 3.09926066 4.82422758 -0.00275217 0.00111071 -0.00279605
C 11.71812545 7.40930706 1.40689489 -0.00341090 0.00223289 -0.00317927
C 5.05050497 6.98337043 1.30966769 0.00021200 -0.00299586 0.00038741
C -1.35719529 2.20248352 4.84837396 0.00130587 0.00417215 -0.00503192
C 5.23260093 2.17221521 5.89364745 0.00162177 -0.00671076 -0.00283294
C 11.92159853 6.68205294 0.30643749 0.00512540 -0.00217866 0.00492159
C 5.14016850 7.65083908 0.06070868 -0.00156685 -0.00254534 -0.01032223
C -1.51141102 3.02694799 5.98423337 -0.00835422 0.00246867 -0.00273300
C 7.03543710 2.01034953 0.66802495 -0.00331916 0.00521383 0.00461640
C 9.82148466 6.73035958 5.67492007 -0.00346036 0.00237926 -0.00578209
C 3.14730977 7.88099383 5.33728665 0.00332505 -0.00517531 -0.00830951
C 0.19593533 2.96588673 0.52045470 -0.00202721 -0.00110638 -0.00405695
C 5.95877243 2.77719777 0.29455456 -0.00212526 0.00467128 0.00868296
C -2.67222596 7.60532029 6.05969969 -0.00480882 0.00148045 -0.00127319
C 4.10521943 6.95801064 5.71025656 0.00685992 0.00139887 0.00726756
C 12.68841880 1.85661070 0.32047822 0.00219740 0.00475378 -0.00387809
C 1.97003282 5.34059011 3.45582168 0.00432491 -0.00121416 -0.00034574
C 1.42711208 0.54790221 2.20976587 0.00171408 0.00645341 -0.00717713
C 8.43192203 4.58232621 2.49620503 -0.00612145 -0.00123671 -0.00811494
C 8.68237111 9.30130365 3.66255241 -0.00448651 0.00089419 0.00469148
C 0.79132715 6.20389767 3.31839330 -0.00231184 0.00098128 -0.00735096
C 2.57204800 1.40859511 2.48426234 0.00412692 -0.00676281 -0.00022670
C 9.60922601 3.72828296 2.63365315 -0.00124582 0.00157080 -0.00025137
C 7.36180928 8.67281802 3.33966011 -0.00032098 0.00504873 0.00273623
C 0.20083915 3.73464725 11.12108858 0.00518466 -0.00241261 -0.00369796
C -2.83247826 8.37871953 7.22759500 -0.00833788 0.00877335 0.00169133
C 3.83152180 6.07329055 6.77093184 0.00643920 -0.00263018 -0.00359639
C 6.87789346 1.20852296 11.20772347 0.00637207 -0.00137404 -0.00509885
C 1.45066248 3.71079718 10.51552345 0.00146937 -0.00328195 -0.00099406
C 9.39945474 8.30349448 7.90198356 0.00453274 0.00133565 0.00743137
C 2.60348104 6.09661212 7.50391893 0.00008534 0.00182154 0.00119367
C -5.09847902 0.97250746 10.65578429 0.00865639 0.00591268 0.00388801
C 2.31153390 2.62283435 10.76373173 -0.00176104 0.00006219 -0.00140153
C 8.32549921 7.59276851 7.35343490 -0.00132190 0.00240765 0.00186998
C 1.67588351 7.08187082 7.08352812 0.00753655 -0.00095480 0.00739483
C -4.06801802 1.74494293 11.21809927 0.00662049 -0.00241056 -0.00293828
C 2.09961684 1.77897392 11.87006277 0.00706031 0.00219527 -0.00193424
C 8.50032656 6.73733021 6.22868527 -0.00453156 -0.00240183 -0.00188963
C 1.93268540 7.98863731 5.99097354 0.00261851 0.00001016 0.00667565
C -4.27003956 2.68854165 12.23626526 0.00279352 0.00023636 -0.00087132
C 3.93499128 2.17905610 6.46110548 -0.00231094 -0.00146209 -0.01394222
C 6.51277166 6.85478489 11.59310968 -0.00075654 -0.00240610 0.00141824
C 0.00417310 7.65201220 11.70280427 -0.00425458 -0.00050369 0.00884473
C -2.72058185 2.95531659 6.67224435 -0.00630290 -0.00167344 -0.00189590
C 2.89375369 2.94232929 6.00706060 -0.00559138 0.00008102 -0.00398051
C -5.52736070 7.97096717 12.16606509 -0.00176806 -0.00464093 0.00215752
C 1.00179615 6.74791240 12.08348713 0.00430233 0.00627252 0.00313168
C 9.65347946 1.87111287 6.20289868 -0.00294091 -0.00322540 0.00261250
C -1.06066385 5.15692853 9.66456758 -0.00570739 -0.00141392 0.00058822
C -0.99069030 0.09843239 8.56706791 0.00037420 -0.00574632 -0.00274797
C 4.89613098 4.71352808 8.35163519 -0.00195771 -0.00322597 0.00608652
C 5.45245908 9.25062822 9.47763763 0.00637395 -0.00376778 -0.00129057
C -2.38092959 5.93599213 9.54870160 -0.00029982 0.00172131 -0.00208957
C 0.09716311 1.13065411 8.74138821 0.00053435 0.00129060 -0.00449039
C 6.12603836 3.85511265 8.61199132 0.00045786 0.00482874 -0.00118820
C 4.26605594 8.33729684 9.31137748 -0.00334216 -0.00366652 -0.00214004
C -2.77846546 4.03055551 17.40725174 0.00564557 0.00084467 -0.00476211
C -5.72609556 8.72529078 13.32408577 -0.00062198 -0.00269286 -0.00535378
C 0.85331919 5.87024547 13.20911944 -0.00200454 0.00101196 0.00715734
C 3.57853828 1.07846415 17.20222296 0.00422442 0.00419868 -0.00177511
C -1.62067872 3.82774850 16.69522715 -0.00669468 -0.00089126 -0.00099664
C 6.06052011 8.52159564 13.83126002 0.00075649 -0.00860916 -0.00935684
C -0.38345694 6.02541492 13.85982773 -0.00099729 -0.00435866 -0.00223594
C 31.26472022 1.26584370 16.67430837 -0.00146294 -0.00284712 0.00376383
C -0.63401178 2.99259668 17.17591356 -0.00088729 -0.00642281 0.00810131
C 5.07819948 7.64869113 13.38179843 0.00459730 -0.00299148 0.00083631
C -1.39153646 6.88312544 13.45581434 0.00049115 0.00742246 -0.00515852
C -7.33273313 2.08009602 17.06855821 0.00346394 -0.00106200 0.00341404
C -0.81583329 2.16194336 18.28764368 -0.00048155 -0.00101379 -0.00144258
C 5.23224799 6.85858401 12.23330403 0.00129292 -0.00869049 0.00147927
C -1.19088789 7.85206656 12.36307171 -0.00152059 0.00860390 -0.00488048
C -7.42914828 2.81744411 18.28389433 0.00345417 0.00278288 0.00785240
C 0.98715989 1.94194589 12.62932361 0.00226454 -0.00206133 -0.00434470
C 3.44138673 6.97374841 17.71742981 0.00335933 0.00228894 -0.00455778
C -2.50054807 7.93306074 17.95493694 0.00486109 -0.00036179 -0.00159185
C -5.54318990 2.68532631 12.87392367 -0.00250484 0.00166955 -0.00163357
C -0.01961490 2.78751072 12.20806272 0.00351777 0.00144437 -0.00189837
C -8.53332794 7.68500190 18.15200681 0.00065809 -0.00112218 -0.00070722
C -1.70625204 6.89066579 18.29298592 -0.00002406 -0.00108325 0.00003123
C 6.55684303 2.15792996 12.12701253 0.00127441 -0.00760293 0.01240187
C -4.13823765 5.16680906 15.69855411 -0.00417078 0.00829091 0.00157619
C -3.98493080 0.27598294 15.01182811 -0.00012280 -0.00244808 -0.00011463
C 2.10550248 4.57959148 14.86689168 0.00658410 -0.00399223 0.00624274
C 2.41304268 9.27200389 15.73814957 -0.00806885 0.00833109 -0.00473083
C -5.39190551 5.99603779 15.48629433 0.00514902 0.00141602 -0.00138849
C -2.68495903 0.95400228 15.08405911 -0.00419144 0.00332789 0.00528064
C 3.31594502 3.73406936 15.12780698 -0.00047983 0.00068922 -0.00547490
C 1.41170744 8.15985151 15.68139927 0.00568577 0.00645650 0.00307063
C -5.92101459 3.54866270 23.62035889 -0.00069793 -0.00801269 -0.00202471
C -8.73679003 8.51354874 19.21025608 -0.00554262 -0.00036939 -0.00604715
C -1.92506058 6.09266812 19.44322579 0.00928972 0.00423413 0.00040018
C 0.87160042 1.15603279 23.62493237 0.00156160 0.00148555 -0.00888889
C -4.74115666 3.47022423 22.89013225 -0.00189197 -0.00219062 -0.00173547
C 3.22803702 8.42344827 20.10281458 -0.00742954 -0.00177080 0.00236910
C -3.15694174 6.21251379 20.06983491 -0.00363863 0.00676435 0.00341687
C 28.12048984 1.40405148 22.76334168 0.00289294 0.00332263 -0.00475118
C -3.72715763 2.63527252 23.26537710 -0.00032211 0.00540644 -0.00048317
C 2.23351950 7.54773260 19.69421586 0.00400986 -0.00293519 0.00256398
C -4.08001648 7.15009295 19.58571895 0.00633962 -0.00136043 -0.00240322
C -10.55785591 2.35764358 23.10701183 -0.00218356 0.00645745 -0.00368734
C -3.90146676 1.79325836 24.40157757 -0.00201436 0.00131859 0.00318706
C 2.35250702 6.71306013 18.57537061 -0.00257013 0.00665559 -0.00126712
C -3.71749950 8.11925150 18.67969352 0.00407515 -0.00329692 -0.00292139
C -10.55285391 3.01430151 24.37542329 -0.00383518 0.00494045 0.00273820
C -2.06956740 2.30506248 18.97919873 -0.00195545 -0.00296631 0.00368001
C 1.03773849 6.83362406 24.00420502 -0.00414567 0.00675580 0.00050841
C -5.66452894 7.53877097 23.87138899 -0.00165692 -0.00528429 0.00478327
C -8.62922624 2.69346717 18.97946737 0.00052532 0.00158937 -0.00129694
C -2.98555817 3.30392072 18.59724637 0.00125216 -0.00227355 -0.00775503
C -11.40646101 7.82532559 24.28349834 0.00467806 0.00177359 0.00648557
C -4.69989465 6.73676072 24.33503827 -0.00759992 0.00073488 -0.00056573
C 3.45555623 1.73318501 18.44104666 0.00302802 -0.00444590 0.00194629
C -7.15893674 4.91592884 22.04342025 0.00119312 -0.00096056 -0.00337390
C -7.34154320 0.27189236 20.76381637 0.00259650 0.00425994 -0.00227238
C -0.93920144 4.62001802 21.04011775 -0.00149865 -0.00346304 -0.00318237
C -0.51924397 9.44767158 22.12646156 -0.00590335 -0.00275866 0.00842251
C -8.38311776 5.76882241 21.83265962 -0.00397399 0.00885439 0.00190426
C -6.09847587 1.18185816 20.93311586 -0.00449927 0.00496263 0.00271200
C 0.06684886 3.59135020 21.23136038 -0.00118754 -0.00579986 0.01243063
C -1.83450243 8.74874621 22.04409441 0.01047800 -0.00259585 0.00710555
C 3.37413916 13.45057994 5.12034741 -0.00204074 -0.00133221 0.00414230
C 0.57813726 17.94731187 1.01366471 -0.00198336 0.00291149 0.00374328
C 7.24180166 15.50421041 1.13231172 -0.00565565 -0.00313902 -0.00419438
C 9.90547438 10.60933176 5.23679890 -0.00052252 -0.00385927 0.00397159
C 4.55480160 13.27535586 4.37192734 0.00315856 -0.00262931 0.00052655
C 12.63156020 18.11704730 1.77312469 -0.00529856 -0.00860456 0.00257019
C 6.00036272 15.59111222 1.74519731 0.00936268 -0.00355401 0.00161845
C -2.06918024 10.83931219 4.36153227 -0.00076395 0.00125729 0.00245644
C 5.59913787 12.43468376 4.81185088 -0.00136829 0.00354270 0.00202523
C 11.70510382 17.10382555 1.50450576 -0.00594699 0.00704262 0.00198791
C 5.04824252 16.41151526 1.21841597 0.00025701 -0.00600382 -0.00322247
C -1.13439242 11.71620304 4.80146739 0.00406857 -0.00348012 0.00518067
C 5.40425669 11.50645575 5.87121890 0.00387644 -0.00244279 0.00253536
C 11.83081189 16.30295692 0.39608601 0.00008343 -0.00184139 0.00328122
C 5.29810048 17.34436297 0.15722005 0.00472240 0.00037723 -0.00205239
C -1.32198864 12.52300100 5.96793629 -0.00289168 -0.00181017 0.00139811
C 7.11683526 11.56073004 0.68706864 0.00564765 0.00065263 -0.00077822
C 9.59127352 16.61028930 5.53620106 -0.00376617 0.00111124 -0.00296070
C 3.18080009 17.21982309 5.59764077 -0.00573057 -0.00849002 -0.00380840
C 0.10401285 12.53132146 0.32562870 -0.00292306 -0.00066520 -0.00387821
C 6.21110151 12.43914912 0.11020813 -0.00217501 0.00204248 0.01148937
C -2.49463486 17.53806788 5.94426151 0.00191191 0.00664449 0.00528774
C 4.10311393 16.30171619 6.08081030 0.00035381 -0.00434027 -0.00222020
C 12.83485314 11.39928539 0.32367316 -0.00311726 0.00401564 0.00774028
C 1.94574674 14.74943000 3.58184363 -0.00147520 -0.00156823 0.00979569
C 1.56534144 10.33899052 2.31991996 0.00287123 -0.00118277 -0.00026941
C 8.26087721 14.23944855 2.77826965 0.00345459 -0.00370035 -0.00426068
C 8.74398745 19.08325654 3.40860031 0.00019611 0.00454163 -0.00220169
C 0.65714887 15.53710917 3.51825638 -0.00503587 0.00078745 0.00002417
C 2.67329027 11.32385281 2.33226672 0.00752680 0.00338740 0.00258048
C 9.51572147 13.43278755 3.06034554 -0.00416471 -0.00488474 -0.00353662
C 7.60959299 18.14821173 3.16518819 0.00242360 0.00461680 0.00544418
C 0.15546866 13.26910163 11.11740202 0.00116775 -0.00127945 0.00154910
C -2.82099141 18.31873441 7.09569212 0.00302389 -0.00200356 -0.00296919
C 3.87065143 15.52925775 7.22081855 0.00201032 0.00117739 0.00354469
C 6.52325991 10.61739507 11.14085473 -0.00711782 -0.00609239 0.00151158
C 1.32791133 13.04538695 10.30278584 -0.00120768 0.00043397 0.00099950
C 9.41400832 18.08465115 7.90960931 0.00442270 -0.00423226 0.00238453
C 2.63562900 15.65968386 7.91848013 -0.00516497 0.00341675 0.00278005
C -5.05456773 11.00231027 10.61219594 -0.00500205 -0.00578228 0.00077637
C 2.25400309 12.12767547 10.71531771 -0.00464976 0.00055069 0.00033006
C 8.25714010 17.44411474 7.41300218 0.00047221 0.00494250 -0.00239191
C 1.66453961 16.51703471 7.31157299 0.00218572 -0.00358919 0.00096467
C -4.12298148 11.88889261 11.07199441 0.00187816 -0.00489976 -0.00521615
C 2.14703729 11.39217534 11.94098403 -0.00034192 -0.00325354 0.00219006
C 8.32964963 16.71010651 6.21389996 -0.00481126 0.00733678 0.00279938
C 1.94548260 17.30441937 6.20713502 0.00053801 -0.00480852 -0.00113932
C -4.34038129 12.79884674 12.14114367 -0.00022043 0.00110970 0.00143539
C 4.16794270 11.54038675 6.48536932 -0.00972662 0.00385332 -0.00295964
C 6.85587024 16.35947666 11.52276369 -0.00560552 -0.00543966 -0.00150631
C 0.46248412 17.05176796 11.75906462 -0.00142707 0.00433333 -0.00451750
C -2.56068707 12.32742020 6.63401409 0.00278488 0.00411650 0.00415911
C 3.18537979 12.50352285 6.11126470 -0.00380910 0.00534751 0.00136377
C -5.22026867 17.55281361 12.20136162 -0.00055771 -0.00129389 0.00054662
C 1.38617532 16.12911757 12.22453481 0.00632256 -0.00210815 -0.00642794
C 9.65438320 11.51872858 6.34285649 0.00036872 -0.00198777 -0.00154702
C -1.00683444 14.84839339 9.68414453 0.00311038 -0.00006799 -0.00322375
C -1.61230876 9.82340024 8.71672976 0.00162005 -0.00256437 -0.00263969
C 5.07854712 14.10087640 8.65397443 -0.00027837 0.00295739 -0.00308415
C 5.46033642 19.00668182 9.71790635 -0.00114843 0.00455777 0.00383336
C -2.21476726 15.77874073 9.57317392 0.00646774 0.00446604 -0.00542959
C -0.38482009 10.68267407 8.80020667 0.00384516 0.00847822 0.00064447
C 6.31490981 13.27977816 8.88657489 -0.00703787 -0.00570931 0.00444678
C 4.22715938 18.19466209 9.72069712 0.00157571 -0.01028658 -0.00209217
C -2.89419353 13.31887304 17.53913504 -0.00075716 -0.00143592 0.00159575
C -5.53802891 18.31671304 13.34432675 -0.00083889 0.00135269 -0.00506496
C 1.04139672 15.24623161 13.24009362 -0.00748275 -0.00341951 -0.00016221
C 3.54519539 10.72018662 17.36076420 0.00321895 -0.00567310 0.00509043
C -1.62040109 13.22817495 16.88121048 0.00189159 -0.00081003 0.00543933
C 6.32486784 17.90987246 13.77681833 -0.00245450 -0.00554203 -0.00148171
C -0.16326120 15.46587094 13.91909274 -0.00010310 -0.00517709 0.00190792
C 31.17144914 10.91896046 16.62763452 -0.00037205 0.00358974 -0.00377138
C -0.65589671 12.33277679 17.17521116 0.00333219 0.00680889 0.00770634
C 5.41165713 17.00100019 13.37063497 -0.00096939 0.00414432 -0.00613995
C -1.02166797 16.41843910 13.48261698 -0.00008109 -0.00827063 0.00411054
C -7.45855092 11.74876142 17.16970946 0.00222727 -0.00603959 -0.00947323
C -0.84812213 11.62060820 18.37996039 0.00414359 0.00511102 0.00411360
C 5.59297088 16.24419730 12.17233821 0.00673404 -0.00204075 0.00058948
C -0.71943239 17.25508364 12.43218291 0.00996690 -0.00475788 -0.00362144
C -7.57745536 12.49436875 18.33096804 0.00419436 0.00416120 0.00268379
C 0.90197145 11.49056943 12.54134358 -0.00158791 -0.00690890 -0.00677768
C 3.69021635 16.50339185 17.77930341 0.00050197 0.00274136 0.01249463
C -2.80507107 17.16517867 17.93175047 -0.00093274 -0.00573980 -0.00335189
C -5.65828430 12.72616637 12.76899749 0.01327049 0.00090493 0.00717307
C -0.04302350 12.44155648 12.25999500 -0.00166026 0.00157217 -0.00579795
C -8.56424634 17.57247290 18.07121851 0.00107064 0.00864924 0.00316151
C -1.91509918 16.20733632 18.36264185 0.00218142 -0.00395538 0.00070468
C 6.34401674 11.49578114 12.25654289 -0.00201316 -0.00141275 -0.00024219
C -4.14356665 14.58675444 15.87745837 0.00285746 -0.00030988 -0.00551937
C -4.47251251 10.03060876 14.96827906 -0.00289115 0.00119831 -0.00409829
C 2.29358741 14.13848412 15.00342067 -0.00560528 0.00343844 0.00223750
C 2.43137052 19.04391966 15.74184908 0.00629435 -0.00676441 -0.00108328
C -5.21475190 15.68708866 15.88499746 -0.00416551 0.00064369 0.00039194
C -3.52480960 11.18876759 15.17403170 0.00020406 0.00187739 0.00519319
C 3.57094220 13.40100657 15.27230001 -0.00332122 -0.00288956 -0.00591116
C 1.40785833 17.95719050 15.59324797 -0.00423281 -0.00061369 -0.00238210
C -5.51165462 13.34864820 23.58325891 -0.00806169 -0.00253103 0.00111306
C -8.57635162 18.33194492 19.22244399 0.00382692 0.00058651 0.00119945
C -1.99973747 15.50496645 19.57957330 -0.00389108 -0.00464247 0.00016598
C 0.89495004 10.68826091 23.61935682 -0.00435164 0.00651110 0.00187070
C -4.25380021 13.12063828 22.94192736 -0.00834829 -0.00556307 -0.00180230
C 3.47504146 18.00691670 20.13304901 -0.00021656 -0.00689167 -0.00208976
C -3.17498424 15.78293899 20.37173779 0.00453394 -0.00141629 -0.00689324
C 28.07975175 10.89708737 22.61136636 -0.00175152 -0.00045294 0.00012813
C -3.30261181 12.37210495 23.58591525 0.00151464 0.00339430 0.00702320
C 2.40873863 17.17661668 19.73486036 -0.00378547 -0.00062653 -0.00355523
C -4.06414319 16.68895748 19.91740656 -0.00629085 -0.00141881 -0.00660377
C -10.48342215 11.76565096 22.97986467 0.00382572 -0.00476645 0.00111707
C 8.46673016 11.58400480 0.21851737 0.00379326 -0.00968891 -0.00441000
C 2.49032737 16.46591362 18.53915755 -0.00266835 0.00298997 -0.00347084
C -3.97836146 17.40127356 18.66547885 0.00297563 0.00053027 0.00581698
C -10.77506359 12.66443362 24.03073548 -0.00062794 -0.00099773 -0.00120935
C -2.00106835 11.79847948 19.14477314 -0.00188776 0.00411994 0.00383373
C 0.95962110 16.49781871 24.09370971 0.00395663 -0.00414045 -0.00007825
C -5.48658638 17.33544124 24.07952055 -0.00102799 -0.00021334 0.00028677
C -8.81437828 12.33154436 19.01309686 -0.00276999 0.00742672 -0.00401019
C -3.05276311 12.56806934 18.66446061 0.00117448 0.00070387 -0.00258671
C -11.24316404 17.18621487 24.34467943 0.00133645 0.00430165 -0.00070400
C 7.53830729 16.45725186 0.05433650 0.00196363 0.00905307 -0.00475498
C 3.37971425 11.54317195 18.49779773 -0.00303888 -0.00010323 0.00239885
C -6.74593819 14.75954249 21.93518524 -0.00356952 0.00039842 0.00472427
C -7.63548274 9.77918584 20.91429854 0.00735087 -0.00210801 -0.00013161
C -0.62381395 14.09885375 21.10506471 0.00273507 -0.00513520 0.00323272
C -0.34071382 19.31114159 21.93313308 -0.00969336 0.00547147 -0.00062147
C -8.05720413 15.50354886 21.82931367 0.00532960 -0.00235128 0.00260433
C -6.38655379 10.62562292 21.27282464 0.00800870 0.00564394 -0.01203894
C 0.53196344 13.24198071 21.22395614 -0.00434963 0.00403961 -0.00545224
C -1.54534997 18.50805191 21.67029598 0.00084625 -0.00283375 -0.00473115
C 3.13417308 22.90694623 4.81014314 -0.00062143 0.00134866 -0.00176836
C 0.43726276 27.86670408 0.76904499 -0.00307338 -0.00206068 -0.00344544
C 7.03624353 25.21045397 0.90600086 -0.00076774 -0.00583284 -0.00482407
C 9.88176728 20.40625811 5.09181531 0.00414276 0.00320381 -0.00236643
C 4.39315509 22.84228546 4.19581599 -0.00702282 0.00301217 0.00296958
C 12.57147280 27.53323743 1.75233502 0.00753691 0.00560502 -0.00105289
C 5.84827716 25.30252349 1.58912676 -0.00619204 -0.00419403 -0.00674509
C 37.12489961 20.52442267 4.33603832 0.00313387 0.00233912 -0.00040142
C 5.34961707 21.97396927 4.66771202 0.00178039 -0.00008667 0.00782319
C 11.67272983 26.54656407 1.48282074 0.00378852 0.00225082 -0.00304339
C 4.82073678 26.17505595 1.15694405 -0.00740588 -0.01003637 -0.00136640
C -1.38597552 21.32724481 4.74205046 0.00926604 0.00396296 0.00298814
C 5.09387278 21.28051760 5.82884855 0.00194542 0.00374891 -0.00509903
C 11.77265334 25.71186425 0.35461773 -0.00086373 -0.00384880 -0.00953239
C 5.01642485 26.89777880 0.00433141 0.00209564 0.00691767 -0.00193494
C -1.63091773 22.24135048 5.76225974 -0.00585771 0.00232275 0.00643722
C 7.19186036 21.24726301 0.33074223 0.00318659 -0.00109861 0.00508751
C 9.63999502 26.11729812 5.56168224 0.00424178 -0.00385285 -0.00283968
C 2.99011469 26.80186597 5.23434887 0.00127859 0.00382795 0.00406354
C 0.61854779 21.98921849 0.62693654 -0.01109232 -0.00143172 0.00404791
C -5.82382552 22.10160990 24.45743354 -0.00242475 0.00092741 0.00566437
C -2.38614734 27.06557974 5.82238683 -0.00504599 0.00245966 0.00088545
C 3.96565402 25.92086443 5.68913563 0.00244437 -0.00161742 0.00140441
C 12.96371327 21.36219047 0.20809374 0.00043096 -0.00452394 0.00424022
C 2.14016354 24.45808197 3.25377936 -0.00636317 -0.00043722 0.00375018
C 1.70830926 19.35075803 2.69570841 -0.00159385 0.00258620 -0.00519048
C 8.09541589 23.66214918 2.44655019 0.00274408 -0.00659522 -0.00511566
C 8.73626199 28.66806133 3.44738506 0.00889954 -0.00126695 -0.00210980
C 0.99537939 25.34682166 2.96197450 0.00078398 -0.00122013 -0.00229266
C 3.06746725 19.91971149 3.08382675 0.00798637 0.00367763 -0.00192982
C 9.20424120 22.65808847 2.67954903 -0.00593168 -0.00217719 -0.00396897
C 7.56082882 27.73737108 3.20591304 -0.00362900 -0.00136638 -0.00212354
C 0.09165313 23.08550428 11.17046482 0.00305606 -0.00122111 0.00689949
C -2.47455068 27.88770771 6.99872301 -0.00426008 -0.00163844 -0.00106901
C 3.79650981 25.11123795 6.83794208 0.00674839 -0.00139095 0.00640222
C 6.69963877 20.35344860 11.31374152 0.00301306 0.00053382 -0.00098422
C 1.20452246 22.78788075 10.39070894 -0.00046993 0.00626005 0.00182818
C 9.10678641 27.79825705 7.69762282 -0.00193230 0.00322783 -0.00142130
C 2.54888976 25.29476344 7.51460497 -0.00756596 -0.00124749 0.00761156
C 34.34634974 20.52837460 10.34480708 -0.00500582 0.00106357 0.00546835
C 2.18586752 21.93107245 10.81152588 0.00549486 -0.00590346 0.00241274
C 8.11720925 26.97378652 7.24878604 0.00126622 -0.00095540 -0.00121316
C 1.54794954 26.07223512 6.98293617 -0.00672900 -0.00065083 0.00026941
C -4.26207958 21.37630281 10.81205133 -0.00778763 0.00175498 0.00173240
C 2.07034139 21.36065493 12.03866674 -0.00231006 0.00482630 -0.00321857
C 8.34330019 26.07981766 6.12130471 -0.00506720 -0.00322495 -0.00363772
C 1.77270334 26.88544930 5.90317576 0.00000347 -0.00521396 -0.00355842
C -4.51990287 22.28982090 11.86886506 -0.00359736 0.00792630 0.00702108
C 3.87521460 21.32492605 6.48052777 -0.00447290 -0.00803408 -0.00004762
C 6.59774538 26.12995072 11.52885581 0.00327503 -0.00144387 -0.00149654
C 0.31635134 27.02074717 11.49577094 0.00131799 -0.00145387 -0.00043229
C -2.84043958 22.29302290 6.42870986 -0.00156503 -0.00495829 -0.00119427
C 2.81709541 22.08206931 5.94317028 -0.00397048 0.00881154 -0.00280712
C -5.15867253 27.07008214 12.26888527 0.00094958 0.00133543 -0.00272771
C 1.27864631 26.08557701 11.71871406 -0.00298995 0.00014082 0.00019350
C 9.65184633 21.20468919 6.22251551 0.00229139 0.00009745 -0.00054313
C -1.03817897 24.41493720 9.55315494 0.00524944 0.00098181 -0.00114799
C -1.62172083 19.46299363 8.80247104 0.00040625 -0.00129972 0.00465729
C 4.87828030 23.70304454 8.36365107 0.00363617 0.00486704 0.00696808
C 5.73487059 28.82183702 9.57415636 -0.00210313 0.00133085 0.00045372
C -2.19480818 25.34443092 9.37659022 0.00307808 0.00410092 0.00698873
C -0.40258198 20.31169172 9.08739606 0.00117830 0.00364112 -0.00364160
C 6.03258614 22.74428407 8.47244809 0.00335493 0.00528008 0.00077401
C 4.59572539 27.88812382 9.34876891 -0.00317035 0.00143593 -0.00221721
C -2.73624886 23.01376469 17.30278636 -0.00635103 0.00022650 -0.00201694
C -5.33382703 27.89525133 13.42454530 0.00613282 -0.00045783 0.00541130
C 1.25405258 25.27384551 12.83263477 0.00136078 0.00014578 -0.00044701
C 3.70674232 20.30013509 17.32974652 0.00338392 0.00107872 -0.00275913
C -1.54348788 22.89873734 16.59090070 0.00302935 0.00665461 -0.00281783
C 6.07894617 27.66107794 13.71403659 0.00455853 0.00447829 -0.00048254
C 0.10290445 25.33946903 13.69386137 -0.00000666 -0.00087347 0.00332619
C -7.99680671 20.59423329 16.60816493 0.00290699 0.00994483 0.00183942
C -0.56791213 22.01399337 16.97269372 -0.00274069 0.00066537 -0.00661497
C 5.04197713 26.87053146 13.20100411 0.00178941 0.00671544 0.00211483
C -0.85571648 26.29056253 13.44484163 0.00559086 0.00355968 0.00416982
C -7.05752833 21.47571923 17.10004932 0.00046836 0.00090215 -0.00313828
C -0.61193215 21.21923641 18.15954063 -0.00488697 -0.00220391 -0.00650862
C 5.33077394 26.09081838 12.01961596 0.00467625 0.00671079 -0.00185988
C -0.81905214 27.12687426 12.30912295 0.00101935 -0.00610233 0.00446959
C -7.26305646 22.15838765 18.29578505 -0.00079481 0.00238319 0.00229315
C 0.80920736 21.45411068 12.72909368 0.00424176 -0.00160545 -0.00344624
C 3.66647252 26.20353862 17.51054611 0.00280699 -0.00007650 0.00297762
C -2.58039511 26.87102872 17.73915304 0.00312597 -0.00124393 0.00080257
C -5.77974322 22.21647169 12.52984682 0.00001674 0.01105346 -0.00055518
C -0.17389374 22.21472005 12.24643882 -0.00108457 -0.00250996 0.00156095
C -8.47747522 26.99490652 18.13556952 0.00351960 0.00184424 -0.00595306
C -1.59922931 26.00421970 18.13992750 0.00310030 -0.00115125 -0.00086069
C 6.47743941 21.30828523 12.36554755 0.00589333 0.00272171 0.00565979
C -4.06446252 24.40602597 15.75554707 0.00395455 0.00348486 -0.00541502
C -4.43363918 19.61335686 14.97668788 0.00432463 0.00291348 0.00640198
C 2.42439976 23.78383910 14.38643363 -0.00035282 -0.00310222 0.00163180
C 2.31623228 28.69946080 15.62139622 0.00452546 0.00381404 0.00251141
C -5.38166867 25.07107678 15.67618983 -0.00302923 -0.00317002 0.01241698
C -3.30707148 20.56681041 15.15951329 -0.00635922 0.00134933 -0.00871154
C 3.66983752 22.94755521 14.53983012 -0.00562841 0.00107069 0.00765259
C 1.26589200 27.65701189 15.63654805 0.00412699 -0.00022431 0.00317673
C -5.70505450 23.05858112 23.46507468 0.00738916 -0.00045795 0.00141721
C -8.67390468 27.90734954 19.20480790 0.00524662 -0.00046760 0.00048337
C -1.86397109 25.12067506 19.25604882 0.00311976 -0.00083601 -0.00521099
C 1.04338077 20.56138515 23.59685310 -0.00273126 -0.00039941 0.00932726
C -4.48967750 23.04335164 22.78421762 -0.00161430 -0.00456153 -0.00144096
C 3.25294239 27.37154060 20.04265816 0.00491690 0.00184578 -0.00059938
C -3.06994591 25.15855926 19.96068637 -0.00064130 0.00330431 0.01024860
C -11.13512263 20.37102991 22.79558364 -0.00140865 0.00668723 -0.00288737
C -3.41472396 22.32241827 23.17227065 0.00462434 -0.00131846 0.00052355
C 2.28939531 26.60144040 19.45546187 -0.00206783 0.00601320 -0.00068047
C -3.97057788 26.12811281 19.63801069 -0.00358356 0.00336766 -0.00354757
C -10.12869907 21.17671200 23.22347012 0.00318826 -0.00741164 0.00160028
C -3.55558143 21.41209426 24.30087790 -0.00630208 -0.00221393 0.00100842
C 2.48288607 25.93080200 18.22296846 0.00354652 0.01047450 -0.00188701
C -3.72214855 26.98887890 18.58335408 0.00312155 -0.00585876 -0.00580373
C -10.17539900 22.01529264 24.40182220 0.00580689 0.00501078 -0.00104287
C -1.82865072 21.37612826 18.84994991 -0.00312084 0.00401235 0.00289801
C 0.86865916 25.95743200 24.06748955 0.00242035 -0.00209576 0.00632071
C -5.71822420 26.94098968 23.92297927 0.00016724 -0.00390249 0.00243553
C -8.53673294 22.18806188 18.79672980 0.00182993 -0.00085159 0.00780854
C -2.87252985 22.16372980 18.43063837 -0.00886684 0.00076140 -0.00154379
C -11.38979050 27.01495856 24.20652821 0.00165555 0.00069459 -0.00669692
C -4.78480025 26.07523911 24.32417473 0.00128015 0.00289401 0.00378432
C 3.59900366 21.09509936 18.45335704 -0.00128556 0.00495735 0.00240576
C -7.02990274 24.38362015 21.90333635 -0.00086816 0.00160072 -0.00679759
C -7.09442859 19.47832880 20.74688603 -0.00231233 0.00047301 -0.00530942
C -0.64148090 23.83824966 20.84777017 0.00302800 -0.00512643 0.00080587
C -0.25326483 28.75197855 21.96346029 -0.00118060 -0.00024889 0.00776715
C -8.27146073 25.24494841 21.89440328 -0.00199348 -0.00473434 0.00038687
C -5.74860715 20.20931699 20.87604255 -0.00236119 -0.00252213 -0.00588551
C 0.49481018 22.94477730 21.00313928 0.00446949 -0.00757448 0.00213134
C -1.36816918 27.85635608 21.66090073 -0.00102610 -0.00287757 0.00011023
C 16.45030798 3.66935679 5.24984624 -0.00016590 -0.00090288 0.00217800
C 13.86214791 8.45481705 1.11556543 -0.00164095 0.01040118 0.00091623
C 20.16031972 5.81254299 1.04878355 0.00368383 0.00476758 0.00045674
C 23.01258938 1.21618455 5.37120761 -0.00006976 -0.00679041 0.00224608
C 17.66598084 3.52561969 4.61053147 0.00210253 0.00321661 -0.00133589
C 25.72257270 8.45447057 1.80227754 -0.00479587 -0.00203977 0.00146530
C 18.91164591 5.87567639 1.74404897 0.00527939 0.00600173 -0.00213090
C 11.06544358 1.01333415 4.50636117 -0.00190752 0.00393422 0.00044408
C 18.64322934 2.71528240 5.13607190 -0.00417310 0.00184175 -0.00268548
C 24.73338984 7.61777162 1.42726784 0.00946150 -0.00772242 -0.00161927
C 17.90657996 6.81518885 1.24811028 -0.00447668 -0.00246502 -0.00315271
C 12.12042960 1.73008923 5.00205443 -0.00258743 0.00226098 0.00410383
C 18.38355651 1.80739749 6.11755958 -0.00309998 -0.00549462 0.00317279
C 24.72685327 6.85966460 0.25481728 0.00259205 0.00009701 0.00249222
C 18.18376685 7.51387164 0.11985899 -0.00010028 -0.00038070 -0.00108248
C 11.94406777 2.67779290 6.03546288 -0.00026191 0.00420829 0.00281080
C 20.06225776 1.97332673 0.67595871 0.00263094 0.00110180 -0.00166076
C 23.16473193 6.94652070 5.63321216 0.00295701 0.00600723 -0.00017700
C 16.46197558 7.80032517 5.80607842 0.00272454 -0.00230636 -0.00358515
C 13.58878184 2.75837157 0.84512556 -0.00330426 -0.00366744 -0.00016281
C 19.17450236 2.89989108 0.13332056 -0.00124626 0.00174205 -0.00443137
C 10.84435979 7.44943396 6.14440264 0.00306863 -0.01366391 -0.00228731
C 17.49864160 6.91343544 6.22266126 -0.00873568 -0.00250261 0.00232758
C 25.74041829 1.89473057 0.17819790 0.00353464 -0.00508446 -0.00049796
C 15.32610501 5.07190931 3.64732508 -0.00455516 0.00182097 0.00722806
C 14.87568867 0.26701845 2.52002173 -0.00675122 -0.00221152 0.00198943
C 21.37593451 4.59648375 2.74977281 0.00077992 0.00100543 0.00619999
C 22.05764284 9.42989517 3.74744422 -0.00317108 -0.00178644 -0.00416201
C 14.12257232 5.95999056 3.54932591 0.00349580 -0.00208656 0.00198818
C 16.21426943 0.94066223 2.79263804 0.00388503 -0.00700585 0.00203999