2880
Time=46000.00000003 pbc="T T T" Lattice="39.58462990 0.00000000 0.00000000 0.00000000 29.13971777 0.00000000 -12.05351884 0.00000000 24.50536112" energy=-18400.31288648 virial="-35.29104258 25.33835172 -36.87123889 25.33835172 -44.62428763 13.80130502 -36.87123889 13.80130502 -78.88776049" stress="0.00121883 0.00081665 -0.00131547 0.00081665 0.00085723 0.00041304 -0.00131547 0.00041304 -0.00030257" Properties=species:S:1:pos:R:3:vel:R:3
C 3.37860893 3.80048819 5.11324722 -0.00803833 0.00534641 0.00529592
C 0.38564372 8.49266219 0.96141991 0.00419936 0.00183502 -0.00357459
C 7.04740837 6.06041806 1.09251334 0.00398491 -0.00247313 -0.00180431
C 9.77145533 0.99239610 5.00502141 -0.00274619 -0.00437753 0.00340681
C 4.58060118 3.74945759 4.50037464 0.00182286 0.00193160 0.00149446
C 12.29303361 8.72173392 1.78730210 -0.00564531 0.00298401 -0.00339389
C 5.86014851 6.12525447 1.79448560 -0.00388704 -0.00155352 0.00083194
C -2.11175132 1.38453596 4.50697276 0.00420411 -0.00802349 0.00561215
C 5.58055683 2.92383741 5.01804261 -0.00312709 -0.00328233 -0.00418204
C 11.34648529 7.80992510 1.38846652 -0.00616023 0.00829474 -0.00486080
C 4.85256567 6.99241298 1.40001658 0.00046379 0.00350883 0.00147328
C -1.02739177 2.11619984 4.89823232 -0.00574324 -0.00026754 0.00153128
C 5.38223894 1.93083089 6.10144066 0.00035610 0.00054578 0.00723939
C 11.50301447 6.92271823 0.31133424 -0.00614210 0.00116510 -0.00292295
C 5.02249345 7.82372468 0.26139586 0.00162513 -0.00559624 -0.00311265
C -1.01433921 2.83974944 6.08819894 -0.00207519 -0.00401408 -0.00128517
C 6.97189544 1.87699175 0.42207207 -0.00131626 0.00342349 -0.00432134
C 9.56645925 6.86501045 5.51967871 0.00559200 0.01015872 -0.00276353
C 3.38463882 7.70017910 5.71355960 -0.00665825 -0.00138421 -0.00685405
C 0.36460051 2.86376722 0.74042766 0.00625284 -0.00592230 0.00797989
C -6.09235173 2.73136256 24.46995200 0.00159411 -0.00138313 0.00340642
C -2.50597581 7.70686110 6.11206942 -0.00573257 0.00546762 0.00085952
C 4.33346070 6.82340662 6.17403381 0.00456572 -0.00271042 -0.00703068
C 12.44761234 1.85934184 0.18162877 -0.00447150 0.00803339 0.00402172
C 2.04075648 5.07081692 3.53522581 -0.01151973 0.00458989 0.00128788
C 1.37860901 0.41717129 2.75268636 0.00259617 -0.00126767 -0.00303433
C 8.13484410 4.56132692 2.69475846 0.00913445 -0.00100852 0.00118830
C 8.78737993 9.68493843 3.42297724 -0.00302891 -0.00537559 -0.00105929
C 0.83109842 5.95343307 3.42597820 -0.00441016 -0.01374403 -0.00238472
C 2.51345408 1.36239734 2.99987512 0.00269657 -0.00390644 0.00315088
C 9.30314287 3.64914667 2.89574895 0.00168210 0.00035128 -0.00131960
C 7.64551226 8.71465660 3.22684099 -0.00111054 -0.00219613 0.00243200
C 0.20400927 3.78029561 11.11876510 -0.00365856 -0.00481485 0.00074001
C -2.73191227 8.51865363 7.17738324 -0.00108609 -0.00015424 0.00611504
C 4.01353762 5.98931533 7.21840475 0.00524250 -0.00751443 0.00137791
C 6.73843290 1.16927855 11.17663831 -0.00033976 0.00502670 0.00476381
C 1.42450431 3.62389848 10.42205588 -0.00465000 0.00806693 0.00538595
C 9.35540615 8.30938421 7.91291604 -0.00424467 -0.00962237 0.00160956
C 2.74078621 6.08744699 7.87859570 -0.00433516 0.00576066 -0.00360996
C -5.15102145 1.22671748 10.54713017 0.00756988 -0.00646296 0.00065637
C 2.26610673 2.65982052 10.79586237 0.00478138 -0.00254704 -0.00196564
C 8.37755828 7.35282185 7.54918898 0.00263206 0.00541183 0.00226924
C 1.73604172 6.95601713 7.40857822 -0.01304558 0.00135424 0.00175950
C -4.28491369 2.20430919 11.03114492 -0.00381645 0.00196494 -0.00239636
C 2.05156012 1.86608116 11.88165605 0.00004761 -0.00554529 -0.00742266
C 8.52531372 6.60030675 6.39692282 0.00321244 0.00263971 0.00646243
C 2.05880009 7.79275149 6.29039959 0.00622524 0.00547361 -0.00412565
C -4.59149727 3.16619806 11.99114425 -0.00262404 -0.00129411 -0.00341139
C 4.09909555 2.02554775 6.65108014 0.00073034 0.00715361 -0.00685308
C 6.74503785 6.97028379 11.56859677 -0.00275935 -0.00379313 -0.00082539
C 0.12025911 7.75025746 11.62296964 0.00937679 0.00057011 0.00257780
C -2.20995246 2.85505486 6.84771314 0.00126914 0.00613438 0.00766602
C 3.13607039 2.89708329 6.17752955 -0.00385968 -0.00216859 0.00603251
C -5.53344169 7.82555490 11.88384902 0.00005489 0.00068516 0.00564523
C 1.08700371 6.83423451 12.11326272 0.00226631 -0.00240323 0.00309489
C 9.51701433 1.80305041 6.14935458 -0.00616121 -0.00225423 -0.00137659
C -0.96108090 5.16658321 9.45173501 -0.00520340 -0.00908780 0.00074278
C -1.44009137 0.14472941 8.44316283 0.00346296 -0.00170833 -0.00772524
C 4.99011711 4.35612702 8.73626015 0.00026279 0.00079448 0.00043228
C 5.35077147 9.48310392 9.77201826 0.00084901 0.00040933 0.00318993
C -2.16432273 6.05404164 9.24054506 -0.00250210 0.00788751 -0.00032970
C -0.18623068 0.94585445 8.54904401 -0.00202656 0.00716387 0.00304082
C 6.19936180 3.46527953 8.89568523 0.00497836 -0.00328517 0.00486695
C 4.14661676 8.60381711 9.71596132 0.00510123 -0.00642695 0.00343440
C -2.89460139 3.70153882 17.33202653 -0.00747999 -0.00101161 0.00008067
C -5.63428584 8.49592698 13.10569356 0.00584975 -0.00585718 0.00514022
C 0.83619049 6.02283932 13.22223391 -0.00121382 -0.00033110 -0.00023889
C 3.62373077 1.05506339 17.31270706 -0.01285707 -0.00298476 0.00112799
C -1.66693884 3.65741298 16.67210799 0.00111580 -0.00128387 -0.00004076
C 6.33149849 8.45320130 13.83686409 -0.00277201 -0.00308200 -0.00237928
C -0.36534418 6.21490540 13.91711457 0.00302629 0.00422148 -0.00676361
C 31.32415742 1.24893430 16.77642250 -0.00433209 -0.00595993 0.00476114
C -0.81075924 2.64423978 17.02912974 -0.00423551 -0.00154416 -0.00112644
C 5.33272448 7.62355134 13.36428199 -0.00310226 -0.00402718 0.00081764
C -1.32878885 7.10876734 13.36222869 0.00144967 0.00353244 0.00253123
C -7.20116448 2.01478025 17.28817716 -0.00037506 0.00399058 0.00419417
C -0.99915044 1.86036548 18.12928287 -0.00795371 0.00000130 0.00449041
C 5.50749403 6.79030067 12.23354290 -0.00207546 -0.00235578 -0.00270618
C -1.12725073 7.83955565 12.24827155 -0.00032899 -0.00007768 0.00415641
C -7.36818568 2.71862400 18.47932647 -0.00747061 0.00271203 0.00219480
C 0.90913073 2.02484555 12.63211934 -0.00873658 -0.00458530 0.00391555
C 3.77309483 6.84889750 17.82264659 0.00231685 -0.00594418 0.00292951
C -2.84706144 7.63682949 17.90217290 -0.00163347 0.00399231 0.00118264
C -5.84799907 3.15486364 12.52420456 0.00329171 -0.00839448 0.00734442
C -0.02262996 2.99584948 12.29370924 0.00496798 -0.00173381 -0.00170463
C -8.42275401 7.79526928 18.35833657 -0.00177780 -0.00212826 0.00184297
C -1.85745900 6.72989049 18.29179989 0.00529245 0.00249200 -0.00586339
C 6.64452415 1.88865042 12.33427360 -0.00364908 0.00508700 -0.00182366
C -4.13863866 5.03457528 15.77591536 -0.00178161 -0.00469120 -0.00211996
C -4.23733546 0.28536130 14.64373189 -0.00167582 0.00639990 -0.00209174
C 1.97713424 4.52296661 14.72466553 -0.01058270 0.00569144 0.00176626
C 2.47770733 9.51386848 16.11902972 0.00383782 0.00398671 -0.00378143
C -5.40330598 5.84907032 15.74832698 -0.00195503 -0.00631868 0.00025887
C -2.91746467 0.97405424 14.62392735 0.00778970 -0.00200935 0.00346094
C 3.21666211 3.69187831 14.96059878 -0.00523316 -0.00114131 0.00513738
C 1.27390065 8.59709712 16.08153418 -0.00194797 -0.00478122 -0.00326044
C -5.85268275 3.75747994 23.52939640 0.00055812 -0.00255301 -0.00029685
C -8.63029106 8.59182985 19.51696458 -0.00193878 -0.00669584 0.00289484
C -2.08715093 5.91155566 19.39984240 0.01046767 0.00359424 -0.00099900
C 0.60839089 1.08600361 23.46607675 0.00406718 -0.00434359 -0.00019363
C -4.64717800 3.75465573 22.85581489 -0.00105416 -0.00050546 0.00076024
C 3.33684920 8.50601284 20.09314555 0.00326459 0.00166613 -0.00288054
C -3.35140478 5.88240341 20.01213436 0.00216759 0.00132168 -0.00213194
C -11.06795849 1.12054713 23.16729074 -0.00074485 0.00051006 0.00478054
C -3.64164576 2.84506660 23.19499959 0.00153997 -0.00313771 0.00202885
C 2.40489619 7.54903218 19.71543448 0.00236552 -0.00001140 -0.00559945
C -4.31810025 6.72713538 19.61501455 -0.00379169 -0.00320314 0.01120343
C -10.20714454 2.12668995 23.45995635 0.00559480 -0.00403007 -0.00226015
C -3.86907592 1.92700086 24.21128524 0.00103033 0.00135373 -0.00407153
C 2.54297743 6.86611065 18.46981047 0.00307819 -0.00009870 0.00096341
C -4.06712415 7.66565795 18.61472945 -0.00388649 0.00141953 -0.00321845
C -10.52633192 2.99830759 24.47593287 -0.00598728 -0.00331114 0.00383946
C -2.22556128 1.94250728 18.83813239 -0.00339531 0.00200026 0.00024992
C 0.67630165 6.99623490 24.10932558 -0.00114112 0.00447825 -0.01006062
C -5.76376582 7.75762793 24.07753108 -0.00566149 0.00256410 -0.00475617
C -8.64150124 2.74266509 19.05509171 0.00361867 -0.00539614 0.00359671
C -3.14107236 2.85844772 18.36223378 -0.00109919 0.00085879 -0.00075235
C -11.45053570 7.52452394 24.40998005 0.00847358 -0.00077442 0.00567175
C 7.22240980 6.89321462 0.01137820 -0.00409383 0.00224369 -0.00558942
C 3.39470528 1.75230238 18.52382051 0.00140159 -0.00349414 0.00508133
C -7.09695929 5.19975147 22.09222141 -0.00194636 -0.00898216 -0.00366307
C -7.44485525 0.25644715 21.05553472 -0.00986392 0.00101884 -0.00105604
C -0.75362536 4.57591244 20.98026775 0.00109783 0.00356910 -0.00453916
C -0.35146552 9.78828886 21.96216309 -0.00232677 -0.00242398 -0.00125953
C -8.33026505 6.03733380 22.08554906 0.00001358 0.00068692 0.00070406
C -6.17595504 1.08108118 21.22910560 -0.00033067 -0.00025772 0.00235883
C 0.53479920 3.81333769 20.96390540 0.00117945 -0.00541614 -0.00713870
C -1.47344068 8.82470472 21.68822328 0.00583286 0.00013090 0.00841812
C 3.04264553 13.29663612 5.18469824 -0.00419240 -0.00485243 0.00010360
C 0.24615088 18.16223223 1.20134600 -0.00018455 0.01568853 -0.00737649
C 6.93905937 15.84308966 1.03181566 -0.00251281 0.00082287 -0.00006590
C 9.91927690 10.93866091 5.09970645 0.00124027 0.00320571 -0.01047856
C 4.17808200 13.27432514 4.47969437 -0.00316224 0.00516083 0.00184377
C 12.24254784 18.31889592 1.53918970 0.00172342 0.00856247 -0.00513913
C 5.69581714 15.86642899 1.65022757 0.00447830 -0.00655473 -0.00212615
C 37.19027776 10.76121355 4.64333186 -0.00600922 0.00257902 0.00637713
C 5.24701838 12.48988023 4.89051391 0.00506258 -0.00288358 -0.00114659
C 11.17782165 17.46911948 1.17132582 -0.00138791 0.00099230 0.00150074
C 4.70831615 16.69931157 1.18559801 0.00117332 0.00152067 0.00721773
C -1.36119886 11.63407787 4.95806339 -0.00039861 -0.00011853 0.00211261
C 5.21040728 11.68799402 6.08847318 0.00012824 -0.00100166 -0.00014008
C 11.37544119 16.52256519 0.21085102 -0.00121115 -0.00334893 0.00560507
C 4.88802764 17.47587277 0.01100203 -0.00721779 0.00576247 0.00324571
C -1.46693032 12.44522046 6.10065173 0.00267568 0.00142814 0.00054667
C 7.20615516 11.78214065 0.38291411 0.00543159 0.00130959 -0.00328203
C 9.55287361 16.68897411 5.56504863 0.00047985 -0.00037211 -0.00238863
C 2.97108950 17.24642394 5.61093622 0.00539991 0.00659459 0.00080070
C 0.54045835 12.23447890 0.63777342 -0.00109679 0.00042595 -0.01017500
C -5.84836513 12.58465056 24.42236077 0.00226722 0.00207177 0.00328927
C -2.56465625 17.27402466 5.92826600 -0.00565844 0.00204164 0.00496653
C 3.92907207 16.37307265 5.98653366 0.00264579 0.00077170 -0.00577841
C 12.72277503 11.94607671 0.17643874 0.00144417 -0.00360227 0.00184603
C 1.71121900 14.68142290 3.67004521 -0.00116634 0.00336275 -0.00701644
C 1.57705884 9.91653929 2.47167512 -0.00051021 -0.00211331 -0.00521753
C 7.96591169 14.42319847 2.64512181 0.00299748 -0.00529773 0.00213611
C 8.27756394 19.01070192 3.57698846 -0.00321900 -0.00465542 0.00628996
C 0.49737387 15.56160713 3.52523368 0.00282045 -0.00397818 0.00353785
C 2.86558335 10.72872342 2.63069324 0.00381631 0.00099341 -0.00537389
C 9.12943800 13.50661793 2.89209088 0.00651052 0.00552091 -0.00420423
C 7.33719138 17.87423400 3.36320601 0.00207688 -0.00348655 0.00084376
C 0.08083639 13.28012799 11.43102173 -0.00331011 0.00145523 -0.00236687
C -2.69794627 18.12452220 7.05964460 -0.00009095 -0.00313476 0.00829829
C 3.88890505 15.62230120 7.22506203 -0.00317524 -0.00240622 -0.00482055
C 6.77315082 10.70303110 11.18936233 -0.00093432 -0.00078909 -0.00031733
C 1.34075793 13.21568795 10.75102873 0.00125951 0.00255382 0.00376047
C 9.29912265 18.18381066 7.88955798 -0.00620649 0.00174375 0.00170016
C 2.70675851 15.73496150 7.91529038 -0.00076388 -0.00295257 -0.00185765
C -5.07081490 10.97959430 10.51476505 -0.00591212 -0.00433983 0.00082443
C 2.24067349 12.24628109 11.05189208 -0.00280426 0.00891549 0.00084363
C 8.29858325 17.24798066 7.59609167 0.00146729 0.00153585 0.00633652
C 1.63721180 16.47130282 7.49318079 -0.00043930 -0.00411303 0.01023147
C -4.20885199 11.84210650 11.04031030 0.00519808 0.00333664 0.00636239
C 2.11530905 11.46907212 12.21782305 0.00121793 -0.00212159 0.00850304
C 8.40430943 16.49968302 6.39096254 -0.00423014 0.00336625 0.00915378
C 1.82095704 17.36800453 6.38834302 -0.00133964 -0.00275308 0.00179041
C -4.40522391 12.55324107 12.29650228 -0.00854822 -0.00082929 0.00300644
C 3.93481384 11.68435204 6.77205534 0.00271945 0.00259533 0.00342458
C 6.84138020 16.52378126 11.84898187 -0.00307735 0.00247714 0.00212656
C 0.46596469 17.10921100 11.59543077 0.00321850 0.00980300 -0.00490640
C -2.63769429 12.47119991 6.84591070 0.00681640 -0.01206885 0.00155784
C 2.90114108 12.50302353 6.35377037 0.00493027 0.00032116 0.00297922
C -5.29294986 17.43547511 12.09536120 0.00718565 0.00044980 0.00786880
C 1.35056622 16.27922894 12.20783916 0.00049111 -0.00305041 -0.00070081
C 9.60379993 11.63349067 6.27298758 0.00361368 0.00116721 0.00078252
C -1.25794914 14.68334140 9.86261483 -0.00417134 0.00218899 0.00249183
C -1.56032328 9.98675725 8.63935880 -0.00714136 0.00209428 0.00805098
C 5.03342891 14.04335324 8.73956662 -0.00286644 0.00435629 0.00440473
C 5.85395359 19.03546110 9.71610659 -0.00217067 -0.00447863 -0.00320921
C -2.50551701 15.56439495 9.85566357 -0.00091822 0.00083593 0.00353829
C -0.34631756 10.81157026 8.90215682 -0.00036096 -0.00141875 0.00220130
C 6.28294840 13.21725802 8.72185480 0.00299943 -0.00534026 0.00417417
C 4.53824063 18.38269139 9.54358964 -0.00240874 0.00409228 -0.00684671
C -3.14785869 13.41061484 17.27345778 0.00729470 -0.00428821 0.00125086
C -5.51775911 18.32187693 13.13707766 -0.00269500 -0.00404837 0.00679594
C 1.12344829 15.49376514 13.42928667 0.00215968 -0.00188204 0.00743459
C 3.67979201 10.95214187 17.54372724 -0.00218309 -0.01093673 0.00479721
C -2.03008862 13.24082872 16.52625052 0.00032007 0.01067678 0.00272696
C 6.30220358 18.22164821 13.93024671 -0.00006633 0.00012699 0.00330551
C -0.12563154 15.75459359 13.91130237 -0.00120763 0.00679443 -0.00128374
C -8.16832518 10.80134721 16.64596221 0.00949519 -0.00500415 0.00002054
C -0.96674769 12.42553728 16.92591036 -0.00665901 -0.00396312 -0.00689505
C 5.33338730 17.34829300 13.45570862 -0.00808729 -0.00007330 0.00166511
C -1.08200352 16.61036258 13.42731832 0.00661761 -0.00412632 0.00432350
C -7.32607103 11.82885553 16.96009949 -0.00252733 0.00739491 0.00307796
C -1.09887295 11.67465415 18.12733412 -0.01202321 -0.00158111 -0.00554317
C 5.53696061 16.54668898 12.33951584 0.00210896 0.00545920 -0.00254240
C -0.78354973 17.32117335 12.23836180 0.00416430 0.00554248 -0.00447174
C -7.41826481 12.55104066 18.15455287 -0.00127552 0.00553714 0.00400959
C 0.92488746 11.61011342 12.96054231 0.00361486 0.00058042 -0.00122550
C 3.84410403 16.58004246 17.94448058 0.00488345 -0.00204330 0.00352096
C -2.83127927 17.31067836 17.56761555 -0.00753906 -0.00534318 0.00316602
C -5.61627159 12.35958999 12.97326418 -0.00086551 -0.00309073 -0.00480387
C -0.05382973 12.43199294 12.53225971 -0.00270076 -0.00261689 -0.00043060
C -8.30949826 17.63732216 18.03743561 -0.00550188 -0.00148656 0.01412843
C -1.83845590 16.50161696 18.08384453 -0.00741611 0.00219870 -0.00143325
C 6.52024603 11.68076781 12.20799829 0.00193088 -0.00117896 -0.00080280
C -4.24401746 15.00007902 15.76490729 0.00320263 -0.00792227 -0.00146546
C -4.26999436 9.69282156 14.84673432 -0.00368279 0.00063662 0.00543359
C 1.96440510 14.08960133 15.10659230 -0.00242655 -0.00194248 0.00040094
C 2.55552176 19.02707574 15.85326691 -0.00218482 0.00030214 0.00292746
C -5.49711567 15.70169142 15.44652062 0.00473414 -0.00395750 -0.00530778
C -3.10014380 10.57741598 15.11512921 0.00551387 -0.01442450 -0.00427032
C 3.12112639 13.14646465 15.39898316 -0.00181186 0.00125754 0.00315992
C 1.43966208 18.03242626 15.65391780 -0.00209040 0.00377823 0.00004197
C -5.63298052 13.45474926 23.38929644 -0.00330482 -0.00145200 0.00522417
C -8.50236085 18.33865293 19.28660671 0.00224742 0.00300797 -0.00993633
C -2.11108709 15.61141255 19.14999764 -0.00491591 0.00173478 0.00202461
C 0.87029810 11.07268839 23.54698431 -0.00444060 0.00097531 -0.00243512
C -4.45989600 13.29993880 22.58308268 -0.00374046 0.00476551 0.01147190
C 3.39039257 18.04996136 20.18096003 0.00406901 0.00483491 -0.00153675
C -3.33651054 15.75000014 19.83675231 -0.00478404 -0.00682949 0.00372820
C -11.16900792 10.66384207 22.81858842 -0.00097440 0.00518474 -0.00328326
C -3.47205810 12.39998844 22.99308344 0.00080414 -0.00209792 -0.00609764
C 2.43223809 17.17150489 19.75261301 0.00129239 0.00130587 0.00486903
C -4.30554045 16.72498717 19.42419272 0.01212978 0.00179209 0.00330058
C -10.18197785 11.55608931 23.28342482 0.00125602 -0.00277736 0.00196666
C -3.65020453 11.68312579 24.18198672 -0.00163566 -0.00129495 0.00462935
C 2.64996473 16.40831960 18.61581772 -0.00868466 0.00278773 0.00061400
C -4.07289447 17.50454132 18.28987700 -0.00296410 0.00123566 0.00159183
C -10.30121158 12.27884687 24.50021727 0.00082155 -0.00338782 0.00510262
C -2.32903744 11.64702208 18.78368400 0.01060679 0.00070018 0.00024200
C 0.63274225 16.41632159 24.17127696 0.00355478 -0.00084784 0.01005254
C -5.91130240 17.47558139 23.93243385 0.00102547 -0.00922256 0.00026992
C -8.58511158 12.35539306 18.91483107 0.00142298 0.00893132 -0.00678639
C -3.35149299 12.44991059 18.26776324 -0.00006477 -0.00240983 -0.00009335
C -11.53906768 17.41642824 24.49702534 -0.00150688 0.00716356 -0.00543334
C -4.89661866 16.69763982 24.45570933 0.00302544 -0.00415703 -0.00744125
C 3.50892608 11.84702635 18.64631421 -0.00033741 -0.00516137 -0.00389275
C -7.01381224 14.77245931 21.87186094 0.00133798 -0.00187432 0.00271002
C -7.41091362 9.90008615 21.07754125 -0.00178804 0.00847549 -0.00036631
C -1.06074118 14.27296842 20.85688999 -0.00094865 0.00308240 0.00259501
C -0.65387872 19.08836141 21.81185615 -0.00347063 0.00442161 -0.00036525
C -8.27416598 15.51629861 21.76065227 -0.00282724 -0.00248820 -0.00051725
C -6.14915162 10.80959458 21.36388567 -0.00722009 0.00429352 0.00013913
C 0.01978705 13.33031939 21.16567947 -0.00318103 0.00202399 0.00182336
C -1.90848083 18.38671430 21.61535762 -0.00027397 0.00011047 -0.00168296
C 3.05745373 23.11692548 5.09627310 0.00055453 0.00040298 -0.00378582
C 0.41772815 27.98309303 1.22014110 -0.00321199 -0.00789759 -0.00259141
C 6.96393762 25.09730782 1.07741044 -0.00541844 -0.00422588 -0.00404456
C 9.45189974 20.35472198 5.17419150 0.00198860 0.00069261 -0.00160798
C 4.24181718 22.84829382 4.48044150 -0.00216125 0.00096451 0.00537598
C 12.57019244 27.98569793 1.49523510 -0.00585962 0.00445593 0.01009717
C 5.72612936 25.35248979 1.74916371 -0.00036003 -0.00440752 0.00105859
C 37.22421094 20.69563750 4.39460661 -0.00071263 0.00008253 0.00228121
C 5.24816072 21.96607950 4.88510029 0.00236467 -0.00671019 -0.00386230
C 11.56737762 27.01527643 1.15159274 -0.00685301 0.00119747 0.00256112
C 4.84388618 26.26722220 1.35003007 -0.00776709 -0.00263060 -0.00527487
C -1.36262873 21.53194550 4.87651375 0.00047423 0.00752437 -0.01602946
C 5.00178267 21.27690531 6.09896289 0.00107127 0.00788420 -0.00257485
C -0.34353276 26.22131269 24.48465123 -0.00051379 0.00831888 0.00298745
C 4.99045806 27.04392845 0.16337415 0.00099268 -0.00012566 -0.00084439
C -1.50827081 22.28117376 6.08158639 -0.00261170 0.00586234 0.00555668
C 6.83134959 21.41853004 0.60208609 0.00609428 0.00101508 0.00189603
C 9.97382686 26.22457709 5.63952496 0.00425051 -0.00546189 -0.00004467
C 3.32303565 27.38881430 5.58559682 0.00274377 0.00422327 0.00111029
C 0.51395194 22.10275072 0.64724798 0.00727738 -0.00427884 0.00305000
C 5.88417582 22.28550089 0.16678810 -0.00399940 -0.00277760 0.00255738
C -2.59319196 26.86127932 5.86826719 0.00140969 -0.00306410 -0.00319000
C 4.30515569 26.46534827 5.87310315 0.00509938 0.00348227 -0.00277005
C 12.36216140 21.10920862 0.07795434 0.00493155 -0.00201459 -0.00607225
C 1.84222333 24.51147941 3.51906291 0.01364869 0.00295893 0.00080440
C 1.37760845 19.69575181 2.81039097 0.00374158 0.00041257 -0.00502011
C 8.10070484 23.81992557 2.78027584 -0.00270098 -0.00258553 0.00079313
C 8.68196121 28.71921263 3.37789527 -0.00044348 -0.00228623 -0.00254206
C 0.64949320 25.40582707 3.20798038 0.00203253 -0.00549891 0.00634820
C 2.42291526 20.67804189 3.06116674 -0.00170164 0.00106434 0.00584888
C 9.37667229 22.99665413 3.08953744 0.00349931 0.00633651 -0.00243494
C 7.37876041 28.08952152 3.00811748 0.00486148 -0.00255635 0.00499784
C 0.14715327 22.94189578 11.33365440 -0.00569167 -0.00039801 0.00205048
C -2.67113455 27.68130630 7.00556579 0.00429865 -0.00502959 0.00319540
C 4.03148087 25.55515647 6.91021288 -0.00286293 0.00330603 0.00344846
C 6.90418492 20.67154817 11.17386258 -0.00092064 -0.00245050 0.00261914
C 1.43193559 22.87612186 10.70221917 0.00195142 0.00197152 0.00119362
C 9.39288238 27.97538689 7.62742853 -0.00075783 0.01168115 0.00217378
C 2.84567874 25.60426407 7.58785068 0.00966568 -0.00555083 -0.00046962
C 34.27722432 20.55007994 10.38471079 -0.00502283 -0.00562907 0.00282756
C 2.33175976 21.91292018 11.01520659 0.00635122 0.00398382 0.00509446
C 8.51390552 26.99776720 7.27365190 -0.00689531 -0.00661359 -0.00249825
C 1.98588880 26.60088887 7.31114825 -0.00090198 0.00416750 0.00008466
C -4.44838302 21.52403510 10.75132212 -0.00545802 -0.00053484 -0.00314272
C 2.16838243 21.03907859 12.10879616 0.00456652 0.00286853 -0.00347940
C 8.74945792 26.04564121 6.25502785 -0.00180716 -0.00618803 -0.00557916
C 2.15472666 27.51861732 6.30736928 0.00093995 -0.00294649 0.00255702
C -4.71406653 22.32523008 11.86849772 -0.00009293 -0.00429174 -0.00396498
C 3.78122288 21.49701502 6.79287098 0.00498236 0.00361733 -0.00684340
C 6.69650051 26.61203611 11.44215095 0.00655063 0.00242873 -0.00644144
C 0.28930872 26.97829233 11.57599146 -0.00231237 -0.00219922 -0.00353914
C -2.71146189 22.04827313 6.81375008 -0.00214925 -0.00794130 0.00618477
C 2.90323401 22.46645390 6.34237448 -0.00385362 -0.00215917 -0.00144863
C -5.32250894 27.04779765 12.14020236 0.00190395 -0.00357405 -0.00159749
C 1.22348106 26.09035494 12.07359588 -0.00256410 -0.00207924 0.00320606
C 9.35690954 21.25720955 6.27946338 -0.00024068 -0.00406872 0.00596595
C -0.97346788 24.47167937 9.86801545 -0.00232635 -0.00012921 -0.00477238
C -1.44674888 19.57226984 8.62184400 -0.00466872 0.00085108 -0.00091247
C 5.19419569 24.10220165 8.54065073 -0.00116894 -0.00189025 -0.00171247
C 5.48834105 28.85159382 9.69256569 0.00305132 0.00080678 -0.00595989
C -2.21727721 25.25484026 9.70081157 -0.00809835 0.00672286 -0.00133922
C -0.15154188 20.26329864 8.71383985 0.00414444 -0.00180320 -0.00108352
C 6.22691574 23.04735854 8.71162750 -0.00263872 0.00406962 0.00149891
C 4.32365614 27.88793971 9.81859103 -0.00336170 -0.00266363 -0.00272439
C -2.73260955 23.07686706 17.30552906 -0.00534666 0.00595277 -0.00500940
C -5.56287371 28.05856487 13.07785626 -0.00059314 -0.00119884 -0.00176661
C 1.03503839 25.30461366 13.28001238 0.00073886 0.00375416 0.00221261
C 3.68290597 20.44332332 17.47214375 0.00155313 0.00092799 0.00174716
C -1.54954462 22.95057606 16.53734551 0.00231852 -0.00046885 0.00160849
C 6.26225335 28.07319732 13.83654646 -0.00032305 0.00331296 -0.00621837
C -0.21666543 25.50280667 13.89784150 0.00474683 0.00491137 -0.00254601
C 31.37587989 20.76869029 16.67836130 -0.00046817 0.00341272 -0.00148032
C -0.54647072 22.09913334 17.01714381 0.00596152 -0.00528331 0.00456042
C 5.31106918 27.18348889 13.33304734 -0.00156525 -0.01100355 -0.00750376
C -1.12600595 26.31903222 13.29645217 -0.00133252 0.00571209 -0.00174270
C -7.25038163 21.67493744 17.11543963 0.00425692 -0.00222543 0.00086032
C -0.64846758 21.41195339 18.26635712 0.00338654 -0.00402392 -0.00380359
C 5.50355123 26.41724494 12.21602953 -0.00348705 0.00492848 0.00512273
C -0.97068514 27.11884663 12.18723397 -0.00557963 -0.00720602 0.00508886
C -7.34948675 22.37417480 18.37576382 0.00062823 0.00190737 0.00026308
C 0.92794486 21.13927712 12.72648750 0.00037621 -0.00157006 0.00553668
C 3.82832040 26.40063034 17.41680933 0.00444875 -0.00392310 0.00177948
C -2.72802977 27.06843415 17.68720475 0.00638540 -0.00440655 -0.00350084
C -5.86163788 22.02696779 12.57467324 -0.00173520 0.00009779 0.00017288
C -0.03872893 22.00481440 12.35518106 0.00370274 -0.00427722 0.00050586
C -8.39852021 27.42277633 18.10690914 0.00298011 -0.00097033 -0.00022602
C -1.68101947 26.25979393 18.13490674 0.00291431 0.00283120 -0.00510703
C 6.54042592 21.69306707 12.07025926 0.00163429 -0.00271456 0.00241414
C -4.00125202 24.46188499 15.80409703 0.00175772 0.00228071 0.00167560
C -4.40333706 19.87465700 14.70178520 -0.00059263 0.00350448 -0.00068148
C 2.28310114 23.96855836 14.81900197 0.00262213 -0.01212713 0.00392831
C 2.58947167 28.95786286 15.57156135 -0.00160131 0.00367187 0.00592653
C -5.16341532 25.42038184 15.83583084 0.01382945 -0.00354733 -0.00047273
C -3.26493549 20.78770157 14.87044190 0.00124567 -0.00313170 -0.00004490
C 3.50441320 23.03703854 15.01840258 0.00065381 -0.00272073 0.00132855
C 1.30689244 28.37450631 15.17308299 -0.00301860 0.00061859 0.00000181
C -6.02677643 23.08311118 23.54117480 0.00809836 -0.00232967 -0.00238563
C -8.62652812 28.20084396 19.26840334 0.00410702 -0.00546520 0.00032196
C -1.81528275 25.43022172 19.26533942 0.00052240 -0.00099738 0.00426322
C 0.47169981 20.38133801 23.40348726 0.00705013 0.00080467 0.00170621
C -4.76888049 23.04196036 22.86354742 -0.00133994 0.00537657 0.00495164
C 3.51704255 27.85900883 19.79001154 -0.00307661 -0.00200973 0.00382045
C -3.02144181 25.42058442 19.96028731 -0.00162748 -0.00610905 -0.00357700
C -11.13574292 20.57956879 22.97129495 0.00106756 0.00371631 -0.00085825
C -3.84626001 22.12524923 23.28642169 -0.00211860 -0.00088645 0.00002443
C 2.42807247 27.16078696 19.30253753 0.00531963 -0.00189625 0.00412384
C -4.04287030 26.28058942 19.57088702 0.00149375 -0.00680060 0.00269458
C -10.12846563 21.43485394 23.39706304 -0.00768114 -0.00011391 0.00724849
C -4.04360836 21.25900282 24.35983635 -0.00151218 0.00178144 0.00164192
C 2.62316132 26.34313837 18.14608124 0.00575002 -0.00176768 -0.00270486
C -3.93605661 27.11318800 18.44292974 -0.00215492 -0.00387339 -0.00242375
C 1.74049823 22.24410829 0.00600957 -0.00534243 0.00106504 0.00285630
C -1.82693333 21.52652502 18.94583775 0.00047591 -0.00221479 -0.00234282
C 0.81760366 26.41793573 23.74996597 -0.00584318 -0.00153551 0.00564590
C -5.80946350 26.88739801 23.98260600 0.00646468 0.00298535 0.00427168
C -8.51791928 22.18613817 19.10236391 0.00636605 0.00840439 -0.00159503
C -2.82566930 22.36294923 18.52209819 0.00137046 0.00953523 0.00047498
C 0.75210634 27.13642222 0.21284555 0.00500663 -0.00137654 0.00145782
C -4.84422642 26.00258159 24.49334163 0.00734542 -0.00209957 -0.00205358
C 3.45399021 21.31299240 18.59369041 -0.00359504 -0.00671287 -0.00273057
C -7.08700878 24.66622849 21.92450876 0.00679459 0.00543311 -0.00078173
C -7.25644650 19.73700979 20.85287151 0.00193471 0.00284455 -0.00327404
C -0.62878766 23.85164331 20.80563111 0.00118969 -0.00821611 -0.00097372
C -0.53364683 28.76190362 21.92664694 -0.00963543 0.00339442 0.00231214
C -8.20301702 25.61269549 21.71039234 -0.00034228 -0.00267671 -0.00359686
C -6.00279379 20.54186026 20.98026462 -0.00754745 0.00001750 0.00084080
C 0.62828635 23.04154215 20.90838001 0.00297233 -0.00138288 0.00479895
C -1.61189715 27.74038065 21.75600646 -0.00026074 0.00173031 -0.00892557
C 16.39839802 3.77422441 5.04117933 0.00178542 0.00352518 -0.00110758
C 13.44561923 8.77542950 1.06185483 -0.00386028 -0.00529973 -0.00443074
C 19.94214867 6.00555989 0.89610970 0.00451391 0.00428265 0.00133944
C 22.62507300 1.32315347 5.18758459 0.00345794 -0.00176377 0.00104791
C 17.60339025 3.50567351 4.42803550 -0.00151297 0.00332590 0.00373136
C 25.38016755 8.47605874 1.63307049 0.00576352 0.00234877 0.00821591
C 18.70605279 6.18986571 1.62696443 -0.00219505 0.00240476 0.00319213
C 10.99814312 1.09406911 4.37732925 -0.00318851 0.00704866 -0.00090165
C 18.57309289 2.71777756 4.96808534 0.00563426 -0.00073536 -0.01081454
C 24.32915213 7.61734102 1.21778069 -0.00205161 0.00678430 0.00344331
C 17.82084682 7.13097969 1.28459403 -0.00140449 0.00193940 0.00177935
C 12.00110922 1.93744558 4.85690455 -0.00209369 -0.00537650 -0.00994904
C 18.28083686 2.08610606 6.19448253 0.00515703 0.00376832 -0.00595477
C 24.56609729 6.64706505 0.28414024 0.00738245 0.01064539 0.00442827
C 18.00594751 7.96334428 0.13683049 -0.00395140 -0.00171812 0.00095147
C 11.69599998 2.90628054 5.82847375 -0.00628544 0.00541572 -0.00198040
C 19.91584386 1.91021665 0.51869738 0.00138265 0.00160753 -0.00107872
C 22.92703407 6.93532647 5.46337736 -0.00023933 -0.00124617 0.00092331
C 16.35727579 7.69761556 5.62425313 -0.00076730 -0.00509302 -0.00190001
C 13.41874423 2.71854542 0.60909059 0.00450086 -0.00097021 -0.00338898
C 18.96823038 2.80236072 0.11117661 0.00680705 -0.00163643 -0.00159471
C 10.65272682 7.70581504 5.97430634 -0.00031306 -0.00282058 0.00139284
C 17.36565981 6.83304196 5.94927214 -0.00560623 0.00837078 -0.00018527
C 25.88789735 2.04223861 0.14632603 0.00137444 0.00175342 -0.00279869
C 15.26364731 5.13842443 3.36155624 0.00676990 -0.00135939 -0.00009741
C 14.84673679 0.57196392 2.19993831 -0.00680675 0.00551564 0.00046313
C 21.04415042 4.43981332 2.42934129 -0.00525081 0.00474326 -0.00670549
C 21.51053506 9.44223479 3.37981490 0.00260833 -0.00492366 -0.00247535
C 14.04627370 5.91413234 2.94375318 0.00496571 -0.00371345 0.00067168
C 16.06444843 1.38028620 2.34608461 -0.00032596 -0.00412818 -0.00324122
C 22.25716752 3.52355812 2.46767798 0.00072272 0.00251659 0.00954397