2880
Time=29000.00000000 pbc="T T T" Lattice="39.48380146 0.00000000 0.00000000 0.00000000 29.03040601 0.00000000 -12.02420783 0.00000000 24.38632476" energy=-18399.50706267 virial="4.98151641 -7.37165187 -67.27790835 -7.37165187 -41.66199613 47.01115422 -67.27790835 47.01115422 -49.78044710" stress="0.00275512 -0.00028528 -0.00243817 -0.00028528 0.00104069 0.00164682 -0.00243817 0.00164682 0.00061266" Properties=species:S:1:pos:R:3:vel:R:3
C 3.21545896 3.75597605 5.06051368 -0.00209621 -0.00078661 -0.00072827
C 0.26494272 8.48661056 0.80398711 0.01042098 0.00417686 -0.00042912
C 7.07020895 5.72395961 0.78206886 -0.00301665 -0.00271193 0.00268965
C 9.88781218 1.08273951 5.06543746 0.00134078 -0.00119407 0.00131854
C 4.50502100 3.77130513 4.41603496 -0.00071073 0.00206249 -0.00089152
C 12.23801655 8.49085773 1.57123074 0.00101102 -0.00396161 0.00569501
C 5.89254206 5.94725945 1.50700747 0.00394998 -0.00796946 0.00323365
C -1.95594514 1.45975904 4.47176030 0.00538007 0.00789690 0.00041601
C 5.53138898 3.00573652 4.90253109 -0.00336266 0.00163946 0.00205595
C 11.21479102 7.71097043 1.12788432 0.00171813 0.00352563 -0.00283868
C 4.92383897 6.85328678 1.14016551 0.00640105 -0.00394026 0.00415147
C -1.02644484 2.29266097 4.99895083 -0.00256064 -0.00255676 -0.00260849
C 5.31104662 2.25572461 6.05760055 -0.00541976 -0.00364638 0.00508275
C 11.39399720 6.85444027 0.01176181 -0.00302742 -0.00088613 -0.00580472
C -6.89178329 7.64112825 24.37336300 -0.00870804 0.00262586 0.00636768
C -1.28967137 3.05658319 6.13498720 0.00152288 0.00233927 0.00503755
C 6.81038680 1.87336650 0.45402259 0.00105940 0.00871252 -0.00181664
C 9.80005603 6.72910021 5.48354111 0.00304078 -0.00582846 -0.00003852
C 3.16181593 7.65256070 5.42804023 -0.00253684 0.00119072 -0.00546294
C 0.21705660 2.83739644 0.41708527 0.00117946 0.00414530 -0.00534594
C 5.84939790 2.73367079 0.05303923 -0.00553792 -0.00640108 0.00006803
C -2.55792258 7.71249395 5.95258207 -0.00372374 0.00453661 -0.00724774
C 4.06223984 6.75082002 5.86666930 -0.00268405 0.00127875 -0.00302777
C 12.61597777 1.81774420 0.32575541 0.00644708 -0.00946581 -0.00584593
C 2.04595880 5.17775921 3.42790322 0.00407590 0.00000056 -0.00069036
C 1.73265564 0.36460095 2.42115369 0.00375197 0.00320833 0.00350763
C 8.27655993 4.38819429 2.42741605 -0.00173215 -0.00330121 0.00435838
C 8.71537564 9.27008714 3.46366310 -0.00396508 -0.00093867 0.00572731
C 0.89623226 6.26852203 3.51710514 0.00283637 0.00171161 0.00056111
C 2.92480654 1.18628585 2.55143044 -0.00129859 -0.00436671 0.00014806
C 9.27999581 3.25943797 2.52995063 -0.00000762 0.00058619 -0.00354221
C 7.51419240 8.35012305 3.23842177 -0.00405465 -0.01058871 -0.00240323
C 0.25475269 3.36310340 11.21387427 -0.00296312 -0.00446625 0.00960226
C -2.70776789 8.56298170 7.07118532 0.00482163 -0.00714312 0.00217360
C 3.93027067 5.95344251 7.05550360 0.00433901 -0.00104840 0.00057948
C 6.67920868 1.26527248 11.22166865 -0.00710249 -0.00175552 0.00073331
C 1.56389913 3.49273099 10.67406708 0.00209484 0.00974738 0.00233482
C 9.28647543 8.32572512 7.73614708 0.00534849 0.00083512 -0.00357122
C 2.74823197 6.20392916 7.78047632 0.00263520 -0.00172670 -0.00459546
C -5.16457623 1.28355207 10.49600340 -0.00164404 -0.00040158 0.00515420
C 2.65185611 2.79644229 11.14320017 0.00310622 -0.00468407 0.00208410
C 8.40228087 7.31181151 7.42142027 -0.00599890 -0.00163146 -0.00341287
C 1.74569859 7.03798642 7.27119332 -0.00035606 -0.00554701 0.00001198
C -4.19376448 2.13063715 10.92749537 -0.00029674 -0.00164143 0.00138660
C 2.40610187 1.90344697 12.26263658 0.00181798 0.00519964 -0.00039868
C 8.61853703 6.56277466 6.17695945 0.00336452 -0.00431339 0.00131319
C 1.91749391 7.72089979 6.06097572 -0.00258202 -0.00046638 0.00368900
C -4.34314784 2.87592103 12.16427163 -0.00358112 -0.00700117 0.00079099
C 4.05727814 2.19597986 6.63633365 -0.00121389 -0.00235843 -0.00193609
C 6.87863622 6.79843863 11.80225230 0.00231462 0.00014812 0.00183705
C 0.17885087 7.31358056 11.66189309 0.00174898 -0.00608988 -0.00441735
C -2.59196949 2.88931043 6.70337312 -0.00146565 -0.00270438 -0.00150473
C 3.02333656 2.98225572 6.18456511 0.00118437 0.00576258 0.00141308
C -5.32464750 7.94446016 12.16183970 0.00462707 0.00476390 -0.00119615
C 1.15332336 6.46450564 12.12140809 0.00308423 -0.00388639 -0.00009724
C 9.68697055 1.94366397 6.15415835 0.00162933 -0.00015653 0.00096928
C -0.81555860 4.94209924 9.69951424 0.00234374 -0.00211985 -0.00424809
C -1.25642998 0.20441554 8.54411131 -0.00289558 0.00264220 0.00694939
C 5.18395428 4.67665488 8.59221716 -0.00000438 -0.00354773 0.00423918
C 5.28359960 9.41673816 9.63649015 0.01142461 0.00022337 -0.00042263
C -2.05701144 5.76414243 9.40960895 0.00658511 -0.00098579 0.00598188
C 0.02093106 0.94686567 8.61219291 0.00002825 0.01275033 0.00495236
C 6.32490626 3.78016099 8.80667428 -0.00270814 -0.00412997 -0.00094902
C 3.96550804 8.73924190 9.41224142 0.00541244 -0.00281228 0.00005963
C -2.80226182 3.58616626 17.48119954 0.00686311 0.00292214 0.00083131
C -5.56936312 8.78039793 13.29818494 0.00522352 0.00054301 0.00087771
C 0.98696999 5.64743752 13.31709577 -0.00508937 0.00105302 0.00236377
C 3.91361322 0.95188353 17.24326963 -0.00307742 0.00012966 0.00400179
C -1.65156279 3.46389798 16.73345339 -0.00665963 0.00092330 -0.00344385
C 6.36221070 8.48285920 13.92040431 -0.00336533 -0.00476345 -0.00281778
C -0.27973111 5.68394628 13.91744082 -0.00059249 0.00551576 0.00388192
C -8.15080704 1.08404990 16.63722035 -0.00623148 0.00617550 0.00453917
C -0.68594416 2.58273343 17.08615567 -0.00797469 -0.00210132 -0.00417380
C 5.54253137 7.42303681 13.66991660 0.00019498 0.00106319 -0.00056161
C -1.33518485 6.49251248 13.42780136 0.00093128 0.00326857 -0.00284789
C -7.04630553 1.86035620 17.06235197 -0.00460328 0.00314690 -0.00344870
C -0.84645167 1.69498944 18.17958123 0.00284549 0.00013684 -0.00501417
C 5.72227710 6.66483241 12.53872519 0.00051197 -0.00624187 -0.00529574
C -1.08690147 7.26909375 12.28059333 0.00183466 0.00104365 0.00021866
C -7.26408272 2.60489598 18.24019089 0.00163289 -0.00718862 0.00164247
C 1.12953142 1.79866280 12.80171347 -0.00072428 0.00335019 -0.00435654
C 3.96653128 6.82972629 17.92846143 -0.00170591 -0.00753378 0.00893674
C -2.87831330 7.50078656 17.93557847 0.00363802 0.00019961 0.00249502
C -5.57523233 2.86572759 12.80979865 0.00080041 -0.00161375 0.00502841
C 0.10483412 2.56237998 12.38711452 -0.00510774 0.00920637 -0.00411086
C -8.34378021 7.79545949 18.38039069 -0.00406650 -0.00283889 0.00158641
C -1.82319899 6.73236204 18.32595217 0.00096978 -0.00573494 0.00281726
C 6.61977660 2.16133589 12.35445337 0.00324396 -0.01438359 0.00171059
C -3.83179285 5.04084098 15.92193078 0.00625638 0.00827136 0.00370443
C -4.32700983 0.26112045 14.68469322 0.00026759 -0.00352899 -0.00581749
C 2.15735348 4.59104801 15.11311924 -0.00056461 0.00826649 0.00939069
C 2.62977167 9.26660506 15.68200541 0.00577039 -0.00696978 0.00322379
C -4.92901011 6.07769028 15.75144426 0.00213565 0.00117786 0.00000035
C -3.11091855 1.06398755 14.81943629 0.00101455 -0.00574117 0.00526169
C 3.37845063 3.77273814 15.48533266 -0.00219117 0.00164351 0.00601547
C 1.38890357 8.39313684 15.43546422 -0.00290448 0.01075904 -0.00301902
C -5.95509219 3.60573644 23.35661861 -0.00078245 -0.00395573 -0.00367021
C -8.54447921 8.55029602 19.53917727 -0.00471553 -0.00229702 0.00620309
C -1.93123593 5.82546661 19.35920354 0.00155080 -0.00850879 -0.01006005
C 0.71797787 1.01894531 23.51577874 0.01088667 -0.00107420 0.00661068
C -4.77187145 3.56930563 22.68177053 0.00250768 0.00461037 0.00226806
C 3.61534096 8.71919229 19.88342711 0.00240642 0.00079367 0.00216120
C -3.17801781 5.84043568 20.01255096 -0.00231416 -0.00432589 -0.00221818
C 28.19480320 1.20607479 22.58419330 0.00088346 0.00768841 0.00683461
C -3.78293079 2.63454030 23.07812839 0.00292924 0.00172005 0.00435789
C 2.58827737 7.86046782 19.60217926 -0.00197847 0.00299190 -0.00039129
C -4.25816013 6.64254593 19.68047202 0.00678198 0.00161240 -0.00385256
C -10.28156395 2.01537128 23.10280439 0.00154876 -0.00063440 -0.00217851
C -3.99230892 1.83020763 24.17022827 0.00284910 -0.00370402 -0.00506617
C 2.69237380 6.87900090 18.62616727 0.00106742 -0.00010994 -0.00025116
C -4.14411012 7.48930798 18.53309109 -0.00188965 0.00239822 0.00107795
C -10.51601732 2.92873052 24.18651872 -0.00381332 0.00531234 -0.00149034
C -2.03800521 1.84603836 18.97991394 -0.00886341 0.01268926 0.00405056
C 0.54237437 6.96783948 23.69565767 -0.00065092 0.00266731 0.00186820
C -5.72702827 7.51441273 23.67603803 0.00429944 0.00197379 0.00685575
C -8.49960472 2.58344424 18.90056135 0.00240230 0.00521738 -0.00484415
C -3.00178396 2.67671670 18.56217803 -0.00046973 -0.00406362 -0.00144743
C -11.55433687 7.59948666 24.08360533 0.00893636 -0.00258784 0.00465745
C -4.79334703 6.57923303 24.02249596 0.00238983 -0.00366710 -0.00152237
C 3.63630199 1.81833118 18.33077448 0.00918385 0.00015585 0.00145189
C -7.25272979 5.02702443 21.78440481 0.00544026 -0.00240626 0.00386373
C -7.45717948 0.23293273 20.85744445 0.00241385 0.00080176 -0.00660796
C -0.77930237 4.39511220 20.91673438 0.00302388 -0.00401882 0.00220747
C -0.63545881 9.27637896 21.83004917 0.00018792 -0.00623148 -0.00409745
C -8.54098003 5.80223387 21.70690292 -0.00411122 -0.00457799 -0.00646595
C -6.25590765 1.05348960 21.27633481 0.00480151 -0.00760796 -0.00852285
C 0.44975754 3.59589079 21.13342170 -0.00347070 0.00485638 -0.00290251
C -1.88479119 8.37015047 21.71040687 0.00171069 -0.00766900 0.00025869
C 3.16688792 13.21313821 5.17154595 -0.00046717 0.00462547 -0.01142017
C 0.37681542 18.22305190 1.20084717 0.00231856 -0.00040871 0.00526942
C 7.03939142 15.73402611 0.81986502 0.01069975 0.00729785 0.00726299
C 9.71797616 10.74120985 5.05562762 -0.00004392 0.00892094 -0.00683081
C 4.31303664 13.12265578 4.42623856 0.00327274 -0.00100738 -0.00607134
C 12.50630826 18.15392376 1.52202847 0.00183452 0.00647661 -0.00757899
C 5.79399787 15.72438153 1.54925563 0.00177136 -0.00375573 -0.00621619
C -2.04977118 10.80564665 4.48062170 0.00445716 0.00587409 0.00149816
C 5.24739488 12.14834188 4.77252929 -0.00052557 -0.00608164 0.00077300
C 11.49352849 17.22988838 1.10326024 -0.00678493 -0.00001090 0.00034810
C 4.80227771 16.52688024 1.10810820 -0.00310969 0.00231986 -0.00314903
C -1.05955961 11.69596222 4.83539265 0.00154844 0.00162488 0.00327892
C 5.01427391 11.19434568 5.80751410 -0.00162745 0.00124671 -0.00157281
C 11.75989677 16.24250271 0.15032409 0.00365043 -0.00019701 -0.00196837
C 4.93259002 17.35903579 0.02006209 -0.00131500 0.00565323 0.00074919
C -1.21005663 12.56047685 5.96552351 -0.00694891 0.00771016 0.00348422
C 7.02005260 11.71722894 0.55726564 -0.00473153 0.00113212 -0.00381887
C 9.55501770 16.70680460 5.40156691 -0.00289222 0.00583799 -0.00356734
C 3.15417098 16.97418485 5.38631226 -0.00400762 0.00213738 0.00341073
C 0.38771194 12.63265621 0.59275625 -0.00319981 0.00493750 -0.00363897
C 6.10352951 12.68426734 0.13108925 0.00483962 0.00324620 -0.00132978
C -2.37077214 17.40271308 6.09748472 0.00516468 0.00526037 0.00262159
C 4.19652023 16.20633408 5.89386137 -0.00087940 0.00751713 0.00502022
C 12.47930362 11.66279499 0.02689208 -0.00322259 -0.00036898 -0.00026501
C 1.89947946 14.71050667 3.71128593 0.00524993 -0.00457432 -0.00651069
C 1.62498448 9.96043555 2.24179458 0.00094581 -0.00206491 -0.00226869
C 8.20369231 14.28756640 2.32664778 -0.00057125 -0.00009212 0.00423790
C 8.31509722 19.03348800 3.49266100 -0.00220376 -0.00563560 0.00400498
C 0.53107284 15.39451835 3.70139440 -0.00186657 -0.00177763 -0.00142487
C 2.92968081 10.59078082 2.29523761 -0.00510522 -0.00531420 -0.00637038
C 9.31620248 13.31839463 2.50364033 -0.00102980 0.00631678 0.00020110
C 7.06028584 18.20088576 3.47959929 0.00003998 0.00130067 -0.00825629
C -0.01390987 13.22758070 11.11620342 -0.00558936 0.00359591 0.00362439
C -2.50348902 18.26628378 7.21675870 0.00134604 0.00710506 -0.00279038
C 4.04194625 15.48364661 7.14027697 0.00401788 -0.00479895 -0.00051867
C 6.65987615 10.65754353 11.19388179 0.00279748 -0.00441447 0.00371320
C 1.18213294 13.25120246 10.41323308 0.00375798 0.00499365 0.00245843
C 9.10658938 18.29227058 7.60578704 0.00053551 0.00483958 -0.00393473
C 2.81840984 15.65071210 7.83346574 -0.00008556 0.00207855 0.00271124
C 34.15681878 10.81235226 10.45982693 -0.00188093 0.00476779 0.00529519
C 2.08122390 12.22609530 10.71699488 -0.00228196 0.00803406 -0.00091442
C 8.15882252 17.38325145 7.19355224 -0.00193859 0.00371287 0.00082351
C 1.87853401 16.60834633 7.42822820 -0.00389822 0.00037623 0.00509436
C -4.33892991 11.66993473 10.84429134 -0.00305128 0.00741726 0.00606815
C 2.05395549 11.44022142 11.90689752 -0.00002883 -0.00685527 -0.00409285
C 8.35120251 16.56971589 6.07467576 0.00124007 -0.00654191 -0.00038277
C 2.07382575 17.38796611 6.23148317 0.00468392 -0.00010663 -0.00793165
C -4.45937420 12.56528376 11.94906499 0.00586012 -0.00121074 0.00797192
C 3.74223903 11.25950370 6.45062868 0.00232641 0.00240011 -0.00030633
C 6.93180362 16.51514476 11.54112138 0.00228185 0.00274219 -0.00384925
C 0.13980674 17.07252317 11.70782534 -0.00561113 -0.00063112 -0.00020639
C -2.43213984 12.48438935 6.58909544 -0.00333724 0.00674944 0.00560379
C 2.94849899 12.29537789 6.20131991 0.00650959 0.00581082 0.00073214
C -5.29120279 17.23704125 12.31896028 -0.01011518 -0.00003340 -0.00203062
C 1.14195735 16.25874519 12.08288750 -0.00261286 -0.00209928 -0.00180946
C 9.40902576 11.57582060 6.09617164 -0.00259176 0.00567378 -0.00627120
C -1.21442784 14.82340012 9.66856778 0.00219359 0.00276600 -0.00665566
C -1.25184731 9.61184807 8.59886933 0.00544249 0.00398263 -0.00363751
C 5.10989879 14.03149463 8.70392197 -0.01136271 0.00038616 0.00590309
C 5.42452105 19.16746941 9.48840451 -0.00555276 0.00294693 0.00338538
C -2.39542722 15.74297081 9.64581078 0.00216801 -0.01076321 0.00017048
C -0.04026854 10.44864020 8.70089860 0.00567543 -0.00405663 -0.00125451
C 6.22321250 13.03972974 8.78857068 0.00571717 0.00465027 0.00220449
C 4.17619634 18.38033525 9.30528956 -0.00151499 -0.00199343 -0.00820630
C -2.70521205 13.30979796 17.33150744 -0.00335065 -0.00256065 0.00427572
C -5.49879177 18.14427850 13.33243993 -0.00181492 0.00132243 0.00195598
C 1.00003014 15.32533571 13.13947813 -0.00210302 0.00115051 -0.00018648
C 3.73896838 10.74577015 17.29511047 -0.00050330 -0.00173220 -0.00237181
C -1.43878771 13.18667497 16.67348680 -0.00107250 -0.00065662 -0.00219905
C 6.36271294 18.12856129 13.71590660 0.00013065 0.00769705 0.00121067
C -0.19606702 15.22169749 13.85013879 0.00609009 -0.00000858 -0.00542020
C -8.00108256 10.62861954 16.80289004 -0.00441180 -0.00268282 -0.00549271
C -0.45304493 12.32964914 17.17327264 -0.00039995 0.00249003 0.00188131
C 5.38833552 17.28855275 13.19724446 0.00099862 -0.00133290 0.00430172
C -1.15746242 16.10446705 13.57622141 0.00421290 -0.00244612 0.00101476
C -7.11096194 11.65019549 17.05809198 -0.00755379 -0.01000071 -0.00023928
C -0.84265833 11.35026492 18.09203594 0.00123382 0.00276514 -0.00132200
C 5.66937354 16.41003350 12.17661981 0.00504249 0.00139815 -0.00568108
C -1.03194008 17.02959803 12.42342370 -0.00420851 0.00155608 -0.00012389
C -7.25102641 12.50247476 18.16721567 0.01102537 0.00184267 -0.00273663
C 0.87772853 11.55501749 12.59388607 0.00181170 -0.00191754 0.00388792
C 3.48543546 16.32140269 17.63877720 0.00378405 -0.00314553 0.00091144
C -2.95461860 17.24487568 17.67836887 0.00582224 -0.00518194 0.00659750
C -5.65147069 12.52827842 12.63261284 -0.00280371 0.00137382 0.00017429
C -0.15262249 12.40524378 12.28962544 -0.00107468 0.00271346 0.00232434
C -8.37753032 17.42919086 18.07763119 -0.00174198 -0.00337077 -0.00097285
C -1.86046920 16.42242487 18.14721977 0.00171397 0.00511675 -0.00202709
C 6.33524051 11.60734960 12.16465828 -0.00626772 -0.00278333 0.00327372
C -3.87439927 14.59797644 15.70606041 -0.00470096 0.00120892 0.00143101
C -4.31134514 9.98422794 14.95749713 -0.00305480 0.00276119 -0.00297169
C 2.38621016 13.94959986 14.61384902 -0.00096452 -0.00499771 -0.00002290
C 2.68672251 19.02655339 15.52961241 0.00832306 -0.00052481 -0.00079641
C -4.97420526 15.58301250 15.53306868 0.00785546 -0.00762290 -0.00196935
C -3.05414340 10.74131594 15.28780971 0.00291855 -0.00191578 0.00225123
C 3.62840120 13.13003659 14.52018939 -0.00389037 0.00720954 0.00350961
C 1.57470393 18.00287082 15.24894535 0.00206141 -0.00334254 -0.00406948
C -5.86678927 13.40512813 23.34753649 -0.00583391 0.00115621 0.00547675
C -8.57086880 18.20264909 19.24082130 0.00521301 0.00571060 0.00348303
C -1.95693796 15.60574023 19.30838610 -0.00377609 -0.00310489 -0.00946134
C 0.56912895 10.77954141 23.31517638 0.00321103 -0.00828967 -0.01181864
C -4.66572860 13.24786430 22.56985356 0.00247639 -0.00223221 0.00217569
C 3.23558115 17.94318111 19.90634337 -0.00129340 -0.00121034 -0.00176066
C -3.13232180 15.69856090 20.05484014 0.00556463 -0.00354833 0.00558028
C 28.14426326 11.17674305 22.62021497 -0.00772924 0.00093524 0.00616792
C -3.71011757 12.35969921 23.00665137 -0.00397900 -0.00131217 0.00062358
C 2.18455652 17.12875356 19.54730972 -0.00466823 0.00127040 0.00547302
C -4.16039679 16.53394692 19.62600062 -0.00861633 -0.00619776 -0.00041895
C -10.31381142 12.00594533 23.07184016 -0.01154054 0.00287760 -0.01088125
C -3.82812577 11.57504791 24.16035392 0.00508775 -0.00287587 0.00595952
C 2.29747797 16.26543048 18.38131360 -0.00641373 0.00447152 0.00122794
C -4.11720427 17.32314841 18.47450394 -0.00018022 -0.01080738 0.00067723
C -10.37220650 12.67404938 24.27161971 -0.00160996 -0.00124689 0.00276115
C -1.99434954 11.59553830 18.79899106 -0.00621304 0.00127364 -0.00061699
C 0.97703090 16.45487397 23.80833694 -0.00520705 -0.00362408 -0.00082482
C -5.84229772 17.40736185 23.76391293 -0.00243041 0.00326348 0.00514055
C -8.41773094 12.37070242 18.87401147 0.00341924 0.00567452 -0.00289211
C -2.91858485 12.54315151 18.47101835 -0.00214694 0.00204832 -0.00194324
C 0.58774044 17.45756675 0.03475835 0.00417363 -0.00561621 0.00172352
C -4.83976895 16.54996761 24.11128699 0.00705677 -0.00533490 0.00426243
C 3.54585119 11.50947078 18.43530457 0.00382912 -0.00325704 -0.00211194
C -7.26146908 14.71087161 21.75175927 0.00219318 0.00082553 -0.00021012
C -7.37384195 9.95260622 21.05826072 -0.00250792 0.00041789 -0.00699863
C -0.63130378 14.28769974 20.87310023 0.00047472 -0.00286414 0.00320181
C -0.56396506 19.19980990 21.84579693 -0.00198202 0.00920147 0.00073215
C -8.44413472 15.61992628 21.66867343 0.00361206 -0.00324511 -0.00290492
C -6.21071640 10.87129793 21.29543704 -0.00175663 -0.00155272 0.00866243
C 0.58056012 13.31671319 21.02766860 -0.00712694 0.00516168 0.00223784
C -1.65324655 18.22741476 21.92586427 -0.00148881 -0.00893906 0.00731005
C 3.24961306 23.24699036 4.98155880 0.00029938 -0.00179671 0.00160739
C 0.48287760 27.98813654 0.90407286 0.00001933 -0.00411158 0.00284407
C 6.99473881 25.26123343 0.91821163 -0.00180934 0.00843582 0.00470585
C 9.47447591 20.64882779 4.89915469 -0.00596265 -0.00038525 -0.00199301
C 4.47798566 23.07320442 4.34169900 0.00015715 -0.00666630 -0.00237150
C 12.38165048 27.73096911 1.80428363 0.00279734 -0.00051984 -0.00035630
C 5.75873315 25.36039937 1.62954397 0.00477491 -0.00012313 0.00398477
C -2.11778439 20.59798896 4.49054808 0.00206635 -0.00019800 -0.00768569
C 5.35882193 22.07746624 4.63912753 0.00529595 -0.00401770 0.00340811
C 11.41201620 26.86698043 1.43342015 0.00650732 0.00061514 0.00036561
C 4.73757846 26.21643515 1.23793126 -0.00231943 -0.00471965 0.00022984
C -1.19282406 21.54932920 4.97358838 -0.00358497 -0.00200124 -0.00036308
C 5.04877540 21.24282079 5.74508982 0.00069825 -0.00432078 0.00426213
C 11.53355979 26.07918992 0.27481125 0.00228681 -0.00202207 -0.00055219
C 4.88910349 26.94860881 0.00488357 -0.00842012 0.00450879 0.00853025
C -1.31889614 22.27802616 6.16771982 0.00108923 0.00385157 0.00053366
C 6.92548622 21.42731699 0.51957584 0.00030765 0.00435774 0.00271539
C 10.01425381 26.37772023 5.51222565 -0.00310463 -0.00328028 -0.00664487
C 3.58600226 27.04045584 5.46092170 -0.00034471 -0.00157219 -0.00393386
C 0.12516765 22.20240773 0.58981946 -0.00391456 -0.00308947 -0.00002002
C 5.94042594 22.25740820 0.08345793 -0.00679948 -0.00507053 -0.00000445
C -2.21605551 27.07897932 5.90521647 0.00838036 0.01351336 -0.00527909
C 4.57051614 26.18778316 5.98468250 0.00916126 0.00261419 -0.00656273
C 12.50493189 21.35816379 0.20990713 0.00247178 0.00024660 -0.00509533
C 2.00891046 24.57541751 3.30967868 0.00183653 0.00488726 -0.00366644
C 1.53770973 19.76912344 2.68011495 0.00090236 -0.00461261 -0.00116368
C 8.29562983 24.03061987 2.55005451 -0.00331266 -0.00448512 -0.00238253
C 8.65666151 28.74829141 3.48281844 -0.00278556 0.00248952 0.00237869
C 0.87522593 25.52671888 2.98268073 -0.00796639 0.00487393 -0.00160531
C 2.85960188 20.56701613 2.66220206 -0.00076063 -0.00480208 0.00027425
C 9.64831156 23.48732545 2.60806654 0.00092607 -0.00190264 -0.00072484
C 7.25003011 28.34197797 3.18463730 0.00572316 -0.01205295 0.00027365
C 0.20562326 23.21111947 11.17696428 -0.00839673 -0.00266057 0.00631512
C -2.48983822 27.88113782 6.99716255 0.00694302 -0.00525527 -0.00261136
C 4.20030022 25.36981590 7.02027136 -0.00110468 -0.00052096 -0.00212589
C 6.76852377 20.55594670 11.06927582 0.00356229 -0.00276215 -0.00029554
C 1.34764090 22.99155705 10.39324561 -0.00232452 -0.00407727 0.00295908
C 9.57439626 27.92079496 7.83192547 -0.00239596 0.00033970 0.00157207
C 2.98468426 25.52566166 7.68990142 -0.00527766 0.00238922 0.00481617
C -5.00881224 20.36718101 10.67031301 0.00648702 -0.00512993 -0.01244797
C 2.37380938 22.16161929 10.81423272 -0.00059461 -0.00002425 -0.00463609
C 8.57400162 27.03848833 7.35768549 -0.00097747 -0.00212663 -0.00354203
C 2.12791642 26.52172691 7.26287529 0.00594341 -0.00106805 0.00597486
C -3.96726723 21.11241709 11.10534392 -0.00390388 0.00220773 -0.00055643
C 2.10971591 21.22803640 11.90306279 0.00808934 -0.00294642 -0.00145903
C 8.74675120 26.26960073 6.13102851 0.00545065 -0.00945892 0.00290202
C 2.37703959 27.27906984 6.11191860 -0.00015397 -0.00321966 -0.00539664
C -4.14389127 22.18535079 12.11558170 -0.00506724 -0.00032540 -0.00206512
C 3.91116910 21.59449634 6.49665083 -0.00725842 -0.00694949 0.00035695
C 6.85977636 26.18592298 11.67074112 0.00369673 0.00179148 0.00257648
C 0.25014147 27.15881096 11.56279734 0.00689502 0.00115585 -0.00651254
C -2.51924291 22.10431266 6.86837270 0.00182342 -0.00232682 0.00396474
C 2.96163171 22.49909985 6.07588180 -0.00961766 -0.00771319 0.00118713
C -5.42577135 27.04659635 12.06179696 0.00129354 -0.00840669 0.00193798
C 1.24546261 26.29493556 11.95130968 0.00416453 -0.01112632 0.00526647
C 9.46079796 21.48174361 6.03469701 -0.00057317 0.00552973 0.00789951
C -0.90654461 24.51439637 9.60731473 0.00497964 -0.00017345 -0.00017754
C -1.17083868 19.47544782 8.89890126 0.00127659 -0.00564348 -0.00260402
C 5.34692270 23.98752931 8.62614547 0.00219803 0.00610887 0.00373819
C 5.46717955 28.67375991 9.77250662 -0.00004456 -0.00217948 -0.00107337
C -2.12345971 25.34327359 9.38918013 -0.00721141 0.00730969 -0.00251924
C -0.00539732 20.45724182 9.10851604 0.00230404 -0.00418373 -0.00255992
C 6.48721672 22.99801460 8.85423901 0.00495545 -0.00274596 0.00135283
C 4.34862664 27.71602342 9.71370747 0.00452275 0.00644089 0.00347981
C -2.85409755 23.13276412 17.30615295 0.00069856 0.00993229 -0.00271800
C -5.54854333 27.93176611 13.17189134 -0.00201280 -0.00318340 -0.00009966
C 1.12298862 25.43396957 13.11804548 -0.00359634 -0.00074099 -0.00185363
C 3.67562384 20.42267463 17.22845096 0.00449920 -0.00418543 -0.00021556
C -1.59049335 23.07747322 16.64927507 -0.00249353 0.00071207 -0.00347036
C 6.39668354 27.85271750 13.84583140 -0.00091352 0.00353466 0.00160607
C -0.01563398 25.57619791 13.88046648 -0.00235704 -0.00562865 0.00419762
C 31.22666603 20.59318823 16.61766571 0.00368747 -0.00541970 0.00778735
C -0.71040624 22.10303918 16.90931269 -0.00469927 -0.00545825 -0.00485163
C 5.52732950 26.80389702 13.49141481 -0.00172381 -0.00358450 0.00424359
C -1.03680695 26.43003340 13.44789596 -0.00340835 -0.00009998 -0.00482278
C -7.35562632 21.55577684 16.99286010 0.00590600 0.00176264 0.00245721
C -1.00619551 21.18726382 17.98206130 0.00309432 -0.00210819 0.00253185
C 5.68509721 26.01159168 12.36312466 0.00844103 0.00219442 0.00266009
C -0.94230057 27.25197034 12.29056712 -0.00335763 0.00651275 -0.00577475
C -7.54129047 22.31797732 18.09991312 0.00431495 0.00142830 0.00020179
C 0.97832282 21.48277210 12.66815947 -0.00195951 0.00926565 0.00493235
C 3.84666624 26.12209002 17.89183278 -0.00682516 -0.00839241 0.00092684
C -2.81026020 26.94422010 17.65987516 -0.01325121 -0.00666304 -0.00026004
C -5.42114855 22.22583376 12.68232294 -0.00784961 0.00702275 0.00178585
C 0.07260277 22.49230930 12.38295588 0.00130286 -0.00164791 0.00339976
C -8.41677377 27.14805054 18.03592164 -0.00035287 0.00259660 0.00458912
C -1.83135346 26.17541275 18.20273509 0.00142356 -0.01017067 0.00059922
C 6.56701581 21.41995616 12.13603070 0.00626842 0.00087949 -0.00012213
C -4.17612050 24.44686473 15.64071108 -0.00264185 0.00044577 -0.00549834
C -4.50113363 19.76569770 14.85010719 0.00703724 -0.00146663 -0.00147841
C 2.34815413 24.11433606 14.67509988 0.00138319 -0.00535613 0.00191837
C 2.64012261 28.62772593 15.76476364 0.00270599 -0.00304050 0.00040928
C -5.26285452 25.37891848 15.39140804 -0.00922959 -0.00057444 0.00250600
C -3.35278874 20.69721065 15.02328880 -0.00413206 0.00173924 0.00136910
C 3.57785719 23.30784644 14.87545744 0.00302068 -0.00005061 0.00476956
C 1.22172536 28.04840423 15.62847931 -0.00391685 0.00692439 -0.00094610
C -5.93888240 23.07531100 23.35976245 -0.00855303 -0.00383526 0.00021559
C -8.57157810 27.83585181 19.22801828 -0.00066062 -0.00605288 -0.00162330
C -2.13440261 25.37646660 19.28242658 -0.00344203 0.00429192 -0.00626914
C 0.71831290 20.66245713 23.40163427 -0.00904332 0.00162156 -0.00421346
C -4.71272460 23.06413587 22.66384494 0.00575333 -0.00016084 0.00054554
C 3.27350910 27.81863837 20.00212173 -0.00005541 0.00099629 -0.00326766
C -3.38882322 25.34196732 19.77639170 -0.00058560 -0.00050695 -0.00109209
C 27.99768681 20.31198594 22.90524738 0.00013431 -0.00076729 0.00605601
C -3.81048059 22.01417321 23.02382800 0.00163361 -0.01350078 -0.00618495
C 2.35621748 26.82418277 19.76414873 0.00187000 -0.00465212 -0.00714819
C -4.38993419 26.19937630 19.33889269 -0.00337241 -0.00698916 0.00763011
C -10.47876167 21.26279774 23.12108027 0.00018179 0.00102522 0.00324424
C -3.89251655 21.29674983 24.17465241 0.00270966 0.00276543 -0.00502899
C 2.62936862 25.98010917 18.67547069 -0.00381426 -0.00393053 0.00283561
C -4.06491954 26.95280369 18.22584263 0.00202727 0.00488440 0.00264548
C -10.67570348 22.19098936 24.19913850 0.00930362 -0.00804126 -0.00134406
C -2.14559861 21.29082232 18.71327028 -0.00546446 -0.00141517 -0.00238498
C 0.75213788 26.03878469 24.00246092 -0.00506927 -0.00271859 -0.00324786
C -5.91734795 26.75446394 23.63370135 -0.00237808 -0.00780487 0.00065031
C -8.69053741 22.13525902 18.89343882 -0.00129645 -0.00232241 -0.00709394
C -3.08394981 22.17396105 18.30447639 0.00064729 -0.00457214 0.00373959
C -11.41013516 27.10452141 24.22557037 0.00728759 0.00470288 -0.00407709
C -4.84955910 26.06556684 24.17161843 -0.00827127 -0.00526405 -0.00120834
C 3.47472244 21.29146662 18.32886322 -0.00037432 0.00449014 0.00446229
C -7.10334073 24.51377951 21.77771729 0.00425916 -0.00159257 -0.00103142
C -7.45622583 19.66295900 20.78918123 0.00590259 -0.00111415 0.00569831
C -0.90866292 24.02680258 20.97684333 -0.00508253 0.00788314 0.00076913
C -0.66220071 28.76454815 22.02388586 0.00140826 -0.00199728 -0.00405284
C -8.39599844 25.24645359 21.65099023 0.00185990 0.00104162 0.00448451
C -6.27078908 20.53900564 20.93327291 0.00506822 0.00430150 0.00577006
C 0.17031922 23.01097421 21.13171117 0.00277023 0.00412287 -0.00074224
C -1.73410629 27.72710773 21.90328225 0.00447665 0.00037208 0.00715212
C 16.48683227 3.56611505 5.21263445 0.00353486 0.00262769 -0.01142839
C 13.42361523 8.58351314 0.89013076 -0.00166436 -0.00220155 -0.00021880
C 20.11026682 5.95114910 0.85706496 -0.00432492 -0.00610207 -0.00578596
C 23.13636957 1.26614360 5.17776914 -0.00099756 0.00044636 0.00005637
C 17.66536408 3.50705733 4.52590336 -0.00267098 0.00139721 0.00092891
C 25.56825500 8.57366944 1.62228954 0.00154844 0.00265859 -0.00518943
C 18.90532348 6.10488230 1.60040882 -0.00482032 -0.00037953 0.00781564
C 11.17142948 1.22627782 4.36233915 0.00621573 0.00183359 -0.00543466
C 18.70440263 2.71960060 4.95222098 0.01247922 0.00507121 -0.00188028
C 24.51924586 7.76728720 1.26069124 -0.00133058 0.00094048 0.00392970
C 18.05224332 7.12845375 1.23367964 0.00628740 0.00148340 0.00117713
C 12.08117742 2.16414676 4.79951363 0.00969639 0.00371669 0.00618460
C 18.61090508 1.89101617 6.10809989 -0.00813613 0.00342628 0.00191118
C 24.57555408 7.05362664 0.02549990 -0.00293783 -0.00620850 0.00027529
C 18.35197069 8.00642152 0.16659331 0.00239828 0.00091962 -0.00102200
C 11.90935887 2.80591134 6.03592325 0.00317316 0.00166430 -0.00344384
C 19.82035074 1.89838767 0.58081534 -0.01032160 0.00359104 0.00489511
C 22.93014405 6.92641976 5.59677178 -0.00446593 -0.00036727 0.00509046
C 16.31538128 7.61553631 5.56531109 0.00160074 -0.00577561 0.00168968
C 13.60532099 2.70526161 0.68815559 0.00083579 0.00430750 0.00009315
C 18.93744709 2.82993761 0.09706092 -0.00150416 0.00174007 0.00274092
C 10.72715411 7.63828552 5.99183052 -0.00001548 -0.00506639 -0.00182670
C 17.26699289 6.65489481 5.85885359 -0.00306742 -0.00531235 0.00236959
C 25.49349473 1.79677806 0.09505428 0.00483478 0.00534696 -0.00490975
C 15.36690347 4.89354216 3.54147898 0.00007346 0.00625655 0.00264927
C 14.69123275 0.26612319 2.59834193 -0.00317108 -0.00284343 -0.00362328
C 21.33299806 4.66913128 2.47769590 -0.00126164 -0.00404027 -0.00577179
C 21.57369683 9.48249595 3.51661802 -0.00734842 -0.00004361 -0.00168067
C 14.25506280 5.95270056 3.28463257 -0.00337364 0.00472647 -0.00200432
C 15.92805838 1.08102232 2.80591687 0.00336998 -0.00070358 0.01401724