2880
Time=36000.00000001 pbc="T T T" Lattice="39.65205409 0.00000000 0.00000000 0.00000000 28.98932351 0.00000000 -12.03051448 0.00000000 24.41191253" energy=-18399.08006048 virial="-16.52919138 23.37609580 -70.60025501 23.37609580 7.93285387 31.24349775 -70.60025501 31.24349775 -5.08024772" stress="0.00180741 0.00087339 -0.00245054 0.00087339 0.00280300 0.00109218 -0.00245054 0.00109218 0.00233910" Properties=species:S:1:pos:R:3:vel:R:3
C 3.25259781 3.60387137 5.04017562 -0.00002910 -0.00181935 0.00009902
C 0.41762737 8.68221157 1.19804304 0.00198015 -0.00345357 -0.00590226
C 7.09603441 5.72359120 0.84344788 0.00193434 0.00001838 -0.00140043
C 9.97113190 1.15813402 5.02011978 0.00108444 -0.00149789 -0.00045512
C 4.49352770 3.50209486 4.36313904 0.00477037 -0.00123736 -0.00077061
C 12.60309495 8.39081259 1.62502959 0.00461391 -0.00380775 -0.00695808
C 5.85303280 5.80545446 1.50299041 0.00486289 -0.00563457 0.00332421
C 37.40830074 1.27181387 4.23610489 0.00403684 -0.00250276 -0.00246473
C 5.49245454 2.68148296 4.84149236 0.00261159 -0.00299352 0.00426078
C 11.66690578 7.49567550 1.26638694 -0.00293749 -0.00800452 -0.00610135
C 4.86910111 6.66497871 1.10753322 0.00223194 0.00279915 -0.00907795
C -1.25961017 2.20981005 4.62898997 -0.00090135 0.00356409 0.00242902
C 5.31641679 1.74122475 5.88785304 -0.00180428 0.00418461 0.00682619
C 11.74479156 6.76032151 0.06939177 0.00233691 -0.00854237 -0.01021819
C -7.01746829 7.47377991 24.36876561 0.00829066 -0.00153059 0.00245761
C -1.46492293 3.04016538 5.70019525 -0.00011908 0.00065218 -0.00400439
C 6.99834957 1.92730908 0.50913171 0.00484719 0.00884061 -0.00170114
C 9.86057856 6.75985244 5.70824665 -0.00340367 -0.00252772 0.00051519
C 3.17218981 7.56448727 5.51057917 -0.01157969 0.00590240 0.00094346
C 0.54388301 2.76622741 0.45256089 0.00361255 0.00447721 0.00556824
C 5.92830271 2.74306458 0.08276504 -0.00789279 -0.00148894 0.00322038
C -2.39978748 8.04347780 5.79547857 0.00674942 -0.00019198 0.00406326
C 4.17671773 6.68431736 5.93451046 0.00385076 0.00773204 -0.00527008
C 12.59524575 1.85617584 0.04403084 -0.00237838 0.00158328 -0.00730774
C 2.09949125 4.98756708 3.46157326 0.00461067 -0.00194321 0.00689078
C 1.69090616 0.20793674 2.65400633 0.00008340 -0.00432292 0.00382930
C 8.35865204 4.44221173 2.47129558 0.00150417 -0.00288445 -0.00112435
C 8.64685785 9.27705443 3.38164630 -0.00022246 -0.00413884 -0.00210570
C 1.07417538 6.00953333 3.18064997 -0.00079397 0.00852563 0.00050579
C 2.77933055 1.17716672 2.67783936 0.00771481 -0.00401170 -0.00529075
C 9.52538256 3.50898843 2.69704046 0.00158843 -0.00078298 -0.00017447
C 7.31256289 8.56793255 3.31945986 -0.00085008 0.00446252 0.00695682
C 0.24729685 3.75986999 11.23147450 0.00059617 -0.00727778 0.00100615
C -2.67960816 8.71459746 7.04166654 0.00685843 -0.00701669 -0.00401134
C 3.95995378 5.91441785 7.06500185 0.00161904 -0.00241472 0.01092110
C 6.80369590 1.15585397 11.28707486 0.00158683 -0.00097073 0.00101619
C 1.51083192 3.64156543 10.58978781 0.00210538 -0.00312645 0.00138788
C 9.35029296 8.46994624 7.82268191 -0.00047857 -0.00151015 -0.00014140
C 2.75784860 5.93267640 7.75757811 -0.00242208 0.00234674 -0.00016557
C 34.24790806 1.23104246 10.48632371 -0.00464526 -0.00050062 0.00128256
C 2.53193304 2.84617386 11.12184185 -0.00209617 0.00857970 0.00939671
C 8.34087220 7.59908686 7.41569571 0.00083993 0.00221282 -0.00610241
C 1.76293876 6.75129711 7.18363760 0.00619270 -0.00003906 -0.00047343
C -4.44607886 2.13616760 10.90082436 -0.00238513 0.00768468 0.00304083
C 2.25522990 1.95726802 12.17611906 -0.00465510 0.00018991 -0.00442255
C 8.59687274 6.65652579 6.33763335 0.00330241 0.00296866 0.00217387
C 1.93544476 7.57573704 6.10355740 0.00964946 0.01113442 -0.00242293
C -4.57723537 2.97804062 11.96507348 0.00932437 0.00523137 0.00107768
C 4.00390325 1.72067987 6.35954701 0.00093715 0.00716378 0.00169315
C 7.01319003 6.97196238 11.60898090 -0.00070672 -0.00253196 0.00691542
C 0.42947699 7.53380949 11.72818633 0.00235236 0.00184009 -0.00301765
C -2.67476774 2.89480129 6.48584281 0.00893924 0.00311468 0.00515716
C 2.98977437 2.60149537 5.92508990 0.00347313 -0.00783507 -0.00467724
C -5.48266495 7.72926074 12.12031529 0.00584899 0.02137876 -0.00574922
C 1.49853790 6.69278697 12.07255935 -0.00512165 -0.00267789 -0.00709140
C 9.77595315 2.11982195 5.98437741 0.00466026 0.00171818 -0.00628419
C -0.85916943 5.09505380 9.51002169 0.00075764 -0.00228092 -0.00317120
C -1.55571513 0.20583566 8.73029115 0.00411359 -0.00293451 -0.00745262
C 5.25220513 4.63607180 8.73209018 -0.00640802 0.00109967 0.00075951
C 5.69998425 9.38142483 9.69512077 0.00008652 -0.00425936 -0.00722473
C -2.04890509 6.02592343 9.31767987 0.00572322 -0.00092384 -0.00151075
C -0.40304377 1.13249031 8.98630754 0.00150720 -0.00090951 -0.00226151
C 6.52778792 3.91956813 8.95143754 0.00209244 0.00622275 0.00559433
C 4.41799087 8.83133381 9.21146958 0.00318638 -0.00263032 -0.00055964
C -2.64476533 3.91399418 17.33783968 -0.00356498 0.00116977 0.00025686
C -5.66550811 8.53755185 13.20180881 -0.00073491 -0.00573863 -0.00475031
C 1.34018827 5.91410577 13.17346170 -0.00542683 0.00137275 -0.00417703
C 3.93004278 1.09611446 17.34236777 0.00087674 -0.00546633 0.00747197
C -1.47957761 3.81876400 16.64246147 -0.00575523 0.00235608 0.00810323
C 6.67246837 8.48775442 13.81823248 0.00188280 -0.01449563 -0.00397995
C 0.15261548 5.95003436 13.90989684 0.00173055 -0.00657095 0.00415249
C 31.43099683 1.04960089 16.63292235 0.00579451 0.00394945 -0.00563676
C -0.47095265 2.90664709 17.09127117 -0.00050901 -0.00062791 -0.00117455
C 5.63649287 7.65206140 13.44913425 0.00293648 0.00470862 -0.00022333
C -0.85852197 6.87548849 13.65425394 0.00008061 -0.00202622 0.00291421
C -7.27537607 1.88432276 17.04934262 0.01081835 0.00300553 0.00712924
C -0.77062958 2.01824497 18.12841609 -0.00501804 0.00269461 -0.00000202
C 5.84353786 6.79683059 12.32982502 0.00427219 0.00456543 -0.00299508
C -0.73646676 7.64956653 12.46013996 0.00337572 0.00327791 -0.00097333
C -7.47806290 2.66685135 18.23453522 0.00072740 0.00084898 -0.00092045
C 0.95678317 2.13941488 12.75395429 -0.00135567 -0.00076476 -0.00403418
C 3.97711300 6.97521046 17.82511475 -0.00279310 -0.00289817 -0.00184809
C -2.77565200 7.50239449 17.69002072 0.00234446 0.00134122 -0.00547405
C -5.77283481 2.86537422 12.73659288 0.00370910 -0.00348962 -0.00438429
C -0.01989413 2.98133475 12.36496391 -0.01375254 -0.00499221 0.00000387
C -8.59879185 7.33451296 18.18413158 -0.00057695 0.00954942 -0.00106239
C -1.77643836 6.71748148 18.20815958 -0.00556452 0.00191669 0.00225686
C 6.59215817 1.93147560 12.41366800 0.00176211 0.00214015 -0.00633452
C -3.97538292 5.23038724 15.71655047 -0.00426693 -0.00165798 -0.00509394
C -4.38752080 0.30891815 14.60441703 -0.00540610 -0.00568636 -0.00611577
C 2.57978267 4.49123460 14.72834128 0.00240401 -0.00912201 -0.00769497
C 2.54072222 9.41156763 15.87329312 0.00223897 0.00099339 0.00144376
C -4.95390894 6.28046501 15.50836069 -0.00525867 0.01468806 0.00038278
C -3.13984322 1.16081971 14.66734996 -0.00092338 -0.00540414 0.00013940
C 3.88623939 3.70496088 14.85339957 -0.00648812 -0.00017543 -0.00031014
C 1.34419642 8.50674497 15.58236430 0.00026945 -0.00127371 -0.00223075
C -5.88999413 3.65335579 23.39547567 0.00723221 0.00136506 0.00511611
C -8.78461864 8.16526442 19.31419826 0.00821963 -0.00092710 0.00791494
C -1.86383142 6.02436047 19.42745368 -0.00040451 -0.00740187 -0.00185737
C 0.72374981 0.96791566 23.38040055 0.00041829 -0.00292335 0.00358334
C -4.66036625 3.57938141 22.73361329 -0.00705015 -0.00341197 0.00204472
C 3.47512268 8.46022207 20.11233165 -0.00854395 -0.00020185 -0.00455204
C -3.09175945 6.18825529 20.10409458 -0.00837034 -0.00584226 -0.00373689
C -11.05883914 0.95414345 22.76433185 -0.00228605 -0.00073410 -0.00355403
C -3.63201339 2.79314541 23.15930814 -0.00994882 -0.00473382 0.00171137
C 2.60785376 7.45146509 19.74378842 0.00214680 -0.00419316 -0.00640777
C -4.08085379 7.01726913 19.60473485 0.00348647 -0.00062135 -0.00041203
C -10.04240412 1.77663713 23.17533339 0.00115538 -0.00287663 0.00434484
C -3.76211350 1.91247529 24.25591968 -0.00183521 -0.00093755 -0.00102987
C 2.82952938 6.71945512 18.56496421 0.00177164 0.00149316 -0.00311774
C -4.00852706 7.65222731 18.34639457 -0.00410921 -0.00066376 -0.00353712
C -10.21264129 2.67320221 24.23082664 0.00504487 -0.00534892 -0.00011295
C -2.06525184 2.00293175 18.67114828 0.00451174 -0.00354333 0.00379695
C 0.96357627 6.82674390 23.84330392 0.00056305 0.01146858 -0.00729874
C -5.76991738 7.43009075 23.73632002 -0.00492318 0.00000447 0.00637476
C -8.71905696 2.63958613 18.88920396 -0.00551592 -0.00063470 -0.00629184
C -2.97642058 3.00573915 18.34935653 -0.00028846 -0.00133472 -0.00402986
C 0.65001574 7.76841897 0.21964058 0.00235865 -0.00033160 0.00290253
C -4.72630297 6.64044855 24.16106276 0.00163062 0.00648411 0.00220029
C 3.59440608 1.92933126 18.41777598 -0.00031662 -0.00309037 -0.00073867
C -6.93746758 5.11262888 21.78573441 -0.00161968 -0.00270942 0.00142480
C -7.10391246 0.12240090 20.88653945 0.00777782 0.00439173 0.00154776
C -0.58674062 4.57880771 21.01573337 -0.00041302 0.00275585 -0.00863540
C -0.44773950 9.41541680 21.84522808 -0.00072318 -0.00279295 0.00044961
C -8.04185075 6.00711227 21.52289410 0.00277096 0.00397033 0.00145659
C -5.93023338 1.02794572 20.92724209 0.00013494 0.00119662 0.00329225
C 0.64301779 3.80670703 21.08081852 -0.00880081 -0.00240118 0.00187545
C -1.58913978 8.49539815 21.63505649 0.00530989 0.00483612 0.00802629
C 3.22929864 13.22607901 5.00927070 -0.00408598 0.00370876 -0.00616393
C 0.30787233 18.03673964 0.89458058 -0.00310163 -0.01019206 -0.00682625
C 6.97239947 15.49449299 1.01714644 -0.00682200 0.00162342 -0.00412991
C 9.82821618 10.66927758 4.97398498 -0.00590312 -0.00635495 -0.00609820
C 4.51258547 13.24110031 4.36860376 -0.00227122 -0.00308643 -0.00770192
C 12.47780008 18.00784663 1.67226308 0.00522947 0.00233923 0.00018450
C 5.78117964 15.62499883 1.73244613 0.00605404 -0.00322074 0.00172569
C -2.10384578 11.23037474 4.31271458 -0.00559314 0.00063877 0.01061697
C 5.52735804 12.44800982 4.80871809 0.00471839 0.00077257 -0.00510848
C 11.50093527 17.11176493 1.17465208 -0.00424666 -0.00343739 0.00807446
C 4.82836882 16.52622211 1.31893599 -0.00567211 -0.00022322 -0.00449763
C -1.13531084 12.15474752 4.69916640 0.00537146 0.00580259 -0.00608019
C 5.37321654 11.66793183 5.94054137 -0.01218973 0.00096804 0.00090274
C 11.78238276 16.26040158 0.08204825 -0.00079250 -0.00368327 -0.00587926
C 4.93573588 17.24623023 0.07486648 -0.00429238 0.00970384 0.00011822
C -1.18430861 12.86484768 5.97607220 -0.00004732 -0.00448972 0.00167907
C 6.97434790 11.38745787 0.34635599 0.00517186 -0.00256500 -0.00052121
C 9.95303346 16.36183965 5.64612645 -0.00538965 0.00716326 0.00827436
C 2.98882729 17.23477087 5.28733864 -0.00777295 -0.00639243 0.00554634
C 0.35938481 12.47799863 0.36115118 0.01017141 -0.00122821 0.00350580
C -6.04796471 12.22054008 24.38920719 -0.00278286 0.00000440 -0.00120057
C -2.41451870 17.08131942 6.13009197 0.00322705 -0.00017858 0.00586670
C 3.99550765 16.40364836 5.76401773 0.00524704 0.00130782 0.00187975
C 12.57893815 11.48312333 0.14284196 -0.00107763 -0.00235912 0.00741852
C 2.11227313 14.65140027 3.37573759 0.00258928 -0.00838014 -0.00486330
C 1.70635404 10.13466581 2.63249644 0.00470049 0.00037319 -0.00301476
C 8.28056926 14.10655838 2.51102249 -0.00251756 -0.00534135 0.00352412
C 8.76600802 18.93637185 3.58609161 -0.00371955 -0.00264837 0.00056627
C 0.97529096 15.49466410 3.14814358 0.01209289 -0.00179997 0.00097669
C 2.91444401 10.92621193 2.77642484 -0.00366870 0.00571966 -0.00374296
C 9.51736313 13.31138806 2.62321264 0.00045516 0.00150165 0.00245481
C 7.70649827 17.87396220 3.49692292 -0.00030651 -0.00042800 -0.00427864
C 0.13932163 13.28050847 11.06783683 0.00362350 -0.00701501 0.00804104
C -2.58883476 18.13818707 7.01790987 -0.00430950 0.00631317 -0.00143059
C 3.81443156 15.64200093 6.86260685 -0.00343027 0.00446236 0.00302682
C 6.89903429 10.76415192 11.25140944 -0.00016278 -0.00283405 0.00394589
C 1.32866222 13.10585795 10.28996444 0.00286629 -0.00445411 0.00739501
C 9.40896387 17.96790276 7.85546377 0.00780410 -0.00580693 -0.00423506
C 2.52857539 15.72357849 7.48547609 -0.00308413 -0.00296567 0.00375301
C 34.41890028 10.72733872 10.58151288 -0.00925146 0.00129305 0.00284377
C 2.25079334 12.26059126 10.83768231 0.00200673 0.00503468 -0.00737370
C 8.47706454 17.02059361 7.37939815 0.00382181 -0.00324422 0.00211365
C 1.55824278 16.56395141 7.11041946 -0.00357375 0.00190765 -0.00647427
C -4.23953950 11.63623076 10.99787007 0.00184150 -0.00317949 0.00479885
C 2.04363629 11.43410915 11.90243696 0.00358749 0.00190629 0.00428255
C 8.69699018 16.28385154 6.18645254 0.00416376 -0.00080778 0.00432195
C 1.78392012 17.34906306 5.96428661 0.00082797 0.00534391 0.00200255
C -4.45368405 12.46515024 12.11602441 0.00159643 -0.00205398 -0.00060339
C 4.13416663 11.69440657 6.60146799 -0.00446852 -0.00084913 -0.00915868
C 6.79654933 16.36258768 11.61537811 0.00301431 0.00157483 -0.00425064
C 0.21457223 17.35243295 11.60806058 0.00062034 0.00044419 0.00839057
C -2.32532197 12.64908051 6.70565213 0.00196413 0.00602344 -0.00408196
C 3.05713057 12.46599664 6.17505097 0.00656224 0.00637179 -0.00181274
C -5.58867585 17.43633858 12.04375898 0.00383939 -0.00373445 -0.00013372
C 1.16419867 16.41966529 12.01307460 0.00047230 -0.00553812 0.00061872
C 9.56547109 11.41662356 6.11135822 0.00096217 0.00015492 -0.00494808
C -1.14220954 14.85297111 9.60905641 0.00303046 0.00464428 -0.00137531
C -1.46743603 9.79387464 8.74285613 0.00071103 0.00469516 0.00004400
C 5.02367148 14.27080500 8.50597437 -0.00605018 -0.00080483 0.00063010
C 5.51291679 18.89089887 9.69911251 0.00289204 0.01396403 -0.00387808
C -2.45802680 15.59953684 9.50611462 0.00214083 -0.00227765 0.00206459
C -0.24855296 10.56094478 8.97820560 0.00666701 -0.00053550 0.00523959
C 6.17680930 13.38077197 8.70501600 0.00461199 -0.00187837 -0.00128165
C 4.34027328 17.90494770 9.62793123 0.00229627 -0.00486263 -0.00877189
C -2.94406654 13.14052520 17.27916801 0.00066159 -0.00000481 0.00338636
C -5.81768507 18.25590458 13.17945377 -0.01272673 -0.00175568 -0.00784721
C 0.88549850 15.59959102 13.07040256 -0.00518690 0.00052870 -0.00386153
C 3.61503610 10.80865554 17.54295944 -0.00381263 -0.00486402 0.00064946
C -1.83186853 12.93693127 16.42513728 -0.00125753 -0.00079864 -0.00073138
C 6.34051346 17.90335371 13.80826889 -0.00289488 0.00487894 -0.00510399
C -0.31588293 15.62310847 13.78412406 -0.00477442 0.00038174 0.00442013
C 31.39528423 10.75992174 16.65330073 -0.00365620 -0.00838124 0.00578660
C -0.86372956 11.97174052 16.73006667 -0.00276975 -0.00493003 0.00952120
C 5.36910944 17.04430569 13.37733777 0.00668735 -0.00497938 -0.00157037
C -1.29537199 16.54664773 13.36023036 -0.00633832 -0.00127912 -0.00509972
C -7.21409003 11.52308999 17.18768560 -0.00375674 -0.00389083 0.00031800
C -1.07514632 11.26327989 17.94631352 -0.00048850 -0.00027049 -0.00176510
C 5.63686602 16.12811000 12.38787117 0.00246259 0.00519055 0.00523605
C -1.00066941 17.44973053 12.32504349 -0.00487570 0.00215415 0.00731338
C -7.50161892 12.49381868 18.17126194 0.00037988 0.00707199 0.01088340
C 0.87320197 11.53656941 12.64112774 -0.00628143 -0.01026312 -0.00245557
C 3.85435082 16.34475375 17.85763189 0.00334934 0.00197863 0.00372272
C -2.70680338 17.30751714 17.84618016 -0.00208588 -0.00185467 0.00094737
C -5.75517029 12.41811583 12.78046006 0.00125691 -0.00230126 0.00076631
C -0.03780536 12.49486007 12.25319101 0.00016379 -0.00680122 -0.00179316
C -8.49944143 17.48294625 18.22055114 0.00393903 -0.00740003 0.00085558
C -1.74857303 16.35869094 18.12178173 0.00258154 -0.00198905 0.00139606
C 6.74054442 11.51863306 12.41890669 -0.01115662 0.00139487 -0.00460652
C -4.01875449 14.66834765 15.75375709 0.00279377 0.00435488 0.00016980
C -4.60838239 9.94985333 14.75700471 -0.00360821 -0.00181053 0.00170678
C 1.90779035 14.10482504 14.71701274 -0.00268999 -0.00095692 -0.00214621
C 2.44340818 18.94702081 15.66023401 -0.00195532 0.00306550 -0.00892966
C -5.20528477 15.62652203 15.66787483 -0.00268201 -0.00825257 -0.00658358
C -3.53204512 10.92064942 14.93406760 0.00224004 0.00223972 0.00021009
C 3.08054883 13.15898238 14.97654515 -0.00465813 0.00358090 -0.00434608
C 1.15155393 18.07549486 15.55125509 0.00444759 0.00246754 -0.00115326
C -5.84120347 13.19585210 23.39694916 0.00311231 -0.00445325 -0.00086362
C -8.68596962 18.34492491 19.28757151 0.00077276 0.00426323 -0.00007154
C -1.96064351 15.44063729 19.16640985 0.00195914 -0.00019949 -0.00338684
C 0.79062403 10.70076387 23.43939015 0.00006620 0.00520263 0.00226297
C -4.67411188 13.17311956 22.63117830 0.00797238 0.00494070 -0.00957814
C 3.30573833 17.90595049 20.02836638 -0.00006587 0.00290411 -0.00419981
C -3.09716490 15.51558176 19.97148891 -0.00895640 0.00164070 -0.00305379
C 28.42703128 10.89166868 22.58302425 -0.00317599 0.00678779 -0.00899201
C -3.64710548 12.26289202 22.96639050 0.00945537 0.00002616 -0.00385054
C 2.34867504 17.00008265 19.56900155 0.00207771 0.00078105 -0.00664899
C -4.12894728 16.37658821 19.60516274 0.00631426 -0.00802641 0.00189287
C -10.26357169 11.82945878 22.92249147 -0.00035015 -0.00009102 -0.00716222
C -3.84835182 11.37862809 24.02342916 0.00050769 0.00546320 0.00128738
C 2.58981219 16.27050735 18.37390992 0.00438355 -0.00507977 -0.00794422
C -3.89513016 17.28355989 18.53639730 -0.00176329 0.00216497 -0.00255712
C -10.46828936 12.58979315 24.10249504 -0.00691645 0.00398936 0.00054953
C -2.18295238 11.39260700 18.77146364 -0.00634771 -0.00144546 -0.00258533
C 0.96993382 16.50802289 23.84611621 0.00667306 -0.00012797 -0.00321555
C -5.83865207 17.16288535 23.80900033 0.00067650 -0.00144064 0.00137602
C -8.64818956 12.39253294 18.92862744 0.00139325 -0.00129157 -0.00016357
C -3.11960725 12.35794316 18.40362731 0.00412750 0.00322119 -0.00189826
C -11.60357134 17.23707830 24.12486673 0.00160554 0.00006079 0.00238966
C -4.89806664 16.22656399 24.22667087 0.00578017 -0.00025144 0.00270645
C 3.48868044 11.62787569 18.69044344 0.00270968 0.00014480 -0.00032588
C -7.09752599 14.73407544 21.98320904 -0.00493908 0.00674939 -0.00464245
C -7.79454369 9.83991267 20.76256374 -0.00113252 -0.00524867 0.00193164
C -0.59669515 14.13858895 20.68059170 -0.00136588 0.00854356 -0.00037807
C -0.14697337 18.91409766 21.63147747 -0.00092130 0.00022279 -0.00454264
C -8.13828199 15.77387821 21.96283597 -0.00418448 0.00475037 0.00287028
C -6.69615362 10.96456873 20.88567759 -0.00006899 0.00362921 0.00401790
C 0.69501522 13.36897671 20.75236639 0.00749960 -0.00126786 -0.00179303
C -1.31773534 18.02000661 21.66917637 0.00035526 0.00084057 0.00112822
C 3.45750314 22.93657379 5.15534495 -0.00982983 0.00094018 0.00195501
C 0.50114553 27.81714066 1.01740317 0.00250258 0.00160333 0.00282636
C 7.01875859 24.98093125 0.97528232 0.00272595 -0.01150665 -0.00467798
C 10.00702837 20.35258024 5.16068265 0.00604124 -0.00082835 0.00149699
C 4.65823806 22.92691426 4.49637791 0.00920335 -0.00031630 -0.00130541
C 12.53135144 27.75404267 1.75477312 -0.00881959 -0.00252823 -0.00113104
C 5.73302893 25.04733882 1.55798333 0.00660501 0.00706224 0.00685206
C -2.07630877 20.56521579 4.36962205 -0.00133469 0.00017384 -0.00040253
C 5.62384189 22.05075774 4.88530826 -0.00269314 0.01082763 -0.00297779
C 11.50113174 26.87628816 1.41769778 -0.00514545 -0.00132139 -0.00109438
C 4.78592191 25.93694555 1.08151920 0.00035831 0.00034850 0.00369030
C -1.11143196 21.41282164 4.86293950 0.00271183 -0.00377314 -0.00220674
C 5.49713422 21.15346169 5.92689356 0.00775228 0.00018856 0.00532415
C 11.68039251 25.98144266 0.27798727 -0.00251769 0.00067023 -0.00274195
C 4.97103381 26.81013115 0.00190135 0.00231239 0.00074056 -0.00655196
C -1.31335651 22.19379013 5.99722390 -0.00362767 0.00030308 -0.00243490
C 7.21013052 21.19206461 0.48486510 0.00385493 -0.00560939 -0.00518317
C 9.97449909 26.41795029 5.53601009 -0.00964990 -0.00330475 0.00347761
C 3.13196818 27.05712559 5.68608963 -0.00356149 -0.00758705 0.00303303
C 0.53594510 22.10086373 0.49024748 0.00239966 -0.00288142 -0.00735016
C -5.85936900 21.85723466 24.36444678 -0.00299991 0.00074405 -0.00257257
C -2.48258956 27.07203982 5.88675990 0.00130964 0.00029009 -0.00437456
C 4.17645957 26.20469554 6.03856093 -0.00444004 -0.00373760 0.00022595
C 0.72093704 21.25880618 24.20705301 0.00256015 0.00841712 -0.00204392
C 2.24649531 24.23816905 3.49916114 -0.01379163 0.00143197 -0.00162150
C 1.63943487 19.45720897 2.34562793 -0.00043476 -0.00092341 0.00051779
C 8.26754776 23.66423358 2.58481983 0.00033647 0.01102281 0.00777867
C 8.83814517 28.61010028 3.53886163 0.00404578 -0.00356484 0.00246931
C 1.02506940 25.08224117 3.38534295 -0.00873211 0.00358570 -0.00014524
C 3.02195268 20.09446096 2.51685979 -0.00369237 0.00146361 0.00326208
C 9.62958176 22.99131565 2.83335706 0.00465110 0.00074745 -0.00031000
C 7.68785084 27.57017982 3.58279637 -0.00300037 -0.00045150 -0.00417215
C -0.02107253 23.31894343 11.10733899 0.00086287 0.00638954 -0.00256164
C -2.69809869 27.88349417 7.02134809 -0.00028146 -0.00048730 0.00437007
C 4.10868122 25.37386159 7.17008441 -0.00718934 0.00671299 0.00638581
C 6.60921867 20.42772022 11.23317783 0.00246982 -0.00643256 -0.00029811
C 1.22050415 23.21558120 10.56693052 0.00398615 -0.00321777 -0.00369910
C 9.51969866 27.89705454 7.83610044 -0.00070296 0.00323006 -0.00069503
C 2.81965814 25.38910668 7.85209641 -0.00218376 0.00513555 -0.00537473
C 34.36182770 20.39094606 10.41721020 0.00235512 0.00111708 0.00388488
C 2.08686397 22.18855330 10.94333659 -0.00009780 0.00034629 -0.00791267
C 8.56693150 26.92920774 7.42222067 -0.00647075 -0.00154919 0.00354225
C 1.79674661 26.22706701 7.52349938 -0.00623267 -0.00006262 0.00109349
C -4.33271303 21.32287722 10.81511173 0.00180331 -0.00412514 0.01290402
C 1.74627500 21.27577999 12.01122234 -0.00224206 0.00670048 0.00804500
C 8.73060989 26.14133432 6.28714151 -0.00700773 0.00763887 0.00147371
C 1.86565580 26.99498646 6.33394952 0.00012096 0.00683128 -0.00051186
C -4.52726433 22.23537710 11.87073407 -0.00090070 -0.00276796 0.00218179
C 4.30586427 21.31501149 6.68036772 -0.00382265 0.00674913 -0.00413927
C 7.12564602 26.20986610 11.75527179 0.00251865 -0.00005498 0.00115111
C 0.59640437 26.88794539 11.53132147 -0.00069538 -0.00470634 -0.00158210
C -2.61936177 22.24815197 6.66264133 0.00349123 0.00000332 -0.00474647
C 3.28988944 22.17996864 6.31563397 -0.00416654 -0.00544453 -0.00819482
C -5.55223484 27.15218300 11.97730659 0.00549545 0.00334553 0.00294491
C 1.50717131 25.90637354 11.96065633 -0.00505255 0.00430941 -0.00606188
C 9.86616262 21.02481815 6.37250540 -0.00160830 0.00248821 0.00237349
C -1.04866783 24.79899031 9.54314254 -0.00618204 0.00388333 -0.00153555
C -1.15536270 19.55198318 8.38798194 -0.00847784 -0.00069394 -0.00365240
C 5.20592099 23.98755828 8.82387976 0.00668671 -0.00486700 0.00457999
C 5.64132337 28.70445018 9.71422968 0.00254627 0.00011949 0.00502325
C -1.95019130 25.93225368 9.24132570 0.00465316 0.00283591 0.00138736
C 0.03900525 20.42294711 8.36693375 0.00616416 0.00719831 -0.00656199
C 6.26667081 22.88035367 8.87525311 0.00284687 -0.00262637 0.00857820
C 4.45732597 27.83248580 9.59624154 -0.00056761 -0.00988641 0.00304536
C -2.73495160 23.16975819 17.32409735 -0.00623977 0.00623269 0.00549477
C -5.68617738 27.99944142 13.03578617 -0.00142712 -0.00125664 -0.00323217
C 1.21639352 25.19303762 13.07234506 -0.00038439 -0.00324996 0.00365655
C 3.78826433 20.22378094 17.21618881 -0.00015108 -0.00043941 0.00143529
C -1.58386000 23.00918072 16.58038981 -0.00357222 -0.00281431 -0.00047241
C 6.59239948 27.76811434 13.99611213 -0.00152916 -0.00133341 -0.00500660
C 0.06916860 25.50639322 13.79000374 -0.00030531 -0.00208137 0.00265687
C 31.38438582 20.17744581 16.72428867 0.00047373 -0.00859342 0.00088954
C -0.57529839 22.08486961 16.93367094 -0.00460398 -0.00442057 0.00043432
C 5.73394956 26.72553030 13.63632548 -0.00421924 -0.00215620 0.00231623
C -0.84251119 26.42117351 13.39743022 0.00132370 -0.00337750 0.00501401
C -7.22903150 21.02840612 17.10067836 0.00194208 -0.00520331 0.00864364
C -0.79099126 21.21408633 18.04160245 0.00221619 0.00181681 0.00360499
C 6.02304266 25.87506266 12.61188032 -0.00114362 0.00388500 -0.00997180
C -0.58611358 27.24132726 12.22001670 0.00372549 0.00236178 -0.00228154
C -7.33486934 21.79686741 18.27549481 -0.00220479 -0.00100410 -0.00190853
C 0.40654206 21.34642558 12.53869945 0.00896675 -0.00065806 -0.00382049
C 3.98060013 26.11236807 17.69059921 0.00416451 -0.00940164 -0.00980994
C -2.41203788 27.02882601 17.70616306 -0.00283623 -0.00216471 -0.00702841
C -5.79960748 22.19129270 12.45818978 0.00045770 0.00128490 -0.00587254
C -0.39787324 22.38328528 12.12238086 0.00399930 0.00148897 -0.00291100
C -8.13488965 26.85159581 18.34977197 -0.00411607 -0.00812841 0.00458033
C -1.42257481 26.12796533 18.15976089 -0.00148736 -0.00797407 0.00025360
C 6.40566630 21.37008412 12.29655569 -0.00391661 -0.00491021 -0.00267820
C -3.95039478 24.45909722 15.66460073 -0.00054045 0.00179572 0.00164356
C -4.58710840 19.51252739 14.84077706 -0.00000799 -0.00038704 -0.00235288
C 2.38441789 23.84054671 14.69507607 0.00923025 -0.00383290 0.00454575
C 2.63502911 28.66467702 15.84582032 0.00511002 0.00378835 0.00820718
C -5.37998884 25.05145471 15.51409281 0.00540562 -0.00396454 -0.00467021
C -3.37851063 20.39712158 14.95163710 -0.00246092 -0.00322838 -0.00580098
C 3.60469309 23.04737758 14.95575665 -0.00778561 0.00031979 0.00901259
C 1.33756000 28.00173335 15.78079516 -0.00318737 0.00037657 -0.00577740
C -5.65812667 22.82757371 23.35322428 0.00348606 -0.00570448 0.00037914
C -8.41509529 27.73396570 19.42008439 -0.00938853 -0.00579896 -0.00303406
C -1.72953880 25.34893560 19.27551017 0.00545968 0.00021810 0.00137358
C 1.00515405 20.38817766 23.14271196 0.00122293 -0.00494107 0.00094561
C -4.40204581 22.85428570 22.67061229 -0.00924645 0.00380667 -0.00765801
C 3.44703692 27.71388785 19.91432961 0.00122228 0.00109918 -0.00599068
C -3.05322664 25.39573193 19.82704924 -0.00147854 0.00451811 -0.00517022
C 28.35130980 20.55229141 22.55993610 0.00222616 -0.00334022 -0.00053731
C -3.40231985 22.01703452 23.09715269 -0.00275514 -0.00320986 0.00010437
C 2.56063004 26.73361972 19.55699960 -0.00543656 0.00297758 -0.00939601
C -3.92353693 26.38384693 19.40500328 0.00470158 0.00030737 -0.00006342
C -10.22967159 21.39966306 23.01249423 0.00881523 0.00594436 -0.00206054
C -3.58696667 21.24084843 24.25781631 0.00391358 0.00050300 0.00099958
C 2.77698518 25.99603915 18.41304004 0.00162132 -0.00183436 -0.00351603
C -3.58097292 27.23610996 18.37222480 -0.00112625 -0.00491140 -0.00125790
C -10.29526501 22.09001437 24.23215209 0.00117091 0.00332525 0.00673737
C -1.93514943 21.48393427 18.88984488 0.00717954 0.00205921 0.00691390
C 0.82629705 25.99682362 24.01419901 -0.00325517 -0.00186943 -0.00261596
C -5.72934724 26.72669915 23.82423679 -0.00230068 -0.00470689 -0.00437214
C -8.60825127 21.91301421 18.88918751 0.00701428 0.00384433 0.00224252
C -2.89359746 22.38419414 18.51739909 0.00728955 0.00626891 0.00120529
C -11.26192316 26.95271087 24.38112510 -0.00344415 -0.00401959 0.00161427
C -4.76825543 25.80079013 24.26106958 -0.00534606 0.00087353 -0.00012231
C 3.65644941 21.16865956 18.25097443 -0.00712658 -0.00155393 0.00037389
C -6.75551508 24.31280346 21.80131926 -0.00048967 0.00622388 -0.00286013
C -7.45922976 19.67611676 20.91707512 -0.00003527 0.00031834 -0.00268922
C -0.70330489 23.77889066 20.92707193 -0.00180164 0.00049231 0.00113296
C -0.59480041 28.64325564 21.90072145 -0.00102623 -0.00214978 -0.00811472
C -7.83695952 25.37680761 21.60293041 0.00329897 -0.00217388 -0.00342871
C -6.23668166 20.40451424 21.11134782 -0.00002145 0.00228350 0.00720343
C 0.37926497 22.83859635 21.14834687 -0.00600326 0.00022445 0.00392908
C -1.89959994 27.72067050 21.73789478 -0.00204104 -0.00178972 0.00530606
C 16.41690341 3.79198957 4.97498838 -0.00187979 0.00207410 0.00046948
C 13.86758021 8.44716711 0.95921174 -0.00043539 0.00003555 -0.00563064
C 20.14814278 5.93641462 0.77290105 0.00191032 -0.00231119 0.00249489
C 22.87030408 1.18451432 5.13455187 -0.00034262 0.00321559 0.00235875
C 17.61989073 3.75627343 4.26480378 -0.00292583 -0.00686569 0.00452595
C 25.42631142 8.58280376 1.66239273 -0.00721627 0.00293882 0.00382831
C 18.97937390 6.04450539 1.57920549 -0.00285014 0.00057803 0.00372091
C 11.17314779 1.13053183 4.44770916 -0.00215274 0.00197052 -0.00001679
C 18.69140786 2.93701717 4.75169201 -0.00278946 -0.00088600 0.01105946
C 24.46190419 7.66387269 1.30929198 -0.00452446 0.00414661 -0.00445963
C 17.97560908 6.91101112 1.20101840 0.00185822 0.00498695 -0.00280883
C 12.23568731 1.96026182 4.78997479 0.00108413 -0.00031557 0.00297344
C 18.52454434 2.23627876 5.94884652 0.00650593 -0.00153257 -0.00351555
C 24.70465333 6.83842685 0.17661089 0.00451342 0.00043804 -0.00227901
C 18.03385599 7.67778297 0.03561889 -0.00142787 -0.00089508 -0.00073341
C 12.15003094 2.72624769 5.93109998 0.00040433 0.00327929 -0.00332664
C 20.20163379 1.99346742 0.52762603 0.00260752 -0.00400968 0.00554231
C 23.07108450 6.90365845 5.64704101 -0.00069407 -0.00593679 -0.00926983
C 16.37099804 7.72154132 5.44440835 0.00006174 -0.00687167 -0.00550391
C 13.51427056 2.79514001 0.46875912 0.00268318 -0.00080046 0.00315959
C 19.17561451 2.84454051 0.06035869 -0.00410305 0.00021483 0.00404388
C 10.78029046 7.66412226 6.06419757 -0.01273401 -0.00350436 0.00996617
C 17.31512363 6.82296419 5.83982555 -0.00036867 -0.00146941 -0.00435986
C 25.61625936 2.08271139 0.08056785 -0.00495654 -0.00512884 -0.00558074
C 15.02063040 5.14560014 3.43428106 -0.00371650 0.00182661 0.00037929
C 14.96110457 0.31210180 2.47636699 -0.00482076 0.00123824 -0.00202632
C 21.39311358 4.69186720 2.38969114 0.00118392 -0.00350785 0.00709640
C 21.93067282 9.60357778 3.55515953 -0.00306245 -0.00008347 -0.00105498
C 13.64353745 5.80149779 3.33215057 0.00078223 0.00034076 -0.00011996
C 15.98036797 1.37717991 2.54860664 0.00147997 0.00098387 0.00437914