2880
Time=38000.00000002 pbc="T T T" Lattice="39.61790138 0.00000000 0.00000000 0.00000000 29.25391992 0.00000000 -12.00120670 0.00000000 24.29311670" energy=-18396.85136664 virial="-27.12877831 -14.25006733 -69.74424010 -14.25006733 -52.88549147 -15.92471359 -69.74424010 -15.92471359 -5.11720147" stress="0.00150587 -0.00053380 -0.00249272 -0.00053380 0.00073393 -0.00058864 -0.00249272 -0.00058864 0.00228506" Properties=species:S:1:pos:R:3:vel:R:3
C 3.15412667 3.86976427 5.04295371 0.00116125 -0.00215049 -0.00787858
C 0.35865365 8.45119056 0.88885395 0.00652879 -0.00237340 0.00079474
C 7.10457121 5.84708080 0.84657510 0.00257614 0.00988861 0.00052633
C 9.82206643 1.16715639 5.10274233 0.00785925 0.00493266 0.00131184
C 4.31472762 3.70670082 4.28881989 0.00057299 0.00437564 0.00085037
C 12.39656724 8.63559406 1.46913638 -0.00264304 -0.00414536 -0.00546092
C 5.84975066 5.85517831 1.50787982 -0.00199652 -0.00496451 0.00169253
C -2.10053589 1.21668645 4.40611670 0.00522937 -0.00803423 0.00059069
C 5.30333322 2.82481217 4.62608947 -0.00464548 0.00085709 -0.00197900
C 11.48940378 7.61792237 1.13451662 0.00033526 -0.00715868 0.00813052
C 4.85073888 6.72259849 1.09429615 0.00124664 0.00588101 0.00230014
C -1.23560465 2.23890018 4.78673547 -0.00624892 0.00448198 -0.00227857
C 5.19240193 1.94054885 5.71883937 0.00176726 0.00628392 0.00200138
C 11.77721696 6.73781358 0.11383734 -0.00256979 0.00187230 -0.00149742
C 5.14509032 7.63714827 0.07799539 -0.00528610 0.00051797 -0.00323459
C -1.59900652 3.13470263 5.78633422 -0.00835938 -0.01010847 -0.00154575
C 6.65886299 1.81211985 0.31808424 0.00181692 0.00269340 -0.00437482
C 9.91006924 6.75654070 5.49463483 -0.00176242 0.00306171 -0.00142737
C 3.29829988 7.60987385 5.45548641 -0.00055841 -0.00002705 0.00688776
C 0.25220181 2.80313409 0.40169296 0.00223696 -0.00208866 0.00416731
C 5.74299375 2.79062762 0.05105969 0.00238844 -0.00149013 0.00423456
C -2.32943228 7.92748453 5.99687860 0.00208024 -0.00388896 0.00116505
C 4.33581701 6.87053894 5.92232765 -0.00431767 -0.00549461 0.00273546
C 12.50285748 2.03241281 0.05317056 -0.00054053 -0.00154303 -0.00542645
C 1.68097680 5.17804421 3.48442040 -0.00469342 -0.00284151 -0.00272307
C 1.46266894 0.20005156 2.41653241 0.00846140 -0.00370022 -0.00111521
C 8.38020034 4.63982171 2.50002121 0.00277610 0.00190971 -0.00227601
C 8.70239500 9.63698061 3.42798495 0.00041170 0.00509595 -0.00294236
C 0.40766862 5.98140987 3.47038188 0.00651716 0.00660648 -0.00430356
C 2.75725614 1.04377898 2.61361878 0.00560741 0.00328852 0.00644309
C 9.59296666 3.88221570 2.74856957 -0.00010086 0.00897113 0.01064590
C 7.53717171 8.59421283 3.24134323 -0.01474429 0.00102173 0.00740560
C 0.08179277 3.68345840 11.09620042 -0.00399491 -0.00521468 0.00659547
C -2.50225205 8.86464405 7.00812911 0.00015113 -0.00111408 0.00086974
C 4.10798470 5.99497649 6.99456575 0.00037894 -0.00255628 -0.00431757
C 6.82876729 1.08236649 11.23359276 -0.00169314 -0.00032941 0.00022377
C 1.29342733 3.74294058 10.37158901 -0.00229027 -0.00491369 -0.00121971
C 9.49374012 8.52783367 7.63144823 -0.00269685 -0.00046525 0.00504392
C 2.87461944 5.95693339 7.61554456 0.00642899 0.00536040 0.00422787
C 34.38991808 1.14412572 10.49858391 -0.00249502 0.00821132 0.00493496
C 2.31018907 2.96305260 10.75254820 -0.00060124 0.00155676 -0.00860712
C 8.56708853 7.51416314 7.38457548 -0.00436704 0.00004866 -0.00830221
C 1.91115004 6.91775263 7.35640211 -0.00389845 0.00514813 -0.00321066
C -4.22383539 2.03061932 10.96378648 -0.00221301 0.00810692 -0.00051889
C 2.24415617 2.04289257 11.90224711 0.01182629 0.00340349 -0.00195807
C 8.74601127 6.66860712 6.27572319 0.00413864 -0.00371563 0.00323194
C 2.11260250 7.76673024 6.24921990 0.00158380 0.00461751 0.00204825
C -4.39971957 2.87639336 12.09189768 -0.00357229 -0.00556931 -0.00428549
C 3.96531492 1.99530984 6.39049896 -0.00229803 0.00564771 -0.00726031
C 6.81789426 6.83272229 11.69611349 -0.00204283 -0.00226140 -0.00005231
C 0.19397500 7.33889457 11.47204937 0.00712723 -0.00536267 0.00114017
C -2.78685434 2.82426578 6.56356589 0.00765254 0.00570925 -0.00191592
C 3.09999436 3.03706010 6.21597392 -0.00532067 0.00231928 -0.00444761
C -5.03544093 7.93737331 12.13783889 -0.00850625 0.00924034 0.01136404
C 1.14852314 6.46058718 11.89085946 -0.00385380 0.00014251 -0.00235225
C 9.63291625 1.86377523 6.31522901 0.00071836 -0.00545289 -0.00010400
C -1.13619940 4.93889614 9.45345525 0.00610177 -0.00145090 0.00660157
C -1.46980161 0.33329214 8.72448694 0.00551920 0.00202454 -0.00838897
C 5.32311327 4.54454493 8.47353710 -0.00675169 0.00328751 0.00235625
C 5.63217191 9.43879047 9.75958109 0.00380878 -0.00731544 0.00629683
C -2.42858581 5.73605602 9.18022088 -0.01048653 -0.00597584 0.00900129
C -0.37399837 1.31948116 8.90206608 0.00428491 0.00035662 -0.00019368
C 6.42658893 3.54932304 8.61655206 -0.00219116 -0.00152949 0.00423897
C 4.39194897 8.60395482 9.76548564 0.00264976 0.00781941 -0.00354445
C -2.89372062 3.39908363 17.26037796 -0.00251632 0.00123040 0.00263363
C -5.32838578 8.71258530 13.22550280 -0.00216039 -0.00002624 -0.00184190
C 0.96156752 5.76935173 13.17845513 0.00870813 0.00459644 0.00565289
C 3.86074833 1.09562749 17.25844957 0.00127394 -0.00032231 -0.00166811
C -1.69767124 3.31896781 16.56804026 -0.00372984 -0.00462269 0.00106851
C 6.23949767 8.47857231 13.82465277 0.00070019 -0.00475902 0.00193530
C -0.28391659 5.81574702 13.77024430 -0.00304590 -0.00192923 0.00120609
C 31.31813280 1.20808738 16.44588531 -0.00564107 -0.00263583 0.00251871
C -0.62948522 2.51159863 17.01542248 -0.00144219 0.00210295 0.00070128
C 5.24096362 7.62953401 13.35389694 -0.00062767 -0.00081979 0.00024966
C -1.21876666 6.75007461 13.35043601 -0.00200583 0.00899393 0.00343965
C -7.33498996 2.08512281 16.88703768 0.00372845 -0.00666381 -0.00147969
C -0.71486348 1.77585679 18.23915329 -0.00281154 0.00051280 0.00459355
C 5.53201772 6.72096205 12.30396689 -0.00254570 0.00448243 0.00857727
C -0.93263618 7.63151082 12.32425459 -0.00087464 0.00130601 0.00396276
C -7.55504406 2.85668388 18.05522631 0.00500007 0.00714611 0.00229387
C 1.01918158 1.93812205 12.54346507 -0.00014681 -0.00164406 0.00885900
C 3.78583116 6.95138894 17.79828659 -0.00386467 -0.00298707 0.00088092
C -2.98406623 7.50381129 17.52622018 0.00108758 -0.00114425 -0.00059415
C -5.55904576 2.70509812 12.83340613 0.00222277 -0.00693836 -0.00336583
C -0.05074406 2.77666394 12.13962154 0.00482318 0.00660733 -0.00005170
C -8.50523375 7.67735682 18.07959887 0.00070835 -0.00941231 0.00109740
C -1.96549870 6.62144060 17.88443125 0.00275339 -0.00231616 0.00225308
C 6.59749588 1.92105949 12.33578160 -0.00156609 -0.00313700 0.00845710
C -4.01727301 4.95815263 15.75060393 -0.00150970 -0.00677567 0.00149155
C -4.60499955 0.19637704 14.74364198 0.00313395 -0.00053410 -0.00041323
C 2.14689401 4.53826491 14.87277988 -0.00010085 -0.00968083 0.00224781
C 2.67280186 9.30277808 15.61988283 -0.00170294 0.00223584 -0.00569343
C -5.22973517 5.77468581 15.48424589 0.00401970 0.00062141 0.00258725
C -3.27170565 0.92350863 15.04254765 0.00700410 -0.00048461 0.00221572
C 3.32468783 3.63947332 15.02200679 -0.00402459 0.00338815 0.00195811
C 1.41274725 8.54820861 15.43364026 -0.00577537 -0.00387675 -0.00200063
C -5.98299213 3.67830564 23.29335732 -0.00249131 -0.00844674 -0.00083387
C -8.69766717 8.65414662 19.08453256 -0.00141913 -0.00176992 0.00634797
C -2.03653387 5.77264499 18.99336145 0.00081815 0.00624803 -0.00230571
C 0.72183792 1.11526761 23.31230039 0.00081287 0.00270958 0.00185005
C -4.71198565 3.56545033 22.57035283 0.00127264 0.00535898 0.00153522
C 3.58190679 8.35482868 20.12603435 0.00494599 -0.00479987 -0.00236495
C -3.25676578 5.74490552 19.70169215 0.00060845 -0.00272828 0.00326476
C 28.27497973 1.17058370 22.47106275 -0.00083444 -0.00798504 -0.00235499
C -3.80819182 2.55682271 22.89835221 0.00586753 0.00293434 0.00656808
C 2.50223681 7.55910614 19.68098735 0.00193831 0.00197573 0.00420260
C -4.29846084 6.55280566 19.25138016 -0.00345878 0.00711582 0.00506727
C -10.27911796 1.99947868 22.94519480 -0.00200608 0.00405958 0.00311188
C -4.09106031 1.67568386 23.93608448 -0.00145726 -0.00131923 0.00061928
C 2.60313415 6.82602085 18.50298409 0.00504568 0.00341736 -0.00473790
C -4.17819170 7.51023094 18.21654570 0.00349192 0.00054586 0.00237166
C -10.46098628 2.82017065 24.11409277 -0.00189317 0.00189072 0.00326830
C -1.94948526 1.87210417 18.94343780 -0.00467156 0.00575244 -0.00242173
C 1.05951043 6.78694662 23.82211402 0.00163806 -0.00538386 0.00256903
C -5.63485294 7.56169117 23.64394056 -0.00633517 0.00402346 0.00416073
C -8.82134922 2.66109120 18.74860481 0.00051241 -0.01420535 -0.00693175
C -2.98018208 2.60434802 18.44493230 0.00462330 -0.00094223 0.00563798
C -11.54033211 7.68501227 24.04058159 0.00600386 -0.00219374 0.00271385
C -4.67643091 6.69603396 24.07339192 0.00707104 0.00803135 0.00045799
C 3.59165898 2.02964623 18.27967150 -0.00338839 -0.00487569 0.00455895
C -7.17690198 5.11955294 21.80559309 -0.00629671 0.00349118 -0.00174962
C -7.39859284 0.37036900 20.70302588 0.00514361 -0.00259296 0.00489300
C -0.73484797 4.52688253 20.58892910 -0.00567238 -0.00429347 -0.00004086
C -0.32181472 9.31150127 21.58511181 0.00535390 -0.00484626 -0.00062772
C -8.33428995 6.12455015 21.72194127 0.00513354 0.00263488 -0.00063619
C -6.13504481 1.18092385 20.87680091 -0.00064179 0.00173661 0.00369994
C 0.34913168 3.45976626 20.82763107 0.00392443 0.00105335 -0.00101519
C -1.46244454 8.36212810 21.50104903 0.00484263 -0.00420435 -0.00253467
C 3.32752279 13.59168087 5.17452541 0.00669505 0.00074421 0.00890576
C 0.31349365 18.44195439 0.75069577 0.00860697 0.01175429 -0.00329990
C 6.93719868 15.83489425 0.80156816 0.00017871 0.00214360 0.00822456
C 9.92580656 10.97590552 5.03647792 -0.00099017 -0.00174506 0.00134133
C 4.42861224 13.33853419 4.33486348 -0.00410527 0.00163954 -0.00727907
C 12.55799931 18.51186844 1.69784406 -0.00731959 0.00201994 0.00385679
C 5.72000407 15.92832349 1.53165305 -0.00886644 0.00293421 -0.00185447
C 37.17588881 10.87046258 4.24428205 0.00318696 -0.00135475 -0.00037834
C 5.52071214 12.59337039 4.82712843 -0.00343336 -0.00598094 -0.00460447
C 11.59813071 17.56766088 1.23653694 -0.00443911 -0.00281755 -0.00644422
C 4.76481065 16.86311638 1.20132342 0.00204185 0.00921415 0.00241046
C -1.39131959 11.71212005 4.62123455 -0.00245246 0.00771105 -0.00381885
C 5.39618632 11.85160752 6.04349133 0.00758993 -0.00019223 0.00502674
C 11.91869704 16.80963497 0.10244812 0.00820209 -0.00273479 -0.00124044
C 4.88954354 17.71901830 0.03808282 0.00290796 -0.00815921 0.00374506
C -1.68414382 12.77438421 5.49474514 0.00060937 0.00176611 -0.00378455
C 6.82908216 11.79503217 0.10458792 -0.00368534 0.00053108 0.00492258
C 10.06629598 16.94551588 5.36137281 0.00119142 0.00101379 -0.00132388
C 3.28054173 17.48354796 5.48932856 0.00290889 -0.00757543 -0.00031830
C 0.47430227 12.61970593 0.50825140 -0.00467869 0.00227582 0.00374963
C -5.99638307 12.81536892 24.10842698 -0.00647291 -0.00186494 0.00550145
C -2.32264517 17.58938554 5.88420850 -0.00556093 -0.00595564 0.00638107
C 4.29584205 16.67079586 5.91933169 0.00837633 -0.00255904 0.00151873
C 0.37023331 11.79706866 24.25685234 -0.00920634 0.01041532 -0.00071715
C 2.03884704 14.89825683 3.60973643 0.00129308 0.00476061 0.00318600
C 1.66364743 9.94364338 2.35824174 0.00278110 0.00477205 0.00192940
C 8.44713016 15.01348973 2.42571434 -0.00572690 0.00562066 -0.00048650
C 8.59122213 19.43826046 3.73467127 -0.00832335 0.00179631 0.00806960
C 0.79944465 15.70647916 3.40940611 -0.00256409 -0.00143886 0.00014964
C 2.80876523 10.86391940 2.42898321 -0.00455235 -0.01067585 0.00093450
C 9.61623395 14.07226096 2.74960569 -0.00145722 0.00252104 -0.00387670
C 7.34800291 18.51239345 3.52307774 -0.00229647 -0.00002617 -0.00070666
C 0.26201668 13.56395401 11.12565153 0.00243515 -0.00863251 0.00119837
C -2.43197909 18.40432045 7.05626005 -0.00679939 -0.00142301 -0.00414332
C 4.17052294 15.94255153 7.06662661 0.00501564 -0.00059619 0.00306581
C 6.96465827 10.90989285 11.06480673 -0.00019263 -0.00422236 0.00195915
C 1.51439192 13.55321430 10.49208937 -0.00572254 -0.00475910 0.00115561
C 9.54778800 18.36001280 7.71750390 0.00556001 -0.00844198 0.00463791
C 2.93530400 15.99261657 7.82026175 0.00397843 0.00909716 -0.00020499
C 34.45057580 11.05044676 10.29576148 0.00018349 -0.00774337 0.00097523
C 2.48478183 12.66485906 10.85670456 -0.00334446 0.00509705 0.00107753
C 8.58292485 17.47659861 7.30449005 0.00225630 0.00779109 -0.00051422
C 1.98319221 16.82846687 7.33731495 -0.00099937 -0.00121140 0.00169400
C -4.34899640 12.13421366 10.53085265 0.00141994 0.00127058 0.00133376
C 2.23740307 11.61668582 11.83138795 -0.00336450 -0.00243264 0.00133362
C 8.84794301 16.64782218 6.13774121 0.00734015 -0.01012951 0.00432860
C 2.06742507 17.54807504 6.12634114 0.00244084 -0.00028227 0.00227896
C -4.52509029 12.93233941 11.74057307 0.00164710 0.00214237 -0.00700418
C 4.24278351 11.99032364 6.82079161 -0.00036820 -0.00370489 0.00334941
C 7.02499523 16.79110448 11.61255238 -0.00647930 -0.00606540 0.00005616
C 0.46643030 17.42453120 11.75837512 -0.00212164 -0.00131884 0.00082832
C -2.97480024 12.83620900 6.06925315 0.00360726 0.00059828 -0.00784175
C 3.18869923 12.78888627 6.33014007 -0.00833759 -0.00698044 0.00323741
C -5.39548620 17.45945877 12.14087296 -0.00063727 0.00230848 0.00157873
C 1.49065791 16.58668888 12.11071340 -0.00214644 0.00063457 0.00488701
C 9.70965199 11.72233558 6.22310056 -0.00434921 0.00162569 -0.00409670
C -0.89475817 15.00451655 9.57910817 0.00099480 -0.00053617 -0.00328974
C -1.32936414 10.20045644 8.57361701 0.00491812 0.00208204 0.00178713
C 5.44252343 14.54657633 8.57895912 0.00013684 -0.00443314 -0.00610623
C 5.78938528 19.40978042 9.56189848 -0.00090356 -0.00384179 -0.00048491
C -2.12132288 15.79691531 9.51957459 -0.01188905 -0.00229608 -0.00236659
C -0.55659772 11.47357107 8.75515375 -0.01052277 0.00484470 -0.00201528
C 6.71252791 13.66489365 8.58467938 0.00214208 0.00990458 0.00179853
C 4.59566499 18.47745770 9.39357281 0.00237136 0.00200584 0.00316558
C -2.72337437 13.49846925 17.15400582 0.00397560 -0.00249344 -0.00031753
C -5.57811316 18.26737207 13.22985779 -0.00166876 -0.00051271 0.00057663
C 1.27123926 15.64016592 13.12048227 -0.00448333 -0.00225908 -0.00275136
C 3.82915070 10.72419269 17.14405338 -0.00065111 0.00344545 0.01156555
C -1.46286887 13.50027784 16.54498685 0.00843043 -0.00002715 -0.00298274
C 6.53545114 18.35954709 13.81443656 -0.00738409 -0.00409655 -0.00348155
C 0.01786031 15.59777924 13.79640333 -0.00536508 0.00142724 0.00106336
C -8.07442265 11.05974441 16.34574931 -0.00413989 0.00150484 0.00010876
C -0.45558786 12.61324225 16.88790184 0.00550639 0.00209999 0.00012790
C 5.51762414 17.54851863 13.34806612 0.00502288 0.00013522 0.00267430
C -1.00411931 16.39198812 13.31077392 -0.00075834 -0.00828638 -0.00460286
C -7.09671880 11.90292260 16.82689534 -0.00380954 0.00578659 0.00622965
C -0.69270452 11.74708787 17.96102972 0.00263452 -0.00109087 0.00181159
C 5.76990408 16.72492259 12.24898246 -0.00146320 0.00581272 0.00593009
C -0.78133547 17.36025596 12.32003917 0.00771905 -0.00478095 0.00342867
C -7.33147712 12.64946698 18.00383423 0.00568122 -0.00189432 -0.00423867
C 0.94699843 11.67077125 12.48282472 -0.00309063 -0.00394477 0.00612860
C 3.84009082 16.83150102 17.83422225 0.00005153 -0.01078926 0.00548880
C -2.79682299 17.64282272 17.51865442 -0.00541885 0.00292224 0.00184450
C -5.66933790 12.72038875 12.49004665 0.00445629 -0.00196834 0.00144512
C 0.00333762 12.61083562 12.14949591 -0.00091201 -0.00100628 -0.00179887
C -8.28270795 17.73058406 18.11331994 0.00308328 0.00171100 -0.00634950
C -1.83376281 16.75974696 17.93574811 0.00039195 -0.00123328 -0.00088322
C 6.72366388 11.86486220 12.07917311 0.00221831 -0.00252768 0.00921680
C -4.01038440 14.92600217 15.63827153 0.00230239 0.00365428 -0.00098281
C -4.17549531 10.16793797 14.77550860 -0.00443038 0.00163940 0.00151973
C 2.34072322 14.30805211 14.74270513 -0.00192304 0.00206889 -0.00204722
C 2.55961833 19.25718110 15.86303537 0.00723522 -0.00300875 0.00232564
C -4.97961030 16.09036523 15.50860092 0.00102155 0.00245101 -0.00619000
C -2.77268147 10.95849488 14.93829363 -0.00446270 0.00098071 -0.00290155
C 3.49826999 13.49247044 14.98269600 -0.01198056 -0.00014383 -0.00384221
C 1.25988579 18.55525679 15.59342825 0.00380612 0.00362681 0.00029814
C -5.84888686 13.69491162 23.01781794 0.00518059 0.00194190 -0.00086189
C -8.53496747 18.56934643 19.19998084 0.00658057 0.00489873 0.00342405
C -2.00726402 15.96102227 19.07821033 0.00388828 -0.00002136 0.00483089
C 0.70892028 10.96693614 23.15400986 -0.00582914 0.00433406 -0.00482658
C -4.66048123 13.56058598 22.31123853 0.00935669 0.00314584 0.00742236
C 3.45491368 18.55252543 19.89089169 -0.00270489 -0.01115617 -0.00713201
C -3.14301564 16.16186945 19.84477511 0.00190903 0.01247738 -0.00053780
C -11.18811661 10.92183316 22.69616326 -0.00356250 -0.00023390 -0.00375327
C -3.67304005 12.65469581 22.70644540 0.00103939 0.00922264 0.00142825
C 2.43918475 17.62994582 19.63746973 -0.00459473 0.00006031 0.00018326
C -4.10723859 17.06778279 19.56231614 -0.00231981 0.00586760 -0.00342707
C -10.23783875 11.85434458 23.08265015 0.00028538 -0.00615526 0.00252141
C -3.88562249 11.68223308 23.71619344 -0.00145846 -0.00402644 0.00486514
C 2.59448264 16.79609278 18.49199000 -0.00277025 0.00490470 0.00406725
C -3.98159318 17.85370434 18.34027209 -0.00060723 -0.00214083 0.00522931
C -10.30844687 12.66523946 24.16841155 -0.00221440 -0.00013332 0.00020817
C -1.91884909 11.74351964 18.58849348 -0.00244197 0.00229534 0.00762275
C 1.15472491 17.03626582 23.74606529 -0.00057251 -0.00038086 0.00117957
C -5.98099751 17.48389034 23.59886332 0.00009845 0.00113906 -0.00148857
C -8.53913544 12.51112196 18.70696576 -0.00030441 0.00203896 -0.00525418
C -2.85450085 12.68733083 18.29804695 -0.00317660 -0.00433189 0.00001786
C -11.49982581 17.51002225 24.01160443 -0.00128820 -0.00492427 0.00112577
C -4.95755451 16.64899185 23.97170017 -0.00308682 0.00369960 -0.00026775
C 3.64742404 11.52145647 18.26995513 0.00651952 -0.00792421 -0.00209791
C -7.14572400 15.02815143 21.56644521 -0.00218079 0.00553433 -0.00292230
C -7.40135638 9.97849923 20.68151523 -0.00397926 -0.00041966 -0.00404951
C -0.77720762 14.62682480 20.62566714 -0.00201114 -0.00092481 0.00263546
C -0.43499698 19.22600173 21.73382769 0.00377732 -0.00120870 0.00545435
C -8.54895710 15.51486459 21.27507339 0.00146132 -0.00174594 0.00273882
C -6.45679870 11.13404274 20.76640359 0.00494736 0.00221962 -0.00224991
C 0.53551841 13.76887440 20.64731555 0.00634078 -0.00778114 -0.00139894
C -1.59194138 18.30625156 21.53241162 -0.00150084 0.00175267 -0.01181751
C 3.15440800 23.42739709 4.93566466 0.00245470 -0.00535507 -0.00056057
C 0.20944908 28.22546709 0.74873604 0.00529211 0.00140598 -0.00209909
C 7.01669364 25.67060717 1.01994997 -0.00021461 -0.00416981 0.00516761
C 9.70818460 21.00398031 5.23520878 -0.00241458 -0.00275047 0.00114853
C 4.35793865 23.26181935 4.22115064 0.00623627 0.00229832 -0.00224560
C 12.53675801 28.15566626 1.71641558 -0.00704900 -0.00458349 0.00621150
C 5.73224778 25.74528822 1.66029065 -0.00155723 0.00420523 0.00069329
C 37.37231720 20.87428241 4.39192340 0.00220675 -0.00047584 0.00173428
C 5.24122610 22.28743599 4.61716131 -0.00418267 0.00003128 0.00170878
C 11.50245956 27.38627577 1.20068048 0.00014641 -0.00001558 0.01109510
C 4.74501376 26.60460544 1.23500666 0.00076482 0.00278539 -0.00205917
C -1.31228385 21.78292286 4.78964254 -0.00900968 0.00245844 -0.00024589
C 4.96887561 21.50599943 5.72072155 0.00119804 -0.00416297 0.00521627
C 11.78670808 26.44535538 0.17860453 -0.00392581 -0.00411617 -0.00170989
C 4.90774158 27.40560285 0.12468583 -0.00025836 0.00291606 -0.00440085
C -1.42388155 22.46818854 6.00380233 -0.00889630 0.01019873 0.00557353
C 6.88352091 21.54572087 0.46556754 0.00636568 0.00244261 -0.00608058
C 9.67967885 26.31774294 5.67770450 0.00104042 -0.00253955 -0.00487158
C 3.08082836 27.51243132 5.65173116 0.00512276 -0.00572049 0.00495166
C 0.04887743 22.24781894 0.41162644 0.00134163 0.00482756 0.00569193
C 5.94740320 22.54620215 0.11073113 0.00118509 -0.00862108 0.00173519
C -2.48014514 27.28764554 6.01542992 -0.00413356 0.00123093 -0.00375672
C 4.01135207 26.51842611 5.98235266 0.00946611 0.00538259 -0.00250610
C 12.51134402 21.58680497 0.09993195 0.00189860 -0.00479287 -0.01117005
C 1.76128547 24.69226291 3.38668675 -0.00782854 0.00660543 -0.00617499
C 1.27891464 19.85507239 2.41853855 0.00237349 0.00368276 0.00108397
C 8.20210296 24.21072585 2.57593386 0.00268464 -0.00889900 -0.00595561
C 8.67277746 29.11740453 3.47393147 -0.00874260 0.00193644 -0.00205579
C 0.63438827 25.72091218 3.00116273 -0.00564522 -0.00289056 -0.01035447
C 2.38278211 20.89758326 2.54589262 0.00572735 -0.00213547 0.00399391
C 9.49242847 23.47702082 2.67155232 -0.00417541 0.00740424 -0.00284487
C 7.57712068 28.11955368 3.17090044 -0.01101877 0.00243381 0.01154777
C 0.07314261 23.15365607 11.11438623 0.00033260 -0.00152394 0.00142505
C -2.61655240 28.20157515 7.08668654 0.00127802 0.00191855 -0.00385086
C 3.79759275 25.56151843 6.95619570 -0.00257220 0.00328521 -0.00925146
C 7.05081123 20.68330297 11.18552396 -0.00285755 0.00059375 0.00271875
C 1.23551922 23.09768579 10.42532179 -0.00274521 -0.00855774 0.00183747
C 9.33876938 27.99184819 7.79563046 -0.00654486 0.00233912 0.00410453
C 2.55128079 25.72611563 7.67635378 0.00342837 0.00438507 -0.00631592
C 34.22729325 20.57004514 10.39554535 0.00241467 0.00621513 -0.00101555
C 2.37674280 22.39860359 10.82236946 -0.00223242 0.00399340 -0.00841274
C 8.26895379 27.13700415 7.44609650 0.00087711 0.00070026 -0.00328847
C 1.61868874 26.73631325 7.43406134 0.00895755 0.00264327 0.00062196
C -4.39173342 21.43849171 10.80894357 -0.00464484 0.00274872 0.00576647
C 2.20482418 21.59268583 12.03295293 -0.00327443 -0.00713359 0.00025121
C 8.47529195 26.23974214 6.37854853 0.00677283 0.00112052 -0.00299970
C 1.86619282 27.63740927 6.35742429 0.00016699 -0.00156003 -0.00170997
C -4.54604458 22.21125414 11.94611557 -0.00057620 -0.00317986 0.00650349
C 3.74706258 21.61293071 6.38446474 -0.00030330 -0.00098397 0.00372014
C 6.90936561 26.40580049 11.73924377 -0.00346505 0.00529256 0.00119839
C 0.14674604 27.22001429 11.71063659 -0.00396194 -0.00025238 0.00090519
C -2.59868189 22.27479348 6.73546248 0.00226922 -0.00022590 -0.00342377
C 2.83936968 22.52840878 5.93166091 -0.00844993 -0.00096935 -0.00500115
C -5.51412344 27.00795852 12.25535520 0.00394723 0.00563426 0.00526903
C 1.11017227 26.34579342 12.07469596 0.00583998 -0.00036733 0.00414206
C 9.56570540 21.75632227 6.40190920 0.01062134 -0.00379632 -0.00161955
C -1.06220350 24.87375683 9.65858526 -0.00567313 0.00069552 -0.00482260
C -1.10918932 19.83087481 8.58883796 0.00015139 -0.00517322 0.00513436
C 5.04840855 24.22542660 8.60019547 -0.00700457 -0.00779510 0.00046055
C 5.31936314 29.08913129 9.75362030 -0.00316751 -0.00189965 -0.00417381
C -2.26351860 25.76684800 9.54803454 0.00138540 0.00252889 0.00095919
C 0.08683565 20.96595560 8.63607871 0.00956261 -0.00537153 -0.00250546
C 6.20966261 23.29879548 8.64877793 0.00479603 0.00512211 0.00053422
C 3.89447895 28.67227914 9.83484039 -0.00312896 0.00061729 -0.00304195
C -2.95465000 23.28746447 17.15377764 -0.00296655 -0.00616015 -0.00052873
C -5.77433702 27.90662526 13.29137780 -0.00451423 -0.00258299 0.00245301
C 0.83333600 25.42038444 13.09119193 0.00393720 -0.00342790 -0.00474755
C 3.87397893 20.59284099 17.26966559 -0.00888032 0.00366691 0.00398173
C -1.72462326 23.21492832 16.47736619 0.00281792 -0.00155579 -0.00502816
C 6.53988578 27.87123254 14.08035953 0.00087088 0.00616577 0.00124119
C -0.34320911 25.43196949 13.77292763 -0.00036105 0.00497899 0.00643474
C -8.08661785 20.65085103 16.56437701 -0.00122307 -0.00412321 0.00471743
C -0.71380919 22.39215319 16.83178001 -0.00517271 -0.00296114 -0.00395421
C 5.48941232 27.15191134 13.49135293 0.00347133 0.00410271 0.00171162
C -1.37025509 26.23926738 13.23790874 0.00239630 0.00438778 -0.00444981
C -7.16601427 21.54016728 17.06378102 -0.00219184 -0.00031271 0.00152874
C -0.83838878 21.59435068 18.02751010 0.00210002 -0.00001748 0.00086195
C 5.61478941 26.40376112 12.33047150 -0.00073987 0.00295394 0.00272794
C -1.16557307 27.17033866 12.21886437 -0.00053814 0.00048407 0.00082809
C -7.40012418 22.39531575 18.21117331 0.00151666 0.00211799 -0.00210594
C 0.93318727 21.63091725 12.68447576 -0.00272747 -0.00176713 0.00226435
C 3.86332959 26.35658868 17.60877723 0.00479803 0.00087493 0.00798210
C -2.86573533 27.10281835 17.47278579 -0.00069547 -0.00401694 0.00503174
C -5.83482482 22.24756054 12.65219102 0.00094892 0.00237583 0.00483535
C -0.16349757 22.26708662 12.16334332 -0.00098382 0.00297806 -0.00148698
C -8.46570570 27.28120177 18.11406422 0.00378043 0.00836781 -0.00210758
C -1.86339963 26.34338173 17.99679195 -0.00724369 0.01210353 -0.00421260
C 6.70744090 21.61734906 12.21426418 0.00107955 -0.00073061 0.00367509
C -4.11559044 24.61697104 15.55796406 -0.00323469 0.00366756 0.00153619
C -4.48875480 19.72516479 14.77347919 -0.00444210 -0.00079739 0.00290579
C 2.27858385 24.11792660 14.50386676 0.00150587 0.00101700 0.00646727
C 2.56774125 29.00335273 15.55681585 -0.00664910 0.00148171 0.00591759
C -5.24380644 25.58685107 15.27586868 -0.00100533 -0.00022962 0.00042352
C -3.36464798 20.76941740 14.94608195 -0.00183940 0.00428002 -0.00307702
C 3.39510144 23.07115363 14.69616131 -0.00133885 -0.00269144 0.00584303
C 1.16955212 28.36570285 15.36899208 0.00529455 0.00273338 0.00090676
C -5.74851069 23.41368801 23.39453153 -0.00013685 0.00046254 0.00270034
C -8.66733298 28.19643610 19.17280327 -0.00074879 0.00214935 -0.00150417
C -1.99786690 25.53533330 19.14414310 0.00308030 -0.00478621 -0.00094551
C 0.67139485 20.70273872 23.30899436 -0.00292891 -0.00189279 -0.00201562
C -4.51478119 23.35686920 22.72291135 0.00237075 0.00330646 -0.00054906
C 3.51401489 27.96100167 19.74359338 0.00437776 0.00118965 0.00055662
C -3.22510897 25.66856486 19.82099833 0.00656142 -0.00049682 -0.00815944
C 27.99545029 20.66423083 22.41399963 0.00459789 -0.00054709 0.00325609
C -3.53566568 22.52647792 23.19288105 0.00036938 -0.00108634 -0.00089698
C 2.55940268 27.00095885 19.52488577 0.00454435 0.00034042 0.00782170
C -4.13767991 26.62736058 19.46127976 -0.00345316 0.00091442 0.00513467
C -10.60227460 21.53026503 22.75771140 -0.00105551 0.00213118 -0.00314687
C -3.82907119 21.62411530 24.18570632 -0.00143962 -0.00156055 -0.00118554
C 2.71055529 26.21416538 18.34640125 -0.00448648 -0.00649056 0.00362779
C -4.00968472 27.36492161 18.24282995 0.01216551 0.00592121 0.00288415
C -10.70452419 22.32388162 23.94303679 0.00174689 -0.00471616 -0.00837305
C -2.08004860 21.51177457 18.67242018 -0.00561775 0.00981968 -0.00082681
C 0.97872511 26.54713026 23.75616764 -0.00001237 0.00071378 -0.00498158
C -5.83109806 27.47407810 23.87593003 -0.00370564 -0.00454826 0.00104122
C -8.64563809 22.32124069 18.78179004 0.00668338 0.00511339 -0.00541416
C -3.14220706 22.37243292 18.24657488 0.00037433 0.00135180 0.00776533
C -11.46786627 27.27036020 24.14016139 -0.00129249 -0.00237388 0.00300313
C 7.20980725 26.69155861 0.08254711 -0.00173076 -0.00122595 -0.00098274
C 3.62549133 21.55236800 18.31531856 0.00197892 -0.00324036 0.00112320
C -6.94381072 24.77637284 21.76468377 0.00454823 -0.00669168 -0.00520970
C -7.48211020 19.99187963 20.85216365 -0.00709514 0.00315834 0.00729434
C -0.88222678 24.29976685 20.80250376 0.00247731 -0.00101860 0.00190372
C -0.40650529 28.99349850 21.63353147 0.00518447 0.00617368 0.00332802
C -8.08469985 25.62874365 21.44565409 0.00618942 -0.00326148 0.00011817
C -6.42174401 21.06389982 21.07947931 0.00354619 0.00213713 0.00021641
C 0.20302136 23.38137581 21.09246280 0.00194672 0.00382198 -0.00670555
C -1.65472715 28.13971859 21.41083984 0.00270058 0.00136994 0.00471647
C 16.48819607 4.04899023 5.14863287 -0.00058977 -0.00050015 -0.00056292
C 13.63665447 8.66979935 0.92518396 -0.00093789 0.00218291 0.00721733
C 20.20085024 6.10364384 1.00493973 0.00459634 -0.00226936 0.00733483
C 22.94170151 1.16288943 5.19648481 0.00556477 -0.00211697 -0.00306095
C 17.73857193 3.89413002 4.51427471 0.00077587 0.00741478 -0.00443897
C 25.53139080 8.45828069 1.64418854 -0.00404632 -0.00726597 0.00061211
C 19.05738688 6.26786915 1.82122842 0.00449120 0.00842676 -0.00397361
C 11.01635080 1.30843806 4.41025840 -0.00038626 0.00097279 0.00146017
C 18.71572902 2.93644777 4.97897685 -0.00549028 -0.00170518 0.00023584
C 24.53581936 7.55758103 1.20440096 0.00921357 0.00194585 0.00299625
C 18.12884151 7.17245946 1.41794654 -0.00431545 -0.00369251 -0.00145520
C 12.01568579 2.18416850 4.84862751 0.00245404 -0.00097866 0.00245747
C 18.44470990 2.12453665 6.07304018 0.00665985 -0.00129722 -0.00377395
C 12.72063130 6.88202233 24.26067339 0.00073971 0.00032895 0.00548100
C 18.24832642 7.92681374 0.25224628 0.00570389 -0.00176027 -0.00178221
C 11.87311781 2.81655482 6.11469698 -0.00036389 -0.00242684 -0.00024679
C 20.25329707 2.02739110 0.66690600 0.00120912 0.00383859 -0.00096925
C 22.88335772 7.28136824 5.45488254 0.00352217 0.00216639 0.00170964
C 16.40497290 7.86091480 5.52964887 -0.00078644 0.00176893 -0.00734000
C 13.44565648 2.89150941 0.52816957 0.00142563 -0.00238212 0.00166645
C 19.27037078 2.85709163 0.26088967 0.00026670 0.00795156 -0.00279793
C 10.90969656 7.61501198 5.87291605 0.00285470 0.00048660 -0.00405054
C 17.40318857 7.02031797 6.04487535 -0.00855984 -0.00499850 0.00013527
C 26.04887539 1.53867248 0.52208445 0.00105909 -0.00490881 -0.00291807
C 15.31462851 5.41939945 3.51801163 0.00493162 -0.00471742 0.00362029
C 14.86161789 0.44847009 2.56222127 0.00709113 -0.00144046 -0.00441479
C 21.56000912 4.87388964 2.58052211 -0.00371764 -0.00426722 0.00265785
C 21.49209305 9.61449747 3.57637703 -0.00002686 -0.00487977 -0.00308053
C 14.11269501 6.26113815 3.33163768 0.00158087 0.00035737 -0.00170059
C 16.07660187 1.32784557 2.79323855 -0.00017913 -0.00875751 0.00303395
C 22.86975189 4.23494563 2.80812729 -0.00041854 0.00405334 -0.01129687