2880
Time=58000.00000005 pbc="T T T" Lattice="39.53483844 0.00000000 0.00000000 0.00000000 28.96871423 0.00000000 -12.03322842 0.00000000 24.42292785" energy=-18400.32652199 virial="-21.78733974 -18.80503073 -54.91396835 -18.80503073 -51.07477324 -9.02383036 -54.91396835 -9.02383036 -43.32407048" stress="0.00173731 -0.00070406 -0.00190485 -0.00070406 0.00066063 -0.00032685 -0.00190485 -0.00032685 0.00088850" Properties=species:S:1:pos:R:3:vel:R:3
C 3.28041481 3.84348735 5.35192770 0.00023850 0.00037204 0.00828621
C 0.73943327 8.83819757 1.14509133 -0.00369922 -0.00447674 -0.00021235
C 7.03848335 6.22641848 0.91163904 0.00528195 0.00405914 -0.00088392
C 9.53880761 1.20664614 5.19182767 0.00199815 0.00547409 -0.00295049
C 4.53268731 3.88837465 4.73007348 0.00314182 -0.00074411 -0.00098528
C 12.21973309 8.58966802 1.38516972 -0.00101473 0.00009830 0.00289156
C 5.85286888 6.22307630 1.64729537 0.00641164 0.00757316 0.00109787
C -2.02618612 1.11348557 4.34884930 -0.00122712 0.00462097 0.00004815
C 5.48608669 3.00346310 5.18475385 -0.01486831 0.00169484 -0.00037473
C 11.22728563 7.69169407 1.01976615 -0.00621053 -0.00313311 -0.00149297
C 4.85018565 7.10566868 1.32293025 0.00212806 0.00769947 -0.00117824
C -1.06261787 1.96719542 4.80428295 -0.00031856 -0.00744799 -0.00104759
C 5.20134173 1.98955825 6.21508067 0.00773897 -0.00542312 0.00343505
C 11.44468770 6.65599325 0.06455677 -0.00402863 0.00920264 0.00131765
C 4.86862216 7.83950960 0.06093540 0.00267303 -0.00177147 -0.00080003
C -1.18775002 2.73965877 5.95882629 -0.00424463 -0.00217259 -0.00615592
C 7.11527878 2.19190327 0.70527037 -0.00847336 0.00313783 0.00903731
C 9.71326232 6.81020949 5.54659773 0.00088454 0.00137004 0.00711380
C 3.33081738 7.84396702 5.52423895 0.00951293 -0.00567019 -0.00432635
C 0.44049621 3.09253226 0.46644293 -0.00119181 -0.00055513 0.00472153
C 6.08998708 3.04437431 0.20770093 0.00208588 0.00362691 0.00802369
C -2.13014319 7.69444230 6.13636545 0.00459087 -0.00093877 0.00643846
C 4.38646641 7.13281002 6.10976895 -0.00572838 -0.00115912 0.00397261
C 12.60778970 2.13963635 0.01331772 0.00069881 0.00164926 0.00531262
C 2.06502695 5.13447550 3.64308489 0.00536219 0.00926144 0.00765013
C 1.78222249 0.59673272 2.57642369 0.01083269 -0.00015555 -0.00755320
C 8.19466239 4.75425279 2.42062092 -0.00459571 0.00081264 0.00032236
C 8.82830102 9.38514135 3.50839491 0.00222462 0.00203916 0.00356899
C 0.79565956 5.84922621 3.35685968 0.00708839 -0.00717999 0.00159134
C 2.90400894 1.63465474 2.86410090 -0.00104031 -0.00814182 0.00042421
C 9.36154134 3.89267354 2.57201627 -0.00852314 -0.00354775 0.00043811
C 7.54230667 8.50471358 3.29483313 0.00120128 -0.00398501 -0.00200396
C -0.06023321 3.70792136 11.05785733 0.00243647 0.00298866 -0.01167360
C -2.38041621 8.63029424 7.07529643 0.00939867 -0.00285280 -0.00135502
C 4.21076248 6.32398507 7.20299225 -0.00540741 -0.00014552 0.00059498
C 6.60658900 1.22466420 11.19255019 -0.00507739 0.00212379 -0.00547362
C 1.18582807 3.62409171 10.46054909 -0.00011413 0.00317586 -0.00068512
C 9.32124399 8.47690924 7.77189980 0.00510945 0.00529170 0.00809108
C 2.92231275 6.36713658 7.85441388 0.00081574 0.00151936 -0.00768189
C 34.23254088 1.04632384 10.50830331 0.00019786 -0.00389161 0.00540566
C 2.14963999 2.69496178 10.76334810 0.00382317 0.00075781 -0.00039173
C 8.32722836 7.65556546 7.37465318 0.00277166 -0.00022547 0.00257512
C 1.90259906 7.08533784 7.38071184 -0.00225740 0.01025273 0.00260617
C -4.26790172 1.94115667 10.77845999 0.00508597 -0.01144890 0.00703678
C 1.84124370 1.77745776 11.81278784 -0.00217120 -0.00253777 -0.00484685
C 8.50924259 6.78414964 6.23271679 -0.00425031 0.00364230 -0.00180069
C 2.13576380 7.99868870 6.21896574 0.00763030 -0.00315188 0.00301420
C -4.38722708 2.82691634 11.91411837 -0.00188013 -0.00409056 0.00071190
C 3.88088909 1.88154702 6.71270498 0.00062958 -0.00060763 0.00190157
C 6.70180334 7.02039201 11.57585945 0.00365575 -0.00403842 0.00046678
C -0.01697040 7.75053747 11.51861928 0.00207345 0.00106575 0.00454862
C -2.38963096 2.58637064 6.70182369 0.00241210 -0.00208673 0.00163340
C 2.95961301 2.83995660 6.27191544 -0.00243898 0.00264288 -0.00806642
C -5.65747710 7.88931660 12.01824739 -0.00460463 0.00064350 0.00076759
C 1.00313794 6.90920198 11.91727932 0.00452247 -0.00218465 0.00272721
C 9.44449080 1.98784359 6.36653643 -0.00424415 -0.00245947 0.00212495
C -1.10021104 5.22274948 9.45494365 -0.00229535 0.00087125 -0.00149816
C -1.28849067 0.11418322 8.49321084 0.00192818 0.00251789 -0.00080561
C 5.17971788 4.78424104 8.82341033 0.00278628 0.00029161 0.00726512
C 5.57504655 9.59428067 9.82237786 0.00829742 -0.00431783 0.00814777
C -2.27720238 6.15815929 9.30954704 0.00273860 -0.00182934 -0.00240131
C 0.05802176 0.78650810 8.75710603 -0.00454785 -0.00359921 -0.00388654
C 6.32352812 3.81368217 9.02947074 -0.00117972 0.00298124 -0.00111508
C 4.41064820 8.70816447 9.65657768 -0.00494371 -0.00119045 0.00482886
C -2.78750188 3.38256860 17.10535512 -0.00198286 0.00124859 -0.00619867
C -5.79258603 8.67061817 13.17469255 0.00333890 0.00027667 0.00255685
C 0.78880888 5.92746547 12.90276168 -0.00562031 -0.00348185 -0.00494452
C 3.69221861 1.12376638 17.31837955 -0.00017200 0.00798196 0.00330963
C -1.52750466 3.35189213 16.51221070 -0.00894591 -0.00309518 -0.00264291
C 6.23675519 8.62147511 13.82205697 0.01118705 -0.00646101 -0.00545105
C -0.41949544 5.89630844 13.60878037 -0.00150969 0.00316677 -0.00053416
C 31.25578079 1.32482287 16.74354786 -0.00310949 -0.00806888 0.00010438
C -0.54229782 2.60318245 17.04842171 0.01006267 0.00462196 0.00037611
C 5.31997386 7.66659927 13.49156260 0.00279165 -0.00334534 0.00001031
C -1.38539734 6.89826465 13.30480847 0.00734373 -0.00226701 -0.00119413
C -7.22590085 2.18651885 17.02218171 -0.00155602 0.00358981 0.00516715
C -0.74534518 1.85678285 18.28838188 0.00600363 -0.00255402 0.00398936
C 5.48761571 6.97753257 12.30006358 -0.00316650 0.00158200 0.00550902
C -1.19220965 7.84945204 12.27602417 0.00296823 -0.00466659 -0.00114938
C -7.23954366 3.00903370 18.16052661 0.00616428 -0.00016976 -0.00970708
C 0.66823993 1.80717943 12.49628269 0.00311378 0.00097061 0.00084002
C 3.74296016 6.85107615 17.67534736 0.00245243 0.01013256 -0.00397982
C -2.85347633 7.71970936 17.84693778 0.00119050 -0.00387377 -0.00190961
C -5.58499473 2.70259755 12.69316056 0.00163769 -0.00456587 0.00021222
C -0.22680931 2.84566481 12.17744002 -0.00159950 -0.00258887 -0.00147426
C -8.50290998 7.89343679 18.06411102 0.00137409 0.00327966 -0.00458217
C -1.88099065 6.82417908 18.20062785 0.00033510 0.00175162 0.01049528
C 6.50753327 2.10100021 12.35113038 -0.00516568 -0.00664731 0.00270080
C -3.79995748 4.94894747 15.51576513 -0.00341398 0.00142482 -0.00205824
C -4.31553396 0.14970964 14.48938157 0.00481092 -0.00860610 0.00207594
C 2.03035580 4.49535960 14.47120758 -0.00334940 -0.00186263 -0.00338241
C 2.27563290 9.49647298 15.79500964 -0.00296279 0.00099328 0.00097434
C -4.91437799 5.91783072 15.44073198 -0.00116986 0.00220729 0.00286874
C -3.30811780 1.27806168 14.59218958 -0.00651750 -0.00604529 -0.00222812
C 3.34576084 3.77223036 14.67002429 0.00291143 0.00847995 -0.00611755
C 1.02752220 8.67962406 15.57192455 0.00076028 0.00218706 0.00285920
C -5.68406083 3.78553739 23.49468271 -0.00078119 -0.00184189 -0.00425991
C -8.62709293 8.68742041 19.27431627 0.00099019 0.00529887 0.00063336
C -2.08274914 5.76760708 19.09710763 0.00275405 -0.00471391 0.00587724
C 0.78854326 1.26057810 23.33952767 -0.00110015 -0.00352881 -0.00318796
C -4.46792434 3.60303004 22.74375157 -0.00236859 -0.00435711 -0.00287090
C 3.31466601 8.38158402 20.00502655 0.00625907 -0.00434052 -0.00402802
C -3.34134706 5.77259818 19.75644169 -0.00270329 0.00174742 0.00316270
C 28.34347391 1.35270326 22.69718474 0.01061933 0.00290343 0.00306627
C -3.45969630 2.79414165 23.23012221 -0.00847838 0.00119889 0.00402534
C 2.34320017 7.48975993 19.54184395 -0.00486077 0.01231122 0.00492109
C -4.26590821 6.76786631 19.50147011 -0.00835811 -0.00129440 -0.00236613
C -10.22910096 2.36235040 23.09622077 -0.00188091 0.00767423 0.00287999
C 8.40365454 2.12934601 0.03924190 0.00786019 -0.00350288 -0.00900145
C 2.56318929 6.74203745 18.36383334 -0.00385548 -0.00263989 -0.00436116
C -4.13831565 7.68174087 18.45777624 0.00034699 0.00917994 0.00026110
C -10.44324322 3.19102945 24.14819566 0.00026187 -0.00300399 -0.00317872
C -2.01478541 1.90371190 18.85299945 0.00085841 -0.00538258 -0.00110828
C 0.75045778 6.53757581 24.08022327 -0.00609732 0.00592895 0.00276824
C -5.93264129 7.78606993 23.82318453 0.00251837 -0.00042719 0.00608854
C -8.43267007 3.01806072 18.94593537 -0.00922416 0.00658097 0.00168943
C -3.05922669 2.60829761 18.26256845 -0.00626048 0.00018911 0.00175066
C 0.90829146 8.00496969 0.06711079 0.00436924 -0.00248667 -0.00159181
C -4.84704601 7.06678210 24.20361055 -0.00340008 -0.00615519 -0.00319850
C 3.48847036 1.96161647 18.42987527 0.00471337 0.00353786 -0.00567958
C -6.77988239 5.21322189 21.80062321 -0.00567836 0.00390170 -0.00010098
C -7.26796851 0.40969536 20.79589084 0.00179818 -0.00398797 0.00405492
C -0.91067885 4.33319540 20.65677113 -0.00900350 0.00250773 0.00240625
C -0.40126633 9.47620441 21.57015417 0.00592189 -0.00418693 0.00411676
C -7.86126227 6.24514699 21.48596014 0.00722009 0.00097202 0.00228049
C -6.06861405 1.25035955 21.04372779 -0.00285835 0.00219496 -0.00262243
C 0.18579035 3.39372021 20.87774873 0.00566663 0.00030303 -0.00240038
C -1.68153876 8.69878262 21.31122376 0.00678618 0.00262630 0.00544233
C 3.55470448 13.54090148 5.25756586 0.00318344 -0.00240463 -0.00508995
C 0.42153524 18.29669034 0.74716342 -0.00735036 0.00083418 -0.00728396
C 6.98463698 15.54384736 0.84906221 0.00217113 0.00045777 0.00502849
C 9.83558833 10.87435524 5.05335893 0.00670640 0.00485136 0.00577189
C 4.74730796 13.39015282 4.50532850 0.00716386 -0.00051101 -0.00234845
C 12.33198006 18.00667493 1.71096026 0.00116396 0.00197572 -0.00350744
C 5.84659977 15.73743739 1.66479314 -0.00710654 -0.00081463 -0.00301207
C -2.10264385 10.89001519 4.40470133 -0.00309145 -0.00409208 -0.00239687
C 5.72335543 12.55046174 4.95121700 0.00217900 -0.00250738 0.00151196
C 11.40101862 17.11752612 1.35470228 0.00714220 -0.00381478 -0.00337349
C 4.81518588 16.55321899 1.21719651 0.00259517 0.00111670 0.00415698
C -1.19766580 11.81437280 4.76189458 0.00159720 -0.00666921 0.00006434
C 5.53521507 11.76963729 6.10784569 0.00614840 0.00119813 0.00315982
C 11.72165419 16.27602298 0.25485604 -0.00275286 -0.00257058 -0.00166260
C 4.95146490 17.31817169 0.02886683 -0.00068510 0.00132807 0.00079450
C -1.29675109 12.67852677 5.85207541 -0.00752106 0.00072971 0.00861353
C 7.03025131 11.74932883 0.61376649 0.00258170 0.00264620 -0.00294491
C 9.82447057 16.49275107 5.37388022 0.00135437 -0.00508445 0.00236118
C 3.29337403 17.31978177 5.38567053 0.00197105 -0.00627930 0.00069116
C 0.58069936 12.72043089 0.65760393 0.00505881 0.00546740 -0.00270263
C 6.06737396 12.57293438 0.13367708 -0.00663359 -0.00371412 0.00391626
C -2.63064293 17.24475539 5.98197945 -0.00258891 -0.00052151 0.00447838
C 4.34981466 16.61589964 5.92940131 0.00120529 0.00363611 -0.00733158
C 0.65971944 11.41938364 24.36438132 0.00057986 -0.00089675 0.00200152
C 2.41444691 14.87874656 3.64552264 -0.00082072 -0.00561700 0.00002124
C 1.64120597 10.44619890 2.63704954 0.00306065 -0.00447815 0.00693567
C 8.28918698 14.25164229 2.39162074 0.00181154 0.00595978 0.00723880
C 8.56279564 19.10509640 3.22203193 0.00026250 0.00597783 0.00295148
C 1.20235262 15.81484402 3.44269934 -0.00302391 -0.00103331 -0.00598423
C 2.69604059 11.38691694 2.87325176 0.00714478 -0.00033892 -0.00014932
C 9.48330221 13.42277703 2.39209863 -0.00224294 -0.00372193 0.00557511
C 7.39147544 18.16677898 3.01916802 0.00106426 0.00263886 -0.00137481
C 0.18678969 13.60731794 11.15437664 -0.00473695 0.00181138 -0.00865337
C -2.74876942 18.03311776 7.13812590 0.00474940 -0.00558848 0.00545496
C 4.14038036 15.84434633 7.08481027 -0.00166288 -0.00686208 -0.01017457
C 6.77569989 10.91554149 11.39329351 -0.00031045 0.00582153 0.00762152
C 1.47202347 13.62229695 10.60086563 0.00486502 -0.00580822 -0.00101900
C 9.39897485 18.04565752 7.67254494 -0.00601195 0.00146888 0.00497898
C 2.87028292 15.85720785 7.64129725 -0.00476968 -0.00588718 -0.00448334
C -4.99113206 11.15859964 10.49279027 -0.00525930 0.00037800 0.00478736
C 2.38377292 12.65222058 10.90455043 -0.00104744 0.00587133 -0.00604756
C 8.45837799 17.08757136 7.29785888 -0.00091846 0.00572668 0.00112282
C 1.79531867 16.57317063 7.13692016 -0.00369869 0.00185554 -0.00132571
C -3.94570866 11.92955667 11.01181343 -0.00238455 0.00694580 -0.00127334
C 2.12759128 11.73925069 11.99651258 -0.00034587 0.00100793 0.00025141
C 8.59480016 16.35066965 6.11022328 0.00155525 -0.00327711 0.00209817
C 2.02698153 17.36352927 5.98346569 0.00009916 -0.00306040 -0.00049410
C -4.21076073 12.74142358 12.12960913 -0.00260804 -0.00513556 0.00238846
C 4.30773235 11.77237044 6.77558885 -0.00130878 -0.00039257 -0.00650332
C 6.82253900 16.59333106 11.69891458 0.00161640 -0.00408501 0.00165172
C 0.15141024 17.24034382 11.42517669 -0.00557085 -0.00035570 0.00105599
C -2.54767944 12.65063643 6.48740899 0.00329081 -0.00234805 -0.00319393
C 3.30069878 12.58754525 6.33993865 0.00290653 -0.00319916 0.00220236
C -5.36826681 17.48034756 12.05710927 0.00413942 0.00666597 -0.00381930
C 1.24321928 16.54614820 12.00839671 0.00465221 -0.00413383 0.00087914
C 9.60513046 11.53452635 6.21808167 -0.00647765 -0.00187955 -0.00119535
C -1.09892575 14.85697954 9.46796411 0.00298348 -0.00157154 -0.00093940
C -1.23381274 10.04127174 8.52134570 0.00172877 0.00655183 0.00331514
C 5.31749798 14.46423256 8.70847599 0.00100024 -0.00479475 0.00129458
C 5.68812892 19.03107441 9.60872113 -0.00471747 -0.00738121 -0.00231704
C -2.46126707 15.44653036 9.23427480 -0.00185955 0.00399531 -0.00368065
C -0.12715849 10.99462255 8.65177885 -0.00655405 0.00345162 -0.00820564
C 6.44597749 13.50764932 8.74952443 0.00019995 -0.00034777 0.00774077
C 4.45118422 18.16314388 9.44547666 -0.00011617 0.00555324 0.00184882
C -2.92632591 13.41808408 17.29409482 0.00033446 0.00018790 0.00174517
C -5.44011850 18.18171077 13.24219998 0.00353986 0.00323309 0.00107229
C 1.00273066 15.65841589 13.09844269 0.00126908 0.00163281 -0.00346721
C 3.66792942 10.69210879 17.32419843 -0.00278062 -0.00401689 -0.00092161
C -1.69082690 13.46406066 16.63007248 0.00553073 -0.00307785 -0.00810200
C 6.32664759 18.32512300 13.81501434 0.00072320 0.00083429 0.00508684
C -0.25696096 15.86117663 13.77937903 -0.00517010 0.00324792 -0.00067138
C 31.25550353 10.83166808 16.77130612 0.00437548 0.00110045 0.00304057
C -0.65291494 12.59701392 16.98444707 0.00185102 -0.00028073 0.00396876
C 5.36533364 17.39839499 13.42468521 -0.00316293 -0.00154000 0.00274729
C -1.18652648 16.73749663 13.38088599 0.00318435 0.00053959 -0.00036395
C -7.29980528 11.73886565 17.13201643 0.00741913 -0.00688557 0.00417554
C -0.74482149 11.69478141 18.06167628 -0.00122315 -0.00525771 -0.00407308
C 5.59752054 16.52017853 12.36392779 -0.00760370 0.00939560 0.00257104
C -1.06333063 17.26792840 12.00315479 0.00260365 -0.00131543 0.00233959
C -7.38871000 12.52697651 18.26667524 -0.00239617 0.00053274 -0.00723478
C 0.87962524 11.80019657 12.61915287 -0.00128678 -0.00531597 -0.00230224
C 3.71614866 16.30523062 17.83429690 -0.00614293 -0.00581232 0.00024807
C -2.98795835 17.24232545 17.79057274 -0.00117970 0.00573287 0.00285755
C -5.49020999 12.81795658 12.73162494 0.00526193 -0.00750484 0.00014527
C -0.08524178 12.69745899 12.18516241 0.00510722 -0.00183364 -0.00215064
C -8.61466014 17.34925898 18.20806258 -0.00022308 -0.00153951 0.00349672
C -1.96768342 16.42402854 18.24128468 0.00016273 -0.00561607 -0.00684286
C 6.60202019 11.77269568 12.44116795 -0.00036591 -0.00335041 0.00119035
C -4.25604359 14.90318379 15.72614969 -0.00196175 -0.00357103 0.00087848
C -4.55385810 9.91960345 14.82788533 0.00108398 -0.00472554 -0.00114678
C 1.98023613 14.24436003 14.73988924 -0.00595894 0.00097765 0.00024078
C 2.51448280 18.98877771 15.70557956 -0.00606434 -0.00542584 -0.00045706
C -5.58846822 15.63770011 15.58624942 0.00249338 0.00057418 -0.00471083
C -3.28841000 10.67195463 15.04254823 -0.00168441 -0.00005393 -0.00072680
C 2.95890711 13.13428275 14.75635571 -0.00318984 -0.00064231 -0.00000396
C 1.38369325 18.01954557 15.49249544 -0.00930369 -0.00268498 -0.00571274
C -5.82557032 13.28537442 23.30838189 -0.00575125 -0.00327381 -0.00919254
C -8.70453239 18.20346307 19.29427310 -0.00273938 -0.00079049 -0.00274851
C -2.19589469 15.61386023 19.37473790 0.00319856 -0.00589294 -0.00543668
C 0.85278372 10.65080694 23.25253429 -0.00009959 0.00209968 -0.00311445
C -4.59877287 13.10686605 22.61812773 -0.00281355 0.00066558 -0.00252409
C 3.39451117 17.93340205 19.98868591 -0.00224999 -0.00223862 0.00245794
C -3.53656209 15.52532992 19.90448795 0.00083194 0.00087385 -0.00257597
C -11.06373378 11.18465535 22.73960329 0.00099839 0.00199018 -0.00096071
C -3.70464732 12.18732871 23.03350138 -0.00152908 -0.00207162 0.00116381
C 2.37189024 17.05652195 19.63317729 0.00677200 -0.00331013 0.00452999
C -4.58474239 16.34209301 19.40725667 -0.00273587 -0.00595571 -0.00044939
C -10.15768687 12.17383212 23.20188631 0.00190100 -0.00119320 0.00153785
C -3.85229762 11.51423240 24.25265959 0.00351223 0.00140896 -0.00039202
C 2.49172899 16.20771368 18.52841748 -0.00248481 -0.00119408 0.00172849
C -4.28858980 17.25507179 18.42546700 -0.00357043 -0.00234120 -0.00239758
C -10.26988775 12.92369110 24.36291729 0.00241338 -0.00193398 -0.00175859
C -1.99707013 11.71877294 18.75565354 0.00170986 -0.00466647 0.00272383
C 0.83782640 16.50582454 23.89267230 0.00517250 -0.00649675 0.00077438
C -5.87729113 17.19291928 23.72704559 0.00391612 -0.00136403 0.00443861
C -8.71372989 12.47298154 18.97507084 0.00349298 -0.00408408 -0.00037456
C -3.08068379 12.49776062 18.32413938 0.00377989 -0.00035547 0.00437049
C -11.44400437 17.45422207 24.07747083 0.00092344 0.00247139 -0.01129338
C -4.87823295 16.25125272 24.09469349 -0.00591478 -0.00203575 -0.00488625
C 3.63861981 11.45228188 18.48598288 0.00332355 -0.00375011 0.00343188
C -6.93338250 14.71888088 21.73852394 0.00055331 0.00016043 0.00130436
C -7.31068007 9.99830885 20.88742642 0.00107929 0.00300202 0.00022531
C -0.97730809 14.12450907 20.90300243 -0.00269098 -0.00631628 0.00794708
C -0.47856220 18.93727716 21.81802575 0.00658533 0.00367250 0.00413946
C -8.16185977 15.64071749 21.53815055 -0.00365194 -0.00329851 0.00411345
C -5.91417287 10.65214923 20.95786931 0.00578852 -0.00837671 -0.00662800
C 0.29369493 13.33156863 20.82754155 0.00239011 -0.00102826 -0.00480917
C -1.76456957 18.16889146 21.67059766 0.00953804 0.00486167 0.00598994
C 3.19364798 23.18041545 5.05261770 0.00013612 -0.00045932 0.00406903
C 0.69328129 28.17412478 1.01892497 0.00873262 0.00067127 -0.00196078
C 6.88726354 25.47266722 0.80095411 0.00012438 -0.00564477 -0.00183435
C 9.67536368 20.51046848 4.86269412 -0.00167589 0.00158841 0.00334566
C 4.35316632 22.94678856 4.32457307 -0.00019882 -0.00467560 -0.00937431
C 12.33507823 27.68313255 1.71013369 0.00529176 -0.00618090 0.00196529
C 5.66263120 25.59754066 1.49194618 0.00147724 -0.00144710 0.00066317
C 37.11206124 20.23160442 4.52431103 0.00978180 0.00614627 0.00171139
C 5.28542485 21.98157749 4.65722149 0.00351709 0.00000029 0.00287842
C 11.45863374 26.72917096 1.27210759 0.00022942 0.00573435 0.00499856
C 4.68223326 26.45966421 1.04438119 -0.00278700 0.00361804 0.00608034
C -1.47054037 21.17927263 4.83037068 -0.00457474 -0.00591714 0.00101306
C 5.11786845 21.20356527 5.77244786 -0.00259669 -0.00435254 0.00284470
C 11.70851199 25.91705268 0.20926288 -0.00495903 -0.00707567 0.00219285
C -7.07212554 27.33870021 24.41457604 -0.00132691 -0.00481796 -0.01074271
C -1.52306622 21.88090696 6.04525409 -0.00445986 0.00863681 -0.00524868
C 6.94720103 21.34742352 0.26243670 -0.00185545 0.00233371 0.00425247
C 9.47868504 26.35100405 5.32327787 0.00925331 0.00060666 -0.00099088
C 2.93487838 27.01481148 5.41130808 0.00187557 0.00213535 -0.00537899
C 0.36828993 22.03363591 0.64173495 0.00036320 -0.00477635 0.00323109
C -6.10740915 22.25839622 24.38050148 -0.00162043 -0.00603487 0.00485208
C -2.44284332 26.78678594 5.90599297 -0.00086716 -0.00626853 0.00864387
C 3.94223559 26.25016813 5.92716192 0.00701743 0.00041419 -0.01062111
C 0.60846232 21.07760052 24.39820169 -0.00823471 0.00376515 -0.00293072
C 2.05876665 24.60649942 3.51588547 -0.00319422 0.00665973 -0.00624727
C 1.65857361 19.73517022 2.26628922 -0.00725071 0.00125227 0.00119554
C 7.95568577 24.00920294 2.40135520 -0.00103437 -0.00235301 -0.00839354
C 8.50205994 28.68971295 3.56781757 -0.00470852 -0.00134737 -0.00044002
C 0.83257437 25.45553338 3.26464783 -0.00580828 -0.00002648 -0.00622029
C 2.94630403 20.45986247 2.50709458 0.00048765 0.00322300 -0.00681371
C 9.04028759 23.05414094 2.69373107 -0.00277472 -0.00761142 0.00625120
C 7.20322054 28.03601947 3.27772944 0.00315523 0.00168549 -0.00166239
C 0.12474233 22.77491920 11.20813910 0.00465323 0.00216310 -0.00177248
C -2.62907202 27.64169273 6.93103650 0.00169900 0.00374752 0.00698594
C 3.79998490 25.38027095 6.99707293 0.00209730 -0.00099665 -0.00325798
C 6.85194881 20.51959349 11.04553051 0.00338814 0.00250213 0.00245525
C 1.23424363 22.56469258 10.40120087 0.00338064 0.00202444 0.00298621
C 9.17567732 27.80225454 7.61194483 0.00387087 0.00730132 0.00658937
C 2.59372734 25.35352660 7.65310112 -0.00153478 -0.00472339 -0.00312220
C 34.21159488 20.54925373 10.64082919 0.00501331 0.00006599 -0.00348535
C 2.20234760 21.64579548 10.66728580 -0.00111442 -0.00152992 0.00305822
C 8.14156454 27.04134543 7.15044249 -0.00087971 0.00154940 0.00221510
C 1.51355239 26.15321010 7.28701232 0.00146432 -0.00195349 -0.00301339
C -4.29445122 21.37316923 11.01444303 0.00382247 0.00142225 0.00580455
C 2.11339692 20.95600376 11.91457898 -0.00358963 -0.00191675 0.00217361
C 8.17961456 26.35039164 5.98549829 0.00435792 -0.00651645 0.00143388
C 1.66554386 26.97228554 6.11334138 0.00293085 0.00784585 0.00282600
C -4.44444896 22.07532442 12.26365409 -0.00962366 0.00000446 -0.00454283
C 3.99616888 21.55145435 6.58961919 0.00749162 -0.00743962 0.00224093
C 6.81523014 26.42738043 11.29512926 0.00131997 -0.00161095 -0.00216240
C 0.12834578 26.77201148 11.38113247 -0.00113813 0.00192032 0.00383510
C -2.71232704 21.95932298 6.70482048 0.00332276 -0.00710556 0.00162970
C 3.02936066 22.44785080 6.21798753 0.00005405 0.00276650 -0.00430181
C -5.53845009 26.73565470 11.96835067 0.00037178 0.00009277 -0.00411364
C 1.15180731 25.92493698 11.85317823 -0.00241957 0.00164715 0.00319510
C 9.43794904 21.21923839 6.04107492 -0.00244709 -0.00097812 -0.00081043
C -1.06222059 24.27374683 9.64416655 -0.00600071 -0.00376196 -0.00021904
C -1.55409270 19.57422700 8.56310458 -0.00179760 0.00154116 0.00022736
C 5.07750570 23.93447578 8.46877981 0.00052379 -0.00140281 0.00258886
C 5.45430287 28.60629337 9.78669882 -0.00064882 0.00260602 0.00353628
C -2.22506975 25.15576554 9.59008873 -0.00007692 0.00927574 0.00238701
C -0.28092063 20.39391126 8.60183590 -0.00503524 0.00006876 -0.00254057
C 6.25083932 23.10361401 8.73766036 0.00017889 0.00171168 0.00218996
C 4.30970345 27.64519131 9.56395570 0.00756887 -0.00068897 -0.00293258
C -2.85221666 22.98043190 17.27943219 0.00778545 -0.00134556 0.00136492
C -5.65246156 27.63549844 13.01951545 -0.00266908 -0.00208841 -0.00363330
C 0.98399971 25.16076502 12.97925495 0.00623107 -0.00038284 -0.00421667
C 3.71619252 20.34387950 17.33589248 -0.00975563 -0.00791643 0.00087562
C -1.61559621 22.88881497 16.65285386 -0.00158531 0.00427346 0.00099855
C 6.45808840 27.70451308 13.76170293 -0.00864568 0.00076841 -0.00295238
C -0.12909001 25.39217314 13.82502381 0.00756085 0.00292910 0.00160539
C 31.24427365 20.52433113 16.58427297 0.00305094 0.00131535 -0.00873664
C -0.61347157 22.00662566 17.07347300 0.00035189 0.00446056 -0.00015839
C 5.58341222 26.74177890 13.40108750 0.00139912 0.00578566 0.00146905
C -1.10494880 26.32265711 13.41557096 -0.00405077 -0.00335887 -0.00554885
C -7.30319587 21.47252947 16.89676236 0.00611502 0.00018462 -0.00295964
C -0.80664134 21.24383191 18.26464043 -0.00121239 0.00325050 -0.00832797
C 5.64869705 26.23241894 12.08403288 -0.00015572 -0.00530305 0.00573416
C -1.05572980 26.95935379 12.22314124 -0.00708398 0.00221040 0.00251660
C -7.46528868 22.34473549 18.04438116 -0.00330767 -0.00652822 0.00139114
C 0.94606636 21.05941918 12.71070455 0.00029384 0.00409901 -0.00050641
C 3.99999669 26.14300760 17.78508455 0.00041300 0.00156411 -0.00493329
C -2.60312795 26.81019693 17.70832556 0.00465820 -0.00702804 -0.00188030
C -5.58895204 22.02364123 13.01317133 0.00128640 0.00396334 -0.00190259
C -0.06119931 21.95797237 12.32357922 -0.00015061 0.00049840 -0.00468305
C -8.32585397 27.12856376 18.20054909 -0.00291079 -0.00016239 0.00859428
C -1.75500553 25.84661282 18.11770269 -0.00549418 0.00583059 -0.00080904
C 6.59885759 21.36291428 12.10518892 0.00454104 -0.00265656 0.00102682
C -4.00901810 24.45754689 15.68423449 0.00229303 0.00590925 -0.00383673
C -4.19371977 19.40587006 14.87180602 0.00040272 -0.00012339 -0.00179782
C 2.30355078 23.80091919 14.58543157 0.00122827 0.00520814 0.00115116
C 2.61018766 28.71981610 15.73257425 0.00455944 -0.00115019 -0.00156438
C -5.18166061 25.29608707 15.51234638 -0.00265571 0.00228683 -0.00258722
C -3.00175438 20.25239386 15.00635283 0.00022997 0.00067502 -0.00699598
C 3.25459155 22.69786974 14.79036715 -0.00866114 0.00164860 -0.00054765
C 1.54772283 27.68358053 15.53815506 -0.00064236 0.00417547 -0.00291153
C -5.88497161 23.10913918 23.25221767 0.00434526 -0.00474534 -0.00538771
C -8.49210800 27.97929781 19.27860414 -0.00555586 -0.00049855 0.00058328
C -1.97777304 25.09990744 19.27306918 0.00322940 0.00109885 -0.00031214
C 0.90324751 20.21973722 23.38084906 -0.00233783 -0.00499784 0.00692537
C -4.67672790 23.11202644 22.60583044 0.00473404 0.00506860 0.00238792
C 3.44271945 27.91365537 19.99759494 0.00177236 -0.00047926 0.00669294
C -3.24522042 25.14938581 19.94577182 0.00336210 -0.00330484 0.00156785
C 28.00404986 20.58550329 22.79112547 0.00011382 -0.00518060 -0.00165409
C -3.72112915 22.21668934 22.95214573 -0.00043535 0.00494794 -0.00453094
C 2.54110327 26.94122361 19.56477655 -0.00477660 0.00618647 0.00646555
C -4.13905093 26.11589693 19.51970932 -0.00504742 0.00437284 -0.00456490
C -10.54133682 21.62500732 22.95838084 -0.00048377 -0.00254610 -0.00207276
C -3.88406055 21.29386090 23.93475363 -0.00878053 -0.00275277 0.00539885
C 2.78981467 26.01720986 18.49856533 0.00877210 -0.00167739 0.00214877
C -3.83579571 26.94635028 18.41450675 -0.00484818 -0.00048578 0.00537619
C -10.61029199 22.31948368 24.16997929 0.00233434 0.00257239 0.00221493
C -2.06282652 21.29803787 18.84846903 -0.00986800 0.01347445 -0.00701586
C 0.94648606 26.00296178 24.00600811 -0.00091556 0.00315946 -0.00862275
C -5.84321414 27.20601057 23.67161113 0.00218498 -0.00054843 0.00140893
C -8.60035041 22.20633710 18.80693135 0.00384158 0.00525239 -0.00082638
C -3.03672102 22.15757952 18.43337338 -0.00648781 -0.00021044 0.00345598
C -11.15191400 27.30641390 24.30466350 0.00005043 -0.00209692 -0.00449219
C -4.97502898 26.25138555 24.00919527 -0.00340135 -0.00154240 0.00310229
C 3.50546262 21.23709897 18.43328066 -0.00793629 -0.00214937 0.00018653
C -7.17165286 24.50824244 21.75723879 0.00284931 -0.00612804 -0.00763842
C -7.40275310 19.58504865 20.79707117 0.00271524 -0.00035828 -0.00372496
C -0.86667202 23.81827194 20.88038409 0.00120767 0.00567070 -0.00673189
C -0.35495097 28.70251271 21.88565542 -0.00201825 -0.00418282 -0.00524606
C -8.38422650 25.36986116 21.72767417 -0.00116867 0.00398091 -0.00554196
C -6.18803364 20.43384540 20.88185496 0.00114412 -0.00324041 -0.00096090
C 0.13366536 22.74495726 21.16864458 0.00082489 0.00256610 0.00309379
C -1.46215305 27.71119260 21.74839023 0.00155149 0.00250221 0.00290413
C 16.24113804 3.54145356 5.00988906 -0.00510730 0.00350376 -0.00275994
C 13.51369717 8.43789107 0.86302172 0.00570504 0.00292530 -0.00023521
C 20.48445511 5.77235478 1.29420203 0.00481166 -0.00256377 0.00070281
C 22.99679404 0.99457189 5.11304166 -0.00204964 -0.00515934 0.00536388
C 17.52342480 3.61063147 4.46971226 -0.00084221 -0.00062558 -0.00241904
C 25.48178921 8.32140424 1.92139297 0.00431695 -0.00245066 -0.00756133
C 19.25893427 5.81100309 2.03704729 0.00086066 -0.00948397 0.00014043
C 10.79410869 1.17660868 4.55546651 0.00059209 0.00175497 -0.00022458
C 18.58195983 2.76196037 4.90558647 -0.00835622 -0.00146564 -0.00106172
C 24.52017872 7.47377038 1.44595665 0.00516765 0.00145467 -0.00332160
C 18.19564443 6.61695267 1.60918838 -0.00853069 -0.00413786 0.00344691
C 11.83422485 1.89326605 4.97398834 0.00048170 0.00205242 0.00344144
C 18.38944763 1.81685242 5.90994312 0.00277072 0.00721029 -0.00354960
C 24.77116597 6.64045543 0.27961953 0.00267632 -0.00120453 -0.00050807
C 18.39160492 7.52876270 0.51784528 -0.00402577 -0.00520041 -0.00680435
C 11.74235312 2.69649541 6.12529810 -0.00518243 0.00813125 -0.00805503
C 20.37619697 2.07355356 0.42044759 0.00454544 -0.00120969 0.00222188
C 22.85069448 6.88784328 5.54315692 -0.00230066 0.00059963 0.00078652
C 16.40240281 7.42380699 5.45139144 -0.00373813 0.00642120 -0.00357257
C 13.64167607 2.95566438 0.51914793 0.00386499 -0.00396673 -0.00148808
C 7.35339155 2.99481565 24.42019391 0.00287196 -0.00595918 0.00261524
C 10.71563175 7.66157658 5.92023470 -0.00148886 -0.00282853 -0.00722594
C 17.34214089 6.59210991 5.96163578 0.00571712 0.00179874 0.00586345
C 13.62141029 1.76902471 24.28811954 -0.00175503 -0.00758475 -0.00271769
C 15.08069111 4.99986922 3.53334888 0.01006383 -0.00772692 0.00235882
C 14.77243434 0.29815351 2.51936226 -0.00491560 0.00178470 0.00215945
C 21.69397961 4.11690707 2.65417241 -0.00057665 0.00226686 0.00282414
C 21.75679152 9.41760804 3.59156474 -0.00545867 -0.00229802 0.00258915
C 13.99448410 6.01890411 3.37531224 -0.00705767 0.00564542 0.00238272
C 15.94238400 1.15182203 2.54767832 0.00345693 0.00645014 0.00082460
C 22.78378967 3.01139531 2.75255470 -0.00403400 -0.00195342 -0.00441625