2880
Time=28000.00000000 pbc="T T T" Lattice="39.53115377 0.00000000 0.00000000 0.00000000 28.93563630 0.00000000 -12.02324129 0.00000000 24.38240445" energy=-18397.91060615 virial="22.35708437 -8.38835194 -51.50066581 -8.38835194 -0.62489380 -7.70569606 -51.50066581 -7.70569606 -40.65000949" stress="0.00327869 -0.00025590 -0.00182314 -0.00025590 0.00256053 -0.00021454 -0.00182314 -0.00021454 0.00107350" Properties=species:S:1:pos:R:3:vel:R:3
C 3.42846579 3.49335836 5.19012794 0.00180974 0.00496897 -0.00014510
C 0.39688707 8.71735504 0.91675204 0.00329106 -0.00011394 -0.00226280
C 6.94225639 5.95836167 1.05266364 0.00448213 -0.00077762 -0.00330673
C 9.59998594 0.94661007 5.16659458 0.00317864 -0.00403646 0.00232731
C 4.55631070 3.10050175 4.44627081 -0.00019785 0.00068530 0.00365679
C 12.29361755 8.31930235 1.61900009 0.00256836 0.00236769 0.00212245
C 5.69268450 5.94911741 1.65231325 0.00055034 -0.00460097 0.00377875
C -2.01847472 0.95673632 4.46046529 0.00805423 -0.00287959 0.00527187
C 5.44436923 2.18633715 4.94622700 0.00405377 -0.00457684 -0.00117848
C 11.29761298 7.46611010 1.11771716 0.00168485 0.00349983 0.00922934
C 4.64646938 6.74362238 1.30076622 0.00409801 -0.00384102 0.00332859
C -1.08507245 1.80879713 4.97133018 0.00082334 0.00594997 -0.00222691
C 5.14753867 1.41781151 6.10436177 0.00956049 0.00094999 0.00578953
C -0.49528803 6.68619005 24.31108589 0.00110455 -0.00504803 -0.00844245
C 4.83771476 7.69503497 0.31678787 -0.00006031 0.00015484 0.00001210
C -1.42179731 2.71928384 6.03096104 0.00132988 0.00051946 0.00633030
C 6.74320297 2.15089141 0.70884212 0.00727015 0.00672960 -0.00028676
C 9.89048145 6.81758345 5.44450785 -0.00122360 -0.01311123 -0.00617320
C 3.39375930 7.47373793 5.46602448 0.00022503 0.00047755 -0.00321598
C 0.25216962 2.77680843 0.36513514 -0.00870950 -0.00299266 0.00344977
C 5.79775150 2.94401225 0.12280444 0.00164693 0.00036623 0.00000827
C -2.35944785 7.86045992 5.87800218 0.00573572 -0.00301756 0.00208311
C 4.34445455 6.59461783 5.92892434 0.00287236 -0.00025001 -0.00447532
C 12.66033069 1.93261713 0.30135991 0.00233872 0.00158645 0.00038864
C 2.20639906 4.73087437 3.48533473 0.00271225 -0.00077570 -0.00277309
C 1.50564602 0.21812241 2.50388571 -0.00526430 -0.00026918 0.00516759
C 8.07933377 4.37637521 2.45672840 0.00097761 0.00214237 -0.00255564
C 8.68162740 9.33519081 3.60139424 0.00278164 -0.00156297 -0.00519330
C 0.89861257 5.56397402 3.29940351 0.00001903 0.00570365 0.00627459
C 2.68473129 1.10141290 2.61754642 0.00010048 -0.00257855 0.00552935
C 9.31678890 3.58688749 2.59430327 -0.00056845 -0.00292119 0.00351385
C 7.46547741 8.44724080 3.32189496 0.00823790 0.00595972 -0.00090379
C 0.21923639 3.69653129 11.30767460 0.00083818 -0.00228935 -0.00809867
C -2.45237028 8.53182969 7.14052012 0.00247322 0.00001072 0.00068900
C 4.21030510 5.87427861 7.11446381 -0.00166867 -0.00288132 -0.00376269
C 6.73166001 1.03127958 11.25071803 -0.00272408 -0.00341302 -0.00647596
C 1.40629719 3.58610255 10.54251235 -0.01022000 -0.00588373 0.00447877
C 9.41361309 8.31633831 7.76910375 0.00383205 0.00080260 -0.00584335
C 2.92606029 6.01522669 7.80081615 0.00434703 0.00209488 0.00298834
C -5.05422380 1.09469458 10.61817691 -0.00467181 0.00822427 0.00127736
C 2.44789701 2.75328414 10.96005951 0.00478952 -0.00138481 -0.00105431
C 8.44824232 7.48876893 7.22578346 0.00228660 0.00148951 0.00197591
C 2.02810405 6.94716086 7.35351983 0.00991518 -0.00082272 0.00162509
C -4.11748721 2.00908042 11.08523471 0.00011462 -0.00440476 0.00278367
C 2.26619428 2.00306722 12.08191059 -0.00310478 0.00037232 -0.00216599
C 8.66298744 6.66929277 6.06421341 0.00024198 0.00434075 0.00071896
C 2.26694380 7.70026775 6.17496980 -0.00401943 0.00386208 0.00084189
C -4.33465551 2.92243014 12.15498844 -0.00166746 0.00270821 0.00263183
C 4.05050220 1.90121737 6.86018341 -0.00695348 -0.00058136 0.00393486
C 6.82635886 6.98035017 11.57708827 0.00297300 -0.00015283 0.00097064
C 0.16059398 7.74053798 11.63664891 0.00232826 0.00013018 0.00034975
C -2.68603005 2.62506661 6.58992650 -0.00293260 -0.00490683 0.00589693
C 3.20165756 2.90424545 6.42942167 0.00024719 0.00816241 0.00104546
C -5.25554869 7.81180985 11.98508341 0.00154395 0.00517063 -0.00120205
C 1.20197724 6.87038131 11.96624037 -0.00149920 -0.00288329 -0.00360057
C 9.27690228 1.90671660 6.12491211 -0.00420090 0.00150089 0.00309600
C -1.01466872 5.11756289 9.69635136 -0.00379489 0.00080799 0.00763289
C -1.33925972 0.25812769 8.77819361 -0.00236377 -0.00646530 0.00087095
C 5.19585187 4.48628465 8.78226412 0.00359597 -0.00190556 -0.00707591
C 5.18861751 9.46102318 9.87329630 -0.00929339 0.00081641 0.00468288
C -2.06764749 6.09608971 9.42742260 -0.00728236 0.00118882 0.00290879
C -0.23605660 1.25183826 8.84295430 -0.00103749 0.00009774 -0.00119565
C 6.44197250 3.73963869 9.09838484 -0.00594969 0.00229754 -0.00305383
C 4.03768706 8.40363503 9.89670479 -0.00155185 -0.00476116 0.00398171
C -2.68349127 3.74805591 17.44546937 -0.00080739 0.00097093 0.00052484
C -5.56185122 8.68783670 13.06618685 0.00286134 -0.00035391 -0.00010873
C 0.91744097 6.01896581 13.06135302 0.00007651 0.00207192 -0.00682408
C 3.71899456 1.28454110 17.30933073 -0.00086984 -0.00424800 0.00254639
C -1.56959354 3.52849453 16.67041432 0.00340892 0.00054571 -0.00622423
C 6.41164438 8.42011736 13.90033746 0.00089913 0.00340676 0.00091128
C -0.22836215 6.02664873 13.85180582 -0.00002988 -0.00174716 -0.00340420
C -8.15273894 1.36668107 16.55123843 -0.00361276 -0.00743530 0.00397894
C -0.68192020 2.56135403 17.12426139 -0.00277451 -0.00125139 -0.00191275
C 5.48572893 7.46292393 13.57674582 0.00530740 -0.00270113 -0.00005531
C -1.18799003 6.91352957 13.47591494 0.00518973 0.00639980 -0.00234909
C -7.17945140 2.15524853 17.09672856 0.00323283 0.00042622 -0.00834943
C -0.80316080 1.90604157 18.30498737 -0.00179847 0.00339821 -0.00060274
C 5.63832503 6.72491055 12.37008257 0.00168745 0.00710207 0.00115618
C -1.06771319 7.72204837 12.36054887 -0.00712640 0.00159484 0.00253096
C -7.42007266 3.01194745 18.17655968 -0.00388084 -0.00793280 0.00679415
C 1.13025866 2.12309435 12.85053202 0.00616433 -0.00352309 -0.00238581
C 3.88941913 6.67343717 17.99242585 -0.00380656 -0.00430316 -0.00353989
C -2.54430143 7.56544056 18.07925476 0.00659448 0.00223425 0.00293742
C -5.56304706 2.72194957 12.81393497 -0.00277511 0.00473811 -0.00509807
C 0.05501403 2.87902358 12.41073047 -0.00346884 -0.00366286 -0.00667740
C -8.16755798 8.11419557 18.17413355 -0.00619363 -0.00230508 -0.00775806
C -1.58454408 6.63038201 18.50993430 -0.00195006 0.00051294 0.00257268
C 6.57830453 1.87080739 12.29961234 0.00531716 -0.00269302 -0.00739468
C -3.91148205 5.01645958 15.79598161 0.00676987 -0.00287790 -0.00352334
C -4.60344611 0.13838061 15.07259037 0.00802066 0.00930329 -0.00492281
C 2.19077354 4.52451380 14.47220644 0.00024198 0.00026474 -0.00914443
C 2.81766992 9.01242372 15.80978091 -0.00299501 0.00140622 -0.00187478
C -5.11635350 5.87856909 15.62257260 -0.00717773 -0.00505619 -0.00248018
C -3.43995429 0.97709966 15.41512064 0.00373639 -0.00684129 0.00295987
C 3.57519210 3.84156894 14.49215566 -0.00050074 -0.00136551 -0.00569528
C 1.73844487 8.02796008 15.54609083 0.00260468 -0.00260958 0.00261293
C -5.97183381 3.70446167 23.37754806 0.00625920 0.00267346 -0.00177741
C -8.43913533 8.84110380 19.35177180 -0.00233257 -0.00296109 0.00245576
C -1.80398990 5.77465418 19.54954846 0.00388462 0.00626156 -0.00109479
C 0.79578478 1.09913027 23.58446162 0.00029158 0.00165745 -0.00322483
C -4.80467249 3.49785154 22.61330385 -0.00091421 -0.00394355 -0.00236499
C 3.35931610 8.32949116 20.16826355 -0.00398346 -0.00430152 0.00476130
C -3.00250238 5.95693893 20.28091091 -0.00908761 -0.00480639 -0.00082700
C 28.17614026 1.08092961 22.53200173 -0.00208976 0.00002243 -0.00396089
C -3.83950300 2.66660373 23.15126595 0.00007510 0.00351793 -0.00106380
C 2.36498115 7.48289403 19.69473219 0.00444176 -0.00370093 0.00097766
C -3.90424140 6.90259748 19.92425567 -0.00058761 -0.00198746 0.00246497
C -10.38312794 1.96419885 23.00702041 0.00194904 -0.00160819 0.00191330
C -4.03295866 2.01029779 24.36155361 0.00233513 0.00248063 -0.00447620
C 2.53374789 6.73525360 18.50118515 0.00428761 -0.01061279 -0.00401883
C -3.72669273 7.70726680 18.82533801 -0.00386075 -0.00837294 -0.00009302
C -10.54105638 2.86590055 24.05510727 0.01065442 0.00683453 0.00656840
C -2.02600521 2.06616159 19.02611246 -0.00310994 -0.00288683 -0.00252875
C 0.73279545 6.82477887 23.60568034 0.00342450 -0.00124147 0.00419574
C -5.96720514 7.66472948 23.99364186 -0.00142358 0.00350417 0.00451228
C -8.71981533 3.04063189 18.74475292 -0.00395740 -0.00142920 0.00441398
C -2.96989301 2.98372773 18.56013403 0.00179661 -0.00129434 0.00321976
C -11.41769925 8.01962584 24.07482274 -0.00224608 0.00554402 0.00182253
C -4.98493113 6.79851117 24.29794282 -0.00770972 -0.00288273 -0.00532108
C 3.51744266 2.13025620 18.37187181 0.00066051 -0.00108340 0.00276653
C -7.09958597 5.21512977 21.80045037 -0.00266055 -0.00151268 0.00134989
C -7.34727324 0.30261442 20.71836537 -0.00670717 -0.00637225 -0.00204610
C -0.58082946 4.20587232 21.00930232 0.00280461 0.00405388 0.00216768
C -0.45998304 9.39928927 22.04376312 -0.00143528 0.00310721 -0.00571975
C -8.27638916 6.24650919 21.58923312 -0.00476298 0.00220630 -0.00674499
C -6.11164660 1.04875790 20.80695292 0.00663838 -0.00269034 -0.00304235
C 0.67547498 3.37883831 21.00460298 0.00010842 -0.00655525 0.00314356
C -1.62597211 8.41412157 21.97780022 0.00069267 -0.00231121 0.00758490
C 3.07798460 13.28956938 5.20665554 -0.00019368 0.00453341 -0.00793328
C 0.40851669 17.98923961 0.87489113 -0.00272679 0.00280399 -0.00402525
C 7.08447731 15.47574118 1.09396525 0.00163392 0.00138714 -0.00273972
C 9.83077240 10.70556296 5.30666251 -0.00610223 0.00814123 -0.00394845
C 4.31730417 13.18449896 4.50059668 0.00084344 0.00555325 -0.00562462
C 12.25828213 18.02136794 1.72656002 -0.00714053 -0.01003880 -0.00334528
C 5.84999967 15.46793370 1.75563275 0.00087474 0.00017971 -0.00040487
C 37.07747681 11.01829185 4.37431810 0.00634615 -0.00081179 0.00218494
C 5.34606790 12.38705298 4.96785804 -0.00125255 -0.00378039 0.00294993
C 11.39978989 17.13830400 1.22964579 0.00196871 0.00240586 -0.00272763
C 4.84897621 16.32084725 1.26242168 0.00053485 -0.00653224 -0.00270168
C -1.43255018 11.92012007 4.78907246 0.00683069 -0.00221607 0.00485329
C 5.17994594 11.48524836 6.03567757 -0.00743613 -0.00202789 -0.00168306
C -0.56952285 16.43955084 24.37535959 -0.00825209 0.00130897 0.00256695
C 5.08227689 17.28637533 0.22090427 -0.00229446 -0.00950196 0.00259591
C -1.50726331 12.64445194 5.97271873 -0.00413093 -0.00544210 0.00106151
C 7.03910093 11.57875598 0.72283766 -0.00039483 0.00350658 -0.00384465
C 9.67364536 16.51832423 5.48240974 -0.00130678 0.00034950 -0.00301403
C 3.43407281 17.20878792 5.62551440 0.00148040 -0.00627267 -0.00154307
C 0.63869720 12.66359134 0.41700099 0.00350854 -0.00091025 -0.00002712
C 6.09734527 12.40395768 0.14945890 0.00058214 -0.01043400 0.00328414
C -2.07422801 17.31200084 6.10803511 0.00612166 0.00737050 -0.00384149
C 4.36519010 16.26612782 5.95787158 0.00344521 0.00184005 0.00426023
C 12.47142351 11.48407779 0.51722062 0.00072914 0.00707650 0.00610302
C 2.01470284 14.68618778 3.67941900 -0.00542497 -0.00227158 -0.00034963
C 1.46205667 10.08325776 2.64774350 0.00239817 0.00748286 0.00972354
C 8.17391765 14.01120942 2.73099911 -0.00355697 -0.00006726 -0.00108458
C 8.71494327 19.12240047 3.57659202 -0.00132055 0.00188502 0.00176664
C 0.97210277 15.73447211 3.44217779 0.00070223 0.00323615 0.00249085
C 2.55624064 11.06680830 2.79592265 -0.00621608 -0.00851383 -0.00569589
C 9.24693543 12.99285981 2.82966838 0.00694955 0.00584053 -0.00151936
C 7.44355762 18.34978043 3.37027895 -0.00023994 0.00305978 -0.00440594
C 0.26904737 13.35032344 11.32457795 -0.00382075 0.00132606 0.00244499
C -2.35333368 18.21460799 7.15457398 -0.00504765 0.00200978 0.00095789
C 4.18661120 15.42372663 7.06144260 0.00437122 0.00534767 0.00029180
C 6.54681152 10.83990391 11.40017929 -0.00293257 -0.00451444 -0.00095220
C 1.51739956 13.17026277 10.71086024 -0.00142860 0.00077290 -0.01165532
C 9.37695588 18.28760015 7.64651950 0.00517693 0.00125715 -0.01152125
C 2.98036778 15.51346449 7.74256588 0.00291397 -0.00385870 0.00033044
C 34.35262089 10.90606939 10.21179350 -0.00384953 0.00247202 0.00281192
C 2.49239642 12.34539702 11.16618314 0.00084442 -0.00308713 -0.00424260
C 8.31579966 17.54632649 7.25457118 0.00532850 -0.00301270 0.00233256
C 2.03604162 16.46528788 7.37864075 -0.00683055 -0.00848052 -0.00326147
C -4.23718504 11.82742988 10.66239261 0.00018725 0.00113106 -0.00532054
C 2.24779591 11.54672138 12.30831737 -0.00034681 -0.00121641 -0.00596749
C 8.45390011 16.61401821 6.13544408 0.00134148 0.00330203 -0.00304113
C 2.18132464 17.24443323 6.22486686 -0.00820578 -0.00490672 -0.00365769
C -4.41272443 12.70456187 11.75229729 0.00289027 0.00553804 -0.00070090
C 3.93778746 11.48656530 6.71307134 -0.00286609 -0.00033381 -0.00402826
C 6.56237365 16.51756812 11.46739241 -0.00409971 -0.00714720 0.00288379
C 0.07185971 17.24555692 11.51689074 0.00045602 -0.00063933 -0.00481339
C -2.64020916 12.50944251 6.70308724 -0.00709211 -0.00178339 0.00388833
C 2.98400834 12.39078324 6.35052683 -0.00448986 -0.00406400 0.00535499
C -5.22645686 17.14945067 12.17766910 0.00576657 -0.00095975 0.00835505
C 1.08794225 16.48420821 12.06525575 0.00617307 0.00203210 0.00693228
C 9.52446014 11.55649707 6.39659192 -0.00064625 -0.00599766 0.00696209
C -0.87806640 14.74713942 9.68679503 0.00214919 0.00398619 -0.00013443
C -1.14221915 9.87959530 8.61837910 -0.00948690 -0.00250589 -0.00212164
C 5.40472552 13.99245793 8.64622610 0.00259972 -0.00172064 -0.00220309
C 5.36265584 19.06346050 9.63763905 -0.00224940 0.00112269 0.00427114
C -2.18706179 15.46250406 9.61191492 -0.00753651 -0.00361662 0.00721316
C 0.01688574 10.79586533 8.76576944 -0.00253780 -0.00202850 0.01149904
C 6.79961607 13.48406225 8.87137557 0.00057194 0.00345646 -0.00737867
C 4.13911195 18.18446278 9.42692351 0.00019702 -0.00765361 -0.00145582
C -2.84345731 13.30768403 17.19197021 -0.00195703 -0.00179836 0.00184493
C -5.52769776 18.04256764 13.21603907 -0.00332631 0.00125892 -0.00363561
C 0.90704099 15.59711182 13.14145090 -0.00163933 -0.00613407 -0.00788915
C 3.85309783 10.57926755 17.40804873 0.00695593 0.00056806 0.00777706
C -1.64249993 13.10296668 16.55907408 -0.00270476 0.00341250 -0.00491479
C 6.25530225 18.07574108 13.76104411 -0.00352719 0.00074091 -0.00125731
C -0.28442325 15.68282024 13.85915896 -0.00139414 -0.00668779 -0.00559162
C -8.11775571 10.95323733 16.66215277 -0.00145850 0.00798403 -0.00562446
C -0.68197826 12.19953307 16.92114593 0.00468310 0.00211125 -0.00578785
C 5.25364571 17.20876617 13.40089147 0.00187091 0.00559091 -0.00233366
C -1.26798047 16.58866921 13.44066114 0.00142808 -0.00384199 -0.00246628
C -7.30784143 11.97335548 16.88154993 0.00755516 0.00099664 0.00761739
C -0.81983389 11.43715138 18.10697533 -0.00249233 0.00648730 -0.00349358
C 5.34915288 16.49519459 12.14053242 0.00123533 -0.00046219 -0.00412028
C -1.07973027 17.42793462 12.37505254 -0.00083271 -0.00185675 -0.00080986
C -7.64769201 12.97594486 17.94629071 0.00062133 0.00706616 0.00226298
C 0.98161862 11.65945071 12.92336608 -0.00135523 0.00529342 -0.00427718
C 3.85516031 16.43165135 17.97979659 -0.00088303 0.00242150 -0.00455869
C -2.86451606 17.22332987 17.61140362 -0.01015795 -0.00502594 -0.00368685
C -5.60053179 12.64790390 12.40493536 -0.00773604 0.00178908 0.00051323
C 0.05894105 12.52465687 12.39823101 -0.00059546 -0.00266347 0.00124410
C -8.33019152 16.89984381 18.36118098 0.00340622 -0.00089738 -0.00244911
C -1.87423218 16.39299752 18.06119101 -0.00090755 0.00757865 -0.00236061
C 6.49233535 11.59950272 12.57219513 0.00476424 0.00103280 0.00277119
C -3.84312051 14.64729174 15.44492273 0.00187253 0.00774195 -0.00075110
C -4.44779443 9.97444789 14.83573177 0.00254999 0.00347133 0.00074782
C 2.12418474 14.20300241 14.74740193 0.00396739 -0.00097018 -0.00499587
C 2.69053835 18.95705438 15.72627017 -0.00357046 -0.00328549 -0.00708711
C -4.94891141 15.73367929 15.02508520 -0.00409979 0.00517041 0.00586375
C -3.16785856 10.70056011 15.23957639 -0.00390359 0.00737639 -0.00396709
C 3.30266919 13.33625062 14.93910512 -0.00644886 0.00523133 -0.00459061
C 1.49280175 18.20828832 15.54006977 0.00254041 -0.00838556 -0.00830267
C -5.69000007 13.26317790 23.47306835 0.00076565 -0.00018620 0.00581098
C -8.54144067 17.86683223 19.33971497 0.00086586 -0.00231261 -0.00190365
C -1.99399005 15.53551099 19.17523275 0.00570149 -0.00071132 0.00839556
C 0.67588049 10.75255353 23.71065027 0.00088064 -0.01046192 0.00392264
C -4.49845406 13.06420047 22.79158662 0.01238735 0.00344568 -0.00408265
C 3.27729851 18.25282525 20.05806399 0.00103768 -0.00015682 0.00566142
C -3.21552132 15.63006682 19.82471315 -0.00110996 -0.00440099 -0.00442141
C -11.06633591 10.89876154 22.75991297 -0.00550060 -0.00723241 0.00285468
C -3.51344975 12.18797199 23.20056873 -0.00167242 0.00838499 0.00188621
C 2.27921918 17.37026587 19.59634520 0.00104095 -0.00032633 -0.00202108
C -4.16731440 16.54902972 19.45129988 -0.00277443 0.00860500 0.00587085
C -9.99288655 11.68865637 23.21378677 -0.00341046 -0.00308836 0.00747687
C -3.82798156 11.31982590 24.30000291 0.00308538 -0.00503865 0.00525929
C 2.56329682 16.48808773 18.57373823 0.00481167 0.00552256 0.00322226
C -4.08621080 17.33304518 18.31344460 0.00135217 0.00222341 -0.00433887
C -10.06900178 12.63296606 24.26766468 -0.00473556 0.00118633 -0.00363899
C -2.06112359 11.56533738 18.78265049 -0.00560934 0.00225534 0.00703640
C 0.67794807 16.52431387 23.72903888 0.00082180 -0.00143210 0.00529414
C -5.68540636 17.26783902 23.98381420 0.00776304 -0.00822292 0.00306407
C -8.84513131 12.68953169 18.67162085 -0.00011797 -0.00788309 0.00149979
C -3.06746830 12.41940814 18.29875436 0.00564291 -0.00002310 -0.00227694
C -11.46531230 17.18223416 24.16499098 0.00237797 0.00345332 -0.00886370
C 7.31879105 16.46123389 0.03808227 0.00094469 0.00325997 -0.00069313
C 3.59204203 11.48068578 18.52665039 -0.00146370 0.00172735 -0.00315150
C -6.71257274 14.63582124 21.71898211 0.00054680 0.00259458 -0.00327081
C -7.41814076 10.09334047 21.15189964 0.00232625 0.00154895 -0.00177991
C -0.70722637 14.21859259 20.78139870 -0.00349454 0.00447465 0.00527728
C -0.66217651 19.01360865 21.73826899 0.00021065 -0.00254383 -0.00314693
C -7.91643238 15.54303925 21.58620411 0.00030703 0.00675722 0.00105292
C -6.24091146 10.99514255 21.36492560 -0.00252486 -0.00703739 0.00462966
C 0.54426398 13.48260643 21.05141836 -0.00728295 -0.00074984 -0.00667887
C -2.00869264 18.46477142 21.47502801 0.00417221 0.00212163 0.00156556
C 3.17558205 22.76606330 4.87802670 -0.00635584 -0.00044153 0.00396594
C 0.34017444 27.70180467 0.95814230 0.00360751 0.00129644 0.00362956
C 7.17950699 25.19408481 0.91920645 -0.00535154 -0.00364675 -0.00853906
C 9.90103847 20.43022831 5.19722139 -0.00129707 -0.00740194 -0.00352318
C 4.46083603 22.77809466 4.31934572 0.00561769 -0.00148587 0.00225853
C 12.50144322 27.62763953 1.85226527 0.00273519 0.00019951 0.00577396
C 5.89200688 25.13853777 1.57295150 -0.00816366 -0.00235509 -0.00418742
C -2.07140712 20.39036154 4.46165561 0.00431925 0.00082187 0.00287694
C 5.50823927 22.02192328 4.80116312 0.00798236 0.00029121 0.00172444
C 11.51129557 26.78320333 1.41755365 -0.00102875 -0.00290866 0.00286809
C 4.91908158 26.03836367 1.26012695 -0.00255042 0.00478364 0.00623613
C -1.12155959 21.33257617 4.80062265 -0.00408283 0.00276818 -0.00851391
C 5.26161013 21.19341805 5.93692978 0.00135730 0.00578715 -0.00719843
C 11.64920597 26.01727697 0.22045603 0.00670850 -0.00153831 0.00534152
C 5.13265427 26.98664610 0.17853070 0.00459324 0.00324223 0.00022108
C -1.35207546 22.23982375 5.87882189 0.00048551 0.00622876 -0.00051403
C 6.97927748 21.36413665 0.58572317 0.00165077 -0.00339987 -0.00202969
C 10.13857398 26.07307552 5.71439677 0.00236555 -0.00740341 0.00893426
C 3.23620733 26.87982944 5.44105985 0.00451664 0.00077348 0.00322837
C 0.47526830 21.95434958 0.49535676 0.00170380 -0.00442937 0.00158285
C 5.99458791 22.18150341 0.09951653 -0.00519336 -0.01069366 -0.00652516
C -2.31558117 26.93447602 6.06618908 0.00342567 0.00224726 0.00057331
C 4.13853932 25.92018313 5.82062688 0.00020152 0.00580327 0.00284249
C 12.36349476 21.19596582 0.17827794 -0.00251475 -0.00249282 0.00687753
C 2.01378467 24.17277818 3.37204850 -0.00544075 -0.00020470 -0.00407347
C 1.60416987 19.43255555 2.52458434 -0.00300736 0.00321441 -0.00360367
C 8.28199814 23.95238807 2.64143567 -0.00389460 0.00148115 0.00046640
C 8.64784665 28.44461769 3.51131548 0.00386014 0.00648883 -0.00222919
C 0.88900516 25.12928666 3.10671968 0.00245195 0.00128986 -0.00237965
C 2.87781969 20.19356416 2.66507849 0.00018892 0.00084229 0.01245317
C 9.47018136 23.09198865 2.90819616 -0.00429597 -0.00154629 0.00088633
C 7.50269303 27.52857071 3.21783268 -0.00116421 -0.00186372 0.00423894
C 0.21899453 23.15772836 11.13890665 0.00139479 -0.00550923 0.00307136
C -2.49896240 27.75134743 7.20953666 0.00120461 -0.00042575 -0.00110374
C 3.94234715 25.15284357 7.02644335 0.00098080 0.00405958 -0.00312950
C 6.63755893 20.38294189 11.17067716 0.00532232 0.00319211 0.00105766
C 1.46894836 23.06788923 10.58161307 -0.00284622 -0.00370956 -0.00737410
C 9.47085573 27.78781168 7.74581409 -0.00102510 0.00092853 0.00074789
C 2.72061579 25.41533599 7.75710610 0.00405059 -0.00483313 -0.00007244
C -5.10557147 20.45168185 10.51180273 0.00156957 -0.00308972 0.00160411
C 2.31648078 22.09277397 11.08231395 -0.00054200 0.00385584 0.00310882
C 8.53976965 26.82700527 7.42264633 -0.00252174 0.00378490 0.01159664
C 1.82249999 26.35030369 7.25006213 -0.00282648 0.00700066 0.00127779
C -4.12540605 21.35002747 10.87106394 -0.01098114 0.00190807 -0.00936103
C 2.06410218 21.27183471 12.18621907 -0.00131914 0.00728125 0.00813534
C 8.82287490 26.00282950 6.21450532 -0.00029958 -0.00382565 -0.00270160
C 2.03241297 27.13634741 6.13739893 -0.00905500 0.00666102 0.00030228
C -4.17280359 22.17317788 12.07061977 -0.00528793 -0.00569160 -0.00210569
C 3.95959174 21.12591638 6.47709266 0.00010116 -0.00833849 -0.00122031
C 6.60641422 26.07855200 11.65440300 0.00606465 -0.00597072 -0.00312208
C 0.20695425 26.81988623 11.75766571 0.00392927 0.00962507 -0.00389172
C -2.60001452 22.14057903 6.57581061 0.00655027 0.00476821 -0.00064762
C 2.96740125 21.93559372 6.01564376 -0.00339566 -0.00105972 0.00075536
C -5.40556391 26.81937724 12.25739488 0.00391173 0.00543944 -0.00071153
C 1.24515703 25.96425856 12.08625443 0.00213212 -0.00157885 -0.00229014
C 9.62470192 21.21550159 6.26974764 -0.00968657 -0.00896267 0.00974147
C -1.01048740 24.39695807 9.46125422 -0.00337962 -0.00686520 -0.00570549
C -1.20228807 19.70915633 8.68659685 -0.00383984 0.00382749 0.00139392
C 5.07870317 23.72926667 8.56827240 0.00410907 -0.00145512 -0.00131565
C 5.55321714 28.55831113 9.69674680 0.00180372 -0.00389783 -0.00296384
C -2.05258953 25.38832723 9.26360671 -0.00514570 0.00390664 0.00597336
C 0.01162952 20.65998039 8.98759053 -0.00380577 0.00216325 -0.00877041
C 6.43640030 22.92436330 8.78509838 -0.00281192 0.00180577 0.00418551
C 4.28552325 27.87909925 9.44293654 0.00388093 0.00267929 0.00390056
C -2.78697271 22.99957194 17.21384641 0.00533471 -0.00673956 0.00410317
C -5.68251208 27.76483501 13.26269204 0.00354079 0.01347553 -0.00356946
C 1.04838500 25.10653578 13.21178440 0.00152480 0.00045454 0.00177302
C 3.83418399 20.42925878 17.20804381 0.00601513 -0.00561594 0.00126741
C -1.58832874 22.95181775 16.51536770 -0.00141819 -0.00521432 0.00389872
C 6.23055465 27.57824175 13.92385343 -0.00450033 -0.00583638 0.00880931
C -0.19359379 25.02384085 13.83616694 0.00398943 0.00160164 -0.00332315
C 31.30366375 20.21110854 16.43121169 0.00570595 -0.00028188 -0.00601785
C -0.58104840 22.07714370 16.91744647 0.00454368 0.00491869 -0.00597685
C 5.18940253 26.74652414 13.52621018 -0.00548603 -0.00599097 -0.00228981
C -1.19687050 25.93917612 13.52379157 0.00368510 0.00128515 -0.00121526
C -7.18283964 20.91391740 16.97694961 0.00646238 0.00048384 -0.00412728
C -0.75217462 21.28577912 18.01791029 -0.00157275 -0.00558438 0.00084486
C 5.34711981 26.01321270 12.31561704 -0.00377130 -0.00530684 0.00250080
C -1.00019441 26.86732206 12.45365655 0.00408075 -0.00137639 0.00625204
C -7.38379014 21.69000350 18.17240044 -0.00099396 0.00166496 -0.00606504
C 0.80490141 21.32589119 12.61536084 -0.00036077 0.00575495 -0.00092592
C 3.78802681 26.04216699 17.84250796 -0.00621036 0.00398687 -0.00388526
C -2.80491280 26.75120653 17.96177234 0.00494021 0.00360970 -0.00571430
C -5.29240613 21.96800015 12.92432749 0.00293384 0.00210995 0.00467402
C -0.13315164 22.26433028 12.13912311 0.00127224 -0.00061644 -0.00019799
C -8.46611096 26.81247263 18.29839208 0.00187893 -0.00791784 -0.00681187
C -1.78289193 25.94493438 18.38315237 0.00355683 0.00077223 -0.00588238
C 6.43956645 21.18655666 12.37584989 -0.00393202 0.00885086 0.01058097
C -4.02103143 24.34585005 15.70201860 -0.00192169 -0.00006690 -0.00052412
C -4.31790727 19.56100652 14.60086565 -0.00283649 0.00115815 -0.00332033
C 2.15243096 23.63119418 14.75023042 0.00094412 -0.00073568 0.00325593
C 2.39126563 28.76172959 15.72855901 0.00150447 0.00332535 -0.00353787
C -5.27144141 25.19012055 15.54571340 0.00431365 -0.00609096 0.00194775
C -3.10877208 20.34485373 14.79675668 -0.00361206 0.00467934 0.00827101
C 3.43507651 22.84060198 14.88581524 -0.00453970 0.00265379 0.00338000
C 1.14051659 27.89467335 15.73047133 -0.00296954 0.00514451 -0.00452553
C -5.87935982 23.04193747 23.38531518 -0.00166888 0.00027660 -0.00513457
C -8.67127287 27.79528338 19.26360762 -0.00058002 0.00219252 0.00328425
C -2.04017757 25.04220162 19.41692790 0.00567941 -0.00400306 0.00128286
C 0.51673065 20.40248916 23.39125460 -0.00146668 0.01020871 0.00612723
C -4.64759624 22.99660586 22.74466283 -0.00201155 0.00066736 0.00056939
C 3.10597297 27.75862106 19.93386007 -0.00024593 0.00322200 -0.00053478
C -3.26222737 25.06546774 20.02394892 -0.00259806 -0.00795170 -0.00298651
C -11.14897250 20.27599898 22.67061337 -0.00024545 0.00518115 0.00379001
C -3.70593533 22.13922429 23.13823800 0.00085009 0.00643792 0.00836668
C 2.26549154 26.75374201 19.65419270 -0.00923054 -0.00359367 -0.00075525
C -4.22056624 26.01344818 19.71355401 -0.00191016 -0.00038577 -0.00179631
C -10.20381993 21.26101147 23.04756103 -0.01250732 -0.00136734 0.00373197
C -3.81410411 21.21734812 24.25427070 -0.00388643 0.00833711 -0.00257436
C 2.53882750 26.00325910 18.48866146 -0.00223647 -0.00345713 0.00011954
C -4.06429641 26.87246680 18.69198144 -0.00231451 0.00004913 -0.00313650
C -10.41336792 22.11074836 24.14013462 0.00203869 0.00364622 0.00864477
C -2.00846119 21.27836631 18.67767017 0.00328003 0.00153929 0.00610992
C 0.81235641 26.11281610 23.93789174 0.01008341 0.00174731 0.00161268
C -5.69815208 26.91795285 23.88801469 0.00335156 -0.00410767 -0.00448729
C -8.65079927 21.64269152 18.83096463 0.00468703 0.00538983 -0.00059294
C -3.01465934 22.12152409 18.22723591 0.00150305 -0.00168341 -0.00149681
C -11.47468447 26.86249508 24.23384036 0.00387693 -0.00013444 0.00070080
C -4.71377454 26.00873403 24.24488976 -0.00002348 -0.00306326 -0.00360423
C 3.60697248 21.30277606 18.26383721 -0.00546916 0.00840421 -0.00058717
C -7.13109262 24.31716421 21.75354252 -0.00245707 -0.00117685 0.01090165
C -7.49878317 19.36626142 20.91142965 0.00028145 -0.00994822 0.00186736
C -0.92550663 23.55038248 20.99232073 0.00340410 -0.00015843 0.00216472
C -0.51114153 28.71142112 22.00542199 -0.00822828 -0.01084013 -0.00400577
C -8.45158965 24.94655756 21.66170727 -0.00487309 -0.00317108 -0.00279490
C -6.45233863 20.37242676 21.01699585 -0.00515153 -0.00484337 0.00531408
C 0.28737254 22.69983675 21.17643632 -0.00486873 -0.00167494 0.00024133
C -1.79494621 28.04065895 21.77251014 0.00091150 0.00375817 0.00232310
C 16.42981194 3.50917916 5.17176057 -0.00264744 -0.00493343 0.00627175
C 13.57652715 8.35528347 0.98345736 0.00623771 0.00162161 0.00406969
C 20.29749575 5.84957925 0.94323997 0.00086630 -0.00524276 -0.00357165
C 23.09004637 1.18508230 5.34370434 -0.00590418 -0.00278367 -0.00134393
C 17.61061029 3.36805916 4.39399859 0.00076317 0.00337285 -0.00280654
C 25.43334229 8.58986714 1.44011704 -0.00050597 -0.00967250 -0.00291624
C 19.07537126 6.05812758 1.61630530 -0.00013119 -0.00558428 0.00376252
C 10.81354076 1.02864844 4.58471097 -0.00899276 -0.00072720 -0.00321215
C 18.63486502 2.51913428 4.87406502 0.00473245 0.00847112 -0.00548537
C 24.45766526 7.73267164 1.12298267 0.00084188 0.00373898 0.00380406
C 18.10172006 6.96313431 1.23194170 0.00008920 0.00190325 -0.00195937
C 11.79250850 1.92185323 4.94357270 -0.00395804 -0.00383113 -0.00292811
C 18.45418448 1.79612527 6.03220115 0.00644183 0.00415277 0.00486418
C 24.60809661 6.88620133 0.01976542 -0.00728724 0.00236726 0.00003095
C 6.25217958 7.57083353 24.33480748 -0.00122263 0.00382971 0.00128248
C 11.51453873 2.85095926 5.97773949 -0.00110272 0.00077784 -0.00387764
C 20.22723599 2.01256278 0.59655093 0.00024526 0.00328632 0.00320030
C 22.95829284 6.65840466 5.52738233 0.00370277 0.00117527 0.00158305
C 16.33898891 7.53427460 5.50175910 -0.00180538 -0.00103381 0.00219223
C 13.68620247 2.72348526 0.73807474 -0.00105345 0.00234462 -0.00103843
C 19.24566549 2.81286007 0.11374203 -0.00255982 0.00061900 -0.00381795
C 10.88630840 7.65972839 5.96126859 -0.00161044 0.00242671 -0.00155797
C 17.28486533 6.67834089 5.97650573 0.00107524 0.00097826 0.00212046
C 25.80358049 2.13310679 0.15628680 -0.00640102 -0.00153894 -0.00451533
C 15.15492883 4.92842714 3.64806814 0.00266799 -0.00787739 -0.00479292
C 14.62942190 0.43509022 2.56040809 0.00036064 0.00444950 -0.00384617
C 21.32176619 4.35876292 2.49863859 -0.00244782 0.00234041 -0.00251534
C 21.83743422 9.38205425 3.39679080 -0.00166071 0.00319094 -0.00327513
C 13.99180121 5.89525505 3.53863696 0.00129453 -0.00133428 -0.00130223
C 15.80101302 1.36311368 2.77739274 0.00789294 -0.00120469 0.00321588
C 22.64080279 3.77168845 2.80677338 -0.00090147 -0.00241121 -0.00114420