2880
Time=91000.00000003 pbc="T T T" Lattice="39.51675646 0.00000000 0.00000000 0.00000000 29.19693797 0.00000000 -12.02349030 0.00000000 24.38341442" energy=-18400.76629758 virial="-73.20361326 -14.87140652 -42.20925238 -14.87140652 -61.17276902 13.63228813 -42.20925238 13.63228813 -66.04450033" stress="-0.00012139 -0.00054112 -0.00152492 -0.00054112 0.00026638 0.00054149 -0.00152492 0.00054149 0.00016421" Properties=species:S:1:pos:R:3:vel:R:3
C 3.06157560 3.74534919 5.19433492 -0.00130951 -0.00101134 -0.00753863
C 0.65439022 8.66121004 0.91102409 0.00598441 -0.00468397 -0.00620829
C 7.09459352 6.16011608 1.03393099 0.00007992 0.00386176 -0.00545840
C 9.54530915 1.29968951 5.28156933 0.00220380 0.00395053 0.00078522
C 4.30292971 3.71136840 4.50000123 -0.00024717 -0.00163774 0.00659917
C 12.56769659 8.50398920 1.66042729 -0.00451869 0.00117734 -0.00444456
C 5.78743034 6.14538958 1.67255015 0.00441339 0.00021648 -0.00032208
C 37.18335201 1.06798327 4.58423817 0.00395367 0.00457766 0.00508589
C 5.35670634 2.87155338 4.86245584 0.00732332 -0.00925881 0.00200103
C 11.65401615 7.51961633 1.36008224 0.00880620 -0.00037514 -0.00096183
C 4.81864906 6.95243840 1.17663920 -0.00092072 -0.00153898 0.00621848
C -1.32708745 1.97666476 5.02686841 -0.00413242 0.00344489 -0.00091334
C 5.15909854 2.06457992 5.98896400 -0.00016619 -0.00032056 0.00289374
C 11.88519153 6.67486709 0.28758792 0.00217031 0.00085441 0.00041271
C 4.99217161 7.73338449 0.02101388 0.00062600 0.00708125 -0.00212608
C -1.49734749 2.75994190 6.17987226 0.00212640 -0.00402034 0.00007565
C 6.99021602 2.30441890 0.57218243 0.00112048 0.00339585 -0.00440009
C 9.86322111 7.07263632 5.54058699 0.00319417 0.00598342 0.00146840
C 3.07438601 7.71307371 5.53596742 -0.00351092 -0.00341587 0.00221315
C 0.14475350 2.82958003 0.66753656 0.00070489 0.01115778 -0.00187260
C 6.07579833 3.25205399 0.18448171 -0.00103944 -0.00072286 -0.00099322
C -2.45417708 7.48264621 6.00147614 -0.00276398 -0.00665529 0.00004072
C 4.11920286 6.91581470 5.88374854 0.00102696 0.00073248 -0.00346857
C 12.64493688 1.98977250 0.16040346 -0.00095546 -0.00358766 -0.00103219
C 1.95352195 5.11626948 3.58489049 0.00381437 0.00069255 -0.00052871
C 1.49772152 0.20693276 2.75142162 -0.00121870 0.00531139 -0.00242750
C 8.31950964 4.85610347 2.61714847 -0.00378632 0.00676884 -0.00496569
C 8.45391599 9.72690460 3.55900962 -0.00122704 0.00460162 -0.00496435
C 0.77958184 5.94767673 3.23709235 0.00384520 0.00300314 0.00544775
C 2.69457778 1.15623356 2.95751907 -0.00466273 0.00216274 -0.00636553
C 9.46259368 3.91071304 2.77816857 0.00328325 -0.00553486 -0.00531489
C 7.19171735 8.89325833 3.37890040 -0.00061436 0.00010708 -0.00014635
C 0.10077997 3.59037687 11.51764286 0.00293452 0.00005063 -0.00174312
C -2.61220190 8.38275746 7.03027681 0.00237380 -0.00441008 0.00012715
C 3.92062646 5.99282096 6.97950562 0.00678566 0.00154705 -0.00400509
C 6.56560851 1.11222819 11.51311729 0.00392345 -0.00570266 0.00337281
C 1.32322426 3.46550099 10.79710823 -0.00118423 0.00453666 -0.01028562
C 9.26082284 8.75387601 7.66438206 -0.00546215 0.00139505 0.00693390
C 2.67195831 5.96720554 7.67324588 -0.00150006 -0.00466232 0.00150066
C 34.21875425 1.30638073 10.58873592 -0.00764715 -0.00013187 -0.00094339
C 2.43418571 2.77994267 11.29804054 0.00291782 0.00682047 0.00065597
C 8.37104884 7.74288712 7.33665182 -0.00272922 0.00680653 0.00091269
C 1.58186484 6.70526543 7.21895920 -0.00306817 0.00385248 0.00237002
C -4.34103587 2.14556624 11.06025909 0.00578773 0.00562929 0.00067683
C 2.27590154 1.90140407 12.39185803 0.00632544 -0.00174426 0.00025314
C 8.59969023 6.93236713 6.20466382 -0.00228067 0.00362814 0.00322974
C 1.72888916 7.57560416 6.08307838 -0.00335507 0.00261999 -0.00667392
C -4.52187689 2.84681320 12.25329590 -0.00366461 0.00168629 0.00497853
C 3.91753673 2.12745829 6.64146088 -0.00640054 0.00028284 -0.00173163
C 6.74793636 6.76359254 11.68758831 -0.00209303 0.00596745 0.00913166
C 0.04046294 7.64787008 11.54439462 -0.00156236 -0.00214021 -0.00122163
C -2.82301444 2.73358527 6.74243201 0.00333383 0.01051385 -0.00821821
C 2.84267988 2.87660734 6.20766685 0.00033364 0.00227956 0.00103701
C -5.43349700 7.81000639 12.00319714 0.00455531 0.00027349 0.00390212
C 1.07193618 6.85722938 12.02886937 -0.00084471 -0.00356347 0.00035232
C 9.34156773 2.07893340 6.38824361 0.00436850 -0.01019905 0.00107900
C -1.11832855 4.86231253 9.87750574 -0.00074573 0.00080849 0.00189645
C -1.44630648 0.09294373 8.75619397 -0.00148702 -0.00374424 0.00497055
C 5.04238820 4.62900145 8.58630564 0.00543990 -0.00523652 -0.00088174
C 5.51239407 9.42613172 9.61351837 0.00276910 -0.00005613 0.00267205
C -2.19474695 5.81684529 9.66360548 0.00060385 0.00331530 0.00145779
C -0.26037058 1.00081601 8.68536577 -0.00056731 0.00023548 0.00458350
C 6.12054548 3.49815183 8.73986540 -0.00358332 -0.00022690 0.00434912
C 4.42257901 8.44870698 9.47872720 -0.00446391 -0.00363991 0.00450763
C -2.75887036 3.77027770 17.40644981 0.00073503 -0.00177647 0.00126643
C -5.72619442 8.67417893 13.06078009 0.00446687 0.00113559 0.00195116
C 0.88313902 6.07181439 13.17217517 0.00422296 0.00330715 -0.00577064
C 3.74380497 1.07509351 17.36285139 0.00459458 0.00096601 -0.00407057
C -1.54614950 3.63916200 16.69400860 0.00040039 -0.00739501 -0.00148681
C 6.53039430 8.36054525 13.96462485 -0.00132526 0.00678399 0.00233351
C -0.35373587 6.12907752 13.92281201 -0.00268783 -0.00634584 0.00129373
C 31.30509553 1.01915469 16.61217427 0.00563095 0.00075141 -0.00014227
C -0.59542774 2.74371083 17.11126605 0.00045181 -0.00305805 -0.00435746
C 5.53375454 7.45459407 13.64568498 -0.00068891 -0.00996974 -0.00578587
C -1.37841174 6.82473611 13.38710278 -0.00437983 0.00534049 -0.00137390
C -7.17298978 1.86182631 17.03708113 0.00455162 -0.00444129 0.00130036
C -0.76994897 2.05540152 18.29695131 -0.00036306 0.00849194 0.00268125
C 5.54695274 6.77980303 12.37667790 -0.00006917 0.00447310 -0.00203435
C -1.13962856 7.73492665 12.29256466 -0.00159827 -0.00319127 0.00234354
C -7.28378911 2.76221009 18.06851122 0.00506299 -0.00008781 0.00025713
C 1.02164858 1.90993201 13.02058970 0.00192687 0.00235484 0.00752199
C 4.12523696 7.00318276 17.84913946 0.00538863 0.00061939 0.00175043
C -2.43947967 7.66797053 17.72264895 -0.00221036 0.00250312 0.00323245
C -5.66454841 2.75144279 12.99280303 0.00618843 0.00090811 -0.00020519
C -0.03889640 2.70021432 12.63178287 0.00468401 0.00296435 0.00104933
C -8.25653712 7.80126170 17.84587503 -0.00273570 -0.00569421 0.00010103
C -1.52245946 6.75974917 18.25336952 -0.00176879 0.00600180 0.00210454
C 6.38826985 1.95759277 12.62000326 -0.00093335 0.00235973 -0.00929601
C -3.92700740 5.19901844 15.94664203 -0.00467787 -0.00185177 0.00091805
C -4.56517434 29.17272048 14.64671551 -0.00506931 -0.00079919 -0.00923623
C 2.09482454 4.69436668 14.92681457 -0.00272771 0.00577201 0.00273904
C 2.73433550 9.42209356 15.62564232 0.00249472 -0.00686879 0.00085095
C -5.07992103 6.08418043 15.69584964 0.00373506 -0.00170053 -0.00335540
C -3.39794910 0.88264011 14.98303070 -0.00273417 -0.00323466 -0.00063060
C 3.20430157 3.67721343 15.05563223 -0.00450129 0.00279355 0.00241051
C 1.58362310 8.50959188 15.35832871 -0.00570603 -0.00436146 0.00600043
C -5.66874583 4.07411999 23.45927004 0.00301208 0.00036107 0.00368208
C -8.29486446 8.64895508 18.97832874 0.00240896 -0.00166254 0.00479330
C -1.85772865 5.94454967 19.37089338 0.00784944 0.00449370 0.00139322
C 0.76925585 1.11276433 23.46468094 -0.00051684 -0.00609596 0.00372921
C -4.35088991 4.00205111 22.86861325 0.00117981 -0.00161807 0.00226021
C 3.58819289 8.79031867 19.90369714 -0.00831179 -0.00365616 0.00358384
C -3.07944026 6.04869038 19.96578654 0.00064626 -0.00227975 0.00506125
C 28.13147517 1.07721141 22.87395173 -0.00749394 -0.00005799 0.00065331
C -3.50321226 2.96419436 23.25433431 0.00080631 0.00192382 -0.00426899
C 2.61154153 7.93304985 19.42132811 -0.00008721 0.00470923 0.00055541
C -3.97474186 6.99878931 19.53946969 -0.00120784 -0.00061465 0.00165613
C -10.43631770 2.06159603 23.16779169 0.00302664 0.00543002 0.00183744
C -3.83636692 2.06227529 24.26229024 0.00440298 -0.00193204 -0.00638389
C 2.91442493 6.93784751 18.49610835 0.00237061 0.00309744 -0.00202747
C -3.74430116 7.73213692 18.35541647 -0.00687827 -0.00331122 0.00857230
C -10.58761542 2.85256435 24.38120461 0.00416915 0.00456807 0.00303203
C -2.03711803 2.04255833 18.90444197 0.00075721 0.00184628 0.00302755
C 1.07291290 6.89878625 24.00532088 0.00491270 -0.00417599 0.00816444
C -5.76420929 7.71391428 23.82110592 0.00504454 0.00343411 -0.00356553
C -8.49902370 2.74855787 18.75416047 0.00091004 -0.01295972 0.00168668
C -3.01358497 2.84403377 18.45928266 0.00278702 0.00533611 -0.00337675
C -11.19806618 7.85069180 24.15804492 0.00584335 -0.00291151 -0.00353077
C 7.30967331 7.06565753 0.04046712 -0.00676668 -0.00230835 0.00531136
C 3.66063732 1.94651912 18.47079360 -0.00515538 -0.00198520 0.00734857
C -7.02582215 5.25541861 21.77855058 -0.00485450 0.00203081 0.00565059
C -7.37466090 0.21943577 20.99034625 -0.00774059 -0.00297610 -0.00144006
C -0.55370937 4.57772336 20.96894198 0.00809859 0.00459506 0.00533602
C -0.26160122 9.44597787 21.91498419 0.00242306 0.00304492 -0.00488071
C -8.39456724 5.83996745 21.61998905 -0.00103845 0.00415021 0.00117722
C -6.04223478 0.96550255 21.15415495 -0.00271684 -0.00790972 0.00926353
C 0.70615362 3.86066725 21.19976147 0.00012965 0.00176969 -0.00484314
C -1.08662180 8.23549825 21.89349999 0.00103562 -0.00054553 -0.00048611
C 3.31857296 13.54568231 4.99013585 -0.00416699 0.00005730 0.00261330
C 0.38647395 18.48773209 0.76004523 -0.00480208 0.00332466 0.00374482
C 6.84755469 15.76914679 0.81909185 0.00790065 -0.00743820 0.00024282
C 9.68518306 11.18379662 5.09212694 -0.00187559 0.00388633 -0.00520076
C 4.43921833 13.22563131 4.22786033 -0.00623806 -0.00204967 -0.00548852
C 12.23526422 18.09890896 1.54681078 -0.00019883 0.00151579 -0.00104420
C 5.68723756 15.90244015 1.55343297 -0.00035589 0.00163131 0.00144821
C -2.00101992 10.75751784 4.29672207 -0.00349966 -0.00112276 0.00176975
C 5.42288799 12.39526413 4.68264160 -0.00345023 -0.00003675 -0.00254327
C 11.20756974 17.36529681 1.04121551 0.00400888 0.00628883 -0.00619716
C 4.62597040 16.74865714 1.22301476 0.00357162 0.00106505 0.00252501
C -1.11544491 11.75387505 4.66937244 -0.00745455 -0.00022855 -0.00793579
C 5.21357053 11.62905327 5.90081997 -0.00317054 -0.00031550 0.00244880
C -0.64772251 16.55181164 24.28621535 -0.00476092 -0.00290366 0.00042975
C 4.84960389 17.55741197 0.11666040 0.00007039 -0.00188084 0.00085203
C -1.33613339 12.52978870 5.82231214 0.00051196 -0.00679901 -0.00644331
C 7.13952527 11.87050410 0.55975833 0.00464639 0.00375577 -0.00309862
C 9.97196255 16.67834406 5.45370959 -0.00838244 0.00344707 0.00169572
C 3.34488291 17.38738364 5.52087013 -0.00087376 0.01020787 -0.00266850
C 0.33715730 12.74545435 0.35826778 0.00123892 0.00241961 -0.00234771
C 6.14584797 12.68999233 0.05776398 -0.00435788 0.00720113 -0.00867388
C -2.26299943 17.53319966 5.85745011 -0.00883768 0.00093754 0.00465562
C 4.35487404 16.55647108 5.96588565 -0.00323536 -0.00145081 -0.01224379
C 12.68589249 11.83891741 0.09945142 0.00177173 0.00231727 0.00354623
C 2.01485248 14.83729401 3.51826658 0.00300866 -0.00483721 0.00540714
C 1.83863095 10.05729718 2.41256925 -0.00055263 0.00218357 0.00511148
C 8.10679973 14.47502529 2.40823612 0.00823215 0.00006533 0.00597522
C 8.46298247 19.22884547 3.41112151 0.00237071 0.00194673 -0.00631848
C 0.75854685 15.62044701 3.38147352 -0.00035691 0.00480775 -0.00107255
C 2.91091114 11.09439306 2.48274488 -0.00708594 0.00759823 -0.00318270
C 9.35267526 13.70430462 2.47295980 0.00769643 0.00319831 0.00800760
C 7.20595303 18.48877115 3.04080641 0.00539397 0.00359513 0.00443138
C -0.00748577 13.42809892 11.23723663 0.00382934 0.00231855 0.00463725
C -2.49615245 18.34084971 7.01518862 0.00175622 -0.00629607 0.00291185
C 4.14770896 15.70285513 7.08720687 0.00381616 -0.00014164 0.00369898
C 6.70057575 10.73769561 11.26126607 -0.00453144 0.00637302 -0.00051026
C 1.21298850 13.34525856 10.53850661 -0.00377490 0.00267706 -0.00919943
C 9.47046372 18.30836711 7.62598461 -0.00945803 -0.00213880 0.00087235
C 2.87324224 15.70044378 7.76584630 0.00365687 0.00437559 -0.00199815
C 34.30214027 11.15136336 10.23989976 0.00245683 -0.00393335 -0.00288362
C 2.16158475 12.46198320 10.99174672 0.00682869 -0.00348237 0.00464020
C 8.48432446 17.49120458 7.17659845 0.00160080 -0.00094825 0.00757407
C 1.92732664 16.57253140 7.32284882 -0.00009257 -0.00463844 0.00087152
C -4.30766060 12.10493160 10.61044214 -0.00254527 0.00552782 0.00866717
C 1.93580948 11.64382976 12.08309749 0.00014717 0.00993726 -0.00673394
C 8.70779360 16.60354044 6.08052307 -0.00031196 0.00513165 -0.00060510
C 2.10933562 17.43534598 6.21223761 -0.00310243 0.00639721 0.01273220
C -4.58345195 12.97025794 11.71432580 0.00360868 -0.00522289 0.00279267
C 3.97115193 11.81631233 6.60637380 -0.00753321 0.00112421 0.00063361
C 6.58120210 16.80617702 11.51937371 0.00509606 -0.00108969 0.00360910
C 0.17767990 17.30279308 11.68917476 0.00145203 0.00064341 0.00539984
C -2.52911359 12.29519354 6.49049185 0.00363995 0.00171313 0.00481628
C 3.07344067 12.79820136 6.16684051 0.00159471 -0.00523596 -0.00608969
C -5.48717790 17.68937941 12.06265152 -0.00477668 0.00383037 0.00267147
C 1.15505582 16.38094942 12.11795273 0.00127799 -0.00040207 -0.00615510
C 9.65149510 11.85730027 6.33885879 0.00632165 -0.00458208 0.00411626
C -1.16499505 14.80950060 9.66454820 -0.00614918 0.00101371 -0.00120711
C -1.44796356 9.98462019 8.40509043 -0.00304762 0.00744204 0.00347146
C 5.55672067 14.31031897 8.49805768 -0.00442983 0.00516289 0.00348222
C 5.30235197 19.25948034 9.72251026 -0.00158291 -0.00107305 -0.00120068
C -2.19840865 15.82676542 9.58107765 0.00158299 -0.00719459 0.00053872
C -0.15879455 10.77721320 8.41136176 0.00165531 0.00033299 0.00295569
C 6.77435284 13.52794036 8.47297123 -0.00538439 -0.00478692 -0.00200176
C 4.13471675 18.29776265 9.54465363 -0.00136148 -0.00733101 0.00334198
C -2.78596033 13.40170898 17.23939782 -0.00269501 -0.00288605 -0.00145353
C -5.76379929 18.48332105 13.20110561 -0.00650905 0.00125203 -0.00157667
C 0.98877196 15.57433507 13.21624372 -0.00299945 -0.00176503 -0.00149424
C 3.89447288 10.85296455 17.21889106 -0.00255196 -0.00295610 0.00839461
C -1.56961883 13.25073639 16.46300986 0.00045132 0.00814406 -0.00200878
C 6.10502198 18.08123575 13.91283724 -0.00507945 0.00361210 -0.00107008
C -0.19404809 15.62750770 13.89650542 0.00140784 -0.00270608 0.00110464
C 31.32742184 10.92338997 16.46140179 -0.00183828 0.00048527 -0.00969924
C -0.65610050 12.38132593 16.90708180 0.00311862 -0.00063967 0.01077492
C 5.18877193 17.24491098 13.36332058 0.00016948 -0.00378328 -0.00534389
C -1.13552554 16.56513951 13.60383232 -0.00956492 0.00827010 -0.00089403
C -7.17531175 11.78014012 16.80304199 0.00923168 -0.00147454 -0.00337778
C -0.91870749 11.55087963 17.99259204 -0.00065460 -0.00180724 0.00397217
C 5.27528400 16.64785547 12.05107837 0.00314523 0.00279924 0.00227147
C -0.96458997 17.39674485 12.46567099 -0.00919141 0.00061666 -0.00090101
C -7.24152130 12.56536981 17.96364012 0.00109009 -0.00423967 -0.00014789
C 0.73755130 11.81228471 12.78082130 0.00202163 0.00402829 -0.00146004
C 3.78094138 16.50005097 17.95921564 0.00364339 0.00339164 0.00446403
C -2.75323358 17.43103513 17.66651101 0.00079837 -0.00454123 -0.00427483
C -5.81787872 12.68001045 12.43046204 -0.00026043 0.00369147 0.00388543
C -0.30192950 12.54733407 12.26361411 -0.01070120 -0.00633606 -0.00610510
C -8.20990911 17.63445024 18.36100142 0.00131358 -0.00503632 0.00283676
C -1.77526613 16.69378498 18.19908646 -0.00320460 0.00358528 -0.00263733
C 6.42654403 11.58938758 12.34855196 0.00416266 -0.00389967 -0.00106708
C -4.05223314 14.80730862 15.69135195 0.00229453 -0.00708281 0.00098730
C -4.42423251 9.99786445 14.67786410 -0.00075507 -0.00830170 0.00048606
C 2.27957640 14.28964884 14.87941053 -0.00401525 -0.00526342 -0.00516198
C 2.80202801 19.07261472 15.61795178 -0.00329384 -0.00436932 0.00389601
C -5.20184755 15.76896720 15.58764752 -0.00755286 0.00471140 0.00283827
C -3.04381833 10.54022132 14.84355222 0.00468929 -0.00325432 0.01352673
C 3.47520557 13.48294740 15.21254877 -0.00679187 -0.00147268 -0.00642698
C 1.78769338 18.06194617 15.37970114 -0.00274594 0.00501802 0.00074003
C -5.76833925 13.43838329 23.27403855 0.00361313 0.00245233 -0.00043016
C -8.51391500 18.46803709 19.42940386 0.00235781 -0.00208384 -0.00320774
C -2.00811526 15.81925982 19.27949658 -0.00406726 -0.00657137 -0.00077127
C 0.86933329 10.96026814 23.41984673 0.00106035 0.00481736 0.00018489
C -4.53273850 13.32201696 22.53574331 -0.00125049 0.00553707 0.00263467
C 3.31803933 18.20479365 20.03374569 0.00913587 -0.00269383 0.00551292
C -3.19331584 15.92105519 19.96447386 0.00083834 -0.01167209 0.00328990
C -11.06947986 11.11610270 22.67232167 -0.00757453 0.00201942 -0.00027120
C -3.63780814 12.32028480 22.91042950 0.00426321 -0.00357936 0.00170433
C 2.31091913 17.32400274 19.59226480 -0.00471626 0.00424474 0.00226391
C -4.14110346 16.84817053 19.58924355 -0.00005137 -0.00003030 0.00418477
C -10.17427629 12.06559710 23.00393630 0.00190815 -0.00920086 0.00609580
C -3.74792976 11.61157065 24.16437532 -0.00033988 0.00314839 0.00161170
C 2.50325883 16.48613831 18.53477778 0.00063016 -0.00170767 -0.00589209
C -4.06328458 17.52555520 18.37715293 0.00477367 -0.00022963 -0.00509495
C -10.44259516 12.86233009 24.11417525 -0.00110242 -0.00258382 0.00110787
C -2.07171099 11.68602503 18.76576783 0.00114037 0.00902815 -0.00371771
C 0.62501477 16.43183903 23.70231841 0.00636565 -0.00241976 -0.00329262
C -6.01037507 17.47298022 23.75861560 0.01123529 0.00379192 0.00211827
C -8.45716052 12.48448022 18.64758112 0.00241308 -0.00278480 -0.00062904
C -2.98624541 12.59562888 18.36493329 -0.00418165 0.00391360 0.00021998
C -11.48044665 17.57496527 24.13256560 -0.00353790 -0.00135030 0.00319007
C -5.00547154 16.61529628 24.03352275 -0.00236518 0.00251426 0.00123277
C 3.65624161 11.72257488 18.33400944 -0.00111065 -0.00260046 -0.00095829
C -6.98700230 14.87877488 21.73776315 0.00328532 0.00600816 0.00017315
C -7.04380672 9.94436300 20.64811221 0.00135309 -0.00698592 -0.00019648
C -0.83360059 14.16181508 20.68624540 -0.00226258 0.00600377 0.00008292
C -0.59805485 19.22595706 21.92426982 0.00318235 0.00287427 -0.00639734
C -8.06093368 15.94542326 21.55231211 -0.00085566 -0.00260627 0.00924378
C -5.77207615 10.70862603 20.71165728 -0.00176606 0.00109346 -0.00614107
C 0.37850330 13.21068789 20.65014502 -0.00138333 -0.00029281 0.00583129
C -1.55400080 18.14064134 21.71046114 0.00334354 -0.00417035 0.00262928
C 3.32641668 23.26435070 5.23281253 -0.00717835 0.00422318 -0.00191168
C 0.28322114 28.05861128 1.14405934 0.00026885 -0.00025222 0.00004067
C 7.08602928 25.65732447 1.19797745 0.00278763 0.00648146 0.00261354
C 9.72794647 20.44529864 5.14756786 -0.00330553 0.00159513 -0.00657904
C 4.62456437 23.30188048 4.68323801 -0.00306362 0.00438137 0.00151413
C 12.53849701 28.28462406 1.44285237 -0.00079738 0.00204908 -0.00573319
C 5.84461978 25.81999545 1.86979046 0.00388966 -0.00127765 -0.00095014
C -1.91114468 20.73393428 4.23945710 -0.00302750 0.00942327 -0.00306190
C 5.61847328 22.39631328 5.11318558 -0.00499026 -0.00491928 0.00678633
C 11.44157580 27.49597193 1.09910900 -0.00131546 -0.00200262 -0.00330554
C 4.88834295 26.73638227 1.56461252 0.00342429 -0.00453552 0.00539852
C -0.97436472 21.51732976 4.80364865 0.00207362 0.00217946 -0.00713383
C 5.38714743 21.41784777 6.09485549 -0.00230557 0.00333358 -0.00715391
C 11.57050372 26.50291122 0.05788744 0.00399345 -0.00202871 0.00788710
C 5.02667259 27.44357120 0.38289220 0.00140150 -0.00154423 -0.00316667
C -1.15148293 22.20136288 6.06319960 -0.00561225 -0.00020348 0.00134495
C 6.94666980 21.75042102 0.78782667 -0.00667728 -0.00331767 0.00539158
C 9.60733000 26.58407955 5.42474928 -0.00318693 0.00616054 -0.00134572
C 3.11715661 27.38067098 5.92112578 -0.00322580 -0.00251522 -0.00091077
C 0.26110922 22.28308843 0.44545031 0.00012213 -0.00584543 -0.00387998
C 5.92849001 22.51010865 0.32871464 -0.00524835 -0.00318625 0.00324080
C -2.46341899 27.15713795 6.01956598 0.00490489 0.00047295 0.00271777
C 4.09674951 26.44588303 6.27414087 -0.00549442 -0.00612933 -0.00118840
C 12.65267999 21.20039372 0.34903741 -0.00202780 0.00485991 0.00079676
C 2.22144696 24.50057849 3.47574468 0.00507318 0.00576404 -0.00659364
C 1.66761115 19.64141078 2.40227180 -0.00249850 -0.00154298 -0.00069715
C 8.24945366 24.14329218 2.71321019 -0.00189597 0.00305593 -0.00055718
C 8.48700616 29.18914491 3.53134176 -0.00022593 -0.00545056 0.00090182
C 1.02377265 25.29042234 3.14714189 0.00469533 0.00594437 -0.00463132
C 2.65141829 20.74491714 2.45818367 0.00487532 0.00303753 -0.00467044
C 9.48121621 23.31500639 2.91573028 0.00137047 -0.00085470 -0.00689623
C 7.37748393 28.25005063 3.23919693 -0.00030572 0.00368902 -0.00064391
C 0.14794784 23.16824027 11.25570041 -0.00249879 -0.00551391 0.00209477
C -2.76792875 27.93383268 7.13342137 0.00141750 0.00381814 0.00780139
C 3.91752126 25.49421644 7.26460356 0.00666793 0.00453911 -0.00173761
C 6.57831661 20.46253390 11.37760211 0.00001325 0.00622435 0.00165612
C 1.40165630 23.18599865 10.66712375 0.00288753 0.00169697 0.00383728
C 9.31046967 28.10175764 7.72759302 -0.00417385 0.00556233 0.00293918
C 2.66100721 25.46948490 7.85228016 -0.00308040 -0.00104763 0.00042842
C 34.36382615 20.75113759 10.39648754 -0.00765925 -0.00554577 -0.00613129
C 2.34288517 22.23712757 10.98838104 -0.00360180 -0.00423218 0.00630478
C 8.27316255 27.17111873 7.38469003 -0.00313410 -0.00018600 -0.00296643
C 1.67139095 26.34635283 7.51322427 0.00283425 0.00075251 0.00170217
C -4.25097132 21.56823130 10.92883839 0.00185441 -0.00136810 0.00104006
C 2.10497413 21.38677103 12.06030233 0.01218116 -0.00394477 -0.00476325
C 8.39321865 26.46205672 6.16352337 0.00060400 0.00012621 0.00090652
C 1.84899232 27.29868898 6.51224138 -0.00467565 0.00369113 0.00063085
C -4.60417008 22.40609088 12.02528694 0.00254625 -0.00520823 -0.00267381
C 4.05755754 21.36173848 6.58414804 0.01071036 -0.00131692 -0.00438951
C 6.66077216 26.32058647 11.55488301 0.00045376 0.00012182 0.00206869
C -0.02218755 26.90315793 11.75688828 0.00157602 -0.00117913 -0.00748552
C -2.43429802 22.15840134 6.65438779 0.00623186 0.00173280 0.00487577
C 3.14632113 22.31880416 6.22031207 -0.00180861 0.00068419 -0.00325732
C -5.57040170 27.06052351 11.86385860 0.00227149 0.00021637 0.00201559
C 0.93377259 26.00266706 12.19673560 0.00229541 0.00310122 0.00549132
C 9.47732501 21.24550196 6.28288008 0.00049397 0.00385341 0.00342228
C -0.94911424 24.59123321 9.68258282 -0.00300706 -0.00731067 0.00099996
C -1.27156635 19.61649285 8.70674984 -0.00387551 -0.00523284 -0.00223542
C 5.09736056 24.06082039 8.80891094 -0.00100667 0.00832825 0.00577826
C 5.38336507 29.10503027 9.77023942 0.00050522 -0.00072072 0.00009481
C -2.04016006 25.58552053 9.53644539 0.00952222 0.00622515 -0.00316219
C 0.04911934 20.44411490 8.93460815 -0.00145419 0.00071551 -0.01168399
C 6.48571327 23.42097503 9.07443746 0.00153756 -0.00112000 0.00229053
C 4.25708327 28.14709082 9.61918996 -0.00266286 0.00065639 -0.00412826
C -2.95108562 23.26113588 17.50235454 0.00093050 -0.00526490 -0.00027942
C -5.72951595 27.87849292 12.99062783 -0.00372290 0.00228005 -0.00007209
C 0.73505698 25.17157707 13.31176284 -0.00516520 -0.00163081 0.00054572
C 3.87883389 20.52533967 17.23783200 0.00085910 0.00024586 -0.00305813
C -1.81138158 23.21875961 16.75095818 -0.00345287 0.00017117 -0.01140578
C 6.46385502 27.79656035 13.91094405 -0.00083413 0.00222996 -0.00782844
C -0.42857399 25.29487236 14.02250446 -0.00021638 -0.00190784 -0.00154244
C -8.22560113 20.65583494 16.71065800 0.00542994 0.00031903 -0.00526738
C -0.77137915 22.32256025 17.05564367 0.00290512 -0.00146631 0.00577725
C 5.42396242 26.95164622 13.54132172 -0.00963937 0.00242247 0.00280765
C -1.37162621 26.15506923 13.56251006 -0.00561429 0.00129352 0.00398651
C -7.21580113 21.51741107 17.17021981 -0.00184482 0.00352533 -0.00210289
C -0.85728176 21.47715790 18.15578404 0.00399397 -0.00058740 -0.00231132
C 5.49022481 26.21904486 12.30261638 0.00530060 -0.00050020 -0.00385735
C -1.24997538 26.96588344 12.45075897 0.00598850 -0.00071672 0.00294186
C -7.42969000 22.41000450 18.25271834 -0.00541593 0.00304897 -0.00160180
C 0.80288052 21.26446953 12.60828834 0.00471176 0.00305755 -0.00280807
C 3.93092708 26.36873373 17.85698846 -0.00142332 -0.00022178 -0.00447144
C -2.69120782 26.99307301 17.98264215 0.00458900 0.00012733 -0.00015468
C -5.87001434 22.30864149 12.63012144 -0.00652522 0.00054715 0.00049787
C -0.03027250 22.29130272 12.33468996 0.00111050 -0.00569227 0.00213767
C -8.38375400 27.22148976 18.34774881 -0.00504244 0.00287987 -0.00875878
C -1.75911798 26.16268732 18.49225088 0.00584343 -0.00237737 0.00797624
C 6.43335847 21.37136182 12.45297955 -0.00554451 0.00099579 -0.00344123
C -4.24077649 24.56647246 15.91899417 0.00450902 0.00700879 0.00049290
C -4.67911794 19.90123769 14.90298483 0.00156264 0.00526672 0.00063953
C 2.11843280 23.81792697 14.88226913 -0.00016283 0.00054146 0.00612276
C 2.61053876 28.65399929 15.90327571 0.00296782 -0.00338662 0.00282598
C -5.18469064 25.65072445 15.71603186 -0.00757049 -0.00262891 -0.00353083
C -3.49249560 20.84958377 15.03414989 0.00461486 -0.00571943 -0.00671854
C 3.44137639 23.10472204 14.97068936 0.00741721 -0.00429528 0.00590628
C 1.35055506 27.85346258 15.83254963 0.00543943 0.00209504 -0.00114905
C -5.96322157 23.38971778 23.66732936 -0.00507668 0.00106132 -0.00594197
C -8.56306578 28.05821420 19.42629548 -0.00367423 0.00598243 -0.00655800
C -2.04491058 25.28478716 19.60452538 -0.00851915 -0.00347195 0.00261084
C 0.73266866 20.46629089 23.52836917 0.00265726 -0.00289153 -0.00223934
C -4.79310027 23.33909087 22.89126154 -0.00547829 0.00662782 0.00332482
C 3.45149128 27.91648817 20.05428972 -0.00161821 -0.00528484 0.00157419
C -3.26295653 25.50091137 20.26022814 0.00233875 0.00177973 0.00390383
C 28.23034371 20.81322091 22.53130090 0.00421012 0.00549222 -0.00358765
C -3.78969314 22.47378500 23.20044855 -0.00500329 -0.00590475 -0.00745449
C 2.46476430 27.00711167 19.59474887 0.00178675 -0.00268339 -0.00239507
C -4.23244200 26.43362563 19.74753596 -0.00063947 -0.00412635 0.00155939
C -10.32278029 21.74183246 22.94595610 0.00786689 -0.00886512 -0.00360873
C -3.92545659 21.64889662 24.35519547 -0.00065594 -0.00144660 -0.00078672
C 2.61148685 26.23271536 18.44128087 0.00087800 0.00175791 -0.00278135
C -3.95777541 27.15979957 18.57991638 -0.00046902 -0.00759440 0.00226057
C -10.53346665 22.43083641 24.18311667 -0.00137048 -0.00005724 -0.00612747
C -2.12713453 21.41933331 18.77040422 -0.00300936 -0.00090165 -0.00622013
C 0.76374497 26.47217500 23.77441858 0.00480056 0.00188364 0.00030577
C -5.75762367 27.33294115 24.03815471 0.00460489 0.00220606 0.00233976
C -8.73860041 22.39279850 18.78123179 -0.00173519 -0.00789365 -0.00077511
C -3.08690901 22.33529494 18.57993956 -0.00105551 -0.00938259 -0.00088948
C 0.58291701 27.16292127 0.07755869 -0.00307631 -0.00030319 -0.00342658
C 7.20675566 26.45838678 0.06256398 0.00498007 0.00019756 -0.00203782
C 3.63566163 21.32897017 18.39101357 0.00298602 -0.00313776 0.00306947
C -7.30805295 24.58548535 22.00135245 0.00115139 0.00636846 0.00211766
C -7.65624460 20.03614565 20.94433698 0.01273936 -0.00864177 -0.00344465
C -0.85847787 23.82121460 21.06872589 -0.00153098 -0.00894222 0.00643762
C -0.32581635 28.89404342 21.76516672 0.00395905 0.00027988 0.00538368
C -8.43505819 25.53720599 21.73864229 0.00732276 -0.00882638 0.00351000
C -6.40432554 20.89340263 21.31579404 0.00604221 0.00778041 0.00335450
C 0.28945074 22.84856621 21.15748143 -0.00231127 0.00224334 0.00238682
C -1.44923548 27.96621114 21.49246145 -0.00507267 0.00126961 0.00206689
C 16.34445156 3.80859234 5.05095215 -0.00496238 -0.00207159 0.00565972
C 13.70711758 8.75453697 0.92798560 -0.00235907 0.00350032 0.00355582
C 20.42101732 5.81301690 0.99879426 -0.00366538 0.00699335 -0.00898594
C 22.77642858 1.02935896 5.29434257 -0.00468615 0.00306997 -0.00095774
C 17.57710200 3.77633967 4.39433962 -0.01013011 -0.00694269 0.00377262
C 25.70131642 8.45526548 1.77651610 0.00107814 -0.00360094 0.00197750
C 19.15969815 5.83043996 1.61968565 -0.00520790 -0.00517646 0.00770183
C 10.72508879 1.46210971 4.49923301 -0.00287051 0.00156451 0.00122581
C 18.56172241 2.89930018 4.77519100 0.00192955 -0.00115703 -0.00189307
C 24.76595515 7.52124802 1.39768656 0.00332490 0.00502534 -0.00603771
C 18.15965754 6.68576752 1.23223398 0.00118378 -0.01116987 0.00098033
C 11.64054696 2.40786805 4.86549595 -0.00351623 0.00456337 0.00521577
C 18.36849854 2.04291706 5.88180886 0.00264682 0.00402619 0.00422596
C 24.94412437 6.76666410 0.24481245 0.00140595 -0.00403771 -0.00304146
C 18.28759169 7.49468626 0.06089315 0.00427953 -0.00618606 -0.00135056
C 11.48299802 3.14617783 6.06249320 -0.00091636 -0.00693584 -0.00248484
C 20.23515544 2.00948528 0.57731908 -0.01014059 -0.00708906 0.00438835
C 22.94043700 6.96796155 5.57783767 -0.00203502 -0.00014925 -0.00436320
C 16.35479915 7.74833627 5.56167441 0.00335562 0.00034215 -0.00534689
C 13.74116965 2.69221046 0.61581142 -0.00209656 0.00026563 0.00149719
C 19.29914291 2.90145917 0.15725557 0.00374385 -0.00933424 -0.00087939
C 10.73441240 8.07495059 5.91948127 0.00110674 0.00486024 -0.00394542
C 17.32874310 6.93965470 6.05209836 -0.00202409 -0.00243077 0.00235426
C 25.82819919 1.83373273 0.03818790 0.00735105 0.00671982 0.00070055
C 15.23835001 5.26233600 3.48318335 0.00264675 0.00235552 0.00018860
C 14.97406417 0.39957760 2.42618848 0.00156952 -0.00138925 -0.00519668
C 21.52724434 4.38564323 2.62240184 -0.00442815 -0.00110693 -0.00081028
C 22.07085600 9.31663616 3.36082803 -0.00232190 0.00105477 -0.00518685
C 14.02842601 6.23614290 3.20802923 0.00589926 0.00645306 0.00219499
C 16.15686790 1.29900168 2.79239861 0.00272314 -0.00138500 -0.00103108
C 22.50205707 3.31462801 2.88061246 -0.00643146 -0.00423488 -0.00193973