2880
Time=87000.00000006 pbc="T T T" Lattice="39.60942460 0.00000000 0.00000000 0.00000000 29.11652232 0.00000000 -12.00515292 0.00000000 24.30909540" energy=-18395.33452237 virial="-72.15135004 -3.77182764 -48.42553441 -3.77182764 -75.46052065 -17.47297335 -48.42553441 -17.47297335 3.86341217" stress="-0.00002169 -0.00009318 -0.00176922 -0.00009318 -0.00020183 -0.00061710 -0.00176922 -0.00061710 0.00268314" Properties=species:S:1:pos:R:3:vel:R:3
C 3.18794663 3.80377357 5.06373521 -0.00337649 0.00387036 0.00249783
C 0.69943455 8.64605126 1.18387137 0.00389824 -0.00199615 -0.00393974
C 7.06572839 5.94946637 0.83962743 -0.00371447 -0.00099859 -0.00018004
C 9.81443705 1.08424063 5.28357453 -0.00135449 0.00349186 -0.00464458
C 4.45051984 3.72143939 4.42081254 -0.00259790 -0.00363742 0.00534813
C 12.51980111 8.54217927 1.61663642 -0.00109096 -0.00096107 0.00484610
C 5.83119242 5.95699382 1.53782025 0.00731168 -0.00135780 -0.00090178
C -2.00194872 0.83653896 4.53410595 0.00269248 0.00158483 0.00563107
C 5.43623594 2.88882291 4.86596366 0.00264211 -0.00871130 0.00397562
C 11.54315358 7.60642434 1.26114202 0.01698147 0.00128091 -0.00304687
C 4.93436034 6.91498398 1.17315151 0.00479468 -0.00929988 -0.00077087
C -1.00896610 1.71995849 4.88025234 0.00427461 0.00422056 0.00091557
C 5.27079836 1.94095641 5.83617339 0.00296009 -0.00331877 0.00065597
C 11.76567025 6.71558952 0.21644503 -0.00568574 0.00199553 0.00384935
C 5.16173471 7.87804289 0.14031568 0.00091090 0.01014544 -0.00960693
C -1.27569756 2.61789092 5.95989918 0.00173154 0.00464368 0.00188745
C 6.94280253 2.21073125 0.45171766 -0.00087659 0.00399985 -0.01064228
C 9.73171070 6.89831189 5.61304502 -0.00163132 0.00814829 0.00202852
C 3.23364911 7.68243213 5.55037102 0.00166481 0.00312865 -0.00500742
C 0.20693215 2.85663662 0.44532170 0.00788788 -0.00238162 -0.00142899
C -6.06836012 3.02448819 24.29836702 0.01255394 0.00125309 -0.00311944
C -2.42714418 7.51727575 5.92646026 0.00182170 0.00017460 0.00105439
C 4.25302328 6.84619054 6.01978729 0.00196547 -0.00198163 -0.00147789
C 12.63330747 1.94506156 0.14591786 -0.00105059 0.00653374 -0.00306619
C 1.99648276 5.21270730 3.56286315 0.00175647 0.00106006 -0.00971434
C 1.56370758 0.15880254 2.35567306 -0.00114948 -0.00525067 0.00082711
C 8.32852182 4.63240653 2.42044461 -0.00228863 0.00063905 -0.00508944
C 8.66997585 9.42318136 3.32964377 0.00112542 0.00157781 0.00000403
C 0.78522901 6.00783785 3.25849343 0.00132490 0.00092668 0.00224228
C 2.85355838 0.93201672 2.49479512 0.00377737 -0.00673574 0.00986814
C 9.57298392 3.84242786 2.43817902 0.00214762 0.00261760 0.00643987
C 7.40807157 8.55882355 3.09798135 -0.00407008 0.00980031 0.00069156
C 0.12773849 3.72415724 11.20050322 -0.00057127 0.00542274 0.00195829
C -2.56048678 8.37758373 7.00523688 -0.00386205 -0.00433012 -0.00859791
C 3.99220381 6.03398728 7.14398310 0.00085099 -0.00033861 0.00142316
C 6.75082694 1.15392110 11.18584463 0.00162570 -0.01249940 -0.00311550
C 1.34906093 3.65357094 10.49822752 0.00057367 -0.00513258 -0.00441073
C 9.38278804 8.38139361 7.89494657 -0.00022209 0.00356199 0.00375927
C 2.72924275 6.14045604 7.81042188 -0.00233157 0.00502563 -0.00311796
C -5.27344367 1.03546959 10.72745163 0.00549944 -0.00378636 0.00436237
C 2.43535425 2.81070916 10.86933761 -0.00007874 -0.00266642 -0.00216479
C 8.42828159 7.47935914 7.46932232 -0.00210516 0.00074840 0.00389128
C 1.88252518 7.14143660 7.44444803 0.00289798 0.01065723 0.00202354
C -4.32249800 1.94439483 10.98354553 0.00478004 0.00208115 -0.00205117
C 2.33934493 2.09031499 12.06809675 0.00358027 -0.00484181 -0.00383238
C 8.51417290 6.71436587 6.27788976 -0.00154119 -0.00414241 0.00497819
C 2.02157626 7.80514474 6.23026474 0.00392651 -0.00134524 -0.00054618
C -4.48443508 2.92898673 11.97051469 -0.00325331 0.00863940 0.00287266
C 4.01313519 1.96350962 6.42555589 0.00347286 0.00094855 0.00249397
C 6.96206639 6.95474282 11.54754809 -0.00729036 -0.00332548 0.00307006
C 0.24293738 7.73008822 11.49274971 -0.00000279 0.00388834 -0.00339847
C -2.50527373 2.60318797 6.72888357 -0.00381248 0.00150657 0.00420363
C 3.03211363 2.92817157 6.14476752 -0.00182057 -0.00128825 0.00145633
C -5.46418885 7.96228722 12.11087161 -0.00432408 -0.00059090 -0.00447463
C 1.22147066 6.84493136 11.90202038 -0.00553374 -0.00224126 -0.00337918
C 9.61445026 1.95139378 6.39795642 -0.00455393 -0.00131601 0.00002103
C -1.17281822 5.06167539 9.60086194 -0.00456546 -0.00208831 -0.00015723
C -1.23807489 0.12701087 8.62739632 0.00379420 0.00406134 -0.00355897
C 5.14318025 4.51966013 8.61566518 0.00172579 0.00968024 -0.00027736
C 5.66530650 9.37748677 9.69194438 -0.00974271 -0.00317993 -0.00354397
C -2.31493224 6.03822300 9.44288056 -0.00563040 0.00208309 0.00197184
C 0.13185363 0.67694665 8.84930061 -0.00140946 -0.00929662 0.00197885
C 6.11159217 3.32407844 8.80140818 -0.00636831 0.00411982 -0.00455644
C 4.27723776 8.72243674 9.43044875 0.00133067 -0.00557763 0.01015128
C -3.03565355 3.74188512 17.15424607 0.00928358 0.00282946 0.00434033
C -5.71892786 8.69038129 13.24863321 0.00122080 0.00852211 0.00084915
C 1.03389141 5.98991911 12.95403058 -0.00226668 -0.00140887 0.00091364
C 3.68711673 1.09505284 17.15290233 -0.00168858 0.00220399 0.00060124
C -1.85518265 3.56699934 16.39919410 -0.00719167 -0.00070101 -0.00003262
C 6.47785052 8.69844448 13.67609627 0.00182453 0.00053747 0.00113506
C -0.20926685 6.08212284 13.69085748 0.00247865 -0.00018897 0.00776478
C -8.19347295 0.88467005 16.65030863 0.00584881 -0.00573590 0.00109084
C -0.90583377 2.64182485 16.76254127 0.00087811 -0.00453125 0.00075865
C 5.49795892 7.78672331 13.33392366 -0.00462633 0.00524048 0.00111012
C -1.23239470 6.86017973 13.20700016 -0.00648676 -0.00150897 0.00019111
C -7.27019173 1.82862205 17.09583776 0.00595182 0.00533300 -0.00061975
C -0.99845470 1.89925663 18.02838408 -0.01330716 -0.00209107 0.00627864
C 5.68030688 6.93074177 12.18916949 0.00258073 -0.00277535 0.00994290
C -1.00580066 7.71507603 12.08536502 -0.00724374 -0.00266741 -0.00190451
C -7.44044530 2.58837623 18.33277683 -0.00088359 0.00499076 0.00410292
C 1.07434651 2.13644161 12.70271778 0.00598190 0.00079892 0.00768086
C 3.78329118 7.13854025 17.35737877 -0.00183488 -0.00364596 0.00476251
C -2.83703445 7.57270374 17.52467256 0.00055234 0.00764854 0.00411485
C -5.82295679 2.95525934 12.65312535 0.00128680 0.00134359 -0.00384535
C 0.03972958 2.96359432 12.34244958 -0.00097615 -0.00105676 -0.00284706
C -8.58768168 7.67350274 17.86368708 0.00405847 -0.00233345 0.00615985
C -1.81869376 6.74401457 17.97935905 -0.00353090 -0.00362984 0.00561105
C 6.48288547 1.94558696 12.30626502 -0.00386208 0.00163018 -0.00163105
C -4.40896492 4.97494692 15.70994528 -0.00671239 -0.00406323 0.00167599
C -4.49665942 0.03145902 14.80100824 0.00584727 -0.00269208 -0.00140403
C 2.12668620 4.56768202 14.57674416 0.00077597 -0.00492336 -0.00390479
C 2.55159315 9.68477146 15.75559236 -0.00629381 -0.00099536 -0.00188888
C -5.71345621 5.69737058 15.73458527 -0.00170579 0.00170366 -0.00251678
C -3.30472564 0.89307033 14.97164040 -0.00238324 -0.00255227 -0.00289858
C 3.43606386 3.77913293 14.85882370 0.00121058 0.00077093 0.00178298
C 1.27219451 8.88100677 15.62307953 0.00193701 0.00676365 -0.00360049
C -5.84296135 3.82148819 23.19171237 0.00265464 0.00326617 -0.00124689
C -8.68319944 8.41870683 19.03075920 0.00323620 0.00108361 -0.00118502
C -2.00030879 6.01421302 19.10496259 0.00045522 -0.00091344 0.00299841
C 0.79679012 1.07719208 23.35079569 0.00304278 -0.00013719 -0.00253070
C -4.62008258 3.76290235 22.54069066 0.00543578 0.00485126 -0.00353634
C 3.39732136 8.41693684 19.85903101 -0.00148635 -0.00511313 -0.00570747
C -3.20238162 6.21135705 19.85642242 0.00385531 0.00380651 -0.00156067
C 28.32930331 1.14951082 22.62330081 -0.00634816 -0.00386459 -0.00039491
C -3.69291791 2.85933166 23.00829327 -0.00349327 0.00371540 0.00151118
C 2.40586860 7.58722551 19.37268534 0.00512666 -0.00582126 0.00046256
C -4.21315457 7.00422814 19.47656218 -0.00820744 -0.00280679 0.00233707
C -10.21284884 1.94203058 23.05263684 -0.00124446 -0.00322658 -0.00158230
C -3.80051715 2.11264607 24.17522176 0.00190624 0.00293264 0.00190851
C 2.52626037 6.98453726 18.06725533 -0.00039595 0.00261464 -0.00071365
C -4.00111572 7.83083850 18.26299618 -0.00110731 0.01013770 -0.00648636
C -10.55299141 2.85278759 24.14036192 0.00508764 -0.00477843 0.00341302
C -2.11403692 2.11696633 18.76413161 0.00124179 0.00331817 0.00817596
C 0.99071993 6.86254678 23.79917029 0.00100039 -0.00420150 -0.00323632
C -5.64544341 7.84411680 23.78305424 -0.00244887 0.00595225 0.00721430
C -8.71453539 2.42878787 18.98840429 0.00637544 -0.00409992 -0.00800749
C -3.15812547 2.94850332 18.29200491 -0.00769791 -0.00055748 0.00019384
C 0.88664098 7.67380157 0.18743952 -0.00157320 -0.00853422 0.00519682
C -4.71170168 6.87178395 24.14154622 -0.00244625 0.00010501 0.00346569
C 3.54655907 1.75102388 18.33685229 -0.00307020 -0.00291598 0.00650355
C -7.04394999 5.12610972 21.60533363 -0.00301305 -0.00496373 0.00875268
C -7.24074681 0.12392428 20.65729010 0.00474295 0.00058996 -0.00783868
C -0.76647829 4.71441275 20.71343819 -0.00554552 0.00385061 0.00302135
C -0.49582169 9.34732875 21.81939828 0.00030040 -0.00363849 -0.00137261
C -8.31562642 5.94748296 21.35489920 -0.00139901 0.00039011 0.00105107
C -5.89410145 0.73847296 20.97791817 0.00214177 0.00076790 -0.00004182
C 0.41387234 3.80584849 20.87055696 -0.00409141 -0.00128248 -0.00371156
C -1.66767089 8.43533755 21.66136521 -0.00406232 -0.00009299 -0.00316204
C 3.22385416 13.58163987 5.45581168 0.00081171 -0.00072721 0.00191905
C 0.30544345 18.31210352 1.08133371 0.00254904 -0.00664237 -0.00214079
C 6.93710278 15.65149849 0.93628588 0.00328389 0.00015311 0.00179023
C 9.83750545 10.72173217 5.05110380 0.00032066 -0.00282874 0.00740433
C 4.49173704 13.46328840 4.70447427 -0.00129378 -0.00343130 -0.00165094
C 12.34850878 18.29806597 2.01755028 -0.00019704 0.00660336 -0.00542331
C 5.75839954 15.79439271 1.75771005 0.00240509 0.00558957 -0.00081878
C 37.27487879 10.82814002 4.43006677 0.00748055 0.00149319 0.00737104
C 5.45407752 12.52064608 4.98310789 -0.00183914 -0.00101319 -0.00337087
C 11.46910005 17.39390118 1.52607271 -0.00662076 0.00518606 -0.00070937
C 4.75981968 16.67421555 1.44829219 -0.00042902 -0.00934414 0.00412348
C -1.52823679 11.91413036 4.71567518 0.00448492 -0.00174619 -0.00193454
C 5.18760090 11.58005964 6.10984843 0.00100911 0.00113859 0.00437745
C 11.77012694 16.59254434 0.41334530 0.00889550 0.00265250 0.00379502
C 4.81419344 17.31471944 0.18604576 -0.00635182 0.00654580 -0.00022979
C -1.71731933 12.63487871 5.92363662 0.00397218 0.00971899 0.00224494
C 6.95780492 11.70394459 0.40623747 0.00643095 -0.00086500 0.00112659
C 10.05638747 16.67945457 5.63451066 -0.00076443 0.00276111 -0.00199831
C 3.17145330 17.49373329 5.49429998 -0.00117101 -0.00416496 0.00034837
C 0.49655852 12.40588543 0.67673156 0.00499392 -0.00205210 0.00357141
C -6.07054975 12.54452913 24.28218910 -0.00713070 -0.00433794 -0.01030105
C -2.21780020 17.56122167 6.00090795 -0.00122744 0.00618824 -0.00177670
C 4.22819978 16.85282388 6.01105596 -0.00418861 0.00653142 -0.00251812
C 12.36664132 11.69973737 0.02710252 0.00571100 0.00272510 -0.00781983
C 1.97511086 14.81108021 3.79019788 -0.00170451 -0.00231667 0.00060783
C 1.95203080 10.03609393 2.75979437 0.00333207 0.00142889 -0.00434093
C 8.18245194 14.19608811 2.50657204 -0.00498384 0.00057278 0.00387124
C 8.37396446 19.17081075 3.58791131 -0.00048090 -0.00251904 0.00747017
C 0.77849452 15.75134796 3.54702095 -0.00173900 -0.00772493 -0.00445273
C 3.32333250 10.72498274 3.05415701 -0.00507110 -0.00583309 0.00361055
C 9.05679019 13.01115153 2.75532260 0.00072595 -0.00732729 -0.00010856
C 7.15753707 18.25847753 3.48005734 -0.00462519 0.00391193 0.00395668
C 0.00136828 13.46068785 11.25797918 0.00107974 0.00056189 0.00417180
C -2.42977988 18.62635649 6.92681039 0.00310448 0.00045891 0.00111271
C 4.04838118 15.96157204 7.07694836 -0.00310977 0.00126008 0.00869052
C 6.79310016 10.82842285 11.24642209 -0.00398809 -0.00781565 0.00385084
C 1.20972872 13.40130366 10.56320791 0.00554097 -0.00352994 0.00362544
C 9.43047073 18.47462981 7.71340349 -0.00288259 0.00174750 0.00495931
C 2.78061613 15.92105129 7.74479888 -0.00384196 -0.00274684 0.00374635
C 34.10543425 10.76968084 10.67571229 -0.00171370 0.00330653 -0.00847764
C 2.23931564 12.59445510 11.02371069 0.00525678 -0.00244503 -0.00002268
C 8.52476964 17.47451488 7.29612390 -0.00145620 0.00405128 -0.00348988
C 1.83525011 16.85618269 7.33740461 0.00245368 0.00635353 0.00611178
C -4.50757515 11.72931046 10.90331475 -0.00253610 -0.00205523 0.00456829
C 1.99855248 11.66714438 12.05512759 0.00544253 0.00908505 -0.00173607
C 8.81664372 16.57943690 6.23415862 -0.00263671 0.00503491 -0.00341644
C 1.96634675 17.62035689 6.15716622 0.00749134 -0.00078756 -0.00625971
C -4.62362759 12.56207853 12.11533291 0.00177553 0.00016192 -0.00721671
C 3.92443627 11.70456963 6.81654392 -0.00391619 0.00205682 0.00208507
C 6.79006012 16.64704065 11.59138864 -0.00184272 0.00319010 0.00181589
C 0.29839079 17.33739264 11.60545407 0.00317708 0.00475281 0.00118552
C -2.89872790 12.34901787 6.66279750 -0.00400999 0.00503457 0.00772456
C 3.01579727 12.73240261 6.51120800 -0.00037390 -0.00168940 -0.00072289
C -5.30971397 17.28535139 12.08378955 0.00595449 0.00741350 0.00423888
C 1.24235134 16.43038892 12.12205194 0.00059495 -0.00466182 0.00185442
C 9.51159659 11.58960811 6.04612431 -0.00452538 -0.00121977 0.00803800
C -1.15267229 14.83615809 9.61503352 0.00288493 -0.00845290 -0.00264015
C -1.47732164 9.96863530 8.40054682 -0.00632359 0.00143801 -0.00446198
C 5.27482015 14.50606307 8.66015970 0.00281696 0.00236858 -0.00656610
C 5.63009888 19.34030979 9.60943521 -0.00357625 -0.00330692 0.00101825
C -2.40704504 15.62574038 9.30420474 0.00102615 0.00619568 -0.00670230
C -0.30433139 10.91095657 8.68584885 -0.00401866 -0.00164981 -0.00247030
C 6.31101274 13.40815338 8.86734812 -0.00051974 -0.00288163 0.00715262
C 4.49770890 18.40520540 9.34786959 0.00012951 0.00473393 0.00584675
C -2.91934331 13.43295302 17.24225544 -0.00176111 0.00471086 -0.00556389
C -5.45465385 18.13008453 13.20212851 -0.00579601 0.00489182 0.00485233
C 0.99176573 15.55720682 13.17302264 -0.00291324 -0.00004871 -0.00163715
C 3.84176777 11.00894405 17.34071988 -0.00258787 0.00250500 0.00600174
C -1.69580732 13.45032128 16.61490438 0.00441105 -0.00237298 -0.00029337
C 6.55397163 18.32309750 13.79487811 0.00458093 0.00017780 -0.00122531
C -0.31099445 15.66189651 13.75359962 0.00494825 -0.00599709 -0.00009032
C 31.26706766 10.82427224 16.56712259 0.00826687 -0.00612721 -0.01016754
C -0.66641990 12.59928239 16.99461038 0.00106959 -0.00272391 -0.00131101
C 5.50705997 17.51740546 13.39864351 -0.00106743 -0.00560308 -0.00048966
C -1.18238650 16.66771790 13.34680757 -0.00236432 0.00411308 0.00552188
C -7.35546783 11.62034809 17.02776730 -0.00075915 -0.00998782 0.00665384
C -0.71647987 11.85447724 18.17708634 -0.00252867 0.00092197 -0.00035475
C 5.57061532 16.73106251 12.22237329 -0.00275089 -0.00048773 -0.01011610
C -0.93321174 17.44746994 12.21913325 -0.00939751 -0.00002323 -0.00298375
C -7.50114885 12.38901926 18.19752665 0.00668084 -0.00311333 0.00550026
C 0.74132994 11.71075132 12.69515938 0.00256951 -0.00076935 0.00777939
C 3.73735291 16.70423128 17.59562811 -0.00026153 0.00801141 0.00576986
C -2.95307492 17.32399612 17.54191807 -0.00780345 0.00245674 0.00653312
C -5.85479570 12.54187856 12.81685641 0.00794852 0.00300821 -0.00099516
C -0.17988413 12.65596168 12.36753642 0.00153781 0.00234277 -0.00623878
C -8.48717444 17.09225595 18.14470129 -0.00426005 -0.00081376 0.00353524
C -1.89658191 16.47867750 17.94016888 0.00089932 -0.00709514 0.00601330
C 6.63296052 11.69443146 12.33266669 0.00226008 -0.00172932 -0.00049825
C -4.42937819 14.67739582 15.74459039 0.00115219 0.00141035 -0.00038915
C -4.48876209 10.04823070 14.87659296 0.00343610 0.00239168 0.00262232
C 2.27043922 14.29754453 14.85640383 0.00412103 0.00255457 -0.00209377
C 2.45504610 19.18834398 15.65507810 -0.00080483 0.00800522 -0.00159958
C -5.71842189 15.44229614 15.69272228 0.00464750 -0.00276628 0.00290573
C -3.14394501 10.66098449 15.17867227 0.00258774 -0.00377965 0.00170253
C 3.42111144 13.39494223 14.91493039 0.00365854 -0.00359168 0.00023619
C 1.25058730 18.33575626 15.34730122 -0.00258098 0.00631179 -0.00064707
C -5.91745904 13.49375411 23.27038704 0.00376454 0.00745652 -0.00819995
C -8.68352243 18.02118637 19.19170383 -0.00230190 0.00653246 0.00088441
C -2.07757434 15.68958416 19.11860327 0.00260514 -0.00354392 0.00319879
C 0.70876107 10.81781980 23.34143459 0.00094176 0.00659167 -0.00945143
C -4.65925231 13.62637910 22.63010727 0.00733522 0.00288188 -0.00003140
C 3.44677557 18.24773578 19.93544344 -0.00033639 0.00229505 0.00481428
C -3.26897798 15.77225315 19.84111363 0.00056323 0.00600932 -0.00416852
C -11.01152764 10.71058461 22.72438642 0.00210909 -0.00693400 -0.00401285
C -3.64594603 12.78571030 23.01522019 0.00470133 0.00060793 -0.00535284
C 2.41141996 17.43693312 19.52673764 -0.00311289 -0.00384068 0.00403134
C -4.31649801 16.56128950 19.45232439 -0.00622163 0.00032053 -0.00234668
C -10.11948375 11.65993002 23.10604406 0.00182940 0.00824582 0.00837107
C -3.84617982 11.77051086 23.99136275 0.00002517 0.00465719 -0.00239872
C 2.50451157 16.69527375 18.33001200 -0.00062842 -0.00366688 0.00334524
C -4.14621142 17.31500483 18.19834065 -0.00075045 -0.00143214 -0.00304354
C -10.31779667 12.57176671 24.22403692 -0.00229824 0.00105218 0.00444962
C -2.01858412 11.85326178 18.83926530 0.00635283 -0.00214432 0.00480929
C 1.01224763 16.75982109 24.06315733 0.00767390 0.00428512 0.00379071
C -5.98770540 17.25813363 23.67151670 0.00129213 -0.00334919 -0.00186710
C -8.73465462 12.33261676 18.84885584 0.00353441 -0.00105588 0.00417296
C -3.02660105 12.69354647 18.44821725 -0.00070031 0.00165968 -0.00392706
C -11.56608404 17.46538368 24.22288671 -0.00155719 -0.00079894 -0.00180541
C -4.92212329 16.42401270 24.06509228 -0.00307430 0.00477427 0.00076841
C 3.73979110 11.90115617 18.38532216 0.00178646 0.00298384 -0.00219491
C -7.36862588 14.90710495 21.83317559 -0.00237384 -0.00280387 0.00744171
C -7.54509056 9.79278411 20.61594386 0.00350071 -0.00328021 -0.00451764
C -0.73930272 14.46537183 20.72021016 0.00386045 -0.00506405 0.00364524
C -0.83544579 19.34190673 21.83690779 -0.00425990 -0.00302642 -0.00350334
C -8.61693468 15.71771695 21.82894447 -0.00358697 -0.00218139 -0.00013068
C -6.28275105 10.57520977 20.73077688 0.00103553 0.00416427 0.00493333
C 0.53079519 13.67148505 20.91039048 -0.00300530 -0.00381389 -0.00150607
C -2.10501724 18.56806503 21.83568879 0.00498922 -0.00886675 -0.00329364
C 3.25619124 23.25733301 4.88019243 0.00649153 -0.00200949 -0.00039232
C 0.44748734 27.72654317 0.88599471 -0.00489954 -0.00255149 -0.00463731
C 6.90929592 25.64754835 0.85967473 -0.00880440 -0.00108381 0.00329918
C 9.56451428 20.58239927 5.11086108 -0.00692439 -0.00209257 0.00535882
C 4.50282933 23.20416741 4.26249453 -0.01171155 0.00400670 0.00093337
C 12.60309319 27.85118094 1.48142389 0.00143969 0.01044422 -0.00831472
C 5.66811280 25.65382605 1.59359778 0.00783021 -0.00421726 0.00453219
C -2.12339803 20.88093116 4.43845975 -0.00617213 -0.00727684 -0.00029465
C 5.38636374 22.21611217 4.67712290 0.00349277 0.00677995 -0.00543865
C 11.58817123 27.02523310 1.07487557 -0.00065587 0.00498194 0.00602294
C 4.67934547 26.46371300 1.18289733 0.00255571 0.00728865 -0.00396167
C -1.36878729 21.93671413 4.91487226 -0.00727268 -0.00154286 0.00914893
C 5.20413235 21.41595519 5.81544026 -0.00252090 -0.00225199 -0.00688930
C -0.33956647 26.16831056 24.21074309 -0.00017297 0.00434016 0.00600666
C 4.88620413 27.29717019 0.05203665 -0.00059757 0.00373379 -0.00361807
C -1.82283371 22.81618370 5.87007156 0.00778318 -0.00295438 0.00557071
C 6.97116496 21.60794963 0.62026633 0.00300046 -0.00518204 0.00105453
C 10.03263909 26.41429984 5.59009539 -0.00421732 -0.00181155 0.00678556
C 3.18254768 27.03966927 5.38688277 -0.00739799 -0.00729980 0.00448931
C 0.23399451 22.11292139 0.61751153 -0.00438925 0.00302293 -0.00255237
C 5.97788773 22.46821578 0.14166887 0.00717847 -0.00252224 -0.00456986
C -2.30786058 26.88358314 6.00559394 -0.00335890 0.00146350 0.00319231
C 4.26409724 26.30317078 5.85430499 0.00402750 -0.00026893 -0.00401499
C 12.35643159 21.59469406 0.03127358 -0.00480073 -0.00201672 -0.00274158
C 1.91566276 24.70728146 3.46684031 0.00492276 -0.01105019 0.00252255
C 1.53430454 19.68543454 2.51998024 0.00239920 0.00714837 0.00607628
C 8.04433420 24.13587406 2.47196678 -0.00242434 -0.00396597 -0.00212247
C 8.56575388 28.87305980 3.59632006 -0.00314906 0.00632670 -0.00121248
C 0.56520641 25.42865318 3.56054229 -0.00102236 -0.00047626 -0.00324091
C 2.86133677 20.48579819 2.93940908 0.00191326 -0.00786039 0.00200413
C 9.15602598 23.10140705 2.70945526 0.00118926 0.00859526 0.00173806
C 7.62737590 27.68273443 3.38615442 0.00142002 -0.00205507 -0.00044512
C 0.29107198 23.13698502 11.19430819 0.00241984 0.00906326 0.00651805
C -2.48302125 27.74239911 7.11422232 -0.00198370 -0.00042890 -0.00166076
C 4.06155721 25.47322958 6.95358355 -0.01011877 -0.00093728 -0.00192482
C 6.88546914 20.61188804 11.21568290 -0.00697912 0.00194355 -0.00292771
C 1.54163839 23.17509855 10.55341017 0.00305080 0.00385205 -0.00622433
C 9.71801948 28.04827304 7.79908902 -0.00017588 0.00075980 -0.00757972
C 2.82163926 25.52740654 7.61297251 0.00641819 -0.00317328 -0.01044795
C -5.01703996 20.41034475 10.66512174 -0.00069766 0.00017579 -0.00259257
C 2.51669677 22.31228944 10.98119649 0.00685700 0.00047290 -0.00198345
C 8.75115900 27.17124736 7.53870544 -0.00223501 -0.00386223 0.01058971
C 1.78395378 26.34412044 7.16402486 0.00363888 -0.00769680 -0.00037335
C -4.06522371 21.37997686 11.04453048 0.00372121 0.00604213 0.00343042
C 2.34540349 21.44202172 12.08516667 -0.00392982 0.00045074 -0.00008836
C 8.88177329 26.40818225 6.34456394 -0.00129153 0.00748499 -0.00047899
C 1.89744891 27.09730471 6.04701314 -0.00209034 0.00548096 0.00292905
C -4.30392150 22.23400582 12.10101335 0.00168520 -0.00458586 0.00680742
C 3.98419524 21.64942743 6.50394165 -0.00548577 0.00151342 0.01205006
C 7.11481264 26.49427247 11.61853230 0.00244309 0.00218054 -0.00332605
C 0.25202439 27.13672355 11.56351893 0.00097393 -0.00061521 0.00175585
C -3.10318944 22.56106478 6.48731316 0.00134512 -0.00101749 -0.00549501
C 2.97284330 22.48843122 6.04546257 0.00809730 -0.00232923 -0.00276564
C -5.34205471 26.96272460 12.11454402 0.00044941 0.00724179 0.00143843
C 1.19373409 26.19938382 11.98487362 -0.00302236 0.00138934 -0.00045128
C 9.41633468 21.46697550 6.22414878 0.00599659 0.00052623 0.00272252
C -0.98045525 24.43127074 9.60783284 -0.00498820 -0.00734320 0.00153551
C -1.18991406 19.95393915 8.42196008 -0.00604898 -0.00055764 0.00312447
C 5.29631638 24.26757460 8.65640804 -0.00142248 -0.00238251 0.00070702
C 5.59806999 28.88246523 9.55344172 0.00423023 0.00060150 -0.00111004
C -2.15567201 25.25708667 9.40904887 -0.00963485 -0.00730078 0.00526763
C 0.02896216 20.80351131 8.63745892 0.00411556 -0.00160595 -0.00505927
C 6.52181955 23.42881787 8.86691660 0.00133246 -0.00174170 0.00457444
C 4.65478267 27.76703959 9.36490945 0.00024825 -0.00374070 -0.00064582
C -2.90988252 23.22277668 17.29633834 -0.00326694 0.00553464 0.00310155
C -5.65983209 27.80515932 13.17097560 -0.00116727 0.00348126 -0.00599132
C 1.02233912 25.42940776 13.17189107 -0.00975751 0.00441893 -0.00114616
C 3.65558114 20.55198192 17.23287069 0.00291732 -0.00503234 -0.00002577
C -1.66898764 23.23372160 16.64165818 -0.00443187 0.00332308 -0.00803591
C 6.49604862 28.09708206 13.76014713 0.00101923 -0.00582957 0.00512270
C -0.29477074 25.43793788 13.77248404 -0.00168373 0.00444481 -0.00395673
C -8.08087159 20.46496488 16.52626554 0.00206622 0.00277510 0.00383718
C -0.66140173 22.38660513 16.97377093 -0.00172385 -0.00136591 0.00101944
C 5.66513194 26.99575977 13.55353266 0.01055242 0.00511125 -0.00258347
C -1.27113054 26.19358177 13.16621133 0.00309633 -0.00002913 -0.00609807
C -7.11583655 21.31682956 16.91948997 0.00361468 0.00044953 0.00448006
C -0.86687916 21.38426339 18.01240328 -0.00391285 0.00309257 0.00490636
C 5.94792675 26.29159271 12.36535129 -0.00023436 0.00184505 -0.00175799
C -0.97085880 27.18825052 12.22408586 0.00099188 0.00478325 -0.00191807
C -7.31182362 22.21572297 17.90909537 0.00371049 0.00155002 0.00400083
C 1.10099093 21.54607327 12.76575257 0.00520403 -0.00111965 0.00635699
C 3.97387157 26.12303452 17.96265384 0.00293252 -0.00455613 -0.01048233
C -2.89144928 26.99698339 17.86121325 0.00172662 0.01095506 -0.00069591
C -5.49273237 22.13607989 12.75375989 0.00442921 -0.00395664 0.00039164
C 0.08124278 22.30743206 12.26787563 -0.00511906 0.00383922 0.00376527
C -8.28705346 26.75291803 18.14549735 0.00425421 -0.00617419 -0.00121443
C -1.91463405 26.07304384 18.20807800 0.00612169 0.00607302 -0.00080466
C 6.67514583 21.39800005 12.35789306 -0.00406700 0.00750268 -0.00124339
C -4.07758074 24.71242415 15.64340025 -0.00237994 -0.00098870 0.00143687
C -4.46718079 19.84274226 14.62566526 0.00400509 0.00010102 -0.00124508
C 2.27118928 24.09442824 14.89464116 -0.00220419 -0.00192401 -0.00721311
C 2.47060817 28.76653678 15.64713302 -0.00373810 0.00596238 -0.00373377
C -5.15468789 25.71706526 15.36684235 0.00393470 0.00266225 0.00477609
C -3.33318531 20.70838096 14.94080796 0.00207458 0.00039833 0.00313216
C 3.49229391 23.27423534 15.12117159 -0.00637352 0.00439955 -0.00034358
C 1.17394330 27.95339211 15.47079763 0.00252245 0.00364421 -0.00366098
C -5.77966543 23.27889138 23.41138121 -0.00085970 -0.00209241 0.00153355
C -8.43421991 27.69106942 19.18161060 0.00210168 -0.00063470 0.00455905
C -2.12736465 25.23718333 19.33041869 -0.00187515 -0.00236671 -0.00714358
C 0.55799778 20.70398335 23.28327741 0.00567678 -0.00544039 0.00095500
C -4.52872676 23.13089613 22.71284174 -0.00001430 0.00110855 0.00221211
C 3.47410321 27.95602167 19.95283707 0.00729288 0.00037749 -0.00163117
C -3.29677951 25.39243931 20.05248529 -0.00522912 0.00676247 0.00025588
C 28.37071273 20.59053814 22.62702797 -0.00064487 -0.00249658 -0.00082996
C -3.55082686 22.26954874 23.16488478 0.00514740 -0.00097302 0.00043457
C 2.49178506 27.05521466 19.58429938 0.00380632 -0.00359356 -0.00070591
C -4.28188529 26.19362721 19.63539927 -0.00668853 -0.00023888 -0.00346583
C -10.29552572 21.50774624 23.09687659 0.00923483 0.00136613 0.00025890
C 8.20758856 21.52353071 0.01537543 -0.00768792 -0.00433316 -0.00503729
C 2.77802219 26.11147390 18.60878321 0.00061371 0.00480128 0.00199962
C -4.13709336 27.01144679 18.48912662 -0.00141154 0.01093205 0.00291640
C -10.49639168 22.27232346 24.26996969 0.00173616 -0.00209569 0.00051629
C -2.09483913 21.44643292 18.74239446 -0.00212025 -0.00740002 0.00245290
C 0.84113045 26.31826413 23.52892783 0.00108866 -0.00334660 -0.00666663
C -5.95081161 27.21049587 23.65911440 -0.00213951 0.00594798 -0.00034692
C -8.57577739 22.25606324 18.47028576 0.00484651 -0.00329532 0.00463049
C -3.08612117 22.30984566 18.34435336 0.00267301 -0.00030884 -0.00036117
C -11.32051351 26.87041723 24.10241033 0.00345656 0.00488635 -0.00351344
C -4.86464814 26.49385084 24.11342658 0.00521560 0.00015830 0.00585200
C 3.60326985 21.41894263 18.32714980 0.00445447 -0.00616294 -0.00035929
C -7.16253671 24.37366834 21.78679153 0.00636722 -0.00350784 0.00443941
C -7.49159194 19.61615905 20.66046975 -0.00157129 -0.00030267 -0.00176370
C -0.84866641 23.79621895 20.74251792 -0.00385013 0.00995663 -0.00289016
C -0.36251387 28.79169163 21.82161275 -0.00322542 0.00084539 -0.00109415
C -8.59603603 24.82739955 21.67151715 0.00371774 0.00282963 -0.00250925
C -6.42195529 20.68307490 20.82571382 -0.00479889 -0.00461652 0.00011669
C 0.50590842 23.05262466 20.80671307 0.00267395 -0.00595906 0.00555673
C -1.59566898 27.93202236 21.65897586 0.00050011 -0.00116073 -0.00135471
C 16.24508730 3.56700514 4.90568370 -0.00363341 -0.00172903 0.00625119
C 13.74256320 8.69130368 0.94287321 -0.00207188 -0.00626299 0.00316982
C 20.20320935 5.84609323 0.94119262 -0.00382623 -0.00456285 -0.00268592
C 23.04685566 1.12049002 5.08747469 -0.00227333 0.00119626 0.00259680
C 17.52145579 3.60270237 4.34491002 -0.00247397 -0.00080067 -0.00130624
C 25.55470164 8.30598631 1.86045335 -0.00998213 -0.00029959 0.00956091
C 18.97695404 5.98984584 1.64372592 -0.00262898 0.01182227 -0.00305802
C 10.88233195 1.25789139 4.46140857 0.00311173 -0.00798946 0.00081228
C 18.49740287 2.64260434 4.82094341 -0.00118823 -0.00136020 -0.00503621
C 24.46751835 7.50294969 1.47094182 0.00217238 0.00563042 -0.00445611
C 18.02191264 6.81187521 1.18830157 -0.00260160 -0.00573922 0.00093532
C 11.89425933 2.20140789 4.74143027 0.00052793 -0.00563696 0.00289607
C 18.11983511 1.63066678 5.73070151 -0.00235733 0.00117683 -0.00578002
C 24.57106531 6.79457666 0.30735621 -0.00289619 0.00289610 0.00144176
C 18.13544119 7.65766421 0.12613905 0.00118602 -0.00542093 0.00204952
C 11.76741832 3.07954065 5.83335410 -0.00192974 -0.00847263 0.00905710
C 20.22052603 2.08035597 0.54665365 -0.00567455 -0.00172446 -0.00193756
C 23.01506604 7.01791817 5.42357963 -0.00150113 0.00157671 0.00143854
C 16.34044501 7.49562539 5.58754158 -0.00193045 0.00016508 0.00577271
C 13.61617656 2.79771934 0.61638780 0.00237322 0.00613349 -0.00041659
C 19.16146254 2.88867472 0.11384456 -0.00506978 0.00331419 0.00086030
C 10.71372964 7.78313831 6.00527260 0.00491937 0.00085078 0.00024122
C 17.29692205 6.54783570 5.88897211 0.00171999 -0.00538839 -0.00101613
C 25.74566238 1.92978923 0.23613275 0.00241893 0.00159937 0.00591886
C 15.07928704 5.16791364 3.39580336 -0.00475157 -0.00431913 -0.00090858
C 14.95508357 0.18199778 2.40679985 -0.00031086 -0.00115404 -0.00090834
C 21.42141355 4.45219708 2.61308119 -0.00159272 0.00845580 0.00131838
C 21.53539949 9.20242636 3.64538541 0.00330604 -0.00248379 -0.00197449
C 13.84161640 5.96488148 3.18209334 0.00161285 0.00058864 -0.00076643
C 16.10190988 1.04252716 2.72816306 0.00020465 -0.00329910 -0.00238959