2880
Time=82000.00000008 pbc="T T T" Lattice="39.50520756 0.00000000 0.00000000 0.00000000 28.95351912 0.00000000 -12.01804848 0.00000000 24.36134757" energy=-18398.55471170 virial="-19.61213518 -25.09122709 -37.62372406 -25.09122709 28.26173615 -64.77908629 -37.62372406 -64.77908629 63.61285221" stress="0.00175706 -0.00089932 -0.00137864 -0.00089932 0.00356457 -0.00237352 -0.00137864 -0.00237352 0.00470455" Properties=species:S:1:pos:R:3:vel:R:3
C 3.10688049 3.80289011 5.26350879 0.00708496 -0.00635088 -0.00136994
C 0.31591266 8.61364714 0.76371126 0.00530534 0.00700735 -0.00223226
C 6.96610602 5.75776989 0.86726271 -0.00194684 -0.00754315 -0.00704798
C 9.61702708 1.21787221 5.26607722 0.00544656 -0.00509107 -0.00247793
C 4.25822193 3.68465788 4.50252036 0.00138294 0.00363689 0.00183561
C 12.33741217 8.38765901 1.57246356 -0.00085566 0.00278490 -0.00288245
C 5.78835979 5.94772672 1.59892396 -0.00020733 -0.00594956 -0.00200133
C 37.23876631 1.18126823 4.48373924 0.00153281 -0.00043704 -0.00502423
C 5.28448859 2.88571819 4.88539470 0.00823867 0.00554263 0.00411650
C 11.31947400 7.57271723 1.18912490 0.00696655 0.00267070 -0.00408882
C 4.80314431 6.74491940 1.04226576 0.00343776 0.00410457 -0.00185566
C -1.33108863 2.12930020 4.84318004 -0.00138489 -0.00812776 -0.00683963
C 5.20407374 2.26721463 6.14879402 -0.00104312 0.00722386 0.00041638
C 11.56127432 6.69887784 0.08430178 0.00367819 -0.00374445 0.00995623
C -7.04044933 7.45208000 24.23543586 0.00658154 -0.00275283 -0.00398388
C -1.50411389 2.96314222 5.98723976 0.00151843 -0.00160278 0.00220975
C 6.90452529 1.98595559 0.67988282 -0.00673763 -0.00226627 0.01026280
C 9.61462356 6.82292385 5.49962401 -0.00193278 0.00278150 0.00192063
C 3.15035883 7.62374348 5.40192636 0.00257947 0.00651279 0.00113872
C 0.44313131 2.87430008 0.58687027 -0.00735666 -0.00083282 0.00364293
C 5.87180690 2.87300300 0.29108208 0.00369282 0.00537613 0.00149509
C -2.21576267 7.70589668 5.91894983 0.00347840 -0.00066121 0.00284039
C 4.21007589 6.82279942 5.89801175 -0.00321256 0.00355387 0.01554894
C 12.63386376 1.96589439 0.24245664 -0.00063356 0.00254237 -0.00176028
C 1.89259735 5.08026176 3.67913888 -0.00141049 0.00064168 -0.00856398
C 1.62652910 0.47933360 2.89721947 0.00173093 -0.00309795 0.00726797
C 8.29199376 4.58687968 2.53713054 -0.00047913 0.00147666 0.00650694
C 8.47764956 9.30198577 3.20973117 -0.00248790 -0.00410695 -0.00046322
C 0.82684306 6.12944045 3.54402504 0.00118798 -0.00363846 0.00037775
C 2.79091808 1.43294197 3.20032149 0.00447654 -0.00459004 -0.00056165
C 9.46748667 3.68689402 2.69374085 -0.00005028 -0.00210628 -0.00579732
C 7.12755241 8.62401357 2.90032489 0.00253547 -0.00018051 -0.00326596
C 0.31476183 4.03655829 11.29194879 -0.00011081 0.00284813 0.00419491
C -2.35898719 8.56453819 7.01146754 -0.00152266 0.00208503 -0.00022077
C 4.10681220 6.04369601 7.08435112 -0.00217624 -0.00092029 -0.00224980
C 6.77846757 1.12833668 11.13691398 -0.00608301 0.00152062 0.00059792
C 1.62078663 3.98758590 10.72930518 -0.00146692 0.00365354 -0.00124528
C 9.43008004 8.52477278 7.62711215 0.00299068 -0.00450979 -0.00915136
C 2.81971069 6.02183681 7.77135600 0.00540798 0.00171337 0.00238034
C -5.16302997 1.28838339 10.63079729 -0.00349330 0.00270139 -0.01131186
C 2.56071468 3.01121390 11.11491429 -0.00249807 0.00519429 -0.00478346
C 8.36975257 7.66510361 7.34188181 0.00734655 -0.00735421 0.00072716
C 1.83609744 6.85447251 7.28565820 -0.00323349 -0.00076620 0.00302595
C -4.18186967 2.24439211 10.94188869 0.00863547 0.00198805 0.00490219
C 2.27893013 2.05751518 12.11374373 0.00876471 0.00892275 0.00343437
C 8.39853104 6.92528370 6.16484372 -0.00028112 -0.00332096 0.00473300
C 1.96945825 7.65421861 6.09542385 0.00411874 -0.00150396 -0.00720480
C -4.45895732 3.12190808 12.03310605 0.00134284 -0.01084798 -0.00170603
C 4.03217107 2.40914249 6.96631029 -0.00312315 0.00715485 -0.00329274
C 6.64818031 6.81830554 11.56793791 0.00119802 0.00208506 -0.00274823
C 0.51577962 7.89144004 11.67195210 0.01141164 -0.00652590 0.00020875
C -2.74159399 2.95299928 6.59359567 0.00037663 0.00172822 0.00263375
C 2.96287584 3.07454434 6.44771045 -0.00402216 0.00432097 -0.00171487
C -5.22255446 7.65795054 12.00279345 0.00548408 -0.00148886 0.00701348
C 1.41765027 6.92553708 12.10553086 -0.01089838 0.00292608 0.00697650
C 9.51292994 2.07978894 6.35013168 -0.00041456 -0.00196759 0.00249747
C -0.79746144 5.37149986 9.57078682 -0.00313152 0.00734560 0.00301035
C -1.49501089 0.41160969 8.62594334 0.00427561 -0.00039916 -0.00450332
C 5.31624906 4.73623926 8.61704250 -0.00624324 0.00433279 -0.00719109
C 5.41180999 9.43044436 9.61254282 0.00048534 -0.00601924 -0.00444761
C -2.08333447 6.15939756 9.35707962 0.00043324 -0.00231831 -0.00346846
C -0.28904903 1.32462439 8.66597386 0.00447338 0.00091965 0.00439352
C 6.55215643 3.82041915 8.92448976 0.00922926 0.00247585 -0.00119539
C 4.13512136 8.62087493 9.27259095 0.00111169 -0.01320191 -0.00063409
C -2.84032841 3.83962454 17.20784252 0.00142168 0.00108215 0.00692427
C -5.44004963 8.46544024 13.08157899 -0.00024077 -0.00272473 -0.00157787
C 1.24153464 6.00476959 13.15782547 0.00398202 0.00194316 -0.00056236
C 3.69392054 1.13538566 17.31591322 -0.00640260 -0.00110985 -0.00443673
C -1.58764322 3.70441576 16.52160639 0.00327670 0.00075383 0.00425426
C 6.41351108 8.42030729 13.78694433 0.00059354 0.00485582 -0.00018265
C -0.00643231 6.09157957 13.82419848 -0.00407385 0.00579460 -0.00162237
C -8.12343043 1.37443787 16.61850242 0.00211567 0.00725170 0.00226349
C -0.65237177 2.83098300 16.98556275 -0.00084410 0.00197900 -0.00479623
C 5.37401719 7.59768859 13.46834384 0.00093832 0.00328817 0.00575008
C -0.92735186 7.02206996 13.38474276 -0.00120838 0.00073281 0.00131598
C -7.18978587 2.26748763 17.07610626 -0.00732615 0.00176688 0.00043705
C -0.87179735 2.08321276 18.19223812 -0.00100587 0.00162970 0.00593688
C 5.46715080 6.79229038 12.28772600 -0.00595193 0.00252497 0.00489994
C -0.70176750 7.89234000 12.38282638 -0.00141912 -0.00209157 -0.00154442
C -7.42518415 2.99822666 18.21536590 0.00552210 0.00175953 0.00178261
C 0.89100264 2.05049412 12.57587856 -0.00830287 0.00136717 -0.00291957
C 3.64700060 6.99051770 17.86654382 0.00176098 0.00219290 -0.00194038
C -2.70103048 7.76127880 17.75665895 0.00129847 -0.00425131 0.00069798
C -5.61542041 3.01129546 12.73697662 0.00616961 0.00091130 -0.00060758
C -0.04497423 3.08160981 12.25422483 -0.00134039 -0.00245312 0.00280597
C -8.35794591 7.62677146 18.09772365 0.00243643 -0.00518030 -0.00100114
C -1.75827653 6.89731670 18.22338593 0.00555948 -0.00058809 0.00037244
C 6.66441476 1.85526328 12.30717045 0.00692196 -0.00791498 0.00704168
C -3.93606752 5.23558189 15.65080812 0.00247155 -0.00093420 -0.00187656
C -4.33108696 0.42887045 14.84141191 -0.00592313 0.00544699 0.00193565
C 2.31706950 4.66065491 14.83068194 0.00361776 -0.00401050 -0.00691601
C 2.51982385 9.57004928 15.71749457 0.00567929 0.00479947 -0.00289331
C -5.14272763 6.14912472 15.63240424 -0.00399763 -0.00045230 -0.00392030
C -3.11590083 1.29591267 14.87520587 0.00177791 0.00486413 -0.00167315
C 3.56604059 3.89300252 15.12331699 -0.00380302 0.00849211 0.00149720
C 1.43710676 8.57054892 15.45149064 0.00845558 0.00636702 -0.00639646
C -6.02074676 3.62240181 23.47919521 0.00187860 0.00214513 0.00249725
C -8.45447557 8.47724485 19.17185888 -0.00276227 -0.00137828 0.00074103
C -2.03329904 5.98731971 19.27821090 -0.00115633 0.00207975 -0.00814464
C 0.80082228 1.14529737 23.43925132 -0.00320512 -0.00408309 0.00537659
C -4.79994842 3.54847398 22.73449798 -0.00146972 -0.00369016 0.00222073
C 3.40584575 8.35080333 20.19232080 0.00074618 -0.00374647 0.00158271
C -3.27464318 6.07348939 19.93556238 0.00011850 -0.00648457 -0.00329714
C -11.18301183 1.20534257 22.81669025 -0.00043470 0.00550063 -0.00293873
C -3.80851062 2.62538429 23.10179494 -0.00052805 -0.00208267 0.00235882
C 2.44727867 7.43409724 19.91388098 0.00726254 -0.00332238 0.00083614
C -4.18790204 7.01346164 19.47993384 -0.00314786 0.00471750 -0.00499478
C -10.16256605 2.08141050 23.21808650 -0.00719172 -0.00027391 -0.00126453
C -3.92811963 1.85815758 24.27910515 0.00075601 -0.00525206 0.00795760
C 2.53274317 6.74153132 18.66775874 0.00101852 0.00394547 0.00570886
C -3.99280052 7.71819014 18.34915505 -0.00239317 -0.00092840 -0.00233549
C -10.28914571 2.92419358 24.33278081 -0.00194550 -0.00083145 -0.00612344
C -2.18673835 2.20473711 18.81620538 0.00011577 -0.00566343 -0.00621853
C 0.75223996 6.67608970 23.81930229 0.00503219 0.00270015 -0.00090036
C -5.91149282 7.13121632 23.42472419 -0.00467801 0.00559190 0.00260350
C -8.68987675 2.86144369 18.79712035 0.00195201 0.00576560 -0.00434174
C -3.17406496 3.04203986 18.25329852 0.00064262 -0.00141907 0.00654922
C -11.51490016 7.73724054 24.03017787 0.00090112 0.00676728 -0.00255005
C -4.87565587 6.40732771 23.98817135 0.00210220 0.00210030 0.00342295
C 3.44234863 2.07877074 18.33557105 -0.00753981 -0.00295604 0.00170510
C -7.25230501 4.99792847 21.83001151 0.00753847 0.00467374 -0.00103514
C -7.37281820 0.37648205 20.88143089 0.00214186 0.00513844 -0.00124890
C -1.02097860 4.52001394 20.88851944 -0.00190008 0.00366844 -0.00283616
C -0.82741178 9.66794288 21.91153843 0.00206137 0.00350332 -0.00204033
C -8.56963078 5.60911494 21.57646514 -0.00427743 -0.00822944 -0.00324787
C -6.03824730 0.86775356 21.21430185 -0.00519244 -0.00368227 -0.00212908
C 0.01972909 3.50864897 21.21821697 0.00220321 0.00231796 0.00337330
C -2.24845760 9.14203534 21.89771120 0.00338494 -0.00058104 0.00132032
C 3.36805178 13.37752904 5.07281143 -0.00856614 0.00334367 -0.00266884
C 0.40476529 18.20990517 0.92294229 -0.00297072 0.00465442 -0.00461873
C 6.93131089 15.53498338 0.80437943 0.00140660 -0.00668792 -0.00198467
C 9.73539206 10.66771883 4.83111198 -0.00419581 -0.00350292 -0.00214870
C 4.60991584 13.34427980 4.40178216 0.00210437 0.00227398 0.00154314
C 12.38458962 18.02898430 1.62538104 0.00126715 -0.00476753 0.00288881
C 5.72841507 15.64483445 1.52561566 -0.00036523 -0.00221181 0.00442470
C -2.09673362 10.94007989 4.37896828 -0.00374621 -0.00256478 -0.00440978
C 5.62863307 12.50825543 4.85575715 -0.00089490 0.00031482 -0.00154074
C 11.28827434 17.25807095 1.32866681 0.00480585 0.00469537 0.00697167
C 4.73561188 16.51982835 1.13403225 -0.00142872 0.00635705 -0.00970927
C -1.08384030 11.68750566 4.86965541 0.00731191 0.01069936 -0.00562935
C 5.42403724 11.65557854 5.94676312 0.00387338 -0.00007830 -0.00021734
C 11.31928217 16.47041714 0.10813810 0.00529354 0.00906311 0.00525452
C -7.14928522 17.25573809 24.32437065 -0.00442938 -0.00102837 -0.00298597
C -1.31830084 12.50479920 5.95883046 -0.01162969 0.00564398 -0.00171164
C 6.93545255 11.59941170 0.42642620 -0.00100187 -0.00579332 -0.00066460
C 9.81902100 16.54649641 5.51069358 0.00297606 0.00165585 0.00019763
C 3.23638076 17.33388571 5.75559839 0.00991259 0.00675388 -0.00281510
C 0.43457192 12.42747404 0.47657199 0.00881231 0.00898588 0.00621839
C 5.90541073 12.40200757 0.04506429 0.00212629 0.00056320 0.00287223
C -2.44653999 17.16709717 6.18355141 0.00137086 -0.00032246 0.00496688
C 4.18718559 16.38565920 6.08427914 0.00024437 0.00626650 -0.00541778
C 12.58203678 11.72174539 0.05854081 -0.00300468 0.00243712 0.00396344
C 2.12811827 14.81042680 3.61553389 -0.00044256 -0.00342485 0.00433988
C 1.53724556 9.77923405 2.38920339 -0.00245685 0.00651224 0.00813771
C 8.10783309 14.09058492 2.37543548 0.00271423 -0.00608180 -0.00101569
C 8.33678398 18.85287449 3.68599622 -0.00007420 0.00567361 -0.00128611
C 1.08975462 15.86468796 3.56107123 0.00028017 0.00528579 -0.00154844
C 2.85502314 10.47543507 2.55622340 -0.00429569 0.00286870 -0.00072548
C 9.28443808 13.18268777 2.44304513 0.00261836 0.00371774 -0.00286797
C 7.16696545 17.92307944 3.46094763 0.00197324 -0.00051491 0.00909377
C 0.16980796 13.44517276 11.05405712 -0.00965004 -0.00172447 0.00071698
C -2.57423405 18.01815015 7.27849598 0.00093585 0.00070936 0.00296144
C 4.06504769 15.42468494 7.12275941 -0.00102094 -0.00458802 -0.00576010
C 6.56989784 10.76164820 11.22460743 -0.00046243 -0.00526770 0.00075563
C 1.35038979 13.41065653 10.30853216 -0.00331449 -0.01047970 -0.00555184
C 9.50349821 17.87079283 7.93433986 -0.00102349 -0.00043923 0.00328098
C 2.86539308 15.39774483 7.77496012 -0.00224055 -0.00743800 -0.00131504
C -5.01795120 10.69666600 10.50939519 0.00203356 0.00529860 -0.00132308
C 2.33282668 12.54480037 10.69168316 0.00070559 -0.00274729 -0.00241952
C 8.47667952 17.05705037 7.45349018 -0.00265667 0.00367655 0.00075702
C 1.86049671 16.32023028 7.48002445 0.00590792 0.00416903 -0.00140358
C -4.06117999 11.63012616 10.83841301 -0.00302284 -0.00418602 -0.00125985
C 2.21789479 11.76027266 11.89573363 0.01024253 0.00151512 -0.00126536
C 8.62132754 16.40781688 6.24394999 0.00074221 -0.00100131 0.00515574
C 2.00207091 17.29097633 6.47325745 0.00303003 -0.00073506 0.00777199
C -4.27247244 12.43304624 11.90625402 0.00155844 -0.00064527 -0.00320663
C 4.15100437 11.68135534 6.57692131 -0.00391905 -0.00488728 -0.00407122
C 6.67277240 16.54231514 11.78856960 0.00227993 -0.00015134 -0.00341534
C 0.13478153 17.25533734 11.69308205 0.00195347 -0.00587940 0.00631959
C -2.58632717 12.55317980 6.71231082 -0.00142461 -0.00265543 -0.00237702
C 3.16338902 12.51292257 6.18704657 0.00060740 -0.00002827 0.00528009
C -5.28294451 17.19092472 12.08488985 0.00102802 -0.00001186 -0.00955389
C 1.10365690 16.41773596 12.09610728 0.00141986 -0.00056255 -0.00045592
C 9.52438130 11.44579243 5.94814106 0.00387615 0.00090014 0.00232997
C -1.15144812 14.83787733 9.53931355 0.00119596 0.00642039 0.00226527
C -1.19124193 9.96659160 8.57400665 0.00373307 -0.00131204 0.00609125
C 5.45546312 14.24090598 8.71157380 -0.00468819 0.00630711 0.00022755
C 5.52025487 18.76788942 9.80642336 -0.00029110 -0.00131954 -0.00847224
C -2.50147481 15.47703795 9.51386229 0.00363567 0.00451314 -0.00309033
C -0.16572000 11.06433856 8.84927181 0.00694940 -0.00108980 -0.00168536
C 6.64548088 13.31874005 8.93673643 -0.00273171 -0.00127241 0.00419104
C 4.16716343 18.24609393 9.62105808 0.00302962 0.00685814 0.01096462
C -2.71103551 13.39744017 17.29655604 0.00444699 -0.00235122 -0.00536372
C -5.55279040 18.12813739 13.06369125 0.00314264 -0.00754106 0.00476102
C 0.91114761 15.61826009 13.21975063 0.00463279 -0.00285407 -0.00179163
C 3.84032248 10.87856484 17.26242473 -0.00471838 -0.00492229 -0.00244595
C -1.48301441 13.41649645 16.61900139 -0.00024526 0.00513099 -0.00559144
C 6.29641202 18.19045953 13.94468366 -0.00060759 0.00443943 0.00593000
C -0.35804758 15.62233610 13.84495546 0.00164646 -0.00071449 -0.00470616
C 31.25748342 11.01494291 16.58253699 0.00017064 0.00031626 0.00282888
C -0.48864566 12.51255862 17.06596601 -0.00152995 -0.00625317 -0.01008696
C 5.30031485 17.26581223 13.64750747 -0.00254476 0.00406467 0.00749974
C -1.32990537 16.46458175 13.51547362 -0.00462752 -0.01048908 -0.00064769
C -7.26717949 11.87624915 17.03283786 0.00257273 0.00272105 -0.00111579
C -0.61597437 11.79237651 18.21635207 -0.00241021 -0.00563530 0.00263225
C 5.47934166 16.40672661 12.55169576 0.00160682 -0.00083696 0.00258842
C -1.13941457 17.31152632 12.34965380 -0.00511266 0.00171047 -0.00144285
C -7.43764794 12.55376826 18.25077106 -0.00099698 0.00313391 -0.00178516
C 1.04614073 11.88053954 12.69931116 -0.00192991 0.00665518 0.00276289
C 3.93741766 16.50481521 17.77631553 -0.00287311 0.00097392 -0.00262491
C -2.63901478 17.53084276 17.84361401 0.00101180 0.00432649 -0.00736953
C -5.48172131 12.33764427 12.62178241 -0.00455427 -0.00053568 -0.00721186
C 0.02228380 12.59257247 12.17134196 0.00207097 -0.00278921 0.00262603
C -8.33359906 17.46670380 18.03543052 -0.00246710 0.00185863 0.00696252
C -1.68489819 16.60491914 18.20245097 -0.00198795 0.00489666 -0.00644544
C 6.44836007 11.55274017 12.34148916 0.00384510 0.00848241 0.00521966
C -4.04588103 14.71800657 15.74382043 -0.00375274 0.00380598 0.00293618
C -4.20886336 9.85377397 14.64514929 0.00038422 -0.00476358 0.00480898
C 2.23580601 14.25285173 14.81484205 -0.00052935 0.00191811 0.00220412
C 2.41925620 18.99250228 15.69170117 -0.00023896 -0.00360977 -0.00252956
C -5.16652805 15.60767935 15.64822557 0.00009831 0.00463110 -0.00002261
C -3.09623128 10.80185095 14.93803870 0.00611388 0.00068558 -0.00781922
C 3.53504886 13.47189266 14.89394162 0.00271861 -0.00263065 0.00070661
C 1.45643195 17.89732370 15.46756332 -0.00105399 -0.00372190 0.00226880
C -5.86388035 13.23325931 23.35446495 0.00544493 -0.00380530 0.00582191
C -8.48465818 18.13786547 19.25057621 0.00435771 -0.00389339 0.00631577
C -1.96405503 15.59084901 19.13095960 0.00055213 -0.00260338 0.00066605
C 0.63819120 10.82329901 23.35524414 0.00125213 0.00156155 0.00491523
C -4.63185124 13.26816301 22.67783894 0.00449035 0.00684060 0.00101801
C 3.43282291 18.25090218 20.05782186 -0.00003418 0.00243785 -0.00227027
C -3.25617814 15.58160219 19.72326503 0.00238728 0.00534946 -0.00060969
C 28.22432162 10.72384179 22.67736886 -0.00046441 0.00239988 -0.00060024
C -3.61514590 12.42231159 23.01459356 0.00112042 0.00478025 0.00415770
C 2.57180250 17.26990003 19.61152263 -0.00136095 0.00916400 0.00439980
C -4.20223812 16.61797530 19.43054181 0.00160250 -0.00179757 0.00107707
C -10.20418174 11.51819600 23.10936323 -0.00216657 0.00803889 -0.00023386
C -3.78370386 11.60639465 24.09767555 0.00346236 -0.00437719 -0.00139087
C 2.71456959 16.47810472 18.46727102 0.00281331 0.00102215 -0.00353649
C -3.93705839 17.48050740 18.36649118 -0.00259781 0.00369979 0.00407267
C -10.33936557 12.43359532 24.19418945 -0.00598292 0.00380702 0.00231045
C -1.84485090 11.91690079 18.93300597 -0.00318158 -0.00254661 -0.00486852
C 0.48689303 16.52286171 23.70009912 -0.00443781 -0.00744469 0.00436989
C -5.90188683 17.18821044 23.67141492 0.00250465 0.00707756 -0.00226182
C -8.70728637 12.33072391 18.92566566 -0.00595433 0.00031488 -0.00023766
C -2.94463253 12.53086384 18.38269660 -0.00176348 0.00576063 -0.00302260
C -11.38941781 17.37720420 24.21994216 -0.00408556 -0.00503416 0.00206689
C -4.95940927 16.34813651 24.07004178 0.00519198 -0.00317819 -0.00151318
C 3.53203329 11.85521911 18.24337140 0.00532789 -0.00402048 -0.00019161
C -6.95722598 14.75390055 21.76820792 0.00142163 -0.00108454 0.00473123
C -7.12834672 9.92832663 20.60752672 -0.00214643 0.00075641 -0.00690195
C -0.66076908 14.30122881 20.69004280 0.00341261 -0.00867341 -0.00046300
C -0.50662152 19.02748254 22.09704325 0.00017794 -0.00205420 0.00355886
C -8.15969719 15.64455460 21.43730297 0.00385233 -0.00337846 0.00281645
C -5.94944459 10.90261599 20.67588877 -0.00083880 -0.00755287 0.00170741
C 0.33200268 13.25261033 20.87259960 -0.01135981 -0.00634489 0.00150293
C -1.79461166 18.20920861 21.87119803 -0.00343858 -0.00034330 -0.00721899
C 3.18597028 23.13803468 5.22201853 -0.00242387 -0.00284006 0.00333045
C 0.50197736 27.97306402 1.25446554 0.00102049 0.00362908 -0.00051251
C 7.22535689 25.13390123 1.14807860 -0.00263422 0.00227257 0.00080782
C 9.52901618 20.18950454 5.31677146 -0.00119919 0.00381105 0.00235159
C 4.47062253 22.96263781 4.65404407 0.00580940 -0.00846289 -0.00039751
C 12.32464779 27.94710017 1.66774847 -0.00404148 -0.00053935 -0.00805273
C 6.02348530 25.31985554 1.84029489 -0.00546762 -0.00051287 0.00254051
C -2.01350812 20.41103900 4.47053567 0.00843208 0.00328507 0.00376649
C 5.41285071 22.08204311 5.04871590 -0.00619912 -0.00136481 -0.00405796
C 11.30117023 27.12272414 1.29161700 -0.01010864 0.00748039 -0.00030254
C 5.04911728 26.27652571 1.53542460 0.00887863 0.00042409 -0.00458076
C -1.00258924 21.18234017 4.96995525 -0.00215768 -0.00292125 0.00629945
C 5.18226778 21.31220969 6.21604462 -0.00003491 -0.00100077 0.00639244
C 11.50022559 26.24831075 0.21700403 0.00205928 0.00119453 0.00536143
C 5.27725563 27.04886497 0.35267278 0.00132754 -0.00056379 0.00852989
C -1.26543933 22.03726316 6.05531643 0.00028988 0.00027993 0.00205342
C 6.87891782 21.12243256 0.55854958 0.00103925 0.00022386 0.00197490
C 9.75434344 26.18532824 5.56317322 -0.00009095 -0.01077350 0.00397257
C 3.50305254 27.20569942 5.71800942 0.00345861 0.00339859 -0.00105648
C 0.35371893 22.09812555 0.40123585 0.00579492 -0.00288104 0.00348696
C 5.99803400 22.08014549 0.17711017 -0.00209651 0.00911590 -0.00323426
C -2.38565826 27.02391862 5.96479807 0.00775358 -0.00239492 -0.00603671
C 4.39505037 26.24238594 6.07810731 0.00114409 -0.00636917 0.00232914
C 12.68630090 21.23380075 0.36329751 0.00946081 0.00255786 0.00144250
C 2.00355987 24.45331672 3.55626443 -0.00290159 -0.00335427 -0.00284230
C 1.72261510 19.41806558 2.66387443 -0.00345366 0.00792890 -0.00427401
C 8.25538418 23.67401180 2.74853485 -0.00689695 -0.00855289 -0.00447824
C 8.47300817 28.70830259 3.80419665 -0.00001320 -0.00583848 -0.00199329
C 0.87417987 25.30847472 3.29099128 -0.00383831 -0.00285123 -0.00121300
C 2.85692757 20.32754202 2.80800688 0.00382701 -0.00709097 0.00036974
C 9.39973856 22.73175844 3.04396897 -0.00120839 0.00222888 0.00653828
C 7.45484453 27.66902871 3.69716472 0.00697216 -0.00156694 -0.00273802
C 0.16888540 22.88293472 11.14917624 0.00270339 0.00382077 -0.00270658
C -2.57117753 27.83649917 7.08333430 -0.00128612 0.00103357 -0.00262763
C 4.07035289 25.39300819 7.13689439 -0.00153446 0.00594653 0.00364313
C 6.61605659 20.34970942 11.18726771 -0.00569335 -0.00033100 0.00239903
C 1.35128932 22.89020263 10.42291335 -0.00267989 -0.00250147 -0.00019379
C 9.34502241 27.62999639 7.91757322 -0.00361949 -0.00678538 0.00454673
C 2.91682791 25.46444988 7.84156201 -0.00236967 0.00070973 -0.00256602
C 34.30650622 20.51439950 10.43846595 -0.00339706 0.00322540 0.00192101
C 2.32619109 22.03385530 10.87356299 0.00529630 0.01419052 0.00409359
C 8.55723450 26.57434590 7.56119834 -0.00355936 0.00248842 -0.00717592
C 1.99068633 26.34580922 7.37800912 0.00517659 -0.00180142 -0.00070738
C -4.20997822 21.33071078 10.96459663 -0.00181859 -0.00578208 0.00276795
C 2.14498315 21.24493237 12.04187566 0.00224117 -0.00826649 -0.00664520
C 8.67783709 25.81249996 6.37224225 -0.00002008 0.00496848 -0.00630751
C 2.30849800 27.30558427 6.40437735 -0.00476418 -0.00161882 0.00515895
C -4.51453459 22.15564535 12.13272656 0.00325036 0.00139222 -0.00095121
C 3.85279539 21.34206097 6.71751792 0.00629312 -0.00233911 -0.00353152
C 6.54358508 25.98127133 11.77243776 0.00122049 -0.01258729 0.00446802
C 0.26179008 26.95028200 11.64864013 0.00428557 -0.00562297 -0.00212580
C -2.45183024 21.93047125 6.74287537 0.00114060 -0.01064307 0.00454743
C 2.92715364 22.24877379 6.27003995 -0.00363087 0.00015420 -0.00451746
C -5.28518222 27.32124757 12.00438069 -0.00118984 -0.00220061 -0.00116369
C 1.27319925 26.07484321 12.10861643 -0.00261426 0.00051622 -0.00338939
C 9.37534635 21.03399712 6.41910682 0.00711215 -0.00957624 0.00012260
C -0.92786523 24.47310042 9.57008478 0.00132019 0.00058937 0.00324889
C -1.43599076 19.57188776 8.64474003 0.00115762 0.00126567 0.00037809
C 5.10862528 23.81854805 8.67390762 0.00088541 0.00266852 -0.00068495
C 5.50909736 28.79360624 9.57382512 -0.00099112 0.00518073 -0.00189472
C -2.09671504 25.43057719 9.48025376 0.00456931 0.00548518 -0.00197224
C -0.19468077 20.33232607 8.96586254 0.00094624 0.00291089 -0.00301385
C 6.32547637 23.01229637 8.87364646 -0.00351556 -0.00122106 -0.00422180
C 4.24222812 28.00623090 9.38318415 0.00545083 0.01144359 -0.00288388
C -2.83693146 22.97642503 17.27222883 -0.00423302 -0.00322931 0.00098518
C -5.53056895 28.00517442 13.21914937 -0.00020982 0.00025598 0.00244564
C 0.99944686 25.21839626 13.15421938 -0.00003825 0.00527911 0.00466205
C 3.61602958 20.34692771 17.31583067 -0.00373115 -0.00164404 -0.00594403
C -1.62565203 22.72219602 16.58758095 0.00360711 0.00044311 0.00441565
C 6.02618814 27.67693901 13.95391658 -0.00247760 0.00024584 0.00177062
C -0.25096122 25.24094957 13.79253017 0.00293039 0.00652893 0.00043844
C 31.33059201 20.41592726 16.53443241 -0.00529936 -0.00326024 -0.00093484
C -0.75847055 21.75900392 17.07341286 0.00729031 -0.00200757 0.00346206
C 5.02666113 26.84152760 13.53068652 -0.00746995 0.00805910 0.00619830
C -1.23720837 26.16298813 13.36938039 -0.00268831 -0.00172418 -0.00436089
C -7.30335532 21.40350706 16.85699692 -0.00042158 0.00408695 0.00206445
C -0.98664512 21.09290516 18.26286842 0.00230314 -0.00298185 0.00169639
C 5.23902850 25.98504027 12.41491393 0.00760692 -0.00432280 -0.00356024
C -1.08490314 26.83917399 12.13167572 0.00416033 -0.00640581 -0.00677526
C -7.51623695 22.26660238 17.94123385 0.00095343 0.01151068 0.00204215
C 0.87001263 21.24572939 12.69738616 0.00380001 -0.00187872 0.00048094
C 3.79383230 26.14782225 17.71978646 -0.00482903 0.00284452 -0.00513751
C -2.57108438 26.95760311 17.84962967 -0.00090860 -0.00451404 0.00391635
C -5.79991985 22.12070589 12.62702762 0.00111640 -0.00983606 0.00517784
C -0.14204836 22.07075987 12.22522231 0.00181236 0.00368268 -0.00113852
C -8.30841075 26.98359696 18.21471221 -0.00110221 0.00396375 0.00206629
C -1.69078427 26.02679507 18.28657485 -0.00347702 -0.00703994 -0.00133652
C 6.50689292 21.21212144 12.35053040 -0.00151701 0.00154558 0.00177912
C -4.00545591 24.51917364 15.78808315 0.00233729 0.00906161 0.00043133
C -4.48964731 19.57238094 14.66527889 -0.00037266 -0.00593638 0.00221087
C 1.94171551 23.64196106 14.65414803 0.00279412 0.00350374 0.00593505
C 2.34615206 28.79162840 15.81697301 -0.00117385 0.00674907 0.00015037
C -5.20301238 25.38815688 15.54698136 0.00138317 0.00432410 -0.00305649
C -3.34724009 20.49098612 14.83459646 0.00560117 -0.00395672 -0.00270571
C 3.13548692 22.82108357 14.97908765 0.00226118 -0.00390141 0.00303809
C 1.29081597 27.83860589 15.50165836 0.00296308 0.00084500 0.00438491
C -5.69290145 22.97136595 23.47273909 -0.00710618 0.00951578 -0.00021083
C -8.56847697 27.91142464 19.27198525 -0.00410620 0.00083910 0.00536212
C -1.99199086 25.12901848 19.33971820 0.00270203 -0.00725659 -0.00740304
C 0.80311253 20.48816414 23.55450148 0.00198107 -0.00105699 -0.00247485
C -4.46171046 22.91348913 22.81042787 0.00780456 0.00424725 -0.00224668
C 3.15438752 27.87575558 19.83435772 0.00171383 0.00091143 -0.00771733
C -3.22642363 25.28324471 19.94487820 0.00007870 -0.00179943 0.00040586
C -11.13306460 20.42639986 22.64997621 0.00446385 0.00155162 -0.00538159
C -3.56465260 21.91186197 23.16912256 0.00042043 0.00297985 0.00642936
C 2.18842574 27.00918245 19.34715318 -0.00278076 -0.00220796 -0.00191253
C -4.20854119 26.13118510 19.42801489 0.00111253 -0.00561142 0.00130409
C -10.16286997 21.30925791 23.01636661 -0.00110646 -0.00626961 -0.00617850
C -3.81784367 21.06735894 24.30965234 -0.00249260 -0.00323267 0.00594246
C 2.49413421 26.14476030 18.27136132 -0.00223305 0.00526941 0.00319146
C -3.85956382 27.06416958 18.45758448 -0.00421358 0.00034926 -0.00105117
C -10.42430992 22.09332996 24.17613939 0.00101620 0.00378236 0.00125313
C -2.19169466 21.29218075 18.91397343 -0.00529790 -0.00007336 0.00274859
C 0.74331959 26.16031279 23.99455919 0.00037428 0.00243223 -0.00085921
C -5.48886004 26.92078376 24.00513527 -0.00080011 -0.01125737 0.00353862
C -8.74464546 22.26352857 18.65007737 -0.01004712 0.00467927 0.00050716
C -3.11492668 22.16889469 18.39478676 -0.00261560 -0.00157149 -0.00664652
C 0.74472721 27.26940875 0.08832647 -0.00576806 -0.00178515 -0.00364274
C 7.42692832 25.94833228 0.02635634 -0.00468660 -0.00202320 -0.00428981
C 3.35570206 21.17560547 18.40378889 -0.00677004 0.00053633 -0.01011830
C -6.81610572 24.56955292 21.95021547 0.00688907 -0.01094971 -0.00030950
C -7.35717910 19.63082782 20.83306374 -0.00400646 -0.00021952 0.00842710
C -0.78129473 23.76497999 20.93922700 -0.00236172 0.00623565 -0.00530522
C -0.43881547 28.71802170 21.84380587 0.00056606 0.00488110 -0.00023812
C -7.82412788 25.74000164 21.88219490 0.00025607 -0.00335940 -0.00215708
C -5.94108047 20.39393603 20.92758467 -0.00318278 0.00242819 -0.00091333
C 0.54677122 23.07314075 21.17503215 -0.00388367 -0.00077507 0.00102491
C -1.58696910 27.74748196 21.76345885 0.00115115 0.00101997 0.00372679
C 16.22612393 3.52824461 5.09628048 -0.00740392 -0.00061502 0.00376793
C 13.55411924 8.46842542 0.94066517 0.00142240 -0.00445857 0.00609967
C 20.21858934 5.77476799 0.76130313 -0.00839820 -0.00088695 -0.00143885
C 22.77884598 1.07936560 5.34776488 0.00524619 -0.00290907 -0.00120334
C 17.44447440 3.40524890 4.45562587 0.00167155 -0.00141322 -0.00125968
C 25.73384729 8.50015478 1.57026502 0.00692048 -0.00553098 0.00017920
C 19.08996953 5.75494744 1.52092318 -0.00385058 0.00449018 -0.00131332
C 10.71836100 1.36475806 4.40866383 0.00163458 -0.00080075 -0.00064512
C 18.40973054 2.54213493 5.03161126 -0.00239935 -0.00624151 0.00047983
C 24.77331395 7.56209767 1.18050149 -0.00550069 0.00089408 -0.00372795
C 18.06074118 6.69794727 1.33852620 -0.00252281 0.01025061 -0.00382341
C 11.77776236 2.16365136 4.80079160 -0.00106074 0.00185093 -0.00354027
C 18.06957925 1.72497966 6.11015027 -0.00035766 -0.00329145 -0.00055767
C 25.00768493 6.70984086 0.05461278 0.00084441 0.00476258 0.00051012
C 18.12413379 7.52351896 0.25813019 0.00201623 -0.00014445 -0.00287099
C 11.61850633 3.02116300 5.88986688 -0.00881220 -0.00552438 -0.00013184
C 20.09609906 1.89794371 0.54699234 -0.00492236 -0.00656361 0.00206611
C 22.89316239 6.87391131 5.43120726 0.00543406 -0.00043970 -0.00025006
C 16.47030963 7.31705522 5.62622906 -0.00770497 -0.00396274 0.00224297
C 13.65021885 2.73123531 0.69756226 -0.00426387 -0.00722547 0.00596344
C 7.18380659 2.73644442 24.33501238 -0.00622913 0.00585114 0.00141164
C 10.67384305 7.66846226 5.73402189 0.01102594 -0.00285155 0.00151168
C 17.41168395 6.42931995 5.99244774 -0.00110952 0.00648482 -0.00732988
C 25.91751769 1.95983274 0.29615395 0.00474735 0.00368143 -0.00221480
C 15.23874705 5.16009318 3.43982450 -0.00244441 -0.00488431 -0.00158627
C 14.81648935 0.34832867 2.55055127 -0.00279049 0.00421352 -0.00330826
C 21.58756160 4.58252505 2.34992144 -0.00189176 -0.00272195 -0.00403671
C 21.73310150 9.30159793 3.48616701 -0.00165237 0.00275946 0.00358675
C 14.12317598 6.10011989 3.35100378 -0.00531541 0.00246832 -0.00015531
C 16.13368808 0.99962730 2.67959966 0.00053312 0.00261989 -0.00379184