2880
Time=56000.00000004 pbc="T T T" Lattice="39.49921215 0.00000000 0.00000000 0.00000000 29.05741787 0.00000000 -12.02141417 0.00000000 24.37499441" energy=-18399.84886050 virial="-23.46680351 -17.69719965 -23.17535811 -17.69719965 -0.07156469 1.55989406 -23.17535811 1.55989406 -39.85851129" stress="0.00168790 -0.00065449 -0.00083076 -0.00065449 0.00239903 0.00011628 -0.00083076 0.00011628 0.00112148" Properties=species:S:1:pos:R:3:vel:R:3
C 2.90609823 3.56717455 5.23884708 -0.00213198 0.00029528 0.00523908
C 0.42242987 8.51314220 1.21417434 -0.00501971 0.00223423 -0.00975027
C 7.03530589 5.82694010 1.02496456 0.00621897 -0.00364556 -0.00373044
C 9.81815095 1.31641657 4.99904974 -0.00303685 0.00396412 0.00749670
C 4.05941748 3.67062660 4.45510195 -0.00601350 -0.00383647 -0.00010682
C 12.64837481 8.57526150 1.75834374 0.00187094 0.00171252 -0.00771283
C 5.77981331 6.06717545 1.72677934 0.00219342 0.00518339 -0.00278634
C 37.14740322 1.02864686 4.46589364 0.00131009 0.00892059 -0.00159853
C 5.13460923 2.80789213 4.74812078 -0.00617738 0.00032803 -0.00207345
C 11.59057536 7.83001249 1.38599384 0.00200801 0.00245651 -0.00282124
C 4.85713291 6.92541597 1.23290171 0.00683478 -0.00703014 -0.00058772
C -1.42718101 1.95736959 4.87371360 -0.00107857 0.00415924 0.00953390
C 5.15422452 1.92969306 5.84328351 0.00238211 -0.00065380 0.00136478
C 11.62008719 6.96851337 0.23230865 0.00329506 -0.00392218 0.00412968
C 5.01127073 7.63913909 0.03005196 0.00029223 0.00061127 -0.00364890
C -1.59768707 2.75410914 6.03627001 -0.00071583 0.00442433 -0.00335933
C 6.70420661 1.71822080 0.40341083 0.00362757 0.00281968 0.00377034
C 10.02513567 6.91398071 5.61395612 -0.00698875 0.00388763 0.00557970
C 3.14220566 7.43844651 5.40195609 -0.00201435 -0.00197596 0.00525292
C 0.30399848 2.62603919 0.80943950 0.00270194 -0.00289042 0.00162331
C 5.80647016 2.69971592 0.23680208 -0.00432391 0.00245847 -0.00048018
C -2.71098169 7.66687281 5.96273912 -0.00579887 0.00109221 -0.00100414
C 4.14999249 6.59064264 5.79345612 0.00424724 -0.00079422 -0.00945453
C 12.39654307 2.31214053 0.07958334 0.00241870 -0.00239777 -0.00185743
C 1.48865835 4.98637987 3.88377801 0.00426507 -0.01117268 0.00373039
C 1.45444917 0.24064333 2.57321068 -0.00007577 0.00133530 -0.00063875
C 8.22954596 4.31462551 2.47187311 -0.00051534 0.00207268 0.00271201
C 8.78831314 9.17705618 3.38568730 0.00424898 0.00207648 0.00381588
C 0.17292584 5.72792793 3.84244465 0.00002004 0.00574337 0.00503910
C 2.42998650 1.33781275 2.70078255 -0.00771517 0.00093685 -0.00006028
C 9.58847383 3.86876394 2.70043788 -0.00207293 -0.00929212 -0.00309628
C 7.66798400 8.10307496 3.14411109 0.00515503 0.00570079 -0.00287225
C 0.04058820 3.86758326 11.51446977 0.00158981 0.00058896 0.00099207
C -2.78423173 8.42386651 7.15026635 -0.00649085 0.00095755 -0.00888167
C 3.92721134 5.75670090 6.95096589 0.00086984 0.00058133 -0.00698935
C 6.85039128 1.14078528 11.10181183 -0.00321390 -0.00574358 0.00007930
C 1.18911969 3.76840374 10.75368058 0.00193122 -0.00250139 -0.00502207
C 9.38644455 8.58649505 7.69829000 0.00256973 -0.00382809 -0.00222746
C 2.72839791 5.91261062 7.71186368 0.00400475 -0.00097704 -0.00155207
C 34.13844410 1.11629973 10.48422757 0.00002513 -0.00148611 0.00114850
C 2.23707129 2.91286064 11.11578100 -0.00332840 -0.00493991 0.00396099
C 8.47046580 7.65140037 7.35148905 -0.00623979 -0.00663549 0.00834171
C 1.85193358 6.88386209 7.34412385 0.00774574 0.00559416 -0.00549249
C -4.42771287 2.03122812 10.84536771 -0.00208111 0.00178300 0.00178393
C 2.12507039 2.13142048 12.24133561 -0.00535766 -0.00533246 -0.00311319
C 8.74641710 6.77891323 6.28597778 0.00446075 0.00502277 0.00028627
C 2.03524405 7.67446821 6.14209844 -0.00213826 -0.00696709 0.01650349
C -4.61928976 2.90268621 12.00747293 0.00565615 -0.01204878 0.00124646
C 3.90679067 1.83907853 6.63206135 -0.00018548 0.00311261 -0.00191245
C 6.99685341 6.97839189 11.67724293 -0.00639938 0.00122219 -0.00229566
C 0.22488773 7.66984406 11.69872339 0.00308429 0.00587051 0.00630992
C -2.80278757 2.66294043 6.68017325 -0.00181952 -0.00295554 -0.00098425
C 2.90319166 2.69174253 6.33475489 0.00037547 0.00905099 -0.00360037
C -5.62165941 7.60973522 12.03194615 0.00580396 0.00040936 -0.00229203
C 1.26037430 6.90159742 12.11569982 0.00350272 -0.00143693 -0.00375703
C 9.70745341 2.14063643 6.11683015 0.00008654 -0.00155969 0.00664607
C -1.34846432 5.05411782 9.87296889 -0.00446213 -0.00018403 0.00688710
C -1.19823640 0.33226360 8.60927348 0.00388557 0.00666405 0.00019230
C 5.36907585 4.74672417 8.62836074 -0.00269101 0.01415516 0.00594833
C 5.53991004 9.30555568 9.52771734 -0.00449800 -0.00286124 0.01275754
C -2.72910024 5.71964825 9.64608932 -0.00991227 -0.00094656 0.00405387
C 0.00781840 1.26516341 8.72211063 -0.00000501 0.00306217 -0.00019095
C 6.55991797 3.91821198 8.84894840 -0.00867279 0.00575920 -0.00057600
C 4.28153035 8.61539294 9.32648583 0.00408543 0.00363252 -0.00126280
C -3.03059749 3.57214623 17.42561373 -0.00172639 0.00449678 -0.00514991
C -5.80332080 8.53049532 13.10989504 0.00285704 0.00370933 0.00114115
C 1.05574809 6.03833359 13.18193222 0.00036557 -0.00128716 -0.00092981
C 3.58427967 1.12468453 17.10070773 -0.00615668 0.00194230 0.00316519
C -1.85176596 3.58922219 16.59687438 -0.00092199 -0.00072255 0.00124309
C 6.49670128 8.68427964 13.78600214 -0.00251163 -0.00506489 0.00091826
C -0.16311011 6.00239444 13.91028447 -0.00017599 0.00495241 -0.00015031
C 31.19479358 0.89648564 16.62309987 -0.00083972 0.00285719 -0.00243784
C -0.80013078 2.70127018 16.89134430 0.00159272 0.00125643 0.00387362
C 5.58329391 7.69226334 13.49984097 -0.00023628 0.00072289 -0.00646692
C -1.23218755 6.85305500 13.50187723 0.00926584 -0.00001968 -0.00812659
C -7.30638220 1.76935656 16.96647660 -0.00371773 0.00002369 -0.00016544
C -0.89211689 1.82198088 18.03976960 0.00162401 -0.00195981 0.00236879
C 5.82080960 6.90171204 12.42175620 -0.00370587 -0.00747669 -0.00131004
C -0.99511861 7.66033962 12.39918230 -0.00065288 0.00407709 -0.00553115
C -7.39454399 2.58055401 18.16707151 -0.00044209 -0.00095138 -0.00179160
C 0.93380174 2.24346667 13.02649087 0.00534740 0.00044702 -0.00019781
C 3.79310271 7.02956732 17.85099087 0.00219291 0.00409134 -0.00502100
C -2.82705224 7.71745000 17.92089580 -0.00162189 -0.00076992 -0.00712626
C -5.85056543 2.73758379 12.62177118 0.00546832 -0.00172497 -0.00354689
C -0.12484148 3.07550695 12.66180853 -0.00611942 -0.00405174 -0.00528903
C -8.42156061 7.58917786 18.12244966 0.00291913 0.00446012 -0.00121168
C -1.88591208 6.74905270 18.28439124 -0.00321467 -0.00153266 -0.00044692
C 6.60683054 1.86619725 12.23250103 -0.00349055 0.00673641 0.00041600
C -4.50067608 4.96161760 15.94388254 -0.00179844 -0.00341872 0.00430485
C -4.36187599 0.20711237 14.54065654 -0.00306568 0.00281997 -0.00053271
C 2.41848880 4.68906541 14.66784279 0.00688044 -0.00054585 0.00433789
C 2.62088229 9.47553442 15.89310095 0.00071567 0.00182454 0.00518663
C -5.74178314 5.75723930 15.91034464 -0.00005162 0.00477305 0.00232440
C -3.05488320 0.94853979 14.70170087 -0.00123401 -0.00407672 -0.00379163
C 3.74342628 3.98356944 14.82117652 -0.00395574 -0.00671714 0.00342180
C 1.48428747 8.43160735 15.67593588 -0.00080285 -0.00483683 -0.00416344
C -6.03641068 3.54175217 23.45701622 0.00564290 0.01372742 -0.00399805
C -8.66721295 8.29777154 19.27452168 0.00328187 -0.00020451 -0.00681136
C -2.12976091 5.93511475 19.36149431 0.00101271 -0.00153940 -0.00218188
C 0.54012893 1.41073496 23.35751482 0.00255775 0.00072437 -0.00057496
C -4.84699547 3.53955582 22.80862604 -0.00114928 -0.00246264 0.00050449
C 3.32116773 8.63242465 20.03757175 -0.00254310 0.00029598 0.00041594
C -3.36939793 5.99429187 20.00244559 -0.00211386 -0.00156546 -0.00117689
C 28.08587863 1.13680303 22.88087929 0.00710171 0.00058295 -0.00186784
C -3.84440136 2.61230901 23.01430226 -0.00423559 -0.00290587 0.00144614
C 2.38125293 7.76291853 19.65514226 -0.00153418 0.00290559 -0.00287565
C -4.31668969 6.91705291 19.65668612 0.00307000 0.00610468 -0.01186331
C -10.35732244 1.92053703 23.36566272 -0.00062774 0.00000756 0.00212809
C -4.07258763 1.67343279 24.10467287 0.00072378 0.00083210 -0.00135268
C 2.52749463 6.96504921 18.52152544 0.00409582 -0.00166226 -0.01072229
C -4.09305013 7.76525198 18.51164415 -0.01018968 0.00083263 -0.00462523
C 1.52669802 2.75295909 0.14198468 0.00294517 0.00804063 -0.00297091
C -2.01330268 1.87538847 18.83984632 0.00423748 -0.00074993 0.00434397
C 0.84729553 6.91763868 23.86744733 0.00530736 -0.00285967 -0.00142975
C -5.80574941 7.52697916 23.78304001 0.00614536 -0.00335719 -0.00201740
C -8.59365991 2.52012899 18.90712722 0.00338402 -0.00683406 0.01077923
C -3.07775595 2.74321249 18.56312778 -0.00473079 -0.00266216 0.00268970
C 0.65651956 7.66078873 0.10285980 0.00027794 -0.00370080 0.00258366
C -4.80199347 6.66337641 24.31773218 -0.00273368 -0.00165351 -0.00224115
C 3.35997677 1.94836432 18.17631741 -0.00710078 -0.00027304 0.00218177
C -7.21155938 4.99486910 21.91721174 0.00354826 -0.00232185 0.00360547
C -7.39338898 0.29198961 20.85852298 0.00355655 0.00604303 -0.00181495
C -1.00336274 4.60493329 21.04811015 0.00554229 0.00048412 0.00720498
C -0.47673108 9.43850886 22.00059087 0.00748615 0.00681213 -0.00409563
C -8.32487954 5.97274277 21.87174805 0.00297946 -0.00625543 0.00559469
C -6.35096965 1.37782576 20.97307557 0.01090154 -0.00326953 -0.00480890
C 0.08937981 3.68369579 21.32288073 0.00028474 -0.00536470 0.00348605
C -1.60336177 8.42057675 22.01092818 -0.00653422 0.00214224 -0.00050419
C 2.90951931 13.44559867 5.20195604 -0.01014223 -0.00132741 0.00502928
C 0.40428759 18.34806117 1.07302544 0.00048321 0.00361300 -0.00411968
C 7.01499610 15.44065592 0.88023694 0.00293597 -0.00253672 -0.00271406
C 9.75641874 10.74541583 4.97884925 -0.00279914 0.00715099 0.00517310
C 4.19480385 13.42494706 4.54796166 -0.00642797 0.01291200 -0.00679340
C 12.35510149 18.26984020 1.66317467 -0.00226797 0.00086935 0.00173637
C 5.92217829 15.56518122 1.66513869 -0.00149403 -0.00347295 0.00303264
C 36.99520476 10.91309380 4.44384263 -0.00110476 0.00501759 -0.00355130
C 5.18129169 12.53054343 4.87297636 -0.00235109 -0.00393811 -0.00651074
C 11.38658121 17.33921493 1.24740831 0.00721172 -0.00999420 -0.00096019
C 4.99311733 16.50660726 1.30174856 -0.00604019 -0.00953413 -0.00521106
C -1.57407188 11.80084096 5.00893335 -0.00286149 0.00569722 0.00506650
C 5.09127139 11.71844729 5.94034781 0.00171417 -0.00475891 -0.00179595
C 11.68815622 16.49143673 0.14636294 0.00557069 -0.00023964 -0.01128232
C 5.09307406 17.26053953 0.09324272 -0.00269439 -0.00478830 -0.00468833
C -1.71475145 12.43882510 6.22763533 0.00196726 0.00488886 -0.00745887
C 6.70149359 11.42818802 0.52083750 -0.00244860 0.00951654 0.00598764
C 9.90360081 16.46486588 5.56715912 0.00682634 0.00758681 0.00374968
C 3.33184678 17.21497947 5.71130606 -0.00094193 -0.00631086 -0.00186572
C 0.39439072 12.40785817 0.74626448 -0.00750033 -0.00476845 0.00247060
C 5.82941193 12.40562446 0.09171940 0.00169342 0.00053636 -0.00318105
C -2.29386109 17.29690266 6.07299288 -0.00273568 0.00437882 0.00149708
C 4.32817896 16.37598030 6.15332300 0.00597397 -0.00503944 0.00668158
C 12.72522969 11.53044496 0.27612632 -0.00323791 -0.00058384 -0.00520741
C 1.71736950 14.81148139 3.64435806 0.00056262 0.00041619 -0.00076536
C 1.64680986 10.11341168 2.68484868 0.00212914 0.00157946 -0.00442337
C 8.38278862 14.13586123 2.45330163 -0.00342293 0.00075077 0.00531761
C 8.58538863 18.95910764 3.38043108 0.00178882 0.00729985 0.00681914
C 0.37036540 15.44952691 3.39009448 0.00008338 -0.00364930 -0.00924898
C 2.84017969 10.94496812 2.72102527 -0.00679782 0.00803839 0.00155128
C 9.72656504 13.48405026 2.58209728 -0.00398968 -0.00119472 -0.00371593
C 7.53679863 17.87302776 3.33592935 0.00119379 0.00634137 0.00560166
C 0.13085716 13.33583155 11.22262272 -0.00268356 -0.00167485 0.00015750
C -2.58929850 18.09864046 7.19259514 -0.00131182 0.00102965 -0.00548145
C 4.02144940 15.47474127 7.16400182 0.00543868 0.00282495 -0.00401821
C 6.67509662 10.81087335 11.05449960 0.00542209 -0.00432322 -0.00313122
C 1.29563744 13.12444904 10.47110237 -0.00025745 -0.00541256 -0.00026129
C 9.32315743 18.08154803 7.72737222 -0.00222484 -0.00297670 0.00182177
C 2.77987646 15.55773276 7.80473084 0.00432977 -0.00511570 -0.00008139
C 34.06741410 10.87432056 10.56068640 -0.00033568 -0.00161168 -0.00061289
C 2.30129113 12.16731735 10.85450479 -0.00248005 0.00500203 -0.00135656
C 8.43018113 17.16876050 7.30598541 0.00152164 0.00034389 -0.00784616
C 1.85648506 16.41133586 7.33973830 -0.00239773 -0.00634387 0.00530360
C -4.37430475 11.68219763 10.97220791 0.00073102 0.00093647 0.00055422
C 2.19593660 11.44048535 12.01279468 -0.00346358 0.00269597 0.00521999
C 8.68410265 16.33641354 6.19763273 -0.00345936 0.00189128 -0.00850870
C 2.04397785 17.23332977 6.25842370 0.00320567 0.00340399 0.00013478
C -4.47286100 12.49150961 12.06235915 0.00138466 0.00076195 -0.00086893
C 3.89304922 11.77593335 6.68661522 -0.00392444 0.00044295 0.00602064
C 6.87979294 16.65531726 11.53930178 -0.00500759 -0.00010796 0.00087657
C 0.48003456 17.07963255 11.52922071 -0.00595539 0.00584509 -0.00431839
C -2.95028903 12.24848418 6.88649997 -0.00005169 0.00328367 0.00071961
C 2.85545792 12.59535332 6.28248402 -0.00089602 -0.00295159 0.00333602
C -5.56154327 17.57283036 11.96888917 0.00110659 0.00040217 -0.00424453
C 1.49477239 16.24235876 11.96717349 0.00641110 0.00357542 0.00407762
C 9.47806316 11.63618125 6.05215978 0.00062955 0.00296174 -0.00082690
C -1.06605847 14.74023742 9.69157402 -0.00433841 -0.00847141 -0.00119003
C -1.47969286 9.81059417 8.61744783 -0.00058657 0.00426443 0.00146137
C 5.39755814 14.14666744 8.73328822 0.00677236 0.00766839 0.00813646
C 5.87769400 19.04799270 9.52762594 0.00502023 0.00141683 -0.00878004
C -2.33844160 15.61677379 9.44712501 0.00063072 0.00105719 -0.00007510
C -0.31245539 10.82354181 8.75040084 -0.00690050 0.00198324 -0.00498347
C 6.69449712 13.39771494 8.71269791 -0.01182279 0.00296349 -0.00312534
C 4.81357883 17.98594311 9.26883890 0.00104416 0.00480822 -0.00486795
C -2.95045507 13.51591100 17.37998838 -0.00125949 -0.00070107 0.00620820
C -5.71337396 18.32795846 13.20503768 0.01057410 0.00186833 -0.00812385
C 1.28015025 15.52698057 13.19064064 0.00230958 -0.00584320 0.00153767
C 3.64974240 10.96213312 17.37271869 -0.00173520 -0.00210191 0.00378282
C -1.79853456 13.31435750 16.57824962 -0.00019008 0.00204436 0.00587072
C 6.37046149 18.19839195 13.77809784 -0.00172784 0.00221914 0.00161491
C 0.19484059 15.81059660 14.03621573 0.00170159 0.00010979 -0.00393247
C 31.18404366 10.53725169 16.84312869 0.00328120 0.00319791 -0.00230098
C -0.77808003 12.56420885 17.01241287 0.00101139 -0.00064991 0.00670929
C 5.43553509 17.39026903 13.31105951 0.00129650 0.00099689 0.00231624
C -0.86741547 16.56067411 13.56781686 0.00071271 0.00172831 0.01072305
C -7.35137066 11.43992156 17.13911584 0.00232937 0.00678567 -0.00002660
C -0.87973594 11.76646827 18.21544202 -0.00005299 0.00667185 0.00696808
C 5.65262935 16.57608143 12.14649479 -0.00117691 0.00271515 0.00467602
C -0.73101520 17.30425352 12.36193947 -0.00439048 -0.00504893 0.00482789
C -7.49955882 12.24149073 18.23243352 0.00540525 -0.00226590 -0.00616397
C 0.92596738 11.61751968 12.73752551 0.00558456 -0.00740841 -0.00122242
C 3.84447110 16.70987074 17.55454030 0.00098960 -0.00503143 -0.00431545
C -2.69848908 17.18001895 17.72017030 0.00036254 0.00089820 0.00093385
C -5.70239883 12.62318808 12.73653227 0.00702149 0.00111440 -0.00586384
C -0.02465509 12.52995211 12.42945254 -0.00090116 -0.00246333 0.00428608
C -8.15190320 17.57452064 18.33617528 0.00688919 0.00184860 -0.00158615
C -1.69911847 16.33545706 18.10821730 0.00491109 -0.00048266 -0.00336067
C 6.52660059 11.67014802 12.20649193 -0.00307118 0.00017998 -0.00528892
C -4.25830808 14.82747967 15.80234481 -0.00359934 0.00003064 -0.00053289
C -4.48441023 9.92455879 14.69778937 -0.00428423 -0.00134398 -0.00660105
C 2.33523840 13.94909075 14.68909826 -0.00233714 0.00469784 0.00801417
C 2.45676307 19.13379220 15.86484972 -0.00031472 0.00003754 -0.00402422
C -5.55671534 15.55640811 15.60299067 -0.00298218 0.00457511 -0.00707105
C -3.35146736 10.83077587 14.87644501 0.00397902 0.00394198 -0.00229861
C 3.51743288 13.04636069 14.74739701 -0.00752254 0.00224419 0.00048167
C 1.15300702 18.38317372 15.81637554 0.00517379 -0.00247587 -0.01649602
C -5.88108902 13.27937865 23.45134295 0.00064974 0.00297128 0.00060353
C -8.47021732 18.47038730 19.31611437 0.00723113 0.00151842 0.00254702
C -1.88763598 15.53488324 19.18789114 -0.00399586 0.00430326 0.00178237
C 0.75731789 10.82687620 23.44481413 -0.00152110 -0.00099905 0.00672386
C -4.73983055 13.07198458 22.68218356 -0.00878842 0.00365418 0.00338499
C 3.28218127 18.17746990 19.83515946 -0.00455068 0.00044382 0.00411603
C -3.08513226 15.60496601 19.93671850 -0.00545109 0.00391208 0.00131279
C 28.21265984 10.85381758 22.76807338 0.00237291 0.00390216 -0.00764306
C -3.82631517 12.15575483 23.10865021 0.00124816 -0.00356560 0.00376321
C 2.32889151 17.28714006 19.36947692 -0.01155955 -0.00173084 0.00018933
C -4.03937915 16.50974206 19.61300590 0.00227072 0.00672232 -0.00115576
C -10.44117442 11.90507001 23.06665785 -0.00224546 -0.00118747 0.00093728
C -4.04721240 11.32819766 24.24668444 0.00169736 0.00364404 -0.00292506
C 2.66001725 16.53242981 18.20970646 -0.00648214 -0.00035831 -0.00033335
C -3.88047056 17.30506323 18.45536827 0.00110917 0.00074502 -0.00183073
C -10.50529399 12.58802792 24.30601114 0.00256401 -0.00847838 -0.00269054
C -2.08241046 11.92381144 19.00860883 -0.00333929 0.00369612 0.00215106
C 1.00963246 16.55893191 24.01697120 0.00126409 -0.00021594 0.00341873
C -5.63928128 17.29025410 23.76660831 -0.00026657 0.00162877 0.00351998
C -8.67143328 12.16501634 19.00804427 -0.00191534 -0.00231623 0.00229845
C -3.12023901 12.66268946 18.53500117 -0.00570564 0.00578781 0.00032238
C 0.72147089 17.41884291 0.00562967 0.00034314 -0.00250866 0.00179812
C -4.72515443 16.33739926 24.19189763 -0.00332551 -0.00143041 -0.00157642
C 3.44761583 11.85376147 18.46960991 0.00269986 -0.00414635 -0.00343405
C -7.02741065 14.65371961 21.83966419 0.00213941 0.00180854 -0.00571680
C -7.64030314 9.75999085 20.96225846 -0.00351970 -0.00233265 -0.00652253
C -0.61306002 14.17924128 20.68337587 0.00401518 -0.00958734 -0.00318204
C -0.32501022 18.96022750 21.88726180 0.00368910 0.00550692 0.00410589
C -8.00488737 15.66479916 21.56019914 0.00031866 -0.00351542 -0.00435948
C -6.31394357 10.43710631 21.26678417 0.00406940 0.00666393 0.00557042
C 0.53511698 13.28277505 20.76633488 -0.00567247 0.00045854 -0.00027419
C -1.50029395 18.07543298 21.74782681 -0.00283436 0.00498816 -0.00110856
C 3.24667027 23.08445471 5.13391548 0.00571296 -0.00124965 -0.00542867
C 0.31622640 27.82649557 0.92241388 -0.00181916 -0.00307195 0.00338221
C 6.87125987 25.40659396 0.91420667 -0.00542347 0.00443594 -0.00285648
C 9.79102117 20.40398848 4.96628033 -0.00738766 -0.00067260 -0.00345534
C 4.38252935 22.99772995 4.31864415 0.00386501 0.00072753 -0.00844521
C 12.18511558 27.97978707 1.48156884 -0.00045847 0.00113871 -0.00163528
C 5.63556331 25.41289091 1.61280117 -0.00858106 -0.00151652 -0.00465772
C -1.95370443 20.49027939 4.58393724 -0.00137652 -0.00556211 0.00209337
C 5.43118253 22.18006138 4.73352346 0.00466858 0.00351797 -0.00342216
C 11.33146085 26.93344942 1.09738860 0.00113496 0.00077047 -0.00439610
C 4.60837270 26.21748649 1.17409246 -0.00101758 -0.00299662 -0.00273453
C -0.95261674 21.33543952 5.03474072 0.00193036 -0.00328247 -0.00102115
C 5.32599311 21.31687277 5.86487816 0.00178873 0.00283605 0.00193869
C 11.61347954 26.08227618 0.04309374 -0.01624204 0.00459614 0.00241624
C 4.83401279 27.10322346 0.14649198 0.00000651 0.00230490 -0.00868120
C -1.07803475 22.10304468 6.17145422 0.00015151 -0.00020769 -0.00232829
C 7.11679452 21.57463134 0.52389902 -0.00461042 -0.00335655 -0.00353781
C 9.76217897 26.46605180 5.32126701 0.00067220 0.00799463 0.00888330
C 3.46471693 26.93925537 5.67372838 0.00098469 0.00098338 0.00170481
C 0.33547206 22.19903773 0.67898691 -0.00126154 0.00026776 -0.00749769
C 6.07420884 22.32432797 0.06586422 -0.00148577 -0.00539567 0.00606672
C -2.22171855 27.02847984 5.94776169 0.00801169 -0.00675192 0.00387937
C 4.37235687 26.04856647 6.09670208 -0.00200840 -0.00219837 -0.00237305
C 12.64278210 21.31880712 0.18403420 0.00442601 0.00316886 0.00295964
C 1.94337634 24.36934908 3.66879466 0.00305162 0.00219847 0.00497770
C 1.65101819 19.66652556 2.66227022 -0.00081014 -0.00616365 -0.00530986
C 8.13799050 24.01769069 2.45196986 0.00380661 0.00324785 -0.00238617
C 8.53995997 28.91919665 3.51489042 0.00989837 -0.00178092 -0.01097265
C 0.66896605 25.17125779 3.61665813 -0.00057700 0.00458795 0.00841200
C 2.91750227 20.41549863 2.79640965 0.00095333 0.00104591 -0.00078483
C 9.36210782 23.17642349 2.75231060 0.00198717 0.00675095 -0.00258817
C 7.25455005 28.11527214 3.47086100 0.00709385 -0.00582636 0.00423137
C 0.25548617 23.02703891 11.13230648 0.00111242 -0.00237018 -0.00557367
C -2.31642444 27.83248229 7.06030590 -0.00459928 0.00542582 -0.00368403
C 4.17689922 25.17549818 7.19380096 -0.00444803 -0.00237904 -0.00536695
C 6.88151613 20.62894093 11.11990900 0.00048645 0.00234062 -0.00189977
C 1.46557304 23.00441358 10.43928511 -0.00658927 -0.00694301 -0.00111824
C 9.45797164 27.99829026 7.57117581 0.00329191 0.00098619 0.00103307
C 3.07986240 25.28685330 7.99761312 -0.00226741 0.00719517 0.00035955
C -5.14505321 20.40130807 10.71334116 -0.00088535 -0.00528673 -0.00075261
C 2.44866507 22.13980424 10.91288141 0.00621072 -0.00065102 -0.00024251
C 8.40429449 27.22578017 7.14353430 -0.00061148 0.00062624 0.00461072
C 2.08735950 26.18236149 7.53429376 -0.00007059 0.00071205 -0.00236206
C -4.07933989 21.17321395 11.10674648 -0.00014878 0.00505631 -0.00020674
C 2.26670377 21.29929788 12.05886295 -0.00248990 0.00605369 0.00492281
C 8.55080337 26.49095170 5.95354086 -0.00408583 -0.00460472 -0.00674330
C 2.18503391 26.94054958 6.33259811 0.00433719 -0.00026190 0.00248952
C -4.21243818 22.06570538 12.19169348 -0.00002771 -0.00899144 -0.00190248
C 4.12891647 21.31791845 6.57585628 -0.00067371 0.00089520 -0.00234731
C 6.73549123 26.16772646 11.62532523 -0.00635557 -0.00242459 -0.00667609
C 0.34339640 27.13169143 11.50861417 0.00418981 -0.00652150 0.00266799
C -2.23910250 22.10543031 6.86468980 0.00019461 0.00796806 0.00102979
C 3.10298414 22.22993959 6.18371814 0.00223614 0.00081889 -0.00935522
C -5.52885599 26.93459419 12.05194311 0.00229508 -0.00696059 -0.00210272
C 1.31009722 26.21919423 11.81885547 -0.00275810 0.00495411 -0.00107063
C 9.54327766 21.29205863 5.99414181 -0.00623842 0.00390015 -0.00190079
C -1.05062456 24.42956173 9.61116528 0.00435877 0.00403318 0.00178718
C -1.27859451 19.37523388 8.77711386 -0.00114287 -0.00582905 0.00408074
C 5.56479726 23.87853465 8.63847814 0.00227636 -0.00108804 -0.00454677
C 5.62394372 28.64320120 9.63987532 -0.00094540 0.00120027 -0.00191568
C -2.37646538 25.14345601 9.53090547 0.00890199 -0.00289870 -0.00089988
C 0.02146436 20.01236252 8.97935620 0.00295445 0.00025892 -0.00296815
C 6.83125945 23.08391650 8.62246362 0.00481006 -0.00826425 -0.00103977
C 4.55526696 27.60592324 9.59580984 0.00991313 -0.00332660 0.00245028
C -2.95691179 23.06849596 17.53573648 -0.00345366 -0.00519962 0.00253452
C -5.63492740 27.87311863 13.07200530 0.00334562 -0.00085410 -0.00183918
C 1.12340918 25.31555236 12.89439927 0.00492407 -0.00055070 -0.00054672
C 3.78616273 20.62103256 17.24283853 0.00123608 -0.00418465 0.00365751
C -1.75923051 23.00987626 16.80190643 0.00485901 0.00455364 0.00566667
C 6.47528291 27.65139542 13.89742470 -0.00373373 -0.00125188 0.00778342
C -0.07439863 25.36287443 13.57045423 -0.00304393 0.00264867 -0.00185315
C 31.19500583 20.37740943 16.65598298 0.00298567 -0.00683618 -0.00012294
C -0.68889616 22.26556322 17.23448523 -0.00230402 -0.00018404 0.00595352
C 5.49937477 26.70355684 13.61793104 -0.00435284 0.00483579 -0.00336624
C -1.15675385 26.17536889 13.27948697 -0.00266767 -0.00030989 -0.00067345
C -7.42540640 21.35535458 16.95301048 -0.00172531 0.00577475 0.00670962
C -0.85586871 21.31759217 18.30811773 -0.00701117 -0.00518267 0.00229418
C 5.69445265 25.81074002 12.52715600 -0.00110242 -0.00270616 -0.00102390
C -0.94678250 27.04919934 12.20314732 -0.00766227 -0.00268568 0.01156661
C -7.49549132 22.34953877 17.95195937 -0.00224361 -0.00292408 -0.00339052
C 1.01365240 21.36869900 12.71841429 -0.00009146 -0.00091861 0.00157943
C 3.62743868 26.30840671 17.55930065 -0.00591947 -0.00474257 -0.00746451
C -2.99771405 27.00369721 17.59116790 0.00759250 -0.00010066 -0.00029377
C -5.57241597 22.13330155 12.71405384 -0.00530218 -0.00617236 0.00428166
C 0.00624893 22.14308259 12.21336683 -0.00035761 -0.00039596 -0.00730880
C -8.33830718 27.09456978 18.12101613 -0.00204301 0.00641625 0.00799016
C -1.98811964 26.14743942 17.97943402 -0.00289641 -0.00195004 -0.00705403
C 6.59605777 21.56550536 12.12012894 -0.00951861 0.00167807 0.00213142
C -4.28989137 24.14666844 15.88181667 0.00165178 0.00262325 0.00287981
C -4.46024200 19.48982498 14.83557454 -0.00682476 0.00381437 -0.00542781
C 2.30515679 23.93567010 14.51960548 0.00209897 -0.00438511 0.00027958
C 2.37302575 28.80529676 15.43421452 0.00669947 -0.00494200 0.00411775
C -5.45528210 25.11294938 15.75716788 -0.00502029 0.00273251 -0.00062726
C -3.22021681 20.38507395 15.17850709 -0.00106441 -0.00001024 0.00182856
C 3.41642535 23.02190816 14.89709766 -0.00112751 -0.00028931 -0.00325927
C 1.10236557 28.14402996 15.21656269 0.00712786 -0.00820199 -0.00195527
C -5.75160437 23.16279908 23.31147884 0.00638622 0.00266227 0.00205265
C -8.50899179 27.83575699 19.24128022 -0.00659772 0.00060064 -0.00471389
C -2.09021477 25.37815303 19.22111325 0.00132668 0.00062463 -0.00234463
C 0.77507454 20.50049209 23.41197617 0.00362370 -0.00209830 0.00330628
C -4.53397459 23.26261362 22.67538745 -0.00023041 0.00306745 0.00635397
C 3.08088738 28.11119749 19.75042568 0.00010890 -0.00028037 -0.00463234
C -3.24000719 25.58221187 19.94723137 0.00124643 0.00655292 -0.00478444
C 28.18292058 20.59874453 22.80446747 0.00173466 0.00162965 -0.00276766
C -3.53329311 22.39303496 23.08005730 0.00466176 0.00752623 -0.00247913
C 2.13292685 27.22353130 19.37745513 0.00310935 0.00352083 -0.00717211
C -4.29245256 26.33633718 19.47350003 0.00542830 -0.00410974 0.00764488
C -10.35710446 21.51879890 23.23475663 0.00478680 0.00313604 -0.00077931
C -3.64837771 21.52397533 24.18902880 0.00052554 0.00154829 -0.00058153
C 2.41276247 26.34443117 18.28404368 -0.00736036 -0.00078792 0.00303881
C -4.22081056 27.12181501 18.35080292 0.00552210 -0.00096798 -0.00294207
C -10.47995369 22.31753613 24.36245228 0.00032681 0.00795657 -0.00185395
C -2.07022328 21.32888149 18.99119958 -0.00071037 0.00314383 0.00566703
C 0.82492049 26.33555105 23.70448405 0.00047369 -0.00542196 -0.00043300
C -6.01205084 26.99658676 23.72364349 -0.00423767 -0.00322602 0.00221397
C -8.70514514 22.28301097 18.61441573 0.00422597 0.00173483 -0.00141377
C -3.10871805 22.26602242 18.63796468 -0.00715216 -0.00291160 0.00108979
C -11.52001250 27.03298345 24.16047005 -0.00368148 -0.00356888 -0.00073248
C -5.00571995 26.19698549 24.15349529 -0.00146602 -0.00167148 -0.00054870
C 3.62138703 21.45345695 18.33716750 -0.00420759 0.00020700 -0.00403634
C -7.19327462 24.37104693 21.68351330 0.00703689 0.00614625 -0.00357572
C -7.36326086 19.87579037 20.87996447 -0.00530432 0.00484698 -0.00127478
C -0.68733314 23.94280898 20.73967603 -0.00462573 0.00073709 -0.00272742
C -0.43879708 28.83622326 21.96355643 -0.00312844 0.00466351 -0.00564398
C -8.35466218 25.22719813 21.51483694 0.00089698 0.00288991 -0.00623587
C -6.19464098 20.79929610 21.09380403 -0.00885067 -0.00939089 -0.00102226
C 0.44538192 22.92320101 20.86556074 0.01088986 0.00140879 0.00058368
C -1.50130842 27.77227573 21.80488625 0.00529741 0.00002607 -0.00370350
C 16.40176434 3.74486521 4.96701174 0.00235086 -0.00501878 0.00140806
C 13.79978184 8.58763699 0.98784446 0.00079947 -0.00514490 -0.00783805
C 20.38038995 5.75379806 0.71948723 -0.00052573 -0.00147269 0.00009299
C 22.86492041 1.09837799 5.02194410 -0.00532888 -0.00149846 0.00289529
C 17.64194636 3.65263171 4.29231626 -0.00281151 -0.00028909 -0.00039136
C 25.70602503 8.57600642 1.49698344 -0.00647374 0.00507897 -0.00515893
C 19.29030511 5.88959771 1.51660698 0.00094530 -0.00084313 -0.00310639
C 11.03190338 1.23375840 4.37954425 -0.00080450 -0.00170061 0.00943446
C 18.58868528 2.70680175 4.68391007 0.00032479 -0.00161947 0.00248400
C 24.69771690 7.77073982 1.03782638 -0.00033549 0.00218843 0.00346243
C 18.32491279 6.83625603 1.25657802 -0.00635494 0.00285785 0.00246853
C 12.08895510 2.01216519 4.75885267 -0.00585400 -0.00080707 0.00341163
C 18.40013569 1.89649052 5.78725157 -0.00360178 -0.00433531 0.00135579
C 12.87885132 6.93867487 24.26990675 -0.00064582 0.01154563 0.00612812
C 18.45096571 7.78155092 0.22955474 0.00666485 -0.00099508 -0.00328099
C 12.05027765 2.82205547 5.90496795 0.00049177 0.00078820 -0.00437346
C 20.07810798 1.90965193 0.30432670 -0.00561844 0.00553185 -0.00028333
C 22.91236898 6.94068774 5.34784760 -0.00135571 -0.00105995 0.00096854
C 16.65043603 7.63216018 5.33754814 -0.00657249 0.00067807 -0.00236128
C 13.43071792 3.10191748 0.46698220 -0.00150221 -0.00536326 -0.00181899
C 7.11158289 2.82727922 24.31016537 0.00390012 -0.00740339 0.00322405
C 10.91926833 7.86743963 6.05015544 -0.00883146 -0.00295423 -0.00919242
C 17.56028232 6.72790670 5.77143548 -0.00117426 0.00420510 0.00140206
C 13.63860966 2.10295893 24.34839379 -0.00154026 0.00857853 0.00130698
C 15.15754913 5.07294428 3.40541065 0.00490748 -0.00586109 -0.00130043
C 14.68684636 0.33179365 2.44989434 0.00073608 -0.00018079 -0.00236703
C 21.63900892 4.48146838 2.34955217 -0.00475665 -0.00125849 0.00251629
C 21.90215906 9.54667814 3.36399339 -0.00005918 0.00506333 0.00127452
C 13.93532208 5.81343104 3.25560006 0.00629819 0.00191667 0.00788221
C 15.99357646 1.07803192 2.60271342 -0.00370894 -0.00272157 -0.01034666