2000
Time=59000.00000005 pbc="T T T" Lattice="31.10404044 0.00000000 0.00000000 0.00000000 30.24892405 0.00000000 0.00000000 0.00000000 23.70682675" energy=-12036.99827856 virial="-49.60856905 -9.53704784 17.71551668 -9.53704784 -84.79480189 12.90375426 17.71551668 12.90375426 -126.39066324" stress="-0.00010148 -0.00038341 0.00069219 -0.00038341 -0.00165717 0.00066495 0.00069219 0.00066495 -0.00294606" Properties=species:S:1:pos:R:3:vel:R:3
C 30.58036156 3.83211736 1.63101855 -0.00443630 -0.00261280 0.00258837
C 2.50928440 0.57686443 3.38320030 0.00664693 -0.00176620 -0.01281206
C 30.35130022 3.63223590 6.54298934 0.00657319 -0.00156466 -0.01113810
C 2.34732847 0.74108750 8.02945172 -0.00474875 -0.00518015 0.00834602
C 30.52882024 3.80786032 11.08914364 0.00703718 0.00405684 -0.00578050
C 2.34251222 0.54676939 12.57877205 0.00123095 0.00194793 0.00280799
C 30.42206667 3.57116450 16.00678828 -0.00398259 -0.00670624 0.00137519
C 2.11123701 0.34005645 17.25816642 -0.00546259 0.00178227 0.00143424
C 30.75353530 3.82975561 20.51411910 -0.00085757 0.00199587 0.00024599
C 2.47771515 0.50170409 22.15027777 0.00570750 0.00797451 -0.00215598
C 0.02906541 9.41861749 1.99814087 0.00792016 -0.00380444 -0.00031868
C 3.08460372 6.19140666 3.08874721 0.00871406 0.00473962 -0.00283957
C 30.73945253 9.13932435 6.74992103 -0.00466610 0.00946120 0.00377571
C 3.03551916 6.27537177 7.93473782 0.00079798 -0.00202917 -0.00123515
C 30.98111288 9.34226167 11.28726306 0.00784373 0.00358667 -0.00509549
C 2.67852966 6.11239135 12.71480046 0.00042629 -0.00267934 0.00084666
C 0.11215596 9.27623969 15.87550919 -0.00321721 0.00252542 -0.00754718
C 2.94188510 6.35291967 17.20433813 -0.00637728 0.00000510 0.00323019
C 31.02431826 9.24056692 20.63372425 0.00736932 0.00310349 -0.00256990
C 2.84838751 6.63006500 22.00769202 -0.00114712 0.00007611 -0.00057995
C 0.32590949 15.10306352 1.63641244 0.00820685 0.00704531 0.00698230
C 3.64447703 11.87259853 3.07018666 0.00567999 0.01486182 0.00018979
C 0.24129150 14.80791698 6.33233631 0.00344100 0.00251855 -0.00775754
C 3.28953848 11.92003516 7.78968002 -0.00173211 0.00633165 0.00036024
C 0.48156481 15.04156780 11.14184376 -0.00178161 0.00307083 0.00332695
C 3.60951209 11.80156100 12.55584174 -0.00019869 -0.00350015 0.00467398
C 0.47449901 14.52551530 15.84337816 0.00224126 0.00291615 0.00637374
C 3.39359295 11.82316752 17.28082658 -0.00269462 -0.00695931 0.00655929
C 0.25091239 14.81350719 20.62924799 -0.00547244 -0.00479865 -0.00017957
C 3.46759521 11.89508370 21.99212744 0.00837140 0.00331370 -0.00078345
C 0.35923972 20.58052332 1.54725719 -0.00306392 0.00452748 -0.00262248
C 3.67271949 17.56021390 3.06260310 0.00871578 -0.00102317 0.00614834
C 0.72920345 20.54180991 6.20968251 0.00208696 0.00290827 -0.00039403
C 3.97009217 17.42845007 7.82633418 0.00130926 0.00393011 -0.00192811
C 0.41452999 20.66849055 11.04249184 0.00547238 -0.00154222 -0.00534465
C 3.40974866 17.70296855 12.63168608 0.00202567 0.00013459 -0.00811992
C 0.70363428 20.32304797 15.67954276 -0.00153972 0.00230623 0.00447726
C 3.86352556 17.43386718 17.34547947 0.00036996 0.00046371 -0.00337818
C 0.51303639 20.60167894 20.63144413 -0.00141656 -0.00252846 -0.00247862
C 3.74764294 17.57788024 22.13413369 -0.00407419 0.00074873 0.00308966
C 31.02786321 27.03614553 1.57485812 -0.00520901 0.00154705 -0.00032618
C 3.25770599 23.93331207 2.96444455 -0.00403290 0.00085800 0.00061340
C 0.27967142 26.96221617 6.36236594 -0.00108256 -0.00312759 -0.00937591
C 3.18617997 24.07453021 7.71464563 0.00020244 0.00082795 -0.00379355
C 30.87711700 27.09889700 11.04307223 0.00067281 0.00609323 -0.00080840
C 3.07224348 23.96559658 12.58736269 -0.00595805 -0.00282500 -0.00227333
C 30.88707344 26.74048653 15.78193522 -0.00040481 0.00705538 -0.00522089
C 2.80393239 23.95630412 17.18814652 -0.00102119 -0.00275692 0.00137557
C 0.01521162 27.28643003 20.57559069 0.00430187 0.00552159 -0.00379328
C 3.16711251 24.20292721 21.89862936 0.00194925 -0.00579562 0.00760861
C 6.11022760 3.27252271 1.77570658 0.00218192 0.00218357 -0.00373958
C 8.81620322 30.10313339 3.10543377 0.00251598 0.00141219 0.00742695
C 6.09828894 3.06687656 6.45333773 0.00498688 0.00482448 -0.00013815
C 9.07216700 0.23054423 7.79725365 -0.00683415 -0.00132508 0.00974984
C 5.99316503 3.51440434 11.06957721 0.00204224 0.00384631 0.00517640
C 8.87205878 0.22646738 12.54880841 -0.00453033 -0.00297032 0.00308897
C 5.97453787 3.37757605 15.74381008 -0.00607448 0.00274147 -0.00378211
C 9.11400261 0.22367395 17.18905847 -0.00232734 -0.00504317 -0.00405944
C 5.93958830 3.15069589 20.55401471 0.00141846 0.00267720 0.00087178
C 9.00611171 0.26648768 22.04012341 -0.00183594 0.00148812 -0.00595378
C 6.54742870 9.06683651 1.87689432 -0.00037587 0.00466656 -0.00247732
C 9.65605026 5.81739340 2.91573306 -0.00835498 0.00348626 0.00223745
C 6.58483915 8.77353056 6.41228187 -0.00048803 0.00544951 -0.00143309
C 9.49942977 5.53144198 7.71118161 0.00104836 -0.00367107 -0.00154031
C 6.56072507 8.56102914 11.19636892 -0.00135390 -0.00526861 -0.00418890
C 9.52090277 5.67048347 12.49175791 0.00505310 0.01223580 0.01058692
C 6.49996647 8.63854648 16.11156855 -0.00668628 -0.00225069 0.00151462
C 9.75160502 5.97333549 17.06938523 0.00266937 0.00197769 0.00116097
C 6.25365460 8.66893157 20.78718910 -0.00512428 -0.00311277 0.00264344
C 9.43308861 5.77799379 22.10819386 0.00157325 0.00495243 0.00250702
C 7.01697581 14.51964452 1.65732710 0.00510074 0.00005829 0.00255819
C 10.02057664 11.49322662 3.02810832 0.00270540 0.00787682 -0.00161429
C 6.95188575 14.58251778 6.45352122 -0.00079082 0.00524647 -0.00320310
C 9.77917664 11.59709408 7.85491913 0.00823817 -0.00061735 -0.00241922
C 7.01611090 14.65989056 11.23452226 0.00726525 -0.00464939 0.00053291
C 9.72975070 11.18551064 12.57916230 -0.00083885 -0.00343566 0.00685151
C 6.99569980 14.36958938 15.89330506 -0.00112828 0.00513547 0.00876065
C 10.05150306 11.50429582 17.24537117 -0.00304903 0.00125363 0.00519730
C 7.12978669 14.30209971 20.70994858 -0.00355115 0.00358908 0.00578445
C 10.07105630 11.57973843 21.91864608 0.00236023 0.00176161 0.00446962
C 6.47985101 21.35782544 1.63960292 -0.00261124 -0.00033169 -0.00707095
C 9.36759734 17.96329131 3.14670647 0.00091230 -0.00376365 0.00984772
C 6.42880794 21.37730428 6.62648980 -0.00536787 -0.00314609 -0.00656419
C 9.58082069 18.36212447 7.85238549 -0.00090029 0.00042398 -0.00123045
C 6.26951399 21.07540864 11.31310979 0.00174524 -0.00109355 0.00046499
C 9.38347753 18.13450002 12.67652905 -0.00626693 0.00198397 0.00129884
C 6.28477312 21.21204790 15.86807950 0.00051893 0.00031454 0.00375780
C 9.34898855 18.14230099 17.48206380 -0.00410746 -0.00293112 0.00292016
C 6.06112084 20.99847909 20.65901482 -0.00483539 0.00051076 0.00336459
C 9.17322834 18.22045769 22.08830816 0.00271337 0.00074865 -0.00147913
C 5.60639886 27.74327915 1.71233235 -0.00356915 0.00012321 -0.00018767
C 8.53197220 24.67054470 3.04559108 -0.00131198 0.00225869 0.00532616
C 5.61400141 27.89356225 6.49081219 0.00246618 0.00124759 -0.00340482
C 8.64876485 24.76240161 7.80465595 -0.00145693 -0.00468149 -0.00186153
C 5.44277405 27.86755597 11.21214845 0.00141904 0.00284196 -0.00578161
C 8.67793967 25.17377275 12.47970425 0.00356882 0.01501969 0.00111876
C 5.26266436 27.66826315 15.90664226 0.00343433 -0.00429002 -0.00490235
C 8.49493015 24.99249890 17.08061198 -0.00042620 -0.00081529 0.00328419
C 5.38056832 27.80735349 20.59058524 -0.00523683 0.00193485 0.00230879
C 8.76016809 24.87590181 21.79265904 -0.00624149 0.00109627 -0.00486344
C 12.57340630 2.90405795 1.69292376 0.00514743 0.00059828 -0.00402403
C 15.66813154 30.13514792 3.14089415 0.00204924 0.00715049 -0.00139389
C 12.47418671 2.67746764 6.55198793 -0.00342782 0.00458740 0.00286400
C 15.71677344 30.11511903 7.79994066 -0.00104901 0.00643781 0.00831991
C 12.55810553 2.87698893 11.46529018 0.00301009 0.00159026 -0.00335278
C 15.82012104 30.05044065 12.40480765 0.00360612 -0.00097892 -0.00068940
C 12.60602994 2.88423413 15.93903982 -0.00317824 0.00015046 -0.00424722
C 15.76663175 0.01321710 17.25131850 0.00050489 -0.00535589 0.00649409
C 12.53899139 2.48709416 20.71341587 -0.00322409 -0.00482616 -0.00114723
C 15.71030477 0.03674416 22.14017789 -0.00171910 0.00510225 -0.00725423
C 13.02031422 8.50584151 1.58426569 0.00153099 0.00213538 0.00103729
C 16.00046200 5.56431809 2.92668148 -0.00000592 -0.01184951 0.00725816
C 12.91316830 8.56654838 6.50244571 -0.00113456 -0.00050760 0.00333276
C 15.83178856 5.49223839 7.59977145 0.00611017 -0.00480893 -0.00229391
C 13.11607075 8.53038592 11.12272751 -0.00241273 0.00471969 0.00600160
C 16.23205133 5.41170738 12.57176789 0.00032079 -0.00097710 0.00166768
C 13.19887895 8.40137587 15.69550728 -0.00032415 0.00343379 -0.00464661
C 16.18215222 5.55410646 17.30493131 -0.00068502 -0.00377804 0.00067395
C 12.99594732 8.45583755 20.57011269 -0.00196051 0.00247998 -0.00047490
C 16.09681635 5.79272852 21.91989933 -0.00242178 0.00304802 -0.00131790
C 12.65139673 15.21695948 1.97456625 0.00233251 0.00470476 0.00283121
C 15.58609699 12.11349881 3.24227097 -0.00004246 0.00193686 0.00415779
C 12.41924623 15.15537334 6.61746806 -0.00212511 -0.00106198 -0.00759986
C 15.33235740 12.00981099 7.94412611 0.00375585 -0.00748151 -0.00177941
C 12.32221794 15.19559263 11.31115931 -0.00537630 0.00556137 -0.00141614
C 15.44398485 11.99761232 12.63060715 -0.00257842 -0.00029709 -0.00122749
C 12.41975764 15.26605329 16.13575176 -0.00249753 0.00041054 0.00150092
C 15.44332083 11.91652638 17.30602755 0.00516617 0.00304207 -0.00279908
C 12.94448747 14.96149813 20.79234041 0.00732711 -0.00266377 -0.00344878
C 15.72790306 12.15296524 22.18389028 0.00377411 0.00727086 -0.00007863
C 11.81033811 21.72271049 1.40857132 -0.00044082 0.00130538 -0.00866807
C 15.15296950 18.70692778 3.01517812 -0.00031464 -0.00316789 0.00272999
C 11.87477640 21.64541876 6.30831689 -0.00405396 -0.00026157 0.00687337
C 15.10134192 18.72564884 7.78499952 -0.00179069 -0.00025838 -0.00333097
C 11.75103273 21.95678589 11.11476138 -0.00189120 -0.00184159 0.00868757
C 14.80493675 18.72252339 12.40847800 -0.00870820 0.00413374 0.00069168
C 11.69112155 21.74703024 15.70925788 -0.00082818 0.00009511 -0.00097726
C 14.97092619 18.84799053 17.25466118 -0.00656304 0.00884035 0.00754179
C 11.66168729 21.86191676 20.37153227 0.00061526 0.00078547 0.00205872
C 15.19307383 18.73399507 21.93975160 -0.00079453 -0.00007164 0.00180082
C 12.21608332 27.43946565 1.73545532 0.00400926 -0.00097086 0.00230164
C 15.22004273 24.56456168 2.93888486 0.00021407 -0.00761600 0.00136552
C 12.05301739 27.25880110 6.49642320 0.00375445 0.00162750 -0.00524862
C 15.45480588 24.53231244 7.90283735 -0.00677779 0.00549627 0.00361555
C 12.17053998 27.40774263 11.08218453 -0.00016703 0.00335536 -0.00098833
C 15.29933090 24.24363938 12.33102207 0.00111406 -0.00115520 -0.00590210
C 12.08261939 27.36536656 15.65514436 0.00524672 0.00275207 0.00487855
C 14.89397604 24.31588983 17.22802397 -0.00657190 0.00228143 -0.00173533
C 12.14310622 27.82954972 20.53383195 0.00575549 0.00745900 0.00563616
C 15.21158958 24.44786677 21.72339654 0.00426034 -0.00139770 0.00600151
C 19.17950162 2.29272753 1.71598603 -0.00218250 0.00017995 0.00109694
C 22.22951257 29.56103148 2.86645301 -0.00044715 0.00000479 -0.00099596
C 19.25465188 2.68550451 6.51540102 0.00642328 -0.00682058 0.00674288
C 22.56980197 29.96620226 7.66250013 -0.00224023 -0.00486033 -0.01176699
C 19.43678807 2.31823228 11.21989418 0.00300710 -0.00446535 0.00149660
C 22.36219541 29.61597553 12.47575040 -0.00176156 -0.00295489 -0.00396857
C 19.13535999 2.53425751 15.97135776 0.00208399 -0.00112382 0.00197492
C 22.31377848 29.50590861 17.21088514 0.00426899 -0.00565329 0.00031224
C 19.17780448 2.31851623 20.64450618 0.01123061 -0.00180042 0.00134383
C 22.59293288 29.59716137 21.95851550 -0.00529373 -0.00387363 0.00203938
C 18.77102197 9.17225258 1.81697744 0.00236834 0.00412285 -0.00408888
C 21.74706016 6.29157911 2.98597435 -0.00243752 -0.00088058 -0.00027995
C 18.50024392 9.21075142 6.44734501 0.00500906 0.00229263 0.00030191
C 21.57826827 6.11174045 7.82077915 -0.00251817 -0.00136781 0.00041177
C 18.53265664 8.90107906 11.32404132 -0.00645951 -0.00339096 0.00290331
C 21.94833139 5.96993076 12.65043552 -0.00332380 -0.00665556 -0.00448462
C 18.58728355 9.27364284 16.00723823 -0.00191704 -0.00169239 0.00171265
C 21.92441418 6.13269411 17.30592269 -0.00139838 0.00190213 -0.00232160
C 18.76432154 9.08917518 20.84363214 -0.00226591 0.00219617 -0.00389458
C 21.95909668 6.09256910 22.00034521 0.00425203 0.00504579 -0.00124892
C 18.18617416 15.91078602 1.89300067 0.00571509 0.00088066 0.00318707
C 21.41681323 12.45955862 3.12432664 0.00063205 0.00137564 -0.00430374
C 18.01543781 15.80988751 6.46275933 0.00030468 -0.00079616 -0.00056584
C 21.34027861 12.69037021 7.76615405 0.00075884 -0.00963859 0.00125756
C 17.75352314 15.80801366 11.21292477 -0.00538277 0.00367164 -0.00312284
C 21.15515828 12.62009523 12.60249693 -0.00421801 0.00151324 0.00220527
C 17.99097374 15.76279897 15.93696336 0.00297234 0.00702090 -0.00261291
C 21.16868879 12.88952489 17.20745922 0.00537406 -0.00517774 0.00634136
C 18.21261122 15.78837349 20.52401489 0.00392386 -0.00802915 -0.00241657
C 21.01124511 12.79948262 21.97445490 -0.00288509 -0.00433578 0.00288137
C 18.51383841 21.57012532 1.82366010 -0.00331230 -0.00482451 -0.00620604
C 21.58137888 18.25196346 3.07628226 0.00123923 -0.00237208 0.00038040
C 18.66319815 21.58641067 6.60665874 0.00295976 -0.00241831 -0.00482297
C 21.73761147 18.37390949 7.90373308 -0.00107220 -0.00082476 -0.00211885
C 18.48928738 21.57194671 11.27539324 0.00760490 0.00033705 -0.00302859
C 21.40828396 18.47941763 12.70464088 -0.00413809 -0.00299157 -0.00632080
C 18.44186167 21.41611618 15.92512066 0.00099304 0.00100051 -0.00740316
C 21.83346097 18.52772038 17.25465571 -0.00291114 0.00018996 0.00130245
C 18.43334491 21.21795823 20.55223021 -0.00658042 -0.00693462 -0.00272513
C 21.38222020 18.58901075 22.01209173 -0.00262959 0.00132228 -0.00069113
C 18.78116614 26.98048595 1.62200718 -0.00164204 0.00498777 0.00843176
C 21.87649097 24.11856619 2.86238830 0.00095328 0.00064106 0.00194491
C 18.70570970 27.13383302 6.30841111 0.00330498 -0.00458872 0.00368479
C 22.13045476 24.10965452 7.74527949 0.00507302 -0.00030528 -0.00568561
C 19.06835390 26.89847542 10.96871199 -0.00578985 -0.00298450 0.00107053
C 22.11404581 23.88752174 12.47889076 0.00333923 0.00098227 0.00266969
C 18.78653891 27.06209986 15.86266778 0.00711864 0.00139324 -0.00057603
C 22.06474318 24.13939739 17.30203546 0.00445760 0.00409116 0.00473658
C 18.81002918 27.05482612 20.50258097 -0.00068371 0.00110663 -0.00184304
C 21.98913169 23.85807863 21.90528891 0.00034706 -0.00987789 -0.00191657
C 24.72783985 3.11426099 1.79630287 0.00154741 0.00348437 0.00021821
C 28.27402157 0.08870259 3.02155272 0.00382360 0.00321395 -0.00295270
C 24.92204565 3.08161067 6.58484009 -0.00117430 0.00021148 0.00405060
C 27.76847344 30.19685626 7.67230906 -0.00010099 -0.00295324 0.00142474
C 24.77095167 3.09062324 11.27138664 0.00104816 -0.00258480 0.00003148
C 27.92622824 30.12274454 12.28016096 -0.00389198 0.00293229 0.00699949
C 24.76909766 2.92306009 15.97859632 0.00636112 -0.00063704 0.00060137
C 27.84219261 30.21478927 17.30865813 0.00716998 -0.01126031 -0.00679180
C 24.99592129 3.28901204 20.78774234 -0.00173319 -0.00001213 -0.00509917
C 28.21822195 0.25568537 22.07542849 -0.00513895 0.00058301 0.00149821
C 24.33399160 9.77441939 1.92872460 -0.00210445 -0.00402324 0.00066329
C 27.44496479 6.66410010 3.01554065 0.00045398 0.00158772 -0.00209548
C 24.08042014 9.52229629 6.60496455 -0.00220534 -0.00363990 0.00351527
C 27.55454197 6.60125583 7.73763472 0.00057828 -0.00306551 0.00177404
C 24.12922792 9.40199241 11.27432365 -0.00076061 0.00408742 0.00098611
C 27.41742368 6.72749065 12.59435848 -0.00634133 0.00406402 0.00460777
C 24.40589663 9.78353598 15.95090544 -0.00098717 0.00036347 0.00525586
C 27.32569328 6.79288585 17.29301840 0.00245710 0.00009212 -0.00282795
C 24.33533613 9.86777745 20.89823459 -0.00738727 0.00072238 -0.00142384
C 27.37160644 6.68286542 22.07323139 -0.00068087 0.00426411 -0.00600139
C 24.55607491 15.40198676 1.70154834 0.00428625 -0.00254670 -0.00470207
C 27.83478897 12.48899363 3.28471636 0.00042337 0.00498077 0.00186847
C 24.69262521 15.15939472 6.49527627 0.00195153 -0.00202782 -0.00085363
C 28.02315082 12.44626458 7.79928760 0.00232683 -0.00540949 0.00173251
C 24.59175144 15.02519561 11.24641172 -0.00583782 0.00189991 0.00375311
C 27.63305823 12.11277112 12.39547541 0.00394010 0.00060721 -0.00333310
C 24.78200504 15.38784770 15.92507017 0.00383969 0.00071670 -0.00972476
C 27.51900580 11.96395186 17.43368705 -0.00696485 -0.01042796 -0.00501469
C 24.66730318 15.44083564 20.79925873 0.00321715 -0.00286496 -0.00195522
C 28.05463173 12.26730990 22.06320665 0.00697794 0.00268242 0.00271698
C 25.15202280 20.94878969 1.69611658 -0.00544177 -0.00253773 -0.00845833
C 28.30540085 17.92573829 3.01963962 -0.00150423 0.00040042 0.00053267
C 25.10570549 21.16661402 6.25654944 0.00710775 0.00219254 -0.00346931
C 28.27001877 17.87565668 7.62335452 0.00227998 0.00105994 0.00113872
C 25.10867880 20.82117872 11.06410124 0.00633468 0.00456921 -0.00415814
C 28.39127518 17.92601370 12.36285216 0.00040703 0.00086198 0.00032773
C 25.34416367 20.90536174 15.86081286 -0.00020868 0.00438761 -0.00006051
C 28.21613700 17.64204342 17.24244245 0.00014887 -0.00318458 -0.00120307
C 24.87295148 20.91251277 20.52579050 -0.00285972 0.00596232 0.00143155
C 28.09679590 17.81308001 21.89671139 -0.00865743 0.00144791 0.00133007
C 25.54730200 26.42335529 1.69141247 0.00813591 0.00657917 -0.00752338
C 28.72866095 23.74707465 2.74249204 0.00365625 -0.00576821 -0.00290598
C 25.49234010 26.56574084 6.40609961 -0.00700250 0.00473776 -0.00982861
C 28.54092674 23.47187338 7.47820096 -0.01211575 -0.00018062 -0.00131911
C 25.40262876 26.66347519 11.24230669 0.00566864 -0.00252129 0.00184893
C 28.31006558 23.63638427 12.29031333 0.00201679 0.00695730 0.00795731
C 25.85331934 26.65126986 15.94383216 0.00002251 0.00303577 -0.00089426
C 28.30765364 23.64879497 17.21350602 -0.00572431 -0.00535298 -0.00128393
C 25.60244359 26.68402937 20.80567681 0.00151095 -0.00454229 0.00470778
C 28.15341220 23.25072969 21.71300000 0.00135803 -0.00084448 -0.00073313
N 0.24296808 4.74394536 0.96562839 0.00544916 -0.00357612 0.00281719
N 3.63254741 5.13842000 3.80310075 -0.00656483 0.00569481 0.00260663
N 5.24196182 2.53599181 1.07611937 -0.00785229 -0.00008995 0.00255821
N 1.77707621 1.49656466 4.12377624 0.00618190 -0.00256385 0.00195079
N 0.05022984 4.39276054 5.80827938 0.00274845 -0.00943042 -0.00293710
N 3.55154519 5.16430707 8.62055801 0.00521418 0.00772484 0.00152707
N 5.23010613 2.29832673 5.80961957 -0.00347880 0.00070178 0.00650617
N 1.57533763 1.61334488 8.68915948 0.00018261 -0.00542105 -0.00152560
N 0.14110344 4.68180722 10.34365520 -0.00141190 -0.00009121 -0.00672876
N 3.48193477 5.33875481 13.50222610 -0.00739341 0.00246350 -0.00110767
N 5.42141846 2.37410973 10.65793377 0.00116332 0.00408449 0.00769096
N 1.46377852 1.24078112 13.42508957 -0.00067832 -0.00265595 -0.00269822
N 0.27997563 4.30989081 15.30485080 0.00125789 0.00107103 -0.00194012
N 3.54974953 5.29613163 17.77607303 0.00034798 -0.00527165 -0.00103730
N 5.38542998 2.52336390 14.90657591 0.00838433 0.00434698 0.00071290
N 1.37827168 1.22055722 18.05341487 -0.00246894 0.00151006 0.00113653
N 0.44689364 4.68208536 19.86588249 0.00605911 0.00084353 0.00605179
N 3.65887248 5.84211341 22.80296307 -0.00246434 0.00544725 -0.00113921
N 5.11202112 2.32968902 19.92032842 0.00030010 -0.00018189 0.00387893
N 1.84754729 1.41331816 22.94274072 0.00501226 -0.00269299 -0.00227569
N 0.65117997 10.17637704 1.09095346 -0.00017310 -0.00265407 -0.00217309
N 4.34342277 11.11580407 3.99373175 0.00067392 0.00182388 -0.00267603
N 5.86396143 8.07043731 1.23201962 -0.00388296 -0.00069729 -0.00240378
N 2.46909260 7.13148691 3.81384913 -0.00055601 0.00313306 -0.00346856
N 0.60799195 9.98093212 6.12773300 -0.00308914 0.00056903 -0.00193091
N 4.06240276 10.92734736 8.35504723 0.00310488 -0.00441319 -0.00306612
N 5.88324363 7.88713567 5.60475792 0.00083174 -0.00133797 0.00387693
N 2.29385842 7.20475405 8.61242447 0.00117310 -0.00108520 -0.00022307
N 0.64667380 10.14158340 10.49996056 -0.00595240 -0.00397452 -0.00789082
N 4.15562586 10.68620719 13.21816488 -0.00232986 -0.00010658 0.00045339
N 5.59465255 7.88147345 10.54167164 -0.00321877 -0.00103024 -0.00061288
N 2.12911553 7.21984008 13.24572144 0.00318804 0.00272943 0.00313683
N 0.98520587 10.00568861 15.06670765 0.00198680 0.00048237 -0.00198530
N 3.94691182 10.85566099 18.01105908 -0.00199671 0.00035302 0.00246718
N 5.61812624 7.99238957 15.31667043 0.00499641 0.00183303 -0.00347456
N 2.34209991 7.23795441 18.00150129 0.00379110 -0.00031428 -0.00254409
N 0.72665686 10.06374553 19.89690631 0.00063997 -0.00027162 0.00348646
N 4.27109637 10.98315561 22.63182440 -0.00985514 -0.00654919 -0.00178122
N 5.58904754 7.69924962 20.05068679 -0.00441590 0.00098547 0.00140226
N 2.15270965 7.59431825 22.67199434 0.00797293 0.00235204 0.00435382
N 1.10457880 15.89278869 0.84708332 -0.00068022 0.00259158 0.00851946
N 4.56921136 16.87200435 3.79810829 -0.00160186 0.00282268 -0.00198666
N 6.22505137 13.66157816 0.99391728 0.00032804 -0.00447896 -0.00016620
N 2.83559394 12.80412148 3.63905945 0.00807485 -0.00678239 0.00073753
N 0.95256612 15.71606154 5.62226932 -0.00655605 -0.00286249 0.00346803
N 4.43166237 16.50457038 8.67229874 0.00008426 -0.00230389 0.00094452
N 6.21130370 13.79774204 5.55070903 0.00242489 -0.00198591 -0.00082016
N 2.97625047 12.95126605 8.64819566 -0.00358896 -0.00132590 0.00679810
N 1.02255764 16.12086601 10.39270244 0.00124813 -0.00229018 -0.00339029
N 4.22807089 16.87823339 13.37108173 0.00053496 -0.00545991 0.00026577
N 6.54315906 13.55971658 10.65342376 -0.00071476 0.00059581 -0.00227128
N 2.91428582 12.71015446 13.34433299 -0.00107922 -0.00599935 -0.00243254
N 1.16172254 15.40464779 15.07084462 -0.00643282 -0.00094053 -0.00337619
N 4.59903202 16.54505728 18.18480546 0.00360070 0.00121398 0.00662480
N 6.15332121 13.71893611 15.01736614 0.00245060 0.00329271 -0.00226741
N 2.92045958 12.81959991 18.04448801 0.00141700 -0.00517837 0.00433537
N 0.98873725 15.72382032 19.93729854 0.00192485 -0.00453177 -0.00196830
N 4.59513913 16.96393631 22.93354395 -0.00337096 0.00182385 -0.00997442
N 6.33797849 13.61915579 19.86419216 0.00003389 -0.00020578 -0.00029167
N 2.80138813 12.78760770 22.74749106 -0.00131630 0.00115651 0.00079084
N 1.10153024 21.45596696 0.78542032 -0.00139548 -0.00186749 -0.00594157
N 4.42058147 23.41160140 3.52096579 0.00030580 -0.00240025 -0.00148294
N 5.70717669 20.39209672 1.09288945 0.00402126 0.00232544 0.00038585
N 2.86108285 18.45711772 3.73916066 0.01229948 -0.00601176 0.00005978
N 1.62730766 21.33007206 5.48097731 0.00550303 -0.00136801 0.00510844
N 4.13480470 23.58636011 8.45132629 0.00005361 -0.00218538 0.00116221
N 5.81196343 20.31354271 6.06424182 -0.00090950 -0.00306394 0.00030850
N 3.12631338 18.41839178 8.33471022 0.00891808 0.00284073 -0.00538756
N 1.35128415 21.35503886 10.39293405 0.00332184 -0.00630703 0.00111314
N 4.14496837 23.78157628 13.34270354 -0.00195749 -0.00234707 0.00017722
N 5.53904809 20.37591386 10.37584183 -0.00865892 0.00004744 0.00706901
N 2.62216065 18.57578616 13.29700520 0.00876635 0.00316664 -0.00396880
N 1.51961124 21.15010572 14.98180455 -0.00111878 -0.00453625 0.00246537
N 3.79877930 23.45259515 17.99448931 -0.00197403 -0.00192264 0.00681283
N 5.55764527 20.25932725 15.22000038 0.00022695 0.00075412 0.00509001
N 2.97647510 18.22825260 17.96506491 0.00376743 -0.00526125 -0.00148237
N 1.40298452 21.37822487 20.08407344 0.00140706 -0.00029563 0.00224700
N 4.20598978 23.74275983 22.55080836 -0.00019916 -0.00086321 0.00078875
N 5.05706656 20.41042943 20.09976586 -0.00099757 -0.00304101 -0.00027857
N 2.94518735 18.52949061 22.69212710 0.00183246 -0.00385555 -0.00152573
N 0.75323748 27.95182025 1.15800975 0.00099203 0.00268949 0.00077690
N 3.38264556 30.07452890 4.15463205 -0.00822246 -0.00183714 0.00499231
N 4.79545387 26.89300650 0.98537974 0.00701261 0.00005262 -0.00466127
N 2.20628719 24.14985244 3.80622373 0.00008804 -0.00366206 0.00179281
N 1.30206229 27.66027526 5.71798293 -0.00276337 -0.00214196 -0.00068161
N 3.30410895 0.14114498 8.74823721 -0.00358124 -0.00821053 -0.00174969
N 4.80294907 26.86835467 5.94866077 0.00272784 -0.00608297 0.00306862
N 2.08417007 24.38991432 8.42821618 0.00650553 0.00132476 -0.00309171
N 0.75501860 27.83807765 10.40772569 -0.00185900 -0.00634641 -0.00865791
N 3.26913803 30.02378187 13.14923103 -0.00470334 -0.00258323 -0.00164756
N 4.50850436 27.11130410 10.59563401 -0.00181872 -0.00105598 0.00441671
N 1.95107397 24.48084223 13.16616653 0.00162485 0.00056486 -0.00328032
N 0.53315656 27.67151617 15.13880304 0.00293459 -0.00054634 0.00377127
N 3.11157875 29.95263985 17.97311987 0.00032021 -0.00335376 0.00359030
N 4.45668605 26.93066784 15.11785037 -0.00034015 -0.00205070 -0.00476750
N 1.82358651 24.66185136 17.80002087 0.00006684 -0.00423697 0.00230946
N 0.89772717 28.06135217 19.88650276 0.00340198 0.00028430 -0.00664455
N 3.41446758 29.93342321 22.69515433 -0.00146635 -0.00674842 -0.00612000
N 4.56685922 26.93581557 19.87192144 0.00206461 -0.00129247 0.00015701
N 2.20515761 24.86977258 22.64938869 0.00460175 -0.00337695 0.00280776
N 6.83920660 4.15229929 1.00791968 -0.00021829 0.00534641 0.00149255
N 10.40165742 4.95803596 3.64220599 0.00632300 -0.01055737 0.00036917
N 11.57144549 2.08762348 1.16534570 0.00316009 -0.00103750 0.00164982
N 8.23741045 0.77427402 3.90642069 -0.00930896 -0.00417661 0.00470309
N 6.87980164 3.88093231 5.69867048 -0.00480970 -0.00246284 -0.00392049
N 10.08483337 4.61812778 8.57067974 0.00370710 0.00677616 0.00090699
N 11.68473122 1.76873876 5.90401535 -0.00020746 0.00442445 0.00003359
N 8.32331021 0.99748630 8.66309465 -0.00384924 0.00217149 -0.00100422
N 6.70170789 4.27895109 10.19228891 -0.00039508 -0.00133284 -0.00121567
N 10.38183257 4.87629705 13.17787263 -0.00390996 -0.00930583 -0.00792943
N 11.86084809 1.94878857 10.81552591 0.00079533 -0.00672459 0.00150956
N 8.37970710 1.27263326 13.22592121 -0.00071868 -0.00710433 0.00060240
N 6.69603925 4.37530113 15.23650122 0.00233712 -0.00229064 0.00119963
N 10.46309028 5.11318951 17.83030634 -0.00137655 -0.00033591 -0.00128739
N 12.04579848 1.85371710 15.22454431 0.00380913 -0.00015376 0.00110559
N 8.53923362 1.28210752 17.77396368 0.00392706 -0.00273579 -0.00804799
N 6.77977912 3.84004569 19.80812137 -0.00038073 -0.00303514 -0.00320895
N 10.00575751 4.72922532 22.81641344 0.00641229 0.00156020 -0.00695857
N 11.93353326 1.49986807 19.95469113 -0.00149615 0.00353538 0.00152519
N 8.46965189 1.27511545 22.79692843 0.00275501 -0.00752210 -0.00239858
N 7.24064930 9.89412161 1.07103347 0.00464594 0.00112874 0.00225515
N 11.04644988 10.93784681 3.76240631 -0.00385186 -0.00695842 -0.00906904
N 12.35004206 7.62881665 0.86825797 -0.00184907 -0.00042614 0.00051351
N 8.88533177 6.65743039 3.62579228 0.00579571 -0.00435381 -0.00053018
N 7.19256063 9.79056437 5.80543083 -0.00155971 0.00209191 0.00398183
N 10.44241544 10.62483735 8.61557048 0.00478218 -0.00266282 -0.00026172
N 12.17929322 7.65752660 5.77111056 0.00220009 0.00558491 -0.00539698
N 8.96213624 6.59722591 8.40508719 0.00695164 0.00041806 -0.00216025
N 7.39499452 9.30908270 10.38683759 -0.00185408 0.00663174 0.00000298
N 10.85185468 10.93797591 13.26512197 0.00086295 -0.00172689 0.00624144
N 12.53562891 7.63403707 10.29105831 0.00438671 0.00234155 -0.00087462
N 9.02605251 6.71067049 13.15340163 -0.00386713 -0.00298347 -0.00051637
N 7.44663276 9.35181464 15.36935496 -0.00053100 0.00570540 0.00374395
N 10.72299137 10.52789489 17.91313744 -0.00403574 -0.00077577 -0.00401898
N 12.38472488 7.65896099 14.97077694 -0.00175032 -0.00283032 -0.00828107
N 8.91834386 6.79573584 17.79810541 -0.00779661 -0.00578562 -0.00371021
N 7.06885376 9.50303656 20.06779189 -0.00221216 -0.00113656 -0.00060496
N 10.77415488 10.59525067 22.57404658 -0.00201664 0.00290852 -0.00326419
N 12.34061651 7.63032640 19.75690460 0.00026639 -0.00305079 0.00577935
N 8.70618084 6.71278219 22.87778020 0.00288588 0.00305670 -0.00183389
N 7.64929275 15.41564230 0.89353749 0.00767896 -0.00069037 0.00812178
N 10.41861195 17.44179532 3.80720735 0.00212577 0.00427739 0.00384618
N 11.78982607 14.42136178 1.30617180 0.00378833 -0.00144915 -0.00150251
N 9.18574604 12.30864655 3.78076072 -0.00246418 0.00080292 0.00144168
N 7.98233362 15.34095407 5.94976039 0.00321239 0.00281732 -0.00205607
N 10.33665038 17.60009283 8.68625702 0.00389472 0.00336763 -0.00393584
N 11.90825652 14.13569356 5.85465250 0.00134760 -0.00193986 0.00301468
N 8.89794204 12.31352810 8.60525244 0.00320065 0.00120831 -0.00647991
N 7.77650053 15.45878646 10.35464377 0.00074967 -0.00653628 -0.00136043
N 10.34776608 17.59085920 13.45362754 0.00163193 0.00078586 0.00134290
N 11.31410003 14.48836229 10.65416092 -0.00024510 0.00105765 -0.00778433
N 8.79558586 12.02825151 13.19478385 0.00291629 0.00138062 -0.00049606
N 7.73353890 15.36247447 15.36239235 0.00149801 -0.00145143 -0.00214608
N 10.43012117 17.75602968 18.23380917 -0.00085824 -0.00140739 -0.00193672
N 11.65931158 14.32880734 15.43395810 -0.00076985 0.00424007 0.00286992
N 9.17537356 12.21947803 17.96955781 -0.00476117 0.00895963 -0.00474153
N 7.99037624 15.26497533 20.08987274 -0.00030440 -0.00015240 -0.00264823
N 10.23294084 17.47647802 22.60322662 -0.00100899 -0.00412554 -0.00292708
N 11.89042629 14.26184444 20.22127802 -0.00221039 -0.00083661 -0.00261615
N 9.27858035 12.28766062 22.73844264 -0.00105407 -0.00457688 -0.00309548
N 7.25871448 21.99967619 0.72902579 -0.00131127 0.00295763 0.00022792
N 9.32346640 23.83931064 3.81294895 0.00462931 0.00174248 -0.00241309
N 11.15101373 20.84551198 0.55130825 0.00601132 0.00278247 -0.00677217
N 8.42304968 18.56143251 3.91677304 0.00273712 -0.00673923 0.00173006
N 7.15575500 22.18743594 5.81399321 0.00203939 0.00314717 -0.00205802