2000
Time=29000.00000000 pbc="T T T" Lattice="31.21703600 0.00000000 0.00000000 0.00000000 30.02790202 0.00000000 0.00000000 0.00000000 23.65730330" energy=-12043.00681579 virial="-73.42630742 -16.68118131 -34.79912934 -16.68118131 -52.46131710 0.15475491 -34.79912934 0.15475491 -106.84633831" stress="-0.00131155 -0.00064583 -0.00157513 -0.00064583 -0.00021169 -0.00002025 -0.00157513 -0.00002025 -0.00198181" Properties=species:S:1:pos:R:3:vel:R:3
C 30.59149850 3.27662653 1.88252774 0.00070019 0.00010906 -0.00051217
C 2.34527035 0.30210909 2.97087438 0.00503558 -0.00343534 -0.00543796
C 30.60543114 3.65742204 6.41049462 -0.00101828 -0.00392668 0.00914187
C 2.67359177 0.54635187 7.68272668 0.00200753 -0.00239686 0.00942973
C 31.04127345 3.42182787 11.23325243 -0.00379525 0.00155799 0.00538235
C 2.63456214 0.69551148 12.40113991 0.00080947 0.00325013 -0.00001811
C 30.45497022 3.58545714 15.87967410 0.00636390 -0.00072127 -0.00536173
C 2.50737900 0.38473787 17.01701694 0.00243895 -0.00084613 0.00535547
C 30.56557721 3.41634924 20.61089772 -0.00520911 -0.00147045 0.00246516
C 2.35886303 0.49186486 21.90612077 -0.00652885 0.00033885 -0.00289029
C 31.11630015 9.37430256 1.69504634 -0.00376116 0.00238955 0.00462415
C 3.04649299 6.36128346 3.02408608 -0.00031234 -0.00320407 -0.00166860
C 31.01610737 9.26506905 6.59031128 -0.00262960 0.00116615 -0.00141579
C 3.02122165 6.19093260 7.83930713 -0.00286518 0.00092736 0.00093176
C 0.14313278 9.34699327 11.25043510 -0.00191948 0.00118413 -0.00415523
C 2.85137418 6.10623965 12.62119765 0.00250236 -0.00154913 0.00589808
C 31.09602128 9.13629334 15.93690483 -0.00931130 0.00189058 0.00116519
C 2.75852325 6.01907825 17.43325289 0.00058937 -0.00602027 -0.00612096
C 30.90839639 9.03616806 20.64647035 -0.00036952 0.00611872 0.00536938
C 3.01190916 6.17841270 21.93792961 -0.00180060 -0.00222430 -0.00478544
C 0.08090452 14.75624742 1.77684724 -0.01058239 0.00167394 -0.00119777
C 3.32054751 11.94037633 2.91297339 -0.00335832 0.00353172 -0.00145209
C 0.22511384 15.04434392 6.44178457 -0.00377560 -0.00004293 -0.00476855
C 3.34905081 12.24189496 7.55395695 0.00002720 0.00086356 -0.00336296
C 0.16818822 15.04854225 11.11443827 0.00494238 0.00441740 0.00371013
C 3.34273994 11.79405593 12.65712724 0.00275865 0.00188350 0.00200165
C 0.26265454 14.85985382 15.77551447 -0.00195323 0.00326255 -0.00709595
C 3.40079301 11.62165694 17.31172815 0.00529157 -0.00320815 -0.00208950
C 0.28705357 14.76681286 20.59094018 -0.00422107 0.00078100 -0.00192622
C 3.11123501 12.04113877 21.91616920 0.00254925 -0.00749265 0.00259082
C 0.81516618 20.52082399 1.60139536 0.00633717 0.00530477 -0.00379766
C 3.62389794 17.59231142 2.91591903 -0.00287296 -0.00122280 0.00179417
C 0.57264839 20.43926869 6.39038679 -0.00193131 0.00650408 -0.00929589
C 3.76264042 17.59407636 7.55104114 0.00221927 0.00305557 -0.00083075
C 0.57738085 20.58933200 11.16247474 -0.00227655 -0.00265751 0.00084593
C 3.64300557 17.50863999 12.36979801 0.00862349 0.00297975 0.00335521
C 0.45836430 20.63283252 15.85660989 0.00370902 -0.00228044 0.00713815
C 3.78132230 17.46354587 16.94564385 -0.00264609 -0.00598157 0.00136586
C 0.66352320 20.54309311 20.44509775 -0.00337453 -0.00014807 0.00233963
C 3.76524336 17.47581468 21.89206324 -0.00965061 0.00244469 -0.00129392
C 0.37136519 26.80674995 1.71287234 -0.00235666 -0.00347826 0.00363944
C 3.07698284 24.03303023 3.08291303 0.00600858 0.00032626 0.00093214
C 31.11273287 26.98134321 6.30770587 0.00184408 0.00364950 0.01198016
C 3.28797841 24.06677462 7.71301662 0.00168959 -0.00430990 -0.00745752
C 0.10012827 26.97668278 11.05701817 0.00162464 -0.00075918 0.00223045
C 3.19102489 23.96604755 12.26027678 0.00060818 -0.00048931 -0.00031579
C 0.17067432 26.96967380 15.97269030 0.00120162 0.00031061 0.00688705
C 3.22001071 24.07112125 17.10579854 0.00187456 -0.00111580 -0.00270839
C 0.10257799 26.74626847 20.69588320 -0.00237055 -0.00703412 -0.00328758
C 3.22978184 24.03900989 21.78375342 -0.00114313 -0.00487838 0.00001865
C 5.83176500 3.22718653 1.82307078 0.00225875 0.00051684 0.00252196
C 9.04284224 0.23115630 3.12166586 0.00513714 0.00506258 -0.00205189
C 5.97672517 3.13708019 6.65041445 0.00191731 -0.00010651 -0.00351395
C 9.27609256 0.24750692 7.73796942 -0.00342811 -0.00065177 0.00032362
C 6.43428956 3.30211147 11.42412863 0.00222979 -0.00417996 -0.00334317
C 9.22929246 0.11565218 12.38659745 0.00293868 0.00483978 -0.00081233
C 6.11358831 2.90726284 16.02106519 0.00156733 0.00105827 -0.00060144
C 8.99402780 0.00387460 17.21517383 0.00381700 -0.00214013 -0.00195472
C 6.01874599 3.18740938 20.66346817 -0.00013852 0.00085492 0.00988641
C 8.99612829 0.30355282 22.07733830 0.00549147 -0.00015315 0.00973455
C 6.45472750 8.95997655 1.80054321 0.00117204 0.00309031 0.00566535
C 9.52571190 5.70614369 3.07674531 -0.00475194 0.00557583 0.00131912
C 6.37168140 8.77105313 6.54175810 0.00057542 0.00022551 -0.00608263
C 9.66835309 5.97099087 7.78442011 -0.00437091 -0.00319138 0.00384544
C 6.40999796 8.70175395 11.22036652 -0.00896731 0.00079792 -0.00146248
C 9.68604276 5.65896779 12.41912274 0.00214902 0.00662778 0.00679518
C 6.46146285 8.69734556 16.09672550 0.00199025 0.00059803 -0.00319114
C 9.80585120 5.79079918 17.37250192 -0.00077667 -0.00596470 0.01259384
C 6.14731638 8.62373181 20.60104363 -0.00786127 -0.00151238 -0.00450023
C 9.38201442 5.93713116 22.05957807 -0.00559002 0.00039019 -0.00239719
C 6.97527892 14.27903309 1.66933289 0.00020971 0.00508966 -0.00134661
C 9.69711422 11.36509147 3.14960396 -0.00018891 -0.00403150 0.00048171
C 6.88925289 14.38227851 6.56324824 -0.00126354 -0.00036224 -0.00192468
C 9.85786484 11.60780666 7.85123551 0.00376895 -0.00226434 0.00168493
C 7.02658642 14.32150973 11.33256423 0.00173647 0.00130956 -0.00444446
C 10.16037578 11.54218218 12.53499454 -0.00043138 -0.00882980 -0.00148707
C 6.73636505 14.48525258 15.72414562 0.00221367 -0.00344014 -0.00453703
C 9.89544913 11.28302344 17.01419685 0.00557757 -0.00186444 -0.00355519
C 7.06052262 14.54748646 20.58981199 0.00296796 0.00145641 0.00490937
C 9.70414046 11.33902120 21.83672832 0.00985715 0.00188191 -0.00061778
C 6.28055472 21.06380592 1.69810181 -0.00112837 0.00369077 -0.00602589
C 9.36394706 18.20981737 3.02454938 -0.00051363 -0.00612307 -0.01270422
C 6.12234067 21.05543958 6.49097914 -0.00705694 0.00263108 -0.00014898
C 9.44993982 18.16948864 7.98880775 0.00665449 0.00159134 0.00154681
C 6.36720687 21.05136339 11.06908442 0.00575393 -0.00666153 0.00172222
C 9.58810011 18.11420700 12.52743081 0.00279681 -0.00539837 0.00281265
C 6.30304568 20.88499320 15.64712359 -0.00877476 -0.00353218 -0.00269924
C 9.61078529 17.84816984 17.14083745 -0.00430289 -0.00222491 0.00234871
C 6.09538077 21.02506552 20.56085528 0.00828798 -0.00060904 0.00135886
C 9.44423984 18.20481228 21.76880177 -0.00002727 0.00179693 -0.00150434
C 5.69065152 27.55187490 1.68695081 -0.00129258 -0.00484910 -0.00082053
C 8.93853759 24.65197003 2.92622142 -0.00001740 -0.00192767 -0.00453013
C 5.57121468 27.46513792 6.49102309 0.00530139 0.00324037 -0.00274668
C 8.98061679 24.62809616 7.79460960 -0.00210315 0.00233940 0.00488699
C 5.79045576 27.55216988 11.07167543 -0.00386264 -0.00792322 0.00205732
C 8.90074925 24.52447694 12.42396763 0.00664391 -0.00519367 0.00440095
C 5.78319763 27.52953738 15.72020856 0.00133634 -0.00514538 0.01262392
C 8.79795486 24.63030340 17.23481161 -0.00173823 0.00231328 0.00957625
C 5.70797285 27.70815155 20.69509814 0.00495914 0.00324985 -0.00805745
C 8.50439277 24.84210411 21.84476136 0.00757780 -0.00288955 0.00014048
C 12.75430687 2.84942866 1.71863451 0.00351270 -0.00886128 0.00217215
C 15.82614259 29.76251945 3.03412234 -0.00054874 0.00008971 -0.00049317
C 12.94087461 2.79829040 6.48059675 -0.00119655 -0.00397236 0.00626797
C 15.68644569 29.79037755 7.80220817 0.00323686 0.00344525 -0.00775449
C 12.74500835 2.93535513 11.34595135 -0.00327683 -0.00168665 0.00356293
C 15.86420918 29.77005837 12.41042431 -0.00203172 0.00848848 0.00262685
C 12.72127021 2.56764756 15.94597419 0.00728525 0.00021761 0.00717541
C 15.65856299 29.70239564 17.24045755 -0.00170166 0.00651223 0.00507539
C 12.34556118 2.78645868 20.82068775 -0.00124417 -0.00106462 -0.00950721
C 15.69854759 29.83189431 21.81258595 -0.00024355 0.00450668 -0.00260544
C 13.05105416 8.30667449 1.69978490 -0.00176546 0.00080167 -0.00763867
C 16.17159866 5.61723865 2.82583713 -0.00295760 -0.00135506 -0.00392211
C 12.97820391 8.23429106 6.51543898 -0.01160387 0.00393449 0.00241529
C 16.29116987 5.43218309 7.74445461 -0.00316937 0.00056053 -0.00005019
C 13.09776174 8.39360024 11.17246909 -0.00262575 0.00547875 0.00181742
C 16.12205731 5.40093094 12.60493279 0.00020041 0.00095076 0.00264861
C 13.07857661 8.42355846 15.99710651 -0.00035349 -0.00042119 -0.00290722
C 16.11120593 5.52471192 17.35466398 -0.00879671 -0.00025812 -0.01059289
C 12.87561544 8.54102018 20.62529005 -0.00209492 0.00110072 -0.00615969
C 16.00612968 5.49164356 21.95190243 -0.00684518 0.00455351 -0.00265676
C 12.45349408 15.10241828 1.74762123 0.00112755 -0.00103797 -0.00086086
C 15.29678138 11.92188434 3.06883820 0.00364249 -0.00012885 -0.00444968
C 12.42851520 15.15565253 6.67981612 -0.00556586 0.00434881 0.00498487
C 15.23355898 11.85350050 7.87358789 0.00614222 -0.00049826 -0.00396686
C 12.53608876 15.03025668 11.36714971 0.00122418 0.00200686 -0.00493543
C 15.58715123 11.98754103 12.63246416 0.00296009 -0.00372430 -0.00240026
C 12.35573566 15.22034882 15.99004527 0.00238274 -0.00886664 -0.00436501
C 15.39441501 11.72382897 17.15875806 -0.00573295 0.00680303 0.00436972
C 12.46819972 15.03110511 20.59749419 0.00525832 0.00319397 0.00347315
C 15.38996008 12.08743063 21.86623185 -0.00558110 -0.00592449 -0.00048151
C 11.68870447 21.59027117 1.77330591 0.00137328 0.00816399 0.00652024
C 14.92822406 18.36401136 3.09429027 -0.00454103 0.00174000 0.00486877
C 11.72567936 21.79501578 6.31322634 0.00375339 -0.00425427 -0.00340614
C 15.07230625 18.73780164 7.87147299 -0.00037416 -0.00209966 -0.00350379
C 12.22359766 21.48363383 11.06969396 -0.00792694 0.00125622 0.00216743
C 15.18774555 18.38850427 12.52590766 -0.00585689 -0.00004256 -0.00245931
C 12.08202854 21.69957577 16.01698555 -0.00413101 -0.00473057 -0.00216354
C 14.99454520 18.68056056 17.17165675 -0.00293356 0.00054117 0.00595325
C 11.81762626 21.89624173 20.81741591 -0.00065880 0.00080683 0.00163087
C 15.17939181 18.60590429 21.86872695 0.00165475 0.00158799 -0.00314627
C 12.29081879 27.45813607 1.65820576 -0.00466129 0.00865690 -0.00196614
C 15.30564248 23.98171833 2.84681312 -0.00483819 -0.00129201 0.00395817
C 12.42886757 27.17803016 6.49380508 -0.00187522 0.00638822 0.00325505
C 15.49788319 24.24656069 7.69428387 -0.00061826 -0.00375733 -0.00027408
C 12.25099466 27.36450502 11.22323946 0.00254575 -0.00225211 -0.00591415
C 15.41640306 24.17622202 12.55560437 0.00274698 0.00149582 0.00114316
C 12.21837094 27.13686176 15.77765318 -0.00108396 -0.00023176 -0.00148905
C 15.46437161 24.29265770 17.36010551 -0.00155391 -0.00313321 0.00216338
C 12.31489889 27.18407907 20.62768575 0.00065460 0.00545161 0.00680780
C 15.57422851 24.31010846 21.84037334 0.00008805 -0.00309153 0.00283182
C 19.54962322 2.15252423 1.84433944 0.00095053 0.00444278 -0.00447371
C 22.31078886 29.51312589 3.05756218 -0.00492585 -0.00314246 0.00158483
C 19.49942842 2.12885275 6.55797615 -0.00596999 0.00742569 0.00352353
C 22.53639073 29.38647871 7.85063365 -0.00237678 0.00635723 0.00530693
C 19.30007014 2.57225297 11.15694652 0.00101509 -0.00041071 -0.00537135
C 22.36478462 29.55859504 12.50836354 -0.00255925 0.00980917 0.00296258
C 19.49461949 2.56446504 15.96240519 0.00377063 0.00116760 -0.00653914
C 22.51849869 29.44415268 17.19562684 0.00005824 -0.00105783 0.00265930
C 19.35408806 2.40245084 20.60855654 0.00407518 0.00292036 -0.00103453
C 22.35448733 29.44221168 21.92266398 0.00614133 0.00060803 0.00553868
C 18.49462357 9.18101992 1.59079542 0.00608503 0.00910788 0.00353313
C 21.75474627 5.89211918 3.00286036 -0.00268215 -0.00210023 -0.00023824
C 18.60163129 8.91734987 6.46840494 0.00207688 0.00016254 -0.00270457
C 21.92900008 5.91089953 7.63681295 0.00473815 -0.00196259 0.00080829
C 18.84728671 9.08381951 11.09251048 0.00231053 0.00231517 0.00071844
C 21.53144018 6.05662782 12.25278005 -0.00090509 0.00205812 -0.00167249
C 18.79971202 9.17952178 15.94717863 -0.00507877 -0.00336526 0.00394137
C 21.71521538 6.20831171 17.07311028 0.00441290 0.00439128 0.00013895
C 18.72129726 8.94191151 20.55993602 0.00077518 -0.00216664 0.00477211
C 21.53102671 5.96213638 21.90758130 -0.00401853 0.00074608 -0.00254268
C 18.00095801 15.62837105 1.75157153 0.00382739 -0.00069504 -0.00125884
C 21.21374501 12.40396182 3.07553861 0.00058947 -0.00416649 -0.00577547
C 18.01845577 15.58779272 6.47597434 -0.00897827 0.00108848 -0.00023025
C 21.17741349 12.57601676 7.75973451 -0.00029057 -0.00479487 -0.00241757
C 18.12219893 15.27245162 11.22680248 -0.00717905 -0.00631257 0.00356867
C 21.66094104 12.75666331 12.60497438 0.00100486 0.00347544 0.00304178
C 18.13403945 15.75239649 15.78045718 -0.00239870 0.00453626 -0.00014141
C 21.12038645 12.56314866 17.20679325 0.00778921 -0.00246750 -0.00254617
C 18.11655165 15.37996242 20.58115263 0.00232962 -0.00421839 -0.00550699
C 21.13651532 12.24026062 22.01177098 0.00418766 0.00180719 -0.00009004
C 18.63959272 21.28397331 1.60259871 0.00608564 -0.00127951 0.00002408
C 21.35715630 17.81393642 2.93171753 0.00010849 -0.00225308 0.00394986
C 18.44286807 21.24452006 6.37813880 -0.00445353 0.00152353 0.00398410
C 21.53167978 18.00793556 7.83718734 -0.00658085 -0.00028038 -0.00587783
C 18.43591230 20.81969222 11.17305847 0.00230905 -0.00018215 0.00608123
C 21.82465339 17.88215190 12.34401593 -0.00696775 -0.00349560 0.00217863
C 18.61444401 21.32882812 15.75871444 -0.00287624 -0.00747212 -0.00121926
C 21.49639270 18.36016217 17.09186643 0.00430392 0.00235682 -0.00127972
C 18.51415425 21.29354037 20.49960548 0.00218924 -0.00271165 0.00365800
C 21.69310500 18.32902241 21.91718416 -0.00344344 0.00133173 -0.00033853
C 18.81972080 26.73053983 1.51863085 -0.00234251 0.00323860 -0.00031965
C 22.17038024 24.02346048 2.95443535 -0.00049438 0.00305591 -0.00345266
C 18.88676692 26.82705443 6.36898454 0.00229456 0.00127643 0.00343987
C 22.04069262 23.95454537 7.76677010 0.00002469 -0.00085590 -0.00395792
C 18.88593792 26.71611554 10.97571750 -0.00233048 -0.00378344 0.00369774
C 22.13097673 24.00122240 12.50083280 -0.00456499 -0.00459289 -0.00109772
C 18.92317005 26.75659822 15.80601680 0.00485018 0.00260434 0.00022619
C 22.03502635 24.01061382 17.21699659 -0.00100835 0.00282227 -0.00542053
C 18.83867431 27.12041568 20.53335682 -0.00055615 0.00231155 -0.00011790
C 22.08306049 23.85794374 22.05053959 -0.00217609 -0.00512194 -0.00357853
C 24.98830295 3.19015787 1.73537334 0.00303481 0.00732013 -0.00179524
C 28.02737055 29.89227087 3.06700655 0.00113284 0.00362043 0.00372952
C 25.08259658 3.11280242 6.52223886 0.00026593 -0.00136104 0.00191100
C 28.22885631 0.11243077 7.95279954 -0.00026177 -0.00235005 0.00195113
C 25.21551335 3.33132976 11.14726255 0.00621403 -0.00068423 0.00678265
C 28.08100242 29.98384221 12.50096140 -0.00096950 0.00073149 0.01025392
C 24.92986119 3.00453475 15.94014343 -0.00704271 -0.00278013 -0.00022192
C 28.03544628 29.88030612 17.10549628 0.00505013 0.00424302 -0.00474880
C 24.80669694 2.96721419 20.54562010 0.00102640 0.00257506 0.00527380
C 28.09748173 30.01906170 21.94349947 0.00183663 0.01084517 -0.00344659
C 24.32369973 9.70263561 1.76445080 0.00270767 -0.00241445 -0.00507999
C 27.47006764 6.59724996 3.14404931 0.00291586 0.00001685 0.00245004
C 24.29826954 9.60381102 6.44995242 -0.00344185 -0.00242493 0.00721464
C 27.68057962 6.50994258 7.79673175 0.00532555 0.00830303 0.00256386
C 24.44501981 9.81141078 11.27848977 0.00094453 0.00159389 0.00143633
C 27.67388555 6.63511078 12.61083585 -0.00530695 0.00119027 0.00996413
C 24.30304812 9.54462308 16.09305800 -0.00374564 -0.00268620 -0.00399238
C 27.56260008 6.18089681 17.19592874 -0.00562007 -0.00905526 0.00432457
C 24.34095010 9.44422965 20.60607730 0.00514928 -0.00329603 -0.00821663
C 27.73385886 6.57225605 22.06164689 0.00278389 0.00334581 0.00411857
C 24.66249932 15.27115363 1.58521871 -0.00107521 -0.00275459 0.00229453
C 27.82225180 12.22392618 3.10887532 -0.00081811 0.00685735 -0.00542071
C 24.79412656 15.08254426 6.51591877 0.00225476 0.00404316 0.00088418
C 28.09139184 12.44475712 7.81474623 0.00472502 -0.00250842 0.00147819
C 25.09605977 15.34986862 11.25909454 -0.00045095 -0.00920676 -0.00269374
C 28.01661418 12.07235275 12.80660381 -0.00270066 -0.00092970 0.00506089
C 24.72640074 15.61933044 15.81853559 0.00273596 0.00057221 0.00016206
C 28.00820477 12.18989274 17.30955581 0.00250647 0.00453432 0.00353922
C 24.81722332 15.12034337 20.51210085 -0.00323078 -0.00617201 -0.00515103
C 27.83431341 12.31167806 22.01929675 0.00413261 0.00058126 0.00452122
C 25.07133468 20.75868102 1.64332904 -0.00353050 -0.00071910 0.00095014
C 28.14037895 17.97364450 3.01157980 0.00112377 -0.00910393 0.00525655
C 24.75337386 20.55876728 6.66267281 -0.00009899 -0.00007991 -0.00934590
C 28.26406876 18.01807245 7.63770014 0.00721346 0.00564800 0.00243469
C 25.03586252 20.64414583 11.22523798 0.00219254 0.00193827 -0.00079653
C 28.18047308 18.03206441 12.28297438 -0.00298769 0.00844973 -0.00834420
C 24.97106630 21.06125482 15.96634509 0.00320151 -0.00074064 -0.00185151
C 28.18047754 18.01238440 17.14900078 0.00343862 0.00346167 0.00690186
C 25.14587509 20.68043055 20.59204318 -0.00507887 0.00287824 0.00406472
C 28.21017921 17.78418122 21.98165752 0.00442195 -0.00412775 0.00528832
C 25.29414271 26.78246216 1.56167949 -0.00186403 -0.00022941 -0.00207907
C 28.59190123 23.35845361 3.04192615 0.00095205 -0.00051668 -0.00033486
C 25.88270942 26.25200653 6.36160012 0.00645158 -0.00148041 -0.00438227
C 28.78077954 23.58252088 7.70632563 -0.00150990 -0.00109117 -0.00377778
C 25.47935351 26.60466810 11.08827945 0.00300041 0.00498189 -0.00185858
C 28.71629032 23.68460895 12.34471980 -0.00187347 -0.00466207 -0.00002881
C 25.53018797 26.52589615 15.96769899 0.00523707 -0.00278275 0.00068204
C 28.55514391 23.33912071 17.18844696 0.00141716 0.00429513 0.00235197
C 25.78234988 26.52379766 20.68487456 -0.00137559 -0.00083960 -0.00080855
C 28.59769335 23.40496791 21.99576931 0.00284506 0.00139282 -0.00086299
N 0.05845817 4.19968298 1.22842061 0.00410230 -0.00323343 -0.00216717
N 3.67955851 5.37685792 3.72147741 -0.00116445 -0.00094080 0.00043707
N 5.07241372 2.36493790 1.01884979 -0.00006057 0.00154514 -0.00210622
N 1.57161062 1.03136821 3.74744801 -0.00215579 -0.00595159 -0.00399481
N 0.24809373 4.35971537 5.65880675 0.00123534 -0.00250228 0.00013152
N 3.60335901 5.14738484 8.52773395 0.00148947 -0.00202028 -0.00052100
N 5.16206679 2.34175847 5.90651812 -0.00003571 0.00268116 -0.00334339
N 1.59179325 1.07943030 8.28000236 -0.00046339 0.00020024 0.00017142
N 0.35123184 4.44220298 10.45227698 -0.00116430 -0.00280933 -0.00497455
N 3.58091252 5.20000130 13.34426150 0.00302045 0.00264364 -0.00241723
N 5.76456778 2.25868814 10.87153933 -0.00167619 0.00099170 -0.00509145
N 1.70137839 1.14731592 13.29369317 0.00213170 -0.00175778 0.00011808
N 0.22135188 4.26227618 15.24741989 -0.00011846 0.00009475 -0.00021065
N 3.29673903 4.94999964 18.09827499 0.00254273 -0.00155036 -0.00406113
N 5.33141506 2.17392662 15.19681362 0.00534557 -0.00292985 -0.00738582
N 1.89476547 1.29801664 17.84987279 -0.00203316 0.00105036 -0.00743871
N 0.20841405 4.27722945 20.04411062 0.00437039 0.00144880 0.00001300
N 3.51079154 5.24522896 22.80176727 0.00127119 -0.00461100 0.00055103
N 5.28464762 2.30591220 19.97473981 0.00790385 0.00181733 0.00114036
N 1.55400455 1.12182137 22.72278719 0.00227069 0.00510916 -0.00071741
N 0.68848568 10.19718827 0.95492206 0.00308365 -0.00372892 0.00393942
N 3.79067166 10.97059398 3.75759315 -0.00136902 0.00552128 0.00131710
N 5.55112015 8.24554723 1.10205624 -0.00365927 -0.00439165 -0.00164727
N 2.38789036 7.26509558 3.83037645 -0.00336998 -0.00408326 0.00480153
N 0.49462457 10.26908037 5.98056992 -0.00227502 -0.00159631 -0.01111969
N 4.10177561 11.34869716 8.19780477 0.00128222 -0.00005875 -0.00627308
N 5.62581186 7.99442321 5.72371536 -0.00067667 0.00082986 0.00740366
N 2.58680791 7.23970583 8.55083940 0.00069632 -0.00041059 0.00614689
N 0.76103306 10.25277338 10.50420735 0.00004577 0.00133990 0.00313725
N 3.93757870 10.84400111 13.36839259 -0.00163977 -0.00011618 0.00049139
N 5.55869926 7.99138706 10.44703279 0.00911974 0.00641463 -0.00176949
N 2.19392492 7.13812539 13.29574545 0.00077024 -0.00254003 0.00010830
N 0.53380797 10.13680159 15.26929972 -0.00543097 -0.00207873 0.00151841
N 4.05605421 10.82889621 18.23317344 -0.00152651 -0.00017271 -0.00126314
N 5.62598956 7.85792309 15.44028244 0.00180337 -0.00262989 0.00632633
N 2.25950642 7.03673933 18.19096216 -0.00521820 0.00335850 -0.00089325
N 0.24118132 10.02570660 19.93298476 0.00310845 0.00363723 -0.00090091
N 3.66341010 10.94308440 22.42115753 0.00245683 0.00426819 -0.00000553
N 5.60909774 7.70611606 19.87744681 0.00179304 -0.00560851 0.00160505
N 2.23928844 7.04610425 22.60220461 0.00474808 -0.00067511 0.00213508
N 0.86336255 15.54786543 1.05092631 -0.00128271 0.00361177 0.00504160
N 4.52765889 16.89013273 3.56269390 -0.00382389 -0.00519583 -0.00074871
N 6.07683425 13.43773943 1.08679796 0.00104607 -0.00413086 -0.00160152
N 2.88313725 13.08295288 3.49898523 0.00621530 -0.00291267 0.00446410
N 1.09419198 15.73458860 5.64139418 0.00069958 0.00049582 0.00154056
N 4.62240568 16.82869731 8.25645359 0.00510490 0.00504588 -0.00370579
N 6.08907051 13.60623953 5.70753411 0.00100378 0.00393743 0.00382911
N 2.55863323 12.97036389 8.41509610 -0.00198517 -0.00017073 0.00199598
N 0.81527689 15.89032408 10.28345077 -0.00208414 -0.00022847 0.00383652
N 4.48753212 16.68731490 13.04975872 0.00359878 0.00173730 0.00258847
N 6.15979952 13.62043891 10.52229940 -0.00143257 0.00494868 0.00351149
N 2.67191213 12.69404325 13.43524533 0.00122179 0.00567929 -0.00247972
N 0.92090079 15.79866819 14.99470961 0.00119336 -0.00449876 0.00320424
N 4.51247672 16.54194822 17.58865938 0.00563478 -0.00320912 0.00213452
N 6.00196978 13.55716919 15.06497405 -0.00212668 0.00105362 0.00389837
N 2.79694900 12.65068881 17.86935300 -0.00247877 0.00278487 0.00309398
N 1.03032015 15.56627069 19.78616492 0.00657529 0.00580282 -0.00331756
N 4.54007394 16.65153038 22.66893817 -0.00052273 -0.00188895 -0.00053660
N 6.25080175 13.65315812 20.00210066 -0.00343634 -0.00404804 0.00044020
N 2.78290829 13.02052755 22.84375348 -0.00017634 0.00020268 -0.00751982
N 1.65593578 21.24847834 0.84754334 0.00211697 -0.00015995 -0.00345696
N 4.02775380 23.35472994 3.83586316 -0.00003287 -0.00133185 0.00441743
N 5.56213448 20.15721030 1.04592459 -0.00972208 -0.00325347 -0.00169785
N 2.83287289 18.36738544 3.72987215 0.00411178 0.00039571 0.00136481
N 1.22582631 21.32605480 5.57051928 0.00121654 -0.00094851 0.01265077
N 4.26397719 23.46623529 8.49173264 0.00212019 0.00293933 -0.00277898
N 5.39674797 20.03463180 5.91263627 -0.00022782 -0.00027857 0.00212357
N 2.89305132 18.33670141 8.28376219 -0.00073292 -0.00264350 -0.00245343
N 1.51110431 21.26390271 10.46053209 0.00465928 0.00011336 -0.00798706
N 4.32218815 23.45703709 12.94207159 0.00282705 -0.00180167 -0.00378507
N 5.42226130 20.36775088 10.38858615 0.00073080 -0.00081339 -0.00323101
N 2.71212496 18.18113907 13.08030337 0.00285677 -0.00056847 -0.00077061
N 1.44868050 21.39880203 15.30666492 -0.00666383 0.00270144 -0.00530790
N 4.22258998 23.55860093 17.89378494 -0.00361167 -0.00367706 -0.00017938
N 5.52604742 20.16643422 14.86615272 0.00087089 -0.00353166 0.00171381
N 2.77491750 17.98954346 17.64403209 0.00191520 0.00249118 0.00310467
N 1.49717560 21.27948713 19.69978225 0.00490083 0.00166968 0.00356467
N 4.41064602 23.54557353 22.35871236 -0.00402403 -0.00199296 0.00307732
N 5.40422080 20.12954905 19.85123898 0.00299924 -0.00430689 0.00047675
N 2.89070806 18.29614257 22.51885987 0.00394176 -0.00468591 0.00309104
N 0.99432320 27.68252213 0.95082770 -0.00142164 -0.00839577 0.00683833
N 3.26916989 29.55825720 3.67453019 0.00296821 -0.00085326 0.00485116
N 4.98883948 26.60381627 0.92651576 0.00384554 -0.00007684 0.00256179
N 2.03827547 24.64443979 3.66476304 0.00007602 -0.01080293 -0.00076502
N 0.82494730 27.94380493 5.84148626 -0.00886814 0.00544008 0.00571112
N 3.54161880 29.90892091 8.47318085 -0.00766733 0.00245607 0.00304808
N 4.69286988 26.79907767 5.72844842 0.00505252 0.00304383 -0.00322004
N 2.30881639 24.74456358 8.42971087 -0.00566484 -0.00664980 0.00173021
N 0.92105636 27.74188707 10.25225386 0.00529660 0.00630692 -0.01214633
N 3.55689289 29.78816462 12.89238123 0.00223723 -0.00315823 -0.00081563
N 4.87017741 26.87742578 10.35864866 0.00486972 -0.00073422 -0.00232386
N 2.26728844 24.35617083 13.18315030 -0.00606459 -0.00194274 0.00140616
N 1.21339890 27.68127496 15.43792356 0.00873416 -0.00070421 -0.00219512
N 3.24696713 29.40718951 17.65530861 0.00178885 0.00819306 -0.00834391
N 4.89581384 26.70929723 15.18411728 -0.00214558 0.00182328 0.00040217
N 2.20083479 24.52751941 17.82319380 -0.00350014 -0.00070915 0.00128740
N 0.91529465 27.50562056 19.93708994 -0.00371082 -0.00529438 -0.00270689
N 3.25728616 29.65357756 22.51341771 -0.00258071 0.00113344 0.00322429
N 4.90378322 26.83393607 20.01534913 0.00428742 0.00053089 -0.00510388
N 2.27569093 24.54093393 22.60818614 0.00037325 -0.00471619 0.00713551
N 6.61974424 4.13770057 1.27420647 0.00306761 -0.00089292 -0.00138229
N 9.98056196 4.81454406 4.02119559 0.00787260 -0.00154562 0.00562086
N 11.89705097 2.04922703 1.04383717 -0.00666474 -0.00180682 0.01101358
N 8.35571814 1.07652993 3.89352099 -0.00219613 0.00800832 0.00265301
N 6.68979054 4.05413489 6.05279409 0.00138249 -0.00322760 -0.00095159
N 10.24053212 5.03051136 8.53204399 0.00432734 -0.00491834 -0.00091734
N 11.94918070 2.09819766 5.82809181 -0.00346035 -0.00081969 -0.00179044
N 8.77301540 1.21888883 8.48651066 -0.00289750 0.00169759 -0.00243723
N 6.90616842 4.14030929 10.49653119 -0.00192717 0.00128850 0.00582805
N 10.47501651 4.77290743 13.14076878 0.00810882 0.00070565 0.00901713
N 12.16390957 2.05743046 10.51073743 -0.00257522 -0.00385371 0.00031501
N 8.53644406 1.10244828 12.99319335 -0.00446465 0.00107797 -0.00152788
N 6.95495346 3.75448334 15.37669062 0.00108615 -0.00078048 -0.00411912
N 10.26625501 4.77287669 18.11483827 -0.00341572 -0.00222369 -0.00200196
N 11.88174518 2.00703690 15.07125105 -0.00071456 -0.00439893 -0.00238392
N 8.51678135 0.98399767 18.01337236 -0.00212993 0.00044820 -0.00417845
N 6.81384961 4.00728070 19.95040792 0.00180267 -0.00525456 0.00018722
N 9.97160777 4.89145499 22.77196212 0.00130472 -0.00188795 -0.00392079
N 11.88349528 1.67825761 20.07437852 -0.00064333 -0.00356246 -0.00269825
N 8.31435094 1.11621893 22.93811965 0.00269129 0.00263746 0.00622631
N 7.38744552 9.73376527 1.12052639 0.00895669 -0.00263009 0.00457530
N 10.49455876 10.50521161 3.88094110 0.00011131 -0.00124291 0.00725149
N 12.11512311 7.48032896 1.19157036 0.00381606 0.00380249 0.00122767
N 9.10998276 6.93100949 3.53712480 0.00105004 -0.00086939 0.00468981
N 7.08478707 9.72888246 5.88833198 0.00074745 0.00275833 -0.00104754
N 10.51885273 10.67950909 8.64639641 -0.00110755 0.00087050 0.00083160
N 12.13513299 7.46345631 5.80204062 0.00291015 -0.00920355 0.00392511
N 8.82613354 6.91576984 8.36666740 -0.00027249 -0.00389435 -0.00115880
N 7.15782874 9.58124633 10.56430326 -0.00064472 0.00071223 -0.00340137
N 11.11787890 10.83542895 13.17324459 -0.00442854 0.00104184 0.00133466
N 12.21945890 7.67059226 10.47010226 -0.00621981 -0.00716863 -0.00056171
N 8.88606090 6.48463964 13.15972708 0.00139845 -0.00174817 -0.00532118
N 7.09541329 9.53578659 15.19253411 0.00307904 0.00243902 0.00233318
N 10.75493213 10.58941221 17.87399875 -0.00041096 0.01084297 -0.00145341
N 12.28033893 7.50229680 15.34445380 0.00170947 -0.00138528 0.00338015
N 9.24742978 6.77725800 18.05123465 0.00670500 0.00326016 0.00133026
N 6.77799558 9.70003579 19.92194663 0.00214294 -0.00202983 0.00540391
N 10.76164731 10.75019593 22.51266278 -0.00367339 -0.00677870 -0.00191123
N 12.15630743 7.59188245 19.97778299 -0.00272642 0.00131186 0.00065422
N 8.86826262 6.97978893 22.78738912 -0.00568137 -0.00017256 0.00227240
N 7.52893624 15.17330625 0.85314035 -0.00287857 -0.00162560 0.00140446
N 10.27723758 17.50109474 3.80657533 0.00081321 0.00183245 0.00226745
N 11.47676462 14.33097280 1.16181336 -0.00408044 0.00079908 0.00173733
N 8.94527857 12.20652771 3.89306213 -0.00177962 0.00206098 -0.00065842
N 7.76681161 15.23349900 5.93994966 -0.00096140 -0.00380062 -0.00082990
N 10.44507283 17.39926120 8.50861398 0.00250578 -0.00196138 0.00013702
N 11.70075330 14.41712810 5.87032305 -0.00001960 -0.00052276 -0.00661013
N 8.98108633 12.45746254 8.43994593 -0.00464199 0.00506682 -0.00590797
N 7.65134387 15.39037299 10.76127892 -0.00126168 -0.00262081 -0.00234676
N 10.50768767 17.49491232 13.22122636 -0.00146213 0.00457812 -0.00257617
N 11.61062775 14.32206913 10.70701292 -0.00614481 0.00431288 -0.00014366
N 9.24346443 12.11345409 13.34629948 -0.00087293 0.00662573 0.00418916
N 7.54604557 15.25635256 14.92567984 0.00466136 -0.00294879 -0.00581921
N 10.62828201 17.40734191 17.98836882 -0.00047532 0.00786504 -0.00331872
N 11.48515532 14.48641380 15.31485666 0.00346160 0.00020382 -0.00715091
N 9.07210955 12.21496313 17.66147501 0.00324538 0.00334123 0.00466516
N 7.93957572 15.24437290 19.82580163 0.00518448 -0.00690794 0.00014816
N 10.42301819 17.69290360 22.57390971 0.00506062 -0.00149612 0.00211776
N 11.71264821 14.16907161 19.89004859 0.00077873 0.00144810 0.00397481
N 8.76214328 12.12038648 22.54004107 0.00108858 0.00080961 0.00203842
N 6.93180708 21.96990034 0.85874561 0.00097590 0.00322738 -0.00006174
N 9.72509743 23.83393419 3.64707918 -0.00181173 0.00023004 0.00205853
N 10.93624252 20.83205224 0.92250584 -0.00131712 -0.00408031 -0.00228055
N 8.27877913 18.61137640 3.74101176 -0.00029832 -0.00047290 0.00054887
N 7.08332422 21.74373681 5.78160499 0.00192964 0.00204921 -0.00248494