2000
Time=85000.00000007 pbc="T T T" Lattice="31.03618470 0.00000000 0.00000000 0.00000000 30.25124141 0.00000000 0.00000000 0.00000000 23.75752087" energy=-12042.30791390 virial="-77.42790699 -12.79992121 12.46068194 -12.79992121 -52.95625806 22.13042735 12.46068194 22.13042735 -121.40043064" stress="-0.00129607 -0.00054352 0.00044191 -0.00054352 -0.00019043 0.00095261 0.00044191 0.00095261 -0.00273294" Properties=species:S:1:pos:R:3:vel:R:3
C 30.16636542 3.63459398 1.58231877 -0.00551509 -0.00498727 0.00480127
C 2.36168301 0.44758999 2.98840195 -0.00022340 -0.00218735 -0.01140368
C 30.52352195 3.90705075 6.27688247 0.00208825 -0.00614264 -0.00240980
C 2.63971318 0.75888898 7.72812179 -0.00478960 -0.00261309 0.00483305
C 30.48070222 3.49019510 11.20074705 -0.00220689 0.00025303 0.00056584
C 2.39847597 0.43904748 12.53311846 -0.00012651 0.00686154 -0.00371369
C 30.43910131 3.67168784 15.87807528 0.00830010 -0.00459901 0.00339144
C 2.54627169 0.56944040 17.26363187 -0.00648344 0.00434085 -0.00784455
C 30.41372014 3.55555083 20.77096783 -0.00983035 -0.00413862 0.00187574
C 2.51988152 0.59743644 22.17720030 0.00435455 -0.00018895 -0.00472123
C 30.72797286 9.36759171 1.67845620 0.00471640 0.00134837 -0.00170778
C 2.87691721 6.43295937 3.08822427 0.00124293 0.00676021 -0.00097845
C 30.88428827 9.29622144 6.35119081 0.00014321 -0.01130854 0.00375715
C 3.16969203 6.31142564 7.68809410 -0.00176753 -0.00726674 -0.00485266
C 0.00915837 9.31038624 11.08372066 -0.00222377 0.00261074 0.00222808
C 2.75439628 6.22520036 12.36438503 0.00023855 -0.00205471 -0.00212030
C 30.92356827 9.27558288 15.84150083 -0.00442915 -0.00161101 0.00267827
C 2.72956441 6.38177593 17.40440666 0.00154462 -0.00711395 -0.00104484
C 30.90100191 9.37527460 20.74606224 -0.00135195 -0.00062993 -0.00068391
C 2.75378381 6.11933916 22.05582793 -0.00151935 0.00104544 0.00088204
C 0.09318040 15.09612574 1.57618708 0.00262072 -0.00095015 -0.00339448
C 3.46519186 11.85782421 2.98775710 0.00099304 -0.00151676 0.00316464
C 0.38641453 14.87865302 6.22382244 -0.00967312 -0.00343966 -0.00000767
C 3.57961259 12.00738042 7.63309140 -0.00013606 0.00114402 0.00383343
C 0.08761525 14.59331420 11.23669291 -0.00195360 -0.00030310 -0.00300581
C 3.49030075 12.21819352 12.39101943 -0.00210838 -0.00444961 -0.00117578
C 0.19156155 15.05268426 15.81802189 0.00376735 -0.00075346 0.00015012
C 3.15452996 12.10624303 17.16993835 0.00046898 -0.00294968 0.00188308
C 0.35394840 15.18896358 20.65383186 0.00207905 0.00316798 0.00052916
C 3.34050647 11.90190561 22.04636187 -0.00193719 0.00342757 0.00410305
C 0.53508267 20.85782002 1.75456261 -0.00173962 0.00514761 -0.00521453
C 3.60448865 17.55235679 2.83412209 0.00080752 0.00483495 0.00033436
C 0.56423002 20.36421086 6.39586506 -0.00372026 -0.00195361 -0.00088491
C 3.93568641 17.52154222 7.66588915 0.00869030 -0.00488291 -0.00003572
C 0.26318923 20.38681383 11.19177448 -0.00264683 0.00162231 0.00552700
C 3.93847597 17.65788240 12.54631237 0.00169199 0.00314196 0.00075358
C 0.79314424 20.35603481 15.81143971 -0.00145962 -0.00015727 0.00692733
C 3.80536422 17.50420295 17.17101459 0.00208559 0.01413438 -0.00134733
C 0.60461940 20.74616757 20.86879556 0.00449332 -0.00468867 -0.00296620
C 3.67731107 17.79365515 21.86839139 0.00077101 0.00268287 0.00889763
C 30.86635875 27.19693983 1.89784867 -0.00252196 0.00369942 -0.00313945
C 3.04664428 24.21603949 3.06891608 0.00113865 -0.00217220 0.00468629
C 0.13434224 27.28660273 6.43223312 -0.00369345 -0.00432027 -0.00975593
C 3.19548058 23.89260648 7.84098568 0.00526474 -0.00440056 -0.00304063
C 0.28536143 27.29620168 11.20472873 0.00421468 -0.00871237 0.00674904
C 3.04560737 23.97818251 12.55169374 0.00055476 0.00676893 -0.00107940
C 0.37299581 27.35624686 15.95272054 0.00335953 0.00063882 0.00106276
C 3.31249834 24.12924150 17.27013447 0.00255900 -0.00242202 0.00146860
C 30.70937120 27.16755817 20.66357213 0.00360686 -0.00109648 0.00262319
C 2.75054514 24.28469600 21.95936186 0.00026849 0.00157876 -0.00172484
C 5.88030645 3.20243653 1.51870405 0.00060636 0.00132271 -0.00134331
C 9.27650581 0.23955393 3.16604216 0.00133572 -0.00260713 -0.00535223
C 6.07644635 3.17013557 6.38968909 0.00207004 -0.00146876 0.00264660
C 9.08228340 0.34768605 7.80318645 -0.00188911 -0.00730696 -0.00450913
C 6.05781533 3.27632055 11.27473321 -0.00739210 -0.00013866 -0.00221542
C 9.04484741 0.59941913 12.53320102 0.00123839 0.00138750 0.00327601
C 5.96805196 3.40409510 16.06309930 -0.00670928 0.00441189 0.00291800
C 9.12541977 0.47036058 17.19120177 0.00323950 -0.00115442 -0.00178397
C 5.96340453 3.04034702 20.62215266 0.00155423 0.00006946 0.00240139
C 9.09361418 0.17209139 22.08518807 -0.00204158 -0.00157805 -0.00447828
C 6.42637006 8.73932758 1.69477152 -0.00161674 -0.00123406 0.00046566
C 9.60607274 5.59690983 2.99933986 0.00298678 -0.00326126 0.00096162
C 6.52921270 8.73517616 6.30555108 0.00211964 -0.00219744 0.00309809
C 9.37164843 5.62678233 7.79677985 -0.00004493 0.00344978 0.00079674
C 6.38508079 8.72501518 10.96470285 0.00614018 -0.00031547 0.00719706
C 9.43570185 6.00632245 12.56307391 0.00505721 -0.00444903 -0.00440588
C 6.22237776 8.94035242 15.99855976 0.00713166 0.00093488 -0.00316061
C 9.42886817 5.77528857 17.35324656 -0.00445812 0.00430646 -0.00296199
C 6.41648684 8.66415328 20.87289942 0.00057556 0.00123432 -0.00085294
C 9.59365942 5.98760666 22.12192571 0.00128563 0.00049063 -0.00160765
C 6.77658068 14.38430828 1.68567950 0.00242208 0.00126447 -0.00563183
C 9.90858051 11.29792409 3.11191519 0.00688932 -0.00054885 0.00497298
C 7.00562694 14.43979699 6.46584548 -0.00385014 -0.00524488 -0.00004626
C 9.94404599 11.64637452 7.79646319 -0.00063946 0.00093292 0.00107198
C 6.90231907 14.50058429 11.37745615 -0.00533822 -0.00932997 0.00031145
C 9.93082134 11.45908975 12.45906550 -0.00197131 -0.00081198 0.00139180
C 6.86521056 14.43270780 15.92801743 -0.00081836 -0.00206583 0.00296505
C 9.71403966 11.51109752 17.29109349 -0.00087785 0.00153917 0.00467236
C 6.74591713 14.40196243 20.68384702 -0.00191989 -0.01049433 -0.00145836
C 9.87765282 11.42543195 21.87085286 0.00267890 -0.00212113 -0.00232047
C 6.06836986 21.02228375 1.74044523 0.00995081 -0.00223123 0.00741359
C 9.21573229 18.04317908 3.09811400 0.00445461 0.00238303 -0.00472216
C 5.99207883 21.10402000 6.39220146 -0.00275226 0.00107698 -0.00331157
C 9.65328691 18.17056667 7.76200531 -0.00201848 0.00279693 -0.00447446
C 6.40095648 21.16267072 11.09672308 -0.00525280 0.00475902 0.00206400
C 9.58951057 18.09620029 12.72560688 -0.00183087 0.00625918 0.00283120
C 6.36820064 21.20854246 16.07439640 0.00784011 -0.00273929 -0.00126257
C 9.45026392 17.99861138 17.30010310 0.00170252 0.00809864 -0.00060484
C 6.15521882 21.32345415 20.74725219 0.00175255 0.00432706 0.00176665
C 9.28990748 18.25699400 21.99394612 0.00563530 0.00058457 -0.00043772
C 5.34960388 27.92220086 1.61293924 -0.00082561 -0.01025755 -0.00388394
C 8.66089487 24.62263340 3.03825808 0.00295470 0.00001087 0.00458236
C 5.42646406 27.54969154 6.35370628 0.00339020 -0.00207600 0.00582140
C 8.90882615 24.64364884 7.78692019 0.00546866 -0.00979280 0.00016452
C 5.41920358 27.69106532 11.01897657 0.00397885 0.00971739 -0.00284365
C 8.92334976 24.72174186 12.61735554 0.00311403 0.00144801 -0.00475682
C 5.73626843 27.99942876 15.95942724 -0.00314442 0.00042763 -0.00528553
C 8.81627633 25.03795615 17.29541055 -0.01035204 -0.00013638 0.00400389
C 5.68883805 28.06209777 20.72940344 -0.00351035 -0.00818582 -0.00722600
C 8.71952805 24.77423013 22.01548216 0.00665465 -0.00478576 -0.00035368
C 12.76093440 2.73111262 1.69658088 -0.00099656 0.00008516 -0.00577886
C 15.44147600 29.85049954 3.06314363 -0.00507672 -0.00353050 -0.00381727
C 12.98152393 2.53013567 6.61188762 0.00413680 -0.00277286 0.00583736
C 15.76884678 29.82422860 7.88921685 0.00501545 0.00073230 0.00207243
C 12.64904673 3.05149369 11.39477106 0.00187857 0.00418044 0.00086977
C 15.81360040 0.06569148 12.56353882 -0.00099962 -0.00755281 0.00079717
C 12.59342821 2.85680105 16.01382160 0.00577225 0.00386950 -0.00453471
C 15.82684396 0.06923864 17.35822021 -0.00384779 -0.00243879 -0.00072584
C 12.34104025 2.82567354 20.63110995 -0.00086632 0.00461209 -0.00822891
C 15.54839279 30.18966685 22.04329439 0.01197610 0.00290677 0.00076469
C 12.98737325 8.54083887 1.87856002 0.00168632 0.00457679 -0.00137196
C 16.12106606 5.48903130 3.05853202 0.00155985 0.00021805 0.00199732
C 12.91451474 8.39396412 6.48523920 0.00369319 -0.00304682 0.01324567
C 16.11628276 5.27307700 7.82910839 0.00008903 0.00341788 0.00159097
C 12.84322999 8.29834401 11.33143356 0.00223965 -0.00443572 0.00020750
C 16.24570054 5.72461607 12.61961245 -0.00472202 -0.00155844 -0.00777349
C 12.95159377 8.44142683 16.12326254 -0.00241743 -0.00312596 0.00266220
C 16.38387103 5.75236680 17.47303391 0.00738436 0.00347847 0.00418725
C 13.15086660 8.34094004 20.61920828 -0.00419414 0.00215966 0.00253245
C 16.14760785 5.31970734 22.10264546 -0.00178165 -0.00157767 -0.00186619
C 12.31825198 15.03192152 1.68416971 -0.00136122 -0.00114614 -0.00069084
C 15.83368274 12.15103801 3.17444987 0.00332565 0.00723123 0.00538754
C 12.40447572 15.06835660 6.50227244 -0.00404294 -0.00039832 -0.00459518
C 15.50341302 12.09812738 7.80707288 -0.00188856 0.00706568 0.00090915
C 12.41097018 15.06515096 11.28204110 -0.00401350 -0.00622092 -0.00313757
C 15.52335465 11.88728116 12.54801077 -0.00365966 0.00089396 -0.00411559
C 12.52298695 15.10143996 16.27089475 -0.00804271 -0.00529402 0.00489962
C 15.43341251 11.73834964 17.33533820 0.00120483 0.00130355 -0.00140914
C 12.42969081 14.93940957 20.82119041 -0.00514519 -0.00494791 0.00958543
C 15.29556741 12.14546841 22.11847414 -0.00566340 -0.00105581 0.00118014
C 11.69912482 21.83177690 1.71082438 0.00084402 -0.00527931 -0.00202436
C 14.95160060 18.89664932 3.08748050 0.00172650 -0.00772258 0.00103930
C 11.60243989 21.78444059 6.45729726 -0.00388939 -0.00137620 0.00164286
C 15.25660653 18.63621440 7.77185218 -0.00199183 0.00805817 0.00369970
C 12.03211900 21.54854515 11.27320512 -0.00178836 0.00985323 0.00128370
C 15.16465194 18.51046503 12.44545857 -0.00095768 -0.00692473 0.00207289
C 12.02000955 21.88372041 15.89729345 -0.00201259 -0.00188814 -0.00380471
C 14.86045755 18.70143821 17.23535951 0.00763045 0.00368449 -0.00382445
C 11.49576576 21.79444527 20.60170562 0.00452513 0.00307477 0.00637236
C 14.75928442 18.68446330 21.98954869 0.00432073 0.00478583 0.00096081
C 11.98815834 27.44850873 1.85158116 -0.00187510 -0.00257928 -0.00196098
C 14.97057802 24.29772135 2.98948982 0.00547325 0.00079415 0.00527664
C 12.07112434 27.22731498 6.68090321 0.00359243 -0.00395715 -0.00114642
C 15.03418562 24.30903409 7.83872417 -0.00471810 0.00489234 -0.00117067
C 12.07240576 27.47229803 11.34542442 0.00228049 -0.00528379 -0.00390623
C 15.34378391 24.66657354 12.65573517 -0.00246132 -0.00002768 -0.00548859
C 12.34842538 27.90319296 15.95503422 -0.00155670 0.00138495 -0.00913301
C 14.87954413 24.36671600 17.20818564 -0.00639733 0.00447805 -0.00269581
C 11.99224890 27.60189887 20.67088097 -0.00363252 0.00166694 -0.00415410
C 15.17296261 24.57124468 21.96065431 -0.00326921 -0.00098329 0.00156737
C 18.99108041 2.44445303 1.81862995 -0.00780528 -0.00405264 -0.00171317
C 22.19588292 29.76676161 3.08586629 0.00413460 -0.00556607 0.00023129
C 19.22761802 2.17720293 6.58336273 0.00297000 0.01043026 -0.00478946
C 22.39847425 29.57203715 7.86198015 0.00279601 -0.00229092 -0.00740098
C 19.40421849 2.59235225 11.17208538 0.00437170 0.00251166 -0.00251429
C 22.46066085 29.75902138 12.66258463 -0.00482377 -0.00045498 0.00366359
C 19.24810774 2.58506020 15.99746576 -0.00188944 0.00354754 0.00010747
C 22.29070767 29.54446217 17.39767877 0.00417152 0.00469903 0.00080215
C 19.25655204 2.55164744 20.76934286 -0.00453742 -0.00086272 -0.00538777
C 22.24599265 29.73048645 21.92400536 -0.00678643 0.00179411 -0.00405436
C 18.46560337 9.07029755 1.68194017 -0.00710974 -0.00055331 0.00482611
C 21.76359583 6.19873555 3.07532094 0.00531169 -0.00295385 0.00336365
C 18.57592986 9.30402500 6.62075981 0.00380190 0.00775936 -0.00635233
C 21.60243256 6.45263930 7.89342936 -0.00000041 0.00143852 -0.00631722
C 18.69460469 9.17021552 11.44915320 0.00065354 0.00243065 0.01585816
C 21.75443033 6.16563336 12.75244055 -0.00808640 -0.00539712 -0.00572377
C 18.82586926 9.16901668 15.94946753 0.00322173 0.00925642 0.00656471
C 21.95431744 6.23709011 17.36683980 -0.00589541 -0.00532079 0.00524395
C 18.68149268 9.08588757 20.84422291 -0.00058734 0.00257305 -0.00209383
C 21.88685949 6.07136297 22.19284196 0.00554929 -0.00437875 -0.00630553
C 17.90181825 16.00678825 1.91039892 0.00125969 0.00778516 -0.00421064
C 21.32951239 12.66476556 3.04080795 0.00010712 -0.00490782 -0.00135255
C 18.20125087 15.72350384 6.37734263 -0.00601816 0.00566018 -0.00242739
C 21.23824255 12.38604373 7.96971802 -0.00548472 -0.00536131 0.00132094
C 17.98603686 15.45235011 11.20496464 0.00751598 -0.00062880 0.00092461
C 21.30321551 12.72813417 12.48436058 0.00301860 0.00315388 0.00384220
C 18.05527986 15.81546049 15.83987873 0.00415873 0.00457622 0.00042297
C 21.28574640 12.64988580 17.38243085 0.00054389 -0.00375226 -0.00473857
C 18.00802484 15.75532589 20.48925975 -0.00531190 0.00120837 -0.00062252
C 21.05008446 12.66149240 22.19198069 0.00376394 -0.00291740 -0.00233628
C 18.25672634 21.52027777 1.66341234 -0.00071831 -0.00558331 0.00506382
C 21.31774624 18.51151842 3.00643286 -0.00656914 -0.00634642 0.00570035
C 18.47218162 21.55449160 6.47907476 -0.00378946 0.00586593 0.00404056
C 21.51708820 18.17318961 7.75240190 -0.00198550 0.00296236 0.00184593
C 18.41919167 21.24706510 11.34035823 -0.00557794 -0.00229666 0.00035876
C 21.61945745 18.39403853 12.52449749 0.00172163 -0.00278041 0.00624623
C 18.55416570 21.51073052 15.88879164 -0.00548828 -0.00107833 0.00386582
C 21.44186357 18.61617515 17.26552800 0.00098056 0.00068520 -0.00297125
C 18.29530744 21.71243156 20.64940964 0.00113481 0.00047070 0.00241484
C 21.32406864 18.11183768 22.07978010 0.00464152 0.00448714 0.00725587
C 18.50476907 27.05311904 1.73289621 -0.00627760 -0.00238642 -0.00145247
C 21.86637090 24.08546537 3.00824449 0.00433368 -0.00131779 0.00387860
C 18.81402436 26.92327340 6.50376668 0.00091450 -0.00503125 -0.00328563
C 21.92559287 23.74568632 7.82584583 -0.00382188 -0.00003863 0.00073989
C 18.83780823 26.97739332 11.39743135 0.00216650 0.00079459 0.00281867
C 22.16001618 24.11830578 12.43357639 0.00418902 -0.00756971 0.00651945
C 18.79216631 27.45566453 15.91444361 -0.00115875 -0.00272219 0.00614464
C 21.84673458 24.04192407 17.29964266 0.00050135 0.00270606 -0.00320256
C 18.48161965 27.12096191 20.69170007 -0.00500316 0.00303088 0.00336762
C 21.82188095 23.77738261 22.04794080 0.00315723 0.00032027 0.00175414
C 24.60560576 2.96812767 1.78019761 0.00089553 -0.00317472 0.00376173
C 27.85993946 0.15849442 3.09945756 -0.01098083 0.00107798 -0.00187694
C 24.74009433 3.06361695 6.52884706 -0.00203670 0.00393416 -0.00041262
C 28.12376087 0.18723323 7.77871323 -0.00134921 0.00399019 -0.00179485
C 24.83981058 3.03207314 11.26996118 -0.00207226 -0.00013465 0.00186747
C 27.94734005 29.97475166 12.47789178 -0.00031838 0.00417379 -0.00231133
C 24.61428594 3.05301909 15.99998057 -0.00137478 -0.00203755 0.00126856
C 27.89144051 30.02153596 17.33257758 -0.00277035 0.00099125 -0.00437483
C 24.81077126 3.09311078 20.68771888 -0.00332096 0.00871097 0.00088304
C 27.79224515 30.01228716 22.07602253 -0.00348240 0.00444368 0.00152114
C 24.39811202 9.66132802 1.80248686 0.00046919 0.00052598 -0.00219654
C 27.30558493 6.79135226 2.95008010 -0.00765886 -0.00251854 0.00796624
C 24.24193074 9.50558679 6.68617674 -0.00108450 -0.00170197 0.00678880
C 27.60796700 6.36262775 7.80920280 0.00308998 -0.00634103 -0.00129988
C 24.38277728 9.63381487 11.25942693 -0.00404566 -0.00012512 -0.01045507
C 27.41834438 6.50735955 12.50140748 0.00015903 0.00113390 0.00165469
C 24.23551933 9.85126480 15.93233489 0.00046858 -0.00201364 0.00225364
C 27.59472380 6.70968627 17.03411581 0.00389905 0.00165405 -0.00147805
C 24.22017794 9.82958832 20.75417401 -0.00106104 0.00219920 0.00532612
C 27.39843588 6.52429642 21.71606795 0.00246373 -0.00588409 -0.00391351
C 24.44260197 15.25122513 1.77726174 -0.00297731 0.00071658 -0.00974515
C 27.60537507 12.01023325 3.19228251 0.00584031 -0.00728986 -0.00175028
C 24.66432685 15.31933617 6.43039169 0.00133545 -0.00367782 -0.00374221
C 27.71560176 12.06060919 7.77949694 -0.00219918 0.00443441 -0.00118950
C 24.62219229 15.51602452 11.01841945 -0.00384157 0.00844910 0.00534402
C 27.70618573 12.16441340 12.42581945 -0.00426840 -0.00250128 -0.00609914
C 24.49102016 15.41545966 15.87068458 0.00104953 -0.00166762 -0.00040873
C 27.87910069 12.41764175 17.31421487 0.00208410 -0.00020136 -0.00421801
C 24.59238568 15.48030234 20.69706499 -0.00282315 -0.00231477 -0.00249421
C 27.70570947 12.43523904 22.02140171 -0.00355339 0.00348836 -0.00598737
C 25.01230544 20.57956818 1.80199160 0.00200609 0.00069827 0.00510291
C 28.18352190 17.69551802 3.13857201 -0.00028724 0.00016736 -0.00476421
C 25.01356148 20.88842290 6.46316978 -0.00047060 -0.00614664 0.00210882
C 28.20701896 17.82864838 7.65543317 -0.00746724 0.00751402 0.00043773
C 25.13281954 20.99701964 11.25209410 -0.00354705 0.00346446 0.00159863
C 28.11581564 18.07582828 12.41313156 -0.00468835 -0.00176367 0.00271208
C 24.89474898 20.94973160 15.93216607 0.00087685 -0.00105870 0.00870438
C 28.04662192 18.04579366 17.32448046 -0.00444541 -0.00079369 -0.00373682
C 25.10091372 20.90262813 20.80387286 0.00572090 -0.00300504 -0.00109904
C 27.92914830 18.16418021 21.96490721 -0.00047776 0.00340055 -0.00795810
C 25.20386817 26.61814058 1.49484225 0.00014008 -0.00349704 0.00761959
C 28.53229468 23.86681735 3.12637046 0.00188259 -0.00300776 0.00173451
C 25.27851201 26.87779055 6.44142349 0.00128735 -0.00640704 -0.00760743
C 28.83581585 23.75845242 7.84497003 0.00115710 0.00083611 -0.00388994
C 25.41728595 26.73823479 11.08167276 -0.00370424 0.00911655 0.00507414
C 28.53535240 23.62758693 12.68260686 0.00343468 0.00431716 0.00576464
C 25.51228709 26.34302533 15.95109878 -0.00105525 -0.00197359 -0.00077884
C 28.46530254 23.43258220 17.28785007 0.00196579 0.00904338 -0.00009259
C 25.24468407 26.49668618 20.78183965 -0.00008989 0.00421788 0.00020004
C 28.38282802 23.40513063 22.08702483 -0.00268360 -0.00260230 0.00412263
N 31.02118230 4.36064639 0.88154580 -0.00098516 0.00313471 0.00181149
N 3.40695750 5.32651105 3.72201637 -0.00238973 -0.00281466 0.00375624
N 5.20123917 2.17500210 0.84296791 -0.00862449 -0.00296548 -0.00324731
N 1.96251240 1.66329270 3.56636988 -0.00377915 0.00602833 0.00474148
N 0.13501211 4.86820892 5.51570196 -0.00365396 0.00053550 -0.00091401
N 3.34817935 5.13109679 8.44142183 0.00293395 0.00690465 0.00539177
N 5.18417236 2.28627667 5.90613502 0.00126369 -0.00231350 0.00192833
N 1.77404666 1.46011281 8.42829404 -0.00381079 -0.00402506 -0.00062375
N 0.40175263 4.18321234 10.56196710 -0.00180870 0.00616214 -0.01010184
N 3.55672872 5.52917620 13.16541165 0.00106671 0.00121507 -0.00334200
N 5.16781577 2.53938566 10.56065033 0.00291144 -0.00393998 -0.00073493
N 1.45772960 1.14000405 13.22749471 0.00357410 0.00491939 -0.00071038
N 0.36030969 4.19626114 15.06393708 -0.00835708 -0.00212577 -0.00498534
N 3.50916913 5.54106510 18.12824051 0.00083880 -0.00427401 -0.00009782
N 5.18513234 2.47869592 15.38589175 -0.00569078 -0.00700395 0.00435894
N 1.98518790 1.75493326 17.70596017 0.00793854 0.00016645 -0.00191959
N 0.06957067 4.49727077 20.06347288 -0.00180638 0.00635758 0.00626734
N 3.40490977 5.11306796 22.67498448 -0.00527522 0.00208797 0.00374356
N 5.05205313 2.49531544 19.78442643 0.00251051 0.00311065 -0.00022726
N 1.54799386 1.29524730 22.82234138 0.00572369 0.00055322 0.00328015
N 0.43966451 10.21140127 0.92951874 -0.00199393 0.00245993 0.00189095
N 4.02571551 10.83185530 3.71335727 -0.00087494 0.00690029 0.00091972
N 5.55206263 8.01804130 0.93362800 0.00206818 0.00340100 -0.00041547
N 2.59314186 7.40452502 3.96864751 0.00964431 0.00571447 0.00072813
N 0.52244584 10.10254086 5.52214660 0.00655409 0.00165046 0.00259784
N 4.14949493 10.98763770 8.30000243 -0.00494520 0.00885004 0.01250030
N 5.78189574 7.87868798 5.54891426 -0.00315546 -0.00649364 -0.00113565
N 2.53927568 7.26174297 8.42097131 -0.00182775 0.00221353 -0.00392916
N 0.97559744 9.95310725 10.32073483 0.00485123 0.00225333 0.00234340
N 3.74257591 11.08613776 13.04370019 -0.00438139 -0.00120822 -0.00424948
N 5.57814061 7.85627312 10.35331341 0.00828203 -0.00403889 0.00113899
N 2.03075684 7.22861859 12.89044105 0.00436416 0.00170623 -0.00318658
N 0.74497034 10.08463408 15.21177161 -0.00135577 0.00325777 0.00029167
N 3.73088947 11.10179499 17.95884718 -0.00448996 -0.00407140 0.00215551
N 5.53186364 8.11439469 15.22106005 0.00231336 0.00021667 -0.00168242
N 2.05132739 7.28366499 18.22452862 0.00097976 0.00511406 -0.00302284
N 0.56505062 10.35865996 20.09121415 0.00815411 -0.00008062 -0.00326334
N 3.94021857 10.92194684 22.73910848 0.00117615 -0.00213078 0.00017938
N 5.65799887 7.69890302 20.26918293 -0.00882760 0.00161243 -0.00054672
N 2.21548152 7.04592025 22.85474579 -0.00297385 -0.00210078 -0.00338953
N 0.81469231 16.00535819 0.90554549 -0.00678236 -0.00137529 -0.00174947
N 4.37875872 16.61497668 3.44493439 0.00252421 0.00106431 0.00029386
N 5.95459779 13.65421604 0.92331622 0.00607765 -0.00654908 0.00107641
N 2.75330148 12.76102984 3.67533965 -0.00077386 0.00319848 0.00089229
N 1.00193252 15.74787736 5.38273201 0.00390952 -0.00300308 0.00496233
N 4.94826715 16.90446702 8.29718567 -0.00216317 0.00670864 0.00092794
N 6.27346433 13.62161362 5.69417361 -0.00200299 -0.00227913 0.00523910
N 2.98009558 12.92410024 8.42032138 -0.00236171 0.00053970 0.00150082
N 0.90579170 15.48821891 10.55829065 0.00091618 -0.00029358 -0.00023643
N 4.72361608 16.81264370 13.27131495 -0.00268854 0.00385471 0.00333627
N 6.23447736 13.60012698 10.57640009 0.00677202 -0.00120672 -0.00422391
N 2.91288800 13.27463360 13.06459437 -0.00138301 -0.00310043 -0.00165132
N 0.90201474 15.93962082 15.07080103 -0.00176525 0.00159084 0.00641292
N 4.51585464 16.72026740 18.06766599 0.00093826 -0.00479959 0.00739000
N 5.95361157 13.79606686 15.13386140 0.00017670 -0.00164196 0.00345068
N 2.50321355 13.02536698 17.85926704 -0.00631544 -0.00187720 -0.00231239
N 0.90835255 16.17486620 19.89307212 0.00203241 0.00064777 0.00576677
N 4.41116376 17.01685404 22.64470802 -0.00376599 0.00277376 0.00626306
N 6.05221777 13.55974933 19.90138111 -0.00125831 0.00400911 0.00398400
N 2.67374937 12.88468106 22.70282034 0.00322463 -0.00706589 0.00371544
N 1.20716496 21.76392099 0.92193342 -0.00720406 -0.00154376 0.00552094
N 4.12729367 23.59538273 3.61783101 0.00229657 0.00044531 0.00213853
N 4.96368428 20.56091365 1.08253942 -0.00433129 0.00236568 -0.00108806
N 3.00265825 18.43816846 3.64360556 0.00392507 -0.00071317 -0.00057252
N 1.50678271 21.02778372 5.74917757 -0.00209962 -0.00593437 -0.00461676
N 4.11272611 23.34436077 8.70212088 0.00250798 0.00558333 -0.00090998
N 5.33208033 20.16887813 5.62719584 -0.00210110 0.00017895 0.00237838
N 3.07221992 18.16110466 8.47075199 -0.00395779 0.00512337 0.00248459
N 1.11892805 21.26549878 10.59982399 -0.00721639 -0.00596935 0.00662151
N 4.01380737 23.38124948 13.37268951 0.00184167 0.00429262 0.00420291
N 5.54750390 20.37565443 10.38720648 -0.00010768 -0.00286872 -0.00569323
N 3.12410530 18.44898750 13.33462117 0.00706205 -0.00508501 -0.00086140
N 1.58291626 21.13562194 15.02233756 -0.00074852 -0.00152589 0.00446321
N 4.45601764 23.63852710 17.89030106 -0.00053395 0.00246283 -0.00159160
N 5.46556242 20.31414598 15.48119899 0.00301533 -0.00278552 -0.00069368
N 3.09781565 18.45214806 17.81890332 0.00458514 0.00222840 -0.00482550
N 1.46227084 21.34186532 20.01364641 0.00106167 0.00263944 0.00549555
N 3.78346243 23.76790743 22.75385498 0.00187226 0.00219959 -0.00330935
N 5.44650861 20.32597395 20.16006585 0.00101825 -0.00252838 -0.00347945
N 2.72753957 18.53441661 22.48764264 -0.00025463 0.00213663 -0.00262477
N 0.45747370 28.09523482 1.11540420 -0.00159343 0.00250780 0.00025847
N 3.00698224 29.81199524 3.78946326 0.00445110 -0.00170435 0.00700784
N 4.55339055 27.16190083 0.87016656 -0.00108654 -0.00052575 -0.00294017
N 2.08739124 24.74650075 3.92459500 -0.00081837 0.00294058 -0.00653328
N 1.06606388 27.86978764 5.65887584 0.00594200 0.00380001 0.00046414
N 3.38110036 30.13654898 8.45492983 0.00680137 0.00695438 -0.00089000
N 4.60346371 26.76478148 5.58641190 -0.00147687 -0.00044288 0.00183507
N 2.15514506 24.46998583 8.46738150 -0.00960349 -0.00393554 -0.00134766
N 1.01277228 28.10488820 10.44362584 0.00098390 -0.00336444 -0.00160085
N 3.28999271 29.92160143 13.22855127 0.00172471 0.00160618 -0.00109572
N 4.76423060 26.77183607 10.28494690 -0.00524029 0.00135834 0.00325984
N 2.27389961 24.89761025 13.21375516 0.00170738 -0.00615780 0.00108548
N 1.15247325 28.09067216 15.16443317 -0.00772990 -0.00674878 0.00749557
N 3.15749412 30.05413201 18.17457722 -0.00136110 -0.00117171 -0.00029073
N 4.90504184 27.33588603 15.12614063 0.00930641 0.00073761 0.00343771
N 2.02955705 24.14089373 17.85161871 0.00271348 -0.00627592 -0.00310146
N 0.36355373 28.10897657 19.94942558 0.00726909 0.00306531 -0.00240672
N 3.25455213 30.09324247 23.01231024 0.00492128 -0.00124835 -0.00314237
N 4.77543090 27.13716402 20.25204985 -0.00196374 0.00157561 0.00124599
N 1.78931673 25.00279296 22.54484998 0.00399322 -0.00052103 -0.00402341
N 6.79426218 3.96619463 0.82258388 -0.00255782 0.00394469 -0.00771701
N 10.31956198 4.66855124 3.68140310 0.00083849 0.00202601 0.00514968
N 12.01845797 1.85212976 1.04856051 0.00144745 -0.00658958 -0.00002125
N 8.75169283 1.34692680 3.80900347 -0.00174517 -0.00707857 0.00155439
N 6.59315830 4.14874313 5.59114476 0.00141423 0.00704000 0.00548804
N 10.10917978 4.85883505 8.65369121 0.00308869 0.00296286 -0.00876276
N 12.16922187 1.83159295 5.80570961 0.00432461 0.00292437 0.00296960
N 8.31093837 1.26202614 8.41706282 0.00080180 0.00045233 0.00553296
N 6.81651622 4.14720169 10.52957239 -0.00639029 0.00095197 0.00028575
N 9.96817027 5.10599110 13.43774524 -0.00511211 -0.00135142 0.00256123
N 11.83304927 2.20343652 10.72277291 0.00186593 -0.00238855 -0.00340670
N 8.39106923 1.37395495 13.37607270 0.00212765 -0.00011000 -0.00758474
N 6.67931095 4.20005773 15.29183627 -0.00230135 0.00420354 -0.00016209
N 10.13559713 4.84156802 18.10009268 -0.00112509 0.00311671 0.00297790
N 11.72488952 2.28898312 15.10464037 -0.00042051 -0.00054213 -0.00061212
N 8.47025094 1.29427433 18.03931300 0.00286822 0.00274043 -0.00127183
N 6.86132878 3.91975339 20.16377480 0.01049573 -0.00690013 -0.00022238
N 10.18741888 4.96958080 22.76097318 0.00047449 0.00103348 -0.00869117
N 11.69384492 1.91395746 19.88702951 0.00591905 0.00045563 -0.01145347
N 8.54495275 1.21556701 22.70123644 0.00081135 -0.00113303 -0.00100925
N 7.22122956 9.65633935 0.96843657 -0.00011032 -0.00335614 0.00125825
N 10.83358539 10.69718705 3.85204331 -0.00680281 0.00583996 0.00885154
N 12.14576285 7.76210399 1.09467776 0.00997304 -0.00432793 0.00316624
N 8.92458012 6.55289292 3.66799961 -0.00495675 -0.00051872 -0.00952667
N 7.25497596 9.65552146 5.65727395 -0.00200139 -0.00520624 -0.00257838
N 10.66732903 10.74095978 8.50236039 0.00256804 0.00173944 -0.00391708
N 12.21934879 7.52649370 5.68384113 -0.00535240 0.00216115 -0.00358008
N 9.02810025 6.87660591 8.22393218 -0.00025676 -0.00497039 -0.00536685
N 7.07374136 9.64206719 10.27093578 0.00513787 0.00364272 0.00081743
N 10.74702975 10.59778535 13.10990846 0.00230829 -0.00190969 0.00607997
N 12.04578937 7.60387844 10.42750586 -0.00078507 -0.00064323 0.00262267
N 9.02668217 7.21760590 13.12917884 0.00047699 0.00104484 -0.00305741
N 7.05684244 9.81973530 15.27286835 0.00192492 0.00094376 0.00707881
N 10.27614162 10.43640741 17.91737589 0.00235044 -0.00068062 -0.00014020
N 12.30070485 7.57075724 15.32702910 0.00187054 0.00256241 0.00525247
N 8.65593011 6.66098180 18.08010624 -0.00080371 -0.00260097 0.00406231
N 6.98710898 9.60865574 20.02973954 -0.00346005 0.00081590 0.00090905
N 10.77913792 10.81361026 22.62015338 -0.00158130 -0.00532968 0.00110025
N 12.17306231 7.62303013 19.95782383 -0.00821951 -0.00641620 0.00037460
N 8.94451416 6.86800185 22.90957415 -0.00395265 0.00031306 -0.00109172
N 7.61278941 15.26716321 1.03534622 0.00868133 0.00347601 -0.00427751
N 10.27091228 17.35133044 3.71173098 0.00235407 0.00079206 -0.00331639
N 11.50211540 14.30264799 0.93203232 -0.00312323 -0.00057378 0.00453591
N 8.98094476 12.01355629 3.81304675 -0.00217186 0.00256956 -0.00772135
N 7.75929319 15.45750083 5.88263204 -0.00459359 0.00769464 -0.00800543
N 10.55152548 17.49631531 8.51388628 0.00058182 0.00220178 0.00237143
N 11.67833378 14.13963590 5.82370699 -0.00435698 0.00560568 -0.00021535
N 9.23937822 12.55269915 8.48090624 -0.00005668 0.00259035 -0.00663708
N 7.63187812 15.39816478 10.72024851 0.00084461 0.00173566 0.00393949
N 10.64711303 17.54817853 13.39066851 -0.00918554 -0.00527895 -0.00362017
N 11.61349505 14.19230249 10.58532599 -0.00352010 -0.00225271 -0.00484993
N 9.32344468 12.42678936 13.23224121 -0.00439183 -0.00109452 -0.00137904
N 7.70697843 15.26926080 15.30785045 -0.00263755 0.00102621 0.00356335
N 10.28671417 17.53619599 18.24460109 -0.00426650 0.00417175 -0.00183125
N 11.68003105 14.31685297 15.62374484 -0.00443965 -0.00099096 -0.00451958
N 9.13718891 12.43512884 18.08931680 0.00123798 -0.00245775 -0.00150644
N 7.76944885 15.14530474 20.11020211 0.00328801 0.00033372 -0.00251057
N 10.07262432 17.47278500 22.76814337 0.00119694 0.00116575 0.00240892
N 11.56345200 14.18536063 20.03559214 0.00038806 -0.00025098 -0.00169461
N 9.07848992 12.15178731 22.72699379 0.00335517 0.00419754 -0.00536776
N 6.84245993 21.75235428 0.94846825 -0.00378629 0.00121684 0.00355161
N 9.37769179 23.72031726 3.76969494 0.00018102 -0.00492717 -0.00216535
N 10.75143248 21.16787532 0.99631262 0.00263349 0.00225102 -0.00277960
N 8.36893503 18.68471684 3.95059373 -0.00061758 -0.00621468 0.00256460
N 6.83572318 21.91758908 5.62956134 -0.00175359 0.00085081 -0.00139441