2000
Time=18999.99999999 pbc="T T T" Lattice="31.01568881 0.00000000 0.00000000 0.00000000 29.89101033 0.00000000 0.00000000 0.00000000 23.77220255" energy=-12040.10820997 virial="-33.28459991 -41.84792622 -14.01203583 -41.84792622 -32.27129520 11.47239892 -14.01203583 11.47239892 -144.31751839" stress="0.00052347 -0.00183275 -0.00065161 -0.00183275 0.00069269 0.00052321 -0.00065161 0.00052321 -0.00362554" Properties=species:S:1:pos:R:3:vel:R:3
C 30.47421755 3.61794378 1.61354932 -0.00137784 -0.00852776 -0.00436730
C 2.32563345 0.44229424 3.14387450 0.01367081 0.00318586 0.00306028
C 30.35319128 3.47852347 6.45791295 -0.00096367 -0.00851199 0.00597784
C 2.69311047 0.64347985 7.69126420 0.00143289 0.00138187 0.00765422
C 30.50945755 3.57344701 11.18023240 0.00075672 0.00087469 -0.00001414
C 2.44619981 0.94745541 12.73725918 0.00227051 -0.00758547 0.00416325
C 30.28593092 3.44063139 15.96096924 -0.00121983 0.00050061 -0.00161806
C 2.57598402 0.69509367 17.28730821 -0.00670359 -0.00089681 -0.00615722
C 30.23522609 3.51129761 20.67293279 -0.00400955 0.00499084 0.00319541
C 2.41067130 0.49592656 22.03219113 -0.00541672 -0.00042553 0.00486156
C 30.84115927 9.05104299 1.58923293 0.00766005 0.00626777 0.00491858
C 2.80483428 6.18648174 2.93272669 0.00088552 0.00064095 -0.00693601
C 30.87271350 8.97044692 6.46246707 0.00382359 -0.00417728 -0.00650586
C 2.72139901 6.03023328 7.80581638 0.00102023 0.00032489 0.00139210
C 30.76000972 9.21553758 11.21591338 -0.00590258 -0.00519277 -0.00022520
C 2.93281864 6.20919457 12.49904217 -0.00635698 0.00153939 0.00518078
C 30.82675708 9.23900027 16.03788240 -0.00345105 -0.00250314 -0.00274266
C 2.60600111 6.18476854 17.26532593 -0.00190672 -0.00034980 0.00521771
C 30.70783479 9.23023804 20.74244956 -0.00505052 -0.00155423 0.00026075
C 2.79167306 6.08845323 21.88612816 -0.00325392 0.00317088 0.00532144
C 0.20283559 14.70781194 1.75228991 0.00412309 -0.00491438 -0.00338043
C 3.12815057 11.85916796 3.13808035 0.00040880 0.00072980 0.00016572
C 0.02309193 14.95836048 6.55225978 0.00665394 -0.00168361 -0.00343916
C 3.37161566 11.77490253 7.76525605 0.00175018 -0.00660423 0.00039077
C 0.22316403 14.91071180 11.20680262 0.00154823 -0.00322323 -0.00016111
C 3.20857570 11.77669577 12.44092812 -0.00244624 -0.00456661 0.00431477
C 0.16624973 14.80244420 15.92744114 -0.00027306 0.00094869 0.00041762
C 3.13199426 11.73083552 17.25953231 0.00574434 -0.00536365 -0.00562316
C 0.19804820 14.63959827 20.68706388 0.00481140 -0.00121395 0.00114236
C 3.35685071 11.80202073 22.06656883 -0.00265876 0.00707223 -0.00598770
C 0.64003073 20.51605046 1.72830009 -0.00134381 -0.00338336 -0.00108183
C 3.52644003 17.16490268 3.09413445 -0.00576297 0.00306880 -0.00056096
C 0.72250229 20.61674802 6.61249640 -0.00177149 0.00267053 -0.00656438
C 3.90832269 17.43730525 7.77169401 -0.00346202 -0.00433388 -0.00025751
C 0.59464142 20.36079223 11.16028052 -0.00251415 -0.00507820 0.00312069
C 3.80808299 17.51582239 12.53035941 -0.00612407 0.00357462 0.00681144
C 0.65966768 20.34657304 16.01563117 -0.00310489 -0.00062730 -0.00292376
C 3.76395573 17.38645568 17.25114000 0.00074703 -0.00076633 0.00120202
C 0.75676080 20.42730483 20.67205197 0.00172704 0.00260796 -0.00179584
C 3.54020873 17.35574440 22.00013141 -0.00102517 -0.00144935 -0.00457210
C 31.01235178 26.98831881 1.71856593 -0.00305543 -0.00164672 0.00332166
C 2.72212148 24.34051267 3.08138301 -0.00323460 0.00261037 -0.00400742
C 30.97637303 26.98783286 6.53924756 0.00567394 0.00119822 -0.00477755
C 3.30866144 24.11877127 7.75757721 -0.00146801 0.00533816 -0.00207742
C 0.31708747 27.07791434 11.24352014 0.00408510 0.01041613 -0.00654540
C 3.13178888 23.98909550 12.58474122 -0.00302583 0.01178166 -0.00194050
C 0.07994184 26.67823862 15.96356972 0.00476741 -0.00096645 0.00062511
C 3.37902386 23.96317431 17.31614483 0.00628185 0.00055127 -0.00224446
C 30.94438198 27.02623916 20.68099169 0.00575868 -0.00096576 -0.00028323
C 3.19649162 23.96781178 22.05036344 -0.00487754 -0.00046084 -0.00184723
C 5.85633279 3.28140474 1.55181068 -0.00152988 0.00117153 -0.00260843
C 9.23844275 0.21149777 3.07068565 0.00203112 -0.00497932 -0.00231100
C 6.07952447 3.47156950 6.36192300 -0.00223971 0.00027958 -0.00710435
C 9.06042362 0.32627961 7.73407506 -0.00235789 0.00432910 0.00396297
C 6.30956095 3.38965883 11.23083446 -0.00052426 0.00563885 -0.01302794
C 9.06266312 0.42911852 12.54247879 -0.00133476 -0.00459140 -0.00167968
C 5.96377982 3.33510783 15.90718856 0.00580749 -0.00696139 0.00342151
C 9.28503847 0.33567583 17.32512727 -0.00125322 -0.00151746 0.00378613
C 5.82072662 3.42586657 20.44121675 -0.00709819 0.00036625 -0.00108078
C 9.25141685 0.20761929 22.10637078 0.00213570 0.00086996 0.00323942
C 6.38042310 8.62836894 1.68377137 0.00966789 0.00359810 -0.00351969
C 9.43535203 5.76081482 2.87660561 -0.00079500 -0.00226800 -0.00517327
C 6.33657797 8.76923313 6.50037053 0.00153118 -0.00172086 0.00025834
C 9.55571166 5.85833158 7.63220684 0.00426989 0.00274414 0.00177231
C 6.49921945 8.58937133 11.20423992 0.00795518 -0.00004479 -0.00271864
C 9.60621249 5.90567818 12.58548413 0.00278905 -0.00018912 0.00071339
C 6.16745680 8.65966746 15.85780668 -0.00504741 0.00005670 0.00587107
C 9.58675818 5.79658872 17.24864475 0.00885252 -0.00065934 0.00460811
C 6.27903910 8.76653600 20.64038345 -0.00292912 0.00387790 -0.00020900
C 9.59365394 5.85853090 22.01206459 0.00131898 -0.00023937 -0.00118264
C 6.71146631 14.14868208 1.58388600 0.00095943 0.00400845 -0.00440680
C 9.99582214 11.20855778 3.03552052 -0.00172195 -0.00003418 -0.00093769
C 6.84286150 14.24413665 6.36570605 0.00318658 0.00506368 0.00596085
C 9.93799714 11.10702274 7.69869150 0.00281735 -0.00917020 -0.00182857
C 6.89279046 14.26086197 11.04633938 0.00052477 0.00600747 0.00672636
C 9.79976518 11.27038299 12.38048118 -0.00130327 -0.00122055 -0.00492837
C 6.80557667 14.13277471 15.94851678 0.00058786 -0.00609290 0.00096866
C 9.61395629 11.28905331 17.27011460 0.00299298 -0.00065187 0.00055963
C 6.85351210 14.25912361 20.79314895 0.00428365 0.00034790 -0.00207963
C 9.77438871 11.29559632 22.04984575 0.00088893 -0.00040404 0.00127345
C 6.17104489 21.03417753 1.75631389 0.00112017 -0.00603946 0.00527296
C 9.12150809 17.57937902 3.00712680 -0.01016295 -0.00345479 -0.00297674
C 6.43393974 20.99287813 6.28429745 -0.00156441 0.00104778 0.00664509
C 9.11123627 17.81616842 7.86276684 0.00567889 -0.00299919 -0.00042916
C 6.11089352 21.04421663 11.29078980 0.00716590 -0.00249106 0.00377511
C 9.20128872 17.70723551 12.73626635 0.00637085 -0.00172915 0.00353027
C 6.18992262 20.95028441 16.03243245 0.00313608 -0.00778434 0.00813843
C 9.52924042 17.90620765 17.40167276 0.00291137 0.00144217 -0.00218867
C 6.12397707 20.77579287 20.71775005 0.00176800 0.00368595 -0.00164488
C 9.49888528 18.21327408 22.21077847 -0.00893439 0.00866114 -0.00137616
C 5.71301125 27.67258451 1.70175448 0.00039242 -0.00206557 -0.00071644
C 9.05695668 24.59210342 2.90375689 0.00073550 -0.00246584 0.00207619
C 5.88681018 27.55445170 6.38070840 -0.00591909 -0.00025372 0.00480394
C 8.75473360 24.47267486 7.64887444 -0.00241967 -0.00288228 0.00191417
C 5.69663745 27.45691262 11.25541731 0.00020935 -0.00215952 -0.00399084
C 8.76693444 24.54280123 12.58854286 -0.00328614 -0.00214427 0.00436544
C 5.61357802 27.77380150 15.96394855 0.00373489 0.00048021 -0.00367137
C 8.71981459 24.48576449 17.40457886 -0.00143658 0.00508212 -0.00300083
C 5.54187134 27.67282415 20.66950312 -0.00337503 -0.00239890 -0.00357117
C 8.76934242 24.20370300 22.04181964 -0.00098531 0.00102700 -0.00194475
C 12.72466134 3.10204036 1.67247313 -0.00131475 0.00004047 0.00346719
C 15.45507431 29.77737109 3.08157478 -0.00286142 -0.00689421 -0.00331082
C 12.57494054 2.73488667 6.47531358 0.00033060 -0.00506175 -0.00403351
C 16.08736305 29.85385529 7.79823185 -0.00045826 0.00133137 0.00134259
C 12.71860892 2.86989163 11.25414490 0.00626752 0.00164615 0.00417007
C 15.88398093 29.73391870 12.49039963 -0.00152418 0.00087769 -0.00071391
C 12.60300303 2.73427915 16.15049369 0.00167559 0.00278767 -0.00132695
C 15.94987152 29.75619133 17.47641148 -0.00615691 0.00572337 0.00037497
C 12.58984453 2.77148456 20.90225892 0.00199550 0.00193762 0.00199384
C 15.79486946 29.72287246 22.09272575 -0.00257038 0.00451877 0.00136939
C 13.11411604 8.34254905 1.75026450 0.00371279 0.00138135 0.00311464
C 16.17022851 5.59671415 3.00701533 0.00253268 -0.00828901 -0.00571951
C 13.05893480 8.36123555 6.41979998 0.00292232 -0.00350602 0.00122878
C 16.26357089 5.25701238 7.71121553 0.00253655 0.00033065 0.00047100
C 12.92309441 8.48415135 11.23274117 0.00053015 -0.00294417 -0.00321511
C 16.15798695 5.51641834 12.46479441 0.00784761 -0.00696227 -0.00284780
C 13.13611366 8.34274177 15.94857686 -0.00062556 0.01523795 -0.00654217
C 15.89312497 5.40769402 17.28869846 -0.00409933 0.00623038 0.00146852
C 13.02178031 8.34798267 20.80493394 0.00445119 0.00395256 0.00372494
C 16.28239416 5.27384760 21.93548364 -0.00158552 -0.00123785 0.00215243
C 12.07685147 14.66431061 1.67023984 0.00731465 -0.00214940 -0.00139653
C 15.37538771 12.05033947 2.94533927 -0.00465358 0.00262683 -0.00029557
C 12.22661131 14.88170617 6.39046924 -0.00669032 -0.00074890 -0.00444133
C 15.54416219 12.04431960 7.45187680 -0.00286035 0.00074899 0.00365915
C 12.42722357 14.83401790 11.22921317 0.00151475 0.00520149 -0.00268709
C 15.55780888 11.90546760 12.40736423 -0.00426790 0.00051972 -0.00316793
C 12.52928632 14.65988499 16.15330353 -0.00101938 0.00011698 0.00409370
C 15.70338069 12.04910014 17.26295955 -0.00047992 0.00662870 0.00419185
C 12.37939845 14.92267536 20.76462581 -0.00226680 -0.00650614 0.00132407
C 15.51787493 12.06185969 21.95088791 -0.00363428 0.00043878 -0.00641215
C 11.82954098 21.61747200 1.66798350 0.00121472 -0.00411024 0.00045626
C 14.78049193 18.28119016 2.98919683 0.00411860 0.00149468 -0.00064291
C 11.78489485 21.52696248 6.35080123 -0.00081346 -0.00158108 0.00772394
C 14.76486884 18.43881303 7.75138448 0.00145865 -0.00229635 -0.00412551
C 11.60407551 21.49261297 11.18246196 0.00499720 0.00559779 -0.00117973
C 14.84217871 18.29551414 12.45742414 0.00564664 0.00067936 0.01349434
C 11.78985644 21.71402346 16.00725055 -0.00258622 -0.00171334 0.00006942
C 14.84449445 18.38495870 17.28416549 0.00598713 -0.00095612 -0.00341569
C 11.83938841 21.35028188 20.55535779 0.00891783 0.00326782 -0.00524502
C 15.17657433 18.46372663 22.19444917 0.00374812 -0.00690659 -0.00266520
C 12.26723888 27.04213501 1.79914174 -0.00156187 -0.00118712 -0.00341119
C 15.46390971 24.30122264 3.02511425 0.00229244 -0.00227674 0.00730386
C 12.23297964 27.23917416 6.53486727 0.00311244 0.00540259 -0.00159611
C 15.18098600 24.39395293 7.93454514 0.00216896 0.00359573 -0.00104651
C 12.18953970 27.25945093 11.34666193 0.00138431 -0.00149339 0.00051721
C 15.20443050 23.99550944 12.70902073 0.00229052 -0.00066305 0.00390584
C 12.20947666 27.30096701 16.00817922 0.00336005 -0.00251653 0.00298327
C 15.22304472 24.17679387 17.42423349 -0.00207849 0.00218371 0.00586528
C 12.27606351 27.10034657 20.69027117 0.00914116 0.00167123 0.00250460
C 15.16475586 24.20368516 22.22443761 -0.00442772 -0.00008164 0.00113112
C 19.53523098 2.45855996 1.74072664 0.00248817 0.00029744 -0.00383343
C 22.06248131 29.24641583 2.99096725 -0.00016335 -0.00042186 -0.00373453
C 19.23658688 2.45428220 6.41376258 -0.00657503 -0.00088390 0.00799309
C 22.40075693 29.18022405 7.74812442 0.00036853 0.00273266 -0.00226400
C 19.11618060 2.37257073 11.11375907 0.00038704 0.00327132 -0.01027581
C 22.36599893 29.33926918 12.57861443 0.00070822 -0.00371536 -0.00035606
C 19.49337218 2.00424064 16.05453545 -0.00157396 0.00450937 0.00514983
C 22.67509440 29.04617256 17.35575756 -0.00042850 0.00835440 -0.00193391
C 19.17334757 2.29865318 20.64930237 -0.00811459 -0.00069236 0.00669618
C 22.32817106 29.39091319 22.02520242 -0.00414343 -0.00003971 0.00006131
C 18.57129548 8.88322714 1.78018301 -0.00385250 0.00386117 0.00203040
C 21.50208098 5.85487337 3.18712625 -0.00127993 0.00487210 -0.00495961
C 18.65083983 9.03484829 6.45304022 0.00212635 0.00137992 -0.00040797
C 21.90366458 6.25689836 8.01414492 0.00558383 0.00176230 -0.00258935
C 18.18736682 9.20364750 11.11602981 0.00076332 0.00124189 -0.00205483
C 21.62938458 5.88194224 12.64949329 0.00550551 0.00472434 0.00024956
C 18.73917326 9.14944907 16.12569082 0.00308501 -0.00199737 0.00085698
C 21.53014975 5.93201090 17.38750044 0.00932914 0.00313551 0.00699286
C 18.80746643 9.02222950 20.84537132 -0.00389785 0.00373538 0.00337087
C 21.53826731 5.97077382 22.19998309 -0.01072750 0.00308330 0.00459567
C 17.89390586 15.59321262 1.79923426 0.00703068 0.00395067 -0.00249541
C 21.00485120 12.43395836 3.04059526 0.00833388 0.01235541 -0.00509554
C 17.86649206 15.69730174 6.52891881 -0.00361809 -0.00606524 0.00012020
C 20.97043095 12.36384081 7.72768105 0.00186477 0.00174059 0.00105813
C 17.80483403 15.45651536 11.08556197 -0.00261089 0.00384534 -0.00880360
C 21.01594919 12.81721003 12.43542503 -0.00819566 0.00222445 0.00275097
C 17.91577359 15.80053424 15.92249314 -0.01046445 -0.00176847 -0.00276493
C 21.31200595 12.53438860 17.32840732 -0.00102940 -0.00038371 0.00182173
C 17.95592734 15.70122046 20.74792684 -0.00532737 -0.00227307 0.00075649
C 21.19640949 12.62923351 22.12397265 0.00353908 -0.00099424 0.00452475
C 18.52985685 20.92036583 1.75706493 0.00338802 0.00195364 -0.00237861
C 21.74894514 18.23514413 3.12970151 -0.00272479 -0.00511885 -0.00103201
C 18.30012636 21.23825746 6.23585937 0.00062562 -0.00143544 -0.00313045
C 21.16782960 18.14638259 7.87342990 -0.00279768 0.00419991 -0.00653344
C 18.23399814 21.09330091 11.36155589 -0.00054924 -0.00267505 -0.00327577
C 21.50736290 18.04407907 12.63798226 -0.00078477 -0.00232266 -0.00370700
C 18.32689881 21.17699819 15.97699370 0.00195897 0.00175061 -0.00075734
C 21.33580904 18.30789756 17.31461572 -0.00172512 0.00471150 0.00523312
C 18.24462154 21.37147499 20.82070323 -0.00156581 -0.00437472 0.00357174
C 21.46144076 17.95137425 22.23374916 -0.00460916 0.00678601 0.00281977
C 19.03768225 26.42496591 1.87027353 0.00345511 -0.00046827 -0.00259585
C 22.13475803 23.64393251 3.05624883 0.00055429 0.00529204 -0.00293333
C 18.81554734 26.44961160 6.48651573 -0.00343827 0.00117615 -0.00327106
C 21.89648048 23.71030571 7.85453646 -0.00023884 0.00426234 0.00312781
C 18.94374558 26.75381557 11.28363395 0.00011564 0.00044538 0.00059367
C 21.80130877 23.66757571 12.59461686 0.00005136 -0.00387780 -0.00569258
C 18.79623518 26.57482907 16.03022177 -0.00369068 -0.00008187 0.00493981
C 21.83701210 23.66481300 17.28397416 -0.00206403 -0.00519725 -0.00915033
C 18.75620368 26.59533866 20.81994351 0.00319440 -0.00188973 0.00526670
C 21.99285791 23.49397038 21.92221008 0.00716998 0.00888182 0.00246086
C 24.63202976 2.98999799 1.74888623 -0.00678413 -0.00555559 -0.00674929
C 27.82559413 29.64440667 2.97683045 0.00469810 -0.00035304 -0.01044366
C 24.75226626 2.67907212 6.52464519 -0.00328309 -0.00034626 -0.00163175
C 27.86278518 29.81453987 7.75760354 0.00126865 0.00079034 0.00071955
C 24.82053583 2.90089167 11.44400610 -0.00074852 -0.00469499 0.00399385
C 27.91503052 0.09786556 12.43417415 -0.00644443 -0.00417286 -0.00328553
C 24.87524232 2.95037703 16.13013515 0.00003037 0.00070233 -0.00725273
C 27.98972805 29.83723142 17.31520698 0.00848620 0.00701188 0.00222124
C 24.80672062 2.94653209 20.91155503 -0.01241377 -0.00605542 -0.00263441
C 27.95198666 0.09467364 22.09343552 -0.00470245 0.00762578 -0.00220610
C 23.89941123 9.53027880 1.88441861 0.00276983 -0.00268178 0.00461341
C 27.33328236 6.59510430 2.99138738 -0.00179602 -0.00039237 0.00225243
C 24.15012659 9.18411333 6.47354610 0.00059367 0.00472402 0.00391605
C 27.33964660 6.43773644 7.73714024 0.00489892 -0.00182053 0.00275368
C 24.08632693 9.76171400 11.26854483 0.00772626 -0.00295631 -0.00018008
C 27.11343849 6.58518445 12.49333215 -0.00274262 -0.00160810 0.00381911
C 23.94308498 9.84017243 16.20452093 -0.00759362 0.00305178 0.00018532
C 27.36363316 6.55970369 17.27154156 -0.00097905 0.01014933 -0.00532554
C 24.32236709 9.18899725 20.88811718 0.00445482 -0.00092070 0.00379422
C 27.18570787 6.61785421 22.18450047 -0.00457662 -0.00013733 -0.00541307
C 24.84999523 15.14843232 1.79114291 0.00124223 -0.00406556 -0.00488021
C 27.70941159 11.73824105 3.07428472 -0.00081619 0.00521949 -0.00721165
C 24.71294029 15.13140079 6.37442377 0.00528463 -0.00279331 -0.00216222
C 27.62248606 11.95065996 7.76511559 -0.00201579 -0.00000563 0.00209965
C 24.63608365 15.13843620 11.13556816 0.00032959 0.00740707 0.00037658
C 27.72273408 12.15166439 12.55452322 -0.00460228 0.00314719 -0.00158767
C 24.45907164 15.47244908 16.00815906 -0.00169952 -0.00318097 -0.00171299
C 27.78563259 12.25228044 17.32244090 -0.00203678 -0.00103967 -0.01014418
C 24.62433071 15.11262240 20.69695940 -0.00001178 0.00087386 0.00404827
C 27.46424004 12.21678108 21.99648969 0.00110459 -0.00024651 0.00607037
C 25.22008913 20.77078093 1.55371547 0.00162519 0.00313740 -0.00032082
C 28.11544040 17.78976852 3.17585241 -0.00266448 0.00568477 0.00440492
C 25.10844532 20.53311710 6.58147567 -0.00771914 -0.00443977 0.00019751
C 28.13320154 17.67777598 7.98003159 0.00317077 -0.00066883 -0.00209986
C 24.92366684 20.68799140 11.27906867 -0.00317193 0.00412151 0.00372842
C 28.26137535 17.66305457 12.59627416 -0.00039758 0.00390610 -0.00163561
C 24.99300795 20.70695185 15.90214410 -0.00683331 -0.00388526 0.00096537
C 27.95566037 17.78353526 17.21964970 0.00394698 0.00613549 0.00056457
C 25.03110566 20.68018931 20.57537328 -0.00097236 0.00029396 -0.00204350
C 28.12444282 17.68626259 21.86634067 0.00426497 -0.00331107 -0.00586104
C 25.48893009 26.05266081 1.71420480 0.00645264 -0.00455942 0.00054476
C 28.80266451 23.36740553 3.10859712 0.00289407 0.00264496 -0.00092633
C 25.40261225 26.12982856 6.45947899 0.00716908 -0.01078457 -0.00355907
C 28.51249079 23.46640627 7.84607639 0.00334651 -0.00017255 0.00157821
C 25.47677766 26.10909948 11.34751679 0.00171538 -0.00288749 0.00321529
C 28.46324641 23.31547459 12.52347965 -0.00646904 -0.00671017 -0.00149217
C 25.49147739 26.19580547 15.97317417 -0.00485909 -0.00132395 -0.00025716
C 28.76756479 23.41381935 17.05864961 0.00350516 0.00120266 -0.00174135
C 25.35492204 26.16446068 20.78084137 -0.00460231 0.00078522 0.00270057
C 28.69804354 23.37843944 22.07892972 0.00575539 -0.00461893 -0.00249789
N 0.23217656 4.52699770 0.91565015 0.00294858 -0.00084352 -0.00050470
N 3.53542939 5.31789283 3.64423531 0.00743671 -0.00739781 -0.00053335
N 5.03210952 2.53778373 0.73888949 0.00247700 -0.00316431 0.00297695
N 1.21958592 0.88686370 3.78356903 -0.00235822 -0.01154209 -0.00425491
N 0.12767432 4.29323153 5.70361179 0.00198300 -0.00118508 0.00076424
N 3.22193539 4.97379917 8.46091692 0.00991515 -0.00294909 -0.00070345
N 5.23826636 2.59196595 5.71290423 -0.00147551 -0.00494987 0.00482941
N 1.89507307 1.18656414 8.60144043 -0.00596817 0.00299789 0.00234530
N 0.29217611 4.39915172 10.49143556 0.00934935 0.00180818 -0.00132091
N 3.55926575 5.29514173 13.35745890 0.00017257 0.00198741 0.00332918
N 5.44731344 2.55708568 10.61185424 0.01085762 0.00232908 0.00131322
N 1.47413634 1.38257560 13.62221624 -0.00211487 -0.00129696 -0.00112861
N 0.01289294 4.30969633 15.18743646 0.00485422 -0.00015338 -0.00799653
N 3.34354927 5.15242819 17.80812952 0.00188687 -0.00273196 -0.00171324
N 5.30133569 2.28810651 15.32468946 -0.00074215 -0.00186283 0.00984485
N 1.64704008 1.39513562 17.97862992 -0.00181124 0.00472345 0.00261888
N 0.19956025 4.19851942 19.98675760 0.00265269 0.00105881 -0.00755248
N 3.40537082 5.26587080 22.78950081 -0.00287089 -0.00377957 -0.00324932
N 4.91550897 2.61058246 19.84989551 -0.00039512 0.00406936 0.00062480
N 1.80499800 1.40702634 22.84848251 -0.00014643 -0.00417405 0.00186751
N 0.69937360 9.87049076 0.95254648 -0.00291677 0.00139977 0.01588208
N 3.71333484 10.80907896 3.76889204 -0.00520852 0.00110591 0.00793716
N 5.54518515 7.82316941 1.00225897 0.00066607 0.00137798 -0.00261758
N 2.10031966 7.11513571 3.64902280 0.00238159 -0.00245605 -0.00618134
N 0.46033099 9.97912563 5.76089713 0.00175639 -0.00115793 0.00158730
N 3.93119412 10.82291920 8.47363934 -0.00071113 -0.00381804 0.00080418
N 5.45885893 7.97345259 5.79390020 0.00118439 -0.00408607 0.00295249
N 2.41170420 7.08823640 8.57178492 0.00661793 0.00040677 -0.00142957
N 0.57252855 10.13932681 10.56553619 -0.00086944 -0.00224934 -0.00588262
N 3.71000329 10.77605060 13.21209848 -0.00656477 -0.00180028 0.00131318
N 5.54275748 7.84802339 10.47995811 -0.00455026 0.00209998 0.00754171
N 2.27261867 7.18928906 13.11792089 -0.00060029 0.00100934 0.00355363
N 0.54418502 10.13730085 15.31103992 -0.00438839 -0.00463194 0.00155297
N 3.66363459 10.80794200 18.03867868 0.00242237 -0.00169214 -0.00180563
N 5.50713740 7.71845635 15.11060693 -0.00276393 -0.00194387 -0.00352308
N 2.15685733 7.17050656 18.03552104 -0.00428095 -0.00135574 0.00192494
N 0.35285223 10.04517496 19.94762833 -0.00124650 -0.00000290 0.00035701
N 4.10104231 10.88324487 22.70998296 0.00642093 -0.00113356 0.00141668
N 5.55569041 7.82655429 19.89671407 0.00091104 -0.00609036 0.00342163
N 2.06548032 7.15550465 22.38747180 0.00447598 -0.00266907 -0.00822466
N 0.92372309 15.51216078 0.95026999 0.00219197 0.00404539 0.00109854
N 4.34262472 16.41296968 3.91554325 0.00345568 -0.00093819 0.00151976
N 5.95124790 13.34964177 0.75446882 -0.00160822 -0.00689448 0.00632823
N 2.40529952 12.68121312 3.91226818 -0.00043059 0.00671195 -0.00271850
N 0.87762952 15.70320271 5.84539857 -0.00193203 -0.00103086 0.00040314
N 4.71926626 16.68934636 8.55740440 -0.00163382 0.00928246 -0.00101604
N 6.06056408 13.47914479 5.53006468 0.00372960 0.00490695 -0.00512737
N 2.66160315 12.78116967 8.43454636 0.00260668 0.00187859 0.00022821
N 1.00704505 15.67081719 10.43310920 0.00356885 0.00096139 0.00173925
N 4.52489572 16.53786561 13.12254314 0.00065499 0.00530880 -0.00210678
N 6.01251979 13.62304115 10.21499039 -0.00335177 -0.00051862 0.00500880
N 2.30943308 12.65142094 13.07023495 -0.00265774 -0.00304884 0.00424497
N 1.05465620 15.66909735 15.34887528 0.00380995 -0.00303351 0.00191188
N 4.46691830 16.52176508 17.99457256 -0.00066976 0.00005726 0.00094223
N 5.91764534 13.54395793 15.03713622 0.00398920 -0.00022386 -0.00036222
N 2.63858767 12.84459087 17.88712266 -0.00172497 0.00187551 0.00216017
N 0.94303934 15.57111391 20.02842083 0.00727290 0.00252917 0.00334992
N 4.34787166 16.48679187 22.67832629 0.00800681 -0.00636824 -0.00502542
N 5.94583070 13.53306899 20.03913125 0.00629511 0.00549484 -0.00481239
N 2.73987226 12.74781233 22.83510212 0.00097089 0.00145200 0.00496827
N 1.51364947 21.34288916 1.00454479 0.00232926 -0.00410142 -0.00351623
N 3.90649357 23.84533592 3.55873678 -0.00289640 0.00534406 -0.00463494
N 5.33617346 20.19872495 1.01019678 0.00549442 -0.00179444 0.00226872
N 2.82595121 18.06318521 3.80599940 0.00478257 -0.00479996 0.00373077
N 1.52864882 21.41007566 5.94246753 -0.00326715 0.00014679 -0.00110428
N 4.27844463 23.50341727 8.49046554 0.00032248 -0.00192353 0.00218878
N 5.39899673 20.33573225 5.65482741 -0.00969798 -0.00264216 -0.00438474
N 3.00528544 18.16628667 8.46947286 0.00574231 -0.00083724 -0.00025180
N 1.36245111 21.18480739 10.45606933 0.00660606 0.00116507 0.00138369
N 4.16057873 23.35857456 13.32303506 0.00146375 0.00214900 0.00015203
N 5.32410203 20.21801162 10.57232784 0.00322677 0.00660463 0.00407357
N 3.11079505 18.37145175 13.36068548 -0.00468288 -0.00055404 -0.00312013
N 1.53649707 21.30831857 15.46403637 -0.00022493 0.00074936 0.00117020
N 4.24165379 23.41542360 18.16700187 0.00271147 0.00041168 0.00702617
N 5.56266168 20.05911549 15.23935653 -0.00149013 0.00317148 -0.00002787
N 2.94026242 18.17176886 17.93552401 -0.00256105 0.00039411 -0.00026503
N 1.57353642 21.32916693 20.02656810 0.00156152 -0.00569588 0.00431812
N 4.17852246 23.22851977 22.69040998 0.00143878 0.00352505 -0.00107242
N 5.45396326 19.95778281 19.88102339 0.00284257 0.00533146 0.00077694
N 2.83586849 18.18003714 22.78478804 -0.00071821 -0.00051652 0.00167389
N 0.76353265 27.83179100 0.98537544 -0.00452113 -0.00620301 0.00612294
N 3.16313672 29.50864991 3.81208151 -0.00544377 0.00009945 -0.00489943
N 4.84718259 26.77426227 1.14305039 0.00149068 -0.00120846 -0.00026547
N 1.88385568 24.86999422 3.98123741 0.00513852 -0.00484021 0.00406831
N 0.46642413 27.77662885 5.63553223 -0.00441240 0.00283308 -0.00081067
N 3.62203477 29.68519926 8.24951928 -0.00494993 0.00009416 0.00370677
N 5.09995375 26.76986061 5.62778464 0.00303577 0.00472806 0.00031489
N 2.24810069 24.51148994 8.51470164 -0.00377543 0.00526123 -0.00364948
N 1.09927017 27.95832913 10.49292434 -0.00398538 -0.00377089 -0.00838958
N 3.43470677 0.10889095 13.24252581 0.00075102 -0.00448913 0.00380645
N 4.92394645 26.44193919 10.74374797 -0.00705469 -0.00407871 -0.00292505
N 2.16327140 24.53489454 13.33839222 0.00270070 0.00491309 -0.00377831
N 1.03980130 27.46851620 15.32019209 -0.00117609 -0.00478798 -0.00087432
N 3.24064953 29.61703769 18.01558811 0.00593742 -0.00579276 -0.00359275
N 4.83267961 26.91495987 15.31462754 0.00080251 -0.00100215 0.00241480
N 2.29478856 24.52668547 17.87873750 -0.00034511 0.00470999 -0.00430777
N 0.68301084 27.68827511 19.75141340 0.00337232 0.00319421 0.00450959
N 3.30750402 29.62320901 22.70028756 0.00464309 0.00007864 -0.00085223
N 4.74433566 26.86287905 19.88264531 -0.00086924 0.00243347 -0.00167846
N 2.30880079 24.64864207 22.85798234 0.00325777 -0.00024137 -0.00062909
N 6.62407263 4.15210799 0.92991965 0.00460359 0.00304342 0.00294613
N 10.18997843 4.90813140 3.60197942 -0.00045859 0.00010220 -0.00183974
N 12.02376566 2.05501915 1.09203795 -0.00268279 -0.00287903 0.00072537
N 8.31545165 0.96411411 3.71821063 0.00480960 0.00644671 -0.00491546
N 6.80933400 4.18888493 5.49808531 -0.00497209 0.00433996 -0.00646193
N 10.38612212 4.93767416 8.30229034 -0.00320125 -0.00759066 0.00842319
N 11.82963510 1.90816975 5.78439319 -0.00316286 -0.00314636 0.00356764
N 8.51436273 1.30182345 8.46383151 0.00184921 -0.00549834 -0.00094358
N 7.12012916 4.08939759 10.39512308 -0.00125853 -0.00270207 0.00368875
N 10.13158322 4.93300127 13.32131122 -0.00543137 -0.00018556 -0.00153004
N 11.88819774 1.98056707 10.59050485 -0.00334896 0.00207348 -0.00175653
N 8.51755732 1.47064779 13.14688116 0.00227678 -0.00119955 0.00100884
N 6.65529249 4.22172133 15.14485741 -0.00044543 -0.00095416 -0.00077989
N 10.08320439 4.83858879 17.99708493 -0.00196357 -0.00375360 -0.00445930
N 11.73412389 1.99006008 15.44448547 -0.00006432 -0.00278712 0.00785864
N 8.50736543 1.17509418 18.04681742 -0.00255510 -0.00238468 -0.00013851
N 6.63147131 4.10650653 19.58991785 -0.00899937 -0.00080198 0.00065458
N 10.10516696 4.85934213 22.76735308 0.00363381 -0.00355276 0.00456387
N 11.78992904 1.99025930 20.07924649 -0.00407138 0.00170006 -0.01240479
N 8.84256102 1.15882447 23.01019522 -0.00202439 -0.00214312 0.00333817
N 7.21187085 9.40447714 0.90017449 0.00060914 -0.00716762 -0.00178186
N 10.65544306 10.29930265 3.84244578 0.00036651 -0.00244844 -0.00321166
N 12.38597865 7.49989887 0.95841204 -0.00988806 -0.00201638 -0.00134285
N 8.86086764 6.72615680 3.64743390 -0.00396389 0.00247066 0.00420773
N 7.23082905 9.51086687 5.80418632 0.00315823 -0.00747280 -0.00195751
N 10.76223554 10.45575832 8.51772792 -0.00370833 0.00342367 -0.00294040
N 12.23141729 7.42440816 5.75112170 0.00099449 0.00439688 -0.00361226
N 8.63815360 6.47347184 8.51605569 0.00245199 0.00220157 0.00010632
N 7.25949078 9.37237151 10.44477409 0.00820654 0.00172676 -0.00066941
N 10.72848536 10.69052193 13.22062955 0.00297427 -0.00528729 -0.00263319
N 12.08262649 7.51870228 10.61067949 0.00044235 0.00262937 -0.00331696
N 9.03863777 6.92817807 13.31986581 -0.00224517 -0.00036983 -0.00235793
N 6.73549717 9.60002380 15.12061439 0.00586481 0.00292106 -0.01031521
N 10.59829598 10.56612396 17.79817800 -0.00356388 -0.00242212 0.00071765
N 12.34887292 7.37045432 15.38707407 0.00064355 -0.00567414 0.00277748
N 9.05331341 6.85210816 17.99677025 0.00170070 0.00276369 -0.00133120
N 7.01846455 9.59270329 19.88193426 0.00047564 -0.00394732 -0.00133251
N 10.75415534 10.61168522 22.73223935 0.00097596 0.00140487 0.00514002
N 12.17512532 7.47913061 20.13318272 0.00277713 0.00238596 0.00225495
N 9.10684178 6.90573216 22.71023395 -0.00396659 -0.00133074 0.00052671
N 7.51231080 15.06548846 0.92531897 0.00267020 0.00152677 -0.00656133
N 10.19841055 17.11493218 3.78383510 0.00049956 0.00215148 -0.00508533
N 11.35291940 13.84748938 0.90007415 0.00271567 -0.00311548 0.00057627
N 9.05204783 12.00347739 3.58760232 -0.00180727 0.00350763 0.00121506
N 7.69265624 15.15002884 5.74750782 0.00402688 -0.00531901 -0.00428391
N 10.04435263 17.08276794 8.56027739 -0.00238652 0.00283585 0.00219138
N 11.63592425 13.92257672 5.64202342 0.00701885 -0.00169693 -0.00064431
N 9.09737835 12.00443594 8.29813118 -0.00319429 -0.00042686 0.00403563
N 7.80510604 14.99842058 10.40975467 0.00502352 0.00349457 -0.00378198
N 10.23027007 17.38657378 13.58200812 -0.00494355 0.00203935 0.00391286
N 11.67606357 13.95164962 10.50285411 -0.00777895 -0.00429370 -0.00014314
N 8.91651705 11.97582200 13.09686639 0.00599370 -0.00142425 0.00206350
N 7.79659964 14.74957401 15.28104678 -0.00258811 -0.00314915 0.00200644
N 10.51593509 17.12609898 18.05794578 -0.00429249 0.00433959 0.00444786
N 11.58138584 13.87907218 15.53632321 0.00250935 -0.00240712 -0.00545539
N 8.98365128 12.01609838 18.17230856 -0.00066548 0.00488512 -0.00193677
N 7.63386326 15.08702853 20.11997545 0.00003399 -0.00280523 -0.00889452
N 10.21721708 17.30690568 22.98217390 0.00080121 -0.00301758 0.00385742
N 11.65258715 14.04785739 20.00578466 0.00443667 -0.00009606 0.00538540
N 8.95770273 12.22791682 22.65948725 0.00205078 -0.00048522 -0.00040211
N 7.07852729 21.64548907 0.94277939 -0.00100272 0.00264528 0.00166070
N 9.79806279 23.71018808 3.60573163 -0.00483553 -0.00244023 -0.00157417
N 11.27249437 20.52551321 1.09505696 -0.00504112 0.00054582 0.00499148
N 8.14065165 18.19212420 3.73808151 0.00173435 0.00418627 0.00188687