2000
Time=83000.00000008 pbc="T T T" Lattice="31.24046778 0.00000000 0.00000000 0.00000000 29.92613603 0.00000000 0.00000000 0.00000000 23.71132482" energy=-12043.12302530 virial="-57.49768352 -31.67683753 -4.84301585 -31.67683753 -50.91978497 -23.68525605 -4.84301585 -23.68525605 -76.52105620" stress="-0.00030745 -0.00137236 -0.00017905 -0.00137236 -0.00022052 -0.00109363 -0.00017905 -0.00109363 -0.00080214" Properties=species:S:1:pos:R:3:vel:R:3
C 30.53958846 3.70893298 1.77470587 -0.00138776 0.00126058 -0.00690162
C 2.43094667 0.35037807 3.17489128 0.00440474 -0.00132290 -0.00323729
C 30.39104286 3.40272136 6.64176873 0.00323566 0.00416253 0.00483662
C 2.52931603 0.23151661 7.79814570 -0.00262732 0.00278104 0.00528760
C 30.55834867 3.53224552 11.26555424 0.00185970 -0.00211518 -0.00293087
C 2.17370828 0.62426879 12.61015321 0.00638007 0.00024566 0.00616343
C 30.63875553 3.72017600 16.04817231 0.00175817 -0.01265136 -0.00824221
C 2.54099839 0.54918900 17.31641202 0.00564626 -0.00021658 -0.00141670
C 30.25064817 3.64794973 20.62288533 0.00027053 -0.00351857 0.00127061
C 2.48067212 0.80144454 22.07573919 0.00040493 0.00046512 -0.00028790
C 30.85426129 9.04609939 1.81363326 0.00445711 0.00593249 0.00594802
C 2.62997219 6.08749880 3.01183538 -0.00516306 -0.00351570 -0.00085886
C 30.95334068 9.38527200 6.60059828 -0.00486700 -0.00224124 -0.00417826
C 2.73697610 6.10649999 7.84958576 0.00698300 -0.00007810 0.00399252
C 31.19061993 9.36024856 11.28249068 0.00699797 -0.00064984 0.00146421
C 3.18954271 6.77055731 12.54656589 0.00098989 0.00286988 -0.00246318
C 30.95358582 9.37784767 16.02777228 -0.00220182 -0.00196737 -0.00593009
C 2.75872489 6.28571706 17.16586775 0.00091812 0.00158825 -0.00269331
C 31.23869393 9.53470624 20.59798804 -0.00003024 -0.00640448 -0.00063204
C 2.73546217 6.34824939 21.96011277 -0.00345782 -0.00605656 0.00170832
C 0.17917723 14.55232417 1.61683490 0.00427479 0.00839635 0.00270675
C 3.38788864 11.72860981 3.34066625 -0.00328761 -0.00082141 -0.00015301
C 0.05576909 15.15032151 6.38698268 0.00380291 0.00227918 0.00269571
C 3.13701234 11.97230299 7.91788354 0.00578841 -0.00823352 -0.00204106
C 0.43032376 14.54079954 11.02355458 -0.00122403 0.01013370 -0.00203081
C 3.49666961 11.78306816 12.54962923 -0.00496982 -0.00231222 0.00252452
C 0.49081784 14.53282967 15.91669705 -0.00201199 0.00670929 -0.00301859
C 3.15515274 11.88919894 17.26351897 0.00319837 -0.00100662 0.00569720
C 0.21960388 14.72656010 20.58796942 -0.01481323 0.00485175 0.00244879
C 3.24203032 11.85467467 22.07261189 -0.00137263 -0.00451054 -0.00611121
C 0.75209409 20.37950478 1.83532517 -0.00150737 0.00750565 0.00153558
C 3.79316733 17.35218542 3.08944358 -0.00469529 0.00085669 0.00097328
C 0.52182162 20.33632417 6.60483105 -0.00468705 -0.00186793 -0.00062245
C 3.65412153 17.52258877 7.85304943 0.00455089 -0.00725056 -0.00127463
C 0.37243457 20.33648820 11.22388164 0.00106606 -0.00549899 0.00225211
C 3.69264012 17.39762106 12.70132851 -0.00214203 -0.00250182 0.00594183
C 0.49389080 20.41249101 16.15784569 -0.00248577 -0.00466846 0.00217972
C 3.68513156 17.35926251 17.41548412 0.00039086 0.00068929 -0.00562098
C 0.46059136 20.30083126 20.84548222 -0.00418925 0.00421975 0.00113976
C 3.65507940 17.35423386 22.10613465 0.00048617 0.00957917 0.00435643
C 31.23633444 26.96158255 1.79407941 -0.00004555 -0.00338646 0.00170832
C 3.07252367 23.66619790 3.15680683 0.00795883 -0.00422685 -0.00445366
C 0.00822816 26.85923084 6.58036931 -0.00207994 0.00271511 0.00612190
C 3.26101521 23.63977916 7.87544607 -0.00509975 0.00416899 -0.00145313
C 0.07416172 26.81566216 11.45382148 -0.00881922 -0.00104348 -0.00013689
C 2.93009462 23.95925570 12.72720323 -0.00011831 0.00197754 -0.00074494
C 0.19601282 27.14004981 16.02007361 -0.00645196 -0.00768609 0.00048869
C 3.20555677 23.95722828 17.40437730 0.00801470 0.00020891 0.00231414
C 0.05333692 26.89469851 20.76733077 -0.00011027 0.00669154 0.00017911
C 3.36934076 24.09253015 22.03260037 0.00366595 -0.00045004 0.00275034
C 6.00079140 3.25952778 1.63688638 -0.00037010 0.00156375 -0.00638713
C 8.99297754 0.10450503 3.03988462 0.00168685 -0.00178313 0.00032247
C 5.92272532 3.11538101 6.45127376 0.00766714 -0.00324730 0.00026019
C 9.21283606 0.04659488 7.75723698 -0.00320280 -0.00092042 -0.00194229
C 6.19736993 3.04954326 11.19397938 0.00179558 0.00061800 -0.00093120
C 9.20832914 0.02444181 12.47544783 -0.00857208 -0.00391593 -0.00194720
C 6.03985170 3.24311876 16.01601045 -0.00883957 0.00074692 -0.00569743
C 9.15722265 0.29797501 17.16389735 -0.00061278 0.00051819 0.00274252
C 6.04735322 3.31646583 20.73341202 -0.00123091 0.00064680 0.00407655
C 8.97702700 0.28432648 21.90257140 -0.00225563 0.00915390 -0.00564539
C 6.31060649 8.80603389 1.57126100 0.00136989 0.00140102 0.00614654
C 9.55514010 5.85273294 3.06558382 0.00725476 -0.00223758 -0.00016238
C 6.31731235 8.67722286 6.29648431 0.00261326 0.00013346 0.00659276
C 9.48504733 5.58776839 7.83737468 0.00487780 -0.00088989 -0.00309835
C 6.48779242 8.82130449 10.98579559 -0.00358802 -0.00373076 0.00048049
C 9.85833456 5.86099775 12.55257491 0.00255513 -0.00166336 -0.00204909
C 6.81297474 8.83626660 15.95579248 -0.00517402 -0.00560910 -0.00097526
C 9.79907624 6.05056391 17.28141623 -0.00070474 -0.00070117 -0.00754849
C 6.54852432 8.74033283 20.71074355 -0.00289519 0.00593034 -0.00472956
C 9.56479511 5.50569203 22.00292592 -0.00215890 0.00713324 -0.00102352
C 6.74321494 14.34394038 1.90737130 0.00336845 0.00253130 0.00023861
C 9.93243910 11.35036877 3.09046678 -0.00035871 0.00524936 0.00130566
C 7.04324372 14.36546718 6.57581544 -0.00787294 0.00301728 -0.00057004
C 9.79237955 11.04319641 7.71089277 0.00412991 -0.00114270 0.00087911
C 6.77648817 14.64520787 11.09298594 0.00806318 0.00054991 -0.00430647
C 9.97163478 11.43375704 12.35991504 -0.00497268 -0.00117636 0.00086121
C 7.11339426 14.41861319 15.74362652 0.00395136 -0.00297030 0.00095816
C 10.12030656 11.34384898 17.16763220 0.00091656 -0.00755990 0.00398763
C 6.91156930 14.26985364 20.58610459 0.00453551 0.00515333 -0.00191188
C 9.88914451 11.51159713 21.96813545 -0.00406067 0.00360337 0.00097259
C 6.33443475 20.91945676 1.83529421 -0.00537912 0.00774171 -0.00851384
C 9.35591087 17.81187232 3.05224813 -0.00403880 -0.00567604 -0.00027490
C 6.49467396 20.85357381 6.68668907 0.00196123 0.00120929 0.00332294
C 9.38486879 17.91050026 7.88112447 0.00053544 0.00138299 -0.00149578
C 6.07787802 21.02905623 11.36608312 -0.00377848 0.00306209 0.00282792
C 9.43269975 17.98593168 12.50465994 -0.00058203 -0.00066256 0.00029065
C 6.30065872 20.91596604 16.22415007 0.00581676 0.00848816 0.00013930
C 9.36428924 18.01291074 17.37509224 -0.00239005 -0.00254885 -0.00161386
C 6.30103979 20.92560645 20.84290853 -0.00056323 0.00813525 -0.00448550
C 9.46706686 17.96837468 22.17125716 0.00294547 -0.00396997 -0.00491011
C 5.73066125 27.51731578 1.84489206 0.00011271 0.00601279 -0.00238378
C 8.99055378 24.51157726 2.90835809 0.00048909 0.00247903 0.01048003
C 5.60088308 27.27478294 6.45996030 0.00294336 -0.00305059 -0.00163481
C 8.73528801 24.40472172 7.74761396 -0.01205497 0.00461849 -0.00158989
C 5.48751061 27.44978003 11.23144995 0.00254061 0.00321535 0.00558923
C 8.65134813 24.33612556 12.60856651 -0.00064103 0.00076284 0.00531411
C 5.62478596 27.34142452 15.90931457 -0.00540564 0.00123162 0.00570285
C 8.90550546 24.40520707 17.19013752 0.00247744 0.00443304 -0.00252222
C 5.53523437 27.70768860 20.59241729 -0.00548751 -0.00067373 0.00509732
C 8.89291982 24.80917552 21.92541952 -0.00074645 0.00112397 -0.00040259
C 12.74823008 2.52941058 1.68036411 0.00011755 -0.00580127 0.00516338
C 15.71962175 29.65429415 2.95582638 0.00023860 -0.00285149 -0.00630057
C 12.89685696 2.60486704 6.57486503 -0.00335772 0.00309263 0.00480458
C 15.70431465 29.68297789 7.74951792 0.00191389 0.00297857 -0.00365867
C 12.86905443 2.46377396 11.12757266 0.00752803 -0.00066573 -0.00164045
C 15.92423224 29.62235162 12.43648162 0.00421873 0.00109584 -0.00306002
C 12.66960548 2.78303595 15.82858990 0.00251205 -0.00368530 -0.00744236
C 15.76218974 29.76137015 17.30013199 -0.00074190 -0.00123887 -0.00799894
C 12.52788152 2.65972876 20.74174386 0.00219383 -0.00464547 -0.00317296
C 15.76958129 29.86824986 21.94007747 -0.00433533 -0.00221057 0.00007443
C 13.07577537 8.30231223 1.82891487 -0.00090215 0.00282648 0.00437032
C 16.33174817 5.33879873 2.92436379 0.00535389 0.00465848 0.00496117
C 13.32431841 8.30973624 6.48545304 -0.00308678 0.00668828 -0.00126429
C 16.53315627 5.33885704 7.73968939 -0.00378124 0.00033650 0.00005771
C 13.30353690 7.99610235 11.04153617 -0.00215879 0.00101516 -0.00004919
C 16.36630208 5.23711869 12.47156543 0.00136825 0.00185947 0.00700424
C 13.12899914 8.27327030 15.79384656 0.00019212 0.00174047 0.00099820
C 15.85905125 5.33548156 17.20881703 -0.00104287 -0.00135020 0.00242360
C 13.34213781 8.31402550 20.64038105 0.00482847 -0.00464547 0.00235007
C 16.01726090 5.34755161 21.97406143 -0.00206914 0.00325474 -0.00231511
C 12.65895519 14.78632767 1.72123947 0.00105793 0.00483467 -0.00296336
C 15.67387024 11.67136433 2.71306572 0.01263068 -0.00138285 0.00513025
C 12.61591164 14.95248361 6.38083635 -0.00277967 -0.00511310 -0.00437856
C 15.59083787 12.14426831 7.61870007 -0.00432649 0.00643122 -0.00507396
C 12.46545587 14.88683930 11.12229750 0.00393642 0.00016663 -0.00167505
C 15.73305993 11.78039581 12.40831874 0.00467594 0.00108702 0.00879957
C 12.64582463 14.96451138 15.92485721 0.00318153 0.00086534 0.00507337
C 15.57669794 11.82646886 17.27556732 -0.00025912 0.00419496 -0.00026030
C 12.51035597 15.00744694 20.73656945 -0.00186520 -0.00114449 0.00282471
C 15.67752636 12.15838441 21.86774729 0.00280625 -0.00100502 0.00348911
C 11.83046429 21.54543321 1.63867804 -0.00152238 0.00244829 -0.00818559
C 15.08832485 18.61830075 2.90733469 0.00045572 -0.00496008 0.00807168
C 11.69934097 21.53192179 6.49472729 0.00415069 0.00139232 -0.00278523
C 15.06764455 18.56663177 7.69066593 0.00847553 -0.00029054 0.00575909
C 12.00727164 21.62742227 11.28924414 -0.00050484 -0.00374257 -0.00220375
C 14.97630302 18.56011909 12.46416494 -0.00597293 -0.00089353 0.00588133
C 11.94805590 21.77088794 15.96211884 -0.00097548 0.00654997 -0.00163694
C 15.14269800 18.54655874 17.22814321 -0.00676754 -0.00556863 -0.00158914
C 12.07289625 21.43442250 20.60479227 0.00906730 -0.00372523 0.00062270
C 14.87630179 18.69688563 21.84310154 0.00734980 -0.00402404 -0.00773782
C 12.26563313 27.14525689 1.49432045 0.00883073 0.00475251 0.00099224
C 15.44568995 24.17866452 2.98718128 0.00364521 -0.00182486 0.00070970
C 12.27828256 26.89122519 6.25575510 -0.00256222 0.00234095 0.00277755
C 15.30687076 24.25670901 7.73029610 0.00045716 0.00656052 0.00155492
C 12.34745116 27.16244899 10.90982056 0.00302341 0.00384527 -0.00219461
C 15.46390140 24.03144588 12.44445092 -0.00212957 0.00420130 -0.00361112
C 12.26801573 27.16601266 15.84442273 0.00321508 -0.00324459 0.00458758
C 15.51038830 24.21624025 17.15365006 -0.00513899 -0.00928071 0.00416997
C 12.41136884 27.26782858 20.59957738 0.00023401 0.00166436 0.00227294
C 15.52639371 24.24215969 21.73617326 -0.00544071 -0.00186653 -0.00114890
C 19.29554251 2.24218527 1.75113459 0.00142842 -0.00046096 -0.00145667
C 22.52542093 29.72082789 2.98378847 -0.00188119 0.00100160 -0.00639473
C 19.32779306 2.35582223 6.48657337 -0.00527198 -0.01087678 0.00815651
C 22.53062772 29.09612124 7.84012252 0.00088930 0.00037740 0.00270951
C 19.19911969 2.25248452 11.25762479 -0.00334134 0.00005852 0.00587145
C 22.48990045 29.13584139 12.46952728 -0.00345458 0.00687247 0.00605557
C 19.40123585 2.23602650 15.96465217 -0.00197288 0.00592321 -0.00104779
C 22.17073027 29.49976722 17.01397353 0.00434740 -0.00125002 0.00329671
C 19.45143335 2.44291205 20.43920419 -0.00120554 -0.00231738 0.00168471
C 22.68765834 29.51404784 21.89812424 0.00700197 -0.00085988 0.00381061
C 18.81503359 9.01361586 1.87228065 0.00316971 -0.00694193 0.00070048
C 21.53823903 5.84337659 3.01678908 0.00562960 0.00325436 0.00119925
C 18.50923504 8.84215944 6.55895332 -0.00190965 0.00087938 -0.00145543
C 21.90274399 5.95693986 7.68914354 -0.00028124 -0.00600341 0.00565200
C 19.05530495 8.97062688 11.28475810 0.00478027 -0.00608349 -0.00236125
C 21.65500554 5.86426737 12.35114380 -0.01112978 0.00444803 0.00283249
C 18.83194395 9.06966062 15.87246576 0.00335060 0.00678631 -0.01016425
C 21.80764343 6.07928937 17.17915063 0.00560357 0.00214459 0.00702131
C 18.64997477 8.83803086 20.69622948 -0.00039430 0.00298221 0.00303609
C 21.85403456 5.92710105 21.96756114 0.00200859 -0.00010926 -0.01005109
C 18.06589791 15.50818273 1.73333100 -0.00002898 0.00201568 -0.00435041
C 21.36516330 12.59453227 3.14804658 -0.00346964 -0.00036897 -0.00157631
C 18.03198273 15.61239676 6.48787027 -0.00610230 0.00252874 0.00105937
C 21.33946418 12.52055824 7.78177549 0.00097056 0.00099254 0.00342271
C 17.99441499 15.43337965 11.21886246 -0.00471866 0.00668738 0.00361746
C 21.45179838 12.64740809 12.53975460 -0.00791999 0.00493385 0.00164131
C 18.03603486 15.53253624 15.85203942 -0.00698534 -0.01213910 -0.00019748
C 21.15293385 12.64659045 17.14611408 -0.00195142 -0.00027141 -0.00096921
C 18.05784306 15.86889650 20.40666640 -0.00089228 -0.00294418 0.00263179
C 21.54400280 12.34597702 22.11907159 -0.00366903 0.00078954 -0.00529701
C 18.46946924 21.20888055 1.76707078 0.00424914 0.00061608 0.00185868
C 21.56032078 18.14594998 3.16561190 0.00995211 0.00386950 -0.00816952
C 18.74070263 21.34593472 6.33388856 -0.00136495 0.00028730 -0.00491851
C 21.84138722 18.05329428 7.83729416 -0.00224406 0.00587561 0.00290162
C 18.53902362 21.13974764 11.11077464 -0.00047187 0.00178367 0.00226695
C 21.39713580 18.32477004 12.47032116 0.00023998 0.00145818 -0.00445142
C 18.27926627 21.23258492 15.88025910 -0.00555753 0.00165126 0.00287264
C 21.75750852 18.26422474 17.25838539 -0.00272319 -0.00029889 -0.00518086
C 18.68553438 21.32135489 20.74970667 -0.00238439 0.00266057 -0.00336901
C 21.51459479 18.23964837 21.87050647 -0.00391795 0.00496252 0.00641653
C 19.13884851 26.70585905 1.32210981 -0.00036855 -0.00312488 -0.00458665
C 22.33296886 23.88538451 3.06305004 0.00037215 0.00372352 0.00656792
C 18.94867855 26.79442684 6.21348635 -0.00169344 -0.00473680 0.00184860
C 22.03844636 23.60981271 7.74127787 -0.00083045 0.01163190 -0.00034291
C 19.12544063 26.67449066 11.21316169 0.00429146 -0.00282830 0.00186905
C 22.17996235 23.52106885 12.55276525 0.00162057 -0.00236854 -0.00897957
C 19.05927794 26.94493322 15.88627922 0.00076751 -0.00453572 -0.00671697
C 22.35770333 23.64450059 17.21352106 -0.00429695 0.00327237 -0.00926391
C 19.07245175 26.85904331 20.54840150 -0.00748371 -0.00162396 0.00440622
C 22.22106926 24.03936786 22.03453510 0.00675948 -0.00207489 0.00102039
C 25.00272039 2.95829977 1.61309346 0.00203221 0.00262648 -0.00256198
C 28.29264925 0.00396854 3.14617292 0.00498052 -0.00279193 -0.00515181
C 24.90823559 3.01198623 6.47613985 -0.00048029 0.00039381 0.00132297
C 27.96246318 29.69090578 7.84180638 -0.00127325 -0.00725773 0.00058505
C 24.73809863 3.02222475 11.20713255 0.00866443 -0.00136506 -0.00279094
C 28.19189562 29.88379803 12.72344816 0.00677324 -0.00372066 -0.00123217
C 24.88787227 3.18883816 15.72459275 -0.00159741 0.00073539 -0.00017493
C 28.14737421 0.22149276 17.37927216 -0.00489896 0.00050910 -0.01159095
C 24.91930538 3.29300079 20.61641325 0.00284784 -0.00523916 0.00183366
C 28.17141144 29.81516669 22.03756170 -0.00218429 0.00679158 -0.00122155
C 24.52469850 9.39576483 1.71665875 -0.00682183 -0.00290694 0.00556949
C 27.42286360 6.46271706 3.18081313 -0.00570694 0.00442113 0.00060402
C 23.93586236 9.51630115 6.39373488 0.00077629 -0.00087843 -0.00543419
C 27.66167751 6.61360204 7.92896819 0.00138345 0.00118000 0.00106117
C 24.33102320 9.46398191 11.35075270 -0.00087169 0.00337460 -0.00756855
C 27.33785613 6.57631163 12.47996804 -0.00510489 0.00045746 0.00145902
C 24.27524755 9.50149683 16.00580443 0.00322315 0.00173796 0.00403591
C 27.64646686 6.73095644 17.24317529 0.00164676 0.00420634 -0.00560156
C 24.32484295 9.58780809 20.74713907 0.00321166 0.00590180 -0.01005595
C 27.54048373 6.44351830 21.93911357 -0.00264738 -0.00399925 0.00757569
C 24.75604852 15.28899746 1.62834960 -0.00274362 0.00177670 0.00257237
C 27.99111461 12.05426610 3.11410756 -0.00348949 0.00687779 -0.00315117
C 24.71815288 15.18818320 6.44335050 -0.00269704 -0.00474287 -0.00161969
C 27.90498069 12.06071332 7.87990370 0.00170410 -0.00037730 0.00118907
C 24.68657189 15.29445044 11.34389910 0.00328627 0.00245694 0.00121290
C 27.58166290 12.19281978 12.45996086 0.00147594 0.00061720 -0.00013712
C 24.87344553 15.41535320 15.83738193 0.00256202 -0.00306043 -0.00415141
C 28.19770381 12.12391181 17.32097328 0.00129364 0.00198540 0.00332895
C 24.82583955 15.15431017 20.50945521 -0.00358390 -0.00017664 -0.00406740
C 27.63642970 12.35144374 21.97837288 0.00310604 0.00565579 -0.00239857
C 24.93159527 20.71307413 1.64735967 0.00020201 -0.00425177 -0.00338137
C 28.36623762 17.90023703 2.94989875 -0.00094664 -0.00429087 0.00356171
C 25.10670134 20.82072343 6.39168756 0.00286908 -0.00841393 -0.00146555
C 28.11695967 17.83532073 7.86691770 -0.00225167 -0.00259187 -0.00563271
C 25.29181616 20.70989280 11.23848264 -0.00444145 0.00591123 -0.00027247
C 28.64113452 17.77117912 12.57145162 0.00232294 0.00116747 0.00269932
C 25.37287946 20.69569736 15.91392917 -0.00216780 0.00068373 0.00094710
C 28.29056892 17.76237669 17.23681161 -0.00410222 0.00084068 0.00642881
C 25.05290906 20.68710714 20.64628107 -0.01001567 0.00029275 -0.00904084
C 28.35971653 17.89383156 22.03029348 -0.00040207 0.00661446 0.00204502
C 25.65827365 26.45446461 1.84068270 -0.00217060 0.00143283 -0.00098430
C 28.60497202 23.49091133 3.00921834 0.00419598 -0.00251328 -0.00601087
C 25.63952158 26.11917567 6.59423341 0.00138574 0.00231713 0.00000769
C 28.81533417 23.29708315 7.74684479 -0.00247828 -0.00029961 -0.00803141
C 25.50146916 26.27284790 11.24681925 -0.00229294 -0.00021979 0.00263913
C 28.75016173 23.55104662 12.53522335 -0.00191628 0.00306650 -0.00229796
C 25.56495336 26.28873064 15.95561634 0.00523007 0.00577695 -0.00022599
C 28.67109842 23.26863029 17.26656499 -0.00473221 0.00130725 -0.00094200
C 25.67153744 26.50773141 20.65352003 0.00380311 -0.00233683 0.00769716
C 28.84854759 23.38016118 22.01569919 -0.00427556 -0.00917634 0.00003145
N 31.17396860 4.54792392 0.86549661 -0.00319846 0.00918566 0.00255751
N 3.46141575 5.24823990 3.68319784 -0.00286259 -0.00172945 -0.00163841
N 5.12986850 2.44909297 0.86613793 0.00622542 0.00167820 -0.00066091
N 1.66831508 1.19453078 3.94988140 0.00182641 0.00068434 -0.00175989
N 31.06787760 4.36976835 5.94111219 0.00710273 0.00119552 0.00222665
N 3.42729130 5.29067175 8.66902030 -0.00046479 0.00155202 -0.00125877
N 5.16941992 2.26059103 5.67252327 -0.00094105 -0.00339572 -0.00388770
N 1.44007103 1.03330959 8.25708252 -0.00375341 -0.00050989 -0.00037838
N 0.15102489 4.47690561 10.63091254 0.00891310 0.00275090 -0.00707701
N 4.11894230 5.86574645 13.06599855 0.00117165 -0.00489154 0.00422055
N 5.43160967 2.14279128 10.45474503 0.00672982 -0.00441355 0.00005425
N 1.41899427 1.35488924 13.36334832 -0.00855114 -0.00262230 -0.00213154
N 0.11764398 4.65238682 15.32333651 0.00020649 -0.00002915 -0.00897691
N 3.41408474 5.38274462 17.90046592 0.00232052 -0.01117683 -0.00206368
N 5.48248084 2.15697027 15.38019213 -0.00225924 0.00044436 0.00175453
N 1.72228232 1.27969619 18.12235736 0.00254692 0.00291789 -0.00638254
N 31.15116382 4.49409121 20.03422702 -0.00307714 -0.00107928 0.00209382
N 3.46655977 5.32541301 22.46395685 0.00263218 -0.00285753 -0.00148832
N 5.05660312 2.58637136 20.06878997 0.00190951 0.00563460 -0.00119268
N 1.58211685 1.49085668 22.81969387 0.00393925 -0.00260266 -0.00781388
N 0.43911462 9.80648673 1.08752963 0.00481288 0.00864630 -0.00215377
N 3.98682875 10.74277903 4.09339096 0.00004738 0.01149237 -0.00325794
N 5.57886967 7.97262693 0.81764962 0.00009340 0.00132387 -0.00893450
N 1.96965064 7.06775979 3.77389777 -0.00604587 0.00091453 -0.00082092
N 0.48570936 10.22022163 5.88343803 0.00268280 -0.00149099 0.00406659
N 3.80711548 10.92086923 8.51107140 -0.00590746 -0.00642314 -0.00095347
N 5.41096023 7.86922415 5.61428949 0.00059386 0.00185050 -0.00251822
N 2.08947618 7.14138370 8.56628085 0.00022365 -0.00278168 0.00413345
N 0.74171733 10.14909329 10.53058399 0.00506420 0.00537105 0.00270627
N 4.43658519 11.17297956 13.39528130 -0.00220252 -0.00277207 -0.00533591
N 5.68481596 7.88404771 10.35674733 -0.00453380 0.00407552 0.00785118
N 2.34621885 7.37091823 13.42139106 -0.00227990 -0.00366317 0.00492287
N 0.64113477 9.90614104 15.17976977 -0.00577029 -0.00622750 0.00009505
N 3.88866581 10.82175507 17.89648809 0.00511985 0.00192132 -0.00205411
N 5.89150527 8.17189304 15.25145967 0.00519987 0.00288934 0.00002407
N 2.08720479 7.25775677 17.85692620 0.00415499 0.00280788 -0.00410155
N 0.70490569 10.34544836 19.71772436 0.00211442 0.00116380 0.00315835
N 3.79932145 10.83773152 22.65417409 -0.00122540 -0.00344342 0.00099721
N 5.80437575 7.73734058 20.10985795 0.00024872 0.00011401 0.00560871
N 2.02639243 7.12667078 22.79971338 -0.00352461 0.00507742 -0.00130194
N 1.17145282 15.32091414 1.08096643 -0.00018384 0.00374899 0.00302786
N 4.78894055 16.82081815 3.81633734 -0.00032479 0.00327133 -0.00517489
N 5.91015425 13.69962091 1.07460158 0.00336290 0.00183882 0.00224313
N 2.58601244 12.62197675 3.99726843 -0.00060527 0.00264349 -0.00362881
N 0.83244701 15.95832613 5.71538686 -0.00183003 0.00091170 0.00263658
N 4.59851085 16.76057517 8.49103862 0.00070496 0.00675229 -0.00667408
N 6.15806975 13.44063332 5.92756560 0.00677984 -0.00402502 0.00873877
N 2.85372999 12.97810628 8.77154947 -0.00310107 -0.00232728 0.00004517
N 0.94251979 15.57472237 10.33651681 0.00122329 -0.00079511 0.00375191
N 4.80975173 17.07195412 13.42168454 -0.00099931 0.00276264 0.00097703
N 6.08975640 13.54742230 10.51087656 -0.00191170 0.00591034 0.00285133
N 2.61591063 12.57856283 13.17873649 0.00382336 0.00098524 -0.00299364
N 1.17124703 15.63700408 15.51226382 -0.00055512 -0.00210183 -0.00560706
N 4.40357336 16.53714416 18.25107036 0.00229582 -0.00323912 -0.00006513
N 6.13589978 13.66798552 15.11193439 -0.00473698 0.00496402 -0.00141313
N 2.66886289 12.84390019 18.09166499 0.00369744 0.00569890 0.00141946
N 0.88551046 15.72431977 19.90182098 0.00338862 0.00391086 0.00479664
N 4.76737136 16.70925999 22.66987077 -0.00433196 0.00123542 -0.00231060
N 6.08574080 13.50031540 19.85073105 0.00400645 0.00552595 0.00088227
N 2.61384261 12.79305223 22.82479309 -0.00179471 0.00375280 0.00087512
N 1.75236818 20.83048218 1.12388207 0.00639704 0.00141093 0.00169451
N 4.18161991 23.21485771 3.77641483 -0.00143410 0.00468668 -0.00348042
N 5.64527255 20.02139837 1.13891296 -0.00433141 0.00154391 0.00450932
N 2.91056118 18.12551746 3.74810195 -0.00096651 -0.00603110 0.00551334
N 1.54856612 20.88496145 5.98148823 -0.00049788 0.00398949 -0.00374882
N 4.25299440 23.35056387 8.75309206 0.00922490 0.01008782 -0.00014885
N 5.63018077 20.07661408 5.93996978 0.00089449 -0.00047210 -0.00051528
N 2.88175315 18.32675208 8.71634699 0.00007901 0.00049197 0.00392585
N 1.22933367 21.22669653 10.65443542 -0.00227671 -0.00234592 0.00407353
N 3.82117621 23.24984585 13.54553248 -0.00033044 -0.00090117 -0.00212214
N 5.15107149 20.30783962 10.69882668 -0.00040453 -0.00465359 -0.00101273
N 2.69409765 17.92358249 13.42685029 -0.00281585 0.00200813 -0.00046703
N 1.33103481 21.28806534 15.52134037 -0.00055818 -0.00002797 -0.00218997
N 4.09009987 23.35991465 18.22412586 -0.00510921 0.00017453 0.00566252
N 5.45098707 20.15964836 15.56788154 0.00303094 -0.00081416 -0.00279488
N 2.93239850 18.34386443 18.02565789 0.00639681 -0.00015727 0.00294520
N 1.31985512 21.04282111 20.15567094 0.00025982 0.00092550 -0.00068251
N 4.16145524 23.22586398 22.69486199 0.00199747 -0.00645113 -0.00149208
N 5.33914960 20.32379551 20.05189329 -0.00225966 -0.00653894 0.01100264
N 2.83494743 18.09824404 22.97140998 -0.00573804 0.00640594 -0.00292847
N 0.85570126 27.81459066 1.19012749 -0.00156842 -0.00142629 0.00305824
N 3.35726392 29.45835115 3.82670725 -0.00032685 0.01033139 0.00473892
N 4.71876968 26.81323350 1.13476044 -0.00092467 -0.00495896 0.00266831
N 2.02339087 24.06909821 3.95289352 0.00099797 -0.00837280 -0.00177860
N 0.87127067 27.68472626 5.95040506 0.00008841 -0.00211351 0.00047615
N 3.05841417 29.37969928 8.69460417 0.00193429 -0.00196508 -0.00350773
N 4.98498312 26.57884032 5.48808403 0.00001693 0.00129582 -0.00394225
N 2.20950471 24.34911728 8.42938422 -0.00070891 -0.00318824 0.00313555
N 0.89944319 27.59498358 10.66980594 -0.00074230 -0.00380670 0.00268384
N 3.34292727 0.04024041 13.10216175 0.00029807 0.00001140 0.00246852
N 4.89181599 26.46004762 10.43457683 -0.00363901 0.00652495 0.00535511
N 1.91089665 24.59573162 13.36007293 0.00091755 -0.00333834 -0.00307351
N 0.94634708 27.87747119 15.17260351 0.00158484 -0.00068937 0.00255327
N 3.46943264 29.68158396 17.95979725 -0.00088511 -0.00076955 0.00034487
N 4.74592765 26.62539681 15.14462496 -0.00155936 -0.00260677 -0.00678513
N 2.01050517 24.39295728 17.92468566 0.00060754 -0.00736815 -0.00390129
N 0.81712932 27.61828228 19.95878021 0.00694799 0.01359848 -0.00419533
N 3.20949564 29.89758786 22.82895023 -0.00007955 0.00511014 -0.00406434
N 4.71604829 26.92020101 19.79576817 -0.00008829 0.00003283 0.00491263
N 2.19575207 24.30265206 22.67707254 0.00704106 -0.00178629 0.00499867
N 6.90697171 4.00342639 0.92027281 0.00167832 0.00399437 -0.00168920
N 10.38247853 4.98427835 3.76788265 0.00360630 0.00023639 -0.00307712
N 11.94005760 1.77588085 0.88664449 0.00160359 0.00606930 0.00572351
N 8.37146732 1.13919472 3.71386769 0.00277894 -0.00140786 0.00028428
N 6.62925795 4.03691811 5.71701693 0.00346205 0.00177741 -0.00223665
N 10.11134154 4.59901935 8.56193320 -0.00488904 -0.00197865 -0.00410769
N 11.99198433 1.98805680 5.82681393 -0.00058828 -0.00010712 0.00483824
N 8.47995966 0.93350997 8.47507386 0.00204256 -0.00118535 -0.00293346
N 6.66617424 4.10889071 10.53128829 -0.00357028 0.00552608 -0.00581265
N 10.46336535 4.84625825 13.34478877 -0.00047373 0.00792545 0.00138748
N 12.07338646 1.58584110 10.39977096 -0.00369769 0.00144040 0.00031583
N 8.66945774 1.08216621 13.28824764 0.00303622 0.00718006 0.00666380
N 6.42789774 4.31015291 15.24942590 0.00121846 -0.00769006 0.00749650
N 10.46533579 4.99140175 17.81328538 0.00444682 -0.00161297 0.00190881
N 11.89340422 1.86327599 15.18483491 0.00435706 0.00620887 -0.00026577
N 8.52415696 1.38833400 17.71414005 0.00747817 -0.00186098 0.00041198
N 6.93441451 4.01972562 19.98005640 0.00126768 -0.00009930 0.00807702
N 10.42759555 4.70257470 22.71956818 0.00020430 0.00526794 0.00111746
N 11.74494245 2.02849659 19.77609576 -0.00399869 -0.00060545 -0.00249977
N 8.24014271 1.03829387 22.68661363 0.00549133 -0.00211005 0.00158657
N 6.97315850 9.84319411 0.86111142 0.00293454 0.00040062 0.00668719
N 10.50354722 10.36347990 3.84182258 0.00212901 0.00121423 0.00069886
N 12.29986993 7.56399200 0.98840802 0.00516251 -0.00297488 -0.00036232
N 8.85396736 6.82597108 3.80771021 -0.00424227 0.00131661 -0.00325589
N 6.98383267 9.56538464 5.49945516 -0.00011525 0.00195683 -0.00111666
N 10.67744358 10.15579817 8.12108923 -0.00364354 0.00580114 -0.00323693
N 12.58074915 7.38768376 5.81767646 -0.00843755 -0.00494008 0.00222305
N 9.00860744 6.62803754 8.51447278 0.00601814 0.00186570 0.00041224
N 7.28425687 9.53255278 10.20949585 -0.00143576 -0.00093113 0.00257654
N 10.98240958 10.78287463 12.98293103 0.00910669 0.00190116 -0.00545919
N 12.50059133 7.17274564 10.29388193 -0.00168498 -0.00211007 -0.00372227
N 9.28905540 6.89176887 13.26302891 -0.00496542 0.00160311 -0.00136603
N 7.58707977 9.66790421 15.21471071 -0.00093831 0.00850091 -0.00793223
N 10.83049810 10.52871635 17.98227533 -0.00305005 0.00111071 -0.00968000
N 12.35498089 7.50085677 15.05225515 0.00417447 -0.00446420 0.00955749
N 9.37956148 6.99535575 18.23429185 -0.00267788 -0.00014750 0.00735103
N 7.15967413 9.71454565 19.95623613 -0.00236702 0.00408603 0.00714287
N 10.67418893 10.68054052 22.61790433 0.00025963 0.00086869 0.00138295
N 12.33442959 7.53825506 20.13879948 0.00252870 0.00378644 -0.00073697
N 8.83854526 6.38882234 22.70984094 -0.00168041 0.00658354 0.00127243
N 7.79447645 15.05015540 1.30882126 0.00145769 -0.00593086 0.00014100
N 10.24391542 17.02596874 3.75897461 -0.00317676 -0.00015523 -0.00621284
N 11.69420315 13.98760355 1.15338262 0.00435638 -0.00368672 -0.00324047
N 9.08500704 12.13516597 3.72641448 0.00841063 0.00671854 0.00404811
N 7.48650041 15.26199774 5.67200641 0.00542030 0.00005589 -0.00181870
N 10.47511181 17.50234682 8.60711705 0.00156245 0.00008929 0.00131172
N 11.78693934 14.26824162 5.63206740 -0.00138053 -0.00267719 0.00221548
N 8.99122181 11.63592720 8.66786978 -0.00304721 -0.00437362 -0.00041502
N 7.67210727 15.30880180 10.34608084 0.00156925 -0.00169452 0.00235438
N 10.22354308 17.28746462 13.30404556 -0.00079414 -0.00386972 0.00212297
N 11.58064614 14.07969963 10.45868695 -0.00123151 0.00130357 -0.00476203
N 9.22631856 12.32187173 13.14427806 -0.00522280 0.00328597 -0.00077787
N 7.70689324 15.35087138 14.93137491 -0.00166373 -0.00578335 0.00264537
N 10.50203776 17.44417737 17.91275544 -0.00268132 0.00250352 0.00041726
N 11.82576058 14.12507287 15.17336407 -0.00622480 -0.00122234 -0.00282888
N 9.26546262 12.12200161 17.82490352 0.00071128 0.00314155 -0.00243482
N 7.70530083 15.19456700 19.93797190 0.00520305 0.00029225 0.00236023
N 10.22791120 17.06304565 22.86379893 0.00069773 -0.00425822 -0.00970305
N 11.85959400 14.06905771 20.06149873 0.00237041 0.00118566 -0.00118594
N 8.95767674 12.18019279 22.68761125 0.00167359 -0.00272155 0.00155907
N 7.06692122 21.89083607 1.10156480 -0.00496594 -0.00150802 0.00376704
N 9.68328065 23.60366614 3.60276985 -0.00598809 0.00003511 0.00345051
N 11.01300702 20.67258832 0.96400225 -0.00335002 -0.00341455 -0.00411685
N 8.36381156 18.40712319 3.71872067 -0.00397745 0.00630840 0.00686680
N 7.32535455 21.77601736 5.94763241 -0.00194503 0.00197305 0.00318765