2000
Time=68000.00000006 pbc="T T T" Lattice="31.02445807 0.00000000 0.00000000 0.00000000 29.94086130 0.00000000 0.00000000 0.00000000 23.74229308" energy=-12040.94367933 virial="1.74919061 -36.71459319 -13.78190452 -36.71459319 -9.88445364 17.96072054 -13.78190452 17.96072054 -14.83213398" stress="0.00224601 -0.00167919 -0.00067642 -0.00167919 0.00174033 0.00098434 -0.00067642 0.00098434 0.00201384" Properties=species:S:1:pos:R:3:vel:R:3
C 30.74308100 3.79406654 1.75265774 0.00349105 -0.00082516 0.00493479
C 2.53243021 0.57521621 3.03962828 0.00204944 0.00928041 0.00403934
C 30.64661886 3.70446206 6.53395705 0.00115708 0.00327518 -0.00057506
C 2.16320571 0.53732353 7.83928101 0.00325466 0.00702056 -0.00170947
C 30.38069653 3.74869491 11.37666371 -0.00090149 0.00129180 -0.00396567
C 2.38395640 0.39373186 12.61643836 -0.00014280 -0.00507826 -0.00375598
C 30.37664472 3.63117012 15.94630176 0.00522807 0.00700840 0.00526418
C 2.54260694 0.46956235 17.32615261 -0.00358497 -0.00183215 -0.00306665
C 30.25844705 3.78821915 20.74799684 -0.00181263 -0.00450853 0.00167509
C 2.69862700 0.58092045 22.08988892 -0.00456019 0.00219641 -0.00609603
C 30.75445091 9.21386745 1.68599679 -0.00071770 -0.01175436 0.00271442
C 2.72602840 6.33223987 3.08832733 0.00175919 0.00149874 0.00265672
C 0.05059437 9.40062499 6.57565267 -0.00000299 -0.00945926 -0.00708350
C 2.87385627 6.15284356 7.88484541 -0.00413600 0.00049923 0.00174746
C 0.07065847 9.11705906 11.39613309 -0.00073195 -0.00295953 -0.01350560
C 3.01065246 6.04230070 12.61821628 -0.00094588 0.00565627 0.00047604
C 30.70875692 9.20004098 16.08653338 0.00470588 0.00379996 -0.00698200
C 2.73049943 6.10074463 17.31711769 -0.00206854 -0.00246236 0.00100483
C 30.82586287 9.16603414 20.57247273 0.01061031 -0.00178011 0.00745117
C 2.85391236 6.21908151 22.00851600 0.00321934 0.00287862 -0.00126037
C 0.11650273 14.72101991 1.80349023 -0.00024844 -0.00853928 0.00193753
C 3.52012789 11.92930667 3.19179167 -0.00428441 -0.00335786 0.00296762
C 0.09987591 14.67397164 6.58066940 0.00097963 -0.00418638 0.00152791
C 3.43101511 11.87056194 7.87340826 -0.00031168 0.00189122 0.00749887
C 0.01904994 14.69186864 11.30883629 0.00196939 -0.00167681 0.00167080
C 3.48733796 11.73916938 12.57813919 -0.00192509 -0.00398794 -0.00107525
C 0.05357819 14.73547907 15.92722351 -0.00156852 -0.00185807 0.00145529
C 3.45074752 11.95139134 17.41109810 0.00163755 0.00375362 0.00258255
C 0.18461114 14.76731420 20.68217068 -0.00301592 0.00192980 -0.00138279
C 3.42208350 11.64059016 22.14086184 0.00784830 -0.00249500 0.00067219
C 0.81694493 20.28324193 1.77059234 -0.00337506 0.00297014 0.00385405
C 3.64243736 17.12487788 3.05385435 -0.00299999 -0.00698533 -0.00173168
C 0.68802157 20.54023294 6.41828303 -0.00085395 0.00050794 -0.00084817
C 3.77355929 17.10102173 7.81517419 0.00514887 -0.00092908 -0.00549916
C 0.83755734 20.32180831 11.30097611 0.00520386 0.00573891 -0.00736674
C 3.72098564 17.38239364 12.79812287 -0.00056954 -0.00088263 -0.00083531
C 0.52194656 20.50243186 16.13163329 -0.00668897 0.00060498 -0.00599595
C 3.56389841 17.20625852 17.29148065 -0.00014549 0.00187168 -0.00523404
C 0.61176054 20.44852165 20.72378329 0.00159883 -0.00186689 0.00258170
C 3.79725442 17.38874770 22.07925658 -0.00332321 -0.00458294 0.00038495
C 0.20381743 26.76366237 1.61752198 0.00872177 -0.00743069 -0.00672128
C 3.16593398 24.00817635 3.26436720 -0.00179102 0.00501277 0.00077494
C 31.02163889 26.91154365 6.31760610 0.00196547 0.00069595 -0.00658079
C 2.98057088 23.94259405 7.81589857 -0.00227458 0.00345756 -0.00761209
C 30.79534368 26.96323061 11.19852346 0.00603024 -0.00770667 -0.00028337
C 3.00506824 23.87067460 12.46331019 0.00084950 -0.00447092 -0.00198095
C 30.98638087 26.82222989 16.10920659 -0.00004824 0.00077215 0.00040041
C 2.87203330 23.94983252 17.42707532 -0.00130591 -0.00245836 -0.00159715
C 0.11473749 26.68123113 20.76611160 0.00005304 -0.00407090 -0.00660000
C 3.21348071 23.70645776 22.09103749 -0.00365663 0.00062315 0.00609134
C 5.87508964 3.20255261 1.67096635 -0.00234152 -0.00019348 -0.00224068
C 9.18089814 0.25136546 2.75600164 0.00530455 -0.00650106 0.00357418
C 6.05034672 3.16666171 6.27023165 -0.00271490 -0.00348379 0.00197601
C 8.78082287 0.35564898 7.60100519 -0.00079873 0.00167570 -0.00048720
C 6.13411343 2.96432839 11.05240256 0.00405381 -0.00697927 0.00171580
C 9.17102491 0.41947653 12.34064303 0.00119187 -0.00829942 0.00127343
C 5.99173527 3.11260493 15.89072247 0.00177521 -0.00322622 -0.00002603
C 8.79334195 0.21542490 17.25812788 -0.00168374 0.00013085 0.00224685
C 5.94072259 3.25827890 20.50449493 0.00630632 -0.00302699 -0.00939382
C 8.96407605 0.13047793 21.86953674 -0.00050233 0.00138522 -0.00540174
C 6.45370114 8.73128559 1.67068891 -0.00023091 0.00422883 -0.00218287
C 9.42277519 5.73107921 2.97628152 0.00117968 -0.00309402 -0.00282429
C 6.20623930 8.65440785 6.45356888 -0.00455596 -0.00291514 0.00055880
C 9.44501744 5.90405021 7.88162402 0.00000014 0.00378260 -0.00356944
C 6.45234524 8.50568247 11.28269250 -0.00605560 -0.00147635 0.00184166
C 9.76384267 5.70658228 12.54484343 0.00104097 0.00045230 -0.00137443
C 6.58120057 8.54669172 15.96795417 -0.00146128 0.00001883 -0.00193832
C 9.15652897 5.58239853 17.26795926 0.00179153 0.00085601 0.00454081
C 6.41782156 8.73078711 20.61312418 -0.00063984 0.00221008 0.00254296
C 9.63175269 6.00257857 22.06443533 -0.00561929 0.00509243 0.00464683
C 6.73612705 14.30367839 1.76407966 -0.00609514 -0.00273235 0.00482029
C 9.87398774 11.15805418 3.11027134 0.00341190 -0.00727726 0.00137854
C 6.73492225 14.47786467 6.55822342 0.00575062 -0.01072181 0.00584337
C 10.23275044 11.33908745 7.94974662 -0.00329269 0.00866353 0.00264076
C 6.99179178 14.27093644 11.37842646 0.00014375 -0.00015522 -0.00033539
C 10.35036463 11.43085389 12.76477226 0.00071189 -0.00119448 -0.00116680
C 6.89305284 14.14482495 15.99299119 -0.00342532 0.00155701 -0.00245034
C 9.80800500 11.21725704 17.27735077 0.00095160 -0.00219740 0.00175908
C 6.81771471 14.29383824 20.74972449 -0.00016338 -0.00603735 -0.00381041
C 10.08202554 11.34015341 22.10520418 -0.00022585 -0.00091549 0.00180563
C 6.52430936 20.87366906 1.68141771 0.00122425 -0.00847867 0.00603581
C 9.33844786 17.85288631 3.06636729 0.00470001 -0.00707602 0.00340397
C 6.26355728 20.95542503 6.43704164 0.00457318 0.00900113 -0.00363748
C 9.11974888 17.94472810 7.79203414 0.00016505 0.00245018 0.00409273
C 6.17376575 21.09304724 11.12632171 0.00586394 0.00140301 0.00561368
C 9.19050536 17.83114327 12.62766988 0.00152086 -0.00187654 -0.00489767
C 6.07138315 20.82398931 15.94192983 -0.00519441 0.00452175 -0.00034965
C 9.33732743 18.03985361 17.32001269 -0.00149539 0.00526545 0.00530067
C 6.10338381 20.76205967 20.53790576 -0.00211934 0.00787613 0.00153029
C 9.40253998 17.71491792 22.00979421 0.00445116 -0.00689660 -0.00737946
C 5.62735966 27.36115608 1.63116241 0.00170392 -0.00441551 -0.00033112
C 8.47979372 24.52376521 3.08032001 -0.00308849 0.00360390 0.00144065
C 5.85281056 27.62853280 6.50477850 0.00139444 0.00475276 0.00092994
C 8.73330927 24.88560004 7.93759368 0.00177787 0.00099093 -0.00207312
C 5.46704069 27.55480831 11.23330432 -0.00279834 0.00369647 0.00472546
C 8.82255771 24.40085387 12.46426805 -0.00104483 -0.00004233 -0.00121045
C 5.49935177 27.34419584 16.01284808 0.00533019 0.00124294 -0.00703931
C 8.67570741 24.17101598 17.15141365 -0.00303138 0.00168634 -0.00411584
C 5.52224411 27.62273436 20.77922764 -0.00038956 -0.00113423 -0.00289160
C 8.76590505 24.39438747 22.01097824 -0.00111842 -0.00223305 0.00240897
C 12.70880374 2.78961605 1.58641769 0.00195146 0.00177184 0.00144098
C 15.45864020 29.78998947 2.83512424 -0.00044400 0.00460789 -0.00247981
C 12.39267897 2.68095349 6.31134394 0.00361027 -0.00596759 0.00179794
C 15.60839660 29.88179201 7.69622935 -0.00333344 -0.00047013 -0.00116270
C 12.73786646 2.84610545 10.94042371 -0.00672437 -0.00105219 0.00078326
C 15.77197521 29.62778969 12.39547036 0.00166646 0.00225483 0.00242424
C 12.67174255 2.64262366 15.85112384 0.00234192 0.00093871 0.00272179
C 15.63974317 29.66731076 17.14842752 0.00065321 -0.00140143 0.00423094
C 12.45267232 2.45391455 20.48921457 -0.00190603 0.00172452 0.00532022
C 15.52846859 29.54305308 21.83296447 -0.00008712 -0.00284705 0.00111047
C 12.95150560 8.46059410 1.68502784 -0.00425123 0.00164978 -0.00403706
C 15.99482430 5.38199683 2.85726119 -0.00744563 -0.00738554 0.00272875
C 13.11385877 8.25882253 6.52612137 0.00025197 -0.00069458 -0.00461723
C 16.26971659 5.62076030 7.61973393 0.00312209 0.00193057 0.00092560
C 13.35958358 8.44339915 11.27663421 0.00204027 -0.00068246 0.00285677
C 16.01740409 5.47224264 12.46528688 -0.00400002 -0.00340656 0.00512233
C 13.11698296 8.29251630 15.97768489 -0.00109349 -0.00160977 0.00099254
C 16.25248928 5.08410430 17.14984273 -0.00289378 0.00358069 0.00369688
C 13.13237471 8.34368875 20.68817392 -0.00069454 -0.01330459 -0.00425110
C 16.08476387 5.36390302 21.85137678 -0.00016624 -0.00360735 0.00411824
C 12.51986030 14.86978546 1.85552633 -0.00109549 0.00557077 0.00542505
C 15.58539244 12.23963854 3.18086759 0.00530823 0.00041404 -0.00363140
C 12.25986080 15.03895762 6.46119327 -0.00282561 0.00335099 -0.00357662
C 15.48670286 11.83513041 7.92229043 0.00097308 -0.00456663 -0.00065375
C 12.17673508 14.89434558 11.25619399 0.00596305 -0.00178741 0.00716904
C 15.45470127 12.39813349 12.57417371 0.00455319 0.00377776 0.00486949
C 12.55973608 15.00080354 16.10934622 0.00158292 -0.00050887 0.00256139
C 15.42880020 11.90497801 17.47145120 -0.00122066 0.00261345 -0.00285190
C 12.52660262 15.35297243 20.79050988 -0.00337646 0.00374089 -0.00562767
C 15.53529532 12.05151784 22.05819813 -0.00166089 0.00658594 0.00002527
C 11.72970192 21.34211450 1.53980440 -0.00835412 -0.00048374 -0.00114510
C 14.97416564 18.45419314 2.97047666 -0.00671635 -0.00118871 -0.00121641
C 11.81497320 21.33320928 6.25736119 0.00530984 0.00509637 0.00310776
C 15.09932587 18.69166179 7.67468785 0.00121151 0.00097967 0.00547561
C 11.43478196 21.22999969 11.10783470 0.00096101 0.00184732 -0.00323421
C 15.14991293 18.81917960 12.33148773 -0.00017740 -0.00081521 0.00447156
C 12.00939630 21.45713428 16.10178503 -0.00068952 -0.00732834 -0.00256383
C 15.02209100 18.73447216 17.13638856 0.00214770 0.00408161 0.00113478
C 12.02133270 21.58618153 20.64135781 0.00337588 0.00160310 0.00107944
C 15.15958387 18.16853572 21.95101513 -0.00350572 -0.00752939 -0.00201858
C 12.26210976 27.22772477 1.43139689 -0.00317481 0.00152396 -0.00244619
C 15.17504286 24.14329265 2.83057441 -0.00413337 -0.00406149 0.00107313
C 12.02117802 27.30842642 6.20538556 -0.00174293 -0.00488779 0.00004900
C 15.19376410 24.28139681 7.74143399 -0.00412359 0.00120298 0.00152737
C 12.05721410 27.12408886 10.94171249 -0.00304377 0.00012078 0.00318186
C 15.36626367 24.38047243 12.34898586 0.00154723 -0.00611109 -0.00134525
C 11.96234137 27.14106794 15.82509922 0.00125291 -0.00337418 0.00104296
C 15.27342227 24.31381173 17.15088978 -0.00072296 -0.00389912 0.00028993
C 12.06563512 27.11590352 20.54980505 0.00328318 -0.00116791 -0.00085013
C 15.34126663 24.37858276 21.93768923 -0.00451125 -0.00067706 -0.00034634
C 19.07510714 2.32286986 1.65366491 -0.00088564 -0.00053145 0.00312739
C 22.15309948 29.45750022 2.94684084 -0.00286638 0.00403869 0.01018447
C 19.08660372 2.42774997 6.42031268 -0.00093231 -0.00018894 0.00246728
C 22.52856518 29.53164027 7.71599296 -0.00093159 -0.00431531 0.00574754
C 19.23728231 2.42753441 11.09055222 -0.00238958 -0.00109753 -0.00396065
C 22.33289795 29.49182500 12.50023122 0.00292586 -0.00140326 0.00345225
C 19.24654617 2.48504318 15.94109972 -0.00733959 -0.00487005 -0.00162719
C 22.11580954 29.32548211 17.10444067 -0.00184926 0.00239536 0.00310215
C 19.45966216 2.30158726 20.69036732 0.00271015 0.00047636 -0.00031644
C 22.10891681 29.33838695 21.87456780 0.00482740 0.00978311 0.00457200
C 18.47844073 9.03240545 1.77687637 0.00135114 0.00170012 0.00594152
C 21.75813677 5.94851725 3.21366315 -0.00354447 0.00212426 -0.00185202
C 18.86113992 8.98193598 6.44720761 0.00491407 0.00115830 0.00222509
C 21.95924936 6.02423619 7.74030769 -0.00303197 0.00494799 -0.00194928
C 18.75903630 8.92729773 11.28126494 -0.00033160 0.00188464 0.00484833
C 21.90781921 5.81028884 12.63695287 0.00416287 -0.00069988 -0.00187455
C 19.07136231 8.97972009 16.08663688 0.00643706 0.00090455 -0.00009403
C 21.69335479 5.93089407 17.36678551 -0.00432994 -0.00058525 0.00365336
C 18.38624749 8.91151810 20.70047496 -0.00388727 0.00734327 0.00371013
C 21.53464544 6.06561232 22.10814243 0.00300242 -0.00862861 0.00688920
C 18.10111294 15.63198033 1.85087545 -0.00056056 0.00242854 0.00225913
C 21.29467968 12.21509694 3.05260621 -0.00061463 -0.00294989 0.00016250
C 17.98826070 15.53229802 6.50308973 0.00311639 -0.00108287 -0.00056581
C 20.95024422 12.39482980 7.85133289 -0.00417246 -0.00282922 -0.00248558
C 17.99702501 15.63767236 11.26856766 0.00746986 -0.00332627 -0.00839186
C 21.15743956 12.42009317 12.47188436 0.00954696 0.00399551 -0.00239853
C 18.08176367 15.54015209 15.96720930 -0.00765320 -0.00462576 0.00056386
C 20.81605072 12.46982589 17.38817564 -0.00056937 -0.00570830 0.00626090
C 18.17860985 15.74863611 20.67556167 -0.00627561 -0.00354227 0.00126647
C 21.08976938 12.39974500 22.11287658 -0.00091060 0.00067579 0.00152917
C 18.51464197 21.19594155 1.60598865 -0.00215743 -0.00514064 0.00013323
C 21.47211704 18.18995289 3.38846200 -0.00486839 0.00080890 -0.00389144
C 18.54672412 21.34881548 6.39669770 -0.00251756 0.00183104 0.00138043
C 21.53428314 18.06262059 7.97362234 0.00201705 0.00165687 -0.00084629
C 18.42179257 21.43969979 10.90719543 0.00358587 -0.00818349 -0.01205584
C 21.45526330 18.43405537 12.81261855 -0.00717526 0.00055138 0.00001074
C 18.49292599 21.56422479 15.73426176 -0.00488748 -0.00282534 0.00225947
C 21.68698002 18.33722303 17.50716272 0.00341247 -0.00138870 -0.00492892
C 18.56192235 21.34512465 20.43776116 0.00071491 0.00219553 -0.00706169
C 21.47927750 18.40172235 22.06338864 -0.00270768 0.00491505 0.00380809
C 18.56357876 26.76001750 1.45424324 -0.00373425 -0.00093498 0.00428440
C 21.95414528 23.83790356 2.96415360 -0.00236432 0.00409371 0.00075307
C 18.40874124 26.94591574 6.38582113 -0.00012651 -0.00498795 0.00286156
C 21.83993225 23.88675494 7.80539477 -0.00398172 0.00672926 0.00556677
C 18.78502567 26.72588615 11.02037171 0.01339066 0.00218537 -0.00304099
C 22.10904251 23.90823978 12.30763664 0.00709434 -0.00661721 -0.00471203
C 18.72461384 26.82795383 15.77888434 0.00588964 0.00571207 -0.00309141
C 21.89894401 23.99729582 17.40025539 0.00541507 -0.00394394 -0.00068085
C 18.92246035 26.67236082 20.56745825 0.00358189 0.00187814 0.00176694
C 21.95394328 23.78397131 21.82956360 0.00374213 0.00172230 -0.00937503
C 24.76272562 3.07319122 1.91805954 -0.00332746 -0.00162208 0.00089876
C 28.21038858 0.15092522 3.10653318 -0.00760305 0.00112792 -0.00174015
C 25.09478097 3.19761839 6.38245558 0.00307251 0.00488398 -0.00673063
C 28.01852694 0.19941551 7.75513951 -0.00428572 -0.00414404 -0.00262539
C 24.81736400 2.82790981 11.23435915 0.00227925 0.00786027 -0.00423524
C 28.09318258 29.83770427 12.47198010 0.00505638 -0.00339301 -0.00430022
C 24.73418188 2.82946552 16.01086825 0.00376079 -0.00042071 -0.00149417
C 28.10663807 0.16987134 17.18034902 -0.00184123 -0.00047350 -0.00125174
C 24.60830327 2.89666736 20.77003763 0.00252196 0.00134949 0.00547852
C 28.01645786 0.33665955 22.13227467 0.00450713 0.00038081 0.00186663
C 24.25984929 9.68317105 1.73043203 -0.00073591 -0.00312731 -0.00005857
C 27.40485014 6.62451515 2.84147051 -0.01234953 0.00206630 0.00174152
C 24.06464817 9.55257757 6.54462876 -0.00666359 0.00326423 -0.00060577
C 27.56122965 6.41626784 7.75433117 -0.00231569 -0.00565676 0.00079505
C 24.12143649 9.15710146 11.19106857 -0.00023872 0.00012285 -0.00968800
C 27.43598312 6.40027166 12.40730535 -0.00337482 0.00153883 0.00310314
C 24.08146851 9.49674896 15.93397225 -0.00825383 0.00297225 -0.00734105
C 26.99715325 6.46326153 17.27376031 0.00102763 -0.00119864 -0.00355678
C 23.95379734 9.50507640 20.74324052 0.00035653 0.00136107 -0.00257143
C 27.18173014 6.35735134 22.06664559 -0.00004136 0.00332442 -0.00199117
C 24.73361760 15.31127067 1.91241077 0.00242936 0.00461034 0.00498759
C 27.69985595 12.12914962 3.24133589 0.00727472 -0.00640699 0.00521606
C 24.53935728 15.16736956 6.68888154 -0.00307286 0.00050260 0.00535525
C 27.37239632 11.85303550 7.83591885 0.00545790 -0.00343029 -0.00413717
C 24.36300006 15.36901197 11.24690014 -0.00686099 0.00563963 -0.00320800
C 27.83066380 12.00291451 12.79425179 0.00367318 -0.00289241 0.00485705
C 24.60917367 15.11820179 16.01594902 0.00247728 0.00965775 -0.00362456
C 27.60085886 12.31558433 17.58100887 0.00172656 0.00317624 -0.00043504
C 24.36753894 14.98949643 20.93469071 0.00069916 -0.00498396 -0.00813250
C 27.62693384 12.15040442 22.10618246 0.00268203 -0.00192921 -0.00179759
C 25.22218813 20.76633144 1.83893488 -0.00074693 0.00469198 0.00503198
C 28.21731161 17.83381064 3.03246014 -0.00593632 -0.00634240 0.00251077
C 25.09042952 20.76239711 6.54740436 -0.00568847 0.00912981 0.00253680
C 27.96906786 17.81472805 8.00562010 0.00750746 -0.00621653 -0.00066589
C 24.70273111 20.98826663 11.28419599 -0.00488688 -0.00192347 -0.00470938
C 28.17353071 17.71953243 12.61663762 -0.00046562 -0.00064083 0.00279482
C 25.26731451 20.89633749 16.03613916 0.00299566 -0.00253032 -0.00198534
C 28.08880835 17.79564456 17.38844207 0.00025441 0.00640943 -0.00328487
C 24.99329485 20.83690994 20.73616266 0.00164212 0.00365036 0.00330293
C 28.12269187 18.05551564 22.16614160 0.00133565 0.00749915 -0.00515707
C 25.53304998 26.70224400 1.75636023 0.00236549 -0.00886841 0.00109504
C 28.69459973 23.52078029 3.02887151 -0.00608255 0.00014723 -0.00123002
C 25.48757198 26.35257190 6.34659683 0.00668631 -0.00616098 0.00252826
C 28.38509593 23.43902063 7.62396520 -0.00692550 -0.00701188 0.00151408
C 25.49278101 26.59070056 11.16777248 0.01062212 0.00465162 0.00635374
C 28.54684700 23.37748191 12.54652240 0.00056888 -0.00363763 0.00496586
C 25.39409320 26.43574003 16.01610182 0.00285446 0.00377776 0.00717914
C 28.08080251 23.53080482 17.42099360 -0.00057400 0.00143023 -0.00215283
C 25.57701650 26.65910648 20.80601010 -0.00268009 -0.00428970 -0.00216662
C 28.67227799 23.60569268 22.12790453 0.00382094 0.00347995 -0.00138923
N 0.36507954 4.81244361 1.04122590 0.00467129 0.00085201 -0.00369244
N 3.33041661 5.32582582 3.79725821 -0.00585256 -0.00231057 -0.00772986
N 5.30787568 2.24191965 0.89929359 -0.00586273 0.00482202 0.00932226
N 1.74014470 1.28157323 3.87864576 -0.00089254 0.00269405 -0.00424436
N 0.31219149 4.50059253 5.68898796 0.00256986 0.00551863 -0.00075056
N 3.31652969 5.08989209 8.55932172 -0.00721870 0.00182953 -0.00160420
N 5.20313588 2.39988639 5.46094810 -0.00134335 -0.00010327 -0.00315908
N 1.56633820 1.38820414 8.66206147 -0.00351119 0.00078481 -0.00182020
N 0.30777996 4.51124295 10.69070661 0.00252116 0.00472614 -0.00173363
N 3.50535669 5.03244357 13.35627807 -0.00233354 0.00017633 -0.00546687
N 5.25286571 2.36772177 10.24050492 -0.00614285 -0.00168376 -0.00221817
N 1.55704244 1.33496504 13.18210624 0.00430462 0.00186162 -0.00418274
N 0.15408712 4.46950381 15.19089499 -0.00467497 -0.00098010 0.00029838
N 3.33756795 5.27134112 18.18094283 -0.00246916 0.00276510 0.00266565
N 5.11524776 2.31024837 15.20811314 -0.00702973 -0.00045361 -0.00049367
N 1.47049515 1.14628756 17.85317813 0.00292613 0.00799650 -0.00307219
N 31.01853497 4.61946866 19.98977548 0.00083081 -0.00302977 0.00482964
N 3.79981314 5.42242380 22.65425421 0.00293009 -0.00376900 0.00230628
N 5.21402462 2.25083221 19.85932648 0.00175414 -0.00253126 0.00286931
N 1.80453708 1.31805300 22.73794409 0.00058857 -0.00012724 0.00326374
N 0.68721892 9.82914717 0.90871375 0.00330647 -0.00179323 -0.00043119
N 4.08399942 10.89082479 3.80376334 -0.00018284 0.00286348 0.00399602
N 5.58051997 7.96835973 0.89526745 -0.00293804 0.00733818 0.00779768
N 1.85805042 7.04928114 3.87928832 -0.00486514 0.00128069 -0.00618444
N 0.68162150 10.34959153 5.82372693 0.00389227 -0.00342318 -0.00168300
N 4.01970216 10.76458192 8.41978154 0.00306282 -0.00100107 0.00258307
N 5.53311119 7.66390834 5.74932397 0.00811475 0.00759969 -0.00215402
N 2.33644229 7.10054074 8.67354327 -0.00301447 -0.00164183 0.00572194
N 0.87208359 9.97041026 10.66444094 -0.00026614 -0.00038578 0.00190404
N 3.93038928 10.61577732 13.18279392 0.00631062 -0.00566961 -0.00769929
N 5.74682648 7.64122690 10.46392586 0.00038053 -0.00530275 0.00197897
N 2.40905928 7.07107330 13.37183513 -0.00035591 -0.00757813 0.00255370
N 0.69315234 9.98211093 15.51319354 0.00112268 0.00502855 0.00803276
N 3.77459107 10.75009338 17.96271357 -0.00086928 -0.00092693 0.00769984
N 5.78390789 7.75049957 15.23953248 0.00204507 -0.00036031 -0.00343647
N 2.16797969 7.20926484 17.87796951 0.00337791 -0.00208219 -0.00187637
N 0.44744678 9.92705942 19.70824588 0.00567532 0.00108758 -0.00634143
N 4.04698690 10.71241142 22.87122597 0.00514277 0.00187063 0.00615328
N 5.43086392 8.10415990 19.91365458 0.00064384 0.00485132 -0.00362843
N 2.19171598 7.06965878 22.77874680 -0.00285810 0.00178914 -0.00348797
N 0.97299475 15.51612361 1.03582983 -0.00010265 0.00230152 -0.00385553
N 4.50369203 16.55174187 3.88006358 -0.00194576 0.00881911 0.00107014
N 5.86592397 13.67636521 0.91580721 -0.00383700 0.00180822 0.00533203
N 2.78418792 12.85995111 3.89366497 -0.00263158 -0.00010191 0.00351338
N 0.87161095 15.53128089 5.87313497 -0.00160582 0.00540711 -0.00699553
N 4.60764774 16.45708895 8.63110882 -0.00439500 0.00371737 -0.00125447
N 5.95251299 13.59677872 5.86040162 0.00190317 0.00010916 0.00593229
N 2.84630576 12.69672088 8.77067953 -0.00204990 0.00385009 -0.00676847
N 0.69717605 15.65816912 10.59216857 -0.00030273 0.00379959 0.00240923
N 4.43557428 16.46826871 13.46014358 -0.00439556 0.00519325 0.00421446
N 6.37062857 13.24610411 10.71230909 -0.00327541 -0.00116306 0.00153167
N 3.02465521 12.69560418 13.41832225 0.00350487 -0.00365301 -0.00099728
N 0.73748942 15.55042067 15.11917367 0.00712130 0.00216306 0.00596249
N 4.68086901 16.75666846 18.04046060 0.00078898 -0.00079085 0.00345144
N 6.08761871 13.39921908 15.16622932 0.00374041 -0.00186239 -0.00067280
N 2.99730355 12.91381051 18.31213034 0.00598738 0.00177819 0.00067793
N 0.81342989 15.69113947 19.90386832 -0.00029500 0.00326332 0.00030232
N 4.52401656 16.42938231 22.70514047 -0.00438278 -0.00334027 -0.00621593
N 5.88279550 13.52275618 20.06168314 -0.00608803 -0.00136504 -0.00262905
N 2.73568600 12.59998793 22.83456455 -0.00646285 -0.00455774 0.00103444
N 1.55884258 21.32416109 1.16404878 -0.00581169 0.00403224 0.00477286
N 3.97697501 23.20640591 3.98072498 -0.00852471 -0.00215095 -0.00277225
N 5.69933315 20.12831095 0.94497525 -0.00178859 -0.00122137 -0.00535006
N 2.83352477 17.94170999 3.76530996 0.01086519 0.00161988 -0.00526056
N 1.48338005 21.43290752 5.80676317 0.00710729 -0.00975177 0.00044297
N 4.03053978 23.46288059 8.55475367 0.00512450 0.00307490 0.00074318
N 5.31516600 20.30276420 5.76669825 0.01141243 0.00040244 -0.00278913
N 3.00264845 18.01821663 8.45116488 -0.00271572 -0.00047740 0.00041974
N 1.53528649 21.11930060 10.38923033 -0.00053182 0.00558014 0.00626882
N 4.21867861 23.40000948 12.94272299 -0.00104727 -0.00067382 0.00081716
N 5.28840726 20.39133011 10.41657944 -0.00901688 0.00287498 -0.00097098
N 2.71159927 18.04405841 13.42235601 0.00120075 0.00172566 -0.00258981
N 1.35335028 21.22374993 15.37215712 0.00033201 -0.00019274 0.00437501
N 3.97057492 23.34885998 17.96741401 0.00358163 -0.00095857 0.00960569
N 5.39336970 19.86981454 15.32365053 0.00036012 -0.00432532 -0.00005922
N 2.63040445 17.90229251 18.00295593 -0.00191014 -0.00209826 -0.00384869
N 1.36200375 21.39765682 20.09884287 -0.00403791 -0.00559379 0.00575807
N 4.23379142 23.09230587 22.69229066 0.00295808 0.00451555 -0.00165430
N 5.15363243 20.04070400 19.96960934 -0.00580764 -0.00135151 0.00025762
N 3.14442286 18.28623315 22.93233685 0.00050103 -0.00017607 -0.00106995
N 0.84569369 27.67933877 0.87786309 -0.00054121 0.00371852 -0.01427981
N 3.21486581 29.51485612 3.61535690 -0.00033096 0.00038148 -0.00623298
N 4.94637966 26.43490554 0.84017731 -0.00065462 -0.00286344 -0.00289933
N 2.37347954 24.83988653 4.03060089 0.00056052 0.00104559 0.00050676
N 0.72235488 27.79707675 5.62302089 0.00037673 -0.00143687 -0.00068026
N 2.83345220 29.50879106 8.44401787 0.00026383 0.00425004 -0.00793839
N 4.90167382 26.92612688 5.81401310 0.00511301 0.00100885 0.00088465
N 2.01130660 24.57779979 8.57083127 -0.00358907 0.00258267 0.00084802
N 0.64884093 27.78903892 10.52768747 -0.00786499 0.00092955 0.00378635
N 3.29993559 29.76322958 13.42654109 -0.00321472 0.00554849 0.00079910
N 4.97363262 26.56101077 10.47437040 0.00613389 0.00786735 0.00068021
N 2.06029257 24.21157701 13.38106117 -0.00628851 0.00771939 -0.00016373
N 0.84524092 27.40476138 15.30880960 -0.00004551 0.00244705 0.00204614
N 3.32130622 29.80569566 18.23439385 -0.00633466 0.00028902 0.00454026
N 4.77321013 26.42347090 15.27372257 -0.00002142 -0.00297968 -0.00309531
N 2.00213925 24.57753350 18.28936747 -0.00341881 -0.00075803 -0.00589659
N 0.83043556 27.63583981 20.07873299 -0.00075828 0.00264637 -0.00127581
N 3.46854722 29.72613328 22.92577150 0.00303782 0.00251654 0.00002810
N 4.65749420 27.05207598 19.85201646 0.00528351 -0.00012455 -0.00043310
N 2.38966840 24.34166537 22.93421542 0.00539351 0.00172296 0.00087920
N 6.46361121 4.22558674 0.98069327 -0.00330741 0.00031957 -0.00086030
N 9.92326653 4.63323466 3.64984663 -0.00311809 -0.00175170 0.00478956
N 11.96119743 1.80211861 0.93967325 0.00563306 -0.00614383 -0.00541944
N 8.34118001 1.08362793 3.40396455 -0.00142800 0.00018171 -0.00444105
N 6.78463112 4.05764838 5.58928677 -0.00174231 0.00074051 0.00566779
N 10.27126036 4.91759321 8.44156041 -0.00088352 0.00335902 -0.00269095
N 11.63869918 1.85448934 5.51628469 0.00009246 0.00543288 -0.00018873
N 8.08008646 1.34117837 8.30013626 -0.00528120 -0.00016501 0.00058673
N 7.04424927 3.82494155 10.42957971 0.00032125 -0.00433663 -0.00504760
N 10.47546133 4.84161313 13.29311560 -0.00512591 0.00158386 0.00157733
N 11.95926956 1.91957957 10.22655154 0.00366950 0.00403852 0.00498227
N 8.66222799 1.27020503 13.22781592 0.00926395 -0.00202326 0.00414042
N 6.94590047 3.80389180 15.17056189 -0.00279350 0.00062139 0.00413677
N 9.97016810 4.67460807 17.89611766 -0.00559735 0.00707569 -0.00104400
N 11.79780935 1.82032504 15.18935641 -0.00177486 0.00530178 -0.00289030
N 8.15260069 1.10536211 18.08329638 0.00152952 0.00329007 0.00510195
N 6.65745093 4.12309338 19.74989331 0.00154458 -0.00562639 -0.00513374
N 10.26005473 4.93973887 22.68466380 -0.00237012 -0.00652985 -0.00295503
N 11.62964200 1.71659107 19.74617907 -0.00605750 -0.00229615 0.00334191
N 8.53626437 1.12686146 22.67907155 -0.00509960 -0.00089494 -0.00410461
N 7.19214363 9.60600570 0.97333326 0.00258573 0.00361136 0.00112128
N 10.82744025 10.64843283 3.97907035 -0.00415928 -0.00443289 -0.00218449
N 12.20726279 7.68652080 0.86284111 -0.00139791 0.00136968 0.00112362
N 8.94027151 6.72305432 3.71802843 0.00345401 -0.00626702 -0.00418824
N 6.74269506 9.62886871 5.72018369 0.00256701 0.00435599 -0.00018599
N 11.12054679 10.57124369 8.65415599 0.00225092 -0.00102610 -0.00191531
N 12.31666420 7.44365954 5.67132441 -0.00018049 0.00433550 -0.00019123
N 8.95666781 6.83644451 8.69043045 0.00525675 -0.00751208 0.00055981
N 7.26032243 9.38626554 10.61788000 -0.00181024 0.00101373 0.00115547
N 11.17222565 10.70423245 13.53955851 -0.00128266 0.00571742 0.00407108
N 12.53038315 7.61645942 10.62033386 0.00201560 0.00235686 0.00371974
N 8.91413545 6.54813017 13.19384819 -0.00093124 -0.00461577 0.00021255
N 7.17666822 9.55443236 15.32504066 0.00230773 -0.00280413 0.00131943
N 10.35780923 10.16671126 17.94369495 0.00103195 0.00522108 0.00513754
N 12.06687323 7.66464765 15.31226629 -0.00148929 -0.00493078 -0.00078081
N 8.50310697 6.41633028 18.07994000 -0.00088981 -0.00225768 0.00488288
N 7.21197203 9.54407937 19.78420166 0.00338058 0.00222220 0.00295448
N 10.84649427 10.51018081 22.88039349 -0.00044492 -0.00211959 0.00512428
N 12.43691907 7.49751245 19.93281894 0.00324059 0.00471589 0.00402910
N 8.97013535 6.79918920 22.89061703 -0.00524114 0.00113844 -0.00023849
N 7.78479110 14.93748464 1.17867631 0.00031059 0.00029764 -0.00319814
N 10.41615026 17.21140290 3.60546737 -0.00023095 0.00442370 -0.00430456
N 11.73037394 14.01413819 1.26674568 -0.00181452 -0.00037967 0.00440980
N 8.86455710 11.93445537 3.65617179 -0.00092003 -0.00986495 0.00421019
N 7.52075814 15.23084227 5.75335621 0.00168112 -0.00036392 -0.00257739
N 9.92211779 17.15173842 8.56167465 -0.00012894 -0.01066513 0.00140525
N 11.60304357 14.06832722 5.76916886 -0.00085807 -0.00224388 -0.00213592
N 9.28955108 12.07018629 8.62817296 0.00429662 -0.00066124 0.00094763
N 7.67363687 15.15816735 10.66056257 0.00070779 0.00287506 0.00124259
N 10.04331171 17.09317624 13.38991946 0.00223644 -0.00410211 -0.00081878
N 11.55037553 13.97033893 10.45496381 0.00495491 -0.00478310 0.00060933
N 9.50380598 12.17787086 13.48103795 0.00016998 0.00460279 0.00007673
N 7.58322707 15.09509240 15.34528385 -0.00011796 -0.00061324 0.00113736
N 10.25379514 17.34045033 18.02672476 -0.00382960 -0.00317624 -0.00343968
N 11.88693694 14.09731751 15.31706697 -0.00030864 0.00361655 0.00154061
N 9.23620230 12.12165053 18.06974478 0.00164626 0.00622879 0.00478322
N 7.65857397 15.02926403 20.02955887 0.00380242 -0.00023359 0.00119789
N 10.42201171 17.27753674 22.79784296 0.00319886 -0.00283751 -0.00187996
N 11.52164460 14.53548800 20.38397964 0.00546160 0.00035797 0.00607631
N 9.25802140 12.10517735 22.79925276 -0.00010241 -0.00193812 -0.00362883
N 7.26648639 21.69386903 0.95042097 0.00735273 -0.00172607 -0.00529356
N 9.27863261 23.62148145 3.78737232 0.00628157 0.00934087 -0.00316589
N 10.99353297 20.44377401 0.85936550 0.00001343 -0.00667098 0.00219971
N 8.38040475 18.31159429 3.87064170 0.00072003 -0.00092670 -0.00321241
N 7.08401482 21.64755196 5.59629340 -0.00205534 0.00144653 -0.00612848