2000
Time=88000.00000005 pbc="T T T" Lattice="31.10683912 0.00000000 0.00000000 0.00000000 30.08950027 0.00000000 0.00000000 0.00000000 23.66750473" energy=-12042.13979328 virial="-49.51783613 -24.65525745 6.18487719 -24.65525745 -73.74978451 -6.87150562 6.18487719 -6.87150562 -18.89675358" stress="-0.00006431 -0.00109489 0.00027009 -0.00109489 -0.00122342 -0.00033276 0.00027009 -0.00033276 0.00189202" Properties=species:S:1:pos:R:3:vel:R:3
C 30.65732058 3.77349557 1.66754580 0.00369562 0.00152346 -0.00257918
C 2.50132834 0.55361732 2.81153176 0.00169264 0.00366142 -0.00990097
C 30.42603038 3.61888348 6.52757071 -0.00154327 0.00017645 0.00260881
C 2.46863219 0.32480944 7.66026209 -0.00460961 0.00528221 0.00212744
C 30.39033121 3.23635806 11.11256447 0.01000990 -0.00034129 0.00059657
C 2.41250593 0.57254668 12.37638431 -0.00780881 -0.00533230 -0.00003683
C 30.39646069 3.67342683 15.75992894 0.00215125 0.00108280 0.00276407
C 2.31961600 0.83910510 17.10571613 0.00345956 -0.00114584 0.00457261
C 30.63715164 3.77279984 20.55599643 -0.00211378 -0.00298118 0.00177068
C 2.58320088 0.52243361 21.68415169 -0.00354237 0.00003489 0.00385787
C 0.04192125 9.29063026 1.76889269 0.00154016 0.00159826 -0.00268725
C 2.89364046 6.26964851 2.99472124 0.00461733 -0.00444469 0.00028465
C 30.93832969 9.13025792 6.49405074 -0.00502147 0.00718285 -0.00452201
C 2.94861404 6.26009882 7.71737787 -0.00362066 -0.00257988 0.00013753
C 0.00246408 9.18417258 11.15815906 0.00178092 -0.00474137 -0.00155458
C 2.85822756 5.88372795 12.47381877 0.00210838 -0.00216713 -0.00341857
C 30.99985790 9.20618228 15.78116389 -0.00202867 0.00211777 0.00301468
C 2.94434677 6.30121577 17.03247216 -0.00727319 -0.00619719 -0.00113800
C 30.97672591 9.25766785 20.60563230 0.00087722 -0.00440156 0.00142981
C 2.98534734 6.30348608 21.77838426 0.00184063 -0.00638674 0.00151374
C 30.98812554 14.88754902 1.67972527 0.00247669 -0.00510822 0.00043097
C 3.30733812 11.94307547 3.09165735 -0.00016086 -0.00565317 0.00061334
C 0.13855679 14.93914362 6.58069958 -0.00347380 0.00194095 0.00340983
C 3.43222275 11.98104690 7.76212539 -0.00397441 0.00274921 -0.00392519
C 0.35762350 14.93580718 11.35902128 0.00249324 0.00543104 -0.00468952
C 3.46244744 11.71242442 12.44822410 0.00144814 0.00436898 0.00515973
C 0.41461282 14.78742580 15.94341327 0.00304702 0.00231036 -0.00367854
C 3.35634022 11.88498454 17.29791682 -0.00290889 0.00021791 0.00637317
C 0.03799146 14.85081875 20.73729742 -0.00140111 -0.00212666 0.00048493
C 3.30323582 11.89950988 22.00816741 0.00199816 0.00558147 -0.00370548
C 0.62754043 20.45682973 1.80942464 0.00376351 0.00571313 -0.00232872
C 3.85899291 17.39175194 3.04243341 -0.00181878 -0.01133504 -0.00054208
C 0.45411581 20.59118566 6.30356552 -0.00205848 -0.00778085 -0.00420571
C 3.91376944 17.39818179 7.85499228 0.00263681 0.00173675 0.00055106
C 0.77354663 20.25848605 11.24990457 -0.00731681 -0.00111991 -0.00361175
C 3.99887447 17.13626669 12.25610856 0.00257261 -0.00010221 0.00097843
C 0.90338670 20.58661365 15.99066300 -0.00315970 -0.00853719 0.00454972
C 3.75122868 17.19828165 17.25560671 0.00120827 0.00109809 -0.00037486
C 0.43772359 20.43506285 20.59177395 -0.00257490 -0.00247503 0.00142122
C 3.63280220 17.36483295 21.94582870 -0.00648742 -0.00070046 -0.00213145
C 0.00868545 27.00251418 1.56844174 0.00591081 0.00983371 -0.00129938
C 3.25962408 24.22270004 3.03306466 -0.00287992 -0.00695241 -0.00219395
C 0.37844404 27.11598297 6.53605185 0.00018081 0.00003483 -0.00586361
C 3.05981791 23.76339543 7.75113593 0.00242832 -0.00293063 0.00011247
C 0.05002766 27.11042061 11.20960415 -0.00777511 -0.00491208 0.00761689
C 2.90948800 24.16121869 12.44842241 0.00747412 0.00527786 0.00263256
C 0.04876116 27.21951897 15.93132141 0.00243921 -0.00320298 0.00480194
C 2.79747730 24.27173087 17.24261876 -0.00403224 0.00284813 -0.00477003
C 31.06267175 27.16881858 20.56728798 -0.00164095 0.00111393 -0.00333012
C 2.87724988 24.02405226 21.86979594 -0.00286236 -0.00157433 -0.00733908
C 6.00341682 3.30300116 1.65786236 0.00745796 -0.00061454 -0.00174435
C 9.10796394 0.32497872 2.86368167 -0.00350895 0.00477231 0.00011829
C 5.86221187 3.09471608 6.41048935 -0.00142452 -0.00370003 0.00193298
C 8.97453273 0.37158280 7.82891382 -0.00343752 -0.00366933 -0.00459357
C 5.81063968 3.11320956 11.16344312 0.00464975 -0.00710366 -0.00069550
C 9.22536465 0.44150431 12.56506335 -0.00338334 0.00322824 0.00349820
C 5.80593583 3.35783448 15.77895819 0.00955734 -0.00069544 -0.00140580
C 8.75649300 0.12562984 17.11101709 0.01005971 0.00610997 -0.00102925
C 6.11888544 3.39915507 20.84587678 -0.00038448 0.00306548 -0.00397018
C 8.95003067 29.92457545 21.82461084 0.00294800 0.00159631 -0.00501412
C 6.18261629 8.67464682 1.68316176 -0.00476295 0.00597453 0.00811255
C 9.29637188 5.73879348 3.28091780 0.00162469 -0.00188539 -0.00631347
C 6.27639073 8.62242651 6.46846197 0.00056408 -0.01142178 -0.00094764
C 9.26638177 5.75945712 7.86725653 -0.00566755 0.00056499 0.00260940
C 6.48503195 8.78035490 11.33802921 -0.00026915 -0.00338629 -0.00015396
C 9.80532738 6.00201794 12.44079508 0.00307879 -0.00359316 -0.00641320
C 6.52316321 8.88818663 15.91830433 0.00062676 -0.00002943 -0.00158016
C 9.43503701 5.53920803 17.28620368 -0.00285624 0.00283640 -0.00539269
C 6.38506868 8.87582799 20.75704647 0.00400383 0.00527080 -0.00584295
C 9.65566683 5.84938113 21.94808354 -0.00099815 -0.00649346 -0.00181843
C 7.17633946 14.44259255 1.88334306 0.00169488 -0.00183173 0.00226760
C 9.88012170 11.45221789 3.02610374 0.00393229 0.00110351 -0.00400446
C 7.01734074 14.37911287 6.47801866 -0.00125610 0.00212610 0.00364680
C 10.31329016 11.35705240 7.74008888 -0.00053700 0.00463053 0.00317246
C 7.04080615 14.40163323 11.04256891 -0.00283002 -0.00463639 0.00743434
C 9.93522526 11.19360810 12.70323115 0.00017518 0.00501655 0.00663798
C 7.19239459 14.61106432 15.76093425 0.00120353 -0.00359015 -0.00155259
C 10.33399047 11.43491280 17.26510387 -0.00073964 0.00726279 -0.00076881
C 6.91210164 14.41620870 20.88763493 0.00181323 -0.00481232 0.00638103
C 9.87126836 11.35086565 22.07412255 0.00638244 -0.00372459 0.00013410
C 5.83496404 21.14154151 1.73534537 -0.00054725 -0.00096872 0.00277202
C 9.33835081 18.07745348 3.17870618 0.00274524 -0.00234819 -0.00358163
C 6.52395404 21.08230843 6.38177368 0.00531852 0.00097229 0.00787356
C 9.14570458 18.06222732 8.01303609 0.00108966 -0.00628286 -0.00405780
C 6.34323950 21.09513872 11.41740379 0.00464449 -0.00605049 -0.00239435
C 9.11681102 18.17443290 12.71692232 0.00531258 -0.00620688 0.00194286
C 6.11886685 21.31609029 15.93261091 -0.00196163 0.00122310 0.00251236
C 9.24751164 17.94330516 17.29104434 -0.00501412 -0.00321959 0.00257417
C 6.09752923 21.18411037 20.62378705 -0.00645472 0.00076882 0.00099301
C 9.05957581 18.03139294 22.00900671 -0.00393556 0.00383007 -0.00786920
C 5.47114363 27.68800138 1.55692530 0.00404458 0.00450388 0.00632981
C 8.70174277 24.74396788 2.81559529 0.00544900 0.00611441 -0.00050311
C 5.73388661 27.68338683 6.13466740 0.00431415 0.00259156 -0.00039676
C 8.62322213 24.64705029 7.63354232 -0.00524486 0.00034499 -0.00264296
C 5.80649427 27.47527164 11.05688850 -0.00391628 0.00212412 -0.00595649
C 8.75071765 24.59916034 12.41789159 0.00313218 0.00652991 0.00124411
C 5.68724725 27.74926837 15.59704907 0.00143077 0.00630323 -0.00273552
C 9.02668538 24.88312661 17.15534717 0.00389586 0.00188004 -0.00064648
C 5.45638985 27.72744679 20.39206505 -0.00223235 0.00243112 0.00713870
C 8.37447855 24.67177035 21.91134136 0.00375086 -0.00310936 0.00143196
C 12.35202574 2.84968964 1.52596636 0.00014378 0.00216442 0.00704977
C 15.97680804 0.01190344 3.03389096 -0.00195061 -0.00127127 -0.00353986
C 12.79401130 2.81318608 6.53839698 0.00016008 0.00098027 0.00594463
C 15.80925377 30.05796793 7.86243676 -0.00055351 0.00099609 0.00431474
C 12.82178831 3.01380015 11.18652643 0.00420494 0.00375734 0.00143283
C 15.93459233 29.98359673 12.57096792 0.00217052 0.00039714 0.00831637
C 12.52302756 2.81639045 16.03464319 -0.00621876 0.00017377 -0.00529899
C 15.76385540 29.81587833 17.18795792 0.00352047 -0.00054330 -0.00336518
C 12.63795200 2.64001891 20.58333825 0.00336416 0.00052896 -0.00151645
C 15.53950102 0.10323252 21.93337444 -0.00827145 -0.00550099 0.00292811
C 13.08374175 8.39063939 1.87232072 0.00435324 0.00499476 -0.00423762
C 16.33519935 5.38236363 3.05669922 -0.00084388 -0.00053915 -0.00470379
C 13.12439206 8.57964713 6.45093633 0.00039393 0.00214322 -0.00129178
C 16.22370323 5.43024984 7.70681167 -0.00111690 -0.00035908 0.00606514
C 13.36885520 8.60106126 11.14747310 -0.00222833 -0.00139490 -0.00451521
C 15.99200401 5.53596056 12.48598622 0.00778350 0.00063669 -0.00054128
C 12.90997997 8.29007608 15.88430749 -0.00505942 0.00256527 0.00490879
C 16.10054269 5.33408342 17.39115640 -0.00946373 0.00254686 -0.00123539
C 13.06716931 8.24682918 20.91176632 -0.00098977 0.00388098 0.00187301
C 16.38477721 5.42578046 22.13228496 -0.00067209 0.00302732 -0.00306754
C 12.34401675 15.24198139 1.77101024 0.00091086 0.00375114 -0.00921544
C 15.65330033 12.21830708 2.95726065 0.00239492 -0.00386373 -0.00243748
C 12.53663084 15.11740690 6.65420780 -0.00774124 0.00156142 -0.00018445
C 15.73386396 12.00257975 7.62939047 -0.00305314 0.00042741 0.00579267
C 12.42555481 15.19225067 11.22189343 -0.00394378 0.00058521 0.00263651
C 15.58627445 12.05714245 12.63600635 0.00116587 0.00311592 -0.00247953
C 12.52299908 15.15603695 16.03371204 0.00386739 0.00451500 -0.00066374
C 15.54096599 11.78459223 17.42380007 0.00520193 -0.00240591 -0.00206213
C 12.29568484 15.22300044 20.80729095 -0.00070921 -0.00550716 -0.00043693
C 15.55814476 12.16305246 22.13450522 -0.00113660 -0.00214646 -0.00064615
C 11.55711177 21.60330330 1.68975141 -0.00229702 0.00139372 -0.00316046
C 14.86172204 18.73815481 3.15351560 -0.00071122 -0.00058061 0.00214380
C 11.80841013 21.83112137 6.43996589 -0.00288289 -0.00170023 0.00261211
C 14.86087558 18.58324832 7.66748283 -0.01395487 0.00515765 -0.00492061
C 11.66201444 21.88765022 11.17682943 0.01070924 -0.00065737 -0.00198874
C 14.91770666 18.72135158 12.45252173 -0.00191317 0.00103230 0.00177071
C 11.78765520 21.61457821 15.94501392 0.00162974 0.00228496 0.00591228
C 15.08578363 18.81453799 17.18341488 0.00301049 0.00086278 0.00955532
C 11.60310383 21.61830382 20.57180328 0.00195182 0.00392314 -0.00238144
C 14.73425977 18.72934520 22.07900467 -0.00599241 0.00097879 0.00145739
C 12.10131856 27.37064895 1.54103541 0.00328901 0.00200637 -0.00035637
C 15.34372769 24.27579325 2.91706151 -0.00089519 0.00247592 -0.00229759
C 12.07299772 27.29409864 6.32061888 -0.00092387 -0.00045143 -0.00048909
C 15.20097316 24.26333424 7.72504354 -0.00143660 -0.00198367 0.00603761
C 12.30442709 27.40457845 11.07403711 -0.00304007 0.00735419 0.00084418
C 15.09361576 24.32862679 12.67405978 0.00068713 0.00318664 0.00246112
C 12.11988531 27.42186509 15.69303816 -0.00459121 0.00314520 0.00059518
C 15.34162356 24.04765692 17.38589082 -0.00365856 0.00036137 0.00280028
C 12.33669195 27.15497786 20.45135420 0.00096500 -0.00172368 -0.00163126
C 15.16282217 24.28882264 22.01957089 0.00015913 0.00283534 0.00490876
C 19.67295764 2.54372589 1.61818322 -0.00128362 0.00702043 -0.00355450
C 22.51892395 29.44138171 2.90834934 0.00270513 0.00015279 0.00399210
C 19.53574795 2.33455348 6.36325480 -0.00448625 0.00181110 0.00202994
C 22.38831733 29.34829390 7.82845162 -0.00247534 0.00167153 0.00311079
C 19.21793287 2.27993405 11.17547429 0.00513523 -0.00051900 -0.00719421
C 22.39843211 29.40352660 12.43570712 0.00030890 -0.00440263 -0.00344769
C 19.20156615 2.10789641 15.89828230 0.00018478 -0.00190613 0.00198316
C 22.34054060 29.50752988 17.01387463 -0.00020142 -0.00202423 0.00311485
C 19.24848249 2.29767756 20.70969677 -0.00440776 -0.00741516 -0.00455920
C 22.43485542 29.21590934 21.64542273 0.00626741 -0.00529964 -0.00229691
C 18.53445837 9.12188989 1.76235026 0.00111178 -0.00118106 0.00398031
C 21.85336937 6.39020163 3.09967370 -0.00264929 -0.00217682 0.00497527
C 18.63660691 9.26625808 6.56283806 -0.01124388 -0.00292307 -0.00833667
C 21.80820078 6.21616886 7.77943461 -0.00650513 -0.00152054 0.00041512
C 18.52050879 8.73878718 11.30665020 -0.00074459 0.00591656 0.00237517
C 21.69305626 5.72059442 12.46861063 -0.01126969 0.00305795 0.00450962
C 18.72111569 9.14058251 16.17975339 0.00465959 -0.00024629 -0.00429164
C 21.28383416 6.01859303 17.14022685 0.00091821 0.00376184 0.00309200
C 18.65209126 9.18656242 20.89989401 0.00248508 0.00254272 0.01099565
C 21.83998921 5.85191014 21.89176965 0.00586837 0.00023815 0.00327738
C 17.92778710 15.80270168 1.91167761 -0.00234007 0.00106205 -0.00208494
C 21.05243356 12.82813223 3.15480976 -0.00022780 -0.00319772 0.00400770
C 18.08672203 15.68253100 6.52106040 -0.00067017 -0.00563638 -0.00457163
C 21.21838640 12.60254907 7.87612112 0.00903800 -0.00387878 0.00562259
C 18.10226591 15.60317961 11.16171667 0.00527199 0.00032957 -0.00353098
C 21.04405209 12.42099836 12.58142408 -0.00055649 0.00390095 -0.00038415
C 17.97839669 15.73727162 16.06172171 0.00024401 0.00221987 0.00181942
C 20.98232708 12.56550625 17.34922917 0.00216775 0.00201292 -0.00422264
C 17.91073262 15.61921353 20.71793871 -0.00686162 -0.00324487 0.00391873
C 21.07465148 12.61970205 22.08441077 -0.00317850 -0.00050298 0.00056421
C 18.53408571 21.31648606 1.67082785 0.00264646 -0.00566455 0.00000175
C 21.31375539 18.19156512 2.95270980 0.00389256 -0.00407303 0.00395697
C 18.63836651 21.18551423 6.53208587 -0.00047908 0.00446039 -0.00133338
C 21.65462047 18.12798093 7.77529111 -0.00198444 -0.00148653 0.00376503
C 18.34875448 21.57544090 11.24701780 0.00029899 -0.00024355 -0.00360160
C 21.59241381 18.02763950 12.52915900 0.00210182 0.00107049 0.00173814
C 18.56293511 21.27780990 15.95099105 -0.00136756 0.00172286 -0.00183728
C 21.63845576 18.33214126 17.22485475 0.00730035 -0.00110656 -0.00253894
C 18.64109065 21.08734603 20.54135478 -0.00599436 0.00247656 -0.00000681
C 21.52708961 18.12293896 21.92638777 0.00359625 0.00305045 -0.00260589
C 18.88733510 26.89689496 1.70833555 -0.00548903 -0.00040340 -0.00102015
C 22.04139033 23.89237120 3.08079057 -0.00277921 -0.00086491 -0.00196906
C 18.92818423 27.11041637 6.51750084 0.00500133 0.00251940 0.00384279
C 21.90108235 23.87917069 7.89455231 -0.00323827 0.00230756 0.00305448
C 18.82224464 26.84639099 11.13651811 0.00439977 -0.00134880 -0.00009041
C 21.97795232 23.83372558 12.45802041 -0.00128022 0.00368091 -0.00553318
C 18.78955798 26.84865073 16.00745301 0.00434761 0.00453245 0.00453930
C 22.06754604 24.04934525 17.37654825 -0.00119616 0.00705993 -0.00385734
C 18.80585985 26.66063738 20.70626873 0.00332021 -0.00575958 0.00074750
C 21.82914507 23.90020448 21.82888915 -0.00227244 0.00233097 -0.00653157
C 25.01138983 2.81883111 1.67559063 0.00059855 -0.00340036 0.00211439
C 28.14911000 29.94072458 3.07264394 0.00055515 0.00184913 -0.00076538
C 25.02976228 2.96573516 6.49243874 0.00040007 0.00591716 0.00995964
C 28.01532991 29.84647327 7.60749097 -0.00352547 -0.00486228 0.00472728
C 24.86612348 3.00165187 11.04224768 0.00228624 0.00609209 -0.00415211
C 27.82466390 29.95286582 12.56536088 0.00257027 0.00020157 -0.00188535
C 24.69608205 3.25615093 16.02094511 0.00030686 -0.00081490 0.00755503
C 28.07415175 0.00676110 17.24955201 0.00368833 -0.00274776 0.00156838
C 24.82716860 3.23531230 20.65648797 -0.00227526 -0.00483596 -0.00329892
C 27.94415145 0.20161473 22.03459923 0.00506718 0.00253401 -0.00743816
C 24.18215001 9.60932047 1.66475253 -0.00662771 -0.00267440 -0.00236243
C 27.54263082 6.43890904 2.98211975 0.00318985 0.00099431 -0.00403746
C 24.26252832 9.69232023 6.48968439 -0.00446124 0.00277444 -0.00539909
C 27.41241885 6.65129933 7.47079499 0.00056250 0.00364672 -0.00482312
C 24.36944108 9.53217678 11.12487152 0.00315370 -0.00931065 0.01307708
C 27.36700095 6.37256217 12.25776467 0.00074310 0.00449870 -0.00152748
C 24.32320364 9.39569657 15.71342215 -0.00085996 0.00684152 0.00087818
C 27.60130388 6.66304191 17.07383361 0.00087627 0.00456179 0.00778043
C 23.93646844 9.56727152 20.63383941 0.00056465 0.00543023 0.00124369
C 27.37672429 6.60817867 21.94568642 -0.00119881 0.00265979 -0.00165174
C 24.61621230 15.15313401 1.75969689 0.00272328 0.00856517 0.00152480
C 27.90970222 12.09243336 3.07967611 -0.00326504 0.00207782 0.00222403
C 24.79718591 15.36904028 6.48227928 -0.00106816 -0.00221808 0.00147533
C 27.94134848 12.38412328 7.78968983 0.00131932 -0.00047861 -0.00517728
C 24.73602643 15.11685088 11.14610297 0.00555563 0.00207164 -0.00894367
C 27.83197743 12.32324656 12.39011475 0.00636992 0.00462529 0.00531797
C 24.60965275 15.08819503 15.77535139 -0.00590923 -0.00159227 0.00447231
C 27.75665133 11.93597855 17.16743749 0.00104484 -0.00332888 0.00404810
C 24.71747417 15.48848003 20.69639727 0.00172488 -0.00313143 -0.00064876
C 27.51728469 12.17182494 21.91457141 -0.00373552 0.00103527 -0.00114826
C 24.83249033 20.77413963 1.62734470 -0.00190647 0.00178373 0.00133867
C 28.26195262 17.90605920 3.14476707 0.00199141 -0.00389484 -0.00094069
C 25.17320644 20.72905920 6.39041331 0.00496262 0.00079754 0.00627475
C 28.14951506 17.90538341 7.92030811 -0.00598159 0.00050135 -0.00745134
C 24.98756060 20.96044585 11.23925758 0.00513089 -0.00248192 0.00514510
C 28.33461555 17.74179817 12.65106547 0.00418203 0.00228833 -0.00473027
C 25.20479203 20.79513852 15.99401108 0.00951650 -0.00152082 0.00195325
C 28.24259240 17.84538742 17.25183179 0.00536219 0.00100869 -0.00344736
C 24.86903975 21.07565197 20.56358892 0.00138812 0.00193781 -0.00573285
C 28.09434140 18.02754854 21.78506296 0.00521318 0.00533367 -0.00094831
C 25.52999530 26.10045919 1.64294628 -0.00250475 -0.00358081 0.00020555
C 28.94993929 23.38364876 2.93393355 -0.00450723 0.00541647 -0.00730134
C 25.49883990 26.31096809 6.34896577 -0.00781234 -0.00167154 -0.00309762
C 28.60919500 23.40205689 7.60096877 0.00318949 -0.00118545 -0.00953911
C 25.55546821 26.23619096 11.06691396 0.00076302 0.00359212 -0.00430645
C 28.82222877 23.42911686 12.40428838 0.00051035 0.00519767 -0.01201796
C 25.66358456 26.19929747 15.94682853 0.00205468 -0.00313213 -0.00103550
C 28.73435796 23.41678512 17.09281274 -0.00584377 0.00087775 0.00496566
C 25.51645528 26.70252223 20.52247361 -0.00513337 0.00058029 0.00313103
C 28.44761613 23.42723103 22.04071524 -0.00277424 0.00265990 -0.00390288
N 0.39982195 4.46672786 0.87866252 0.00192505 0.00241633 0.00244006
N 3.39158897 5.16892086 3.67659921 -0.00628227 -0.00363742 0.00466308
N 5.29865944 2.45200182 0.93606668 0.00440695 0.00307801 -0.00148118
N 1.69446290 1.33205412 3.59017461 -0.00637343 -0.00151977 -0.00039144
N 0.34900006 4.41599368 6.26907641 -0.00364708 0.00232674 -0.00190861
N 3.49610772 5.19522745 8.40029679 0.00580161 0.00172930 -0.00384664
N 4.97880016 2.30615471 5.68986053 -0.00356090 -0.00375283 -0.00114312
N 1.69765070 1.29181809 8.29535950 0.00155044 -0.00121507 0.00500841
N 0.06224549 4.04775397 10.34968677 -0.00264989 -0.00361581 -0.00021262
N 3.75646413 5.27208365 13.23163391 -0.00244271 -0.00057026 -0.00212041
N 5.18233746 2.25753805 10.34713042 0.00134561 0.00254801 0.00258149
N 1.58814163 1.31317653 13.13618300 -0.00496765 -0.00581854 -0.00304401
N 0.14665505 4.55620062 15.15336813 0.00222751 0.00024160 0.00262697
N 3.51127148 5.35367767 17.77222295 0.00206669 -0.00110793 0.00603503
N 5.13157926 2.35313962 15.05545638 0.00568162 0.00262848 -0.00490400
N 1.37981548 1.25846917 18.00319943 -0.00601106 -0.00013990 -0.00592308
N 0.22646450 4.57617133 19.74263465 0.00361629 0.00426183 -0.00318182
N 3.61488407 5.29331851 22.49946344 -0.00099186 0.00480329 -0.00334100
N 5.35294128 2.48340815 20.18938965 -0.00107118 0.00064357 0.00190689
N 1.79067898 1.52553636 22.24697695 0.00769323 -0.00010031 -0.00109335
N 0.69501995 10.17711471 0.98275233 -0.00562507 0.00248819 -0.00499084
N 3.96070924 10.99326908 3.91516252 -0.00302014 0.00012527 0.00365576
N 5.43854974 7.90652027 0.88613209 0.00114510 0.00513636 0.00874313
N 2.27511464 7.25955920 3.69599179 0.00190197 0.00152672 -0.00183520
N 0.26162107 10.14497307 5.76181596 -0.00300298 0.00142416 -0.00453752
N 4.04338944 11.00559060 8.48463782 0.00587087 0.00344129 -0.00199614
N 5.60563342 7.91393410 5.52719385 0.00720115 0.00375253 -0.00119462
N 2.46257165 7.24092748 8.53045646 -0.00148383 0.00370621 -0.00002844
N 0.55169817 10.18078655 10.42131678 -0.00415855 0.00726834 0.00010712
N 4.15336877 10.84871165 13.19094953 0.00481521 0.00145992 0.00323999
N 5.71731855 8.07478219 10.49100978 0.00541070 -0.01123961 -0.00014501
N 2.11479172 6.87805045 13.16528163 -0.00437282 0.00407798 -0.00500679
N 0.43250086 10.13050245 14.98863108 0.00017436 0.00347091 0.00251153
N 4.10384082 10.89893123 17.95727699 0.00183504 -0.00373008 -0.00163129
N 5.76146155 8.03774163 15.15585762 -0.00664670 0.00365576 -0.00270802
N 2.22225349 7.27262920 17.71253347 -0.00061232 -0.00133241 -0.00377365
N 0.69329217 10.05925940 19.84875570 -0.00471411 0.00158246 0.00394620
N 3.81698697 10.98300592 22.89019815 0.00049354 0.00551627 0.00616569
N 5.70045906 8.05431411 19.89248419 -0.00029811 0.00204058 0.00171461
N 2.56582628 7.35121195 22.60425302 0.00508521 0.00155819 -0.00232057
N 0.65736153 15.85080123 1.01828668 0.01147997 0.00495197 0.00063750
N 4.88257704 16.70278521 3.61526516 0.00190556 0.00013578 -0.00101851
N 6.43685065 13.59172153 1.07629235 0.00041828 -0.00103362 -0.00459700
N 2.91366155 13.13324281 3.58094309 -0.00265726 -0.00303752 0.00952902
N 0.99283449 15.75524150 5.96319835 -0.00287984 -0.00036303 -0.00200516
N 4.86757568 16.78118269 8.49175701 0.00509732 0.00187257 -0.00131449
N 6.30478729 13.59985467 5.65518722 0.00771780 0.00327890 -0.00447823
N 2.96846946 13.04234447 8.50379441 0.00289193 -0.00060080 -0.00150164
N 1.18954152 15.62086262 10.63059224 -0.00384656 0.00320506 0.00377592
N 4.79128540 16.29550409 12.96253848 0.00762482 0.00448986 0.00005800
N 6.31127023 13.51881754 10.30468846 -0.00227829 -0.00105166 0.00427342
N 2.99877033 12.71140411 13.18604533 0.00389475 -0.00094986 -0.00164192
N 1.21539987 15.56320597 15.27635411 -0.00111019 -0.00186151 -0.00382075
N 4.63507364 16.35892772 17.89022273 0.00583806 -0.00495737 -0.00211804
N 6.54231004 13.58567102 15.15602473 -0.00442730 0.00455541 -0.01007582
N 2.67860091 12.82733237 18.04095216 0.00279346 0.00030098 0.00156274
N 0.88841278 15.79131144 20.14617861 -0.00341809 -0.00009104 -0.00895258
N 4.49095178 16.45841695 22.40740368 0.00363403 0.00077776 0.01108776
N 6.06336766 13.62127951 20.24494393 0.00653360 -0.00122294 0.00271817
N 2.60017868 13.03524039 22.41921747 0.00082130 -0.00389100 -0.00509279
N 1.46697931 21.31661843 1.07573835 0.00822916 0.00251805 0.00072357
N 4.35725362 23.63035872 3.45977856 -0.00126435 -0.00106235 -0.00240897
N 5.22317122 20.21297975 0.93688253 -0.00401006 -0.00112112 -0.00174179
N 2.97217457 17.88856656 3.88903703 0.00091475 -0.00201666 0.00762803
N 1.31529662 21.34619950 5.60068291 0.00081253 -0.00122226 0.00649707
N 4.08456070 23.15333303 8.42838488 -0.00015604 -0.00451235 -0.00209557
N 5.82106212 20.08748527 5.80180253 -0.00467732 0.00091588 -0.00586740
N 3.15223490 18.36454712 8.55221743 -0.00184722 -0.00022147 -0.00028857
N 1.37856233 21.15522174 10.45085243 0.00189431 0.00348616 0.00288314
N 3.88637950 23.56573978 13.18781724 -0.00213613 0.00230353 0.00763772
N 5.52023705 20.07180245 10.92902366 -0.00140208 -0.00085663 -0.00294268
N 3.32071926 18.07999876 12.99126395 -0.00686727 -0.00273741 0.00218139
N 1.46297514 21.62649216 15.29336876 0.00513271 0.00377655 -0.00138128
N 3.97047249 23.69901826 17.73530577 -0.00751413 0.00300393 0.00206861
N 5.39996580 20.50735762 15.17846082 -0.00870460 0.00450966 -0.00624937
N 2.98585551 17.95804225 18.02999421 -0.00713327 -0.00355690 0.00556036
N 1.31916653 21.20213350 19.91111354 0.00089847 -0.00661914 0.00569479
N 3.97777498 23.88724159 22.73868246 0.00078740 0.00247937 0.00254607
N 5.24132431 20.35447628 19.92275245 0.00481682 0.00894519 0.00267951
N 2.91318466 18.20198673 22.81707601 0.00019433 -0.00573480 -0.00183952
N 0.55546295 27.91550412 0.81907827 0.00344697 -0.00293170 -0.00328630
N 3.42393449 29.88338900 3.36104753 -0.00367271 -0.00094661 -0.00419185
N 4.64696414 26.76654578 0.87447403 -0.00690103 -0.00605773 0.00750892
N 2.41851545 24.77451169 3.95396262 -0.00114395 0.00347707 -0.00363788
N 1.02589087 27.96037126 5.64751809 0.00332713 -0.00169823 0.00062511
N 3.26613437 29.62832139 8.41883557 0.00060925 -0.00392471 0.00513365
N 5.01453163 26.79740460 5.43574640 0.00458854 -0.00273780 0.00593309
N 2.22799058 24.48260035 8.52501164 -0.00141293 0.00095617 -0.00439670
N 0.71504713 28.10721902 10.53503631 0.00353790 0.00265741 -0.00279380
N 3.06891768 29.73728478 13.08088843 0.00177698 -0.00252639 -0.00320797
N 4.80327429 26.91395593 10.28262264 0.01130461 0.00575776 -0.00559725
N 1.91658114 24.76664809 13.14615291 0.00333338 0.00077557 -0.00151556
N 0.76778598 28.04513416 15.06875457 -0.00021832 0.00458003 0.00643973
N 3.40106666 0.15372335 17.63576056 0.00153873 0.00477511 -0.00148475
N 4.81142093 26.94961623 14.93977644 -0.00235980 -0.00337588 0.00011273
N 1.80639604 24.56726176 18.09176612 0.00157072 0.00111698 0.01100744
N 0.87233429 28.01768213 19.91701233 0.00596389 0.00067823 0.00523470
N 3.14484175 29.81071149 22.56640543 -0.00131068 0.00241732 0.00461618
N 4.64589220 27.00552260 19.69411354 -0.00143775 0.00148063 0.00397565
N 1.78417257 24.60184322 22.42076096 0.00505408 0.00026391 -0.00287188
N 6.74753200 4.25459444 0.96853350 -0.00392468 -0.00351192 0.00465847
N 9.96582520 4.85308749 4.02415372 -0.00070490 0.00408482 0.00004986
N 11.67908859 1.95440078 0.75222223 0.00206555 -0.00403781 -0.00171051
N 8.41918953 1.22525937 3.60943064 -0.00556864 -0.00137227 0.00408209
N 6.66767094 3.92180081 5.62507047 -0.00006469 0.00400485 0.00509573
N 9.97019324 4.74502997 8.48609733 0.00521475 0.00022649 -0.00122573
N 11.95743603 1.84023545 6.08961036 -0.00244151 0.00054624 0.00377915
N 8.47542425 1.33436170 8.63809737 0.00282888 -0.00469153 -0.00452845
N 6.61629821 4.01842693 10.51516978 -0.00502627 0.00260952 -0.00646716
N 10.24729882 4.95332667 13.10831433 0.00472846 0.00036749 -0.00286036
N 11.93374673 2.30642608 10.44986519 -0.00092848 0.00316365 -0.00298177
N 8.44906065 1.43165712 13.07102041 -0.00074047 0.00721617 0.00052386
N 6.60049289 4.20304104 14.98969358 0.00277127 -0.00176732 0.00463900
N 10.30794382 4.79509405 17.94950441 -0.00405293 -0.00296685 -0.00200441
N 11.82466643 1.88929676 15.32522471 0.00355991 0.00362822 0.00439575
N 8.15001590 0.98588409 17.95842963 0.00510312 0.00113932 0.00068312
N 6.88394994 4.22979073 20.10403226 -0.00122206 0.00129717 -0.00176577
N 10.04586063 4.75684688 22.66967792 0.00153169 -0.00653641 -0.00359983
N 11.94111197 1.85723681 19.72365882 -0.00652266 0.00618404 0.00265126
N 8.49134247 0.87832749 22.60062069 0.00214253 -0.00798668 -0.00049845
N 6.99273404 9.56384740 1.03592555 0.00367408 0.00241394 -0.00113081
N 10.65009019 10.59233409 3.77336188 0.00146616 0.00480267 -0.00599663
N 12.28042024 7.56219304 1.22530803 0.00131204 -0.00167806 0.00317800
N 8.82459749 6.82707571 3.94281514 0.00098115 0.00546938 0.00761688
N 7.06934529 9.64432208 6.04485843 0.00174368 0.00212275 0.00321525
N 11.01824087 10.55853129 8.61422987 -0.00502162 -0.00371217 0.00096953
N 12.33467147 7.63465186 5.81899155 -0.00237043 -0.00128064 -0.00464212
N 8.87539062 6.83162080 8.62304961 0.00218231 -0.00095464 -0.00657807
N 7.34750572 9.66786505 10.72437375 0.00234227 0.00038878 -0.00096572
N 10.66502675 10.32939677 13.53648195 0.00149175 0.00952801 0.00218181
N 12.58967602 7.76376401 10.42976333 -0.00522258 0.00340622 -0.00453967
N 9.02206162 6.91187224 13.15366724 0.00876763 -0.00490261 0.00287362
N 7.44959700 9.63088466 15.20231638 -0.00065106 0.00259682 -0.00005065
N 10.73118215 10.35664316 17.96704651 -0.00638940 -0.00017156 -0.00311704
N 12.41806892 7.23728777 15.14089299 0.00312283 -0.00120988 -0.00542778
N 8.65613487 6.36947609 18.01176891 0.00489442 0.00156388 0.00185886
N 7.26906703 9.67797993 20.14372929 -0.00511212 0.00032925 -0.00214337
N 10.41239106 10.31393298 22.82549866 -0.00473254 -0.00334313 -0.00110920
N 12.50586192 7.27851127 20.09497778 -0.00347342 -0.00674844 0.00548532
N 9.18052594 6.89758774 22.63236409 -0.00388495 -0.00360951 -0.00063008
N 7.89684369 15.40376556 1.23405139 0.00350816 -0.00012731 0.00423991
N 10.23937943 17.42089979 3.93523227 -0.00576913 0.00350098 0.00298605
N 11.70251878 14.26107928 1.11301884 0.00731246 -0.00093691 0.00257071
N 9.21692423 12.33789379 3.83772816 0.00087153 -0.00014992 -0.00429047
N 7.96742295 15.16430775 5.93282960 -0.01046203 -0.00189923 0.00163150
N 10.31351442 17.57643828 8.57231574 -0.00323334 -0.00180424 0.00725054
N 11.91182138 14.19570275 5.81685617 0.00153943 -0.00189671 -0.00061486
N 9.28561800 12.05118517 8.34354893 -0.00253479 -0.00052388 0.00601901
N 7.86966003 15.22835287 10.37749351 0.00698665 0.00254922 -0.00111876
N 10.31744760 17.94067319 13.42901422 -0.00315064 0.00361968 0.00440538
N 11.67006202 14.29262574 10.54869430 0.00575480 -0.00157911 0.00124056
N 9.25360336 12.20361939 13.25656478 -0.00432898 0.00548610 -0.01003731
N 7.82926498 15.56196257 14.98120504 -0.00088566 -0.00726806 0.00109252
N 10.09980114 17.35104513 18.12533845 0.00117319 0.00739399 0.00017081
N 11.54430108 14.57038149 15.18658833 0.00327535 -0.00103170 -0.00024821
N 9.58206858 12.33735034 17.96198159 -0.00129843 0.00133411 -0.00576557
N 7.62108258 15.17306323 20.02315011 -0.00470948 0.00062875 0.00429474
N 10.28158797 17.58420310 22.48562472 0.00501462 -0.00089455 -0.00153182
N 11.43383565 14.35529812 19.97671087 0.00923667 -0.00275951 0.00444715
N 9.07522458 12.21572754 22.71477355 -0.00315690 -0.00063362 0.00398433
N 6.56944871 22.07861027 1.08448517 -0.00730564 0.00605650 -0.00022541
N 9.53556052 23.91893623 3.45147045 -0.00058520 -0.00033489 -0.00381769
N 10.62980847 20.95557026 1.00431151 -0.00495386 -0.00386101 0.00438166
N 8.36177005 18.81545278 3.69161550 0.00037580 0.00118036 0.00132166
N 7.18308292 22.00403542 5.62516530 0.00012827 -0.00635901 0.00231433