2000
Time=61000.00000005 pbc="T T T" Lattice="31.11108814 0.00000000 0.00000000 0.00000000 30.16747972 0.00000000 0.00000000 0.00000000 23.69468258" energy=-12038.20550942 virial="-35.60528106 -37.50901245 29.63389459 -37.50901245 -27.81334955 11.88417404 29.63389459 11.88417404 -50.42454689" stress="0.00055359 -0.00174171 0.00126025 -0.00174171 0.00098857 0.00046550 0.00126025 0.00046550 0.00038380" Properties=species:S:1:pos:R:3:vel:R:3
C 30.34284463 3.47612882 1.59213639 -0.00268464 -0.00475530 -0.00249241
C 2.40168205 0.77225328 3.26119960 -0.00614550 -0.00028349 0.01177418
C 29.98699538 3.64309143 6.36647097 0.00516403 0.00241605 0.00407674
C 2.21616215 0.51177935 7.95334752 -0.00392865 -0.00570919 0.00259226
C 30.35886684 3.53199043 10.93833807 -0.00123065 0.00008428 0.00151356
C 2.48587461 0.63755029 12.73218995 -0.00228914 0.00325959 0.00983221
C 30.45590367 3.73065546 15.81666308 -0.00626278 -0.00341438 -0.00317697
C 2.68758604 0.64728091 17.30593125 -0.00376567 -0.00161046 0.00449154
C 30.19507975 3.50075752 20.70328143 -0.00061523 -0.00412943 -0.00039333
C 2.84050218 0.74936666 21.99350206 0.00034215 0.00091578 -0.00932912
C 30.94861420 9.36400187 1.85235419 0.00179397 -0.00187272 -0.00181617
C 2.86310784 5.92876467 3.00148754 -0.00349800 0.00685327 0.00245316
C 31.07877364 8.96083592 6.47207261 0.01016592 0.00283450 0.00666484
C 2.93535941 6.33437053 7.52110223 -0.00013850 -0.00436488 -0.00206864
C 30.97124608 9.15677421 11.14778209 -0.00358354 0.00278232 -0.00432468
C 2.98741232 5.97192857 12.50368086 0.00006598 -0.00363218 -0.00288194
C 30.81307465 9.45458549 16.06798770 -0.00287223 0.00150553 0.00055816
C 2.80269829 6.19290905 17.18346593 0.00591715 0.00027763 -0.00539517
C 30.93132531 9.25548476 20.85465856 0.00038355 -0.00761457 0.00697997
C 2.62354347 6.23994443 21.87150022 -0.00222410 0.00139280 -0.00058732
C 0.13197313 14.65979174 1.79959015 0.00084907 -0.00438752 -0.00119034
C 3.38637400 11.83495429 3.13059358 -0.00400518 0.00770566 -0.00652300
C 0.18883469 14.96930958 6.42433255 -0.00496110 -0.00091878 -0.00331394
C 3.17991349 11.60625380 7.75923736 -0.00314450 -0.00180129 -0.00272524
C 0.39304281 14.74084024 11.04034394 -0.00044268 -0.00566387 -0.00478320
C 3.19319631 11.93711200 12.43352641 0.00191551 0.00546395 -0.00401034
C 0.24130802 15.02783505 15.88760678 -0.00324719 0.00356543 0.00257966
C 3.12386480 11.89910278 17.24791129 -0.00674630 0.00288653 0.00254423
C 0.08548648 14.85376358 20.63646476 -0.00005959 0.00246642 0.00698404
C 3.20706802 11.87944870 21.87664005 0.00236931 -0.00068114 0.00014133
C 0.53449768 20.46854189 1.85187911 -0.00634872 0.00028167 0.00150347
C 3.76479360 17.35089380 2.87561915 -0.00002865 0.00038338 0.00646733
C 0.61830052 20.50092844 6.47652677 -0.00827480 -0.00252432 0.00300958
C 3.49634342 17.41011887 7.79197108 -0.00091492 -0.00691910 -0.00052129
C 0.58377831 20.71395813 11.22968921 -0.00392896 -0.00268827 -0.00085924
C 3.69003293 17.49377343 12.59576535 0.00303325 0.00630919 0.00382926
C 0.74589842 20.61523618 15.97043552 -0.00099170 0.00028438 -0.00126663
C 3.88137614 17.68498523 17.26913014 0.00498764 -0.00619185 0.00091074
C 0.48835351 20.48366956 20.67523908 -0.00352963 0.00099979 -0.00047572
C 3.37394996 17.83845334 21.91250762 -0.00306281 -0.00376919 -0.00166926
C 30.72419615 27.07467266 1.94888598 0.00292731 0.00425335 0.00240497
C 2.99747399 24.27959832 3.03898144 0.00127915 0.00393981 0.00101022
C 30.99177197 26.99384402 6.61192481 -0.00511714 0.00104106 -0.00361969
C 3.34980344 24.41580277 7.86474590 -0.00148030 -0.00152130 0.01140360
C 31.10736885 27.21411493 11.25687809 0.00330019 0.00497568 0.00111449
C 3.22065322 24.06833986 12.66516876 0.00181149 -0.00182505 -0.00041116
C 0.06712512 27.33185839 16.02556167 0.00413209 -0.00105232 -0.01209576
C 2.96666107 24.00925295 17.42951754 -0.00454901 -0.00285122 0.00110400
C 0.18217011 27.22459840 20.76768266 0.00629525 -0.00000810 0.00930607
C 3.12518214 24.25949490 22.05774372 0.00137050 -0.00364445 -0.01120186
C 6.08483180 3.31738761 1.76624023 -0.01170835 0.00670000 0.00077192
C 8.91513546 0.30039093 3.08394874 0.00672606 0.00355044 0.00061016
C 6.05055680 3.16784013 6.44281983 -0.00371845 0.00087939 0.00504701
C 9.32106305 0.19901167 7.85949710 0.00525050 0.00302069 -0.00292548
C 6.12459195 3.41536194 11.08498614 0.00290768 0.00279444 -0.00290403
C 9.16484326 0.28247020 12.51156392 0.00229446 -0.00339333 -0.00065456
C 6.37159005 3.08970367 15.79146189 0.00203401 -0.00406663 -0.00214032
C 9.39597833 0.12097082 17.29351250 -0.00077162 0.00001623 0.00118614
C 6.22640893 3.40348462 20.56386292 0.00268936 -0.00188529 -0.00076514
C 9.04678926 0.36618903 22.01798445 0.00648155 -0.00087697 0.00377060
C 6.62882850 8.79638669 1.59997219 0.00387796 -0.00025745 0.00393823
C 9.52043778 5.79938677 2.95460579 -0.00648876 0.00324050 -0.00220173
C 6.37911414 8.86998815 6.42376193 -0.00099998 -0.00159867 -0.00099047
C 9.65284438 5.95556692 7.61722248 -0.00791091 -0.00208279 -0.00682274
C 6.43810291 8.63540616 11.11474436 0.00212154 0.00526104 -0.00537610
C 9.95069809 6.00387249 12.53068800 -0.00713677 0.00235215 -0.00565973
C 6.57240444 8.68294502 15.72028588 0.00111806 -0.00229680 -0.00357886
C 9.55687503 5.65694468 17.25332508 -0.00821420 0.00321943 0.00319070
C 6.13689683 8.96331605 20.52611283 -0.00121354 0.00335560 0.00194818
C 9.60427697 5.84499948 21.96436920 0.00364322 -0.00169684 -0.00423069
C 6.89143397 14.53494164 1.60032703 -0.00443893 0.00704145 0.00161873
C 9.93841679 11.42258574 2.81108607 0.00335373 -0.00366219 0.00507642
C 6.76897686 14.37269087 6.48734195 0.00118951 0.00094623 -0.00454903
C 9.75938414 11.61260896 7.53016595 -0.00088209 0.00202336 0.00099907
C 6.41007402 14.42531426 11.18497098 -0.00093691 -0.00038558 -0.00321535
C 9.99889257 11.66806209 12.25937044 0.00524912 0.00073039 0.00397349
C 6.93234863 14.29679725 15.91967945 0.00319272 -0.00443574 0.00119609
C 9.86805875 11.53847951 16.90258653 -0.00272428 0.00134449 -0.00395902
C 6.84553871 14.52155792 20.48643353 0.00197471 -0.00180418 -0.00632854
C 9.75796766 11.28476715 21.62153019 0.00175787 0.00577111 0.00201416
C 6.27329407 21.35979782 1.78254729 -0.00441103 -0.00212402 0.00012819
C 9.56402344 18.03903005 3.32372648 -0.00670514 0.00339446 -0.00337486
C 5.95796934 21.08840131 6.45592848 -0.00588418 -0.00301201 0.00259121
C 8.90760353 18.16055464 7.94595452 -0.00480257 -0.00588611 -0.00166173
C 6.13865881 21.21937894 11.29109757 -0.00181655 0.00175030 -0.00656037
C 9.58802408 18.02068219 12.50342513 0.00133173 0.00034537 -0.00085282
C 6.20574322 21.25163725 16.20399425 -0.00666269 0.00492589 0.01198064
C 9.26400084 18.07026196 17.30522263 0.00097510 -0.00113797 0.00742182
C 6.07157984 21.24010408 20.79352502 -0.00733001 0.00125526 -0.00335006
C 9.13222445 18.12296734 22.04305075 -0.00171712 -0.00671965 -0.00352095
C 5.82419062 27.80694392 1.87651863 0.00418440 0.00885894 0.00457801
C 8.85492507 24.72597430 3.15679871 -0.00111174 0.00290727 0.00350559
C 5.62599879 27.98079514 6.54274177 0.00968442 -0.00533494 -0.00202345
C 8.64899995 24.68799399 7.79815559 0.00556830 0.00215241 -0.00021842
C 5.51096528 27.69977555 11.25717537 -0.00065866 0.00129714 -0.00011820
C 8.76668436 24.77271424 12.33910492 -0.00369935 -0.00064316 -0.00041370
C 5.58612304 27.84097678 16.19153745 0.00588886 -0.00196289 0.00483589
C 8.96701748 24.74155849 17.11029609 -0.00317121 -0.00081595 -0.00399814
C 5.76854994 27.70364700 20.69195031 -0.00426951 -0.00813794 -0.00069422
C 8.80672827 24.71765384 21.77447198 -0.00028765 -0.00150420 0.00014593
C 12.89934731 2.76224032 1.75349423 -0.00537281 0.00210433 0.00006201
C 15.65558162 29.98649579 3.23170515 0.00695407 -0.00476953 -0.00519001
C 12.81958641 2.67788220 6.49444755 0.00314488 -0.00536290 -0.00255519
C 15.69931231 30.05662858 7.82409914 -0.00749222 0.00226928 0.00115995
C 12.73771124 2.78488363 11.14811343 0.00292492 -0.00194069 0.00102240
C 15.84319641 29.98059756 12.42182782 0.00938340 -0.00543689 0.00521392
C 13.01827011 2.81856082 16.03426965 0.00212543 0.00699852 -0.00460784
C 15.84145753 29.95536200 17.35686808 0.00065453 0.00116639 0.00386016
C 12.75858038 2.81521016 20.57943290 -0.00349379 -0.00501099 -0.00039761
C 15.77431549 29.96752433 22.00535622 0.00436325 0.00388157 0.00468705
C 13.02190150 8.57141680 1.49517120 0.00569918 -0.00369836 -0.00027081
C 16.37802210 5.66897443 2.90208109 0.00441888 0.00414017 -0.00082970
C 13.23105891 8.47041327 6.15932163 -0.00258991 -0.00178350 0.00107033
C 16.33694609 5.38615280 7.59432447 -0.00282319 -0.00084537 0.00083386
C 13.04124686 8.48662231 10.83646735 -0.00820884 0.00502136 -0.00047726
C 16.33198796 5.47024794 12.35628086 0.00313133 0.00206219 0.00264898
C 13.06648825 8.46422219 15.66463501 -0.00009164 -0.00027533 0.00097044
C 16.03871119 5.43556883 17.23515870 -0.00491187 -0.00518189 -0.00073520
C 12.84749989 8.45873825 20.43607055 0.00494134 0.00299547 -0.00769490
C 16.19470615 5.52802445 21.81422997 0.00720058 0.00266636 -0.00639447
C 12.37355750 15.15029619 1.68292647 -0.00300874 -0.00573793 0.00277059
C 15.90626201 12.08724751 2.79699626 -0.00355502 -0.00546461 0.00452686
C 12.42589281 14.85303724 6.47486855 0.00928931 -0.00032681 -0.00285026
C 15.58838327 12.02047560 7.68926699 0.00448812 0.00336633 -0.00447629
C 12.40340680 15.09548115 11.22874286 -0.00041015 -0.00207412 -0.00069729
C 15.68161300 12.26699068 12.45774399 -0.00458401 0.00266393 0.00610174
C 12.25956481 14.98479027 15.95910306 0.00165525 0.00703058 -0.00338568
C 15.36496908 12.08183333 17.19022468 0.00439818 0.00131858 0.00670959
C 12.29502713 15.05273893 20.58483636 0.00111302 0.00020496 -0.00269591
C 15.55374351 12.17561466 21.84331472 0.00025852 -0.00666851 0.00315906
C 11.64739901 21.81914740 1.42051173 0.00009438 0.00120016 0.00091277
C 14.93137641 18.69635474 2.99082077 -0.00283420 -0.00557853 -0.00420081
C 11.74317628 21.80404872 6.33955958 -0.00035148 0.00119179 0.00480620
C 14.87856770 18.74867835 8.08571628 -0.00354599 -0.00244869 0.00247660
C 11.75126931 21.48828947 11.16366875 -0.00147557 0.00218064 -0.00956607
C 15.12165154 18.53474980 12.66372671 0.00443617 0.00399299 0.00420937
C 11.76279365 21.65276334 16.04380526 0.00128414 -0.00199606 -0.00460525
C 15.13406113 18.43155952 17.44893448 -0.00999846 -0.00295855 0.00945150
C 11.59836728 21.59100713 20.47326873 0.00359096 0.00173237 -0.00432362
C 15.09740625 18.73285919 22.04863384 -0.00532717 0.00600841 -0.00186487
C 12.31136881 27.42304646 1.80705296 0.00079756 -0.00081569 -0.00552410
C 15.47674797 24.45332050 3.02920503 0.00268605 0.00291815 -0.00057388
C 12.05956455 27.31606403 6.46668919 0.00143779 -0.00284361 -0.00421584
C 15.47200769 24.12085379 7.64560403 0.00460552 0.00365582 0.00123479
C 12.31113606 27.40530940 11.18831971 -0.00061732 0.00594875 0.00044761
C 15.52686556 24.35653032 12.53218542 -0.00104612 -0.00080726 0.00479801
C 12.24154912 27.33401492 16.00203365 0.00564282 0.00021009 -0.00648707
C 15.33178715 24.14845733 17.19166434 0.00462468 -0.00537741 -0.00175035
C 12.28374743 27.33003391 20.68880099 -0.00351666 -0.00121471 0.00386565
C 15.27636883 24.53519017 21.81137201 0.00111582 -0.00339708 -0.00234768
C 19.58588661 2.31650215 1.59347090 -0.00811477 0.00027015 -0.00047095
C 22.49197557 29.40491937 3.09907998 0.00059670 -0.00155838 0.00018703
C 19.20952061 2.54014870 6.26372825 0.00238278 0.00010021 0.00161908
C 22.25244498 29.35634105 7.81082278 0.00239755 0.00219943 0.00031366
C 19.19732666 2.61127673 11.26719914 0.00076223 0.00120449 -0.00627943
C 22.26912935 29.60816133 12.47143763 0.00757556 0.00830407 0.00187526
C 19.26904352 2.40923336 15.99764861 -0.00290988 -0.00122619 0.00100609
C 22.57559981 29.75399635 17.11207943 -0.00235529 0.00168974 -0.00164857
C 19.27052120 2.51955761 20.46160817 -0.00292314 0.00555458 0.00285171
C 22.25269676 29.16670189 21.95757739 -0.00273033 0.00562177 -0.00267002
C 18.69933742 9.24438197 1.55055384 0.00667556 0.00153303 -0.00297298
C 22.12631013 5.95274238 3.08597639 0.00311709 0.00377547 0.00471201
C 18.94997814 9.16909160 6.35740662 0.00005797 -0.00203882 -0.00025979
C 21.91118775 6.05018781 7.89916095 0.00256940 0.00071811 -0.00636197
C 18.46783319 9.24563170 11.13005581 0.00033060 -0.00698169 0.00200001
C 21.84168842 6.27191002 12.46755210 -0.00051299 0.00187616 0.00215332
C 18.36050773 9.06583486 16.03457559 0.00207321 0.00076737 -0.00000415
C 21.71433890 6.17613490 17.14346998 0.00519005 -0.00006424 0.00428088
C 18.30127865 9.13359671 20.57361926 -0.00378178 -0.00149510 0.00218945
C 21.69217832 6.08894448 21.87322946 0.00007153 -0.00212258 -0.00033505
C 17.83926123 15.89375677 1.89047270 0.00380051 0.00032568 0.00629509
C 20.96887624 12.74796992 2.99205413 0.00066078 -0.00172398 -0.00163115
C 17.86407170 15.61485231 6.61856467 -0.00235480 0.00185265 0.00250960
C 21.32067113 12.55184516 7.74689362 0.00030649 -0.00072110 -0.00827284
C 18.24813350 15.48263478 11.18192186 -0.00089857 -0.00501315 0.00099043
C 21.30124284 12.64257682 12.40495624 0.00291603 0.00199325 -0.00130016
C 18.24304647 15.66251040 15.96592883 0.00456147 0.00555323 0.00609365
C 21.05568608 12.61016137 17.14761123 -0.00217924 0.00217983 -0.00380269
C 18.24491636 15.79014639 20.79373053 -0.00388143 -0.00295637 -0.00409807
C 21.30503000 12.82397397 22.11060647 0.00389114 -0.00250558 0.00160270
C 18.53405993 21.42019631 1.64020369 -0.00123153 0.00664763 -0.00492762
C 21.65526305 18.17843294 3.03952702 0.00734595 0.00427620 0.00178798
C 18.59384741 21.17509807 6.27022210 -0.00192060 0.00549225 0.00168446
C 21.48825799 18.04722883 7.91172703 -0.00225120 0.00222991 0.00434636
C 18.44936824 21.21638613 11.08857619 -0.00646860 -0.00441984 0.00703328
C 21.66258427 18.32058921 12.64447054 0.00184609 -0.00231813 0.00267425
C 18.49974798 21.33350249 15.95994935 0.00898667 0.00116167 0.00159031
C 21.58962506 18.36539452 17.32031934 -0.00521500 -0.00107278 0.00085708
C 18.63618739 21.34867095 20.69448757 0.00036921 -0.00449285 -0.00008978
C 21.42553268 18.10167684 22.12819833 -0.00087237 -0.00411154 0.00172273
C 18.87295622 27.04005044 1.96860537 -0.00113594 -0.00402681 -0.00277079
C 21.96557436 23.68711032 3.24842883 0.00042115 0.00847919 0.00437794
C 18.90926360 26.92550848 6.60696622 0.00447705 -0.00136833 0.00011089
C 22.00051599 23.56439464 7.77425121 0.00970808 0.00428003 -0.00405153
C 18.63818721 26.81396032 11.35806395 -0.00020075 -0.00331144 -0.00349850
C 21.99261259 24.03423151 12.58398005 0.00086455 -0.00191323 0.00460669
C 18.58493135 27.04012616 15.94308608 -0.00159182 -0.00351391 0.00221852
C 21.80035104 24.10906134 17.07643858 -0.00556576 -0.00184563 -0.00275235
C 19.11940350 26.89977885 20.78870360 -0.00000082 -0.00117344 0.00171773
C 22.35078201 23.76224189 21.96446082 0.00157813 -0.00240803 0.00602236
C 24.98767869 2.79951646 1.67128822 -0.00921462 0.00093413 -0.00190192
C 27.90539927 29.83605878 2.92653310 0.00697171 -0.00705248 0.00326591
C 24.78904469 2.84564083 6.38463706 0.00068721 0.00261078 -0.00419681
C 28.06138722 29.98109312 7.74066450 0.00423780 0.00343474 -0.00001681
C 24.79000073 3.07773988 11.22573570 0.00012644 0.00302402 -0.00086124
C 28.20802457 30.03447953 12.58262734 0.00317166 -0.00475034 0.00228788
C 24.83210405 2.99267516 16.11276137 -0.00219022 -0.00021545 -0.00166203
C 27.85362778 0.08073284 17.33057552 0.00094881 -0.00362947 0.00534408
C 24.81841583 3.12011920 20.90871330 -0.00220745 0.00348484 0.00033781
C 27.94138295 0.06800796 22.03876176 -0.00006518 -0.00344593 -0.01162166
C 24.22402294 9.64093543 1.85329156 -0.00070137 -0.00094179 0.00363936
C 27.40957441 6.50219581 2.89808938 0.00436421 0.00343931 -0.00246244
C 24.29226788 9.67152103 6.47936393 -0.00498755 0.00442095 -0.00568064
C 27.50020364 6.77238354 7.72209213 0.00198629 0.00261420 0.00465852
C 24.15376086 9.52857478 11.05243343 0.01102334 -0.00666546 0.00230939
C 27.22340852 6.58721583 12.45353008 0.00646980 -0.00745219 -0.00409703
C 24.48444657 9.94150040 16.13188834 -0.00442801 -0.00527309 -0.00101550
C 27.32156068 6.86549514 17.36126187 0.00047791 -0.00533188 -0.00632098
C 23.95167230 9.52805012 20.87776845 0.00413569 0.00120660 0.00271118
C 27.51322564 6.44906716 22.06959698 0.00305819 0.00097024 -0.00029456
C 24.67894530 15.36873245 1.69717140 0.00114485 0.00423940 0.00187335
C 27.84933465 12.27464613 3.08707845 0.00360358 -0.00994963 -0.00161435
C 24.74671674 15.45388781 6.40085199 -0.00525759 0.00180390 0.00335625
C 27.92013413 12.29237231 7.69065740 0.00401292 -0.00010954 0.00273235
C 24.86084514 15.01888451 11.19070400 0.00389843 0.00083225 -0.00096983
C 28.15026371 11.95598971 12.24760734 -0.00490824 -0.00305398 -0.00147390
C 24.64092787 15.37691371 15.97180206 0.00378636 0.01059693 0.00533410
C 27.82219097 12.17746598 17.43973142 -0.00603691 0.00079461 0.00442457
C 24.66282526 15.15560182 20.68192236 0.00042459 -0.00904894 -0.00382927
C 27.65437182 12.03057319 22.16393867 -0.00472025 -0.00758475 -0.00419815
C 24.84459434 21.00896545 1.73114659 0.00074257 -0.00022646 -0.00617601
C 28.22423412 17.85974212 3.03004327 -0.00250017 0.00000039 0.00691147
C 24.99723798 21.03115633 6.43111340 -0.00204242 -0.00113117 0.00143380
C 28.45989230 18.14569122 7.86271207 -0.00344658 0.01362467 -0.00364444
C 24.89856749 20.86991964 11.15055774 -0.00617579 -0.00571655 -0.00440629
C 28.23198645 17.84661156 12.57574917 0.00213977 0.00284097 -0.00738776
C 25.09310775 21.14991473 15.78126534 -0.00193730 0.00220822 0.00895876
C 28.13974217 17.92670518 17.21992928 -0.00406456 -0.00381654 0.00467546
C 25.00519976 21.06984209 20.47242726 0.00088372 0.00183412 -0.00169814
C 28.13398837 17.89885061 21.94788113 -0.00011991 0.01077780 -0.00207125
C 25.26601510 26.40695624 1.89111233 0.00751144 -0.00662364 -0.00285257
C 28.56087843 23.50608946 2.99535820 -0.00706057 0.00009942 -0.00006335
C 25.51922203 26.35098004 6.53467396 -0.00126187 0.00912512 -0.00425595
C 28.60453492 23.50617685 7.84681160 0.00555509 0.00496556 0.00811389
C 25.54626014 26.39333605 11.19652649 -0.00463826 0.00517337 0.00222789
C 28.86054717 23.37002648 12.66459091 -0.00106808 -0.00451816 0.00081559
C 25.66245147 26.64042222 15.95641922 0.00684077 0.00936465 -0.00347076
C 28.83190074 23.68726113 17.33129297 0.00906721 0.00304836 0.00691542
C 25.43982336 26.70298843 20.64980619 0.00160732 0.00198782 0.00449039
C 28.65364838 23.84741988 21.91473812 0.00039538 0.00919196 0.00488063
N 0.02365586 4.39381270 0.88701664 -0.00224187 -0.00340657 -0.00364984
N 3.43376075 5.09276602 3.91502265 -0.00206120 -0.01036871 0.00299321
N 5.11381066 2.61885126 1.06175335 -0.00637300 0.00270002 0.00440454
N 1.50858258 1.57036635 3.91304670 -0.00393790 0.00224801 -0.00401268
N 30.73411072 4.54343419 5.63342902 0.00452493 0.00356794 0.00552205
N 3.63888338 5.22848629 7.95233224 0.00301711 -0.00491498 0.00231805
N 5.45040731 2.06138409 5.89393129 -0.00101661 0.00071576 0.00031768
N 1.48701654 1.40059690 8.70371475 0.00577221 0.00237734 -0.00266657
N 31.03139221 4.37214017 10.09823876 -0.00068206 0.00361940 0.00224161
N 3.66000085 4.97501808 13.16254529 -0.00160614 -0.00435605 -0.00409649
N 5.43307850 2.32536809 10.64066651 -0.00901486 0.00578989 0.00195864
N 1.58398149 1.33749194 13.44119501 -0.00058924 0.00593940 0.00086371
N 0.30333167 4.32039997 15.05131821 -0.00157542 0.00136999 0.00084911
N 3.46420658 5.24284260 17.90236549 0.00790391 0.00293939 -0.00443504
N 5.63308560 2.19411788 15.05863681 -0.00138556 -0.00357099 -0.00677995
N 1.87229171 1.38641281 18.11244202 0.00635036 0.00573077 0.00015453
N 0.00425530 4.40405322 20.25879524 -0.00386261 -0.00417143 0.00278804
N 3.21071294 5.28281785 22.56042669 -0.00045952 -0.00336621 0.00115529
N 5.77861797 2.27912332 19.99128266 0.00380139 -0.00039943 -0.00232003
N 1.91787671 1.25765295 22.80393448 0.00376212 -0.00706504 0.00106433
N 0.57249777 10.36220237 1.18900746 0.00037365 0.00457654 -0.00428028
N 3.86085756 10.85294743 3.82515138 0.00488052 -0.00204245 0.00432077
N 5.92709136 7.97469578 0.74545757 0.00222508 -0.00520067 -0.00068032
N 2.24354390 7.02301365 3.47534587 -0.00000705 -0.00011336 -0.00417656
N 0.42407789 10.15284856 5.93422215 0.00217959 -0.00548821 -0.00801801
N 3.76361426 10.74314736 8.62600186 -0.00113471 0.00220844 0.00199189
N 5.66307907 7.88834961 5.83282673 0.00170815 0.00200021 0.00242182
N 2.21840738 6.92763072 8.49364953 -0.00332630 -0.00224872 -0.00086756
N 0.60827561 10.10350048 10.46366443 -0.00085101 0.00077415 -0.00152330
N 3.84221344 10.82273399 12.87092155 -0.00194304 0.00097828 -0.00396330
N 5.67988492 7.90967357 10.25359248 0.00391462 0.00408308 -0.00466769
N 2.28415501 6.87453156 13.23916854 0.00120415 -0.00257917 0.00373989
N 0.46223226 10.26320640 15.30205901 0.00406835 0.00090669 -0.00178178
N 3.67479613 10.93384079 17.96835563 0.00471492 -0.00148906 0.00170622
N 5.84353102 7.73131232 15.05870646 -0.00229221 0.00091630 0.00306124
N 2.15413549 7.23198453 17.81997602 -0.00264557 -0.00208559 0.00199380
N 0.59131144 10.08445114 20.11604245 0.00590193 0.00029147 -0.00018213
N 3.89449792 10.96543814 22.54921835 -0.00137613 -0.00243702 0.00361222
N 5.56106355 7.87629086 19.91711306 0.00626208 -0.00104533 0.00404866
N 2.12846291 7.31946762 22.51203330 0.00059540 0.00017504 -0.00191598
N 1.02000627 15.35962777 1.03428194 0.00303567 -0.00344823 0.00188777
N 4.67218793 16.79127761 3.67887097 0.00308206 -0.00082058 -0.00602030
N 5.99798056 13.66630273 0.93304135 -0.00422789 0.00236366 -0.00579771
N 2.85136643 12.87250113 3.82382435 0.00344386 -0.00795845 0.00227237
N 1.18162588 15.62582771 5.72676752 0.00700625 -0.00431238 0.00030062
N 4.37829477 16.78127412 8.57548915 0.00103921 0.00049667 0.00060999
N 5.99112204 13.56769061 5.69308601 0.00676078 -0.00221534 -0.00032076
N 2.44833054 12.66576450 8.30676909 -0.00388396 0.00362153 -0.00092358
N 1.03120813 15.76052889 10.47184316 0.00175333 -0.00600399 0.00092121
N 4.21979627 16.53255906 13.40186083 -0.00209437 -0.00163722 -0.00601130
N 5.88300502 13.58542531 10.29401168 0.00170751 0.00042928 0.00601048
N 2.74356478 12.81192534 13.36547725 0.00193011 0.00274370 -0.00611223
N 0.89239072 15.92968327 15.14898952 0.00669373 0.00135124 0.00253377
N 4.50326247 16.70104012 18.03794710 -0.00206952 0.00585815 -0.00269091
N 6.06111380 13.61597265 15.20698620 -0.00035535 0.00319556 0.00192656
N 2.70940521 12.94490437 18.07111960 0.00199783 -0.00141636 -0.00177489
N 0.84485569 15.72122416 19.88512332 0.00392169 -0.00221495 -0.00463666
N 4.34890764 17.12627844 22.49333490 0.00421318 0.00040072 0.00239131
N 6.01380558 13.70099461 19.78187664 -0.00350752 -0.00141467 0.00075383
N 2.58164399 12.76830376 22.71774154 -0.00294939 -0.00039422 -0.01199277
N 1.17865304 21.35042074 1.04510566 -0.00437227 0.00332487 0.01307264
N 4.05449858 23.77181210 3.67538635 -0.00206917 0.00018261 0.00328704
N 5.44979937 20.42256878 1.23703783 -0.00042565 0.00508612 -0.00182056
N 2.90847973 18.18143709 3.55567831 0.00134284 0.00046695 0.00075495
N 1.29621306 21.37585222 5.66744666 0.00008402 -0.00191110 0.00940657
N 4.16674110 23.68290635 8.58244915 -0.00112276 -0.00403999 0.00000402
N 5.10580718 20.35096469 5.63460442 -0.00969757 -0.00001306 0.00520353
N 2.66910465 18.30675343 8.38711407 -0.00159304 -0.01050103 0.00518157
N 1.34120702 21.64363981 10.50237291 0.00219290 0.00369736 0.00104088
N 4.12007138 23.45784085 13.55107000 0.00542973 -0.00052113 -0.00026530
N 5.27731683 20.50583773 10.61587949 -0.00286530 0.00327522 -0.00259518
N 2.91880734 18.46943241 13.18763675 -0.00487501 -0.00629806 0.00218606
N 1.70445930 21.33826055 15.34323582 -0.00393378 -0.00098302 -0.00065822
N 3.93074098 23.41988094 18.13487650 -0.00019328 -0.00252270 0.00206668
N 5.36641186 20.53583333 15.39334818 -0.00183112 -0.00293744 0.00286152
N 3.11946037 18.56122286 17.95360858 0.00179291 0.00111471 -0.00351336
N 1.45998279 20.97906219 19.86508676 0.00312071 0.00198518 -0.00475418
N 3.81107734 23.32836985 22.81373200 0.00005416 -0.00050823 -0.00334968
N 5.26716788 20.41703602 20.08561929 0.00306047 -0.00263787 0.00765674
N 2.48986187 18.39218629 22.83574802 0.00525951 -0.00242403 0.00226261
N 0.43483586 27.92194493 1.38911408 -0.00107466 0.00375551 0.00040052
N 3.16211677 30.07517067 4.02271775 -0.00014846 0.00213176 -0.00010995
N 5.09747583 26.97569512 1.08323865 -0.00785019 0.00422496 -0.00059993
N 2.13892709 25.08298757 3.75427716 -0.00390232 -0.00095750 -0.00119631
N 0.61008054 27.84554898 5.91138066 -0.00145451 0.00425117 0.00249161
N 2.92832081 29.84705525 8.77076456 -0.00052971 -0.00482242 0.00672096
N 4.78425249 27.12333495 5.89856178 -0.00191334 -0.00158518 0.00377691
N 2.36158638 24.97046730 8.57512105 0.00445965 -0.00334077 -0.00335220
N 0.77394812 28.08079355 10.52381582 -0.00696940 -0.00056344 -0.00470836
N 3.34383021 30.07016593 13.47827207 0.00539975 0.00206781 0.00645290
N 4.71187834 26.96348232 10.43278691 0.00112775 0.00094480 0.00118088
N 2.42501220 24.87130655 13.31568268 0.00487811 -0.00417135 -0.01057272
N 0.80519976 28.12522467 15.24711863 -0.00180625 0.00478409 -0.00133456
N 3.69843104 0.02710427 18.00914550 -0.00029834 -0.00265225 0.00424341
N 4.81745601 26.99760171 15.44558175 -0.00478162 0.00002142 0.00235682
N 1.80324665 24.42881138 18.13878654 -0.00612250 0.00078498 0.00440521
N 1.23874042 27.77271394 20.04260584 -0.00545550 -0.00073266 -0.00269246
N 3.83029191 0.01852164 22.57328091 -0.00132105 -0.00013776 0.00839491
N 4.93070627 26.97643594 19.94580168 -0.00161252 -0.00020908 0.00018259
N 2.27284544 25.11607961 22.71560166 0.00031567 0.00870907 -0.00155825
N 6.84955037 4.18347157 0.96938432 -0.00314199 -0.00187335 -0.00380284
N 10.19756700 4.93293950 3.70982968 -0.00016592 0.00187632 -0.00156923
N 12.11288637 2.06398270 1.02636969 0.00148394 0.00572838 -0.00097550
N 8.36338209 1.22183521 3.89553696 -0.00049930 0.00135665 -0.00249983
N 6.71853508 4.07194647 5.61622689 -0.00375028 -0.00687877 -0.00134766
N 10.21787410 4.94571620 8.25182060 0.00329197 -0.00079754 -0.00263322
N 12.05225894 1.88829602 5.73905042 0.00633962 -0.00472994 0.00563565
N 8.67598823 1.16791682 8.61095813 -0.00188841 -0.00212822 -0.00039811
N 6.60899092 4.34734977 10.16030120 -0.00158484 0.00449138 -0.00085771
N 10.55279465 5.05082961 13.31073508 -0.00016252 -0.00016186 -0.00144926
N 11.83087025 1.98964899 10.63920298 0.00415679 0.00028358 -0.00232348
N 8.50893191 1.30927628 13.20778143 0.00085777 -0.00210339 0.00142188
N 6.68964860 4.27982331 15.18346170 0.00006824 -0.00285105 0.00807007
N 10.28383868 4.87444475 18.09800114 0.00428398 -0.00275374 0.00016313
N 12.21280864 2.02392087 15.30142165 0.00218997 -0.00106930 -0.00052173
N 8.90865617 1.13652669 18.04178190 0.00490203 0.00218980 -0.00441120
N 6.89775132 4.20867327 19.71135380 0.00316299 0.00122479 -0.00169188
N 10.14738016 4.92453179 22.74689209 0.00353623 0.00101077 -0.00344453
N 12.08703435 1.86424727 19.86493129 -0.00230297 0.00611520 -0.00729232
N 8.33328795 1.21446378 22.76120617 -0.00261865 -0.00188753 -0.00138943
N 7.38726506 9.73178750 0.93304066 0.00094282 -0.00005537 0.00163877
N 10.74546024 10.62429575 3.50021683 0.00097356 0.00341060 -0.00544438
N 12.37987886 7.60955078 0.77056243 0.00086950 -0.00468207 -0.00585812
N 8.87045602 6.80909082 3.70038380 -0.00090274 -0.00108189 -0.00417829
N 7.07819172 9.71039858 5.66085660 0.00003180 0.00351267 -0.00144177
N 10.53067226 10.68404072 8.16369683 -0.00077216 0.00603012 0.00479866
N 12.54617588 7.40641495 5.47968882 -0.00001375 -0.00371243 0.00359497
N 9.04399101 6.84668765 8.40833456 0.00670838 0.00377430 -0.00445112
N 7.21518819 9.56400541 10.43753273 -0.00363063 -0.00281444 0.00502854
N 10.94116423 11.01180569 13.01509978 0.00249170 -0.00430018 0.00164303
N 12.35806880 7.54092328 10.16835990 -0.00380232 -0.00179560 -0.00139891
N 9.06612390 6.77748320 13.16394998 -0.00004041 0.00343860 0.00708099
N 7.29523645 9.55618276 14.98206044 -0.00375492 -0.00085306 0.00009766
N 10.89218640 10.92394676 17.48095779 0.00682785 -0.00597579 -0.00030750
N 12.32836771 7.57790488 14.89493774 0.00011235 0.00544263 0.00339353
N 8.87112302 6.67658503 17.86105226 -0.00099862 0.00721995 0.00741254
N 6.72665669 9.89987076 19.73718217 -0.00642082 0.00554021 0.00188435
N 10.75757749 10.86844038 22.45744609 -0.00048525 0.00158264 0.00113891
N 12.19657306 7.58649735 19.61272014 0.00114246 -0.00071986 -0.00142718
N 8.89831460 6.78181688 22.66775572 -0.00139934 0.00020945 0.00558588
N 7.62616065 15.35832072 0.81347754 0.00126638 0.00203255 -0.00125148
N 10.36080609 17.23601949 4.06580280 0.00046927 -0.00384715 0.00721690
N 11.76912326 14.25421264 0.85166464 -0.00221016 0.00052785 0.00631505
N 9.09995916 12.19917449 3.51083326 -0.00069904 0.00173747 -0.00162162
N 7.56242646 15.25277240 5.77705922 -0.00015743 -0.00166445 0.00561151
N 10.02102109 17.62946525 8.56984262 -0.00271353 -0.00272374 0.00198680
N 11.71994369 14.06509616 5.62535528 -0.00936800 0.00136782 0.00279136
N 8.99996316 12.36106717 8.32798472 0.00026174 0.00068894 0.00297336
N 7.20307495 15.36433120 10.69367518 -0.00621183 -0.00372481 -0.00290528
N 10.53242286 17.37092826 13.22246354 -0.00179732 0.00241729 -0.00327911
N 11.41398515 14.58224591 10.50309726 0.00979474 0.00035756 0.00424711
N 8.92137530 12.10586102 13.04547952 0.01054234 -0.00194988 -0.00080114
N 7.50283014 15.29078774 15.18498476 0.00062467 -0.00090999 -0.00068267
N 10.28410913 17.50225429 18.07325643 0.00118095 -0.00053599 -0.00234178
N 11.47460942 14.31126400 15.02629305 -0.00258140 -0.00406677 -0.00163464
N 8.94543929 12.10897492 17.78618346 0.00041127 -0.00328079 -0.00699796
N 7.78161224 15.29078341 19.81010161 0.00266508 0.00479942 0.00360745
N 10.15926278 17.56405442 22.80555039 -0.00601493 0.00010595 -0.00052212
N 11.52600272 14.12722129 19.95167904 0.00109285 -0.00053690 0.00025968
N 8.79206367 11.84350804 22.30303900 -0.00141709 -0.00113864 0.00084966
N 7.00026464 22.23698641 0.99669270 -0.00082387 0.00260719 -0.00299162
N 9.33439510 23.63498862 3.81826677 0.00433344 0.00258260 0.00213715
N 10.84826200 20.89059100 0.69203143 0.00198729 -0.00252876 -0.00074584
N 8.45889706 18.56358640 3.96069139 -0.00051749 0.00255260 0.00275393
N 7.01907142 21.74922075 5.91519986 0.00016144 0.00263998 0.00644873