2000
Time=56000.00000004 pbc="T T T" Lattice="31.15362771 0.00000000 0.00000000 0.00000000 29.97037677 0.00000000 0.00000000 0.00000000 23.63391235" energy=-12041.34713829 virial="-45.74720122 -12.82685723 -21.43477258 -12.82685723 -37.91955416 -15.18763384 -21.43477258 -15.18763384 -52.82932871" stress="0.00014626 -0.00056747 -0.00098589 -0.00056747 0.00048571 -0.00067445 -0.00098589 -0.00067445 0.00038640" Properties=species:S:1:pos:R:3:vel:R:3
C 30.65768752 3.46865095 1.63914012 0.00050153 0.00325011 0.00373990
C 2.18421087 0.29515905 3.15086687 -0.00098842 -0.00316293 -0.00513832
C 30.39511823 3.62383793 6.44894254 0.00119261 0.00328963 0.00024143
C 2.40745902 0.78976125 7.71073141 -0.00186822 0.00101666 -0.00132877
C 30.40608879 3.71985895 11.08811641 0.00555613 0.00352869 -0.00311788
C 2.21276925 0.45893373 12.62083470 0.00697324 0.00248230 0.00116792
C 30.12730347 3.54978789 15.87607842 -0.00335946 0.00215116 0.01097518
C 2.44024100 0.74979133 17.24544695 0.00123820 -0.00207863 -0.01057165
C 30.19042418 3.64736882 20.54787196 0.00036166 0.00053392 -0.00228502
C 2.38496918 0.57457010 21.92657688 0.00173439 -0.01061500 0.00422911
C 0.03995521 9.16583461 1.77028938 0.00379017 0.00213563 -0.00602084
C 2.82604359 5.86169275 2.83777230 -0.00454099 0.01125382 0.00368081
C 31.09368350 9.33550726 6.33994748 0.00874055 -0.00360197 0.00104959
C 3.01299342 6.17299215 7.51343713 0.00031351 0.00601786 -0.00307877
C 31.04643154 9.08597426 11.05459774 0.00816577 0.00836811 -0.00038628
C 2.69002467 6.05439503 12.41848991 0.00589137 0.00020816 0.00189395
C 31.01574086 9.24232046 15.75848453 0.00231588 -0.00769875 0.00474872
C 2.79866816 5.96000078 17.10812425 -0.00001522 -0.00177142 -0.00287106
C 31.11540625 9.32206699 20.41588477 0.00186404 -0.01006309 -0.00267545
C 2.79798047 6.03346736 21.78446017 -0.00216136 -0.00404733 -0.00183910
C 0.24127952 14.76332372 1.89305829 -0.00578757 -0.00084864 -0.00064857
C 3.43935993 11.75855238 3.13086451 -0.00094510 -0.00574275 0.00296290
C 0.18406077 14.67788159 6.44595104 0.00250710 -0.00450612 -0.00344339
C 3.38168605 11.62438247 7.97138811 -0.00190951 0.00264899 -0.00085468
C 31.13286672 14.61402265 11.41314132 0.00197885 0.00023328 -0.00053118
C 3.33600272 11.73874581 12.55443661 -0.00289076 0.00283605 -0.00292654
C 0.15636287 14.82132125 15.98009718 -0.00595201 -0.00077198 0.00025002
C 3.25495827 11.88925367 17.30460624 0.00126411 0.00936490 -0.00797022
C 0.28706012 14.85796086 20.87595352 0.00969191 0.00281465 0.00276064
C 3.20284203 11.78825674 21.98936422 -0.00542260 -0.00654831 -0.00271343
C 0.86076567 20.55976871 1.75771264 -0.00835378 -0.00507750 0.00083034
C 3.81099700 17.33663322 3.03953505 0.00803657 0.00401228 -0.00234685
C 0.83004749 20.42295583 6.59306728 0.00386097 -0.00455404 0.00399134
C 3.83263860 17.51935540 7.73789421 0.00044722 0.00865987 0.00277474
C 0.72480080 20.47618075 11.34422496 0.00518101 -0.00131426 -0.00218506
C 3.92797033 17.34350514 12.50570510 -0.00599446 -0.00587819 0.00192732
C 0.68374730 20.48725854 15.98492649 -0.00724888 -0.00548979 -0.00174310
C 3.91172939 17.51652857 17.24760212 0.00200940 0.00608507 -0.00018832
C 0.53374156 20.52118532 20.56242690 0.00522711 0.00194986 -0.00442678
C 3.65341246 17.48574814 22.04177536 0.00095979 0.00085445 0.00268379
C 0.08826991 26.85072645 1.80896571 -0.00015526 0.00531989 0.00466508
C 3.25514161 23.91169522 2.94151863 0.00116444 0.00178744 -0.00122824
C 0.02009827 26.92065069 6.64465805 -0.00249336 0.00268459 -0.00320500
C 2.99591998 24.23315584 7.84188302 -0.00295191 -0.00361711 0.00294732
C 31.13133780 27.03116745 11.47109691 0.00351881 -0.00761672 -0.00499730
C 2.94077789 24.45633316 12.59582253 0.00081731 -0.00204336 0.00021452
C 31.05138994 27.12389000 15.96170643 -0.00091547 0.00179820 -0.00560307
C 3.09119659 24.19715569 17.17324259 0.00254571 0.00063958 0.00112905
C 31.12801964 26.96860976 20.88846774 0.00174597 -0.00438819 0.00808227
C 3.28918825 24.40429618 22.07592661 0.00222067 -0.00275692 -0.00647224
C 6.18935549 3.10304444 1.60662700 -0.00023762 -0.00183767 0.00158177
C 9.04379803 0.26427466 3.04323276 0.00541676 0.00071001 0.00507455
C 6.07326419 3.06494552 6.45332857 -0.00098577 0.00532797 -0.00016240
C 9.11549270 0.05176636 7.71054453 -0.00958692 -0.00156837 -0.00136865
C 5.93561477 3.21459279 11.08584514 -0.00507802 0.00197698 0.00243405
C 9.13102048 0.31041047 12.51796215 0.00435602 0.00493786 -0.00122643
C 6.19830945 3.20404330 15.78608528 -0.00167858 0.00421773 0.00426653
C 9.29025450 0.35242371 17.10135721 0.00515756 0.00130647 0.00389247
C 6.05229306 3.09163219 20.61016891 0.00614060 0.00158481 0.00034994
C 9.11762226 0.14097045 21.96894683 0.00472709 0.00018547 -0.00311426
C 6.45538655 8.59261185 1.72349046 0.00485520 -0.00298153 -0.00122520
C 9.40049131 5.63129710 2.92891430 0.00183943 0.00021924 0.00679134
C 6.45205654 8.53993327 6.40742271 -0.00319801 0.00318887 -0.00128561
C 9.66139270 5.82914415 7.64369517 0.00229775 -0.00835871 0.00034839
C 6.41441888 8.66637058 11.04224357 0.00325184 0.00277730 0.00470201
C 9.54522450 5.75396146 12.57421151 -0.00459857 -0.00123922 0.00895996
C 6.20824971 8.81792844 15.87627466 0.00385764 0.00263517 0.00536976
C 9.70135803 5.90463674 17.18441252 -0.00050401 -0.00542117 0.00305733
C 6.20521525 8.58305569 20.67968614 -0.00344271 -0.00175473 0.00247100
C 9.46912324 5.79641303 21.80087887 -0.00545604 0.00809921 -0.00163686
C 6.78268025 14.46723353 1.61964735 0.00149183 -0.00359472 -0.00311651
C 10.02365705 11.56631442 2.92741174 0.00940966 0.00101255 -0.00395233
C 6.83580936 14.24664717 6.39597385 -0.00793298 0.00615911 -0.00360393
C 9.79718553 11.31424578 7.65566596 -0.00306211 0.00567687 -0.00097441
C 6.75724651 14.26313542 11.15888679 -0.00155316 0.00478373 0.00185545
C 9.71243082 11.34021422 12.50763896 0.00193343 -0.00370724 -0.00631956
C 6.76310314 14.28564357 15.86233647 -0.00383526 0.00024197 0.00119964
C 9.79776617 11.25320455 17.26568283 0.00051602 0.00630324 -0.00188000
C 6.59035275 14.28871563 20.62311485 -0.00627515 -0.00681972 0.00591682
C 9.84815095 11.36573447 21.82067302 0.00260891 0.00177078 0.00365273
C 6.32393406 21.10528857 1.65395526 0.00034203 0.00177452 -0.00247773
C 9.21684676 18.05097209 2.92960601 0.00183178 -0.00189260 0.00041546
C 6.35610260 21.22375905 6.43221327 -0.00748705 -0.00005745 -0.00612003
C 9.27980639 17.97397067 7.88416510 -0.00279140 -0.00227119 -0.00082447
C 6.14415230 21.36059588 11.40358338 -0.00568746 0.00280335 0.00435859
C 9.28817212 18.08040796 12.52193651 0.00325478 0.00023272 0.00241249
C 6.40268001 21.33259949 16.14016825 -0.00112510 -0.00016009 0.00324078
C 9.36804811 18.04381921 17.31308298 0.00073637 0.00609788 0.00358418
C 6.10340386 21.06849280 20.70421052 -0.00966768 -0.00506319 0.01094997
C 9.32699014 18.07159676 21.94370222 -0.00438102 -0.00172334 -0.00484393
C 5.58265771 27.68867095 1.93256305 0.00305426 -0.00127644 0.00296059
C 9.01134742 24.58487127 3.06220896 -0.00384118 -0.00643087 -0.00399174
C 5.58394292 27.70861149 6.39021494 -0.00569800 -0.00035635 -0.00146675
C 8.84001760 24.59096474 7.61095561 -0.00067013 -0.00659513 0.00044481
C 5.50277337 27.68250720 11.23936267 -0.00963834 0.00454499 0.00400208
C 8.91871006 24.97752914 12.38730128 0.00246759 0.00080905 0.00496093
C 5.73230161 27.78415570 16.06078412 0.00244972 0.00187559 0.00530607
C 9.27711791 24.83513201 17.36615137 -0.00180866 -0.00147909 0.00495291
C 5.66244491 27.84263640 20.66305586 -0.00012343 0.00694606 -0.00360815
C 8.56368204 24.52171596 22.12747730 0.00603102 -0.00478518 -0.00333258
C 12.69527192 2.76568585 1.63878895 -0.00300625 0.00481964 0.00404338
C 15.95052215 0.05394217 3.05622759 0.00165627 -0.01178209 -0.00138762
C 12.64260430 2.57033145 6.38762708 0.00030938 -0.00009966 0.00245090
C 15.72970414 29.60213460 7.71090288 -0.00522452 0.00689259 -0.00137996
C 12.67617574 2.60099521 11.15417640 -0.00110638 0.00313297 0.00450021
C 15.85858077 29.90581957 12.58879554 0.00262240 0.00238631 0.00511075
C 12.69940346 2.89366633 15.83721065 -0.00154605 -0.00599908 -0.00276637
C 15.99117534 29.65450039 17.13985424 -0.00098861 -0.00020309 0.00439024
C 12.73039726 3.06529043 20.58487762 0.00067026 0.00374119 -0.00287576
C 15.85439487 29.73274749 22.00241055 -0.00275883 -0.00871541 -0.00722143
C 13.07186569 8.33094885 1.72799439 0.00083471 0.00375478 -0.00122400
C 16.06880898 5.60288808 2.92485540 -0.00723932 0.00081556 -0.00124717
C 12.96553671 8.52711559 6.36641391 -0.00128339 0.00313065 -0.00340347
C 16.31341137 5.55571646 7.79922547 -0.00321960 0.00214656 -0.00317831
C 13.21285687 8.19136410 11.21770354 -0.00169774 0.00369753 -0.00232288
C 16.05324024 5.40302071 12.54563914 0.00746597 -0.00847741 0.00428279
C 13.08847443 8.43029085 15.87875634 0.00174348 0.00246166 0.00222275
C 16.32698601 5.47871674 17.27367814 0.00457372 -0.00095708 0.00553008
C 13.10119478 8.41138648 20.62899685 -0.00074851 0.00028406 -0.00161209
C 16.23333581 5.32421722 21.89597661 0.00044078 -0.00311681 0.00147571
C 12.55752010 14.92989409 1.54109589 -0.00061198 0.00014996 -0.00772185
C 15.46334672 12.09294512 2.87234418 0.00906218 -0.00788446 -0.00072678
C 12.34659210 14.78739527 6.34805328 0.00285332 0.00572074 -0.00186882
C 15.47462529 11.95130666 7.72861925 0.00641501 -0.00298147 0.01291372
C 12.25140700 14.95578580 11.13435818 0.00402249 0.00204961 0.00141727
C 15.63491568 11.98784568 12.46710960 0.00559425 -0.00084919 0.00769906
C 12.46775790 14.82617944 15.79963904 -0.00126168 -0.00065016 -0.00311489
C 15.43218547 11.81612123 17.11154677 0.00218366 -0.00120236 0.00149369
C 12.17587873 14.92608563 20.37339277 -0.00178644 0.00560700 -0.00251887
C 15.60111535 11.98925980 21.67445870 0.00252899 -0.00058463 0.00433255
C 12.06197794 21.57426913 1.38574959 -0.00489182 -0.00513744 0.00156495
C 14.87613451 18.65718987 2.97157717 0.00757221 -0.00064395 0.00293281
C 11.89521905 21.43305618 6.49496083 -0.00319906 -0.00145277 0.00107373
C 14.88478432 18.25270481 7.74446649 0.00472393 0.00671913 0.00395528
C 11.77855891 21.66352821 11.24592074 -0.00939781 0.00462880 0.00018744
C 14.88160056 18.60118421 12.48321344 0.00409733 -0.00798517 -0.00589108
C 11.90086676 21.55892516 15.88424714 -0.00803649 0.00412164 -0.00492558
C 14.63107400 18.40520253 17.11747263 -0.00460279 -0.00122055 0.00073383
C 11.69420982 21.61703839 20.50519517 0.00823305 -0.00346627 0.00147769
C 14.88961008 18.40212982 21.78177157 -0.00201461 -0.00040372 -0.00228633
C 12.36153168 27.17263678 1.65574899 -0.00079525 -0.00374078 0.00066273
C 15.52876952 24.32278124 2.95158456 0.00433399 0.00434521 0.00481719
C 12.30248925 27.07519429 6.31878500 0.00960583 0.00070409 0.00291031
C 15.27198906 23.88731215 7.84731005 0.00060576 -0.00087628 0.00642168
C 12.24819813 27.00127179 11.10332098 -0.00141098 0.00085812 0.00160317
C 15.43231703 24.31506390 12.47927084 0.00173725 -0.00211891 -0.00196729
C 12.56509307 27.30142925 15.88207629 -0.00377102 0.00405672 0.00099904
C 15.34690317 24.00002002 17.19833494 0.00210496 -0.00126498 -0.00235718
C 12.48730061 27.33529866 20.61083189 -0.00234168 -0.00548830 -0.00270000
C 15.31113082 23.97848519 21.90019416 -0.00447399 -0.00157813 -0.00022201
C 19.29943995 2.68575963 1.68005275 -0.00281731 0.00366255 0.00341913
C 22.38326589 29.38222585 2.94549635 0.00239704 -0.00255518 0.00904072
C 19.37431757 2.48118944 6.37614216 0.00246710 -0.00111136 0.00142106
C 22.34533419 29.31819711 7.69555002 0.00065521 0.00117500 -0.00090764
C 19.46489638 2.30359751 10.94733831 -0.00224997 -0.00890939 -0.00308755
C 22.29290352 29.47366555 12.55817554 0.00513277 -0.00085478 0.00130292
C 19.20304318 2.45758703 16.05414159 0.00508914 -0.00198321 0.00074585
C 22.50585360 29.35898495 17.41470965 -0.00004642 0.00075629 -0.00126346
C 19.20675355 2.27395019 20.69391561 -0.00213307 0.00125614 0.00150068
C 22.09902733 29.26535222 22.05635311 -0.00528144 -0.00049948 0.00485201
C 18.44420265 9.18917484 1.86823969 0.00215265 -0.00053595 -0.00113629
C 21.83757423 6.28976994 3.06284469 -0.00166379 0.00135643 0.00125123
C 18.80677101 9.13037614 6.55974619 -0.00319256 0.00352699 -0.00133439
C 21.79539216 5.84258845 7.92522964 -0.00732181 -0.00295702 -0.00264124
C 18.94537744 8.86119036 11.16556180 -0.00063979 0.00252088 -0.00102891
C 21.97057038 6.03862484 12.42763883 0.00705319 0.00130304 -0.00671553
C 18.76222812 8.93878863 15.68119208 0.00497954 0.00691102 0.00089667
C 21.49664586 6.04144902 17.28185681 -0.00307049 0.00143686 -0.00039402
C 18.57267422 8.83453365 20.62534597 -0.00627756 -0.00141474 -0.00680224
C 21.76827832 5.91789878 21.85550403 0.00349519 -0.00043537 0.00230814
C 18.24145473 15.41541238 1.67918377 -0.00757184 -0.00000751 -0.00244259
C 21.43634437 12.56825996 2.99894944 -0.00685695 -0.01734367 0.00816442
C 18.08233972 15.50953760 6.25441708 -0.00166713 -0.00143728 0.00617604
C 21.36273209 12.45929330 7.65941851 -0.00212587 0.00038842 -0.00522377
C 18.14385383 15.44993619 10.97501817 0.00165403 -0.00290997 -0.00275753
C 21.25563238 12.88843208 12.43697698 0.00022436 -0.00508989 0.00105781
C 17.86220013 15.60209963 15.73111029 0.00647535 -0.00784738 -0.00530418
C 21.23725215 12.92653243 17.22248841 0.00402880 -0.00537668 -0.00642096
C 17.87482336 15.91495702 20.49151124 0.00172234 0.00193674 -0.00141563
C 21.36534418 12.57435921 21.81703845 0.00492610 -0.00041090 -0.00760241
C 18.28577029 21.01216149 1.71946194 -0.00515750 0.00520181 -0.00768663
C 21.66350820 18.09847977 3.04218815 -0.00491351 -0.00015704 -0.00049757
C 18.39512659 21.03234941 6.51015959 -0.00356133 0.01468903 -0.00474027
C 21.51120672 18.03754831 7.66068698 -0.00954752 -0.00605157 0.00033309
C 18.20291723 21.25044016 11.26569798 -0.00218169 0.00339414 -0.00124141
C 21.68806517 18.37620239 12.40710545 0.00423597 0.00127819 0.00312094
C 18.43469084 21.12557338 15.77701535 0.00107139 0.00004312 -0.00347698
C 21.79091394 18.31598919 17.22893857 0.00230113 0.00214824 -0.00414762
C 18.53213439 21.16232569 20.62058249 0.00131002 -0.00921730 -0.00622252
C 21.74287789 18.20554956 21.98247179 0.00018250 0.00126346 -0.00554841
C 19.00569345 26.71945383 1.78129022 0.00210513 -0.00162272 -0.00369565
C 21.97268639 23.34841492 3.06495621 0.00390429 -0.00114286 -0.00272040
C 18.74309011 26.62795231 6.42129099 0.00037578 -0.00037516 0.00138486
C 22.11739525 23.74692439 7.68740337 0.00219114 -0.00890313 0.00087014
C 18.79991878 26.88158724 11.18718802 0.00177834 0.00492213 -0.00266874
C 21.59301762 23.85977436 12.36983878 -0.00628417 -0.00863205 0.00058887
C 18.80268835 26.55546825 15.86635970 0.00257601 -0.00687640 -0.00335185
C 22.04889490 23.65583216 17.05028693 0.00662147 -0.00693672 -0.00421092
C 19.13888107 26.58113035 20.48870323 0.00255707 0.00493993 -0.00231981
C 22.27851714 23.55696316 21.77713116 -0.01007985 0.00790331 -0.00130418
C 24.75832440 3.09665036 1.64565193 0.00660825 -0.00587463 0.00616516
C 28.10810446 0.01758085 3.02622971 -0.00198062 -0.00499790 0.00871210
C 24.73158867 2.85050897 6.37531470 -0.00195345 0.00429539 -0.00014343
C 27.94104299 0.15161353 7.78418937 0.00457680 -0.00265544 0.00041372
C 25.01981086 2.87824074 11.26593669 0.00904710 -0.00178377 0.00019927
C 27.79291318 29.68409942 12.40874511 0.00819325 0.01042940 0.00167089
C 24.76084317 3.13956844 15.78212453 -0.00226347 -0.00132328 -0.00023989
C 28.00943661 0.27062702 17.25612124 -0.01048949 -0.00212400 -0.00643809
C 24.70580922 3.07672256 20.65104533 -0.00336326 0.00627987 0.00619536
C 27.92202700 29.89892376 21.96730901 -0.00510349 -0.00705710 -0.00202006
C 24.31580722 9.70240701 1.76479126 0.00209482 0.00676937 -0.00323704
C 27.35769468 6.39622851 2.97457707 -0.00551151 -0.00362470 0.00086471
C 24.41252274 9.59231929 6.46801467 0.00151498 -0.00363664 0.00524429
C 27.56073640 6.47940766 7.59479449 0.00189080 0.00097906 -0.00014882
C 24.36937108 9.56339288 11.08541900 0.00414880 -0.00606392 -0.00071003
C 27.24843750 6.69483440 12.31423064 0.00343645 0.00178339 0.00429160
C 24.23274512 9.59840001 15.77948343 -0.00176541 0.00630854 0.00046150
C 27.45625761 6.86724214 17.22894342 0.00216231 0.00284752 0.00351382
C 24.25441607 9.49256308 20.52925646 0.00002024 -0.00079500 -0.00579667
C 27.55021024 6.67828841 21.94793301 0.00143207 -0.00802055 0.00282841
C 25.03443484 15.11696125 1.69580100 -0.00674624 0.00096672 -0.00085017
C 28.26723113 11.94271019 3.14480577 0.00074318 0.00025428 -0.00779990
C 25.11557745 15.30421446 6.30388220 -0.00362474 -0.00497251 0.00504616
C 28.02407315 12.09886132 7.74688718 0.00173993 -0.00085212 -0.00073031
C 24.98460470 15.12477669 10.93395123 -0.00507847 -0.00149303 0.00798812
C 27.74639395 12.08485475 12.53564836 0.00178694 0.00212163 -0.00295722
C 24.74286597 15.34918554 15.78023205 -0.00515910 0.00153755 -0.00968535
C 27.57598575 12.24711742 17.33234886 -0.00646240 0.00218533 -0.00731760
C 24.87293383 15.24507724 20.73896999 -0.00005220 0.00138321 -0.00651786
C 27.93174927 12.16131957 21.99520742 0.00057894 -0.00010196 -0.00204050
C 25.09460190 20.55048139 1.61156799 -0.00089071 -0.00711414 -0.00156813
C 28.30309758 17.61874419 3.00545267 -0.00063993 -0.00136663 -0.00096519
C 24.89685230 20.75284808 6.18574255 -0.00017073 0.00239574 0.00218554
C 28.39695025 17.80151232 7.66603592 0.00072591 -0.00087072 0.00258421
C 24.99440082 20.75202827 10.97747297 0.00650919 0.00508482 0.00171874
C 28.48695305 18.00603341 12.21287757 -0.00033161 0.00218401 -0.00249690
C 25.12066086 20.98602766 15.81614338 0.00022548 0.00117542 -0.00419992
C 28.42554303 17.67242650 17.10241526 -0.00632033 0.01054806 -0.00319744
C 25.37621472 20.88198809 20.60841154 0.00178558 -0.00359476 -0.00709157
C 28.48342459 17.80778072 22.09183302 -0.00193299 -0.00526670 -0.00109476
C 25.67750055 26.32951923 1.86477340 -0.00418888 -0.00518957 0.00610957
C 28.60559063 23.11603562 3.36110794 -0.00405497 0.00315748 -0.00146568
C 25.42319083 26.58493103 6.50269647 -0.00168965 -0.00457180 -0.00651305
C 28.66768990 23.49119779 7.86235234 -0.00195902 0.00267921 0.00719639
C 25.34474120 26.13496786 11.34109794 -0.00406584 0.00391479 -0.00665153
C 28.82037529 23.36056358 12.50293230 -0.01081340 -0.00219432 0.00691084
C 25.59083293 26.39044161 16.01113818 0.00065558 0.00318215 0.01027437
C 28.84685407 23.34009721 17.34348079 0.00426307 -0.00634953 -0.00467068
C 25.61911261 26.15506293 20.76445380 0.00625477 0.00250798 0.00192806
C 28.73185200 23.41173095 22.00876428 -0.00139629 0.00033787 0.00247814
N 0.17452388 4.31004005 0.80276945 -0.00268307 0.00323690 -0.00005960
N 3.43285330 4.83058829 3.49539620 -0.00097569 -0.00303274 0.00701574
N 5.25991569 2.29293640 1.11485567 -0.00102654 -0.00301194 -0.00288809
N 1.48195734 1.23009502 3.86610300 0.00433635 0.00442839 0.00548455
N 0.03485917 4.35223905 5.63811439 -0.00373829 -0.00020208 -0.01525071
N 3.60029238 5.15239455 8.23832397 0.00058489 -0.00604900 -0.00714294
N 5.37419208 2.19538583 5.63215063 -0.00013612 0.00722942 0.00501715
N 1.54819780 1.38503811 8.55413959 0.00267131 -0.00502661 0.00101512
N 31.13093810 4.54832511 10.31244047 -0.00520793 0.00317166 0.00708183
N 3.22715895 5.01394973 13.16572014 0.00041151 0.00774288 -0.00658515
N 5.14361770 2.32568208 10.43947699 0.00270106 0.00724565 -0.00393984
N 1.28900691 1.25747953 13.31233604 0.00316611 -0.00134850 0.00141020
N 31.02019652 4.38140664 15.22958938 0.00607872 -0.00200409 0.00072515
N 3.23789709 4.95751161 17.86768970 0.00321924 0.00481252 0.00497640
N 5.35732631 2.39185288 15.07646865 0.00348487 0.00019438 0.00173668
N 1.39830942 1.41218318 17.94862347 0.00291502 0.00580826 0.00437234
N 30.94251388 4.59045723 20.00812143 -0.00182201 -0.00239205 0.00183813
N 3.42644432 5.09284261 22.50992659 -0.00115836 -0.00440285 -0.00051225
N 5.39045039 2.28976405 19.71833094 -0.00398324 -0.00394829 0.00215391
N 1.21937086 0.99246755 22.38682602 -0.00521986 0.00340544 0.00044011
N 0.74619842 10.12307505 1.08264735 0.00046997 0.00412998 0.00376279
N 4.16252736 10.81161280 3.79329314 -0.00156469 -0.00412158 0.00388756
N 5.83384851 7.57766194 1.07876582 0.00555317 0.00334384 0.00435259
N 2.56879140 7.01555981 3.57981990 -0.00320547 0.00865107 -0.00088398
N 0.50309242 10.30226920 5.54719271 0.00931432 0.00697995 -0.00097957
N 4.27874834 10.85916683 8.70213101 0.00329929 0.00287012 0.00064948
N 5.60054190 7.79044896 5.65180340 -0.00766219 0.00553741 0.00148493
N 2.47253640 7.20307259 8.21611715 0.00043215 -0.00266828 -0.00359507
N 0.82284431 9.83808956 10.34831292 0.00061568 0.00343832 0.01417710
N 3.96566441 10.65851191 13.15001242 -0.00848580 -0.00998131 0.00049867
N 5.80749640 7.70503516 10.31245684 -0.00006806 0.00779077 -0.00026779
N 2.28398210 7.13737370 13.14358096 0.00336313 0.00213595 -0.00195390
N 0.65301552 10.17894079 15.14990702 -0.00093040 0.00332777 0.00117674
N 3.89446978 10.81704694 17.84091378 -0.00073138 0.00560684 -0.00396893
N 5.74603773 7.74617907 15.17382541 0.00346188 0.00549302 0.00235337
N 2.43816892 7.16823535 17.73577828 -0.00066422 0.00105742 -0.00206044
N 0.76194960 10.11635257 19.63344965 -0.00380188 0.00004657 -0.00019951
N 3.85021007 10.84133255 22.75162266 0.00135869 0.00238902 0.00115441
N 5.32833749 7.90295934 19.84903569 -0.00571787 0.00192355 -0.00900356
N 2.15065830 6.99373303 22.51926339 -0.00976891 -0.00372778 -0.00360009
N 0.83293289 15.85623463 1.33016178 0.00601732 -0.00205683 -0.00575731
N 4.61998953 16.65507240 3.88260599 0.00525513 0.00199448 0.00351747
N 6.01594550 13.66770471 0.81862231 0.00414695 0.00547266 0.00300279
N 2.88248337 12.75801948 3.86674942 0.00273140 0.00101609 -0.00777730
N 0.79486494 15.62013197 5.64362834 -0.00157907 -0.00019118 0.00973396
N 4.72513253 16.62363086 8.28722770 0.00093455 -0.00056018 0.00256520
N 6.21223219 13.29841574 5.69389801 -0.00001312 0.00475755 0.00272570
N 2.57360699 12.45332228 8.62670416 0.00329626 0.00086008 -0.00221964
N 0.95446086 15.32871603 10.75339337 0.00274063 0.00066396 0.00799965
N 4.67280906 16.50835306 13.25905123 -0.00136836 0.00692210 -0.00128041
N 6.01715967 13.29875541 10.52140247 -0.00001840 -0.00482056 -0.00386745
N 2.88003627 12.76361099 13.37456082 -0.00083419 -0.00121974 -0.00004160
N 0.94394672 15.63830005 15.19348272 -0.00507510 -0.00058967 0.00410002
N 4.49400528 16.58055492 17.94830379 0.00315794 -0.00215800 -0.00329550
N 5.88609824 13.51795582 15.16281379 0.00044067 0.00360753 0.00235318
N 2.77851986 12.81079304 18.22150615 0.00133093 0.00264338 -0.00303184
N 0.85432049 15.68237024 20.03315195 0.00295875 0.00096659 -0.00303803
N 4.36673794 16.61362662 22.79858444 0.00018727 0.00130650 -0.00046414
N 5.83209498 13.38478530 19.95692087 0.00329908 0.00538150 -0.00461014
N 2.67236081 12.85887766 22.58973993 -0.00345649 -0.00120562 -0.00119226
N 1.66535896 21.42438083 1.01496946 -0.00019901 -0.00458777 0.00218544
N 4.21727381 23.24918544 3.65248799 0.00650023 0.00474612 0.00159476
N 5.41508899 20.32883628 0.91162108 0.00095720 -0.00141796 -0.00407537
N 3.03696980 18.20380217 3.65773814 0.00058435 -0.00871234 0.00821062
N 1.61576526 21.35430799 5.98804341 -0.00077174 0.00230046 0.00249036
N 3.96985884 23.61181355 8.51792358 0.00340118 -0.00131939 -0.00301125
N 5.58458970 20.35945226 5.81594494 0.00175539 0.00155335 0.00363856
N 3.00397209 18.11791634 8.58574539 -0.00543367 0.00145797 -0.00432007
N 1.55928042 21.27894075 10.64988405 -0.00572162 -0.00493084 -0.00484948
N 3.99636314 23.79219345 13.14281369 -0.00171494 -0.00188954 -0.00613377
N 5.43907203 20.44799186 10.68583852 -0.00135667 0.00304959 -0.00110462
N 3.17180907 18.21496898 13.26147392 -0.00633242 -0.00448502 -0.00101287
N 1.53122896 21.42359565 15.38051504 -0.00032225 -0.00203603 0.00594902
N 4.01505369 23.67241431 18.02165436 0.00017843 -0.00790208 -0.00359591
N 5.62363054 20.37923553 15.49851726 -0.00353595 -0.00358565 -0.00327271
N 3.19076074 18.41604900 17.99623140 -0.00143397 0.00770223 0.00657732
N 1.35389155 21.38996382 19.93489125 -0.00269609 0.00423312 0.00129252
N 4.30659667 23.65164803 22.53681045 -0.00011249 0.00192693 -0.00062373
N 5.13062317 20.30035269 19.96317931 -0.00026003 -0.00180128 -0.00701851
N 2.96685058 18.44493199 22.69367189 -0.00479018 0.00070981 0.00240437
N 0.86511119 27.69942617 1.06435850 -0.00128756 -0.00406643 0.00182725
N 3.24986120 29.63828414 3.78018989 -0.00190722 0.00755436 -0.00427267
N 4.91300773 26.85475694 1.03379806 0.00568066 0.00989960 0.00874960
N 2.39237274 24.66378812 3.73131312 0.00483064 -0.00562759 0.00548589
N 0.60110178 27.98387134 5.99439879 0.00058985 -0.00049422 0.00182920
N 3.35650390 29.94397029 8.34274465 -0.00373454 0.00369060 -0.00050127
N 4.76352867 26.89772833 5.65230861 -0.00483466 0.00333326 0.00486134
N 1.92045044 24.62051429 8.57919633 0.00229191 -0.00030637 0.00448776
N 0.74776207 27.99172727 10.91128496 0.00044940 0.00134745 0.00750425
N 3.04296851 29.66310902 13.37265191 0.00089416 -0.00481109 0.00203170
N 4.73883221 26.80944466 10.45285300 -0.00180867 0.00034683 0.00738765
N 2.18520384 25.19711770 13.44708525 0.00023508 0.00250759 -0.00299080
N 0.79653588 27.86997355 15.23388268 -0.00488929 -0.00214200 -0.00057247
N 3.27879810 0.06442387 18.04405950 -0.00095469 -0.00715326 0.00150247
N 4.99833172 26.69346092 15.48562246 0.00373808 0.00236629 0.00007489
N 2.07270718 24.87794579 17.85718734 -0.00111696 0.00092730 -0.00044633
N 0.89581082 27.90260272 20.42868582 0.00058911 -0.00234481 -0.00833187
N 3.21668590 0.11032435 22.92929205 0.00187564 0.00498945 -0.00231221
N 4.82039758 27.07608510 19.93719331 0.00267423 -0.00000460 -0.00213512
N 2.31905598 24.77081838 22.94547520 -0.00136316 0.00256688 -0.00905783
N 6.98649515 3.88876462 0.75513205 0.00236294 -0.00430914 0.00160949
N 10.25888577 4.86195929 3.63296793 0.00020561 -0.00297014 0.00304691
N 11.86781121 1.88898586 1.00731639 -0.00143282 0.00006581 -0.00235469
N 8.43974364 1.16804785 3.88133111 -0.00178340 0.00213413 -0.00090391
N 6.77985437 3.99213009 5.83003157 0.00344440 0.00099346 0.00082782
N 10.01249869 4.72711131 8.32285075 -0.00819654 -0.00117784 -0.00130278
N 11.72436405 1.83932562 5.70445487 0.00569189 -0.00369980 -0.00092465
N 8.24310768 1.04894816 8.22210141 -0.00443877 -0.00006445 0.00002345
N 6.90560567 3.81867258 10.32492913 0.00271190 -0.00452843 0.00237519
N 10.26333038 4.91512773 13.37620343 -0.00268451 -0.00846177 -0.00481397
N 11.94510737 1.75364102 10.37679732 -0.00369008 0.00036243 0.00809290
N 8.48116171 1.23511349 13.31228100 -0.00396566 0.00855436 0.00485533
N 6.77198326 4.19586230 15.07964596 0.00268237 0.00263958 -0.00426731
N 10.14265510 4.83233827 17.86715496 0.00501804 -0.00263036 -0.00500093
N 12.14093620 1.97811171 15.06209504 -0.00227553 -0.00077314 -0.00338670
N 8.47990466 1.10791877 17.82402502 0.00006421 0.00450997 0.00113697
N 6.83633161 4.12070565 20.17083024 0.00188065 0.00267865 -0.00177871
N 10.15659518 4.84711849 22.49788757 -0.00211544 -0.00293204 -0.00323169
N 12.00626554 2.28316495 19.76694837 0.00150699 -0.00583454 0.00399428
N 8.48516201 1.09402018 22.71387827 0.00088829 -0.00259281 -0.00372869
N 6.96462746 9.52839788 0.89453722 -0.00260934 0.00033207 0.00125966
N 10.89321357 10.82723647 3.69527073 -0.00188656 0.00706221 -0.00020043
N 12.20429916 7.54754391 1.05316493 0.00510211 -0.00235058 -0.00323699
N 8.52889554 6.33532130 3.66085765 0.00379908 -0.00291496 0.00186167
N 7.29855569 9.35065494 5.68775269 -0.00111073 -0.00298540 -0.00314565
N 10.72274679 10.72637850 8.43688991 -0.00858933 0.00051453 -0.00197368
N 12.45683706 7.51628525 5.64045535 -0.00143103 0.00211294 0.00236049
N 9.28969219 6.84720468 8.44244748 -0.00037352 0.01003313 -0.00894936
N 7.18461004 9.56273072 10.41702959 -0.00372439 -0.00431789 -0.00251336
N 10.62475425 10.64760148 13.27637662 -0.00328428 0.00234921 0.00063362
N 12.43308549 7.38069711 10.46699102 0.00224489 0.00101177 0.00283084
N 9.14012179 6.94994649 13.13009141 -0.00165231 0.00173744 0.00099772
N 7.02985701 9.61057763 15.18315290 0.00309380 0.00340205 -0.00361618
N 10.76329748 10.43106819 17.76710852 -0.00259207 -0.00131169 -0.00743866
N 11.95774859 7.80760321 15.29613459 -0.00017698 -0.00027246 -0.00237562
N 9.17221995 6.95231189 17.90254063 0.00286425 0.00088914 0.01059722
N 6.95119630 9.49390557 19.98167469 0.00180276 -0.00148204 -0.00012854
N 10.51162258 10.55465250 22.61739362 0.00354300 0.00892672 -0.00237941
N 12.21608045 7.57142216 20.02033761 0.00042976 -0.00014091 -0.00195848
N 8.72517451 6.65194720 22.54457540 0.00201806 -0.00057674 0.00005576
N 7.65266081 15.27068160 0.94406632 -0.00536258 0.00393554 -0.00445725
N 10.32864878 17.66113872 3.60683658 -0.00327705 -0.00297233 -0.00214726
N 11.67788938 14.23282625 0.79338114 0.00701039 0.00116968 -0.00124760
N 9.28267067 12.49690490 3.64377862 0.00477187 0.00134890 0.00061526
N 7.53760634 15.14510325 5.62390196 -0.00149129 0.00187354 0.00396905
N 10.06740976 17.18936539 8.66218758 -0.00479587 0.00144852 0.01139650
N 11.21949750 14.29662792 5.70821830 0.00155120 -0.00787076 -0.00372596
N 8.90009307 12.06727769 8.32473650 0.00262297 -0.00478784 0.00122497
N 7.65561902 14.92644279 10.37521598 0.00699608 0.00430353 -0.00311105
N 10.30821052 17.33737616 13.08825024 -0.00295712 0.00042119 -0.00679225
N 11.48760284 14.07092961 10.42620905 -0.00086253 0.00221179 0.00090577
N 8.77252589 11.99622988 13.15590337 -0.00696144 0.00774256 0.00413562
N 7.69908083 14.96516923 15.15582570 -0.00431211 0.00221686 -0.00019116
N 10.26657781 17.37711648 18.09877542 0.00143615 0.00095254 -0.00282098
N 11.59635341 14.09626230 15.04650597 0.00334346 0.00669394 -0.00231976
N 8.82363724 11.63195871 18.12199921 -0.00579571 -0.00107921 -0.00084884
N 7.40808537 15.06392766 19.89319950 -0.00045087 -0.00375250 0.00682363
N 10.31680619 17.57340779 22.69889940 0.00598484 -0.00254016 0.00192222
N 11.46505006 14.05378205 19.56779062 -0.00015335 -0.00090624 0.00078193
N 8.94898945 12.21949400 22.46152927 -0.00421525 0.00350271 0.00408872
N 7.20245700 21.82858147 0.93209056 -0.00171041 0.00612707 -0.00145769
N 9.73625241 23.68186070 3.81717087 -0.00104093 -0.00770499 -0.00565150
N 11.24365038 20.67693518 0.79266236 0.00088627 0.00022567 -0.00571582
N 8.21492223 18.53642203 3.64175212 -0.00118817 -0.00235052 -0.00441881
N 7.05692936 22.06434158 5.65725555 0.00291057 0.00273883 0.00470914