2000
Time=49000.00000003 pbc="T T T" Lattice="30.90302169 0.00000000 0.00000000 0.00000000 30.18421995 0.00000000 0.00000000 0.00000000 23.73906608" energy=-12041.10443628 virial="-39.41072395 7.13046056 -9.37438329 7.13046056 -74.95726566 -5.30728291 -9.37438329 -5.30728291 -50.28193934" stress="0.00043462 0.00030437 -0.00032266 0.00030437 -0.00113660 -0.00022861 -0.00032266 -0.00022861 0.00047538" Properties=species:S:1:pos:R:3:vel:R:3
C 30.49705849 3.39388321 1.56245125 0.00366080 -0.00321243 0.00229019
C 2.41931671 0.67955560 3.11351903 0.00971652 0.00681094 -0.00090202
C 30.09596191 3.87795239 6.45216573 0.00518297 -0.01279332 -0.00800940
C 2.28704553 0.47589273 7.77853408 0.00883953 -0.00849726 -0.00327995
C 30.08480590 3.55473930 11.12467747 0.00168358 0.00046301 0.00019556
C 2.36739067 0.64103232 12.60338688 0.00327340 -0.00112400 -0.00049140
C 30.32580950 3.68931188 15.97016676 0.00384091 -0.00026766 0.00031683
C 2.44987783 0.44626824 17.20317974 -0.00535297 -0.00717765 0.00497543
C 30.27876386 3.45076956 20.60228649 0.00230269 -0.00137684 0.00263006
C 2.46787828 0.52854862 22.09669706 -0.00517538 0.00580568 0.00457717
C 30.71357309 9.38234584 1.62295726 -0.00137296 0.00238038 0.00170838
C 2.81398879 6.13213348 2.93329822 0.00062680 0.00834071 -0.00029923
C 30.73726561 9.33862907 6.38380454 -0.00447712 0.00284479 -0.00096411
C 2.71813765 6.20972993 8.05579490 -0.00148648 0.00328978 0.00184069
C 30.60593720 9.41527105 11.20022018 0.00148577 -0.00594206 -0.00034353
C 2.71661900 6.29938122 12.75895902 0.00350945 -0.00620968 -0.00181743
C 30.66377075 9.41853715 15.98229572 -0.00199291 -0.00187146 0.00578582
C 2.83913649 6.30874506 17.33665444 0.00746784 -0.00259726 -0.00111494
C 30.69869290 9.06546848 20.64311824 -0.00218290 -0.00542045 -0.00216279
C 2.98888028 6.07496780 21.93391325 -0.00470349 0.00362873 0.00642980
C 0.26091836 14.82427356 1.73120435 0.00199693 -0.00152439 -0.00148531
C 3.34518753 12.04022831 3.09280581 -0.00827311 -0.00585893 0.00188614
C 0.18868362 15.18345373 6.46210695 -0.00462712 0.00065263 0.00260326
C 3.18879748 11.96463108 7.75423921 0.00141832 0.00300413 -0.00304715
C 0.18404193 14.82631287 11.31943214 -0.00090906 0.00461148 0.00420455
C 3.21845121 11.97525859 12.51971976 -0.00016100 -0.00217406 -0.00301230
C 0.25301811 14.70328497 16.00405731 0.00342734 -0.00132947 -0.00254436
C 3.25935827 11.53402807 17.20896645 0.00216645 -0.00183725 0.00245822
C 0.20622644 14.75945953 20.77790779 0.00367424 -0.00285433 -0.00062860
C 3.23506300 11.88737806 21.82824550 -0.00010348 -0.00781477 -0.00208585
C 0.89445301 20.53951948 1.78212475 -0.00280505 0.00469960 0.00061978
C 3.88284825 17.98212739 3.14228292 -0.00606838 -0.00258617 -0.00225813
C 0.50727837 20.67518379 6.47094503 0.00105773 -0.00187134 -0.00162369
C 3.51648794 17.71499378 7.74878037 0.00149097 0.00062345 0.00111554
C 0.70114007 20.55741936 11.19364920 0.01191812 0.00204842 -0.00105302
C 3.85459365 17.59918958 12.53201601 -0.00509371 -0.00747844 -0.00224762
C 0.77315100 20.37545126 16.06332428 0.00081894 -0.00279656 0.00440519
C 3.76347016 17.23218798 17.22028938 -0.00500466 0.00054267 -0.00466120
C 0.74605637 20.32716380 20.68216612 -0.00436438 0.00281725 0.00881592
C 3.76182696 17.57291857 21.90720822 0.00595670 0.00412386 0.00678210
C 30.72896521 27.10192586 1.72471136 0.00289810 0.00369665 0.00269574
C 3.01553881 24.35851652 3.09417252 0.00440799 -0.00299736 -0.00053371
C 30.80071436 27.12756452 6.50844931 0.00295417 0.00072953 0.00547272
C 3.03078135 24.11340225 7.79286784 -0.00149298 -0.00299604 0.00497954
C 30.89577915 27.02484188 11.40769602 0.00548617 0.00312699 -0.00069993
C 2.91024837 24.02381264 12.57741407 -0.00297988 -0.00174004 0.00391849
C 0.11801733 26.68032930 15.93615536 -0.00084328 -0.00111733 0.00628008
C 3.13358307 24.29103694 17.25660978 -0.00431019 -0.00409718 0.00424909
C 30.84444934 27.26075114 20.63134045 0.00030941 0.00717651 0.00047679
C 3.21407037 24.16516883 22.23122448 0.00274372 0.00542871 0.00813148
C 5.99790565 3.27724999 1.72219894 0.00601555 -0.00452776 -0.00160004
C 8.98489199 0.28403395 3.13825759 -0.00338504 -0.00576942 0.00599225
C 5.71387793 3.19306712 6.62367370 0.00247228 0.00680213 -0.00515898
C 9.15327765 0.29522165 7.80785064 0.00329020 0.00110926 0.00598238
C 5.86624508 3.42374841 11.38348960 -0.00017945 0.00104232 -0.00084157
C 9.07593949 0.08860693 12.65920318 -0.00352078 -0.00239488 0.00232096
C 5.93559240 3.25743329 15.97259429 0.00079073 0.00111178 -0.00073268
C 8.68508944 0.26240838 17.23929687 -0.00215046 0.00491559 -0.00374348
C 5.75014183 2.94247529 20.70102880 0.00151233 -0.00405648 0.00404573
C 9.04193449 0.04988070 22.17055448 -0.00237957 -0.00333553 0.00622003
C 6.66659437 8.86501777 1.68423296 -0.00420510 0.00437754 0.00174047
C 9.48548807 5.93571298 3.19029514 -0.00445344 -0.00237683 -0.00240317
C 6.45321872 8.91258856 6.44917325 0.00050010 -0.00303739 -0.00188469
C 9.55455614 6.07325313 8.02928164 0.00201191 -0.00169013 -0.00368001
C 6.23546948 8.91907877 11.33786897 -0.00484950 0.00289129 -0.00404695
C 9.54265643 5.95682343 12.67803922 -0.00291872 0.00189831 0.00082804
C 6.28411447 8.87308384 16.07431174 0.00085958 -0.00181270 -0.00235088
C 9.58777790 5.87816615 17.43381134 0.00278013 -0.00997962 -0.00315890
C 6.57515805 8.65795161 20.83008406 0.00007120 0.00552627 -0.00783425
C 9.47524371 5.71956668 22.12154311 0.00003254 0.00222198 -0.00235087
C 6.86306841 14.42862162 1.70096563 -0.00984977 -0.00076262 0.00107207
C 9.79929396 11.68637445 2.84283788 0.00027911 -0.00677724 0.00286070
C 6.87358279 14.12227431 6.51932444 -0.00024331 0.00054602 0.00389065
C 9.88356090 11.44794563 7.68300768 0.00167903 0.00111024 -0.00263205
C 6.80052878 14.26252226 11.07010917 0.00486683 -0.00228962 0.00004202
C 9.97500443 11.44767242 12.57711149 0.00105459 0.00028936 -0.00256786
C 6.61297780 14.35061028 15.89500216 0.00268468 -0.00168478 -0.00193515
C 9.98955300 11.48738181 17.15275605 0.00010893 -0.00561302 0.00316395
C 6.86675348 14.36612345 20.63160764 0.00261465 -0.00225716 0.00360064
C 9.70128462 11.28816327 21.93898815 -0.00181789 0.00243894 0.00393779
C 6.23276920 21.09998486 1.69882707 -0.00109795 -0.00060667 -0.00251127
C 9.01997527 18.09198527 3.17635271 0.00075276 0.00389324 -0.00038865
C 6.11316979 21.45765196 6.41469602 -0.00090021 0.00042386 0.00102014
C 8.98016746 17.96324396 7.69500589 -0.00059130 0.00373389 0.00560535
C 6.19175651 21.36888987 11.24510561 0.00295928 0.00763781 -0.00545268
C 9.17015873 18.16220969 12.44348921 -0.00070027 0.00779810 0.00941485
C 6.30486213 21.14959656 16.06042474 0.00348756 0.00164383 0.00666284
C 9.07513801 18.02151809 17.27125120 0.00181280 0.00306315 0.00029786
C 6.27023924 21.17661984 20.69219550 0.00008385 0.00916039 0.00112707
C 9.31901181 18.29471094 22.01708843 0.00144011 0.00104895 0.00283039
C 5.69991686 27.78241401 1.86261863 -0.00188479 0.00192496 0.00167370
C 8.79995176 24.73306393 3.08084896 -0.00236667 -0.00007273 0.00317019
C 5.45236983 27.89400040 6.64596724 -0.00061885 0.01052015 0.00015745
C 8.62559482 24.89894971 7.80027592 -0.00042110 -0.00680928 -0.00043357
C 5.57801456 27.98259438 11.18507286 0.00038664 0.00135607 0.00308252
C 8.50388804 24.79260449 12.45405803 0.00246020 -0.00281315 0.00286820
C 5.53185937 27.58886191 16.07623978 0.00239670 0.01074150 -0.00378329
C 8.58438350 24.51605580 17.22443999 0.00420588 0.00479384 -0.00010666
C 5.60283586 27.72944681 20.78009148 0.00279945 -0.00227461 -0.00470271
C 8.65582939 24.70265069 21.93376762 -0.00386596 -0.00186040 -0.00531957
C 12.47027255 2.83775943 1.79809060 0.00304543 -0.00695419 -0.00141305
C 15.72059660 0.08156730 3.06579635 -0.00614154 0.00548535 -0.00589139
C 12.53628954 2.94148527 6.57461529 0.00468616 -0.01098375 0.00765372
C 15.77178385 0.14666620 7.73494369 -0.00012784 0.00281958 -0.00818735
C 12.65104893 2.84281123 11.33547814 -0.00282628 -0.00258265 0.00240140
C 15.92207265 30.05628274 12.50103389 0.00058340 -0.00156899 -0.00153134
C 12.21432159 2.97593978 15.98952868 -0.00030670 -0.00164956 0.01152709
C 15.39324712 29.90108685 17.39081225 0.00428688 0.00268079 0.00378615
C 12.58373979 2.81194867 20.80610719 -0.00071938 0.00398927 -0.00093216
C 15.53215700 30.04230523 22.09953102 0.00197668 0.00278086 -0.00219036
C 13.07982347 8.18505926 1.69956888 -0.00220815 0.00071821 -0.00211450
C 16.13025083 5.38115281 2.89524159 -0.00186381 -0.00980663 0.00196858
C 13.04190267 8.60627638 6.40368603 0.00290791 0.00068981 -0.00574494
C 16.27945517 5.47629560 7.48706506 -0.00191639 0.00550820 -0.00299115
C 12.89288756 8.42264879 11.11339175 -0.00180382 0.00134772 -0.00240031
C 16.23201998 5.57383435 12.51829753 0.00465279 0.00423912 -0.00088212
C 13.15831129 8.64425425 15.85591803 0.01095606 0.00657258 0.00209370
C 15.85645505 5.55885309 17.14726853 0.00287694 -0.00068125 -0.00761389
C 13.08648129 8.48347105 20.74261827 -0.00415868 -0.00102807 0.00031902
C 16.21093333 5.34048874 21.89296855 0.00120737 -0.00097726 -0.00019491
C 12.48449189 15.13620170 1.73545501 -0.00511111 0.00462908 0.00456054
C 15.40490960 11.97253763 2.95742389 -0.00739925 -0.00428014 -0.00641394
C 12.21134117 15.14352546 6.40532995 -0.00353376 0.00218966 0.00267045
C 15.21914190 11.91185615 7.72263982 -0.00111998 -0.00126015 -0.00047160
C 12.11344464 15.10207100 11.20250497 -0.00402985 -0.00136504 0.00532367
C 15.15625274 12.16664898 12.36885282 0.00284324 0.00052047 -0.00187318
C 12.24972693 15.10742352 15.88055433 0.00021453 -0.00449349 -0.00488103
C 15.61375697 12.31574123 17.22949864 0.00304885 0.00108567 -0.00762538
C 12.49911854 15.23010672 20.63481990 0.00187801 -0.00192962 -0.00160398
C 15.53303518 11.86891599 22.05885032 0.00329253 -0.00606794 -0.00027756
C 11.75037694 21.84422937 1.70214365 0.00786911 -0.00288921 -0.00453499
C 14.99942738 18.89098461 3.10444338 -0.00174195 -0.00824763 0.00451261
C 11.72290749 21.84648272 6.52440287 -0.00387501 0.00202918 0.00258113
C 15.11317481 18.77188935 7.77364998 -0.00218219 -0.00057635 -0.00398229
C 11.43333593 21.38354674 11.12575379 -0.00125105 -0.00654138 0.00242889
C 14.89830413 18.73223334 12.54369213 0.00507120 -0.00572833 0.00717601
C 11.87553399 21.55360891 15.74550572 0.00243343 0.00301756 -0.00038466
C 15.26576098 18.92358274 17.26429579 -0.00329366 0.00035366 -0.00013398
C 11.93655628 21.53622887 20.65565424 -0.00395899 0.00392680 0.00027009
C 14.94583484 18.82023697 22.21681666 0.00049064 -0.00332798 0.00155122
C 12.04089102 27.19849742 1.48558128 0.00063782 0.00686904 -0.00117034
C 15.16721861 24.11446809 2.96054036 -0.00242619 0.00299954 0.00973914
C 12.16561461 27.59848011 6.27660984 0.00219761 0.00563505 -0.00118303
C 15.03043625 24.54128049 7.70803803 -0.00220237 -0.00071579 -0.00303505
C 12.09081792 27.34155306 11.04573424 0.00180535 -0.00005006 -0.00230408
C 15.14090413 24.23793933 12.58056262 -0.00887597 -0.00661632 0.00317693
C 12.18032036 27.45223780 15.70865483 0.00176534 0.00064612 -0.00679471
C 15.41460475 24.32239600 17.15866080 0.00339570 -0.00501408 -0.00734369
C 12.11703914 27.21460986 20.50422002 0.00883752 0.00587539 0.00937969
C 15.32879469 24.12781113 21.95856488 -0.00140263 0.00728860 0.00257472
C 19.22520782 2.27276885 1.51458987 0.01014611 0.00438391 0.00456733
C 22.38973201 29.43293454 3.00851302 0.00545457 -0.00254795 0.00580694
C 19.37063706 2.22203470 6.36555515 -0.00197323 0.00523002 0.00269388
C 22.22427411 29.86207886 7.69395213 0.00734565 0.00587091 0.00102818
C 19.41874262 2.48021766 11.14339593 0.00077459 0.00338012 0.00261761
C 22.46993333 29.62694533 12.55493879 0.00165918 -0.00504312 -0.00045531
C 19.31944339 2.61800895 15.90216433 -0.00107694 0.00591889 -0.00332562
C 22.39954948 29.67597119 17.30967551 -0.00337598 -0.00381837 -0.00368906
C 19.09905022 2.40040586 20.62072217 0.00942563 0.00258392 -0.00221545
C 22.24101191 29.64959470 22.02101721 -0.00688866 0.00471648 -0.00097385
C 18.65257040 9.09135633 1.77696948 0.00016710 -0.00291226 -0.00156704
C 21.78360883 6.04395941 3.02595598 0.00140388 -0.00212265 -0.00539036
C 18.37243034 9.16307787 6.38555825 0.00153752 -0.00043316 -0.00303785
C 21.59847464 6.23639748 7.77542843 -0.00565967 -0.00026359 0.00184405
C 18.85552397 8.95221930 11.11277564 0.00159942 -0.00006363 -0.00943429
C 21.70440981 5.99441254 12.54811514 -0.00959569 0.00312696 0.00148371
C 18.43236208 9.17414462 15.80491503 0.00839481 -0.00324321 0.00472103
C 21.64387509 6.12185164 17.09520710 -0.00201067 -0.00679815 -0.00080829
C 18.55810489 8.94796126 20.78172630 0.00021234 -0.00905028 -0.00588662
C 21.48840781 6.14810215 21.97574645 -0.00383009 0.00180648 0.00225001
C 17.79976437 15.61341908 1.73569545 -0.00068641 -0.00788951 0.00816722
C 20.89542280 12.56244667 2.99444291 -0.00079919 -0.00278125 -0.00196002
C 17.91625180 15.49897425 6.52271683 0.00453311 -0.00355267 0.01240326
C 21.12637617 12.96664962 7.47069016 0.01224470 -0.00390475 0.00473579
C 17.75820307 15.54492225 11.10711748 -0.00721536 0.00799542 -0.00268725
C 20.88926244 12.76367828 12.20279280 -0.00156277 0.00091614 0.00083113
C 17.92446947 15.51024246 15.89475099 0.00452370 -0.00375952 0.00109463
C 21.09092330 12.56932096 17.18069574 0.00479513 0.00244205 -0.00153268
C 18.03542009 15.69909916 20.58558918 -0.00044633 -0.00308493 0.00104072
C 20.76581201 12.63900559 22.06317373 -0.00091420 0.00125061 -0.00094566
C 18.35033256 21.21791745 1.88534904 -0.00749136 0.00185622 0.00317990
C 21.51732728 18.06598712 3.03446886 -0.00130943 -0.00303590 -0.00498873
C 18.21182419 21.38728335 6.65479534 -0.00196443 -0.00082165 -0.00042323
C 21.39235869 18.38434024 7.94233696 0.00177914 0.00466739 0.00189218
C 18.35190556 21.39099687 11.23036130 -0.00149788 0.00066406 0.00007598
C 21.36543687 18.30738689 12.45555156 -0.00159538 0.00600898 0.00593689
C 18.63346378 21.35639801 15.90331958 0.00039931 -0.00398446 0.00241202
C 21.64035022 18.27240814 17.29112214 0.00788041 -0.00076322 -0.00899676
C 18.42223545 21.38463293 20.91187072 -0.00482245 0.00138427 -0.00490761
C 21.51469587 18.02058464 22.04097143 -0.00076545 0.00362938 -0.00488362
C 18.56063493 26.69782339 1.75340090 -0.00294721 0.00793998 -0.00091826
C 21.92565932 23.84818354 3.03777044 -0.00098292 0.00341525 -0.00625474
C 18.66321802 26.85900352 6.41089803 -0.00063872 0.00059011 -0.00060334
C 21.69468871 23.68668540 7.78405887 -0.00017886 -0.00184725 0.00339233
C 19.12083887 27.11517005 11.16492311 -0.00330985 0.00008247 -0.00057953
C 21.93123246 23.97153504 12.57319422 -0.00223333 0.00762820 -0.00857173
C 18.89230653 27.06956375 15.94603448 0.00282980 0.00435666 -0.00380551
C 21.91559832 24.06802694 17.21758674 -0.00321190 0.00673405 0.00169974
C 18.82402038 27.10041160 20.66135251 0.00196440 0.00112587 -0.00548009
C 21.61341768 24.09006711 21.98607671 0.00011792 0.00441523 0.00206381
C 24.74419624 3.14542921 1.86987422 -0.00364691 0.00339422 -0.00364240
C 27.57579109 30.08200116 3.18852991 0.00274078 0.00285516 0.00001639
C 24.68942123 3.18638164 6.46911499 0.00499613 -0.00399751 0.00202892
C 27.99835887 0.08092146 7.93190681 0.00650943 0.00454745 -0.00066828
C 24.68991913 3.22143331 11.28627385 -0.00076246 0.00010482 0.00489415
C 28.00380021 30.16202609 12.61402236 0.00177826 0.00198762 0.00142241
C 24.74281850 2.89654033 15.85772613 -0.00413067 -0.00118079 -0.00467259
C 27.77383911 29.89276439 17.35292900 0.00288966 0.00448375 -0.00015762
C 24.48031333 3.10679787 20.73616446 -0.00669084 -0.00043873 0.00629575
C 27.83863330 30.15476831 22.17000026 -0.00562740 -0.00232979 -0.00095632
C 23.86852809 9.80542009 1.45055807 0.00025674 0.00459254 -0.00412289
C 27.26893464 6.69789846 2.96608699 -0.00633557 0.00256532 -0.00234469
C 24.07364267 9.91718988 6.38771931 -0.00186277 -0.00196452 -0.00001471
C 27.11593248 6.70913734 7.54377041 -0.00263841 -0.00323690 -0.00136628
C 24.18197904 9.90052486 11.02494448 0.00000483 0.00341124 0.00879294
C 27.23915944 6.59057658 12.49724549 0.00049088 -0.00192319 -0.00118165
C 24.03361324 9.53329754 15.75971340 0.00013266 -0.00051042 0.00091275
C 27.27029194 6.62103744 17.23524188 -0.00555453 0.00359504 -0.00493597
C 23.96670826 9.72690649 20.54411756 -0.00178744 -0.00730480 0.00707644
C 27.26506213 6.78646302 21.83781621 0.00028840 -0.00545583 0.00443595
C 24.86122322 15.26937073 1.78947135 -0.00650216 0.00613934 0.00083953
C 27.60950318 12.26071801 3.14251344 0.00261342 -0.00233340 -0.00018749
C 24.47498015 15.46579455 6.55544762 -0.00025128 0.00524459 -0.00041775
C 27.55134696 12.39879778 7.85217189 -0.00204896 -0.00433322 0.00125847
C 24.50124670 15.34023515 11.13779960 0.00601225 -0.00071095 -0.00709545
C 27.46526173 12.38818776 12.66994719 0.00084876 -0.00588103 0.00101690
C 24.21118828 15.04012655 15.93614836 -0.00063080 0.00682265 0.00647960
C 27.54502439 11.97853758 17.28960843 0.00626758 0.00253823 0.00001828
C 24.82033405 15.24578627 20.89712401 0.00140211 -0.00456735 0.00215155
C 27.82229285 12.13387223 22.17310133 -0.00191513 0.00211785 -0.00118664
C 24.99154587 20.89812552 1.55565294 -0.00476570 -0.00327203 0.00306780
C 28.00020107 17.94591401 3.06123903 -0.00142115 -0.00000049 0.00311070
C 24.75982690 21.07616230 6.68413678 0.00750044 -0.00651007 0.00012599
C 27.88659070 18.19400238 7.75832495 0.00366459 -0.00097189 -0.00109753
C 24.69255587 20.84080827 11.33313254 -0.00375357 0.00006031 -0.00330993
C 28.37030045 17.94960735 12.66697600 -0.00489702 -0.00606736 -0.00001338
C 24.93718429 20.77769763 16.03923859 0.00187602 -0.00010679 0.00279386
C 27.86169316 17.76827697 17.29535590 0.00244022 -0.00343236 0.00583321
C 24.97047571 20.84731784 20.88413010 -0.00203206 0.00090401 0.00443933
C 28.11485174 18.17145191 21.99180946 -0.00345989 0.00002568 0.00095901
C 25.33075499 26.38363366 1.79865471 0.00719466 0.00506522 0.00426179
C 28.35753025 23.59157348 3.14040898 0.00180194 -0.00052824 -0.00320261
C 25.54948341 26.51894398 6.50770023 -0.00788595 -0.00301703 0.00210797
C 28.37915058 23.67898078 7.79976576 0.00035490 -0.00215212 -0.00755584
C 25.51795779 26.67407971 11.28072384 0.00289333 0.00269611 -0.00243746
C 28.15239412 23.47895916 12.56363149 -0.00215169 0.00625784 0.00644402
C 25.39443874 26.46281378 16.13597716 0.00167921 0.00398676 0.00230409
C 28.17516378 23.21388032 17.46765555 -0.00459761 0.00408008 0.00399824
C 25.31224209 26.53797628 20.85098750 0.00291186 0.00838447 -0.00310688
C 28.27678524 23.39825848 22.10592632 -0.00256545 -0.00365421 0.00017850
N 0.18011670 4.32150444 0.76112094 -0.00199777 -0.00328057 0.00349442
N 3.28956380 5.22465002 3.80012536 0.00364684 -0.00695331 -0.00220785
N 5.38981913 2.36713266 0.93009076 -0.00375750 -0.00519846 -0.00596268
N 1.55329109 1.44588118 3.84191326 -0.00123978 -0.00128435 0.00734545
N 30.86937848 4.72508973 5.76498280 -0.00192928 0.00101985 0.00169394
N 3.23385992 5.30085386 8.94420436 0.00345527 -0.00088423 -0.00088769
N 5.17764835 2.25644161 5.81926630 -0.00371503 -0.00406579 -0.00112204
N 1.65455218 1.47854184 8.44079200 0.00672415 -0.00513092 0.00123514
N 30.60472318 4.63364150 10.46072553 -0.00134268 -0.00324317 0.00498686
N 3.46019701 5.41794104 13.49320255 -0.00335990 0.00005070 0.00187688
N 5.10598688 2.57669027 10.57605603 -0.00234742 0.00460175 -0.00728065
N 1.69497988 1.55470710 13.31873029 0.00067296 -0.00221431 0.00341922
N 0.04666038 4.60914140 15.23694203 0.00391783 0.00293123 -0.00019379
N 3.51602158 5.34445547 18.01813919 -0.00030023 0.00355674 -0.00541858
N 5.13618899 2.52149819 15.15467899 0.00425186 -0.00061170 0.00497495
N 1.79253212 1.29442823 18.02068114 -0.00295253 -0.00102787 -0.00768654
N 30.89901599 4.45626107 19.92541331 0.00633302 -0.00417298 0.00729779
N 3.58838587 5.05158633 22.59526527 0.00457975 0.00187047 -0.00171747
N 5.06986204 2.10883267 19.87262284 -0.00652348 -0.00490430 -0.00417673
N 1.75320832 1.35995722 22.87667011 -0.00147223 0.00030832 0.00353821
N 0.58867363 10.17023029 0.86669618 -0.00050387 0.00081663 0.00694639
N 3.82376698 10.97219128 3.77843636 -0.00144434 0.00406259 -0.00036232
N 5.69911127 8.08209477 1.13282246 -0.00167692 -0.00615702 0.00218547
N 1.97787912 7.04261338 3.57499636 0.00188771 0.00577600 -0.00019707
N 0.62287085 10.13307676 5.72171128 -0.00444359 0.00036726 -0.00239388
N 3.80074006 10.97442626 8.46973497 -0.00516210 0.00644369 0.00387295
N 5.56124009 8.17447263 5.82519673 0.00067661 0.00393216 0.00712365
N 2.05609380 7.28344384 8.59576152 -0.00100459 -0.00714041 0.00499317
N 0.52042695 10.16035886 10.41817160 0.00428945 0.00247780 -0.00005664
N 3.93305949 11.00002047 13.19044431 -0.00084864 0.00522464 -0.00126352
N 5.58174241 8.04013491 10.53847306 -0.00222702 -0.00097594 -0.00171105
N 2.05161780 7.24314342 13.51405755 0.00715560 0.00587946 -0.00489733
N 0.64531029 10.18416091 15.26381440 -0.00228453 0.00386861 0.00562367
N 3.92878778 10.65464462 18.06309550 -0.00156627 -0.00397400 -0.00072373
N 5.42168614 8.13119683 15.40909602 0.00299164 -0.00076079 -0.00534019
N 2.30936339 7.34568593 18.04902299 0.00270437 -0.00360616 0.00204941
N 0.40459335 10.15133033 20.06746610 0.00650688 0.00007778 -0.00227863
N 3.63887750 10.77808565 22.55972782 -0.00298424 -0.00029351 0.00723034
N 5.56303598 7.93521992 20.16732651 0.00296348 -0.00012061 0.00317515
N 2.45347924 7.05871105 22.74447363 0.00061729 0.00343703 0.00182963
N 0.90995696 15.78491102 0.98556397 -0.00555128 0.00909502 -0.00126084
N 4.56910304 17.07059628 3.87300222 0.00486824 0.00726476 -0.00493367
N 5.95215631 13.66727562 0.98309419 0.00756870 0.00513792 0.00565036
N 2.79257170 12.99202679 3.83244250 -0.00279077 0.00463876 0.00026047
N 0.93646071 16.12932246 5.77229388 0.00662872 -0.00061012 -0.00384454
N 4.36899389 16.96427441 8.45175626 -0.00256845 -0.00535890 0.00459635
N 6.00480283 13.42624569 5.75923771 -0.00366840 0.00399278 -0.00222221
N 2.43831572 12.83127900 8.53328748 -0.00093246 0.00331133 -0.00388666
N 0.78524845 15.89920573 10.68781080 -0.00206432 0.00535286 0.00158008
N 4.56550977 16.67923422 13.26717626 -0.00512232 0.00001557 -0.00360306
N 5.84491364 13.65683974 10.36903253 -0.00092689 -0.00423135 0.00125348
N 2.63154130 12.94232243 13.23517633 0.00154359 -0.00253784 0.00223186
N 0.98915880 15.65804745 15.40457358 0.00536139 0.00391213 0.00462282
N 4.40507118 16.38890528 18.12204653 0.00492265 -0.00142639 -0.00305297
N 5.91599962 13.45852979 15.10920474 -0.00062088 0.00024715 -0.00140109
N 2.60653692 12.59041604 17.82082291 -0.00365027 -0.00311217 0.00505610
N 0.98821379 15.48526634 19.90603035 -0.00450103 -0.00163760 0.00630746
N 4.61355850 16.77780621 22.55212950 0.00081455 0.00108291 -0.00190468
N 6.09600794 13.61823024 19.80743672 0.00510095 -0.00230301 -0.00236065
N 2.75636614 12.94865857 22.54580182 -0.00528905 0.00252620 -0.00460876
N 1.56546774 21.30824937 0.95778305 -0.00105995 -0.00634585 -0.00715239
N 4.04521150 23.79662711 3.74722338 0.00315254 0.00363026 0.00400389
N 5.37309432 20.27836308 1.03530566 -0.00547605 0.00382452 -0.00196485
N 3.19927208 18.92792128 3.83980172 0.00791642 -0.00025316 0.00591539
N 1.19671723 21.55487627 5.67818378 -0.00200217 0.00122521 0.00173426
N 4.12995133 23.50183549 8.47256167 0.00099300 -0.00001182 -0.00849431
N 5.12869126 20.81323309 5.75458487 -0.00570398 -0.00022116 -0.00613946
N 2.67740176 18.37803028 8.51101788 -0.00338666 0.00567005 -0.00176419
N 1.31033208 21.58775362 10.51097858 -0.00339611 0.00160163 -0.00302615
N 3.95149990 23.63069577 13.32124257 0.00584042 -0.00035480 -0.00224049
N 5.35419346 20.49438789 10.59890218 0.00275278 0.00155629 0.00441756
N 3.00346672 18.48694893 13.15272361 -0.00312219 0.00044868 0.00112223
N 1.34598835 21.47956925 15.37993939 0.00087295 -0.00166655 -0.00707984
N 4.16904403 23.62156349 17.76820175 0.00571762 0.00537691 0.00017102
N 5.50520327 20.34323372 15.36163048 0.00319256 0.00160665 -0.00201017
N 3.05725311 18.16307209 17.89340386 -0.00296882 0.00053826 0.00140094
N 1.51038799 21.22829837 20.00945680 -0.00678621 -0.00215651 -0.00558810
N 4.25564466 23.71234134 23.01328013 0.00279235 0.00095346 -0.00507539
N 5.52702781 20.26587273 20.09894680 -0.00187939 0.00580471 0.00511861
N 2.98299740 18.29445794 22.78044977 0.00003842 -0.00129217 -0.00463708
N 0.66550019 27.94771318 1.07532125 0.00555677 0.00140969 -0.00090249
N 3.05378827 29.86604794 3.81412300 -0.00068036 -0.00066993 -0.00080095
N 4.94478011 26.89975075 1.11478725 -0.00696456 -0.00067813 -0.00316493
N 2.08116274 24.82065420 3.91368874 -0.00099126 0.00094858 -0.00803447
N 0.59178638 28.05439395 5.80206578 0.00020270 0.00370704 -0.00150815
N 3.16137618 29.89345071 8.51093889 -0.00807611 0.00475739 -0.00524169
N 4.50490826 27.31586111 5.80715449 0.01123612 0.00840278 0.00373992
N 2.16500428 24.83238749 8.52744691 -0.00075143 0.00319213 -0.00115156
N 0.75947238 27.83716471 10.63383823 -0.00749569 0.00704879 0.01212735
N 3.28047967 30.07055149 13.22941091 0.00158899 -0.00221781 0.00456520
N 4.80376473 27.13614649 10.36717828 -0.00077657 -0.00457932 0.00032760
N 1.82724659 24.54704581 13.25018850 0.00488459 -0.00176650 0.00513579
N 0.95908498 27.60080789 15.29330475 -0.00625487 0.00522233 -0.00055593
N 3.39359107 29.84457886 17.82217154 0.00304889 -0.00069069 0.00091750
N 4.67976951 26.82885064 15.32194269 -0.00516598 -0.00330176 0.00253450
N 2.24090769 24.85578065 18.14405634 -0.00141083 -0.00160817 0.00518200
N 0.85937746 27.86502457 19.87635768 0.00020184 0.01003001 0.00293775
N 3.28497599 29.81882692 22.79601574 0.00083118 0.00404491 -0.00067621
N 4.78211528 26.85135459 20.02040790 0.00327271 -0.00263910 0.00202479
N 2.36031102 25.11435456 22.75253989 -0.00464266 -0.00376744 0.00082623
N 6.84427084 4.20126806 1.10611123 0.00340339 -0.00448053 0.01119620
N 10.05402945 4.89811076 3.87004260 0.00239627 0.00038767 -0.00276955
N 11.67654649 2.05029188 1.10828075 0.00659009 0.00044641 0.00166250
N 8.50236130 1.19274336 3.99540068 0.00709429 -0.00821875 -0.00055017
N 6.43261997 4.20859544 5.98463809 -0.00320239 0.00072430 -0.00155282
N 9.91455749 4.85148386 8.56138426 0.00399674 -0.00030787 0.00174657
N 11.80652357 2.07199692 5.86646292 0.00545228 0.00018529 -0.01332765
N 8.27935242 1.08353305 8.48162606 -0.00148961 -0.00191409 0.00228434
N 6.61399474 4.30184675 10.60028255 -0.00285057 -0.00002222 0.00697264
N 10.26638913 4.97205833 13.30050351 -0.00369727 0.00060933 0.00356461
N 11.71213386 2.07847831 10.71366477 -0.00317865 0.00874794 0.00651907
N 8.49695350 1.13703303 13.25135416 0.00303737 -0.00012255 0.00297537
N 6.69200553 4.25125566 15.36105738 -0.00169599 0.00416782 -0.00484389
N 10.04372979 4.78448844 18.10032722 0.00567365 -0.00020986 0.00152598
N 11.50480042 2.04686389 15.35522353 -0.00511693 0.00053865 -0.00309991
N 8.08248689 1.20301089 18.04736751 -0.00442413 -0.00241902 -0.00219948
N 6.62310178 3.86135801 20.10696058 0.00290408 0.00043012 0.00041910
N 10.13824132 4.96044913 22.98050420 0.00425405 -0.00110871 -0.00018027
N 11.73878595 1.96960608 20.12633279 -0.00313436 0.00000371 -0.00182536
N 8.62488242 1.06770239 22.94726325 -0.00427460 0.00324794 -0.00324589
N 7.49142139 9.57510217 0.82918774 -0.00182570 -0.00582208 -0.00201400
N 10.58671454 10.84101822 3.60977148 0.00370219 0.00716142 0.00489196
N 12.12956808 7.63243834 0.91888728 0.00247661 0.00840526 0.00259356
N 9.05844901 6.96755615 3.90845017 0.00379420 -0.00124225 -0.00332717
N 7.29861409 9.70663106 5.74602408 -0.00040031 0.00007033 -0.00347611
N 10.78579853 10.76412426 8.38610500 -0.00766728 -0.00001447 0.00093552
N 12.17908370 7.70586777 5.88878263 -0.00130489 0.00415025 0.00006088
N 8.97357415 6.90767423 8.92026668 0.00334252 -0.00304382 0.00703904
N 7.10469235 9.74077572 10.66116890 -0.00585244 0.00357853 -0.00038588
N 10.63856587 10.50629406 13.30176954 -0.00040800 -0.00287952 -0.01058230
N 12.04793242 7.69724891 10.41277553 0.00418271 0.00374310 -0.00658016
N 8.97167798 6.85118190 13.41170718 0.00080227 -0.00367462 0.00395473
N 7.14137682 9.66421492 15.34572155 -0.00544360 0.00324883 -0.00135615
N 10.92785180 10.92909334 17.89029915 0.00882671 -0.00214811 0.00313224
N 12.40543900 7.82444559 15.13452895 -0.01076038 -0.00413669 -0.00391629
N 9.07012984 6.95438189 18.18976542 -0.00234139 0.00563183 -0.00437568
N 7.28008229 9.40897487 20.01175128 0.00071840 0.00011382 0.00174820
N 10.60312932 10.47922415 22.61164403 0.00522143 0.00013761 0.00269119
N 12.13656744 7.76602023 20.03672548 0.00571048 0.00727179 0.00028131
N 8.76678446 6.76054544 22.66465216 -0.00105154 -0.00304514 0.00266313
N 7.71801640 15.11644084 0.97214455 0.00202224 0.00293117 0.00379299
N 10.00758632 17.37555391 3.79964881 -0.00221357 -0.00504625 -0.00308794
N 11.48726939 14.48969965 1.05898742 0.00052300 0.00179573 -0.00568823
N 9.13461048 12.56210672 3.60396634 -0.00264846 -0.00225390 -0.00012199
N 7.69939309 15.06652735 5.96273586 -0.00953716 0.00226825 0.00902513
N 9.84733072 17.24863988 8.51291680 -0.00098172 -0.00087722 -0.00515021
N 11.35515430 14.26614228 5.70696798 0.00190108 0.00190749 -0.00117777
N 8.97356518 12.16344631 8.50755491 -0.00023448 0.00495912 0.00398708
N 7.52431252 15.16031593 10.36539903 -0.00207084 -0.00030554 -0.00142336
N 10.14076373 17.45967782 13.08818591 -0.00010150 -0.00064121 -0.00349537
N 11.24157550 14.24206506 10.45878593 -0.00266254 -0.00010345 0.00092986
N 9.22057935 12.34090239 13.24719156 0.00211632 -0.00285917 -0.00262569
N 7.32784176 15.26306836 15.12993983 0.00264967 -0.00229901 0.01173254
N 10.11461088 17.37207109 17.90709267 0.00042612 0.00035188 -0.00390836
N 11.23988747 14.44035980 15.20069859 0.00211038 -0.00043819 0.00315399
N 9.01784302 12.14488966 17.89267009 0.00082180 -0.00435137 0.00204863
N 7.63670923 15.24425315 19.97146533 0.00077700 -0.00148464 -0.00048931
N 10.22987376 17.64992858 22.79448368 0.00356839 -0.00022591 0.00842133
N 11.70968211 14.47364102 19.88480639 -0.00862264 -0.00322731 -0.00026090
N 9.04267135 12.16215007 22.72432244 0.00811771 0.00481836 0.00012658
N 6.92822913 22.01854010 0.94218744 0.00344246 0.00219763 0.00206427
N 9.34316379 23.81755822 3.96151952 -0.00312064 0.00387945 0.00372396
N 10.95995536 20.86971077 1.04539531 -0.00273978 -0.00130148 0.00320539
N 8.20201348 18.76378289 4.00801773 -0.00265334 0.00107734 0.00249976
N 6.98608180 22.08969567 5.68230078 -0.00722979 0.00077000 -0.00094673