2000
Time=86000.00000007 pbc="T T T" Lattice="31.28413585 0.00000000 0.00000000 0.00000000 29.90960286 0.00000000 0.00000000 0.00000000 23.82321446" energy=-12039.98788476 virial="-70.94805356 -4.75352574 4.49886196 -4.75352574 -54.06370803 9.03838057 4.49886196 9.03838057 -15.80985278" stress="-0.00113098 -0.00029225 0.00014907 -0.00029225 -0.00035585 0.00035681 0.00014907 0.00035681 0.00194727" Properties=species:S:1:pos:R:3:vel:R:3
C 30.57350995 3.41079232 1.68878786 -0.00205359 0.00435439 -0.00436402
C 2.62574394 0.65396427 3.03441095 -0.00964978 -0.00703737 -0.00078200
C 30.51034091 3.75990719 6.35777517 0.00329150 -0.00072142 -0.00166243
C 2.46506771 0.58793472 7.87966408 0.00894133 -0.00318458 -0.00010508
C 31.01718319 3.59677539 11.29263685 -0.00087146 -0.00374255 0.00563826
C 2.64456321 0.67721689 12.77303331 0.00215132 0.00283825 -0.00078088
C 30.74346211 3.63112112 16.11514576 -0.00026051 0.00071505 -0.00135507
C 2.33721191 0.33204551 17.42252945 0.00011779 0.00744825 0.00499362
C 30.46546368 3.60878818 20.80808240 0.00261350 0.00195131 0.00316624
C 2.34833247 0.37950183 22.12979507 -0.00104976 0.00129703 -0.00093219
C 30.94754359 9.23897119 1.33777039 -0.00234088 0.00223192 -0.00585627
C 2.82676667 6.30350324 3.06355502 -0.00846589 -0.00374082 0.00592956
C 30.91312207 9.32150953 6.41423280 0.00179020 -0.00839118 0.00184331
C 3.09451118 6.00895579 7.77918081 0.00342917 -0.00335672 -0.00035983
C 31.21638422 9.30992622 11.32429963 -0.00430259 0.00427107 -0.01204754
C 3.27657515 6.36996106 12.53478787 -0.00816711 0.00226252 -0.00191986
C 31.03221095 9.38153950 16.04998444 0.00345836 0.00139108 -0.00018436
C 2.96015271 6.30712288 17.56508117 -0.00379769 0.00098071 -0.00008696
C 30.87119354 9.25142144 20.55397626 -0.00169349 -0.00145478 0.00573058
C 2.93516006 5.95893996 22.10000626 0.00127570 0.00459280 0.00564127
C 31.27254923 14.70086021 1.61312128 -0.00243559 0.00230486 -0.00469705
C 3.54158609 11.67678405 2.93641614 0.00405410 0.00102279 -0.00386584
C 0.24146351 14.78613674 6.35486847 -0.00405727 0.00318060 0.00328775
C 3.40040589 11.82363402 7.85017089 0.00973040 0.00163245 -0.00057083
C 0.10136871 14.75882297 11.19033049 0.00001556 0.00782735 -0.00769884
C 3.43259023 11.97336394 12.53577955 -0.00239749 0.00038616 0.00192301
C 31.20902971 14.85989576 15.98491931 -0.00124769 -0.00257328 -0.00663197
C 3.20230445 11.91186236 17.33312426 0.00065842 -0.00255603 -0.00090822
C 0.01882560 14.70667433 20.70806145 -0.00217750 0.00067247 -0.00570027
C 3.11896086 11.74523576 21.99401366 -0.00238152 0.00040005 0.00482693
C 0.54491098 20.40241807 1.73992733 0.00293490 0.00257991 -0.00239363
C 3.94863545 17.75004879 2.97215053 0.00806079 -0.00220380 -0.00657723
C 0.68439788 20.01925405 6.60871561 -0.00100424 -0.00524780 0.00242089
C 3.54909347 17.45607424 7.89094826 -0.00235573 0.00024981 0.00632589
C 0.39962016 20.50517197 11.28638435 -0.00136578 0.01003352 0.00163311
C 3.81196418 17.60625475 12.60088344 0.00606458 0.00740697 -0.00160766
C 0.63084274 20.36477072 15.88205116 0.00086331 0.00187881 -0.00006176
C 3.48280522 17.14609541 17.40466571 -0.00524454 0.00865270 0.00183376
C 0.76460158 20.30819177 20.91461596 0.00475628 -0.00570506 -0.00292035
C 3.36237091 16.91443336 22.11791182 -0.00452504 0.00407177 -0.00667907
C 31.16420676 26.72008696 1.80637475 -0.00571108 -0.00359529 -0.00043477
C 3.00163158 23.74763097 3.16270837 -0.00230112 0.00062546 -0.00164445
C 31.20553743 26.68927760 6.70362439 -0.00161164 -0.00151562 0.00565856
C 3.26978128 23.88528206 7.85621574 0.00443304 0.00338651 -0.00430593
C 31.27493505 27.00975735 11.35972478 -0.00218563 -0.00290352 -0.00843479
C 3.17167786 24.10287914 12.58018670 -0.00726376 0.00438853 -0.00559540
C 31.23732332 26.85525923 16.15614461 -0.00918313 0.01159250 -0.00718865
C 3.30452889 24.18837977 17.48332547 -0.00187630 -0.00291058 0.00234027
C 31.08254755 26.79316127 20.73168582 -0.00650457 -0.00558975 -0.00150675
C 3.28965243 23.66100381 22.10692841 0.00361773 0.00283975 -0.00185364
C 6.03672274 3.18217588 1.80714513 0.00072676 0.00117727 -0.00117768
C 9.32020044 0.19787855 3.02692768 -0.00320976 0.00635768 0.00718540
C 6.49254125 3.14766093 6.53533115 0.00395020 0.00041014 0.00379875
C 9.33507087 0.21438997 7.84743638 -0.00369963 0.00138637 0.00340261
C 6.11966955 3.11364856 11.41674550 -0.00196979 -0.00097076 0.00419990
C 9.14776668 0.12436791 12.58036836 0.00534393 0.00067313 -0.00841638
C 6.08408271 3.07584412 15.98645166 -0.00908115 0.00051479 0.00949276
C 9.33464521 0.07632723 17.51133423 -0.00371166 -0.00137121 0.00401315
C 6.14233778 3.43254023 20.86123786 -0.00224398 0.00092461 0.00487944
C 9.19654522 0.26380357 22.28263722 0.00997416 -0.01084558 0.01129837
C 6.35706547 8.97410453 1.63562973 -0.00298049 -0.00038446 0.00117330
C 9.64385423 5.91928925 3.04987069 0.00134716 0.00150119 -0.00309982
C 6.51900845 8.60807808 6.31257456 0.00391816 0.00175771 -0.00003293
C 9.53385552 6.01873688 7.72698506 0.00124328 -0.00218203 -0.00211858
C 6.35766548 8.75965224 11.26994138 0.00077199 -0.00373186 -0.00406930
C 9.67182331 5.95327355 12.67158091 -0.00286904 0.00073830 0.00127789
C 6.51538719 8.53301435 16.25549393 -0.00424334 0.00208320 -0.00337152
C 9.79797823 5.65542178 17.32390684 -0.00469546 -0.00308266 0.00097133
C 6.27953837 8.88062751 20.83488056 -0.00204329 -0.00464324 0.00253870
C 9.55265995 5.93446657 22.03032336 -0.00304724 0.00059966 0.00416838
C 6.90465665 14.38123511 1.63644684 -0.00602611 -0.00174610 0.00708946
C 9.99770993 11.27835085 3.03132028 -0.00543702 -0.00169776 -0.00089339
C 6.92702904 14.35102111 6.35796704 0.00670817 -0.00299388 -0.00658344
C 10.19053877 11.57651513 7.78996637 0.00285551 0.00276957 0.00313912
C 6.80183564 14.40874001 11.17863634 0.00107466 -0.00200795 0.00210587
C 10.12764979 11.39397367 12.49082170 -0.00531618 0.00234642 0.00387799
C 7.01787980 14.43788490 15.82617512 0.00631479 -0.00066920 0.00284507
C 9.81742603 11.33707612 17.39893278 0.00127008 0.00227305 0.00172760
C 6.70823319 14.41467400 20.58618284 0.00311937 0.00513766 -0.00346443
C 10.00426498 11.45106939 22.08994272 -0.00674196 0.00000282 0.00408132
C 6.15767185 20.84508742 1.70495913 -0.00130267 -0.00754973 -0.00396036
C 9.40875311 18.11194797 3.03423814 0.00488610 0.00011031 -0.00071419
C 6.22548231 21.15202023 6.57101498 0.00074950 0.00066969 -0.00577798
C 9.38035586 18.07093519 7.65594001 -0.00115710 -0.00316892 -0.00423418
C 6.49706097 21.15378938 11.36554821 -0.00253506 0.00036787 0.00047430
C 9.29990445 17.92348849 12.61650326 -0.00043236 0.00789058 -0.00537001
C 6.17987140 21.08146056 15.99870484 -0.00372230 -0.00112103 0.00377929
C 9.10184879 17.83640735 17.48943918 0.00236077 0.00206080 0.00424848
C 6.19348134 20.93759523 20.84881413 0.00087249 -0.00091546 0.00358662
C 9.47295568 18.20358217 22.07828945 0.00121228 0.00310134 -0.01017596
C 5.60909361 27.43204735 1.78879739 0.00300905 0.00240433 -0.00621274
C 8.70942190 24.48711077 2.98819042 0.00045730 0.00535707 -0.00514381
C 5.73424111 27.53091727 6.52042235 0.00117694 -0.00156807 0.00022285
C 8.88324781 24.63199378 7.90807555 0.00560322 -0.01047140 -0.00217532
C 5.78749746 27.55132311 11.44411781 -0.00398968 -0.00238076 -0.00388908
C 8.88441919 24.64534695 12.70637132 -0.00193918 -0.00023074 -0.00226320
C 5.57124495 27.40522923 16.10197819 -0.00254732 -0.00232159 0.00055395
C 8.56685198 24.57068268 17.56342796 0.00025220 -0.00449990 -0.00125756
C 5.69978790 27.67850209 21.01596068 0.00209735 -0.00619837 0.00417260
C 8.64418530 24.50305994 22.26922506 -0.00428233 0.00518167 0.00255106
C 12.89343281 2.92771607 1.59616294 -0.00434434 0.00474908 0.00043376
C 15.66077726 29.67038709 2.99014730 -0.00901671 0.00169910 0.00181352
C 12.50728889 2.77520297 6.62864570 -0.00337365 -0.00270262 -0.00389321
C 15.80651805 29.62711924 7.84112281 0.00289431 -0.00537312 -0.00016480
C 12.63025689 2.80875009 11.28569210 -0.00402004 0.00027002 -0.00161485
C 15.68162839 29.84293358 12.53342466 0.00168246 0.00613387 0.00191851
C 12.45866500 2.59050940 16.02906429 0.00671918 -0.00902037 -0.00010973
C 15.84509115 29.89122471 17.34879449 0.00005501 -0.00051606 0.00386261
C 12.57117815 2.71966471 20.85055688 -0.00644083 0.00193698 -0.00019988
C 15.59750568 29.87135663 22.17101255 -0.00618336 -0.00011949 0.00476336
C 13.13661722 8.28808354 1.98797728 -0.00356715 -0.00318112 -0.00264873
C 16.07165201 5.35663820 3.08945585 0.00258198 0.00012505 0.00991176
C 13.14685392 8.33122477 6.70840384 0.00116139 -0.00251432 -0.00655771
C 16.19849206 5.30276830 7.72042597 0.00155612 -0.00166397 -0.00059725
C 13.49582298 8.56878081 11.32149471 0.00227947 0.00163568 -0.00173444
C 16.40772238 5.48735540 12.61357637 0.01014561 -0.00452638 -0.00140143
C 13.12822051 8.77437298 16.01037604 0.00455463 -0.00237614 -0.00235996
C 16.15311906 5.49124919 17.53226837 -0.00591465 -0.00100250 -0.00081139
C 13.20441878 8.14749734 20.76908783 0.00213739 -0.00313908 0.00588991
C 16.22018701 5.58382330 22.01231908 -0.00712983 -0.00264098 0.00127590
C 12.56902310 15.22396138 1.58989731 -0.00202726 -0.00349247 0.00333167
C 15.93395100 11.96545168 3.01856260 0.00010795 -0.00256334 0.00189619
C 12.48455232 14.91415133 6.41200763 0.00199100 -0.00276915 0.00001421
C 15.84428735 11.95858660 7.78535392 0.01211191 -0.00991824 -0.00352688
C 12.58701344 15.07227946 11.23227433 -0.00460292 0.00423755 0.00196408
C 15.98801087 12.20265561 12.58167502 -0.00205306 0.00172696 -0.00387042
C 12.57061016 14.83731992 15.96525992 0.00749379 0.00298682 -0.00430070
C 15.68044917 11.83519100 17.32126647 -0.00185863 0.00537812 -0.00363654
C 12.36000189 15.13760807 20.72629639 -0.00135279 0.00008816 0.00042372
C 15.59518910 11.81564502 22.08246071 0.00896561 -0.00398174 0.00341309
C 11.98032441 21.80422940 1.60075707 -0.00167615 -0.00139757 -0.00055692
C 15.05937952 18.64722211 3.00540855 0.00149681 0.00398193 -0.00079563
C 11.90777930 21.37450795 6.39690598 -0.00066894 -0.00178377 0.00797440
C 15.41096910 18.62056263 7.75599730 -0.00392107 0.00381975 0.00550015
C 11.83151851 21.40100892 11.20140999 0.00344028 -0.00507180 0.00037519
C 15.19128099 18.65771363 12.56085634 0.00052987 0.00170536 -0.00027714
C 11.55774388 21.75830435 15.99229961 -0.00141671 -0.00445609 0.00045133
C 15.00618891 18.45931806 17.27773637 0.00457681 -0.00075012 -0.00304541
C 11.99314570 21.66610527 20.59891262 0.00117080 0.00399405 -0.00040254
C 15.01560043 18.53289765 22.07211530 0.00355608 0.00476968 -0.00235375
C 12.29664801 26.95583171 1.75781843 -0.00562947 -0.00164224 -0.00005296
C 15.69314865 23.80472211 2.98831677 0.00133497 0.00308759 -0.00602541
C 12.56878214 27.05228921 6.36659994 0.00438323 -0.00012152 -0.00274023
C 15.37035836 24.01210573 7.71967900 0.00172591 -0.00223027 0.00760355
C 12.36050475 27.23275183 11.18946438 0.00934852 0.00401289 0.00121803
C 15.28269565 24.01759811 12.54326532 0.00075903 0.00067369 -0.00017345
C 12.47925335 27.09418491 15.93071535 0.00013309 -0.00508150 -0.00291881
C 15.54496179 24.02226622 17.19513163 -0.00220627 -0.00067531 -0.01105730
C 12.13130544 27.31899714 20.78257720 -0.00032834 0.00036261 -0.00266501
C 15.21744641 24.22080815 22.09756082 -0.00152329 0.00038627 0.00155575
C 19.38924647 2.29459892 1.79512843 0.00404361 0.00952246 0.00122511
C 22.41117232 29.52637899 3.09989241 -0.00339304 0.00482010 -0.00319457
C 19.27483920 2.42029411 6.54074565 0.00271518 0.00959188 0.00073017
C 22.53177061 29.03932170 7.95740247 0.00360265 0.00235059 0.00166399
C 19.66429626 2.26747387 11.21229243 -0.00297476 -0.00057244 0.00343590
C 22.69990621 29.45219408 12.59378559 0.00436952 0.00027939 -0.00417362
C 19.18867314 2.56165110 15.75111646 0.00153739 -0.00157033 -0.00291280
C 22.52641357 29.38521924 17.41250310 -0.00198201 -0.00090951 0.00113365
C 19.17525995 2.48448619 20.77990536 -0.00051464 0.00489455 -0.00117114
C 22.12447142 29.32312899 22.09896739 0.01181341 -0.00162261 0.00393003
C 18.56564378 8.89986727 1.68682499 0.00142550 -0.01055328 0.01003221
C 21.82197027 5.74384131 3.20542274 -0.00333828 -0.00198549 0.00522054
C 18.74599331 8.89362927 6.30515379 0.00657379 -0.00420842 -0.00244808
C 21.95311959 5.83709666 7.80349426 0.00556523 0.00502518 0.00057407
C 19.23215529 8.67391507 11.16511285 0.00013221 0.00349782 -0.00101928
C 22.38593806 5.61030003 12.71092183 -0.00215189 -0.00218124 0.00155712
C 19.12006807 8.83989978 16.05576989 0.00982182 0.00043409 -0.00350641
C 21.76412040 5.71686916 17.55998855 0.00140184 0.00124980 0.00962291
C 18.75367487 8.98445234 20.75060425 0.00236302 -0.00116916 0.00314893
C 22.22684734 5.96742036 22.29462388 -0.00238238 -0.00419152 -0.00085048
C 18.24981863 15.54605671 1.72352573 0.00189018 0.00345413 -0.00564335
C 21.25050129 12.46515447 2.93569687 0.00401382 -0.00413750 0.00822706
C 18.20241402 15.69899862 6.53165021 -0.00456485 0.00111841 0.00600635
C 21.61776288 12.66918194 7.75590329 0.00288837 0.00085179 0.00432784
C 18.11198562 15.60785164 11.32456141 -0.00060087 -0.00193348 -0.00005283
C 21.09607396 12.68680844 12.37397152 0.00209218 0.00316000 0.00113273
C 18.12953546 15.50493162 16.08842288 0.00591315 0.00037550 -0.00029529
C 21.31996045 12.51270933 17.39112163 -0.00246050 0.00067851 0.00679986
C 18.17668804 15.59248774 20.91464373 0.00345411 0.00186576 0.00137321
C 21.24845330 12.44320359 22.15404659 -0.00182632 0.00128716 -0.00591850
C 18.59240378 21.03382992 1.72582769 -0.00917083 -0.00652435 0.00318247
C 21.47920223 18.11888022 2.92379736 -0.00008327 -0.00251501 0.00186338
C 18.79523380 21.09548025 6.67062297 -0.00419364 -0.00429394 -0.00230917
C 21.87358617 18.13488510 7.70174405 0.00160969 0.00411905 0.00062145
C 18.69476213 21.02502710 11.38700124 0.00056269 0.00255000 -0.00472010
C 21.78310880 18.07069792 12.43371638 0.00193414 0.00017657 0.00236097
C 18.50310867 21.19156498 16.18656514 0.00127596 -0.00027941 -0.00048348
C 21.62132093 18.11856945 17.16424347 0.00365292 0.00224555 0.00607422
C 18.41305065 21.19043581 20.92353260 -0.00139938 0.00254463 -0.00091993
C 21.78194534 18.50430205 21.93386326 -0.00145755 0.00406211 -0.00075308
C 18.81659670 26.62295062 1.85778553 -0.00678576 0.00181304 0.00003023
C 22.00085100 23.57435091 3.14662042 -0.00275096 0.00564268 -0.00408338
C 19.03902721 26.39313668 6.66502344 0.00581397 0.00055675 -0.00843909
C 22.09292093 23.86367822 7.85933063 0.00074337 0.00367899 -0.00361875
C 18.91107762 26.71264217 11.19169606 -0.00345022 0.00132885 -0.00406155
C 22.05440333 23.63769484 12.64938946 0.00708725 -0.00218713 -0.00205888
C 18.97816937 26.72739795 15.96523953 -0.00530507 0.00273625 -0.00030584
C 22.10546268 23.72267238 17.20661081 -0.00360354 0.00365717 -0.00264671
C 18.65634941 26.62727294 20.72160793 0.00237958 0.00718646 -0.00326712
C 21.87026225 23.56000962 22.24972329 0.00251011 -0.00008879 0.00407035
C 24.90804658 3.19743954 1.88350774 0.00018207 0.00258074 0.00521356
C 27.91476777 0.08048245 3.33637934 0.00009730 -0.00162916 0.00519929
C 25.17052374 3.09471405 6.55998832 0.00487333 0.00112468 0.00031447
C 27.99222296 29.79609776 8.01666581 0.00476166 -0.01040798 0.00084603
C 25.25035978 2.99494815 11.20009681 0.00126367 0.00275628 -0.00331771
C 28.29744611 0.03776294 12.60726833 -0.00414445 -0.00331654 0.00458408
C 25.12472195 2.91011376 16.03256804 0.00275849 -0.00164595 0.00999743
C 28.02186018 29.68721383 17.21499531 0.00001007 -0.00223414 -0.00223121
C 25.00518267 2.84478776 20.92083270 -0.00325313 0.00373924 0.00435519
C 28.08024209 29.89082071 22.00239410 -0.00038350 0.00361852 0.00452943
C 24.52484480 9.57359892 1.55877898 -0.00041858 -0.00009008 0.00385062
C 27.64226603 6.51449045 2.78029422 -0.00037802 0.00368330 0.00217287
C 24.61156186 9.46756119 6.33662607 0.00015850 -0.00099061 -0.00564051
C 27.63747524 6.45396513 7.82084112 -0.00643089 0.00035081 -0.00383921
C 24.42212361 9.40094903 11.26011196 -0.00105914 0.00340276 0.00020102
C 27.57709812 6.50160010 12.50735346 0.00200676 -0.00271892 -0.00137309
C 24.54190987 9.72242500 16.00788997 -0.00529896 0.00161521 -0.00435481
C 27.46506667 6.58316426 17.11547006 0.00135007 0.00427177 -0.00106711
C 24.45003160 9.59487208 20.56708556 -0.00005992 0.00312687 -0.00033388
C 27.69274765 6.09005904 21.82359479 -0.00305899 0.00313803 -0.00196766
C 24.61370290 15.14928292 1.56000537 -0.00743317 -0.00330757 0.00684028
C 27.82821965 12.07266532 2.93315945 0.00036476 0.00116458 0.00205813
C 24.90762665 15.07136947 6.28930989 -0.00217571 0.00498569 -0.00248378
C 27.78170766 12.07981261 7.72767043 0.00619803 0.00217706 0.00445972
C 25.10896279 15.08880998 11.03070745 -0.00344761 0.00459949 -0.00452495
C 28.03471236 12.18541007 12.48716562 0.00119291 -0.00033267 -0.00762338
C 25.05323352 15.24646706 15.85727831 0.00135791 0.00741470 -0.01017875
C 27.91774075 11.93088454 17.20659755 -0.00045550 0.00052576 0.00066304
C 24.83694338 14.99526017 20.77204032 -0.00265729 0.00062739 -0.00333772
C 27.96136047 12.25726335 21.97491097 -0.00342411 0.00195876 -0.00045941
C 24.89420673 20.69147125 1.55405836 0.00651513 -0.00576674 -0.00084310
C 28.47899147 17.83786825 2.92165316 0.00447758 -0.00404289 -0.00009973
C 25.02292330 20.67084438 6.44720786 -0.00112259 -0.00380516 0.00094012
C 28.49314740 17.82332520 7.71044848 0.00028059 0.00002467 -0.00247101
C 25.06022030 20.49887367 11.20344540 0.00000677 0.00644763 -0.00890392
C 28.63800973 17.97220641 12.49120572 -0.00491471 0.00053841 -0.00174958
C 25.15188645 20.77372866 15.81058369 -0.00103658 0.00328864 -0.00328819
C 28.32490466 17.80548242 17.38662130 0.00010857 -0.00173261 0.00392594
C 25.34987073 20.74625873 20.71528297 -0.00127154 0.00316654 -0.00314432
C 28.20850714 17.99761756 21.99944750 -0.00299937 -0.00299554 -0.00658655
C 25.51848981 26.26695120 1.72915116 -0.00301185 0.01040381 -0.00160784
C 28.53214513 23.50571778 3.05747850 0.00371054 -0.00463040 -0.00580702
C 25.53765870 26.25069841 6.45065732 0.00464323 0.00461769 0.00454855
C 28.71676171 23.13507692 7.90010503 0.00155940 0.00516559 -0.00350691
C 25.65995255 26.31051534 11.41199374 -0.00484865 0.00431879 -0.00059628
C 28.74613408 23.12351431 12.65754387 0.00059009 0.00683798 0.00151219
C 25.72964040 26.28300374 16.08653604 -0.00506578 -0.00099558 -0.00073542
C 28.69062286 23.14981227 17.29177118 0.00137858 0.00105468 0.00207869
C 25.59226660 26.14182573 20.80114136 0.00205638 -0.00045855 -0.00192663
C 28.60614369 23.52917332 22.16529054 -0.00686169 -0.00810838 0.00107999
N 0.06897975 4.31711115 1.06824666 -0.00181677 -0.00038296 -0.00108723
N 3.23262125 5.25030471 3.81382930 -0.00071746 0.00287458 -0.00481932
N 5.30827641 2.31930242 1.06139267 0.00204705 0.00661476 -0.00393502
N 1.95457634 1.40827770 3.92655848 -0.00139069 -0.00157240 -0.00170967
N 0.05113379 4.52486111 5.59580721 0.00153794 -0.00067688 -0.00037420
N 3.94306964 5.25761587 8.48727027 0.00634984 -0.00435984 -0.00427387
N 5.69315791 2.37384975 5.73317073 0.00108259 -0.00219718 -0.00116703
N 1.63402199 1.27171121 8.72168334 -0.00294899 -0.00016865 -0.00207580
N 0.67900985 4.26857965 10.54702552 -0.00137906 -0.00148234 -0.00388437
N 3.80303708 5.52339190 13.47817501 -0.00463196 -0.00453770 -0.00543135
N 5.47999163 2.20076768 10.63055670 0.00084454 0.00128732 -0.00240445
N 1.86013971 1.55639627 13.45120971 -0.00497521 -0.00094951 -0.00069166
N 0.42065700 4.50696944 15.60512015 0.00323571 0.00369207 -0.00879355
N 3.39104431 5.28829524 18.32595382 -0.00229343 0.00321762 0.00183027
N 5.29391558 2.29217926 15.14275461 0.00268046 0.00668929 -0.00208318
N 1.32995381 0.92615152 18.16192242 -0.00649776 -0.00358556 -0.00009988
N 0.06791872 4.37774622 20.05280995 0.00106515 -0.00838284 0.00394817
N 3.75147108 5.04201501 22.78221892 0.00432577 -0.00035417 0.00311420
N 5.29107664 2.60575695 20.19410558 -0.00169969 -0.00365366 0.00427041
N 1.42151010 1.12235073 22.82588821 0.00354873 0.00586149 -0.00462654
N 0.52534878 10.03676643 0.65816832 0.00124826 0.00245595 0.00156063
N 4.07253957 10.66582394 3.70165061 -0.00543166 -0.00096651 0.00337740
N 5.65480311 8.12720496 0.84367345 -0.00378571 -0.00153626 -0.00025564
N 2.19257629 7.28107666 3.77611403 -0.00771491 -0.00230567 -0.00064896
N 0.66324201 10.00724096 5.83157745 0.00280488 -0.00425881 0.01064227
N 3.93496305 10.89864869 8.64569099 0.00169595 0.00281577 0.00006130
N 5.64197417 7.85130726 5.55304060 0.00062872 0.00539583 0.00102195
N 2.41508816 6.92456888 8.51151977 -0.00319491 0.00068633 0.00068237
N 0.68374380 10.11049361 10.59665911 -0.00047173 -0.00424509 0.00017624
N 4.11817162 10.90547941 13.14447234 0.00382077 0.00326588 -0.00407011
N 5.82396927 7.86860272 10.40064166 0.00526979 0.00029509 0.00007573
N 2.40828463 7.32760690 12.98218915 0.00040191 -0.00170849 -0.00213416
N 0.45711301 10.38554989 15.41986874 0.00660556 0.00332844 0.00474136
N 3.88771920 11.04156342 18.08279504 -0.00156227 0.00025176 0.00775801
N 5.65935989 7.64739055 15.67257072 0.00155594 0.00606121 0.00301930
N 2.24518947 7.34064493 18.21657967 0.00156471 0.00398422 -0.00185258
N 0.27982524 10.13689935 19.82094559 -0.00012057 0.00427088 0.00537775
N 3.74389820 10.79629945 22.73252372 -0.00671577 0.00102920 -0.00004685
N 5.55925177 8.00400043 20.10163556 0.00531765 0.00226867 -0.00106751
N 2.41283709 6.99169063 22.83492238 0.00130713 0.00571456 -0.00151977
N 0.67803330 15.65757928 0.97027495 -0.00553711 -0.00336190 0.00684523
N 4.85964358 16.97551395 3.65397939 -0.00224290 0.00708216 -0.00755839
N 6.12739314 13.55503121 0.84835543 -0.00397238 -0.00587505 -0.00250036
N 3.06569443 12.73587082 3.67069067 -0.00266098 -0.00194345 -0.00139859
N 1.13865304 15.47974577 5.63058311 0.00225270 0.00398038 0.00752725
N 4.14648751 16.48247391 8.60131521 0.00405929 0.00015208 -0.00057173
N 6.18904145 13.44515371 5.66416877 0.00086913 -0.00090277 -0.00469908
N 2.84953610 12.90437566 8.52290394 -0.00069343 0.00451604 0.00133533
N 0.90498243 15.64088889 10.63182130 0.00690021 0.00230501 -0.00073028
N 4.56319064 16.78975213 13.41826917 -0.00378976 -0.00368714 0.00062144
N 5.84175027 13.68760660 10.62349089 -0.00327488 -0.00354980 -0.00652537
N 2.87828849 12.88329915 13.34348430 -0.00288365 -0.00136907 0.00155718
N 0.81336961 15.56209218 15.23448550 0.00546955 -0.00205680 -0.00252324
N 4.47250980 16.52294749 18.10844754 0.00372766 -0.00460734 -0.00588770
N 6.14846285 13.60179222 15.24071430 -0.00016277 0.00316455 0.00506603
N 2.52882788 12.87589059 17.99354108 0.00615372 -0.00475048 -0.00048053
N 0.57056909 15.73593695 20.01765207 -0.00148131 0.00211709 0.00000002
N 4.32011777 16.35622278 22.90510890 0.00470285 0.00233651 0.00185266
N 5.97119424 13.54539414 19.90603161 -0.00016552 0.00831146 0.00563380
N 2.66923050 12.85825297 22.74945789 0.00009027 0.00096665 0.00410939
N 1.40373130 21.31515194 1.13855814 -0.00557194 0.00450814 -0.00102181
N 3.77191632 23.07096540 4.02308080 -0.00074011 -0.00430133 -0.00413400
N 5.40971739 20.03389069 0.91995818 -0.00414386 0.00493216 -0.00031058
N 3.05226166 18.50899014 3.71260551 0.00088856 -0.00220115 0.00592812
N 1.60981794 20.85501143 6.00587372 -0.00273916 -0.00469947 -0.00293042
N 4.19763303 23.30544326 8.57363923 -0.00247241 0.00646092 -0.00579054
N 5.53443303 20.24172009 5.81360284 -0.00009494 0.00063593 0.00177953
N 2.86419782 18.44456697 8.62866259 0.00201750 -0.00013984 0.00449783
N 1.10066401 21.40630161 10.55062603 -0.00319250 -0.00066143 -0.00838714
N 4.22762740 23.55068921 13.21777664 0.00314576 -0.00273028 -0.00174101
N 5.66694080 20.47576531 10.51626814 -0.00013144 0.00731320 -0.00211933
N 2.92430478 18.33206925 13.27435040 0.00228836 0.00377943 -0.00586601
N 1.33889918 21.30064497 15.12579380 -0.00128068 0.00125700 -0.00416513
N 4.32409946 23.62818723 18.20407661 -0.00292999 0.00421458 -0.00694448
N 5.49206773 20.30631313 15.12093476 -0.00484354 0.00014226 0.00500282
N 2.81268056 18.06894627 18.12157302 -0.00602566 -0.00206094 -0.00100194
N 1.70541324 21.01805447 20.22668847 0.00520833 0.00043111 0.00014414
N 4.32869460 23.23586139 22.87472765 0.00417586 0.00094400 -0.00023804
N 5.53156805 20.21237476 19.89995384 -0.00171603 -0.00496838 0.00499863
N 2.49767877 17.77262151 22.74352483 0.00117593 0.00542483 0.00207533
N 0.63969277 27.61090982 1.20211401 -0.00012497 -0.00367429 -0.00757825
N 3.50049809 29.68058768 3.65122717 -0.00101421 -0.00376856 0.00316821
N 4.74587385 26.71563588 1.10773333 0.00273734 -0.00894307 -0.00732542
N 2.05458926 24.48245180 3.82407211 0.00434315 -0.00135670 0.00427343
N 0.76627209 27.46678759 5.98570253 0.00483271 0.00331759 0.00067404
N 3.48326734 29.87514768 8.53405592 -0.00036545 0.00570953 0.00046200
N 4.97682222 26.72532054 5.77542246 -0.00373102 -0.00072459 -0.00339302
N 2.28253120 24.45650410 8.59401698 -0.00267197 0.00079776 0.00633557
N 0.83904380 27.87660092 10.70237242 -0.00024872 0.00186107 0.00066464
N 3.41375042 29.75720238 13.53099314 0.00186382 -0.00204835 0.00137378
N 4.96332555 26.75812871 10.71927465 0.00258915 0.00500149 0.00111702
N 2.20033365 24.66572916 13.31519707 -0.00624727 -0.00114467 -0.00233343
N 0.80184988 27.80313739 15.67190376 -0.00046862 -0.00574045 0.00816467
N 3.07539521 29.35310093 18.14314722 0.00383242 0.00607722 0.00535791
N 4.56170965 26.74624802 15.42052898 -0.00147130 -0.00261059 -0.00342666
N 2.35569572 24.80138341 18.16013228 -0.00259336 -0.00207713 -0.00233821
N 0.46713232 27.78042229 20.04925904 -0.00165697 -0.00066804 0.00316247
N 3.28243384 29.86747252 23.02610350 -0.00331603 -0.00277057 -0.00265146
N 5.10621048 26.72994860 20.27716179 -0.00353413 -0.00530973 -0.00006414
N 2.10947605 23.95961837 22.84703068 0.00048232 0.00113554 0.00312972
N 6.85487506 4.01919383 1.12132950 0.00065136 -0.00805833 -0.00250717
N 10.42593492 5.00168874 3.77872535 -0.00167588 -0.00064011 0.00316368
N 12.14608012 1.93035173 1.06411438 0.00238067 0.00612152 0.00371335
N 8.83188306 1.23185492 3.65980736 -0.00057980 0.00060245 -0.00094240
N 7.12046226 4.15057157 5.81106502 -0.00661354 0.01016970 0.00058960
N 10.05189127 4.88572970 8.35001646 -0.00099232 0.00068122 0.00024088
N 11.84036267 1.83442136 5.89964567 -0.00583724 -0.00397047 0.00544962
N 8.64101307 1.10728053 8.56135211 -0.00007120 0.00045256 -0.00020602
N 6.91058549 3.99042578 10.74884200 0.00501634 -0.00198958 0.00363001
N 10.32116752 5.03662983 13.33597006 0.00110551 0.00423004 0.00174132
N 11.80332523 2.07088810 10.48573736 0.00189815 -0.00234860 0.00359285
N 8.55586357 1.08937591 13.34874280 0.00078889 0.00311004 -0.00050923
N 6.99993821 3.80804547 15.40651031 0.00258419 -0.00878862 0.00224625
N 10.10143660 4.57295095 18.09472177 -0.00247746 -0.00102634 0.00013889
N 11.80660318 1.67210545 15.27458672 -0.00411571 -0.00321293 -0.00669614
N 8.58741409 0.95928495 18.23348797 0.00102563 -0.00105020 0.00204662
N 6.74196302 4.29691181 20.02156207 -0.00012364 -0.00046127 -0.00172066
N 10.09930891 4.91599872 22.71143729 0.00324488 -0.00314793 0.00423897
N 11.85933365 1.78233720 20.15114337 0.00211410 0.00397369 -0.00240484
N 8.76159964 1.10069265 23.13484002 0.00195844 -0.00177761 -0.00311033
N 7.19281321 9.80227705 0.95974519 0.00203477 -0.00248702 0.00543809
N 10.93895349 10.66002352 3.90147417 -0.00960528 -0.00161154 0.00280422
N 12.38533454 7.48473185 1.14751916 0.00090313 -0.00224173 -0.00168757
N 8.97397087 6.93651604 3.76998638 0.00123660 0.00226010 -0.00130393
N 7.16724719 9.57945092 5.53043049 -0.00534517 -0.00264339 -0.00533084
N 11.11137143 10.91437973 8.51980932 0.00283299 -0.00607199 0.00007463
N 12.45961276 7.46802202 5.91859650 -0.00028436 0.00693552 0.00944959
N 8.96206315 6.92854077 8.45740403 0.00516767 -0.00195351 0.00228445
N 7.00177338 9.83874783 10.67852001 0.00154898 -0.00590252 -0.00305109
N 10.97549146 10.69968145 13.26954349 -0.00012098 -0.00529069 -0.00163832
N 12.60170854 7.68637299 10.78409970 0.00755443 -0.00717603 0.00095485
N 9.05695053 6.86776710 13.46370468 0.00156402 0.00609637 -0.00347131
N 7.14169944 9.32200605 15.39275043 0.00221628 -0.00263903 -0.00581618
N 10.38541344 10.37475209 18.24658952 -0.00230682 0.00328598 0.00101378
N 12.51983924 7.76216239 15.36614026 0.00132777 0.00232954 -0.00092631
N 8.97754673 6.56426172 17.90174363 -0.00363821 0.00391278 0.00539077
N 6.96219474 9.80920657 20.12744217 0.00179213 0.00481036 -0.00413099
N 10.75598480 10.56776076 22.78633234 -0.00118179 0.00402355 0.00051093
N 12.38909581 7.26382002 20.08739142 -0.00042467 0.00017536 -0.00386277
N 8.95174435 6.88859485 22.80494895 -0.00092039 -0.00280319 -0.00090216
N 7.60828106 15.29702112 0.94289367 -0.00079820 -0.00117688 0.00316162
N 10.30988394 17.36996534 3.68406123 -0.00705518 -0.00138643 0.00465995
N 11.80678632 14.36858321 0.87439516 -0.00029454 -0.00258590 -0.00295027
N 9.16414471 12.18958798 3.64913461 -0.00662510 -0.00053506 -0.00167899
N 7.78727058 15.17242982 5.67898379 -0.00180638 0.00273515 0.00254707
N 10.41109757 17.70412371 8.43145298 0.00052020 -0.00072781 0.00174134
N 11.65141469 14.17476504 5.63026601 0.00229193 -0.00175301 -0.00149989
N 9.25491344 12.25695403 8.53240286 -0.00378906 0.00147224 -0.00076177
N 7.69670483 15.01211607 10.33563673 0.00066757 -0.00139647 -0.00036083
N 10.32816319 17.25163089 13.26400281 -0.00065435 -0.00277568 0.00613215
N 11.80125907 14.19953931 10.48692251 0.00026635 -0.00096375 -0.00530321
N 9.22032186 12.20896491 13.17778355 0.00091046 -0.00290856 -0.00390553
N 7.83000503 15.14718154 14.98550913 -0.00127176 0.00209310 -0.00241090
N 10.11798438 17.35164476 18.27233151 0.00352126 0.00444807 -0.00026929
N 11.92625809 13.78985974 15.35701701 -0.00246045 -0.00040743 0.01141429
N 9.10126793 12.28580140 18.01816600 0.00030240 0.00017880 -0.00242789
N 7.69105890 15.06985450 19.88921105 0.00270488 -0.00077569 -0.00182924
N 10.52022487 17.72638214 22.77405951 -0.00296382 -0.00484911 0.00608528
N 11.79657021 14.29404838 19.82983081 0.00559809 0.00669899 0.00634964
N 9.11237065 12.30933237 22.78393443 0.00237242 0.00218134 0.00349915
N 7.07050574 21.62341947 1.11265717 0.00163777 -0.00138501 0.00576069
N 9.52779943 23.69907001 3.64464892 0.00845372 0.00071325 0.00489438
N 11.13054386 20.99647757 0.92448209 0.01170566 0.00496466 -0.00531650
N 8.37015260 18.65291093 3.75479777 0.00188256 -0.00372231 -0.00024627
N 6.96784738 22.07233834 5.85904893 -0.00232287 0.00094221 -0.00414273