2000
Time=90000.00000003 pbc="T T T" Lattice="31.05081582 0.00000000 0.00000000 0.00000000 30.03946081 0.00000000 0.00000000 0.00000000 23.66031110" energy=-12041.21884584 virial="-51.57367705 -22.05856723 4.94405860 -22.05856723 -53.18651789 22.52125722 4.94405860 22.52125722 -49.73886607" stress="-0.00007716 -0.00100460 0.00017172 -0.00100460 -0.00018739 0.00097968 0.00017172 0.00097968 0.00055143" Properties=species:S:1:pos:R:3:vel:R:3
C 30.21814240 3.73275544 1.85705255 -0.00896851 -0.00042578 0.00397584
C 2.59491705 0.78651096 2.94960218 -0.00555857 -0.00042871 -0.00428142
C 30.34228715 3.39523521 6.57510138 -0.00059831 -0.00016799 0.00033686
C 2.51780108 0.83695555 7.81147479 0.00137435 0.00524359 -0.00773007
C 30.44240449 3.44089084 11.24385581 0.00048892 -0.01166379 -0.01115522
C 2.38430367 0.36109097 12.51328285 -0.00325419 0.00592433 -0.00563554
C 30.48832982 3.51702355 15.95276835 0.00418394 -0.00076474 -0.00447760
C 2.45347074 0.33325703 17.10198827 0.00289433 0.00381171 -0.00249110
C 30.58605991 3.55225077 20.78347165 -0.00567980 0.00003802 -0.00801684
C 2.17212152 0.81337139 21.92191780 -0.00275457 -0.00866758 0.00232384
C 0.03203320 9.39102061 1.72176111 0.00129479 -0.00533765 0.00415062
C 3.08620711 6.16961784 3.08817926 0.00215756 0.00473300 -0.00517239
C 30.95674584 9.20440241 6.37145867 -0.00360941 -0.00165891 -0.00152742
C 2.92717617 6.06538964 7.85647947 0.00300349 -0.00020334 0.00380666
C 30.99883106 9.20926197 11.09126274 0.00551339 -0.00362866 -0.00558833
C 2.83088590 6.00347075 12.60512765 0.00335052 0.00081828 0.00347357
C 30.88344138 8.87689661 15.92146727 -0.00470389 0.00199291 0.00074560
C 2.70070260 6.43038123 17.26522981 0.00238993 0.00540033 0.00572536
C 30.91342281 9.18044506 20.51256109 -0.00208118 0.00140197 0.00036015
C 2.81070376 6.37060377 21.97203041 -0.00189738 -0.00502711 0.00299781
C 0.48029980 14.73192992 1.74100884 -0.00064641 -0.00159819 -0.00110399
C 3.20121876 11.71082951 2.94502808 -0.00230584 0.00044283 0.00256611
C 31.01109583 14.59397826 6.33615357 -0.00060292 0.00364142 -0.00218641
C 3.44186664 11.99606366 7.61577830 0.00088336 -0.00169165 0.00527766
C 0.13531612 14.57306955 10.99533525 -0.00067418 -0.00606405 0.00664748
C 3.26954073 11.44688593 12.49115416 -0.00447775 0.00207332 -0.00343649
C 0.12303515 14.71580950 15.71584481 -0.00127378 -0.00134099 0.00248191
C 3.50118549 11.81812814 17.04590528 0.00020348 0.00236436 0.00402989
C 31.00690297 14.98315652 20.56282810 0.00188445 0.00307802 -0.00184738
C 3.19285685 11.95186240 21.94582418 -0.00606382 -0.00192863 0.00366354
C 0.69217762 20.46524490 1.72017412 0.00196245 0.00050709 -0.00113839
C 3.83688124 17.38927381 2.94352841 0.00332514 -0.00230817 -0.00051656
C 0.63871755 20.54146020 6.48095058 -0.00239154 0.00208089 -0.00009108
C 3.58561057 17.56639469 7.67028325 0.00085232 -0.00315534 -0.00049351
C 0.53605479 20.14602613 11.05008136 0.00343240 -0.00799698 -0.00756831
C 3.56745475 17.04882903 12.38222786 0.00846882 -0.00008170 0.00602336
C 0.56423233 20.54617469 15.93569997 0.00357791 0.00012661 0.00102779
C 3.18966697 17.43644613 17.21585743 0.00059003 -0.00113047 -0.00776825
C 0.91362046 20.52379495 20.86644023 0.00590407 -0.00201782 -0.00455757
C 3.61635340 17.78948805 21.97379993 0.00998961 -0.00201314 0.00121527
C 30.98724475 27.13987024 2.05131960 0.00441025 -0.00058204 0.00731810
C 3.15419919 24.15188958 3.24065893 -0.00626698 0.00200909 -0.00333648
C 0.02633054 27.28970276 6.70787172 -0.00538327 -0.00174028 -0.00116063
C 2.99226308 24.21586431 7.91420275 -0.00270357 -0.00015703 0.00014662
C 30.88508540 27.19045042 11.28663828 0.00331887 -0.00048845 -0.00025671
C 2.79716656 23.89017653 12.52862466 0.00712460 0.00389417 -0.00449718
C 30.97820033 26.92974370 16.02219360 0.00317353 0.00409161 -0.00082743
C 2.98155634 24.17815362 17.20950423 -0.00473699 0.00703428 -0.00219966
C 30.95336819 27.00852138 20.91150251 0.00073719 -0.00495064 -0.00032740
C 3.13020726 24.29260548 22.06126013 -0.00518828 -0.00325356 -0.00066393
C 5.80971029 3.32294900 1.77480858 -0.00234298 -0.00788099 -0.00871178
C 9.30589358 0.20211764 3.05740833 -0.00034855 0.00386790 -0.00254743
C 6.12831073 3.50028115 6.68579304 -0.00264048 0.00479734 0.00163353
C 9.06886129 29.98059006 7.75868362 0.00375494 0.01160792 0.00043447
C 6.00259196 2.94302759 11.15820716 0.00027161 0.00366279 0.00078484
C 9.19071961 0.13273066 12.64251681 0.00031426 0.00660872 0.00313523
C 5.94138957 3.11660778 15.82895407 0.00102038 0.00198152 -0.00017204
C 9.11619347 0.27308997 17.36294183 0.00477073 0.00145303 0.00519321
C 5.45891971 3.50060968 20.61997861 0.00184149 0.00167163 0.00021728
C 9.22150772 0.49497859 22.07693879 -0.00411469 0.00195708 -0.00179629
C 6.57018695 8.92644373 1.51966440 0.00728583 -0.00375311 -0.00663802
C 9.59640721 5.99863429 3.23729401 0.00231226 0.00656324 -0.00015615
C 6.37402063 8.75164536 6.33152597 0.00189819 0.00069256 0.00102961
C 9.58796376 5.86505487 7.78801216 0.00230634 0.00123421 -0.00479265
C 6.56250104 8.50559137 11.20491095 -0.00780851 0.00077633 -0.00584541
C 9.61432815 5.91258089 12.25673391 -0.00038352 -0.00007964 -0.00349054
C 6.43405207 8.56388077 15.91661791 -0.01013527 0.00381431 -0.00193811
C 9.76722110 5.58722244 17.17758351 0.00673954 -0.00261465 -0.00330683
C 6.41879660 8.84377269 20.66652583 0.00613960 0.00637041 -0.00959881
C 9.38726991 5.82502532 21.97451862 -0.00206247 -0.00023652 -0.00175148
C 6.64566449 14.30665779 1.64546194 -0.00262774 0.00081318 0.00629762
C 10.15595482 11.53566424 2.91903264 0.00211102 0.00367957 -0.00823075
C 6.99025355 14.53894301 6.45624064 -0.00177585 0.00293898 0.00170820
C 9.88586542 11.35216425 7.72152299 0.00080011 -0.00131168 -0.00055499
C 7.05097095 14.42487341 11.04668966 -0.00043400 -0.00221347 -0.00355592
C 10.11595581 11.48562219 12.49097060 0.00555725 0.00282833 -0.00206049
C 6.97395103 14.51646939 15.80885798 0.00094314 -0.00308950 0.00228416
C 10.07537836 11.47738531 17.14607190 -0.00355696 0.00152681 -0.00474180
C 6.80045341 14.32392081 20.64068825 -0.00373018 0.00688315 -0.00279960
C 10.13153964 11.55186765 21.89838990 -0.00100650 0.00260552 0.00421625
C 6.17457720 21.06507876 1.75752977 0.00335174 0.00210816 0.00383632
C 9.41452220 18.28058187 3.24521993 -0.00486659 0.00308431 -0.00666337
C 6.18916844 21.10661852 6.46931097 -0.00293733 -0.00206172 -0.00601581
C 9.32087684 17.97648711 7.89570750 0.00334234 0.00310680 0.00141874
C 6.44477631 20.92959689 11.27430010 0.00354077 0.00244807 -0.00222935
C 9.41103764 18.04665567 12.54429308 -0.00005326 -0.00100867 -0.00007191
C 5.89764939 20.86338385 16.01932464 -0.00496543 -0.00257082 0.00349368
C 9.06396921 18.00485598 17.30008062 0.00403714 -0.00105463 0.00068845
C 6.30813892 20.90564065 20.65961139 -0.00382917 -0.00203863 0.00182178
C 9.16976252 17.63207348 22.02267647 0.00138980 -0.00672148 0.00008613
C 5.52235257 27.77766404 1.69047806 -0.00047226 -0.00759531 -0.00487187
C 8.94343035 24.83571684 3.02622586 0.00043209 0.00069723 -0.00004207
C 5.51744325 27.63885612 6.50976534 -0.00337854 -0.00318715 -0.00555683
C 8.53429801 24.74123364 7.78454556 -0.00246466 -0.00265117 -0.00008772
C 5.59705994 27.37292185 11.19863858 0.00626395 0.00223015 0.00594676
C 8.45926795 24.27294733 12.49093664 -0.00331761 -0.00403110 -0.00775326
C 5.78119632 27.56061123 15.82250260 -0.01013846 -0.00239076 0.00818888
C 8.59157550 24.31252463 17.32844373 -0.01057157 0.00734529 -0.00107467
C 5.85654682 27.65453742 20.66970217 0.00403668 0.00371746 0.00020620
C 8.98764686 24.86072312 21.98907688 -0.00387635 0.00257242 -0.00363345
C 12.65668315 2.91965763 1.79740449 0.00512624 -0.00464105 0.00369802
C 15.65942682 30.02367070 2.96403915 0.00459396 0.00384333 -0.00445941
C 12.58692926 3.19711401 6.59831513 -0.00676124 0.00289466 0.00330479
C 15.80721709 29.86446383 7.73539919 0.00360123 -0.00080204 0.00039399
C 12.79827221 2.61775533 11.20820669 -0.00072300 0.00084271 0.00466328
C 15.64557208 29.86313010 12.42511872 0.00268958 -0.00011034 0.00399440
C 12.69874053 2.83931409 15.96375455 -0.00913056 0.00196155 0.00008959
C 15.84413691 29.88857697 17.11275860 -0.00581856 -0.00025910 -0.00708952
C 12.57624236 3.07405300 20.72898836 -0.00149696 0.00192902 -0.00180295
C 15.68026240 0.07916006 22.01715024 0.00240433 0.00229447 -0.00032190
C 13.09338361 8.46142835 1.67130669 -0.00144852 -0.00089108 -0.00477387
C 16.39372030 5.50304639 2.96746020 0.00129629 0.00104536 0.00216994
C 12.88748616 8.33113040 6.37464377 0.00764417 0.00136388 0.00386632
C 15.99074885 5.28882177 7.88899802 -0.00144887 0.00092573 0.00485340
C 13.35567974 8.56565060 11.04909601 0.00204915 -0.00312371 -0.01284312
C 15.98761665 5.22337761 12.59368551 0.00197645 -0.00110191 0.00791428
C 13.02029313 8.49206528 15.73630060 0.00775237 -0.00610174 0.00063533
C 16.20462308 5.63747574 17.13636769 -0.00080363 0.00465358 0.00349527
C 12.84666832 8.31018510 20.57196616 0.00545928 0.00705481 0.00742779
C 16.11715296 5.55430370 21.88175961 -0.00225241 -0.00038224 0.00139040
C 12.36621106 15.22759421 1.75909740 0.00355477 -0.00160101 -0.00048546
C 15.46729958 11.73378170 2.85819937 0.00034324 -0.00174357 0.00101492
C 12.63925040 14.87567783 6.31773734 -0.00129670 0.00069789 0.00082902
C 15.55303866 11.79004722 7.62052356 -0.00057473 -0.00037896 0.00011118
C 12.34243842 15.01845434 11.20514332 -0.00359478 -0.00087338 0.00095422
C 15.72062813 11.90087551 12.34811997 0.00383999 -0.00435490 -0.00364644
C 12.57357668 15.31735378 15.83979276 0.00444538 -0.00045046 -0.00587521
C 15.63794965 12.08451709 17.21864283 0.00089968 0.00003019 -0.00063074
C 12.53196914 14.87624918 20.67787546 0.00629932 -0.00119064 -0.01022322
C 15.59445387 12.06180904 21.87591331 -0.00060696 -0.00420431 0.00618135
C 11.90573843 21.59851540 1.46648979 0.00244062 -0.00284799 0.00610763
C 15.16337588 18.51707204 2.79714242 0.00090699 0.00247573 0.00166240
C 11.79782061 21.70128266 6.39875269 0.00086664 -0.00639084 0.00412853
C 15.20929936 18.68851802 7.54766232 0.00329499 -0.00870807 0.00294262
C 11.91359943 21.64868789 11.24567692 -0.00597907 -0.00360642 0.00188029
C 14.80754760 18.56206446 12.42506957 0.00398466 0.00928335 -0.00446544
C 11.82157325 21.67616885 15.87304341 -0.00416093 -0.00010770 -0.00135137
C 15.04535374 18.56100622 17.05170912 -0.00584943 -0.00045217 0.01171368
C 11.65221313 21.65469448 20.54897323 -0.00610002 0.00127835 0.00048215
C 15.03511061 18.65979169 21.93018482 -0.00247122 -0.00709246 -0.00042548
C 12.28207394 27.22997193 1.73108041 -0.00202609 -0.01145644 -0.00199681
C 15.20078791 24.04934163 2.98184567 -0.00633508 0.00113237 -0.00333021
C 12.16610605 27.21213261 6.52408638 -0.00174079 -0.00290847 0.00309735
C 15.52036476 24.15544791 7.57740916 0.00160276 -0.00311107 0.00292534
C 12.43104917 27.19714992 11.07244983 -0.00024932 -0.00546204 0.00148755
C 15.58022624 24.27709168 12.36626281 0.00937140 -0.00319941 -0.00540242
C 12.14876556 27.34704492 15.91551677 -0.00057013 0.00258429 -0.00243826
C 15.31908129 24.24770340 17.20799562 0.00506784 -0.00459338 -0.00941981
C 12.27173852 27.39131969 20.62677805 0.00161436 0.00417459 -0.00110194
C 15.35483936 24.39997684 22.05103302 -0.00225140 0.00350674 -0.00303440
C 19.18732502 2.43301805 1.84766781 0.00738591 0.00793377 0.00347281
C 22.23035780 29.28667862 2.87805084 -0.00286277 -0.00421913 -0.00253025
C 19.27920678 2.39145914 6.46491528 -0.00629452 -0.00421405 0.00302502
C 22.08097735 29.74171552 7.93682022 0.00096137 -0.00330945 -0.00587132
C 19.37854819 2.27388122 11.32768743 0.00037442 -0.00189540 -0.00066123
C 22.63396795 29.35594081 12.59677945 -0.00143945 0.00290995 -0.00078448
C 19.32480184 2.48919783 16.03647145 -0.00133205 -0.00057143 0.00396208
C 22.20150908 29.64740016 17.20183966 0.00162937 0.00112936 -0.00558055
C 19.02700407 2.48132701 20.58316073 0.00178573 0.01136861 0.00414019
C 22.21421783 29.45416541 21.84885715 -0.00613862 -0.00317003 -0.00041226
C 18.61940880 9.02018012 1.68364162 0.00432130 -0.00030388 -0.00561661
C 21.80408780 6.10342288 2.99446624 0.00222036 -0.00194720 -0.00202615
C 18.74442141 8.86595198 6.44091116 0.00004748 0.00205013 0.00852968
C 21.74273845 6.09789730 7.76687358 0.00775176 0.00389602 -0.00473859
C 18.86512170 8.93673235 10.97472580 -0.00385163 -0.00459509 0.00575845
C 21.81059737 6.06106689 12.57839360 0.00205011 -0.01523431 0.00503590
C 18.87919533 9.32903275 15.95139750 0.00367046 0.00180174 0.00255504
C 21.74395263 6.39488399 17.17951790 -0.00444819 -0.00119091 -0.00158720
C 18.37139144 9.01805421 20.80723717 -0.00106392 -0.00403488 0.00499208
C 21.55455985 5.89305819 21.82040633 0.00426482 -0.00089951 0.00520218
C 18.12605510 15.28316014 1.53195325 0.00043408 0.00129168 -0.00172095
C 21.38914006 12.53065680 2.96109803 -0.00006511 0.00625243 0.00506318
C 18.04422797 15.61669353 6.40044652 -0.00257879 0.00605127 0.00065344
C 21.31302512 12.62910788 7.62368096 0.00589337 -0.00087542 0.00292175
C 17.90865166 15.50005780 11.10580327 -0.01148992 -0.00568566 0.00263800
C 21.00477552 12.72206017 12.22684367 0.00014211 0.00214362 -0.00337250
C 17.83440742 15.74227112 15.86951871 0.00066069 -0.00338134 -0.00063042
C 21.00687801 12.62015208 16.98935607 -0.00815486 -0.00576704 -0.00115786
C 17.93362187 15.62724286 20.58647059 0.00163088 -0.00184893 -0.00393398
C 21.37420541 12.63089220 21.86638334 0.00561287 0.00243576 0.00064088
C 18.70509847 21.27587101 1.61347486 -0.00401344 0.00087993 0.00715105
C 21.40987587 18.27888624 2.90678234 -0.00669792 0.00453308 -0.00711578
C 18.51722407 21.43599612 6.43044835 0.00290356 -0.00080295 0.00279747
C 21.28873616 18.02671862 7.61881348 0.00275125 -0.00539777 -0.00122153
C 18.42811194 21.08225950 11.08719488 0.00293362 0.00320335 -0.00718046
C 21.44874907 17.92925869 12.40506003 0.00191172 0.00068812 -0.00305783
C 18.39959454 21.25069659 15.88424107 0.00621360 0.00272779 -0.00318109
C 21.30302142 17.86284713 17.09327250 0.00487596 0.00020552 0.00344222
C 18.29957014 21.31644880 20.51259703 0.00462600 0.00167943 0.00191273
C 21.51621094 18.20962761 21.85693051 0.00049263 -0.00603871 -0.00255594
C 18.68542659 26.82128694 1.60880053 0.00424490 0.00049331 0.00168964
C 21.86938638 23.64864895 3.10559150 0.00630466 0.00550351 0.00382104
C 18.85958499 26.83162553 6.46844375 -0.00112625 0.00715669 0.00021786
C 21.92526667 23.92687979 7.87724774 0.00137089 -0.00175813 0.00555677
C 18.90901670 26.85144458 11.17302248 0.00358805 0.00010032 -0.00239276
C 21.86661338 24.01844567 12.60127183 0.00102976 -0.00125588 -0.00092439
C 18.62245088 26.81891125 15.82480905 -0.00742365 0.00011840 -0.00162230
C 21.83159766 23.63968319 17.19344077 0.00184856 0.00561620 0.00245984
C 18.86476340 26.88198914 20.65083853 -0.00250364 -0.00035822 -0.00795926
C 21.82672219 23.72952463 21.81966758 0.00213766 -0.00391922 0.00234639
C 24.68094539 2.97809897 1.85066515 -0.00207643 -0.00470281 0.00249650
C 27.74321731 0.21327521 3.08219051 -0.00506501 -0.00127400 -0.00497131
C 24.82046151 3.25998646 6.39390930 0.00124330 -0.00218936 -0.00042576
C 27.89042197 0.02533659 7.83052568 -0.00087909 -0.00116761 0.00414805
C 24.75476461 3.35692903 11.26201795 0.01203830 -0.00292020 0.00528106
C 27.69902260 30.01598707 12.41391143 -0.00027927 0.00464001 -0.00146608
C 24.88438160 2.87981982 16.07190640 0.00147335 -0.00323188 -0.00872604
C 27.88843554 29.86617040 17.53076295 0.00263723 -0.00202515 0.00030908
C 24.84328100 2.81484826 20.66858263 -0.00107531 0.00456917 0.00063557
C 27.94502931 29.60043028 22.04948900 0.00031433 -0.00313741 0.00191683
C 24.05307394 9.54246449 1.69400089 0.00306470 -0.00532686 -0.00775343
C 27.65953349 6.44355670 2.94128915 0.00107285 -0.00185026 -0.00034783
C 24.21425029 9.38164105 6.35574924 0.00586433 -0.00087388 -0.00149489
C 27.38602868 6.54069903 7.67655366 0.00465522 -0.00085358 0.00597512
C 24.48303390 9.63580054 11.01055127 0.00988068 -0.00498501 -0.00411348
C 27.28787463 6.73081608 12.26060308 -0.00387921 0.00005049 0.00628576
C 24.20390835 9.79718289 15.71862287 0.00840910 0.00254393 -0.00808799
C 27.41160911 6.62210604 17.33531276 -0.00120978 -0.00268108 0.00402245
C 24.11899258 9.60847297 20.87574440 0.00026798 0.00103772 -0.00364961
C 27.29642269 6.34087735 21.98876639 -0.00364433 -0.00691567 -0.00175440
C 24.62795342 15.41331903 1.65261208 -0.00323941 -0.00449078 -0.00169399
C 27.76531502 12.31517843 2.99457186 0.00405853 0.00406244 0.00282196
C 24.77104617 15.19584541 6.39772313 0.00120576 0.00932096 -0.00313075
C 27.72959646 12.35162768 7.69808559 0.00397929 -0.00551491 -0.00157481
C 24.58258499 15.09769186 11.16722328 0.00097445 0.00688351 -0.00186796
C 27.91296957 12.05922657 12.56766971 0.00169898 -0.00317115 0.00570462
C 24.49784581 15.16631673 15.92555317 0.00439489 0.00549868 -0.00321928
C 27.68154102 12.08887990 17.30554315 0.00331302 -0.00485515 -0.00249091
C 24.68810250 15.13800939 20.56334144 0.00153190 -0.00635299 -0.00224639
C 27.79689743 12.31770673 21.93492857 0.00350672 0.00149931 -0.00218883
C 24.98574098 20.75525905 1.63473884 0.00108917 -0.00159812 -0.00512970
C 28.21554488 17.86324606 3.09716612 0.00277044 -0.00257470 0.00753354
C 25.03418809 20.73325383 6.35817280 -0.00004140 -0.00200582 0.00346993
C 28.20220757 17.90753716 7.68522374 0.00059935 -0.00261947 -0.00577224
C 25.07432998 20.64425671 11.11963892 -0.00268418 -0.00094503 -0.00634830
C 28.19344409 17.80681350 12.48974153 -0.00826272 -0.00356152 0.00788027
C 24.80613897 20.83857820 15.83538906 0.00296067 0.00376142 -0.00304852
C 28.08645093 17.71740189 16.94787553 -0.00315315 0.00414514 0.00244824
C 25.02972460 20.85460600 20.73525185 0.00178705 -0.00038244 -0.00590651
C 28.21987090 18.19983067 22.01002807 -0.00078386 0.00580916 0.00490783
C 25.49720289 26.39636215 1.68271575 0.00486679 -0.00808635 0.00432876
C 28.55708823 23.70267593 3.22348670 -0.00950725 -0.00778075 0.00399900
C 25.35472703 26.40266859 6.61919744 -0.00088756 0.00103637 -0.00256253
C 28.66131369 23.65519864 7.86445533 0.00000166 0.00349639 0.00298655
C 25.26297024 26.27471793 11.30076115 0.01336771 0.00110320 -0.00431453
C 28.56852263 23.48594880 12.54494819 0.00756596 0.00055221 0.00270769
C 25.44620610 26.18067173 16.03980682 0.00359756 0.00697537 -0.00540524
C 28.56279928 23.27673546 17.28067382 0.00169391 -0.00306799 0.00338982
C 25.35337558 26.34351088 20.75754653 -0.00264519 0.00239652 0.00100483
C 28.53648873 23.46126538 22.17160247 -0.00036452 -0.00130621 -0.00453938
N 30.90716113 4.61407014 1.05795979 0.00263977 0.00494924 -0.00082852
N 3.66639585 5.35289260 4.01033782 -0.00002805 -0.00116482 0.00049742
N 5.27380136 2.35566994 0.97235149 0.00008035 0.00055157 0.00082714
N 1.49691666 1.12904008 3.65658472 -0.00142784 -0.00161290 -0.00007822
N 0.07556188 4.23805456 5.90144110 -0.00307381 -0.00283270 -0.00428481
N 3.47782675 5.26011642 8.78630496 -0.00518705 0.00444741 0.00068340
N 5.62382209 2.53152128 5.89831188 -0.00100205 0.00153894 -0.00529693
N 1.61193372 1.49642654 8.57438984 0.00082344 0.00093622 0.00099115
N 0.09496061 4.28068360 10.49617861 0.00101135 -0.00000095 0.00276685
N 3.57677724 5.04788699 13.28844405 0.00105349 0.00387809 -0.00419894
N 5.07531541 2.17586264 10.52761271 0.00256707 -0.00593261 -0.00266946
N 1.58251515 1.04395197 13.37707485 -0.00152318 -0.00423148 -0.00602372
N 0.12629187 4.37933767 15.19277776 -0.00466774 -0.00280278 0.00148187
N 3.37986913 5.33302669 17.79715658 -0.00461981 -0.00817964 0.00259812
N 5.40385380 2.09569561 15.14199738 0.00553527 0.00021557 -0.00015895
N 1.72569380 1.29942489 17.73400560 -0.00156956 0.00076544 0.00872534
N 0.39876723 4.39160984 20.06469583 0.00058220 -0.00817688 0.00572464
N 3.11286125 5.36554870 22.86111392 -0.00473497 -0.00088552 -0.00735935
N 4.56348252 2.91701134 19.78706261 -0.00649058 0.00479291 0.00079092
N 1.64614226 1.59949514 22.84407419 -0.00137237 0.00110037 -0.00322988
N 0.73148905 10.25257872 0.91047567 0.00144443 0.00457408 -0.00172048
N 3.96402525 10.78526445 3.53749231 0.00170649 -0.00413519 0.00002366
N 5.72623198 8.17057522 0.80461432 0.00451863 0.00600979 0.00610439
N 2.28747113 7.10329518 3.63981522 -0.00212550 -0.00367104 -0.00014999
N 0.65078918 10.10414092 5.63900516 0.00657564 0.00626756 0.00289462
N 4.05573526 11.01989109 8.28424182 0.00138847 0.00084139 0.00202297
N 5.68729323 7.82534791 5.68500768 -0.00075620 -0.00536939 0.00060515
N 2.16531694 7.09759809 8.33880512 0.00567740 0.00895403 0.00142336
N 0.79843020 9.94255046 10.33785108 0.00415415 -0.00216923 -0.00030956
N 3.97141868 10.47486310 13.08846863 -0.00226659 -0.00057076 -0.00046833
N 5.77832289 7.70708098 10.43439851 -0.00144471 0.01056673 -0.00214299
N 2.26291222 6.92842527 13.31074657 0.00630186 0.00377764 -0.00262983
N 0.59611549 9.77484435 15.27333150 -0.00096190 0.00514235 -0.00078847
N 4.13236905 10.85325894 17.71609787 -0.00275726 -0.00532940 -0.00490513
N 5.69646598 7.73455334 15.11457948 -0.00168029 -0.00055312 0.00863905
N 2.33541384 7.37016280 18.17707783 -0.00137160 0.00036929 0.00745854
N 0.57413989 10.16322209 19.82087127 0.00245544 -0.00029253 0.00241698
N 4.02771230 11.11516553 22.66048572 -0.00305654 0.00055061 -0.00019472
N 5.44277974 8.11091280 20.13217141 -0.00625296 0.00407405 0.00189221
N 2.18512727 7.45381126 22.59892216 -0.00069545 -0.00125216 0.00044531
N 1.22944678 15.67073242 1.06130347 -0.00368412 -0.00521762 0.00133212
N 4.39921410 16.40193402 3.63419513 -0.00422149 0.00124062 0.00324717
N 5.81092041 13.53337953 0.88450791 0.00233570 -0.00296725 0.00324637
N 2.53605179 12.59955276 3.76701930 -0.00886052 -0.00214934 0.00036877
N 0.88587604 15.58978425 5.95019852 -0.00128316 0.00067463 0.00383812
N 4.30193767 16.69068523 8.36683481 -0.00135794 -0.00041936 -0.00743422
N 6.19341676 13.60228028 5.76220655 -0.00120712 -0.00339894 -0.00375070
N 2.86968974 12.93021661 8.42109311 0.00153026 -0.00415550 0.00217540
N 0.94362092 15.43416157 10.37856716 -0.00263885 0.00285504 -0.00186582
N 4.62531160 16.49819084 13.14302708 0.00081955 -0.00801215 -0.00366867
N 6.01490548 13.81806015 10.41912067 0.00261257 0.00323129 -0.00492058
N 2.60094654 12.39052601 13.22561049 -0.00151147 0.00154076 0.00440383
N 0.94699680 15.55939568 14.98676376 -0.00547100 0.00487889 -0.00087025
N 4.05425874 16.64380709 17.94933657 0.00212269 -0.00303023 0.00806128
N 6.13046957 13.70772036 15.05527699 -0.00047308 -0.00317008 -0.00639818
N 2.75901245 12.60643428 17.82394715 0.00888699 -0.00348817 0.00178803
N 0.94313812 15.48968793 19.83639748 -0.00438786 0.00039267 0.00035063
N 4.41378717 16.88944660 22.59440470 -0.00108930 -0.00118169 0.00721587
N 5.82554750 13.52046560 20.05730852 0.00636567 0.00265194 -0.00268177
N 2.63731232 13.02425277 22.60350472 0.00585320 -0.00084520 0.00197367
N 1.51734850 21.37767674 1.07808207 -0.00154684 -0.00074972 -0.00045967
N 4.10211696 23.59495730 4.04799402 0.00039184 -0.00205814 0.00341845
N 5.40896290 20.10707736 1.09027185 0.00391377 0.00208594 0.00036049
N 3.37785861 18.45850532 3.70719333 -0.00282637 -0.00119194 -0.00627261
N 1.62325202 21.33692587 5.87983638 -0.00035420 0.00619650 0.00742240
N 4.04950570 23.63855091 8.54165069 -0.00254368 0.00185147 -0.00341796
N 5.52625123 20.05502611 5.79092420 0.00066493 0.00489148 -0.00077310
N 2.74808626 18.34738060 8.44068787 0.00534715 -0.00027084 -0.00005084
N 1.34838485 21.07365821 10.49714754 -0.00046661 0.00037700 -0.00508087
N 3.67718163 23.13750334 13.32516006 0.00099876 -0.00082295 -0.00144879
N 5.66980750 20.02246081 10.63084022 0.00021905 0.00662658 -0.00245594
N 2.88805292 17.94118570 13.09486859 -0.00497252 -0.00488734 0.00409204
N 1.45929206 21.34759984 15.26765048 -0.00365654 -0.00305496 -0.00334221
N 3.97299172 23.55915210 17.89713217 0.00421172 -0.00313823 0.00233939
N 5.07535929 20.10128019 15.29987413 0.00419865 0.00209323 -0.00130059
N 2.48005087 18.35933313 17.91120209 0.00094300 0.00373401 -0.00852020
N 1.42027582 21.50287511 20.06590435 -0.00266138 0.00020149 -0.00323682
N 4.09482210 23.58224546 22.65368112 -0.00081409 -0.00789989 -0.00245264
N 5.41782254 20.19465257 19.95826859 -0.00401921 0.00451681 -0.00162892
N 2.77924386 18.54086583 22.79877994 -0.00133836 -0.00209355 -0.00212732
N 0.64049503 27.84147371 1.17274984 0.00201316 0.00279849 -0.00169360
N 3.42718946 0.00640798 3.62296806 -0.00270501 -0.00090625 0.00107705
N 4.88527693 26.81792615 0.89249381 -0.00217709 -0.00074677 0.00320041
N 2.05810377 24.67211333 3.85708087 -0.00494639 -0.00086218 -0.00006964
N 0.86852779 28.00474286 5.91925648 -0.00011341 0.00730839 0.00107406
N 3.25353756 30.03249415 8.59286250 -0.00372117 -0.00288295 0.00536711
N 4.64284265 26.84510762 5.81135448 0.00680928 0.01130173 -0.00453130
N 1.99709648 24.67642020 8.70052019 0.00161180 -0.00498487 0.00217773
N 0.73547317 27.77008556 10.48330457 0.00601626 -0.00228832 0.00243627
N 3.43902671 29.75334085 13.05652298 -0.00622819 0.00211095 0.00037803
N 4.75467694 26.82407181 10.32348286 -0.00379803 0.00128194 0.00628214
N 1.79398059 24.54023838 13.23712241 0.00294595 -0.00025792 -0.00174155
N 0.69067678 27.86334114 15.32876245 0.00264365 0.00047389 0.00233977
N 3.28482494 29.65676328 17.91289828 -0.00084772 -0.01056953 -0.00246938
N 5.06901972 26.51848537 15.20774410 -0.00032617 -0.00348430 -0.00463153
N 2.17232808 24.93176417 18.08348127 0.00338826 0.00504534 0.00163444
N 0.87002699 27.80090902 20.21127990 -0.00337318 0.00138171 0.00324030
N 3.04379874 29.81074156 22.46977282 0.00075645 -0.00592106 0.00663906
N 5.02584549 26.79766563 20.02409159 0.00053229 -0.00466470 -0.00201273
N 2.05421889 24.54499033 22.87739721 0.00008943 0.00223517 -0.00218518
N 6.60707777 4.18058127 1.16430285 -0.00807268 -0.00496715 0.00240074
N 9.94906472 4.90801428 4.00704021 0.00545444 -0.00401008 -0.00494071
N 11.84573723 2.02370717 1.13906330 -0.00442395 -0.00156153 -0.00301167
N 8.51584543 1.06468185 3.73204661 -0.00329177 -0.00005679 -0.00275702
N 6.78257599 4.48597813 5.92666557 -0.01310271 -0.00787612 -0.00013259
N 10.07033713 4.85614728 8.58854704 -0.00417673 0.00035223 0.00152408
N 11.74747654 2.27369226 6.08116195 0.00557944 0.00390588 0.00344197
N 8.64082112 1.04458293 8.42883235 0.00411464 0.00161051 -0.00201791
N 6.79962938 3.70937288 10.49463533 0.00488893 -0.00100283 0.00582593
N 10.05379943 4.97423530 13.15354757 -0.00060433 0.00046909 -0.00781556
N 12.01022990 1.83799992 10.34050448 -0.00396457 -0.00391236 -0.00405210
N 8.71702157 1.24125327 13.31989550 -0.00067107 -0.00185474 -0.00117706
N 6.68754306 4.07492261 15.16418412 -0.00398211 0.00548046 -0.00221215
N 10.22135821 4.72125592 18.06018282 0.00483110 0.00085772 -0.00338182
N 12.12995028 1.93582261 15.13426169 0.00230573 0.00111537 -0.00385363
N 8.57336038 1.26928437 18.18067754 0.00009936 0.00005828 0.00145913
N 6.53376277 4.08373135 19.96727554 -0.00137764 -0.00448802 -0.00199404
N 10.27877496 5.10903759 22.74777197 0.00226606 0.00228996 -0.00152955
N 12.02381772 2.09148125 20.03665406 -0.00453409 -0.00654384 0.00192221
N 8.38761604 1.36303531 22.64092721 -0.00092791 0.00206284 -0.00516760
N 7.46492170 9.66537756 0.80833278 -0.00236268 0.00299756 0.00078210
N 10.84832861 10.68462495 3.69304468 -0.00113889 -0.00040646 0.00325103
N 12.43509870 7.45030630 1.05246234 0.00634053 -0.00283530 -0.00302901
N 8.99149611 7.02137369 3.85732139 -0.00232664 0.00870228 0.00314340
N 7.08205388 9.69858832 5.65590959 -0.00645839 -0.00132781 0.00477149
N 10.79800543 10.58007115 8.42583557 0.00248747 -0.00565242 -0.00381846
N 12.02112998 7.68745569 5.60773498 0.00596409 -0.00714630 -0.00126594
N 8.97261431 6.91502176 8.33396364 0.00170727 -0.00312724 -0.00343388
N 7.28629705 9.43877946 10.55198778 0.00190516 -0.00564912 0.00761025
N 10.93524454 10.62996933 13.20123345 0.00890129 -0.00098930 -0.00261374
N 12.56741573 7.65962087 10.42434811 0.00078753 -0.00259543 0.00252015
N 9.15642105 7.06652186 12.74455970 -0.00335751 0.00237563 -0.00091830
N 7.24634229 9.53475715 15.36674822 -0.00898260 -0.00094675 -0.00013406
N 10.93605855 10.58606786 17.69326614 -0.00447181 0.00121344 0.00037821
N 12.20099671 7.72228176 14.92032158 -0.00261478 -0.00521537 -0.00944088
N 8.87486154 6.49985873 17.66720339 -0.00376546 -0.00336648 -0.00626591
N 7.25211468 9.44272064 19.81064544 -0.00702448 0.00131288 -0.00245561
N 10.69041892 10.65974985 22.79683152 0.00362096 0.00412463 0.00525315
N 11.90803149 7.58260060 19.92663300 -0.00303975 0.00216500 0.00323806
N 8.88962200 6.89107202 22.58119437 0.00065943 0.00043777 0.00280447
N 7.60309205 14.93297875 0.92917932 0.00846517 0.00138142 -0.00554721
N 10.40115526 17.80456592 4.01311461 -0.01052149 0.00430526 0.00824038
N 11.64844819 14.24224196 1.20843653 -0.00013324 0.00155788 0.00646930
N 9.11238444 12.25300829 3.46201340 0.00107749 -0.00260445 0.00090553
N 7.62624081 15.48913901 5.73449081 0.00618619 0.00071332 -0.00485847
N 10.24742454 17.28651904 8.61409707 -0.00392597 0.00440244 0.00154555
N 11.59719591 14.34123096 5.53767571 -0.00365689 0.00290901 0.00747633
N 9.02569595 12.09515355 8.48196568 0.00011389 -0.00483535 0.00499825
N 7.86915376 15.22568752 10.28813784 -0.00034577 -0.00089323 0.01142324
N 10.39857901 17.54485568 13.29863422 -0.00051974 0.00334375 0.00587716
N 11.69977966 14.19224920 10.38994448 -0.00232357 0.00476525 -0.00013276
N 9.15717909 12.11923552 13.20312454 0.00590334 -0.00408529 -0.00246410
N 7.76347121 15.27401456 15.02631116 -0.00057266 0.00078873 0.00662816
N 10.17472668 17.56684051 18.00622159 0.00018865 -0.00195817 -0.00348737
N 11.60639227 14.44227883 15.39106489 0.00410138 -0.00062141 0.00092669
N 9.34419531 12.27340065 18.02325700 -0.00383650 -0.00246090 0.00225443
N 7.67456866 15.00368712 19.79767588 0.00024664 -0.00274129 0.00546892
N 10.16590305 16.93705154 22.71469167 -0.00304905 0.00132426 0.00154864
N 11.67621127 14.00813193 20.05289352 0.00070477 -0.00055228 0.00843611
N 9.20389843 12.39528340 22.48823777 -0.01013902 -0.00085828 0.00219948
N 7.03634209 21.68708368 0.95258598 -0.00110648 0.00211371 -0.00204861
N 9.65993172 23.89526736 3.72064569 0.00384124 -0.00456224 -0.00414359
N 11.27172639 20.56855669 0.89794292 0.00622898 -0.00184686 -0.00345674
N 8.23814087 18.68628645 3.88332236 -0.00072907 -0.00649400 0.00118900