2000
Time=81000.00000008 pbc="T T T" Lattice="31.22548750 0.00000000 0.00000000 0.00000000 30.10545049 0.00000000 0.00000000 0.00000000 23.63216597" energy=-12038.70798051 virial="-36.96102192 -9.81023288 1.81268769 -9.81023288 -50.11964211 5.93705029 1.81268769 5.93705029 -54.86176347" stress="0.00048700 -0.00045371 0.00012319 -0.00045371 -0.00018643 0.00016550 0.00012319 0.00016550 0.00011629" Properties=species:S:1:pos:R:3:vel:R:3
C 30.67053830 3.52093189 1.63691739 0.00599621 0.00016933 0.00197977
C 2.50525475 0.68731514 3.05350539 0.00458372 0.00031140 -0.00271613
C 30.63398133 3.59077168 6.34306689 0.00309196 -0.00759968 -0.00410917
C 2.38929541 0.38981434 7.62337091 0.00234732 0.00395606 0.00309098
C 30.98203829 3.41740303 11.04157465 -0.00391549 0.00499892 -0.00465667
C 2.82090109 0.40148966 12.50130256 -0.00213911 0.00116404 -0.00007708
C 30.56120530 3.65332151 15.74756163 0.00445058 0.00145873 0.00048813
C 2.65771793 0.59434409 17.16491723 -0.00073622 0.00266436 0.00321954
C 30.70534474 3.75479151 20.45387223 -0.00203235 0.00566998 0.00164559
C 2.27381604 0.42083219 21.97746595 -0.00426403 -0.00646791 0.00606698
C 31.17516703 9.27243614 1.68930091 0.00566820 0.00410949 -0.00460351
C 3.14828611 6.56983639 2.98184640 -0.00252697 0.00029638 0.00437124
C 0.02790344 9.25950366 6.36159808 0.00393425 -0.00235950 -0.00880036
C 2.94152802 5.89125538 7.61405505 0.00452170 -0.00716914 -0.00042493
C 31.22381104 9.14461412 11.13923419 -0.00094746 -0.00358716 -0.00653639
C 2.86667418 5.89800353 12.48159316 0.00341740 -0.00155360 -0.00047316
C 31.13561291 9.06060985 15.72872307 0.00038685 -0.00106874 0.00518771
C 2.83445155 6.12258043 17.27317050 0.00303692 0.00466433 0.00378207
C 31.04912866 9.61101205 20.59949194 0.00003229 0.00581161 -0.00207846
C 2.83600841 6.11769951 21.96603151 0.00361267 0.00343349 0.00144602
C 0.01957166 15.06235508 1.66385537 -0.00218086 -0.00278842 -0.00383471
C 3.49901187 11.96399745 2.99445027 0.00536545 -0.00265316 0.00018522
C 0.46922129 14.63946530 6.42758271 0.00843888 -0.00189524 0.01116897
C 3.40744655 11.98124116 7.66502235 -0.00050703 0.00198167 0.00225594
C 0.27704651 14.97603300 10.99965507 -0.00125946 -0.00354672 0.00024661
C 3.32997731 11.89665311 12.40020442 0.00330537 0.00565815 -0.00379948
C 31.19797868 14.82637286 15.76845653 -0.00482005 -0.00143466 0.00147814
C 3.27572414 12.08695154 17.06316879 -0.00750141 0.00101148 0.00373618
C 31.14272827 14.82133664 20.49371004 0.00649590 0.00970512 -0.00073479
C 3.12501173 12.08176342 21.80560736 0.00082089 0.00156641 -0.00097225
C 0.92280696 20.53520884 1.72606231 0.00915130 -0.00228914 -0.01065481
C 3.94694208 17.62050824 3.11464290 0.00227701 -0.00042048 0.00060003
C 0.50646675 20.53966941 6.28970595 0.00158797 -0.00097130 -0.00023562
C 3.77518057 17.66169843 7.80985194 0.00255624 -0.00185543 0.00574635
C 0.68373596 20.46840552 11.12545514 -0.00073615 -0.00413572 -0.00174097
C 3.64269586 17.42072812 12.52111332 0.00670691 -0.00086510 0.00087991
C 0.50038202 20.55609182 15.86538330 0.00396191 0.00123209 0.00262178
C 3.73288362 17.39071827 17.19700006 0.00261683 0.00905700 0.00269498
C 0.41899664 20.60388832 20.52776482 0.00070031 -0.00259327 -0.00312696
C 3.82754983 17.46462217 21.80550255 -0.00326872 -0.00215439 -0.00874087
C 30.89740561 26.95013930 1.57592483 0.00003995 -0.00635396 0.00558065
C 3.00568473 23.97976911 3.07683900 0.00220952 -0.00401371 0.00239130
C 31.10635035 27.14775355 6.38492857 0.00811659 -0.00231355 0.00208705
C 3.18591867 24.09740627 7.79313179 0.00580375 0.00579785 -0.00020855
C 0.07151130 26.84587523 11.08912401 0.00184422 0.00263809 -0.00358790
C 3.15679137 23.98525584 12.45791366 -0.00511273 0.00612778 0.00209612
C 0.26197326 27.36807960 15.68633524 0.00751296 0.00278293 0.00261864
C 3.00425314 24.05690966 17.31199983 0.00203006 0.00176481 -0.00057924
C 0.06492189 27.05432189 20.58736536 -0.00968078 -0.00442600 0.00344963
C 3.23329985 23.86669857 22.05888722 -0.00282566 -0.00912625 -0.00073031
C 5.98597973 3.40910638 1.54995276 -0.00233778 -0.00118082 -0.00394258
C 9.12634325 0.29236132 2.87194446 0.00467349 0.00171812 -0.00080156
C 5.81160801 3.40138051 6.41674546 -0.00811169 -0.00108834 -0.00583330
C 9.11901879 0.06000522 7.64181015 -0.00245275 0.00239003 0.00458661
C 6.12909804 3.24321846 11.22621981 0.00025449 0.00001547 0.00010011
C 8.90329454 0.08125712 12.54063195 0.00064930 0.00508543 -0.00246691
C 5.99251711 3.29207375 16.08380371 -0.00049788 -0.00365574 0.00223111
C 9.01183030 0.31828752 17.14564542 0.00442441 0.00653593 -0.00040961
C 5.96577736 3.42927840 20.57639649 -0.00120450 -0.00225197 -0.00515119
C 9.08698993 0.33039957 21.90267817 0.00353104 0.00090718 0.00916954
C 6.49938635 8.76073983 1.46497544 0.00010856 -0.00166414 0.00395199
C 9.57820990 5.92656062 2.93938073 0.00385420 -0.00075160 0.00081232
C 6.39639604 8.75551466 6.40969727 0.00259109 -0.00030959 0.00266458
C 9.53669491 5.96453443 7.73852786 -0.00634403 0.00183559 -0.00177510
C 6.42526304 8.61897138 11.22493915 0.00267569 0.00059023 -0.00331801
C 9.53236872 5.56751682 12.42612156 0.00263753 -0.00273778 -0.00332773
C 6.49210301 8.75134534 15.81244088 0.00326095 0.00558433 0.00358375
C 9.56943505 5.84495777 17.18636918 -0.00247308 0.00027528 0.00216832
C 6.51568335 8.75505234 20.42910969 -0.00262470 -0.00684160 0.00121052
C 9.63310258 5.90339331 21.91674437 -0.00270919 -0.00525322 -0.00201575
C 6.87581493 14.51161200 1.71472777 -0.01280600 0.00693173 0.00096747
C 9.84188726 11.56574301 2.99901347 0.00454535 -0.00075710 -0.00205850
C 6.91078658 14.41809612 6.46592029 0.00720465 -0.00760738 -0.00037869
C 9.83998753 11.15139566 7.73606816 -0.00000710 0.00017549 0.00164516
C 6.77041272 14.20355746 11.27039999 -0.00098970 0.00259592 -0.00181836
C 9.85298227 11.51189865 12.34001920 -0.00286951 0.00337289 0.00068434
C 6.71376537 14.29220094 15.86481172 0.00143583 -0.00024962 0.00833534
C 9.81793574 11.55165341 17.04280562 -0.00495549 0.00574735 -0.00053470
C 6.81703845 14.50132551 20.61170716 -0.00418498 0.00448006 -0.00137941
C 10.12516221 11.69191455 21.83154935 -0.01090800 0.00175674 0.00205905
C 6.61951171 21.23271206 1.73113804 -0.00108274 0.00501763 0.00794719
C 9.44555272 18.11429378 3.38880333 0.00418199 0.00094762 -0.00676162
C 6.05953085 21.30979905 6.46276941 0.00223092 -0.00883412 0.00736258
C 9.68329786 18.03180348 7.91208451 -0.00178808 0.00403005 -0.00031129
C 6.03262697 21.16839969 11.28205211 0.00639421 0.00719852 -0.00482571
C 9.19537981 17.81818733 12.61634446 0.00354163 0.00072902 -0.00432358
C 6.09626519 20.98987935 15.88124657 0.00280770 0.00268047 -0.00447495
C 9.35900457 17.87139238 17.25615883 -0.00464972 -0.00253342 0.00715422
C 6.36691478 21.37863192 20.62276929 -0.00806946 0.00998969 0.00068873
C 9.28049537 18.08558726 22.05120550 0.00177490 0.00423841 0.00605205
C 5.53593265 27.78909609 1.75721682 -0.00380812 0.00665191 0.00432489
C 8.78266559 24.75931172 2.99200242 -0.00228149 -0.00013151 0.00439239
C 5.66671904 27.77057884 6.38539626 -0.00623005 -0.00030498 -0.00584233
C 8.85329682 24.63791900 7.77592005 -0.00172448 0.00119270 0.00218870
C 5.53737424 27.78319304 11.03304721 0.00105491 -0.00140114 0.00014260
C 8.58532765 24.65068106 12.49752541 0.00769231 0.00230244 0.00002868
C 5.73420862 27.70839478 15.91358419 -0.00101582 0.00188158 -0.00112269
C 8.90159218 24.77247345 17.00273652 -0.00820719 0.00596620 -0.00287288
C 5.54115317 27.92402373 20.60467306 0.00158926 -0.00199636 0.00582119
C 8.98627570 24.64969736 21.70814054 -0.00163648 -0.00522086 0.00680022
C 12.79105828 2.86696363 1.75598853 -0.00166314 -0.00462182 -0.00149972
C 15.87929641 30.00390031 2.95769572 0.00047958 -0.00068424 -0.00046125
C 12.68671260 2.99412866 6.41144173 -0.00328468 0.00594714 0.00162150
C 15.88348320 29.83283540 7.71465739 0.00145897 -0.00435536 0.00440979
C 12.48521096 2.62955589 11.05799299 -0.00837324 -0.00260325 0.00349717
C 15.66677340 29.82526438 12.43601264 -0.00456060 0.00046632 0.00666686
C 12.49021760 2.54253402 15.93397463 0.00191403 0.00030613 0.00284109
C 15.50495649 30.08603581 17.18924575 -0.00019341 0.00244677 -0.00542645
C 12.54348230 2.71212847 20.68799661 0.00259919 -0.00540114 0.00329840
C 15.86848293 29.87260278 21.85486808 0.00338050 0.00135840 0.00122778
C 13.06870363 8.38474811 1.68768113 -0.00281752 -0.00367055 0.00485147
C 16.26158099 5.38861526 3.07810270 0.00130615 0.00202992 0.00406658
C 13.00893188 8.65428329 6.29556385 -0.00559325 0.00179672 0.00034713
C 16.16154503 5.65010994 7.80255741 -0.00238404 0.00415192 0.00222251
C 13.10577707 8.44124917 11.20789449 0.00689824 0.00109396 0.00014168
C 15.66577474 5.43430439 12.49290749 0.00239071 -0.00174455 0.00109711
C 13.04298093 8.50402097 15.85080525 -0.00391695 0.00190179 -0.00522791
C 16.18526914 5.54612431 17.31870666 -0.00585154 -0.00463737 -0.00378926
C 13.00611945 8.33154243 20.49151693 -0.00307163 0.00195665 -0.00577217
C 16.15945189 5.62412325 21.99011168 -0.00449841 -0.00050566 -0.00477049
C 12.51762976 15.34659754 1.61426720 0.00226468 -0.00000930 -0.00719851
C 15.59287206 11.93663432 3.02641700 -0.00303937 0.00922050 0.00513165
C 12.63647597 14.68469190 6.46670192 0.00584229 -0.00325636 0.00388311
C 15.77766864 12.19831964 7.96880143 0.00881902 -0.00480674 0.00143703
C 12.36350185 14.82480124 11.32321890 -0.00089002 -0.00073323 0.00218368
C 15.51105805 12.07246899 12.62503437 -0.00500506 0.00779255 -0.00364366
C 12.30239185 15.08108664 15.86850647 -0.00316119 -0.00442363 -0.00189564
C 15.81256485 11.87040920 17.30825393 -0.00818420 0.00412542 -0.00673555
C 12.63172006 14.93761130 20.51737507 -0.00058839 0.00110098 0.00033293
C 15.70300888 12.05197396 21.91416674 0.00420524 -0.00126205 0.00357375
C 11.86419772 21.71375616 1.72291412 0.00039131 0.00070225 0.00040353
C 14.92311864 18.69652764 2.99726823 0.00335095 -0.00417793 -0.00105650
C 11.64011467 21.78111492 6.49489930 -0.00171042 0.00132085 0.00039071
C 14.72025900 18.58853012 7.84489919 -0.00195172 -0.00615938 -0.00311118
C 11.63333836 21.70803120 11.31014891 -0.00113882 -0.00329759 0.00086959
C 14.82209888 18.57857759 12.45021439 -0.00016120 0.00267656 -0.00317261
C 11.74771041 21.48840524 15.98522175 0.00086608 -0.00234621 -0.00013118
C 15.06702388 18.48620204 17.37589871 0.00272351 -0.00284170 -0.00133975
C 11.97390741 21.73311273 20.70410681 -0.00376259 -0.00435139 -0.00384704
C 15.00458747 18.57993367 22.09167194 -0.00126852 0.00273022 0.00462801
C 12.37399870 27.37814461 1.78356389 -0.00123464 0.00302186 0.00160295
C 15.33607540 24.47018281 3.00646585 -0.00474385 0.00039389 -0.00946612
C 12.29343450 27.44563478 6.43207642 0.00587741 -0.00152515 -0.00100748
C 15.17809351 24.26582078 7.74211694 -0.00475105 0.00241114 -0.00601398
C 12.22888900 27.31369509 11.16280643 -0.00873254 -0.00224503 0.00237742
C 15.45564226 24.34438112 12.47899525 0.00340165 -0.00148869 -0.00289244
C 12.38351973 27.30385756 15.95853902 -0.00305452 0.00191140 0.00454086
C 15.43106856 24.16358351 17.26968986 0.00361197 0.00993721 -0.00124959
C 12.21360407 27.44983966 20.51288650 0.00147503 -0.00436048 -0.00377191
C 15.45712047 24.40807184 21.88325317 -0.00028560 0.00388456 -0.00311683
C 19.33724543 2.56576919 1.83697882 0.01006537 -0.00376533 -0.00261233
C 22.73427664 29.56885518 3.00889870 -0.00258508 -0.00656202 0.00133214
C 19.49171345 2.10985905 6.56282860 0.00083477 0.00403899 -0.00195926
C 22.76834073 29.52494217 7.68646460 -0.00713761 -0.00736608 0.00303784
C 19.12697316 2.44605108 11.26546513 -0.00374353 0.00219567 -0.00227422
C 22.36792130 29.24803862 12.37997237 -0.00881591 -0.00877297 -0.00113329
C 19.39360014 2.51021863 15.94165235 0.00008158 0.00134572 -0.00084090
C 22.64228271 29.87216313 17.27855233 0.00002034 0.00029953 0.00111710
C 19.27572254 2.42110174 20.80441088 -0.00551700 -0.00739030 -0.00096141
C 22.37778939 29.80890667 21.99837570 -0.00229113 -0.00412389 0.00710555
C 18.79963411 9.00876100 1.83336804 -0.00296622 0.00365838 -0.00412825
C 21.57740167 6.20211485 3.10481498 -0.00355269 0.00124091 -0.00530770
C 18.66346905 9.12012064 6.62801501 0.00443818 0.01047019 0.00003689
C 21.56520455 6.18453233 7.71521257 0.00577930 0.00010863 0.00321254
C 18.48117907 8.94309504 11.35402495 -0.00371564 -0.00195227 0.00164547
C 21.82522575 5.69280320 12.35691883 -0.00096443 -0.00476496 0.00451214
C 18.56854195 8.88178621 16.09012603 0.00472149 -0.00301175 0.00437009
C 22.17440529 6.00266240 17.19231016 -0.00238235 -0.00004103 0.00962992
C 18.58097045 8.92921889 20.66785004 -0.00153816 -0.00431655 -0.00078480
C 21.83623945 5.97888937 21.88568555 0.00703658 0.00507031 -0.00338173
C 18.11900562 15.44871217 1.61343021 0.00504404 -0.00256735 0.00419961
C 21.26422971 12.46883646 3.13339643 0.00472041 -0.00273758 0.00875749
C 18.08487003 15.51969542 6.49680434 0.00437945 -0.00138994 0.00433302
C 21.12895226 12.55254193 7.75474516 -0.00099054 0.00263445 0.00281968
C 17.92224576 15.76685872 11.12083704 -0.00078455 -0.00267865 -0.00627199
C 21.13965126 12.32690267 12.43863144 0.00324595 -0.00036737 -0.00361403
C 18.28141630 15.94821990 15.61478097 0.00399511 -0.00124459 -0.01126546
C 21.47677700 12.38572563 17.18258036 -0.00214326 -0.00294453 -0.00111313
C 18.57219988 15.38245035 20.58928527 0.00950189 0.00411656 0.00137547
C 21.33539773 12.53737084 21.92030620 0.00024870 -0.00865304 0.00346063
C 18.58924152 20.99293227 1.83200518 0.00249248 -0.00960754 -0.00252782
C 21.53147041 18.25111966 3.06379065 -0.00908533 -0.00752419 -0.00097011
C 18.20604998 21.21100030 6.55543887 0.00206573 0.00013049 -0.00413209
C 21.52518350 18.33655947 7.72541508 0.00428652 0.00087571 0.00406588
C 18.52512965 21.27180851 11.21890596 0.00611462 -0.00398593 -0.00363617
C 21.88643424 18.44050965 12.46364970 0.00107644 -0.00853615 0.00375624
C 18.72617895 21.45451875 15.90841113 0.00572870 0.00067612 -0.00104945
C 21.56643882 18.31294768 17.08113579 0.00317300 -0.00261566 -0.00321912
C 18.65971679 21.37299885 20.73829760 0.00578966 -0.00649076 -0.00326321
C 21.82639863 18.25922621 21.72002262 -0.00095432 -0.00535133 0.00477794
C 19.02877944 26.78832764 1.75888350 0.01029297 0.00414201 -0.00247541
C 22.03300808 23.50227364 3.17611483 0.00192133 0.00686117 -0.00241490
C 19.14677378 26.92183226 6.44258425 -0.00311009 0.00183870 -0.00912932
C 22.05412651 23.47611392 7.87182237 -0.00735127 0.00509124 -0.00063577
C 18.96909219 26.88613283 11.14719370 -0.00437524 -0.00102677 0.00170293
C 21.85616052 23.96184066 12.57152695 -0.00874771 -0.00161946 0.00630533
C 18.87269519 26.86264663 16.07724894 0.00484960 0.00211681 0.00118025
C 21.83687006 24.02947212 17.21369738 -0.00700078 0.00431958 -0.00162650
C 19.03124811 27.20578572 20.55497532 0.00473416 0.00167877 0.00405911
C 22.22357712 24.07346527 21.99256110 -0.00787920 0.00377220 0.00104333
C 25.01137894 3.07881317 1.86454335 -0.00550855 -0.00485539 0.00532669
C 28.24040173 0.19195478 3.13053428 -0.00753896 0.00056351 0.00502871
C 25.02081301 3.29008961 6.30186143 0.00078337 -0.00295595 0.00559313
C 28.31507241 0.02155784 7.97097354 0.00246670 -0.00005275 -0.00169939
C 24.95810198 2.85614823 11.08053878 0.00004371 -0.00126690 0.00322434
C 27.90793180 29.83590915 12.47525598 0.00127026 -0.00134899 -0.00653393
C 25.20353841 3.08560057 15.99603596 -0.00570645 -0.00004275 -0.00245398
C 28.16144079 0.09270507 17.20150524 0.00364711 0.00484441 -0.00632112
C 25.20506726 3.23551289 20.75250371 -0.00183073 0.00001136 -0.00204089
C 28.22237681 0.26149136 22.04120873 0.00594640 -0.00173114 0.00956436
C 24.19147017 9.80459980 1.79909298 0.00026247 0.00702169 0.00593470
C 27.39610863 6.62553018 3.05621360 0.00024748 0.00225334 -0.00606914
C 24.54112752 9.38894560 6.56369909 -0.00168032 -0.00129306 0.00021679
C 27.70547407 6.73418097 7.76607976 0.00130695 0.00244561 0.00028056
C 24.31168225 9.64043851 11.16098521 -0.00587318 -0.00143297 -0.00707409
C 27.38610348 6.28569238 12.46596358 0.00393711 0.00524116 0.00068247
C 24.50780401 9.51177556 15.74023533 0.00038537 0.00499734 0.00278616
C 27.73937955 6.61540407 17.29829729 0.00150932 0.00666605 -0.00252113
C 24.39796634 9.52537535 20.63787589 0.00131620 -0.01156257 0.00475737
C 27.79593921 6.73608152 22.02131121 0.00431194 -0.00456222 -0.00209151
C 24.91402085 15.29107861 1.60854096 -0.00168051 -0.00232136 0.00376738
C 27.88428472 12.31992126 2.94809377 -0.00015108 0.00279938 0.00200851
C 25.02425847 15.11290174 6.49209934 -0.00403734 -0.00133557 -0.00154515
C 28.04572433 12.04387261 7.55078297 -0.00152794 0.00482275 0.00457494
C 24.88271858 15.21249548 11.12760378 0.00206257 0.00009771 0.00012867
C 28.00668721 12.14265009 12.47265065 -0.00692807 -0.00059720 0.00587670
C 24.89071997 15.37072823 15.87918886 -0.00390478 -0.00535744 0.00283886
C 27.67149593 12.27047387 16.96720496 0.00242743 0.00683484 0.00398636
C 24.98489216 15.43236318 20.48567229 0.00407934 0.00175049 0.00027879
C 27.81586558 12.13890137 21.88286770 0.00306788 -0.00232626 0.00537642
C 25.10141416 20.75250041 1.63580343 -0.00420495 0.00182264 -0.00159343
C 28.22542384 17.79009834 2.91317498 -0.00347502 -0.00165764 0.00791224
C 25.41961434 20.85583118 6.59580240 0.00032547 -0.01058329 -0.00122873
C 28.27718836 17.69920497 7.64459046 0.00214139 0.00141514 -0.00444102
C 25.34687947 20.81896719 11.19989784 0.00268618 0.00036868 -0.00357328
C 28.35183501 17.70507826 12.41993179 0.00149399 -0.00348858 0.00526331
C 25.13035552 20.87343314 15.77371863 -0.00215667 -0.00090515 -0.01088393
C 28.40098028 17.94395787 16.88850483 -0.00028750 -0.00026423 -0.00431352
C 25.10390570 20.84432453 20.52085034 -0.00196256 -0.00023627 -0.00104868
C 28.49209678 18.17308791 21.74937487 -0.00386569 -0.00117811 0.00706335
C 25.65171877 26.49768961 1.65388361 0.00546337 -0.00879812 0.00183257
C 28.71309644 23.52351797 2.90098764 -0.00274884 -0.00077407 -0.00458997
C 25.66359521 26.38703497 6.39170844 0.00429069 0.00480370 -0.00023569
C 28.64032310 23.30810100 7.95300333 0.00114706 -0.00491376 -0.00181427
C 25.39610406 26.46245587 11.07603994 0.00531533 0.00283918 0.00000933
C 28.70935287 23.51529346 12.70915149 -0.00550950 -0.00685346 0.00313126
C 25.65831303 26.45937282 15.81552361 -0.01162454 -0.00690427 -0.00153792
C 28.38528859 23.51499770 17.29210563 0.00432731 -0.00770263 -0.00124345
C 25.61063162 26.54211263 20.39998680 -0.00110487 0.00270267 -0.00876589
C 28.55913129 23.38048827 21.77172468 -0.00291470 -0.00105480 0.00358882
N 31.12585587 4.54616354 0.89088025 0.00044509 -0.00345992 -0.00561098
N 3.65880808 5.52461595 3.65360047 0.00080990 0.00091799 0.00172198
N 5.24062989 2.58460992 0.78871506 -0.00063317 -0.00417878 -0.00577929
N 1.81272177 1.64262661 3.75880777 0.00043433 0.00366275 -0.00372403
N 0.34370914 4.41428538 5.73827323 -0.00470003 0.00038590 -0.00258432
N 3.20987844 4.85951130 8.48071214 0.00095772 -0.00173323 0.00400614
N 4.95241538 2.70831079 5.57544534 -0.00045638 -0.00299853 -0.00091082
N 1.52110865 1.16727081 8.27730443 -0.00253184 -0.00199804 -0.00060403
N 0.44494152 4.31604520 10.33034861 -0.00078680 -0.00942909 -0.00507604
N 3.53180597 4.99235906 13.14462504 0.00910137 0.00684369 -0.00082336
N 5.43041218 2.40339773 10.44182027 0.00216079 0.00176302 -0.00333778
N 1.92218720 1.18925015 13.10634411 0.00340320 -0.00111580 -0.00218583
N 0.09523542 4.51181845 14.95271751 -0.00155608 -0.00224164 -0.00300998
N 3.61088973 5.26379541 17.96022195 0.00172542 -0.00348996 -0.00141723
N 5.40082875 2.32594464 15.38167259 -0.00403178 -0.00033643 -0.00088238
N 1.69015887 1.19717777 17.94619372 -0.00472816 -0.00651255 -0.00198713
N 0.30637512 4.44634276 19.67805076 0.00488405 -0.00599389 -0.00088529
N 3.48663508 5.29065531 22.82185642 0.00151245 -0.00560094 -0.00342512
N 5.30833855 2.38929014 20.05955085 0.00089988 0.00107660 -0.00229306
N 1.53623842 1.32285127 22.67398833 -0.00274194 0.00351963 0.00701512
N 0.58732402 10.16341507 0.95340604 -0.00337044 0.00473544 0.00700263
N 4.09044076 10.99188833 3.73562021 -0.00324400 -0.00349927 0.00460821
N 5.69114962 7.92270497 0.80845112 0.00225187 -0.00334293 0.00173522
N 2.44890470 7.43469013 3.79893054 -0.00394425 0.00124061 0.00274373
N 0.97546607 9.98480860 5.70919954 -0.00244833 -0.00481240 0.00161229
N 4.03541599 11.00698522 8.38124203 0.00159479 0.00315261 0.00127109
N 5.77009804 7.91883183 5.59104775 0.00074440 0.00332578 0.00489932
N 2.31628445 6.94515752 8.31633029 -0.00337294 -0.00317989 -0.00357270
N 0.75019197 9.90218060 10.32393266 0.00003904 0.00813131 -0.00323697
N 3.98104227 10.99578664 13.18339643 -0.00119588 -0.00239797 -0.00518735
N 5.60767607 7.98572146 10.29729638 -0.00210088 0.00660094 -0.00486571
N 2.36956528 6.92986949 13.11535614 -0.00150044 0.00107628 -0.00103829
N 0.66464854 9.94903418 15.02683611 -0.00153220 -0.00657782 -0.00066768
N 4.13481569 11.25215488 17.74713902 0.00115606 0.00190598 0.00197333
N 5.57207697 7.92401615 15.20855141 -0.00221020 -0.00221114 0.00177313
N 2.32507507 7.13951710 18.04452361 0.00499870 -0.00485651 0.00127988
N 0.61341969 10.38467127 19.82521306 -0.00148078 -0.00786478 0.00351000
N 3.78513330 11.03512021 22.31221817 0.00398109 -0.00497758 -0.00000870
N 5.62875299 8.02131742 19.80209176 0.00045813 0.00795378 0.00220201
N 2.21346381 7.22870634 22.55086045 0.00273944 -0.00553901 0.00241224
N 0.85896370 15.88823819 1.04863208 0.00490604 0.00058390 0.00329672
N 4.63069305 16.75490578 3.85523345 -0.00102507 0.00411872 -0.00125059
N 6.20508250 13.64125273 0.91408675 -0.00503000 -0.00201385 0.00687401
N 2.67207767 12.86791594 3.62639725 -0.00000820 -0.00814392 0.00019468
N 1.03810426 15.55128929 5.60051998 -0.00001295 0.00197361 -0.00113832
N 4.52611670 16.88083939 8.57768132 0.00000932 -0.00427056 0.00109375
N 5.92970452 13.85513726 5.64380366 -0.00065892 0.00412078 0.00381023
N 2.88586610 12.95273528 8.46401919 0.00570971 -0.00132923 -0.00520748
N 1.07936689 15.84374891 10.34860557 0.00119073 0.00263026 0.00415762
N 4.56904292 16.62032383 13.16110689 -0.00813845 0.00539957 -0.00432311
N 5.91395987 13.56523832 10.49118560 -0.00100302 -0.00279265 0.00026320
N 2.57051219 12.82093650 13.10272169 -0.00330579 0.00145408 -0.00045935
N 0.74172740 15.78832751 15.06470158 -0.00909880 0.00211455 -0.00531973
N 4.57559888 16.49220402 17.76095012 -0.00663532 0.00710351 0.00038437
N 6.26229470 13.32624188 15.06720484 0.00195503 -0.00071400 -0.00204421
N 2.70931199 13.04273582 17.88762196 0.00031509 0.00383461 0.00822548
N 0.75933176 15.65998261 19.72821353 -0.00723462 0.00352956 0.00838169
N 4.72987550 16.69700720 22.38639413 -0.00396364 0.00159883 0.00214209
N 6.02873093 13.62369172 19.93851558 -0.00479828 -0.00580275 0.00188678
N 2.63210038 12.91730224 22.72711029 -0.00626314 0.00741850 0.00159528
N 1.46889485 21.42711305 0.88124822 0.00801527 -0.00050858 -0.00163423
N 4.07997512 23.56889672 3.82384136 -0.00615031 -0.00380466 0.00087596
N 5.65520753 20.46600480 1.19206617 0.00253495 -0.00209871 -0.00321202
N 2.92005768 18.29751439 3.66328326 0.00164006 -0.00016858 0.00585921
N 1.26556698 21.48257168 5.73568820 0.00374623 -0.00426898 -0.00052588
N 4.24347838 23.60953846 8.59240572 -0.00192958 -0.00711578 0.00422420
N 5.32171677 20.48103202 5.63282065 -0.00197516 0.00011846 -0.00175995
N 2.98385835 18.53248367 8.46072420 -0.00471905 -0.00048795 -0.00012947
N 1.37484116 21.44176780 10.41827330 0.00496582 0.00664503 -0.00257628
N 3.99019318 23.35008659 13.27752053 -0.00339831 -0.00228134 0.00439405
N 5.39738190 20.22206440 10.62455761 -0.00054229 0.00388735 0.00087962
N 2.86901497 18.26589675 13.23350891 -0.00104913 0.00087925 -0.00402339
N 1.60767060 21.10384955 15.36628577 -0.00638947 0.00238821 -0.00502679
N 4.04880691 23.55091045 17.97609327 -0.00041785 0.00147940 -0.00255925
N 5.39376651 20.14853337 15.08307141 -0.00115763 -0.00108816 -0.00329197
N 2.98504209 18.22350189 17.92873977 -0.00375262 -0.00233312 0.00001384
N 1.10741425 21.49634247 19.80688964 -0.00630864 0.00485353 0.00175303
N 4.32981644 23.38193231 22.71256367 -0.00050735 0.00021727 0.00646825
N 5.34644831 20.66589443 19.96088617 -0.00847865 -0.00069410 0.00560986
N 3.13286307 18.32761130 22.69278774 0.00192039 0.00115427 -0.00350869
N 0.78344539 27.60022653 1.04519053 -0.00964660 -0.00295819 -0.00280083
N 3.31781164 29.97655514 3.74025027 0.00136375 0.00152876 -0.00001349
N 4.71899331 26.88114657 1.07550584 0.00497051 0.00220821 -0.00301432
N 1.99590168 24.52734132 3.69122769 0.00263179 0.00039381 -0.00498383
N 0.84887280 27.78291755 5.62961308 -0.00446484 -0.00466791 0.00714013
N 3.29533486 29.88959101 8.43180943 -0.00296641 -0.00331113 0.00296262
N 4.80084096 26.94070670 5.79718798 -0.00470300 -0.00321284 0.00638472
N 2.21795860 24.71781229 8.43446682 0.00199161 -0.00247572 0.00272064
N 0.74271838 27.83567794 10.44294041 -0.00018557 0.00594463 0.00145945
N 3.53158841 29.70438721 13.26929190 -0.00533931 0.00202443 0.00006148
N 4.83779058 26.88543458 10.28167952 -0.00037209 -0.00031398 0.00505320
N 2.06217521 24.60373128 13.18216193 -0.00140614 0.00627409 0.00167089
N 1.21254921 27.97945090 14.81121564 0.00174703 -0.00219623 0.00596893
N 3.48222265 29.81699118 17.86268136 -0.00123919 -0.00196134 0.00868767
N 5.01235695 26.88131945 15.07325569 -0.00329417 0.00282138 -0.00343597
N 2.03672338 24.63290611 18.05919537 -0.00289967 -0.00217464 0.00239445
N 0.88059333 27.89434238 19.82287689 0.00344342 0.00189152 0.00340276
N 3.01070012 29.72314389 22.78786412 0.00056117 0.00020536 -0.00292087
N 5.08891695 26.86531668 19.89198702 -0.00163924 0.00378921 -0.00269866
N 2.25732693 24.36492340 22.83458873 0.00016861 -0.00293332 -0.00347586
N 6.88778934 4.17072975 0.86403302 0.00431061 -0.00237145 0.00242046
N 10.03137204 4.89624671 3.70352420 0.00114250 0.00678259 -0.00533709
N 11.81757607 2.15674949 1.17183893 -0.00147345 0.00078275 0.00000834
N 8.72855552 1.32214366 3.66167728 0.00325094 -0.00371415 0.00021852
N 6.63781498 4.20005376 5.72582059 0.00083460 -0.00420367 0.00296155
N 10.15164911 4.95589487 8.29867473 -0.00717550 0.00336388 -0.00663517
N 12.04758423 1.97118646 5.78218371 -0.00196253 -0.00327033 0.00144053
N 8.42907980 0.97700736 8.36807583 -0.00222149 0.00232291 -0.00090374
N 6.83180893 4.21364565 10.59917505 -0.00478497 -0.00010496 -0.00342362
N 10.27011758 4.76019232 13.25510193 0.00783089 0.00030201 0.00211743
N 11.62991461 1.81056794 10.34224023 0.00458274 -0.00112994 -0.00196335
N 8.41418399 1.09434529 13.24353991 -0.00009354 -0.00098995 -0.00503488
N 6.76576169 4.15150374 15.35247593 0.00420495 0.00104844 -0.00377081
N 10.37812617 5.00124807 17.91961568 0.00246376 -0.00273610 0.00062770
N 11.53593386 1.74708346 15.31067799 -0.00578587 0.00056524 0.00009522
N 8.66077720 1.44764748 17.81481677 -0.00165615 -0.00264386 -0.00221788
N 6.83093078 4.13694871 19.79749193 0.00513773 -0.00506350 0.00020935
N 10.07065934 4.85187613 22.65439286 -0.00751244 0.00069885 0.00175955
N 11.69664912 1.95371019 19.89058314 -0.00258790 -0.00302853 -0.00396952
N 8.53779271 1.30351497 22.63988119 -0.00377774 0.00326190 -0.00177266
N 7.15192793 9.70508111 0.68852425 -0.00553778 -0.00172418 -0.00058198
N 10.75334993 10.72763526 3.61788669 0.00001731 0.00516926 0.00027220
N 12.24674768 7.60709543 1.03617923 -0.00023050 0.00177196 -0.00145923
N 8.99658815 6.94817409 3.67510701 -0.00065132 0.00274350 0.00435842
N 7.05164285 9.85105311 5.81094510 0.00155665 0.00580493 0.00572980
N 10.64610562 10.32991438 8.44045710 -0.00675848 0.00220117 0.00104069
N 12.15197196 7.86945175 5.60252524 0.00377278 0.00511888 0.00115770
N 8.89793580 6.81671784 8.58164678 0.00255776 0.00268890 -0.00297548
N 7.28556199 9.54268687 10.68253076 -0.00273997 -0.00157386 -0.00446327
N 10.69936692 10.75860352 13.14607622 0.00222111 0.00441127 -0.00099635
N 12.41012581 7.50966789 10.48377879 0.00251777 0.00251497 0.00102902
N 8.50788588 6.35470689 13.09908054 -0.00130481 0.00066264 0.00304580
N 7.19766934 9.55874239 14.99915388 0.00198654 -0.00148579 0.00185178
N 10.67994900 10.94472675 17.85211597 0.00065740 0.00154002 -0.00323468
N 12.38626939 7.54795019 15.14584874 -0.00459178 -0.00182045 0.00251011
N 8.80702182 6.66262717 17.97584279 -0.00418839 0.00445886 0.00387470
N 7.40578980 9.51177219 19.66705666 -0.00314676 0.00712937 -0.00087997
N 10.90148179 10.83222547 22.56310646 -0.00314339 -0.00573255 -0.00263717
N 12.05434578 7.55862697 19.90446545 0.00535138 0.00257293 -0.00437285
N 9.44278675 7.03829733 22.58589796 0.00808936 -0.00463531 -0.00820605
N 7.72748054 15.27024704 0.99845519 0.00212776 -0.00208451 -0.00146285
N 10.35367850 17.24582431 3.92946799 -0.00353498 0.00087302 -0.00179102
N 11.74292811 14.39202082 0.96720660 0.00508546 0.00824074 -0.00158207
N 8.94237405 12.18246467 3.76673886 0.00007122 0.00362546 -0.00139058
N 7.81705198 15.18885713 5.82767996 -0.00341843 -0.00337055 -0.00796201
N 10.42505512 17.37659595 8.83169347 -0.00022535 -0.00183888 -0.00097415
N 11.79206025 13.94697940 5.72578833 0.00506852 0.00136975 -0.00330480
N 9.17964138 12.11221627 8.44120734 0.00300719 0.00159782 -0.00099229
N 7.70731427 14.92309616 10.56991456 0.00166196 -0.00244262 -0.00173806
N 10.27982670 17.30582900 13.34114692 -0.00276323 -0.00255415 0.00182031
N 11.57708765 13.98172268 10.62350721 0.00452699 -0.00341450 0.00056339
N 9.05271267 12.35491020 13.05645501 0.00313066 0.00674478 0.00502958
N 7.43029428 15.26716024 15.28664597 0.00052416 -0.00356957 -0.00016546
N 10.44129123 17.27072573 17.83200446 0.00337377 -0.00194273 -0.01362159
N 11.35166230 14.26315706 15.31529382 0.00614706 -0.00295227 -0.00120566
N 8.80157525 12.21684068 17.71997421 -0.00095647 -0.00357821 -0.00361014
N 7.58251059 15.28963679 19.84901221 0.00076592 -0.00142567 0.00363881
N 10.42454495 17.41066989 22.58185644 0.00353189 -0.00621801 0.00214163
N 11.93363526 14.09379005 19.73755946 0.00130318 -0.00424009 0.00219944
N 9.38139921 12.53525202 22.55601179 -0.00292154 0.00173813 0.00265817
N 7.26343150 22.09063758 0.85081525 0.00676978 0.00167276 -0.00471605
N 9.65803378 23.87440161 3.52574309 -0.00336125 0.00574534 0.00222025
N 11.13274908 20.83263058 0.99637856 0.00090301 0.00192480 -0.00053025
N 8.39357171 18.54206302 4.21819080 0.00065013 -0.00310843 -0.00388276
N 7.02137199 22.00394757 5.82532778 0.00293533 -0.00526946 0.00532224