2000
Time=53000.00000004 pbc="T T T" Lattice="31.12661544 0.00000000 0.00000000 0.00000000 30.00339547 0.00000000 0.00000000 0.00000000 23.70346035" energy=-12041.13054955 virial="-65.57094950 -36.80074673 -16.00464882 -36.80074673 -61.60089905 21.29747539 -16.00464882 21.29747539 -63.84559507" stress="-0.00092867 -0.00170577 -0.00079561 -0.00170577 -0.00064247 0.00102645 -0.00079561 0.00102645 -0.00019514" Properties=species:S:1:pos:R:3:vel:R:3
C 30.16755535 3.82730737 1.78843649 0.00022263 -0.00192901 0.00285072
C 2.59057725 0.64764907 3.04953367 -0.00359294 0.00129895 0.00418276
C 30.26385436 3.42473908 6.33638473 -0.00611279 -0.00395063 0.00407766
C 2.37048204 0.46640921 7.85316836 -0.00013561 -0.00190011 0.00253210
C 30.49925862 3.65735525 11.13286102 -0.00293936 -0.00318740 -0.00495181
C 2.46688019 0.49369574 12.59281472 -0.00363565 0.00157807 0.00600593
C 30.55484822 3.75051672 15.87397706 0.00126331 0.00359015 0.00079809
C 2.45318110 0.53837647 17.31099067 -0.00353414 -0.00419009 0.00685938
C 30.35941646 3.72892274 20.53840886 0.00203815 0.00551487 -0.00031771
C 2.40383644 0.54139509 22.02042013 0.00028821 -0.00192074 -0.00115313
C 30.93400651 9.31661801 1.55680514 0.00113315 -0.00162697 -0.00513419
C 2.63046575 6.23793044 2.95036305 0.00173783 0.00225566 0.00101873
C 30.96903260 9.40935064 6.44013273 0.00312820 -0.00405632 0.00517680
C 2.72621560 5.87116071 7.54737141 -0.00576860 -0.00231520 -0.00518254
C 31.04551799 9.14977453 11.21903974 0.00050294 -0.00028762 0.00435762
C 3.14845043 6.27675587 12.44573214 0.00123826 -0.00421188 -0.00208444
C 30.86991093 9.35453845 15.84422448 0.00488085 -0.00348917 -0.00315995
C 2.63935109 6.11903534 17.32992208 -0.00047939 0.00668700 0.00072722
C 30.67380474 9.08237007 20.62323823 0.00517496 -0.00969123 0.00252670
C 2.84600642 6.22076957 21.95116796 0.00011685 -0.00382223 -0.00010199
C 0.27773050 14.70859304 1.71822471 -0.00851496 -0.00595678 -0.00000539
C 3.29095648 11.92467034 2.98242261 0.00737187 -0.00248403 0.00114082
C 0.24690021 14.86312819 6.59925611 -0.00165017 0.00463863 -0.00775537
C 3.46247323 11.99413791 7.70411403 0.00013112 0.00276194 0.00247182
C 0.12859376 14.85767016 11.25974971 -0.00019857 -0.00023317 0.00044427
C 3.34873302 12.24753063 12.42769749 -0.00091223 -0.00255662 -0.00111081
C 0.12088101 14.73567610 16.23153527 0.00488543 0.00361077 -0.00304848
C 3.12469946 11.69812056 17.23442486 -0.00125868 -0.00785544 0.00449729
C 30.88593473 14.53183935 20.84505803 -0.00153004 0.00285619 -0.00126462
C 3.38193507 12.17164461 21.88114588 0.00279517 0.00153729 0.00442174
C 0.61396840 20.55944641 1.83639742 -0.00694684 0.00466254 0.00442071
C 3.93522569 17.70156392 2.88328733 -0.00242709 -0.00387150 -0.00434102
C 0.74713957 20.29573735 6.45034431 -0.00349573 -0.00113063 -0.00251559
C 3.85913033 17.50062092 7.70301409 0.00418304 0.00698732 0.00548811
C 0.66047760 20.36989048 11.19832282 0.00172330 0.00134805 -0.00290932
C 3.64443612 17.38943081 12.45924613 0.00160460 -0.01177615 0.00180969
C 0.74962678 20.21267136 16.03951126 -0.00106612 -0.00285381 0.00035973
C 3.70397936 17.28528994 17.10627761 -0.00314499 0.00423888 -0.00146820
C 0.52051562 20.32998094 20.64653174 0.00113865 -0.00116893 -0.00232391
C 3.87574805 17.58143967 21.81164295 -0.00124371 -0.00140240 -0.00011533
C 0.28009832 26.80780445 1.77908485 0.00722240 -0.00193283 -0.00154387
C 3.06101768 23.93339455 2.92380322 -0.00034087 -0.00630288 -0.00227837
C 0.01926569 26.86736664 6.40616778 -0.01215781 0.00567305 -0.00643581
C 3.24539215 23.99238875 7.82511106 0.00518817 0.00474033 -0.00057566
C 31.04061121 27.25295310 11.17864248 -0.00500178 -0.00567170 0.00009663
C 3.21858514 24.24512643 12.46999924 -0.00402867 0.00460559 -0.00534405
C 0.03119685 26.90100419 15.90650640 -0.00314913 0.00225481 -0.00196099
C 3.10563731 23.92577741 17.32874361 -0.00435175 -0.00441948 -0.00484492
C 0.14202140 26.99421105 20.90377348 0.00747067 0.00003056 -0.00018767
C 3.09065015 23.73757198 21.90585974 -0.00209192 -0.00003846 -0.00548298
C 5.80187973 3.26029297 1.46600820 -0.00018868 -0.00065856 -0.00026601
C 9.01778464 0.27867959 2.95333158 0.00226724 0.00099260 0.00318716
C 6.09173331 3.42781826 6.23240853 0.00253880 0.00531063 0.00097008
C 9.04460411 30.00062101 7.74442523 0.00109401 0.00302284 0.00230250
C 6.05100237 3.40463673 11.18249518 0.00042631 0.00406997 0.00267282
C 9.27410371 0.14729455 12.37753475 0.00899152 -0.00607115 0.00083053
C 6.03461529 3.22242054 15.79919881 -0.00008815 -0.00541891 -0.00191574
C 9.17727884 29.95163962 17.12398695 0.00018229 0.00032591 -0.00069245
C 5.73194654 3.26046434 20.55261081 0.00033749 0.00573388 0.00507230
C 9.22827966 0.24170813 22.02923692 0.00609055 -0.00099513 0.00197734
C 6.29416311 8.77770894 1.87739773 -0.00087577 0.00048672 -0.00129665
C 9.30495578 5.81804121 3.08953362 0.00361829 0.00697015 0.00005541
C 6.56751228 8.75744873 6.34136536 0.00387724 -0.00652631 0.00051841
C 9.62723776 5.80947723 7.83940255 -0.00339540 0.00029889 -0.00166000
C 6.10442903 8.83799250 11.09124070 0.00028175 0.00555457 -0.00257514
C 9.31651698 5.96571120 12.60271555 0.00000934 -0.00553557 -0.00414738
C 6.25091261 8.71809511 16.08979331 0.00130219 0.00110396 0.00380107
C 9.20795289 5.89931262 17.30214138 -0.00595509 0.00129695 -0.00400834
C 6.18150989 8.91427701 20.80750067 0.00229814 0.00198944 0.00248766
C 9.45258315 6.05784727 22.26313108 -0.00205020 0.00128742 -0.00120477
C 6.83506882 14.38047483 1.57405203 -0.00358017 -0.00499338 -0.00655262
C 9.80477337 11.45619651 3.02641248 0.00640225 0.00526095 -0.00173888
C 6.98966353 14.46832756 6.22761588 -0.00231626 -0.00176910 -0.00483238
C 10.04703938 11.26588979 7.67776273 -0.00063971 -0.00155819 0.00003159
C 6.87626591 14.45333212 11.26547714 0.00478519 0.00113967 -0.00329189
C 9.85712894 11.51141149 12.41711170 0.00303948 0.00118065 -0.00036857
C 6.84205973 14.42934282 15.84206844 0.00119039 -0.00482003 -0.00125959
C 9.92060228 11.24045570 17.12088064 0.00494540 0.00133398 0.00029992
C 6.77684625 14.35152058 20.62845033 0.00520999 0.00120824 -0.00174329
C 10.02532885 11.17924533 21.90900752 0.00241592 -0.01100793 -0.00821762
C 6.23785031 20.86327045 1.71164348 0.00022665 -0.00112978 -0.00164532
C 9.49441625 18.21817250 2.95572883 -0.00173936 -0.00326203 0.00516419
C 6.26083666 21.15511015 6.48831136 0.00496127 -0.00103583 -0.00170340
C 9.56032551 18.17276183 7.76146116 -0.00587450 -0.00110096 -0.00346014
C 6.13853120 20.94549256 11.16644442 0.00210379 -0.00121069 -0.00377925
C 9.35111663 18.01537114 12.48584249 -0.00623612 0.00978460 -0.00039925
C 6.28426006 21.13160082 16.00040136 -0.00126309 -0.00053865 -0.00071991
C 9.84936922 18.18408864 17.27287388 -0.00125855 0.00247818 -0.00133439
C 6.41830471 21.02407899 20.67054556 0.00841791 0.00737012 0.01278748
C 9.37721541 17.92129461 22.08781222 0.00177390 -0.00199484 0.00302085
C 5.66319492 27.47638682 1.50653044 -0.00222463 0.00435980 0.00405410
C 8.70311700 24.62434366 2.93063474 0.00137558 -0.00208264 0.00440613
C 5.63902380 27.71253559 6.45605933 -0.01577157 0.01343253 0.00463433
C 9.00843482 24.86651493 7.88218519 -0.00109794 0.00572730 -0.00026506
C 5.77120967 27.82831167 11.03715484 0.00059047 0.00208644 0.00554759
C 8.81718779 24.71929085 12.55997115 0.00206796 -0.00214412 0.00237453
C 5.60588607 27.65158594 15.88878575 0.00026354 0.00020800 0.00291377
C 9.02459817 24.62496991 17.09940737 0.00217298 -0.00111099 -0.00507141
C 5.56562035 27.46035886 20.56224386 0.00260183 0.00074068 -0.00781117
C 8.78264855 24.64701262 21.85069673 0.00393647 -0.00471574 -0.00246403
C 12.56134225 2.66030521 1.60754034 -0.00769131 0.00150517 0.00208238
C 15.85594293 29.72631776 3.20264476 -0.00100700 -0.01024280 0.00004738
C 12.69994141 2.60469693 6.50338994 0.00155743 -0.00097804 -0.00269466
C 15.92104735 29.69095935 7.89186427 0.00527046 -0.00602785 0.00215391
C 12.79254576 3.09650337 11.22000882 -0.00869800 -0.00086281 -0.00114789
C 15.73081043 0.05171810 12.57111636 0.00245902 -0.00200299 -0.00196139
C 12.52200777 2.88529402 15.99149417 0.00187663 -0.00276429 -0.00413021
C 15.87250217 29.67760996 17.16513624 -0.00133588 -0.00710581 0.00526012
C 12.45604593 2.90259710 20.80883956 0.00061308 0.00634700 -0.00337495
C 15.63227075 29.71643893 22.11145570 0.00317878 -0.00278439 0.00226998
C 13.14572640 8.42743154 1.50889476 -0.00352139 -0.00701053 -0.00577090
C 16.01936337 5.45166755 3.02236699 0.00485599 -0.00173126 0.00311841
C 13.13412738 8.36778067 6.32313375 -0.00102072 -0.00384620 -0.00515894
C 16.03809005 5.56637303 7.59217258 0.00373045 0.00325102 0.00548757
C 13.20737529 8.37178534 11.09539308 0.00317532 0.00303894 0.00722026
C 16.33367116 5.50605523 12.43007055 -0.00091789 0.00649066 0.00578348
C 13.29620734 8.36282542 15.87568327 0.00568507 -0.00326314 0.00464183
C 15.89780335 5.34035895 17.15807568 0.00302093 -0.00222977 -0.00088238
C 13.02253817 8.39308965 20.78920852 0.00563875 -0.00215352 -0.00221605
C 16.16999354 5.47893432 21.96305168 0.00272401 -0.00513431 -0.00447346
C 12.59029014 14.84524588 1.81428340 -0.00457894 -0.00517324 -0.00287412
C 15.47694573 12.17568473 3.23938899 -0.00362989 0.00241258 -0.00826691
C 12.53047856 14.95991296 6.36016247 0.00569251 0.00060583 -0.00581687
C 15.45195104 11.87049453 7.85625733 0.00277763 0.00120286 0.00363650
C 12.29515170 14.95834952 11.27719861 0.00200122 0.00146690 -0.00377014
C 15.47184594 12.31798605 12.52228053 0.00151543 -0.00136860 0.00018814
C 12.38602258 14.95444941 15.93482530 0.00438261 -0.00041897 0.00310990
C 15.65375452 12.08189798 17.15139400 -0.00277016 0.00409447 -0.00224470
C 12.44857235 14.61890197 20.64989374 -0.00039559 0.00000871 0.00271360
C 15.59344896 11.97334727 22.17486690 0.00110233 -0.00728529 0.00004252
C 11.73307681 21.50909631 1.52803815 0.00353428 -0.00297129 -0.00369553
C 15.08166460 18.67335143 3.19762924 0.00037782 0.01040489 -0.00415556
C 11.78125928 21.51709044 6.53920683 0.00597371 0.00117690 -0.00331884
C 14.65472649 18.32162644 7.77596983 -0.00031071 -0.00300487 -0.00037346
C 11.67470945 21.66400900 11.21775184 0.01201204 0.00312352 0.00670143
C 14.86131562 18.54245907 12.44970092 0.00338454 -0.00210632 0.00321177
C 12.03888167 21.62681603 15.92609148 0.00308465 0.00747561 -0.00119971
C 15.06592276 18.49612697 17.37810060 0.00461529 -0.00202406 0.00220098
C 11.97336603 21.75301895 20.63702482 0.00028244 -0.00216479 0.00431728
C 15.12665539 18.30986090 22.02795914 0.00141299 -0.00432384 0.00039208
C 12.17629447 27.09683194 1.79143088 -0.00361388 0.00387882 0.00038903
C 15.23912638 23.95699273 3.03757527 -0.00566444 0.00584094 0.00664355
C 12.32747617 26.98670954 6.54556224 -0.00588295 -0.00108592 0.00036299
C 15.38633522 24.14744896 7.86093193 -0.00735241 0.00233552 -0.00116931
C 12.50469228 27.36078081 11.25824901 -0.00502862 0.00150712 -0.00491069
C 15.38750391 24.43231300 12.62102144 0.00034197 -0.00205351 -0.00423996
C 12.40626418 27.23598960 16.15089924 0.00247571 0.00057936 0.00419431
C 15.54254350 23.96744679 17.22890583 0.00236880 0.00094164 0.00229523
C 12.24562610 27.22093783 20.73141031 -0.00047672 0.00101243 0.00400274
C 15.42100355 24.00433370 21.86808475 0.00059614 0.00129600 0.00430987
C 19.43009477 2.14998275 1.68535390 0.00387458 -0.00080694 0.00033089
C 22.11847990 29.26571816 3.04207479 -0.00060569 -0.00384228 -0.00570111
C 19.29663239 2.33875746 6.46279814 0.00496561 0.00248391 -0.00090372
C 22.30567711 29.44970610 7.69781716 -0.00047052 -0.00403869 0.00574708
C 19.25543471 2.50429788 11.11841202 0.00386119 -0.00294023 -0.00000530
C 22.20505091 29.45083255 12.38119275 0.00992643 -0.00398471 -0.00464972
C 19.48428365 2.40669044 15.80044168 0.01003131 -0.00556468 -0.00423260
C 22.28642723 29.45213744 17.34718492 0.00549932 0.00053769 0.00066331
C 19.33303438 2.35218550 20.73000591 -0.00141157 0.00689650 -0.00097917
C 22.45525579 29.37786028 22.00390669 -0.00154953 -0.00640552 -0.00280299
C 18.52300279 9.31926187 1.78591574 -0.00459318 -0.00252847 -0.00429682
C 21.81675453 5.83243354 3.00236373 0.00143387 -0.00402026 0.00212534
C 18.45090569 8.88903873 6.56298722 0.00052760 0.00348459 -0.00023905
C 21.64086881 5.91575987 7.62759863 0.00196156 0.00140013 -0.00380650
C 18.89436583 9.07706602 11.26709353 0.00229571 -0.00056490 -0.00199702
C 21.65222039 5.93751702 12.43049579 0.00223574 -0.00088733 -0.00561211
C 18.84131688 9.02310322 15.88332363 -0.00053555 -0.00509218 -0.00035054
C 21.61193879 6.17111216 17.05477164 0.00068846 0.00671600 0.00811284
C 18.72699064 9.17838176 20.65714566 -0.00077928 -0.00092288 0.00266615
C 21.66447859 5.86438099 22.13355203 0.00849302 0.00057245 -0.00218465
C 18.20599160 15.77510887 1.69159085 -0.00542739 -0.00105411 -0.00875332
C 21.14853650 12.76961758 2.76680139 0.00280232 0.00469301 0.00259209
C 18.19569174 15.51205860 6.47136042 0.00003705 -0.00343277 0.00360873
C 21.23373388 12.72950690 7.51268685 0.00232647 0.00103018 0.00415210
C 17.97193686 15.81703523 11.16270976 0.00285835 0.00642482 -0.00376264
C 21.05666454 12.53768029 12.31131335 -0.00134859 0.00335672 0.00020057
C 18.18703871 15.85239666 15.82018864 -0.00505761 0.00554656 0.00283821
C 21.31060935 12.50907659 17.17439724 0.01155596 0.00610871 0.00055783
C 18.16671012 15.54810527 20.54387843 0.00143424 0.00020073 -0.00038999
C 21.43020411 12.55247259 21.82753046 0.00617053 0.00391560 0.00448378
C 18.65344796 21.15123512 1.70495262 0.00206877 0.00016275 -0.00275163
C 21.74028217 18.30501835 3.01384113 -0.00389222 0.00718377 -0.00868284
C 18.71972267 21.46756048 6.45770461 -0.01031888 0.00330143 0.00910640
C 21.48617407 18.16839452 7.81911858 -0.00073658 -0.00158882 0.00377071
C 18.32674966 21.49019886 11.22146415 -0.00374393 0.00138349 -0.01353030
C 21.57766611 18.38467651 12.54258889 -0.00809130 -0.00538454 -0.00235480
C 18.38837973 21.12161620 15.90975351 0.00491376 0.00043273 0.00024600
C 21.74724244 18.31546506 17.30327605 -0.00297285 -0.00242873 0.00115950
C 18.68727688 21.01564762 20.64447885 0.00121002 -0.00472637 -0.00151077
C 21.46577616 18.20383398 21.94879581 -0.00194260 0.00346482 0.00479104
C 18.85189441 26.55847248 1.71533389 0.00221146 0.00477875 -0.00075499
C 22.45494807 23.62475399 3.24546113 -0.00175658 -0.00134067 0.00532390
C 19.08733971 26.57289251 6.62503096 0.00080430 -0.00285082 -0.00527884
C 22.10402853 23.72613440 8.05191336 -0.00185080 0.00228730 -0.00397908
C 18.90533217 26.72077778 11.28503143 -0.00046291 0.00201147 0.00312431
C 21.85604734 23.63927851 12.69479883 -0.00570444 0.00575997 -0.00062009
C 18.91716919 27.05141956 16.02380818 0.00136611 -0.00229322 -0.00275823
C 22.09862447 23.80627267 17.45823328 -0.00082325 0.00369862 -0.00084071
C 18.62262061 26.70110482 20.70492059 0.00707015 0.00261450 -0.00380408
C 22.10423132 23.76507430 22.12302012 0.00166594 -0.00287397 -0.00178695
C 25.13881304 3.10199287 1.53455928 -0.00312708 -0.00735586 0.00544488
C 27.98917004 29.93903569 3.15208922 -0.00134063 -0.00009072 0.00098445
C 24.77418599 2.82735480 6.49317498 0.00666071 -0.00025181 -0.00104926
C 27.94155514 29.80782698 7.81110618 0.00416138 -0.00401142 0.00291346
C 24.97350805 3.17586176 10.94277487 -0.00617171 -0.00810995 -0.00037502
C 27.87542447 0.39077340 12.33929924 -0.00072198 0.00220050 -0.00259835
C 24.94484634 2.82084082 15.88676054 -0.00396994 0.00255713 0.00213063
C 28.16189701 29.96260479 17.21554797 -0.00317958 -0.00891303 0.00526243
C 24.79224493 3.12900080 20.56842714 -0.00189627 -0.00136058 -0.00432771
C 27.97765034 29.83161052 22.25668949 -0.00223128 -0.00806701 0.00134613
C 24.34377558 9.45974154 1.82390669 -0.00042668 0.00199077 -0.00134289
C 27.39854455 6.63033467 3.16937496 0.00044355 0.00637979 -0.00607701
C 23.88821561 9.61771420 6.45480236 -0.01093266 -0.00202821 0.00459017
C 27.61477891 6.60978887 7.71028094 0.00252530 0.00197893 -0.00525832
C 24.42369111 9.42016682 10.98592362 -0.00425242 0.00342666 -0.00796568
C 27.48087150 6.44769593 12.56202349 0.00069821 -0.00163959 0.00228748
C 24.34473428 9.55888843 15.71595962 -0.00182694 0.00107129 0.00094195
C 27.32761498 6.55849384 17.30754063 0.00240588 0.00804531 0.00580894
C 24.24667794 9.59132205 20.60877918 0.00705789 0.00333786 -0.00043328
C 27.27378683 6.62533923 21.91921129 0.00222795 0.00275670 0.00213643
C 24.70541545 15.30408310 1.80123907 0.00340655 0.00226738 0.00032259
C 27.81500785 12.20972725 3.11081949 -0.00014247 0.00365094 -0.00060999
C 24.53109696 14.92584959 6.45982324 0.00122318 -0.00091378 0.00012258
C 27.81236956 12.01901016 7.82933048 -0.00573836 -0.00224836 -0.00113831
C 24.70958476 15.01512393 11.01408962 0.00132118 0.00503789 0.00327327
C 27.67796891 12.36332940 12.46172299 -0.00014087 -0.00585385 0.00921946
C 24.54526295 15.34745977 15.76639572 -0.00001109 -0.00523725 -0.00039487
C 27.74738488 12.12735538 17.26662083 -0.00049761 -0.00487140 0.00209590
C 24.77617971 15.19351373 20.64934471 -0.00446159 -0.00267446 -0.00174924
C 27.65905560 12.05105396 21.93368047 0.00325436 0.00169141 -0.00421758
C 24.92101025 20.81176450 1.85498850 -0.00338073 -0.00231179 0.00038259
C 28.19220824 17.39582923 3.00446117 0.00388727 0.00258135 -0.00318317
C 25.11656452 20.71734202 6.54997992 0.00100395 0.00926673 -0.00180673
C 28.15411784 17.72459753 7.73266177 -0.00368762 -0.00135394 0.00862436
C 25.46812676 20.61087192 11.35518295 0.00164915 -0.00376942 0.00252008
C 28.33314458 17.77300133 12.48538614 0.00501257 0.00034737 -0.00987369
C 25.16862694 20.85799117 16.00693347 -0.00187514 0.00565324 -0.00393749
C 28.03287063 17.68054308 17.34325409 -0.00026469 0.00583150 -0.00085181
C 25.16978393 20.89621580 20.84292472 -0.00119475 0.00228822 0.00206381
C 28.25018282 18.12680969 22.05705170 0.00051755 0.00056221 0.00084847
C 25.63967774 26.68011064 1.97075665 -0.00263728 -0.00648065 -0.00216551
C 28.44337691 23.49760088 3.23197306 0.00143473 -0.00065695 -0.00905191
C 25.50462232 26.13422023 6.69401410 0.00477880 -0.00562759 -0.00097339
C 28.67551092 23.21610397 7.94453353 -0.00196224 -0.00032358 0.00049545
C 25.59024967 26.46750870 11.23736753 0.00033218 0.00398867 -0.00534236
C 28.73240524 23.57342166 12.57427820 0.00588228 -0.00041693 0.00005137
C 25.30281469 26.40906222 16.04056439 0.00431211 0.00627185 0.00126439
C 28.59203754 23.46101130 17.28726975 0.00957344 -0.00275863 0.00468787
C 25.81602836 26.24115523 20.76743761 -0.00787316 0.00190126 -0.00616608
C 28.58869410 23.52776788 22.08524434 -0.00214501 0.00143130 0.00296544
N 30.97306748 4.69240535 1.11766543 0.00164194 0.00451550 0.00280074
N 3.35662183 5.35404333 3.62489416 -0.00159148 -0.00336350 0.00018740
N 5.02153838 2.35426439 0.88035146 0.00115040 0.00112061 -0.00180988
N 1.74517540 1.45345549 3.72785959 0.00417554 -0.00331491 -0.00704023
N 30.84143302 4.37604435 5.60449994 -0.00042851 0.00493662 -0.00893801
N 3.34863412 5.01215921 8.43465400 -0.00794346 -0.00247713 0.00496139
N 5.27416740 2.76064278 5.42872238 0.00555664 0.00126463 0.00118213
N 1.50407069 1.24495229 8.61224557 -0.00034975 0.00086241 0.00230257
N 0.18585336 4.52664710 10.49962110 0.00052510 0.00170925 0.00002822
N 3.66694653 5.15104626 12.93854331 0.00084577 -0.00152774 0.00024740
N 5.30474316 2.51059801 10.44421873 0.00223600 0.00238928 -0.00234970
N 1.66971718 1.32080990 13.35236538 -0.00117376 -0.00100552 -0.00478977
N 0.18570531 4.53086730 15.09377617 0.00043954 -0.00035363 -0.00131756
N 3.36893511 5.15939307 17.97501144 -0.00127587 -0.00068336 -0.00381741
N 5.44951981 2.36176578 15.00887455 -0.00098456 -0.01052850 -0.00438217
N 1.42441918 1.25641878 17.89399334 -0.00291013 -0.00109166 -0.00320404
N 31.02634419 4.62547583 19.77295143 -0.00290645 0.00043935 -0.00410333
N 3.27196883 5.14947710 22.70022728 -0.00071658 -0.00047774 0.00475956
N 5.18841250 2.33477353 19.72177264 -0.00288693 0.00223228 -0.00540359
N 1.51586260 1.30931189 22.69720981 -0.00518593 -0.00205346 0.00600422
N 0.58490495 10.12710678 0.75787234 0.00168624 0.00723550 0.00047747
N 4.11370362 10.96653030 3.55784235 0.00139801 -0.00063970 -0.01069913
N 5.36010012 7.95967479 1.26893479 0.00621119 0.00279213 0.00406017
N 2.22444481 7.33778937 3.64168767 -0.00018555 -0.00171246 -0.00467591
N 0.53004266 10.36361278 5.82369033 -0.00197142 0.00113634 0.00420214
N 4.17798219 11.02685231 8.37120703 -0.00109594 -0.00443412 -0.00288399
N 5.95612503 7.86474724 5.60566757 0.00400731 -0.00053310 0.00057394
N 2.29989950 7.05999741 8.10379072 -0.00295689 -0.00026127 0.00131390
N 0.51029887 10.16832058 10.53913108 -0.00607332 -0.00043055 0.00015696
N 4.18735336 11.31957415 13.07190805 -0.00161147 -0.00723353 0.00174622
N 5.46730036 8.03281633 10.23878288 -0.00053762 -0.00277234 0.00611845
N 2.55039703 7.15716386 13.35502836 0.00130576 0.00074589 -0.00555910
N 0.64894934 10.24546906 15.24761764 -0.00448591 -0.00385140 0.00974224
N 3.88440881 10.78140044 17.89132574 0.00719629 -0.00439301 0.00103187
N 5.57778515 8.02133303 15.11093561 -0.00036388 -0.00152610 0.00346169
N 2.13443218 7.12842821 18.09438453 0.00066328 -0.00638407 0.00313436
N 0.44644185 9.97224423 20.08899678 -0.00067297 0.00524996 -0.00247371
N 3.66819501 11.07413558 22.64211065 0.00808447 -0.00610140 -0.00036007
N 5.57596802 7.93920689 20.13491633 0.00409053 0.00433559 0.00676781
N 2.18640111 7.20187797 22.63404883 -0.00390775 0.00820113 0.00096979
N 0.90034933 15.55222620 0.92595305 -0.00172089 0.00203934 -0.00481103
N 4.63910108 16.75222279 3.53015848 -0.00467956 0.00533648 0.00612390
N 6.05385582 13.61406429 0.75680175 -0.00364238 0.00385110 0.00342096
N 2.65335664 12.73847138 3.89470877 0.00942800 -0.00434424 0.00494854
N 1.12883389 15.64095486 5.83276080 0.00209965 -0.00468651 -0.00289841
N 4.65879330 16.72269864 8.45589297 -0.00089988 -0.00174945 0.00007060
N 6.01887779 13.82632998 5.52462879 0.00176738 0.00571293 0.00921617
N 2.58652069 12.76313831 8.42069332 -0.00633215 0.00239555 0.00040986
N 0.81599469 15.78498487 10.57975044 -0.00279625 -0.00278774 0.00973650
N 4.31122860 16.49588520 13.20331999 0.00388294 -0.00343933 0.00434560
N 6.19338465 13.64844683 10.44880280 -0.00000937 -0.00289187 -0.00361878
N 2.61196056 13.00124100 13.22326670 -0.00240599 0.00284695 -0.00154002
N 0.68451259 15.69342680 15.46467290 0.00019268 -0.00262279 0.00411602
N 4.74142204 16.59175303 17.69395074 -0.00006228 0.00153401 0.00128531
N 5.98366527 13.62862319 15.13731452 0.00269011 0.00331909 -0.00034195
N 2.59987048 12.73960314 18.00511851 0.00335923 -0.00112162 0.00624381
N 0.62807766 15.46831027 20.31795936 -0.00330923 0.00194262 -0.00044474
N 4.45011116 16.72515555 22.68069617 -0.00347566 -0.00540921 0.00812635
N 5.96716038 13.49405766 19.95948142 0.00203168 -0.00850623 0.00260367
N 2.70891384 13.14762463 22.49999390 0.00082337 -0.00248843 0.00019422
N 1.47894552 21.46403825 1.15807793 -0.00186138 -0.00200180 0.00313708
N 4.02552895 23.10026282 3.41715986 -0.00135947 0.00091136 0.00213250
N 5.50741626 20.08698320 0.80399258 0.00025868 0.00695406 0.00646740
N 3.16969029 18.52331599 3.67172238 0.00244916 0.00134263 -0.00046747
N 1.57019526 21.06206398 5.64886052 -0.00213161 0.00205573 0.00251215
N 4.24137627 23.40993125 8.59129435 0.00323195 -0.00160037 -0.00345702
N 5.62449927 20.21862581 5.69683445 -0.00066439 -0.00223539 0.00532221
N 2.75822060 18.03873940 8.42097982 0.00111449 0.00358424 -0.00111842
N 1.51561792 21.22993037 10.62219832 -0.00335752 0.00230945 -0.00275555
N 3.96390518 23.42551803 13.30273813 0.00313442 -0.00317745 0.00439087
N 5.20035231 20.31967445 10.45804108 0.00209743 0.00166587 0.00447307
N 2.87267799 18.24684139 13.15773725 0.00082677 0.00290096 0.00279713
N 1.43446035 21.15628113 15.30476767 -0.00391541 0.00349287 -0.00094413
N 4.12431991 23.39942627 18.04925746 0.00136544 0.00322681 0.00077509
N 5.42184494 20.49466296 15.26409582 0.00494171 -0.00062556 -0.00013109
N 2.85817838 17.83759889 17.96691479 0.00371350 -0.00218901 -0.00038876
N 1.53229776 20.93891809 19.96999630 0.00551672 -0.00379611 -0.00343155
N 4.23977933 23.34515255 22.54292595 0.00435926 -0.00272308 0.00127628
N 5.65307888 20.13718165 20.03300009 0.00034868 0.00419253 0.00116146
N 2.95066984 18.45446989 22.46066249 0.00227611 0.00028675 0.00063476
N 0.88179800 27.78346485 1.06454139 0.00878614 -0.00242620 -0.00299274
N 3.44697360 29.89922011 3.85918015 -0.00547276 -0.00111413 0.00318798
N 4.93911941 26.54845365 0.89163182 -0.00039285 0.00730064 -0.00733076
N 2.32703851 24.56829033 3.86464472 -0.00155752 0.00502711 0.00167392
N 0.86328679 27.73422208 5.85436575 -0.00455409 -0.00454871 0.00359805
N 3.09173440 29.50491235 8.57919568 -0.00567100 0.00182300 0.00039416
N 4.97720790 26.66796761 5.82668760 0.00447737 0.00524799 -0.00529156
N 2.34444723 24.54748641 8.60016738 -0.00465995 0.00663073 -0.00375993
N 0.81685283 27.98510957 10.50714994 -0.00157796 -0.00111234 0.00082080
N 3.33986572 29.71650765 13.26871237 0.00612715 0.00398791 -0.00346380
N 4.94629490 27.06213854 10.19378034 -0.00104174 -0.00021854 0.00064283
N 2.15709028 24.84726789 13.01232314 -0.00259276 0.00134430 0.00147926
N 0.77053320 27.88836113 15.25091861 0.00151744 0.00095482 -0.00293680
N 3.19485984 29.75552749 18.23170859 -0.01089386 0.00366289 0.00558413
N 4.75438558 26.97463082 15.07695067 -0.00344274 0.00299152 0.00191757
N 2.21389307 24.68900875 17.99607556 -0.00567865 -0.00059307 -0.00145292
N 0.89156971 27.79421701 20.06576834 0.00077312 -0.00309729 0.00286386
N 3.09098315 29.66991516 22.81013472 0.00411917 0.00797530 -0.00107273
N 4.87603595 26.56460409 19.81278924 0.00167495 0.00083599 0.00275052
N 2.34871491 24.62534003 22.56835179 -0.00533333 -0.00089621 0.00578858
N 6.64457354 4.02477420 0.72706470 0.00030482 -0.00732710 0.00376533
N 9.98239817 4.81056137 3.74679004 0.00415948 0.00058225 -0.00807574
N 11.75371497 1.84122890 0.87436198 0.00003959 -0.00687949 -0.00354050
N 8.45399536 1.26456519 3.72792667 -0.00497617 0.00343237 -0.00448044
N 6.86124777 4.42542166 5.70205603 -0.00242182 0.00640180 -0.00516794
N 10.21649053 4.78132526 8.55619989 -0.00114219 0.00308923 -0.00128770
N 11.89770574 1.84145867 5.73318547 0.00096278 0.00400880 -0.00014852
N 8.59445796 1.10607096 8.44144078 -0.00460898 -0.00146158 -0.00622049
N 6.82047975 4.26633351 10.47142046 0.00108031 0.00519496 0.00684744
N 10.02164858 5.07245283 13.28264437 -0.00102418 0.00311540 -0.00548462
N 11.96509140 2.37310766 10.46113625 0.00279251 0.00442864 -0.00302500
N 8.55452226 0.88931817 13.18743271 0.00272010 -0.00349415 0.00655610
N 6.74684890 4.16582229 15.21139396 0.00501856 0.00318439 0.00115483
N 9.76757941 4.86771800 17.99009782 -0.00027171 -0.00192309 -0.00323754
N 11.98294618 1.97345611 15.17352876 0.00047555 0.00344342 0.00642656
N 8.73265895 1.03166693 17.78114838 0.00197583 0.00001524 0.00241447
N 6.63497413 4.17374837 20.04552408 -0.00055634 -0.00446061 -0.00153321
N 9.87290064 5.02426203 23.04871481 0.00086813 -0.00588832 -0.00082409
N 11.82986161 1.76130670 20.26943933 0.00418327 0.00028048 0.00361108
N 8.63401568 1.16983975 22.79834645 0.00560351 0.00148318 0.00492695
N 6.81240584 9.69775725 1.02681384 -0.00224476 0.00631604 -0.00571394
N 10.58807530 10.58329405 3.67820692 -0.00029266 0.00139488 -0.00296069
N 12.12039657 7.68461422 0.95452574 -0.00352147 -0.00247649 0.00545014
N 9.03868902 6.91274042 3.80555773 -0.00413522 0.00638409 0.00013608
N 7.15507271 9.77961609 5.61996427 -0.00199628 -0.00481684 0.00319472
N 10.81367621 10.55768680 8.49370756 -0.00053751 0.00343519 -0.00195435
N 12.41723647 7.57679669 5.43997999 -0.00149509 -0.00412215 -0.00415975
N 9.01874547 6.81060703 8.55740724 -0.00636958 0.00054893 -0.00865773
N 6.98931232 9.69094011 10.49264175 0.00114643 0.01003487 0.00063999
N 10.80607411 10.63804296 12.98191127 -0.00049865 0.00202865 -0.00148505
N 12.43012307 7.60819835 10.26269814 -0.00284152 0.00149802 0.00113737
N 8.67932844 6.88507331 13.41116391 -0.00591469 0.00376879 0.00487980
N 7.18316408 9.61309769 15.66429745 0.00163483 -0.00615828 -0.00215473
N 10.53430869 10.30482451 17.84116741 -0.00369635 -0.00014234 -0.01256064
N 12.40185349 7.55254666 15.23786512 0.00183056 0.00227507 0.00879084
N 8.66745813 6.83017548 18.11109071 0.00196516 0.00208614 0.00300244
N 6.99268022 9.72219184 20.05106580 -0.00321498 -0.00299977 -0.00393703
N 10.81208970 10.49496480 22.76537431 -0.00119438 -0.00015279 -0.00260295
N 12.46322300 7.35992472 20.07333728 0.01253570 -0.00482451 -0.00405166
N 8.78783189 7.06791419 22.87782346 0.00403469 -0.00202229 -0.00028577
N 7.73607275 15.19983719 0.81079075 -0.00381209 0.00069179 0.00140751
N 10.50263276 17.47167115 3.51037356 -0.00031526 0.00419555 -0.00330551
N 11.61227876 14.32385120 0.98191059 -0.00322124 -0.00361721 0.00239273
N 9.07558834 12.26139391 3.85200015 0.00587308 0.00235946 0.00046014
N 7.89124522 15.18858407 5.58894705 0.00083875 -0.00262960 -0.00035646
N 10.38613366 17.49003653 8.59378912 -0.00295074 0.00183939 -0.00651397
N 11.87753610 13.97335242 5.71561116 -0.00061143 0.00324686 0.00257776
N 9.29197745 12.21290053 8.25662795 -0.00185170 0.00244417 -0.00356576
N 7.76219101 15.29441916 10.71527776 0.00492334 -0.00268648 0.00065075
N 10.40745100 17.47888003 13.14037049 0.00542529 -0.00162880 0.00367929
N 11.45441894 14.27276552 10.41958913 -0.00181249 -0.00343326 0.00603502
N 8.99314590 12.07000734 13.28091091 -0.00456450 0.00557176 0.00026377
N 7.63371828 15.20172086 15.12845663 -0.00399357 0.00127747 0.00212335
N 10.81167023 17.56221010 18.09751867 -0.00036397 0.00432925 -0.00209486
N 11.62342919 14.18147554 15.11762143 -0.00166313 0.00449205 0.00048111
N 8.93824739 11.91852656 17.80386536 -0.00242998 0.00072396 0.00056151
N 7.62261139 15.15272645 19.86519402 -0.00089641 0.00046556 -0.00355095
N 10.34019742 17.38722535 22.90527416 -0.00188565 0.00162209 -0.00047821
N 11.60391598 13.80997623 19.91576693 0.00231079 0.00544139 -0.00047754
N 9.29885103 12.21188789 22.49100358 -0.00364566 0.00484181 0.00723567
N 7.06423299 21.81175951 1.17125453 -0.00104722 -0.00040522 0.00009662
N 9.51108228 23.85210811 3.67366295 -0.00194032 -0.00182727 -0.00631038
N 10.86227175 20.77392638 0.78199230 -0.00108218 0.00190800 0.00097764
N 8.44838820 18.58319628 3.75958553 0.00191146 0.00150623 0.00384968
N 7.03816556 22.06361821 5.79491225 0.00588296 -0.00240308 0.01301511