2000
Time=34000.00000001 pbc="T T T" Lattice="31.23479750 0.00000000 0.00000000 0.00000000 29.89089414 0.00000000 0.00000000 0.00000000 23.64374408" energy=-12042.15413010 virial="-33.45619814 -0.79961023 -23.34171142 -0.79961023 -8.55064696 7.72376502 -23.34171142 7.72376502 6.56013267" stress="0.00064920 -0.00004557 -0.00113684 -0.00004557 0.00175857 0.00041818 -0.00113684 0.00041818 0.00312140" Properties=species:S:1:pos:R:3:vel:R:3
C 30.55635289 3.57325839 1.75445506 0.00326526 -0.00516138 -0.00003182
C 2.64649608 0.64009100 2.94058240 -0.00177267 0.00382553 0.00018137
C 30.56869297 3.55641204 6.42938570 0.00092982 -0.00819669 0.00920671
C 2.52684129 0.62140280 7.81167711 -0.00376335 0.00016057 -0.00078138
C 30.49457595 3.38997214 11.31554294 -0.00034236 -0.00145771 -0.00047551
C 2.55452224 0.47477006 12.58204790 0.00056232 -0.00357698 0.00086489
C 30.63790166 3.57386658 15.83982035 0.00170043 0.00086034 -0.00272563
C 2.31468267 0.55870043 17.15026775 0.00206674 0.00551579 0.00809546
C 30.63352315 3.46319562 20.65886941 0.00795959 -0.00199079 0.00351721
C 2.47491276 0.62373671 21.86943509 -0.00114105 -0.00116446 0.00491364
C 31.15081696 9.03496910 1.74120933 -0.00889403 0.00128049 0.00654755
C 2.76537660 6.31903637 3.07261506 -0.00223010 0.00535356 -0.00463453
C 31.07958253 9.13745846 6.49214655 0.00754066 -0.00047956 0.00095894
C 2.89585925 6.20913455 8.02745376 0.00372365 0.00038730 0.00087187
C 31.03099029 9.16095715 11.42475424 -0.00409224 -0.00255875 -0.00405057
C 3.00913986 6.09708522 12.46489349 -0.00567839 0.00172534 -0.00157286
C 31.06374987 9.17602202 15.89921804 -0.00001712 0.00074947 -0.00048356
C 2.78303068 6.09078274 17.13665362 -0.00290320 0.00888909 -0.00352930
C 31.09027555 9.16421100 20.64202946 -0.00131260 -0.00529372 -0.00812928
C 2.81307608 6.09150985 21.91921045 -0.00511351 0.00394777 0.00264384
C 0.30663964 14.60813311 1.54290820 -0.00219809 -0.00307855 -0.00236246
C 3.58781551 11.84986881 3.25258052 0.00632907 -0.00540452 -0.00557961
C 0.09371822 14.40810943 6.36636450 -0.00259130 0.00006344 0.00291144
C 3.48607357 11.74709846 7.88171256 0.00216256 0.00107741 0.00064668
C 0.25106290 14.75035578 11.07788580 -0.00108320 0.00093890 0.00894394
C 3.34454357 11.85590644 12.51302470 -0.00180774 0.00435569 -0.00170929
C 0.29093158 14.89631398 15.91743806 -0.01069087 0.00460168 0.00282396
C 3.42061340 11.83965427 17.17134486 -0.00448260 0.00494303 0.00969344
C 31.18524649 14.77277704 20.53527492 0.00137447 0.00426208 -0.00432137
C 3.52679436 11.68886240 21.76793338 -0.00028987 -0.00316298 0.00333064
C 0.62868866 20.19362510 1.71606892 0.00529984 0.00203549 -0.00070966
C 3.57332356 17.15322323 2.98037741 0.00248825 0.00438706 0.00123064
C 0.38358338 20.22620508 6.43511742 0.00607857 0.00608096 -0.00141627
C 3.80289619 17.57362177 7.72221953 0.00222417 -0.00281456 0.00025879
C 0.59110610 20.13693647 10.97517040 0.00664750 -0.00122276 -0.00122059
C 3.78919598 17.46773627 12.50627335 0.00587925 0.00055753 0.00377837
C 0.59066282 20.25696097 15.84273900 0.00200407 0.00519978 0.00014067
C 3.66916452 17.39925996 17.05902723 -0.00289896 0.00379304 -0.00220185
C 0.52645617 20.40080407 20.68389971 -0.00613905 -0.00130041 0.00030821
C 3.51239369 17.23732784 21.93247081 0.00142958 -0.00753998 -0.00227870
C 31.03606296 26.95886542 1.80256809 0.00143170 -0.00668966 0.00020832
C 3.01763562 23.95293416 2.98782213 -0.00341305 -0.00540794 0.00206809
C 0.15948951 26.99838145 6.61285644 0.00127938 -0.00170477 0.00333513
C 2.73172774 23.84075449 7.74001658 -0.00467928 0.00376697 0.00099119
C 31.16941149 26.96756669 11.27280805 0.00511927 -0.00498310 -0.00509315
C 3.25464451 24.06060161 12.50272330 0.00379864 0.00037493 0.00403235
C 0.12894619 26.64038631 15.78680953 -0.00023384 -0.00089618 0.00058960
C 2.89663785 23.90953515 17.30299100 0.00329966 -0.00135309 -0.00187975
C 0.35746715 27.19284474 20.53051014 -0.00195128 0.00642272 0.00249439
C 3.16481408 23.96834773 21.76196187 -0.00082999 0.00355872 -0.00672386
C 6.06819389 3.15199547 1.63970523 -0.00583918 0.00605340 0.00387584
C 9.19774617 0.10254231 2.99330597 -0.00543265 0.00207752 0.00160200
C 6.04546715 3.21460856 6.44907822 -0.00188598 -0.00719408 -0.00350337
C 9.24694382 0.20627230 7.71302859 -0.00363818 0.00288224 0.00656803
C 6.04433757 3.18433805 11.16332586 -0.00197111 0.00155881 0.00246112
C 8.92518007 29.80822824 12.40349742 -0.00193182 -0.01001938 0.00140366
C 6.10592082 3.06420541 16.03901748 0.00706976 -0.00645891 -0.00129323
C 9.28239433 0.02162024 17.03705677 0.00343794 0.00139708 0.00244961
C 5.93282077 3.23388430 20.50284481 0.00435190 -0.00189729 0.00496438
C 9.18198166 0.08637206 21.89699547 -0.00468376 0.00419366 -0.00191857
C 6.35113019 8.46307595 1.56775414 -0.00216034 -0.00192018 0.00148852
C 9.62462865 5.68988664 2.98462798 -0.00408295 0.00026457 0.00276933
C 6.25809071 8.57011784 6.51456763 -0.00196437 -0.00405530 0.00028771
C 9.54414490 5.84041437 7.69173405 0.00300921 0.00048512 -0.00015572
C 6.39836618 8.43765317 11.04517198 -0.00012889 -0.00126363 -0.00038625
C 9.45462201 5.70026310 12.41956221 0.00387412 -0.00232448 0.00345959
C 6.51588039 8.78721504 15.83213683 0.00307132 0.00577059 -0.00084006
C 9.59189213 5.59255283 17.20708221 0.00230220 -0.00388467 -0.00219883
C 6.54685616 8.71720767 20.65927991 0.00808210 -0.00048017 -0.00052025
C 9.58554239 5.62911819 21.90421308 -0.00277287 0.00558118 0.00740079
C 6.86827424 14.46085585 1.80082384 -0.00459433 0.00489828 -0.00468935
C 9.74032953 11.31149487 3.18228805 0.00146730 -0.00177300 0.00109835
C 6.83853008 14.35985978 6.50532078 -0.00429549 -0.00566509 0.00176463
C 9.89221833 11.26244985 7.87362360 0.00567390 -0.00127599 -0.00714167
C 6.84070184 14.43157906 11.13967916 0.00085294 0.00293628 -0.00287935
C 9.88637330 11.41233999 12.57405350 -0.00168947 -0.00895761 -0.00473597
C 6.92378219 14.19235047 16.04865115 0.00329115 0.00413315 -0.00272091
C 9.99085277 11.13821812 17.28136711 0.00483848 -0.00008959 0.00002839
C 7.15958515 14.29315670 20.81993997 0.00350881 -0.00472173 0.00032422
C 9.80104583 11.43773377 22.05457693 0.00022578 -0.00061454 0.00814157
C 6.20685902 20.78025734 1.86468574 -0.00386635 -0.00369022 -0.00282261
C 9.04034891 17.75122031 3.04606463 0.00827507 -0.00060310 0.00036241
C 6.15904449 21.08974017 6.46527176 -0.00297872 0.00431696 0.00079273
C 9.24254810 17.95496714 7.78092579 -0.00293815 0.00174434 -0.00182401
C 6.38979888 21.34949950 11.06963015 -0.00313914 -0.00203867 0.00687223
C 9.33665171 18.07848164 12.43124554 -0.00221313 0.00277708 -0.00289116
C 6.22124097 21.00087753 15.70561811 -0.00093111 -0.00293216 -0.00231899
C 9.28091482 17.91880385 17.15697729 -0.00332418 0.00072092 -0.00120690
C 6.30582226 20.77961617 20.53194350 -0.00201871 -0.01205675 0.00513232
C 9.39579687 18.21275464 21.90822969 0.00608181 -0.00357733 0.00318669
C 5.58468757 27.55287204 1.58569090 0.00076385 0.00226872 0.00949105
C 8.89881655 24.49779738 2.96564837 -0.00108561 -0.00262816 -0.00089847
C 5.37004535 27.56867071 6.33269616 0.00499218 0.00366288 -0.00269910
C 8.97047106 24.63456856 7.61001658 -0.00583885 0.00414600 0.00585122
C 5.58187910 27.46640636 11.13413761 0.00004594 0.00167169 0.00493782
C 8.91009313 24.52370674 12.48131224 -0.00405707 0.00175417 0.00049637
C 5.58247248 27.61902538 15.99817383 0.00294979 0.00268342 0.00187047
C 8.83925416 24.53418758 17.20502696 0.00643119 -0.00112807 0.00378169
C 5.61085954 27.37055141 20.52986158 0.00420857 0.00455191 -0.00298582
C 8.75836484 24.60370720 21.96178925 0.00682150 -0.00236821 -0.00491807
C 12.59192101 2.44270101 1.74669043 -0.01047344 -0.00104381 -0.00394908
C 15.81851715 29.88957629 3.13121672 0.00110656 0.00025690 -0.00124853
C 12.65880466 2.82621964 6.49198680 -0.00615458 -0.00116984 0.00715251
C 15.80460703 29.73223717 7.80282896 0.00069277 0.00083711 -0.00380523
C 12.69692731 2.93240897 11.19441669 0.00374045 0.00014079 0.00214970
C 16.09605616 29.87864261 12.45378501 0.00964867 -0.00202052 0.00614689
C 12.61799161 2.75112617 15.85822078 -0.00338051 0.00077681 0.00190684
C 15.79094276 0.04551440 17.36838697 -0.00278278 0.00123301 -0.00252210
C 12.57026876 2.57931678 20.57213361 -0.00503670 0.00075289 -0.00272720
C 15.79809685 29.88321324 21.93897865 -0.01231870 0.00044959 0.00084605
C 12.92469205 8.47589788 1.83659444 -0.00360806 -0.00148793 0.00507012
C 16.25477226 5.35250812 3.05374648 -0.00434194 -0.00281363 -0.00131616
C 13.24852367 8.25608240 6.34705049 0.00309475 0.00025249 0.00533410
C 16.27788239 5.58399542 7.76971566 0.00207318 -0.00300870 0.00198800
C 12.67260374 8.49976990 11.18004311 0.01107824 0.00149740 0.00339713
C 16.04253421 5.55762043 12.57829743 -0.00712565 -0.00036782 0.00006810
C 13.07156840 8.38498391 16.00361880 -0.00255176 -0.00350698 0.00278787
C 16.38039331 5.61288402 17.33617458 0.00170559 -0.00710049 0.00238357
C 13.04869081 8.31400081 20.69859464 -0.00293260 -0.00767105 0.00037106
C 16.48788969 5.61562059 21.93930298 -0.00314328 -0.00022129 0.00476410
C 12.30363471 15.06734233 1.69382322 -0.00198678 0.00263043 0.00060870
C 15.55360233 11.90258999 2.96156127 -0.00116052 -0.00297084 0.00416477
C 12.39327601 14.89366779 6.48496886 -0.00098212 0.00316930 -0.00173155
C 15.58929050 11.94059656 7.57723769 -0.00119367 -0.00132103 0.00009819
C 12.42576137 15.20919562 11.08111632 -0.00076252 -0.00141558 -0.00320674
C 15.32292128 12.07465640 12.44645267 0.00188745 -0.00319716 0.00309581
C 12.40702360 15.19504130 15.79729273 0.00314342 0.00123546 -0.00160728
C 15.64820943 11.92423712 17.20053449 -0.00262224 -0.00862916 -0.00109857
C 12.77418703 15.02866564 20.65981825 -0.00387865 0.00186496 0.00619069
C 15.53368221 11.84702006 22.04037770 -0.00405252 -0.00100602 -0.00685810
C 11.78514396 21.32015781 1.72102170 0.00460501 -0.00138133 0.00917894
C 14.82633319 18.39731116 3.06524902 -0.00968971 0.00094397 -0.00107080
C 11.75031898 21.49243550 6.41236936 0.00024854 0.00764463 0.00152532
C 15.18691239 18.42208090 7.75936256 0.00599852 -0.00339276 0.00373927
C 12.06185195 21.65143059 11.14928997 -0.00242452 -0.00393613 0.00442240
C 15.01671259 18.36061020 12.45735159 0.00625319 0.00069013 0.00285819
C 11.97467205 21.35939368 15.86892155 -0.00228559 -0.00294420 0.00136856
C 15.00429687 18.66794505 17.28139314 -0.00399182 -0.00231161 -0.00174933
C 12.01539992 21.85418026 20.69192352 0.00782830 0.00146258 -0.00141134
C 15.06008998 18.32177217 21.91994694 0.00178609 -0.00579290 -0.00118219
C 12.53842499 27.28518758 1.68154180 -0.00070840 -0.00060181 0.00494570
C 15.48703785 24.18311565 3.07231067 -0.00450196 0.00330638 -0.00384423
C 12.26297131 27.16185544 6.23349083 -0.00279339 0.00556336 -0.00522201
C 15.05942066 23.83416598 7.73052060 -0.00121085 -0.00498867 -0.00391824
C 12.27480236 27.07128863 11.10577833 -0.00511652 0.00151698 0.00292595
C 15.44555902 24.07844168 12.38544344 0.00746290 0.00896276 0.00118920
C 12.46806101 27.17262897 15.99166355 0.00686556 0.00778326 -0.00440763
C 15.33052614 24.09183524 17.14634365 -0.00329171 -0.00437657 -0.00337507
C 12.27009662 27.19607102 20.73206408 0.00121004 0.00127285 -0.00083792
C 15.39539815 24.01945367 21.86230053 -0.00346687 0.00636333 0.00243979
C 19.22502927 2.57752689 1.89992599 0.00320822 0.00534829 0.00009540
C 22.29245253 29.38406191 2.99596829 0.00078300 -0.00251830 -0.00695111
C 19.34112268 2.70548344 6.68380958 0.00737563 -0.00004977 0.00074962
C 22.51762834 29.22297349 7.76578120 -0.00146382 -0.00126659 0.00526960
C 19.43669553 2.57304532 11.27476157 -0.00226840 -0.00331551 -0.00080795
C 22.57140276 29.34801755 12.46075372 0.00121154 0.00091899 -0.00120320
C 19.38190025 2.67502220 15.91370950 -0.00546505 0.00504538 -0.00515014
C 22.46668777 29.41829186 17.09965814 0.00004059 0.00378230 0.00589132
C 19.49755355 2.67802311 20.67225725 0.00646467 -0.00160936 0.00594839
C 22.41312450 29.54635339 21.74732367 0.00000918 -0.00624526 -0.00357121
C 18.62085605 8.89017881 1.80861096 -0.00158848 0.00196660 -0.00439111
C 21.94408812 6.26457102 3.08951299 0.00241312 -0.00049852 -0.00005565
C 18.93204063 9.08529378 6.51786016 -0.00017995 0.00154822 -0.00225166
C 21.92592731 5.86612444 7.80056100 0.00225976 -0.00333417 -0.00145244
C 18.79994722 9.08598854 11.28071855 -0.00131144 -0.00214617 -0.00358210
C 22.22562842 6.13739969 12.60800988 0.00105125 0.00613242 -0.00373704
C 18.77161171 9.22614569 15.92242089 -0.00335660 -0.00237313 0.00191547
C 21.83887663 6.17319413 17.05281203 -0.00345284 0.00363772 -0.00833728
C 18.88911491 9.20582383 20.79158137 0.00021903 0.00650773 0.00133626
C 21.76491386 6.01532432 21.93868343 -0.00213161 0.00472897 -0.00338014
C 17.99881004 15.24731911 1.74486994 0.00863211 -0.00478282 -0.00521339
C 21.26644923 12.54636127 3.13586437 -0.00783350 0.00141528 0.00058158
C 18.41351187 15.23118010 6.29102087 0.00131769 0.00165089 -0.00599981
C 21.51325582 12.54027966 7.80862281 -0.00017748 0.00169205 0.00407877
C 18.02515952 15.40074656 11.22384954 0.00811799 0.00047889 0.00102105
C 21.20303362 12.60401263 12.51869834 -0.00203520 0.00057246 0.00491869
C 17.95506920 15.73503859 16.05233218 0.00120556 0.00132197 0.00226926
C 21.43477905 12.53079679 17.14119769 0.00211003 0.00397883 0.00023523
C 18.00848118 15.62697740 20.72018069 -0.00074525 0.00533466 -0.00487757
C 21.27628875 12.50374443 21.81501198 -0.00185675 0.00087252 0.00842213
C 18.50429515 21.06016021 2.03889396 0.00550526 -0.00265738 0.00220795
C 21.67619193 18.14488369 3.13027461 0.00341434 -0.00472818 -0.00297104
C 18.28643795 21.08591708 6.48978098 0.00105455 0.00357606 -0.00701953
C 21.59979824 18.12126583 7.81155901 0.00098344 0.00391690 0.00243566
C 18.50001345 21.04204574 11.18454033 -0.00196846 -0.00104649 -0.01427524
C 21.56541737 18.00718501 12.53776598 -0.00049983 -0.00460340 0.00294459
C 18.31249353 20.84952299 15.97362641 -0.00649888 -0.00192746 0.00801960
C 21.68177033 18.15601139 17.07638554 -0.00308141 -0.00444788 -0.00849986
C 18.56910005 21.34477513 20.47363154 0.00431161 -0.00382264 -0.00288785
C 21.64690353 18.05147974 21.99963378 -0.00317756 0.00419758 0.00196456
C 19.08501846 26.70543419 1.57332956 -0.00602561 -0.00222970 0.00460441
C 21.92687063 23.70584786 2.85077158 0.00013750 -0.00393518 -0.00265751
C 19.06753548 26.57951741 6.37639895 0.00203558 -0.00191745 -0.00485367
C 21.90269429 23.72806212 7.67102758 -0.00440166 -0.00328640 -0.00221466
C 18.90713035 26.72419277 11.15217174 -0.00369017 0.00469240 -0.00067484
C 22.16796072 23.60533019 12.51202960 -0.01034220 -0.00481561 -0.00550190
C 18.81878593 26.60725193 15.92036382 0.00773560 0.00116099 0.00795018
C 22.02063540 23.82288759 17.07894083 -0.00181662 -0.00795087 -0.00545645
C 19.00561982 26.49672390 20.48578315 -0.00153895 -0.00197471 0.00490600
C 22.05461780 23.78982257 21.79943661 0.00640174 0.00183888 -0.00353953
C 24.97279153 3.31272581 1.65806675 0.00129532 -0.00173415 0.00743527
C 27.89682686 0.07180165 2.98405951 0.00451453 -0.00004359 -0.01095708
C 25.07051810 3.01992423 6.42094105 0.00490046 0.00568151 -0.00237927
C 28.16018383 29.85098243 7.65193087 -0.00057188 0.00518941 -0.00411357
C 24.99612368 3.12634466 11.03160436 -0.00421490 -0.00249672 -0.00347874
C 27.99622269 0.01481138 12.48881755 -0.00085926 0.00178086 0.00370313
C 24.76772896 2.92546985 16.00367857 0.00386176 -0.00194322 -0.00021509
C 28.19950423 29.76648535 17.11683013 0.00201821 -0.00430371 0.00367553
C 25.21699387 3.06902930 20.60800909 -0.00192436 -0.00613420 -0.00162167
C 28.09385762 29.68509787 22.09958652 0.00106731 0.00767424 0.00496834
C 24.47691516 9.53575756 1.62651700 0.00275670 0.00023273 0.00476698
C 27.42543311 6.60521319 2.83690901 -0.00046953 0.00247573 -0.00263052
C 24.49817426 9.50621955 6.44022308 -0.00234449 0.00550658 0.00478291
C 27.58665779 6.55393787 7.72676608 0.00104699 0.00148842 -0.00810390
C 24.50058842 9.75004436 11.28222706 -0.00252277 -0.00281310 0.00145047
C 27.54901486 6.54857004 12.53600658 -0.00203077 -0.00025425 0.00162682
C 24.26939415 9.45474095 15.94235056 -0.00020365 -0.00739412 -0.00102196
C 27.55903719 6.49223855 17.29228744 0.00221729 0.00613286 -0.00909653
C 24.65252956 9.66225403 20.63692219 0.00537368 0.00298298 0.00139131
C 27.65323989 6.52666241 21.77927379 -0.00627201 0.00995012 0.00095137
C 24.85570828 14.98298628 1.77825077 -0.00057805 -0.00103005 0.00565127
C 27.85262191 11.97050837 3.08041822 -0.00170816 -0.00539985 0.00403744
C 24.92048658 15.31191672 6.52138806 0.00005543 0.00895249 0.00444153
C 27.83542344 12.23832266 7.92292044 -0.00003927 -0.00039096 0.00278913
C 25.06116244 15.12165222 11.15856609 0.00104594 -0.00011836 -0.00877007
C 28.02479687 12.19434065 12.65916851 -0.00056301 0.00059112 0.00245792
C 24.77416023 15.09153823 15.93446654 0.00064010 0.00204995 -0.00081053
C 27.87985385 12.06391938 17.18332530 0.00450517 0.00728155 -0.00615673
C 25.05259527 15.32858799 20.68606534 0.00566941 0.00218453 -0.00167719
C 28.14869074 12.02118787 21.99438101 0.00286250 0.00423804 -0.00623826
C 25.24754753 20.78584922 1.51271983 -0.00724578 -0.00189540 -0.00301083
C 28.20638406 17.82490816 2.89378953 -0.00256540 -0.00088149 -0.00414429
C 25.09916459 20.55576157 6.26125395 -0.00290699 0.00391630 -0.00117723
C 28.33072695 17.74120922 7.86138491 0.00120159 0.00320138 0.00498485
C 25.28301423 20.77377825 11.14833743 -0.00223191 0.00319480 -0.00303650
C 28.46132329 17.60798744 12.51476614 0.00994125 -0.00310387 -0.00284895
C 25.32926598 20.42744234 15.98603262 0.00307620 0.00315773 -0.00077654
C 28.44695613 17.38784282 17.18616552 0.00095257 0.00444769 0.00466757
C 25.14317385 20.87892907 20.47446035 0.00179805 -0.01067979 -0.00330672
C 28.29314080 17.74853006 21.90690132 0.00309598 -0.00409294 -0.00137201
C 25.65917857 26.28438450 1.62159859 -0.00009522 0.00564320 -0.00036312
C 28.69618659 23.20561477 2.87622221 -0.00263863 0.00271737 -0.00075875
C 25.62659293 26.14939545 6.36743858 -0.00490497 0.00670986 0.00276545
C 28.47701628 23.42727911 7.84691091 -0.00476834 -0.00711136 -0.00610618
C 25.62659904 26.35691603 11.02675559 0.00048762 -0.00814490 0.00504710
C 28.73229328 23.01446257 12.42231683 0.00697597 -0.00300525 0.00098501
C 25.58584421 26.22381931 15.68681831 -0.00414538 0.00000980 0.00170997
C 28.80315370 23.03833465 17.05369505 -0.00295956 0.00008468 -0.00578035
C 25.72199712 26.28156996 20.30581158 0.00411137 -0.00894378 0.00080003
C 28.65551912 23.37074477 21.83535675 0.00114892 0.00717761 -0.00410063
N 0.38320527 4.12268673 1.09129442 -0.00243114 -0.00550371 -0.00197404
N 3.39326961 5.15620720 3.46057918 0.00081035 0.00178208 -0.00350606
N 5.19200776 2.42277634 0.81495084 0.00260239 -0.00286845 0.00350128
N 1.84677925 1.52786233 3.61200221 0.00669872 0.00128013 -0.00319138
N 0.09286988 4.42095192 5.64962232 -0.00243021 0.00198666 -0.00274302
N 3.54637662 5.26154336 8.73527772 0.00030158 -0.00555090 0.00024148
N 5.32747611 2.35396369 5.67164458 -0.00317773 -0.00115407 -0.00295477
N 1.80620407 1.47963475 8.55002465 0.00087919 -0.00165730 -0.00346078
N 0.13559908 4.26713420 10.76085670 -0.00397119 0.00628810 -0.00101249
N 3.56439430 5.09151546 13.19897716 -0.00621591 0.00527981 -0.00679947
N 5.31151196 2.31047283 10.46312857 -0.00463483 -0.00557119 0.00143232
N 1.76192255 1.30688294 13.21720269 0.00267849 0.00053859 0.00144194
N 0.07860061 4.48707180 15.11405132 -0.00126729 -0.00261809 0.00361754
N 3.30105917 5.13791669 17.93663947 -0.00084021 -0.00069866 0.00179060
N 5.32285365 2.28446420 15.24871194 -0.00206966 0.00226969 -0.00756649
N 1.56901092 1.34912009 18.01765297 0.00771387 -0.00150705 -0.00570081
N 0.23447911 4.29511140 19.94152930 -0.00650975 0.00522284 -0.00278421
N 3.57287290 5.26175962 22.69982016 -0.00536854 0.00097078 0.00000384
N 5.29030831 2.22159653 19.89507661 -0.00388388 -0.00158047 -0.00277129
N 1.49359349 1.39822069 22.54755957 0.00248716 -0.00117828 -0.00212524
N 0.65422267 9.98137590 1.12216922 -0.00434968 0.00225376 -0.00642688
N 4.23021464 10.88232079 3.93305684 -0.01038799 0.00105473 0.00083421
N 5.61157903 7.52885076 0.87649488 -0.00170393 -0.00346378 0.00876954
N 2.38438673 7.18808905 4.01314201 0.00143214 0.00776371 -0.00188404
N 0.67849835 9.93576923 5.77685448 -0.00840288 0.00224089 0.00381118
N 4.03387089 10.73048679 8.51857195 0.00198821 -0.00323450 0.00641430
N 5.60330753 7.63395749 5.80146318 -0.00313227 -0.00456652 -0.00142967
N 2.16637085 7.14842747 8.77809262 -0.00074642 -0.00242025 -0.00443181
N 0.53486573 10.14119099 10.76981046 -0.00300059 0.00493426 -0.00708027
N 3.95872859 10.79281098 13.20548872 -0.00426275 0.00165879 0.00162542
N 5.68279517 7.57272829 10.28527184 0.00166609 0.00325113 0.00388761
N 2.34554934 7.04148148 13.20145593 0.00750062 -0.00415457 -0.00254378
N 0.59752334 10.03604779 15.23165040 0.00379399 0.00127924 0.00556732
N 4.13112849 10.89553686 17.88292136 0.00504819 -0.00224472 -0.00484503
N 5.77638454 7.78634071 15.21633916 -0.00058573 -0.00923446 -0.00230281
N 2.20313680 7.14580870 17.76931285 -0.00201297 -0.00560851 0.00420789
N 0.59560306 9.97792094 19.83335130 -0.00221592 0.00851828 -0.00765298
N 4.02872680 10.77563495 22.64563079 0.00456536 0.00071294 0.00356390
N 5.74383055 8.01321141 19.87364017 -0.00659547 -0.00094299 0.00322754
N 2.14001340 6.97135806 22.65009315 0.00251334 0.00074659 0.00829142
N 1.12521473 15.50811249 0.87347067 -0.00383037 -0.00899209 -0.00677994
N 4.39447412 16.48677067 3.79627378 -0.00331274 0.00445795 0.00538595
N 5.90261713 13.76719693 1.18166996 -0.00593891 0.00190146 0.00163148
N 2.91638021 12.75962999 3.90747142 0.00294999 -0.00229288 0.00774849
N 0.80606742 15.33684631 5.63674385 0.00185946 -0.00387935 0.00376616
N 4.57917091 16.83645058 8.56159745 0.00111140 -0.00253089 -0.00157836
N 5.88942951 13.72684504 5.79519662 -0.00004494 -0.00437766 0.00381878
N 2.90717392 12.70234580 8.63974945 -0.00288553 0.00195256 0.00835533
N 1.01951874 15.63255940 10.37226574 -0.00293328 0.00278207 0.00542866
N 4.71522068 16.71342953 13.23025849 0.00308948 0.00185391 -0.00401548
N 5.93952394 13.53017258 10.59907478 0.00315727 0.00169639 0.00209206
N 2.78603146 12.76888445 13.32166865 0.00070881 0.00097793 -0.00821636
N 1.12513914 15.55473361 15.07156743 0.00194912 -0.00157495 0.00143359
N 4.34458232 16.47594877 17.74420727 0.00097931 -0.01376008 -0.00246367
N 6.10430814 13.46587198 15.23124349 -0.00027930 0.00634693 0.00030365
N 2.61663577 12.63470436 17.89190530 0.00031257 0.00442092 -0.00162320
N 0.78308714 15.54926698 19.77415201 -0.00119994 -0.00251661 0.00286881
N 4.67575283 16.80164472 22.65124027 -0.00001851 0.00034208 -0.00525490
N 6.43321128 13.51272528 20.02339415 -0.00418580 -0.00257895 0.00218545
N 2.79873641 12.65943927 22.32312250 -0.00757381 0.00408467 0.00034720
N 1.48990487 20.91147438 0.99328284 0.00119895 0.00145450 -0.00066744
N 3.97544879 23.22909398 3.60543755 -0.00038196 0.00350003 0.00458046
N 5.28262680 20.13936689 1.02919581 -0.00142527 -0.00602745 0.00579079
N 2.63645220 17.94939551 3.63787015 -0.00251144 0.00230887 0.00612599
N 1.15864023 21.09748534 5.67515244 0.00542792 0.00977269 0.00178715
N 3.68788689 23.29135699 8.50049940 -0.00386487 0.00364687 -0.00220163
N 5.39123739 20.24015335 5.79868079 -0.00464539 0.00178777 -0.00098631
N 2.89440544 18.39955801 8.32443271 0.00089793 0.00275638 -0.00168605
N 1.26504108 21.01244920 10.19817897 -0.00229616 -0.00915486 -0.00468392
N 4.21656897 23.39077980 13.24674256 0.00115191 -0.00118465 0.00284079
N 5.56599109 20.46161884 10.43008238 -0.00085344 0.00027587 -0.00555186
N 2.97989330 18.34588902 13.24010778 -0.00268971 0.00035152 0.00221174
N 1.48597704 21.02837086 15.19659291 0.00099150 0.00342387 -0.00001803
N 4.09071094 23.43974581 17.78102815 -0.00066631 -0.00484278 -0.00224943
N 5.41226486 20.19449896 14.93808785 -0.00191456 0.00154029 0.01116577
N 3.01591983 18.34481592 17.83225082 0.00712642 -0.00381807 -0.00522404
N 1.48949543 21.27198378 20.12834699 -0.00572744 -0.00181809 -0.00466106
N 4.04147141 23.30212454 22.53288367 0.00390010 -0.00313721 -0.00245319
N 5.50386561 19.98869788 19.67373974 -0.00586664 0.00247257 0.00487915
N 2.67350038 18.00106542 22.60401137 -0.00204567 -0.00094283 0.00512314
N 0.68585427 27.72797628 1.10907683 -0.00294263 -0.00891392 -0.00170318
N 3.44390442 29.74769037 3.75272156 -0.00311003 -0.00564349 -0.00082433
N 4.87474136 26.66583126 0.82222474 0.00249950 -0.00438201 0.00582072
N 2.14966637 24.54117276 3.84145700 -0.00045913 0.00540114 -0.00202055
N 1.02430116 27.79444386 5.85112692 -0.00503864 0.00039009 -0.00785245
N 3.36559098 29.74412649 8.46797362 -0.00045188 -0.00024519 -0.00378439
N 4.64543732 26.69715850 5.56876311 0.00019464 0.00315967 -0.00062097
N 1.87100709 24.57333716 8.53493209 0.00001261 0.00198250 -0.00382072
N 0.56657470 27.82507125 10.41269253 0.00307725 -0.00202563 -0.00043235
N 3.30789972 29.58895990 13.40784598 -0.00075754 -0.00047173 0.00163134
N 4.77095813 26.55424704 10.54017329 0.00168209 0.00137841 0.00196908
N 2.30708576 24.66663857 13.23782528 0.00346214 0.00222443 -0.00243560
N 0.87588061 27.53509703 15.13677826 -0.00103046 -0.00444409 0.00005456
N 3.18817950 29.59867563 17.70796041 0.00298129 0.00341506 -0.00076777
N 4.83392471 26.79391658 15.25154367 0.00361978 -0.00068854 -0.00101827
N 1.95836567 24.32836115 18.14851235 -0.00537734 0.00374573 -0.00180806
N 1.04624920 27.99041627 19.67969798 -0.00183804 -0.00516072 0.00566134
N 3.06858422 29.55078857 22.56014975 0.00034588 -0.00174289 0.00002105
N 4.80138891 26.72596001 19.70904042 -0.00255175 -0.00022685 -0.00553422
N 2.11405116 24.55857469 22.42557967 -0.00018554 0.00015650 0.00057872
N 6.89379477 3.96650482 0.94337052 0.00098052 0.00210899 0.00593950
N 10.04747574 4.41510228 3.49838005 0.00406325 0.00546837 -0.00095153
N 11.82929646 1.66671143 0.90850945 0.00074736 -0.00545742 -0.00492080
N 8.72661440 1.23087681 3.59435945 -0.00017620 0.00508769 0.00225442
N 6.82715837 4.03032319 5.69773926 -0.00549497 -0.00433264 0.00320746
N 10.21675484 4.96007545 8.51676369 0.00295941 -0.00605069 -0.00759847
N 11.84699283 2.03062432 5.72529591 0.00349440 0.00006671 -0.00127261
N 8.60647064 1.24593137 8.39372718 0.00169833 -0.00127299 0.00031014
N 6.73688146 4.11402035 10.43306637 -0.00420679 -0.00704767 -0.00520396
N 9.90049150 4.58550770 13.04643819 -0.00075335 0.00219930 -0.00157856
N 12.01550588 1.95680748 10.50537186 0.00016783 0.00401562 0.00163642
N 8.35490504 0.83303000 13.17121567 0.00736933 -0.00050182 -0.00293733
N 6.70014058 4.05994895 15.38789361 0.00211431 0.00413575 -0.00284123
N 10.19808333 4.71906050 17.96816353 0.00144000 0.00222171 -0.00146695
N 12.00832847 1.73226349 15.16601775 0.00674139 -0.00245310 -0.00078621
N 8.56724415 0.87742514 17.76964531 -0.00144017 -0.00048883 0.00038242
N 6.78173852 3.95510434 19.75688378 0.00289133 -0.00230780 0.00572406
N 10.30495328 4.67427074 22.55841920 0.00021528 0.00260139 0.00684834
N 11.74043310 1.85987750 19.79836758 -0.00406898 -0.00648958 -0.00452840
N 8.64842811 1.11604256 22.63207438 -0.00572944 0.00046636 -0.00391590
N 7.07180543 9.37496205 0.90869005 -0.00142802 0.00539306 0.00329434
N 10.71327225 10.71827943 3.90638295 -0.00256177 0.00276230 -0.00055797
N 12.31993346 7.55349731 1.02689146 -0.00416284 0.00175560 0.00300886
N 9.16826427 6.56082488 3.89305795 0.00110051 0.00394849 -0.00105417
N 7.07488163 9.30622889 5.73690602 -0.00321665 -0.00571615 -0.00100465
N 10.78606430 10.51869083 8.61494667 0.00461387 -0.00119597 -0.00026751
N 12.51677148 7.40389415 5.59713648 0.00269696 0.00078452 -0.00436225
N 9.05994736 6.92979624 8.37551431 -0.00070993 0.00190291 -0.00246023
N 7.05418012 9.36088838 10.30600621 0.00096043 -0.00082262 -0.00212651
N 10.64668361 10.59271829 13.35049089 0.00014360 -0.00326631 0.00219776
N 11.87251458 7.71053785 10.43620225 -0.00454139 -0.01008983 -0.00235841
N 8.98460473 6.62120074 13.24503341 -0.00401846 -0.00513002 0.00590078
N 7.09662252 9.66238997 14.97112275 0.00056975 0.00665326 0.00330518
N 10.97976818 10.45401415 17.88954910 -0.00502521 -0.00521996 0.00058761
N 12.12389594 7.62254004 15.38574422 -0.00128315 0.00392657 -0.00205910
N 8.93431964 6.53166974 17.88391471 -0.00023904 -0.00129700 0.00697483
N 7.43836149 9.53065423 19.98946421 0.00314935 -0.00261699 0.00211711
N 10.53475867 10.60720177 22.75169347 -0.00170741 0.00268086 0.00122140
N 12.25282021 7.46248919 20.04092149 0.00043430 -0.00749680 0.00398178
N 8.90934009 6.60411710 22.63207852 -0.00253212 0.00303831 0.00092240
N 7.74092841 15.22702460 1.03328804 -0.00264778 0.00607929 -0.00367184
N 10.15259390 17.24856708 3.64865574 -0.00104023 0.00498671 0.00562992
N 11.55022987 14.26450380 0.95030109 0.00137481 0.00319609 0.00380064
N 8.77533144 11.92867950 3.87578268 -0.00041088 -0.00447819 -0.00575654
N 7.56367866 15.24609753 5.78339102 0.00161460 -0.00308349 0.00047109
N 10.30973263 17.44763294 8.43167135 -0.00144947 0.00166465 -0.00264172
N 11.34153697 14.29269654 5.87867091 0.00258454 -0.00102597 0.00030092
N 9.04664649 11.97858537 8.65579212 0.00006251 -0.00458113 -0.00023628
N 7.69176252 15.12014391 10.34677398 0.00674942 -0.00556126 0.00251796
N 10.28172147 17.37129961 13.11369356 -0.00579690 -0.00220260 0.00262576
N 11.53010458 14.46955627 10.45740523 0.00096948 0.00050924 0.00257702
N 8.97741651 12.18623916 13.19868224 0.00387243 -0.00236336 0.00078881
N 7.81356728 15.05242030 15.42882880 -0.00150634 0.00334967 -0.00196626
N 10.38927716 17.64306183 17.91638399 -0.00754918 0.00082366 -0.00036173
N 11.76256830 14.20384050 15.10219749 0.00044442 0.00455408 0.00072893
N 9.33367259 12.11136183 18.02727506 0.00467648 -0.00017834 0.00004942
N 7.96755922 15.17380767 20.14177341 -0.00030077 0.00040730 -0.00394181
N 10.36297452 17.42020809 22.48597493 0.00368944 -0.00461270 -0.01127163
N 11.86594040 14.20933485 20.08454215 -0.00107056 0.00096645 0.00230332
N 8.74651223 11.99618240 22.78236666 0.00418187 0.00033877 0.00496206
N 6.98564011 21.72840578 1.28176362 -0.00441553 0.00342621 0.00019591
N 9.60023338 23.49959841 3.59685577 0.00163437 -0.00165402 -0.00429030
N 10.95812202 20.64346413 0.88614560 -0.00638083 -0.00234696 0.00008996
N 8.05764173 18.25141034 3.81940936 0.00014734 -0.00179343 -0.01109126
N 6.91239676 21.89322103 5.71557983 0.00174153 -0.00499791 -0.00119471