2000
Time=65000.00000006 pbc="T T T" Lattice="31.10345311 0.00000000 0.00000000 0.00000000 30.22268216 0.00000000 0.00000000 0.00000000 23.70638468" energy=-12041.46216762 virial="-6.70520057 -10.06472106 38.81816587 -10.06472106 -9.97833409 9.09796421 38.81816587 9.09796421 12.40918810" stress="0.00184261 -0.00045406 0.00174192 -0.00045406 0.00160829 0.00036627 0.00174192 0.00036627 0.00318493" Properties=species:S:1:pos:R:3:vel:R:3
C 30.50084580 3.76237681 1.72592210 0.00369160 -0.00022596 0.00386490
C 2.57792483 0.62013911 3.16014905 0.00460268 0.00286702 -0.00319143
C 30.51859859 3.66533123 6.31929520 -0.00688217 0.00009366 0.00645335
C 2.45402640 0.76176394 7.94472076 -0.00249206 0.00139779 -0.00274841
C 30.41288259 3.93895920 11.00340331 -0.00164960 0.00202732 -0.00277576
C 2.66604197 0.85670643 12.77799301 -0.00365314 0.00223948 -0.00047790
C 30.43336005 3.68531821 15.79186053 -0.00410194 0.00280602 0.00131469
C 2.57481081 0.50011464 17.25050940 0.00150061 -0.00053336 -0.00187018
C 30.37205018 3.67613183 20.62792456 0.00277487 0.00304396 -0.00393689
C 2.39403912 0.64086200 21.98459125 -0.00186680 0.00109316 -0.00660718
C 31.07324333 9.13564531 1.63119981 0.00160226 -0.00271928 -0.00571465
C 2.70644369 6.26910720 2.93680574 0.00518569 -0.00263671 0.00562790
C 30.90192090 9.37318412 6.52238641 -0.00066722 0.00654151 0.00280776
C 2.88765965 6.29076398 7.59176920 -0.00374563 0.00012426 -0.00249186
C 31.05887266 9.42567678 11.33750730 -0.00482262 0.00658416 -0.00791359
C 2.74674995 6.15209442 12.36524081 0.00351210 0.00515869 0.00272948
C 30.98760234 9.39623223 16.05773406 0.00584174 -0.00487913 -0.00804788
C 2.57923020 6.14508115 17.23429082 0.00101583 0.00087337 -0.00289627
C 30.99108014 9.35976617 20.72007026 -0.00117338 -0.00219445 0.00089801
C 2.66027058 6.19776618 21.88054316 -0.00227059 0.00382494 -0.00207800
C 0.29034331 14.88259524 1.84521756 -0.00373963 -0.00152845 0.00072790
C 3.19257307 11.83739451 3.02826897 0.00341364 -0.00387978 -0.00223241
C 31.07829410 14.64743713 6.44571424 -0.00071167 0.00068958 -0.00264791
C 3.35263817 11.79682434 7.63728155 0.00313766 0.00806302 -0.00278748
C 0.32589563 14.64367874 11.13595142 0.00129372 0.00630620 0.00228013
C 3.47342950 11.94420257 12.47631203 -0.00277060 -0.00371038 0.00267774
C 0.49349070 15.09995186 16.10590260 0.00217287 0.00179162 0.00234811
C 3.21864623 11.78357246 17.10991537 -0.00440515 0.00004521 -0.00098237
C 31.08090645 14.99526911 20.73138287 -0.00005756 0.00003686 0.00206024
C 3.21544492 12.01438762 21.95151608 -0.00439790 -0.00650781 0.00148319
C 0.87858840 20.36780172 1.70049663 -0.00024089 -0.00201123 0.00272534
C 3.67196649 17.44892967 3.10553755 -0.00299943 -0.00534585 0.00566454
C 0.77124944 20.38462001 6.55974850 0.00213674 -0.00456647 0.00065190
C 3.73941169 17.61542141 7.90174876 0.00618793 -0.00192115 0.00441463
C 0.87740355 20.76544228 11.24557919 0.00367693 -0.00583605 -0.00252530
C 3.82038159 17.56237051 12.57175587 -0.00576095 -0.00710497 -0.00501575
C 0.92319635 20.63861265 15.98740178 -0.00519757 0.00289312 -0.00242244
C 3.68715206 17.70386155 17.26997853 0.00088415 -0.00449428 0.00115588
C 0.50522541 20.67313134 20.66148719 0.00183761 -0.00042914 0.00069887
C 3.54616149 17.34079630 22.03338445 0.00602617 -0.00083937 0.00589787
C 0.12868103 27.19227210 1.75193298 0.00159668 -0.00403290 0.00751310
C 3.34624581 24.31888199 3.25415085 -0.00453902 0.00293436 -0.00311519
C 0.04997847 27.35238120 6.44139680 0.00023202 -0.00221800 0.00170193
C 3.20669599 24.22956820 7.73868927 -0.00847870 -0.00417962 0.00347007
C 0.37930125 27.18370122 11.30124765 0.00112787 -0.00314935 0.00148958
C 3.22620538 24.35896981 12.54065418 -0.00054044 -0.00075884 0.00694285
C 0.09661717 27.23275242 16.32711013 0.00749147 0.00485468 -0.00810713
C 3.11965152 24.25758177 17.37357808 -0.00584328 -0.00000481 -0.00089064
C 30.95922985 27.46289833 20.73428362 -0.00406592 -0.00173624 0.00035962
C 3.16615504 24.13393534 22.09615861 0.00556003 -0.00490425 0.00251750
C 6.01400878 3.37432665 1.54406612 -0.00462084 0.00396139 0.00484374
C 9.05254770 0.30122228 3.24541307 -0.00021185 -0.00437961 0.00355389
C 6.11250955 3.17311802 6.36757127 0.00096508 0.00064489 0.00110342
C 9.02297020 0.39162765 7.88615806 0.00295434 0.00303139 -0.00017058
C 6.00033236 3.46122151 11.13815961 -0.00013453 0.00637745 0.00056247
C 9.35596139 0.28300395 12.74514062 0.00708303 0.00357557 -0.00397373
C 6.22223327 3.31954438 16.06882641 -0.00698093 0.00350485 0.00181457
C 9.09212114 30.13414996 17.44979959 0.00213580 0.00618802 0.00281221
C 6.02749494 3.23068483 20.70666205 -0.00148558 -0.00118423 -0.00288479
C 9.18348485 0.40822417 22.00371776 0.00278741 -0.00042455 0.00102386
C 6.29324375 8.85818254 1.62837590 -0.00570817 -0.00389947 0.00037284
C 9.59040964 5.81956928 2.99822044 0.00120487 -0.00074043 -0.00498327
C 6.61841817 8.84774857 6.33070009 0.00463574 0.00435284 0.00342910
C 9.61021209 6.10153656 7.72338329 0.00039115 0.00269396 -0.00026622
C 6.41804073 8.65414079 11.08481216 0.00401094 -0.00104483 0.00017301
C 9.59798852 5.68119705 12.36353916 -0.00416214 -0.00053094 0.00029281
C 6.21190973 8.64644955 15.77062161 -0.00118547 -0.00253742 -0.00067903
C 9.47855293 5.74550320 17.08622070 0.00457505 -0.00249939 -0.00032252
C 5.95937983 8.84053226 20.54405689 -0.00133136 -0.00230621 0.00088518
C 9.44921514 6.00776984 21.93226912 0.00194982 0.00355861 -0.00213056
C 6.87397825 14.44475337 1.50227850 -0.00066936 -0.00187684 -0.00640670
C 9.93321972 11.44183195 2.73736291 -0.00112389 -0.00245636 0.00295583
C 6.92731785 14.38872292 6.22139706 -0.00093513 0.00522320 -0.00150009
C 9.72287723 11.50172587 7.44070917 -0.00326124 -0.00120431 0.00068352
C 6.87642899 14.51650740 11.17090924 -0.00024380 0.00417047 -0.00649083
C 9.96657693 11.66992009 12.31071119 0.00160091 -0.00270117 0.00227203
C 6.71093210 14.45476865 15.86480709 -0.00272652 0.00073056 0.00421999
C 9.85023684 11.50464295 16.98585813 -0.00039175 -0.00105677 0.00005809
C 6.79927638 14.59158311 20.61638718 0.00225149 0.00367417 -0.00323886
C 9.91346769 11.48002944 21.71778420 0.00454632 0.00040724 -0.00905096
C 6.06354045 21.29035892 1.96176458 0.00549694 -0.00387080 -0.00347886
C 9.26314376 18.24723753 3.03493630 -0.00134164 -0.00168051 -0.00893802
C 6.52485400 21.18057825 6.52429246 0.00596790 0.00217760 -0.00059183
C 9.23611268 18.02270233 7.68259006 0.00032605 -0.00916438 -0.00340237
C 6.18853322 21.24722864 11.33649550 0.00445194 0.00480269 -0.00376966
C 9.51025920 18.18337244 12.48361748 0.00363223 -0.00133918 -0.00312480
C 6.28748544 20.86013144 15.83579979 -0.00044903 -0.00125919 -0.00554785
C 9.23622445 18.25528324 17.19996818 -0.00002988 -0.00494373 0.00255773
C 6.14877815 21.06116560 20.59947903 -0.00925348 0.00593274 0.00469085
C 9.34738250 18.13763953 21.98018836 -0.00355880 -0.00882846 0.00586393
C 5.59562558 27.89064096 1.98350219 -0.00173865 0.00099093 0.00406212
C 8.64042834 25.03525438 3.05948305 -0.00016050 -0.01134665 0.00218278
C 5.38306402 27.98373131 6.49776611 -0.00349068 0.00489510 0.00445360
C 8.81235972 24.89382088 7.83599470 0.00770002 -0.00721311 -0.00123042
C 6.00427767 27.88949508 11.22788549 -0.00002364 -0.00120044 -0.00275615
C 8.74091469 24.77838804 12.48672995 -0.00531737 -0.00352544 -0.00019352
C 5.44572889 27.90958610 16.17278920 0.00307058 0.00322454 0.00051216
C 8.73406927 24.80100505 17.25207047 -0.00647284 0.01071253 -0.00560595
C 5.49883800 27.96577628 20.89224624 -0.00192511 0.00274470 -0.00298478
C 8.91689417 24.78391294 22.01456322 -0.00250680 -0.00605780 -0.00288146
C 12.56255588 2.68299188 1.61644431 0.00782796 0.00002017 0.00688212
C 15.89505147 0.03236216 3.03584509 -0.00006852 0.00238066 -0.00326519
C 12.54378070 3.00255714 6.18828246 0.00150323 -0.00502748 0.00399882
C 15.62423920 29.88022620 7.78406135 -0.00333788 -0.00176736 -0.00061719
C 12.62135675 2.83017862 11.20851647 0.00187290 -0.00293874 -0.00064519
C 15.87046448 30.09668515 12.70248039 -0.00096260 0.00336273 -0.00780484
C 12.77800394 2.67373033 15.94860205 0.00581493 0.00221541 0.00178562
C 15.89893474 30.04732852 17.57220202 0.00481365 -0.00321916 0.00481280
C 12.64423834 2.80841750 20.68238799 -0.00361621 -0.00150677 -0.00215330
C 15.74752564 29.97756512 22.11876381 0.00208039 -0.00630425 0.00322741
C 13.13185904 8.32848011 1.61777136 0.00146259 0.00006892 0.00316266
C 16.17219624 5.38233874 2.94520152 -0.00903722 0.00612576 -0.00661743
C 13.25838008 8.19655622 6.40052499 0.00447346 -0.00087156 0.00360219
C 16.09670001 5.34721960 7.60850698 -0.00138982 0.00126283 -0.00626425
C 13.06174201 8.51316579 11.03560772 -0.00352057 -0.00085449 -0.00037832
C 16.15230463 5.29250914 12.42254392 -0.01090560 0.00171051 0.00047265
C 13.15220128 8.24194238 15.81355609 0.00223133 -0.00022489 -0.00352077
C 16.21512621 5.59135080 17.09913610 -0.00133321 0.00620204 0.00099011
C 13.00751338 8.53581408 20.47885944 -0.00377538 0.00162028 -0.00009267
C 16.46964366 5.54002460 21.97077221 0.01073737 -0.00185625 0.00457071
C 12.50805845 15.01493611 1.61644330 0.00574853 0.00481033 0.00213501
C 15.57061687 11.92224255 3.06370887 0.00827578 -0.00086456 -0.00159503
C 12.44251777 14.97536921 6.27884811 0.00455785 -0.00816459 -0.00020010
C 15.41060871 12.20230937 7.75729323 -0.00098795 -0.00321134 -0.00214099
C 12.27603795 15.12396598 11.16800197 0.00107475 0.00424836 0.00209476
C 15.52067949 12.08864621 12.73123206 0.00102883 -0.00023347 -0.00123455
C 12.22671339 15.08489576 15.78124006 -0.00067965 0.00181471 -0.00244247
C 15.48544098 11.73615355 17.34600061 -0.00523205 -0.00008858 -0.00213615
C 12.16497508 14.95843854 20.61162845 0.00381434 -0.00075265 0.00054309
C 15.63735282 12.20800371 22.23180247 -0.00477536 -0.00040434 0.00000964
C 11.52889544 21.84313399 1.75241363 -0.00448181 -0.00448638 -0.00377009
C 15.24104037 18.93731705 3.03820671 0.00049104 -0.00000097 -0.00106825
C 11.84622617 21.72940731 6.33687734 0.00529144 0.00600079 0.00144979
C 14.99317700 18.69667156 7.88667656 0.00226228 -0.00778015 0.00585707
C 11.72419936 21.80164459 11.21728248 0.00482210 -0.00396644 -0.00313779
C 15.16077256 18.84514502 12.50580397 -0.00126056 -0.00312930 -0.00120577
C 11.87824207 21.74976105 16.13840695 0.00055346 -0.00603325 -0.00475474
C 15.21225161 18.68654576 17.33911376 0.00150390 -0.00867017 -0.00211142
C 11.69645168 21.52426837 20.77168633 0.00271389 0.00147700 -0.00389822
C 15.08296475 18.87853082 21.97927510 0.00403774 0.00109598 -0.00134497
C 12.07593987 27.53539399 1.86227046 0.00260029 -0.00214465 0.00109621
C 14.97296427 24.44928972 3.04145857 -0.00192335 -0.00433230 0.00243162
C 11.91924194 27.37828162 6.44595410 0.00189256 -0.00009682 -0.00301205
C 15.15254619 24.15784451 7.79160353 -0.00462365 0.00593133 -0.00125565
C 12.18487987 27.37114719 11.24259177 -0.00158538 0.00089148 0.00014205
C 15.27588875 24.36771978 12.55514038 0.00410333 -0.00787881 0.00328307
C 12.45993543 27.32683293 15.95453383 -0.00175054 0.00114384 0.00155906
C 15.56124740 24.57663969 17.28212022 0.00445059 -0.00252240 -0.00154806
C 12.29849096 27.19121579 20.68891868 -0.00172859 0.00354860 0.00189052
C 15.41271012 24.28857497 22.18467691 -0.00138529 0.00183457 0.00072485
C 19.52099043 2.43911301 1.39692757 0.00441430 -0.00166667 -0.00409183
C 22.35691793 29.55374910 2.91232261 -0.00330240 0.00098376 0.00256067
C 19.08356005 2.20614522 6.29636603 0.00555836 -0.00366081 0.00448340
C 22.05748384 29.57440345 7.69062796 0.00848139 -0.00262631 0.00312487
C 19.15176798 2.30859211 10.94142840 -0.00161587 0.00185451 -0.00601714
C 22.45865125 29.56548658 12.36746657 -0.00288192 -0.00693526 -0.00461353
C 19.22358709 2.55929980 15.78424481 0.00001505 0.00291453 -0.00044756
C 22.31855842 29.66318545 17.04753984 0.00634111 0.00071813 0.00522352
C 19.08724675 2.61518197 20.64475224 -0.00685881 -0.00572669 -0.00606448
C 22.12289502 29.68735765 21.96117234 0.00423686 0.00226221 -0.00242536
C 18.58629039 8.94881003 1.69784742 0.00046494 0.00448925 -0.00544178
C 21.56644663 6.10515018 3.10397213 0.00079081 0.00040460 -0.00021323
C 18.63338389 9.40173826 6.29953116 -0.00135241 0.00755408 0.00570446
C 21.38969283 5.92779946 7.85797524 0.00325593 -0.00108511 -0.00203218
C 18.58668748 9.15654125 10.98495544 -0.00266455 -0.00425631 -0.00723516
C 21.85122247 6.06761956 12.29765346 0.00243980 0.00582826 0.00445698
C 19.08876510 8.87469727 15.69395446 0.00811514 -0.00185948 0.00272299
C 21.77343607 5.88106688 17.18132215 -0.00389037 -0.00345409 -0.00395483
C 18.85688646 8.76809484 20.56839309 -0.00091719 -0.00032228 0.00284636
C 21.81259496 6.02906814 21.95475452 -0.00832261 0.00034537 -0.00596480
C 18.06817477 15.82483778 1.84359864 -0.00275533 -0.00194758 -0.00484310
C 21.12980853 12.81219771 2.98919577 0.00263822 0.00141465 0.00214898
C 17.83731491 15.58098557 6.66557915 0.00109524 0.00369872 0.00118597
C 21.24320302 12.72510979 7.55464606 0.00072910 -0.00947812 0.00544650
C 18.11898918 15.51712284 11.28227081 0.00356853 0.00055340 0.00158355
C 21.43475555 12.70613297 12.33638801 -0.00157654 0.00680110 -0.00467860
C 17.94267784 15.36092063 15.84581632 0.00480338 -0.00296392 -0.00725965
C 20.95222176 12.59284415 17.14195227 -0.00008847 -0.00146980 0.00118342
C 18.11920303 15.74154090 20.67297292 -0.00042809 -0.00398806 -0.00022867
C 21.08600213 12.41611420 22.06717580 0.00000610 0.00214227 -0.00222879
C 18.11759377 21.57645056 1.87583044 -0.00123196 -0.00290626 0.00917420
C 21.33251921 18.39475721 3.05606037 0.00213047 0.00747337 -0.00367072
C 18.30281708 21.29457715 6.55604147 0.00330223 -0.00541694 -0.00873479
C 21.74346314 18.41869395 7.79604703 0.00186392 0.00612640 0.00047783
C 18.59188645 21.52705942 11.24098798 0.00219355 -0.00513742 -0.00430655
C 21.60443336 18.12397215 12.39448907 0.00605587 -0.00209507 0.00156442
C 18.38901490 21.38192597 15.83210259 -0.00415554 0.00040365 -0.00684292
C 21.67107323 18.09456024 17.25004068 -0.00154138 -0.00000829 0.00038354
C 18.85248219 21.17257051 20.60994293 -0.00072401 -0.00274718 -0.00322513
C 21.61748140 18.09531314 22.21603360 -0.00443004 0.00129647 0.00389127
C 18.78096039 26.93933250 1.80564727 0.00402184 -0.00651358 -0.00090903
C 22.01958629 23.79261590 3.11939568 0.00113232 -0.00492446 -0.00569730
C 18.78273704 26.98371554 6.43924311 0.00630959 0.00112597 0.00201023
C 21.79749450 23.89452598 7.79509853 0.00272976 0.00048003 -0.00436141
C 18.91356885 27.17655234 11.14677129 0.00214285 -0.00443636 0.00917641
C 21.91480200 23.90327306 12.53039797 -0.00047049 0.00784524 -0.00700056
C 18.73864929 27.09442269 15.98482572 -0.00625103 -0.00624141 -0.00293041
C 22.02551834 23.87594648 17.20549568 -0.00262804 -0.00601651 -0.00371068
C 18.99859843 26.96449457 20.70732450 -0.00571324 0.00290594 0.00707117
C 21.94837611 24.03257868 22.06360466 0.00381856 -0.00818095 0.00117485
C 24.94861320 2.95515456 1.74450860 -0.00214497 0.00134216 0.00363831
C 27.96784366 0.00257719 2.91828895 -0.00903830 0.00408012 0.00220520
C 24.85577693 2.98736747 6.55301159 0.00152902 0.00794034 0.00310356
C 28.01495245 0.07696317 7.79727450 -0.00145480 -0.00543999 0.00179386
C 24.74026091 2.97718602 11.12860877 -0.00467486 0.00343868 -0.00271224
C 28.28398677 0.30840816 12.61370981 -0.01034398 0.00226035 0.00769500
C 25.13442891 2.96020622 15.92653506 0.00062649 0.00393724 0.00070782
C 27.95612204 0.01979000 17.35775912 0.00054441 0.00221596 -0.00699596
C 25.06275068 3.02051133 20.85148886 -0.00770925 -0.00943124 0.00354373
C 27.86779059 29.82714116 22.12984945 0.00034337 -0.00190206 -0.00704126
C 24.31308071 9.63406337 1.78490223 -0.00327788 -0.00343561 -0.00035080
C 27.35707574 6.72436164 2.90298083 -0.00221337 0.00099064 0.00342996
C 24.14652395 9.72784406 6.41561270 0.00196741 0.00301887 -0.00158425
C 27.11466742 6.56096149 7.69617407 -0.00846631 0.00006584 -0.00014240
C 24.32838717 9.64489091 11.34290026 -0.00405673 -0.00445682 0.00390823
C 27.29840913 6.82636958 12.30487438 0.00206299 -0.00146023 0.00729852
C 24.12490659 9.57637487 15.90132009 0.00365757 -0.00288975 -0.00518004
C 27.47231125 6.67002121 17.11997210 -0.00181055 -0.00000629 0.00386594
C 24.32959183 9.62524087 20.53997056 -0.00077810 0.00520677 -0.00546864
C 27.29873841 6.83690328 21.83852672 0.00300421 -0.00671784 -0.00029545
C 24.92838213 15.24753374 1.66481476 0.00122290 0.00201104 0.00285975
C 28.07728108 12.30266758 3.23848857 -0.00250095 -0.00098908 -0.00738064
C 24.79250848 15.53474350 6.48496221 0.00124513 0.00092505 -0.00124743
C 27.37949481 12.30547398 7.89631743 -0.00784879 -0.00326004 0.00364222
C 24.64029283 15.20422275 11.21352602 -0.00144644 0.00333761 0.00217520
C 27.91914219 12.25908165 12.53928787 0.00047323 0.00201286 0.00365157
C 24.80044609 15.38493954 15.89941600 -0.00124981 0.00023175 -0.00513705
C 27.67564904 12.25784455 17.23313294 -0.00284394 -0.00212329 0.00377867
C 24.75161197 15.26694098 20.73402727 -0.00499179 0.00878824 -0.00111180
C 28.12456836 12.35075221 21.96920711 0.00109193 0.00277698 -0.00204240
C 25.11065022 20.86236584 1.76714020 0.00472129 -0.00337093 0.00777615
C 28.22583317 17.88885468 3.15356153 -0.00712938 -0.00849915 0.00433591
C 25.02671689 20.88197542 6.58139295 0.00069281 -0.00268553 0.00869710
C 28.33189351 18.07566203 7.87490971 0.00295869 -0.00261574 0.00682004
C 24.97692482 21.03933205 11.32937491 -0.00576370 0.00279530 0.00319251
C 28.57741155 17.79798028 12.53671302 -0.00228224 -0.00217332 -0.00041392
C 24.88734481 20.87539287 16.09944331 0.00970090 -0.00466366 0.00580424
C 28.02058974 17.89840485 17.20696154 -0.00004949 -0.00477773 0.00489618
C 25.09973424 20.99343426 20.84775893 -0.00052200 0.00144018 -0.00055201
C 28.31822892 17.86572312 22.03078587 -0.00042024 -0.00270964 0.00708048
C 25.42136055 26.30820010 1.77854052 0.00374123 0.00055224 0.00121164
C 28.91476316 23.55488763 3.14189184 0.00452291 -0.00157602 0.00035090
C 25.59840176 26.64401917 6.44927522 0.00721311 0.00169966 -0.00060117
C 28.77205626 23.59945012 7.84854842 -0.00317700 -0.00836884 0.00451993
C 25.50901616 26.40125852 11.13711302 0.00179441 -0.00045845 0.01025365
C 28.50599085 23.63675826 12.65584210 -0.00286949 0.00354867 0.00092926
C 25.45041268 26.79446287 15.84471544 0.00380356 0.00036811 -0.00324375
C 28.41095051 23.71018681 17.48014372 0.00314397 -0.00447225 -0.00228034
C 25.21601153 26.48730870 20.69189909 -0.00213268 0.00376652 -0.00024062
C 28.67576302 23.60791029 22.18937379 0.00144701 -0.00733357 -0.00147606
N 30.99404665 4.51632901 0.75001635 0.00388687 -0.00618419 -0.00110071
N 3.43133678 5.34021477 3.65801486 0.00210186 0.00086492 -0.00200078
N 5.43458642 2.36526490 0.84057087 0.00426692 -0.00419502 0.00403263
N 1.80584183 1.50508933 3.71609623 -0.00169974 -0.00126055 0.00049977
N 0.41924738 4.44847085 5.83168506 0.00180422 0.00304688 0.00196062
N 3.44053555 5.23944072 8.29981786 0.00022822 -0.00106988 -0.00731328
N 5.37337725 2.38300343 5.60203845 -0.00584657 -0.00531360 -0.00845565
N 1.50745795 1.26879895 8.78942705 0.00531146 -0.00564863 -0.00049583
N 0.06159770 4.71118777 10.18721863 0.00144411 -0.00063981 -0.00311427
N 3.32241843 5.16501288 13.07974264 0.00544684 0.00206058 -0.00465829
N 5.23939085 2.59842107 10.48123161 0.00206931 -0.00203941 -0.00040084
N 1.69592144 1.48723699 13.55763989 0.00246165 0.00589044 0.00752883
N 31.08869404 4.57786206 15.03804949 0.00365775 -0.00158446 -0.00154485
N 3.22748698 5.20841442 17.98789845 0.00036373 -0.00034366 0.00143319
N 5.50755851 2.34372279 15.50242953 0.00050565 0.00073903 -0.00400261
N 1.84668615 1.44862491 17.90494703 0.00730108 0.00201881 0.00322167
N 0.11728655 4.40402369 19.83776472 0.00049787 -0.00347786 -0.00136090
N 3.12231798 5.18495417 22.69030283 -0.00348802 0.00298692 0.00769985
N 5.25381444 2.47812295 19.85984467 -0.00210658 -0.00390617 0.00084969
N 1.44750519 1.41025671 22.60759677 -0.00571156 0.00659198 0.00746016
N 0.74021707 9.96373087 0.89333714 0.00383929 -0.00111961 -0.00634094
N 3.92578161 10.93484584 3.73313241 -0.00008212 0.00100625 -0.00092518
N 5.33197650 8.16572844 0.91686202 -0.00007590 -0.00050334 -0.00209526
N 2.38945315 7.43070124 3.53104199 0.00764812 0.00374412 -0.00277352
N 0.57620669 10.12172782 5.70622315 0.00167359 0.00859054 0.00527915
N 4.10873692 10.87061945 8.27213245 -0.00139206 -0.00638707 -0.00454202
N 5.84347675 7.94984038 5.64161322 0.00159701 -0.00194143 -0.00333247
N 2.22470113 7.18503953 8.36850045 -0.00276122 0.00011708 0.00408750
N 0.70410806 10.16566682 10.53449527 -0.00021687 -0.00412265 -0.00602563
N 3.96309226 10.87459336 13.15095186 0.00097049 -0.00405710 0.00218720
N 5.54912819 7.86693942 10.37412610 0.00946053 0.00257444 -0.00016943
N 1.91411885 7.05626933 13.08961861 -0.00641639 -0.00126028 -0.00145742
N 0.57131284 10.27733185 15.32197018 -0.00467428 -0.00045076 0.00310553
N 3.72673014 10.82631666 17.93339937 0.00199562 -0.00341991 -0.00026929
N 5.66168636 7.64971294 15.00220960 -0.00264380 0.00414619 -0.00098600
N 1.89022426 7.09497595 17.98057214 -0.00300316 0.00287917 0.00251934
N 0.63467006 10.31013477 20.15642041 -0.00001310 -0.00050329 0.00556595
N 3.79205059 11.08426889 22.69868765 -0.00193153 0.00198507 -0.00552945
N 5.38974820 7.93611033 19.67981460 -0.00131851 0.00321049 0.00240863
N 2.10071158 7.25789403 22.52875995 -0.00148446 0.00406622 -0.00064236
N 1.16657675 15.55111289 1.03462951 -0.00233347 -0.00021890 0.00166387
N 4.71451334 16.76464484 3.57978396 0.00467860 -0.00461538 -0.00330730
N 6.07298232 13.67230607 0.70454267 -0.00256658 0.00392189 0.00483977
N 2.58469564 12.76311157 3.81006386 -0.00221712 -0.00207865 -0.00096078
N 0.80178235 15.61118447 6.06197422 0.00322168 0.00269887 0.00204593
N 4.33992837 16.55207274 8.48744122 0.00351657 -0.00168088 -0.00432760
N 6.29511656 13.52990847 5.38789982 0.00123135 -0.00369291 0.00522264
N 2.78036406 12.68040653 8.45602678 -0.00571486 -0.00263643 -0.00428082
N 1.17695727 15.43436456 10.42119192 -0.00543975 -0.00113581 0.00371554
N 4.78620615 16.98428160 13.20771472 0.00001091 0.00409072 0.00283365
N 6.10343502 13.73393326 10.36203063 -0.00461156 0.00195389 -0.00641712
N 2.77026358 12.89065264 13.11594810 -0.00678112 0.00081563 0.00544754
N 1.31334289 15.88652104 15.31657352 0.00597869 0.00035748 -0.00130300
N 4.52482547 16.85653093 17.93736155 0.00318981 0.00095700 -0.00092427
N 6.06267557 13.61244953 15.03717414 0.00060852 -0.00075536 0.00296358
N 2.73378700 12.90882415 17.69913576 0.00130564 -0.00034068 -0.00808907
N 0.65871004 15.97287722 20.12022436 0.00231732 -0.00149503 -0.00125206
N 4.40900711 16.57124370 22.71779000 0.00327786 -0.00100302 0.00310151
N 5.90112886 13.91902098 19.91060794 0.00123667 -0.00130720 -0.00472598
N 2.49253570 12.90325534 22.65278084 -0.00001794 0.00523990 -0.00040089
N 1.68645218 21.27420126 1.12187998 -0.00642178 0.00157773 0.00750699
N 4.29742070 23.73586023 3.96636739 0.00369292 -0.00275391 -0.00238643
N 5.30562987 20.52229408 1.16086088 -0.00271067 0.00340599 -0.00126685
N 2.87604842 18.05468595 4.00597869 -0.00770337 -0.00371463 -0.00296307
N 1.52822484 21.29144495 5.85443244 -0.00313524 -0.00598145 -0.00417805
N 4.20512342 23.70550655 8.48688354 -0.00211417 -0.00012302 0.00732090
N 5.63305675 20.27875611 6.05937303 -0.00927252 -0.00170543 -0.00653291
N 2.98066433 18.41617327 8.68632331 0.00737539 -0.00030617 0.00281553
N 1.60420649 21.53909957 10.34452742 0.00270052 -0.00513724 -0.00248930
N 4.14791637 23.50129852 13.11132599 0.00475811 -0.00426748 -0.00027630
N 5.35943286 20.56499681 10.49307014 0.00087789 0.00288376 0.00722759
N 3.04873769 18.30524687 13.37344559 0.00035447 0.00250701 0.00052459
N 1.68743406 21.47017966 15.20177694 -0.00128005 -0.00058201 0.00586685
N 4.27218364 23.71085006 17.93303684 0.00327307 0.00991770 -0.00422481
N 5.28271414 20.26491854 15.03480779 -0.01266745 0.00580394 0.00343013
N 2.96084375 18.57862140 18.00743570 0.00496962 0.00252739 -0.00321081
N 1.41828140 21.48776206 19.97232091 0.00050573 -0.00753733 0.00000236
N 4.22665578 23.64430523 22.79465856 0.00406213 -0.00394235 -0.00319817
N 5.23613893 20.51619228 19.75786009 0.00347809 -0.00321697 -0.00360063
N 3.00004100 18.31330146 22.85618202 -0.00082444 -0.00779609 -0.00570110
N 0.92897105 27.98138647 0.99663180 -0.00021173 -0.00054260 0.00026918
N 3.33608922 30.01304070 3.88957137 0.00338485 0.00341273 0.00527074
N 4.78145369 27.08807280 1.26492143 0.00388703 -0.00245839 -0.00423116
N 2.28464179 24.83172415 3.91802963 0.00247507 0.00195313 0.00711251
N 0.72849087 28.22674049 5.57586308 -0.00350118 0.00103544 -0.00488037
N 3.37490972 30.21857320 8.56778346 -0.00378399 -0.00172411 0.00489015
N 4.62403576 27.17424044 5.75622652 -0.00310723 -0.00288064 0.00152333
N 2.27042277 24.87033515 8.55424505 -0.00299772 -0.00306260 -0.00100130
N 1.24337100 27.98798325 10.53941111 -0.00440706 0.00081891 -0.00233720
N 3.42191484 30.14380226 13.40187034 -0.00334791 0.00104420 0.00109644
N 5.10830425 27.14559313 10.55677836 -0.00517452 0.00972449 -0.00430763
N 2.28277518 24.91386446 13.31538832 -0.00244954 0.00502237 0.00351740
N 0.90002944 27.99205078 15.59649875 -0.00154397 -0.00309973 -0.00388609
N 3.39125505 30.02934224 18.07309839 0.00201533 -0.00101227 0.00595194
N 4.64402160 27.08755679 15.40940017 -0.00133050 -0.00008041 -0.00781951
N 2.18276375 24.73872448 18.19276753 -0.00600552 0.00403762 0.00110079
N 0.86325035 28.01304741 20.04642833 -0.00100084 0.00510739 0.00143736
N 3.36413853 0.11780845 22.78944216 -0.00155605 0.00241511 0.00272480
N 4.86498166 26.98021395 20.16196729 0.00275927 -0.00459003 -0.00003328
N 2.18334368 24.79214705 22.78905820 -0.00323219 0.00218404 0.00462701
N 6.50654851 4.42499187 0.78103440 0.00200630 0.00014116 -0.00289481
N 10.38825561 4.96847769 3.68528441 -0.00115421 0.00296543 -0.00794484
N 11.77603320 1.82250444 1.05993513 0.00181227 0.00347335 0.00712890
N 8.45506128 1.30507873 3.92314789 -0.00784226 0.00391851 -0.00285558
N 6.78047537 4.20017522 5.69636313 -0.00104907 0.00146582 0.00238740
N 10.07041478 5.03106436 8.41130918 0.00053418 -0.00342939 -0.00311775
N 11.98806707 1.96266349 5.58748069 0.00311343 -0.00359843 -0.00123773
N 8.47444461 1.33028002 8.65554594 0.00434405 0.00150994 -0.00582267
N 6.91366672 4.20365417 10.44649350 0.00043648 -0.00433735 0.00599428
N 10.16623973 4.77223667 13.16491732 0.00155238 -0.00170908 -0.00384927
N 11.79771983 1.96891443 10.55233749 0.00018395 -0.00171977 -0.00372425
N 8.74848707 1.25850032 13.41195446 0.01117592 0.00190750 0.00566316
N 7.04637821 3.97766831 15.20041634 0.00112100 -0.00543741 0.00089890
N 10.06447597 4.85666560 17.96296720 -0.00308412 0.00021574 0.00524501
N 12.08414212 1.73741493 15.26335655 -0.00194629 0.00040869 -0.00179984
N 8.57119892 1.00784010 18.03247078 -0.00763383 0.00028084 -0.00032611
N 6.93763184 3.99984161 20.06726419 -0.00297301 0.00055032 0.00667047
N 10.03482289 5.08871215 22.75034084 0.00009011 -0.00216421 0.00242342
N 11.75666857 2.13962512 19.76416189 -0.00160892 -0.00121214 0.00722252
N 8.58377874 1.44667822 22.70910174 0.00224857 0.00548418 0.00059273
N 7.08386663 9.63480208 0.87531148 -0.00371820 0.00178650 0.00125176
N 10.75777961 10.85695425 3.72162210 0.00257433 0.00149145 -0.00167275
N 12.32216737 7.54274027 0.82231035 -0.00835825 0.00229282 -0.00363146
N 9.04588304 6.78714962 3.72715504 -0.00185338 0.00154453 -0.00022803
N 7.29325950 9.75146649 5.54573358 0.00021807 0.00388972 -0.00697123
N 10.62662031 10.79857789 8.17703967 0.00632672 0.00346803 0.00686430
N 12.42147687 7.60338480 5.56138125 0.00708089 -0.00391442 -0.00154228
N 9.04812394 7.08195819 8.49855007 -0.00466500 -0.00144835 0.00435334
N 7.09179647 9.56541739 10.35311644 0.00100750 -0.00075132 -0.00571061
N 10.64369563 10.70605308 12.97158523 -0.00201233 0.00497117 -0.00017964
N 12.47439855 7.51236151 10.33553214 -0.00315398 0.00233389 -0.00265245
N 9.11506523 6.80534863 12.97701062 -0.00133558 0.00795251 -0.00026487
N 6.92117804 9.55961450 15.04865323 -0.00362363 0.00212351 -0.00387705
N 10.67636320 10.76360148 17.70013878 -0.00348290 0.00634938 -0.00318813
N 12.20243964 7.53394625 15.21307267 -0.01029278 0.00392067 0.00001636
N 8.72564113 6.69981101 17.70362219 0.00573606 0.00082903 -0.00160787
N 6.62020362 9.87056408 19.92446436 0.00080806 -0.00132562 -0.00056075
N 10.73267697 10.72749365 22.55704904 -0.00081960 -0.00448356 -0.00199899
N 12.22285395 7.80145983 19.63127405 0.00044998 0.00034303 -0.00399081
N 8.92941182 7.08296758 22.62000378 -0.00528272 0.00082947 -0.00427913
N 7.87344406 15.07039963 0.79615388 -0.00053687 0.00375169 0.00438884
N 10.22648270 17.43327124 3.68270975 -0.00378951 0.00037494 0.00245463
N 11.63105977 14.35762174 0.85976023 -0.00085509 0.00071950 0.00188726
N 9.07474418 12.31684268 3.21749435 -0.00276950 0.00207239 0.00651317
N 7.68094888 15.38413410 5.56782076 -0.00113317 0.00407870 0.00507857
N 10.19477003 17.34563049 8.35678324 0.00051306 -0.00584758 -0.00127354
N 11.73469727 14.00738070 5.60911361 0.00146543 -0.00355276 0.00299796
N 8.99855772 12.26917954 8.26157523 -0.00783504 -0.00345915 -0.00162780
N 7.72243615 15.31707080 10.53191438 0.00516432 -0.00320182 0.00043208
N 10.35312389 17.37662823 13.16878643 0.00692389 0.00125698 0.00236110
N 11.51673991 14.27761820 10.43672064 0.00244409 0.00312472 0.00286145
N 8.98462736 12.31560933 13.09136535 0.00065679 -0.00355816 -0.00511449
N 7.70522141 15.18842350 15.40446780 0.00079106 0.00444891 0.01091424
N 10.10083275 17.51522884 17.90652605 -0.00266143 -0.00025001 -0.00187202
N 11.67239538 14.09829956 15.00748520 0.00408747 -0.00406402 0.00334788
N 8.81903748 12.09751089 17.69335815 -0.00181974 0.00345326 0.00153241
N 7.71055531 15.24390925 19.79459340 -0.00289113 -0.00403898 0.00350600
N 10.42018642 17.67731763 22.62603401 -0.00118234 0.00418482 0.00237781
N 11.42267392 14.10787839 19.89252946 0.00470499 -0.00681368 -0.00393297
N 9.02507488 12.19301094 22.43630432 0.00074274 -0.00110456 0.00340948
N 6.90107628 22.06483609 1.22295374 0.00469815 0.00209364 0.00014192
N 9.18030881 24.18738854 3.88290584 0.00440794 -0.00417161 -0.00368168
N 10.55821920 21.09438993 1.05617243 0.00003938 0.00393063 -0.00093729
N 8.34611992 18.77694097 3.91534177 0.00181049 -0.01000422 -0.00452975
N 7.12359770 21.87920166 5.58328508 0.00517051 0.00064885 0.00409989