2000
Time=98999.99999996 pbc="T T T" Lattice="31.14406140 0.00000000 0.00000000 0.00000000 30.09193325 0.00000000 0.00000000 0.00000000 23.69270354" energy=-12042.15824682 virial="-26.92350524 -13.98717541 7.54422868 -13.98717541 -28.54567690 -20.48755772 7.54422868 -20.48755772 -41.52255366" stress="0.00098099 -0.00072650 0.00033109 -0.00072650 0.00093907 -0.00086748 0.00033109 -0.00086748 0.00073700" Properties=species:S:1:pos:R:3:vel:R:3
C 30.65555023 3.61842180 1.81523236 -0.00544276 0.00590301 0.00140484
C 2.78943240 0.78125567 3.03418049 0.00026454 -0.00388450 0.00704391
C 30.49325446 3.81348531 6.54314545 -0.00411373 -0.00141543 -0.00113275
C 2.56164159 0.63917879 7.74907838 0.00426619 -0.00502955 -0.00855531
C 30.29502503 3.69775295 11.03131123 -0.00277183 -0.00253131 0.00282666
C 2.35499882 0.34392295 12.51599452 -0.00232694 -0.00529926 0.00520581
C 30.45194184 3.46067498 15.81806353 -0.00060663 0.00092310 0.00410819
C 2.49740559 0.43007882 17.06148914 -0.00056284 0.00126403 -0.00351176
C 30.48245951 3.25890358 20.64143309 0.00134163 -0.00079620 0.00020064
C 2.58902949 0.16526383 21.92118203 0.00045521 -0.00386131 -0.00024670
C 31.10552588 9.26384143 1.92786386 0.00561542 -0.00400902 0.00242368
C 2.91623685 6.30868990 2.99245269 0.00066822 -0.00548429 0.00037076
C 31.06384759 9.49234552 6.55030387 0.00225394 -0.00213834 0.00382912
C 2.67858407 6.20184321 7.66862114 0.00141541 0.00479850 -0.00096269
C 31.03968043 9.70039765 11.28254089 -0.00390075 -0.00356412 0.00494189
C 2.66267895 5.83791592 12.58680522 -0.00870399 0.00194139 0.00065519
C 30.74404248 9.39688281 15.94163793 0.00713264 0.00339636 -0.00147438
C 2.93253865 6.20693100 17.38409696 -0.00580595 -0.00161282 0.00062540
C 0.03186364 9.19148304 20.68826239 -0.00073791 0.00797679 -0.00266684
C 2.68898923 6.08156739 22.03219781 -0.00239099 -0.00133681 0.00135832
C 0.20917047 14.76916430 1.65465255 -0.00200691 -0.00413198 -0.00291053
C 3.57159833 11.99300454 2.83702389 -0.00474453 0.00695280 0.00208246
C 0.40151975 15.10200031 6.21683754 -0.00332921 0.00129727 0.00253015
C 3.29690746 12.03321307 7.67466608 -0.00702770 -0.00119956 0.00729612
C 0.12813389 14.92843855 11.23442090 -0.00268614 0.00044256 -0.00587228
C 3.47149523 12.00050097 12.53652829 -0.00530731 -0.00414420 -0.00412658
C 0.67748434 14.94679409 15.94055919 -0.00308235 -0.00228991 0.00239377
C 3.53251141 11.58928833 17.15769875 0.00024571 0.00129710 -0.00375809
C 0.04719226 14.83808308 20.58792563 0.00493053 -0.00729814 0.00110562
C 3.26686241 11.75600941 21.81716645 0.00271232 0.00448657 0.00226886
C 0.54437557 20.49551169 1.86770893 0.00213285 0.00226687 0.00010136
C 3.95348619 17.62318390 2.85774898 -0.00253525 0.00659972 0.00458188
C 0.70758136 20.72042921 6.52728873 -0.00226226 0.00086534 0.00329007
C 3.73830851 17.52188204 7.62197277 -0.01101921 0.00037838 -0.00306209
C 0.61318766 20.82916509 11.41704703 0.00417444 -0.00022970 0.00471047
C 3.53439121 17.59837576 12.31481196 0.00158706 -0.00478824 0.00064954
C 0.57368467 20.41297011 16.10453663 0.00987313 -0.00354528 -0.00152619
C 3.77781925 17.36462180 17.15376982 0.01022259 0.00374148 0.00205623
C 0.85375113 20.35583416 20.74520131 0.00046584 -0.00768181 0.00140058
C 3.69583837 17.30100329 21.94234991 0.00392321 0.00681900 -0.00272513
C 30.98630300 27.08918225 1.82146413 -0.00051361 0.00463497 -0.00307728
C 3.03433039 24.01000086 3.34881447 -0.00403128 -0.00789351 -0.00671094
C 0.23347719 26.88219885 6.55952812 -0.00524756 -0.00043282 -0.00516174
C 3.28842784 24.18957844 7.90891764 -0.01048691 -0.00073929 -0.00065082
C 31.04165455 26.89860997 11.20859562 0.00204079 0.00149178 0.00741107
C 3.00590544 24.12424212 12.57471090 -0.00002686 0.00258739 -0.00033285
C 30.89255956 27.08524514 16.06512559 0.00052663 0.00687585 -0.00201336
C 3.11670646 24.20342935 17.26685468 -0.00412809 0.00389563 0.00112617
C 31.09320229 26.93633601 20.82405807 0.00200800 -0.00434804 0.00812444
C 3.44852079 24.28465409 21.86247479 -0.00117117 -0.00093986 0.00230806
C 6.15719905 3.58876933 1.55342128 -0.00255750 -0.00429965 0.00738048
C 9.08151341 0.42380564 3.12335098 0.00087785 -0.00268482 0.00339462
C 6.24819943 3.23975068 6.44611937 0.00396615 0.00083601 -0.00338439
C 9.12655753 0.33220641 7.86183493 -0.00696366 -0.00047269 0.00068428
C 6.08216692 3.17545780 11.11137442 -0.00364087 0.00660576 0.00338283
C 9.12472800 0.10209596 12.45470980 -0.00792650 -0.00321105 -0.00626145
C 6.12921090 3.07583443 16.01129994 -0.00400226 0.00620483 0.00224730
C 9.03508092 0.16419115 17.18539105 -0.00388198 0.00641075 0.00300480
C 5.96651032 2.98427549 20.52375383 0.00481919 -0.00173345 -0.00623653
C 9.27480726 0.10496870 22.14613349 0.00846542 0.00197336 0.00493320
C 6.41201782 8.77820428 1.52695207 0.00494449 -0.00190923 0.00703921
C 9.80886259 6.06805346 2.96952936 0.00083941 0.00567159 0.00170288
C 6.34156641 8.69188000 6.15867843 -0.00100244 0.00349434 -0.00147540
C 9.50190277 5.97216437 7.53347270 -0.00204811 -0.00499458 0.00192130
C 6.26755885 8.66317985 10.95734315 0.00412847 0.00614188 0.00071774
C 9.17928094 5.70751405 12.64392770 -0.00430030 -0.00305359 0.00093196
C 6.37927754 8.62094296 15.60592844 0.00318087 -0.00195974 -0.00269450
C 9.77478811 5.88705400 17.29666338 -0.00646907 0.00056604 -0.00543302
C 6.50551619 8.52197780 20.56018964 -0.00416905 -0.00110222 0.00597522
C 9.64433059 5.50950863 21.88445738 0.00311353 -0.00220080 -0.00014096
C 6.97950460 14.20351801 1.52107053 -0.00250297 0.00255309 -0.00138939
C 9.95141144 11.52859163 2.54367276 -0.00576171 -0.00445528 0.00306612
C 6.84465893 14.40294466 6.29692699 -0.00035343 -0.00354867 0.00167007
C 9.70234405 11.61730384 7.58613069 0.00344251 -0.00495925 -0.00510531
C 6.85662934 14.46835645 11.09856500 0.00104614 0.00796624 0.00334525
C 9.85035090 11.25114394 12.21994611 -0.00337398 -0.00535130 -0.00236035
C 6.75666382 14.27478101 15.62436979 -0.00448323 -0.00183346 -0.00480855
C 9.91589822 11.36858912 16.98658815 0.00451233 0.00264537 -0.00824373
C 6.83038382 14.42736611 20.53939583 -0.00412684 0.00073561 -0.00027822
C 10.01471629 11.53946941 21.67556359 0.00055448 0.00599734 0.00792576
C 6.23722221 21.15415078 1.74093857 -0.00350565 -0.00143597 -0.00030809
C 9.34021971 18.16171335 2.96793992 0.00226102 0.00180996 0.00276908
C 6.11854491 20.85006669 6.45433451 0.00490717 -0.00077030 -0.00433261
C 9.10028949 18.08836862 7.77142535 0.00387355 0.00442394 0.00231864
C 6.30773202 21.00909740 11.25811465 0.00541810 0.00054187 0.00435815
C 9.32383437 18.27861945 12.49498302 -0.00164163 0.00536167 0.00362095
C 6.12036410 21.09488565 16.23419892 -0.00040691 -0.00339746 -0.00198521
C 9.13343053 18.09312259 17.18589545 -0.00374281 0.00009012 0.00180554
C 6.07819208 20.93106531 20.83848688 0.00589055 -0.00338117 -0.00152875
C 9.28726495 18.04251782 21.94390060 -0.00307303 -0.00114630 -0.00209163
C 5.44562398 27.69928873 1.86068662 0.00262148 0.00037430 0.00149250
C 8.86289101 24.88490591 3.12817053 0.00602196 0.00068423 -0.00415133
C 5.50031867 28.12334540 6.56961179 0.00373824 -0.00428475 0.00502199
C 8.82311999 24.53443787 7.77684741 -0.00234647 0.00358246 -0.00335339
C 5.56061799 27.56054400 11.24681973 -0.00179009 0.00337271 -0.00386848
C 8.70951981 24.50357652 12.56460619 -0.00243349 0.00441057 -0.00175710
C 5.51950479 27.63913113 15.89654023 0.00145532 -0.00195050 0.00394130
C 8.72229108 24.61688905 17.18433759 -0.00002369 0.00422312 -0.00152783
C 5.71889507 27.54092135 20.65598170 -0.00146355 -0.00098187 0.00507752
C 8.65143010 24.66778839 21.90256846 -0.00136698 -0.00130021 0.00396824
C 12.77467583 2.71549191 1.55973085 0.00535868 0.00034063 -0.00187601
C 15.80554026 29.97805555 3.05074367 -0.00293089 0.00150910 -0.00643086
C 12.90368863 2.83536826 6.40354813 -0.00014435 0.00243303 -0.00191913
C 15.99429416 0.28043187 7.72324125 0.01003592 0.00180465 -0.00887743
C 12.69453830 2.73743556 11.08995583 0.00296197 0.00319633 0.00156562
C 15.77372678 29.98749500 12.55164216 -0.00096554 -0.00175155 0.00281104
C 12.43337120 2.76386078 15.74220019 -0.00910049 0.00793473 0.00101711
C 15.69529805 30.05435540 17.10243449 -0.00487992 0.00730971 0.00061040
C 12.84414949 2.46995935 20.53812213 0.00321862 -0.00785286 0.00247036
C 15.96820761 30.00236072 21.90009603 0.00209825 -0.00408258 0.00730587
C 13.08989078 8.51941505 1.55463510 0.01193108 -0.00512908 0.00076364
C 16.09303759 5.54953037 2.97644330 -0.00083238 0.00023593 -0.00028545
C 13.02443928 8.44058187 6.42105260 0.00329826 0.00554698 -0.00294059
C 16.12397999 5.90990448 7.75184055 0.00004139 0.00132680 0.00062820
C 12.84611253 8.54628729 11.11316387 0.00350440 -0.00256466 -0.00085601
C 16.17266588 5.51841162 12.41132769 0.00294242 -0.00285292 0.00388239
C 13.22022653 8.56102883 15.84968822 0.00551657 0.00034287 0.00182903
C 16.12025502 5.27636706 17.20629178 0.00215284 0.00204002 0.00569800
C 13.10096367 8.29016870 20.41648591 -0.01655819 0.00184818 0.00559311
C 15.91211497 5.42160525 22.01895422 -0.00449290 -0.00070401 -0.00466215
C 12.52203119 14.86411376 1.73260685 -0.00269401 0.00055095 -0.00861061
C 15.72333654 11.79622736 3.10663623 0.00171922 -0.00147934 -0.00247198
C 12.38595867 14.78042462 6.14388360 0.00021779 0.00515750 0.00193283
C 15.54213961 12.21893771 7.61948749 0.00446948 0.00062404 0.00293325
C 12.63077954 15.07719758 11.04988780 -0.00208756 -0.00123919 -0.00240695
C 15.63433469 12.15554239 12.22838336 -0.00531953 -0.00472561 0.00032087
C 12.40625340 14.97998793 15.74632407 -0.00813025 -0.00881729 -0.00501702
C 15.67124197 11.90960606 17.25659794 0.00811321 -0.00354813 -0.00517447
C 12.30966685 15.03753770 20.39668833 0.00074188 -0.00077335 0.00770758
C 15.58011992 11.88041065 21.99489907 -0.00558019 0.00295862 0.00101217
C 11.88541061 21.66362512 1.84135150 -0.00273403 -0.00109865 0.00158632
C 15.09119048 18.47534599 2.99551254 -0.00091927 -0.00096923 -0.00418084
C 11.78750499 21.81318922 6.37350360 -0.00097573 -0.00674725 -0.00323976
C 15.05041259 18.70645579 7.70287140 0.00283549 -0.00306038 -0.00158620
C 11.91765013 21.55960931 11.12071469 -0.00003127 -0.00120490 0.00261760
C 15.22884257 18.55238077 12.54651473 -0.00661755 -0.00424974 -0.00389947
C 12.01236110 21.80332851 16.01119833 -0.00153111 -0.00036085 -0.00020962
C 14.97703286 18.45844971 17.21444208 0.00142628 -0.00025365 0.00210209
C 11.80625729 21.67959410 20.71855941 -0.00043087 0.00002299 0.00013808
C 14.87214028 18.94467928 22.06374113 -0.00404069 0.00198092 -0.00073050
C 12.30980891 27.25164389 1.69043745 0.00152520 -0.00279824 0.00399559
C 15.37932339 24.49768549 3.16409353 0.00275302 0.00007166 0.00795018
C 12.37976569 27.67476016 6.25533210 0.00164339 -0.00353331 -0.00336656
C 15.29226065 24.20733039 7.80770082 -0.00018561 -0.00855852 0.00020838
C 12.34385996 27.12585401 11.24830699 0.00636581 0.00445570 0.00135475
C 15.32004318 24.34510411 12.51039780 0.00147593 0.00336807 -0.00428177
C 12.25372339 27.33461429 16.05349213 0.00384660 0.00260431 -0.00543433
C 15.77436394 24.17028286 17.26342678 -0.00024993 -0.00800375 0.00467418
C 12.31462707 27.13422879 20.53728447 0.00713553 0.00421233 0.00412070
C 15.40757028 24.46729387 21.84349878 0.00171476 0.00117443 -0.00527238
C 19.50298364 2.49864557 1.77994554 -0.00013701 0.00323906 0.00153235
C 22.38545428 29.59738303 2.96717806 0.00164213 0.00605079 -0.00456842
C 19.43194758 2.45910690 6.41164221 0.00271381 -0.00010247 -0.00002475
C 22.32646434 29.40222259 7.83097769 0.00560369 0.00662416 -0.00150055
C 19.45789289 2.42923962 11.06862041 0.00644172 0.00533015 0.00102523
C 22.28955799 29.62412816 12.43996997 0.00131208 0.00189799 -0.00518436
C 19.51467842 2.56984883 16.00108635 0.00687964 -0.00592334 -0.00426317
C 22.55307548 29.65238093 17.27258901 0.00245332 0.00845020 0.00053787
C 19.20413625 2.57545774 20.75030745 0.00392523 -0.00233533 -0.00813611
C 22.50953659 29.44514433 22.09651127 -0.00019505 0.00168805 0.00183916
C 18.74265685 8.72961195 1.75080445 -0.00312231 -0.00418755 -0.00287389
C 21.79224858 6.21301430 3.24455200 0.00237244 0.00164821 -0.00446070
C 18.50017011 9.20375909 6.58452329 -0.00241290 0.00002464 0.00285822
C 21.95152604 6.02442943 7.87192496 -0.00407946 0.00253237 0.01013888
C 18.87763037 9.08489324 11.26636488 -0.00592899 -0.00258815 -0.00289502
C 21.63408066 6.12759610 12.55213153 0.00778275 0.00007302 -0.00840756
C 18.68824156 9.04076986 16.05453600 0.00217771 0.00287831 0.00315465
C 22.02263493 6.10875514 17.37166495 0.00554530 0.00035002 -0.00298597
C 18.74454848 8.92309868 20.62732552 -0.00069828 0.00093715 0.00303778
C 21.81251482 6.05067105 21.99255561 0.00513175 -0.00036955 -0.00638552
C 17.93220283 15.55711121 1.62797121 0.00120107 -0.00079887 0.00751755
C 21.24917664 12.33023576 3.11441733 -0.00448859 0.00384853 -0.00798591
C 18.13733873 15.51252733 6.40041469 0.00093441 -0.00047428 0.00397407
C 21.29850872 12.83301835 7.89728116 0.00772357 0.00642399 -0.00313917
C 17.91025572 15.59197253 11.32654199 -0.00125429 0.00073210 -0.00021553
C 21.30062945 12.65958284 12.54765839 0.00081375 -0.00151219 0.00274649
C 18.10649625 15.48324179 16.12700150 -0.00543236 -0.00249111 0.00419751
C 21.20660851 12.43668014 17.21822893 0.00762614 -0.00266249 -0.00827874
C 17.87329563 15.52689563 20.66885038 0.00606653 -0.00488965 0.01020033
C 21.19893654 12.49505528 21.84946523 -0.00111917 -0.00022941 -0.00538524
C 18.39737656 21.66748277 1.79982319 -0.00017121 0.00092743 0.00312834
C 21.18819038 18.40907963 2.84076590 0.00046371 0.00038930 0.00332254
C 18.44669146 21.08412939 6.49554506 -0.00396410 0.00400084 0.00160015
C 21.64085633 18.08189523 7.76784814 0.00246039 0.00629205 -0.00253654
C 18.69880950 21.22206861 11.37084225 -0.00529409 0.00097266 -0.00069480
C 21.29113061 18.14166623 12.69437508 -0.00427997 -0.00563169 -0.00759297
C 18.31004749 20.91644355 16.12211542 -0.00400721 0.00425590 0.00355989
C 21.40386270 18.37716604 17.42616058 0.00661854 -0.00162685 0.00385696
C 18.31566650 21.15826298 20.89135158 -0.00632686 0.00178478 0.00126179
C 21.36220952 18.17939094 21.96706052 -0.00291421 -0.00359623 0.00018141
C 18.97839972 26.93822099 1.67946279 -0.00064590 -0.00032424 -0.00394017
C 21.96947594 23.76193764 3.03957453 0.00675551 -0.00158188 -0.00127535
C 18.77369825 26.90762996 6.51100968 0.00047484 0.00239825 -0.00386270
C 21.62998767 23.82643538 7.94566122 0.00274470 0.00099631 -0.00180115
C 18.91350114 26.67121850 11.19757674 -0.00549665 0.00220555 -0.00358147
C 21.90100574 23.69351598 12.62977763 -0.00573831 0.00299426 -0.00882134
C 19.05693590 26.95567244 15.93655294 -0.00006911 0.00439231 0.00284396
C 21.95524509 23.89636186 17.18307891 0.00837830 0.00285809 0.00276019
C 19.05472204 27.02577761 20.56851954 -0.01055792 0.00172249 0.00062586
C 21.95582167 23.87248921 22.00450410 -0.00161422 0.00182206 -0.00225934
C 24.97856824 3.08293682 1.72912894 -0.00034575 0.00238771 -0.00322728
C 28.14160749 0.10988790 3.03904259 0.00196937 -0.00338682 -0.00287152
C 24.81944127 2.79657621 6.53327208 -0.00580560 0.00432756 0.00270271
C 27.88305892 29.84540177 7.76157211 0.00364777 -0.00132346 0.00009712
C 24.97336099 3.07001252 11.18331663 0.00327544 -0.00932055 -0.00212405
C 28.16022854 0.03846706 12.41600811 -0.00470172 -0.00106794 0.00176726
C 24.88445256 3.05944602 16.07651210 -0.00356445 -0.00627182 -0.00177019
C 27.95808974 30.05379515 17.41039540 -0.00112434 -0.00116070 -0.00233322
C 25.05906303 2.93055491 20.68811085 0.00786916 -0.00469197 0.00240989
C 28.30903784 30.01401737 22.05696990 0.00189774 -0.00009944 0.00102912
C 24.18002629 9.53386774 1.80686301 0.00109884 0.00194703 -0.00724062
C 27.51387821 6.36665174 3.04909580 0.00019511 0.00504303 0.00124907
C 24.32888949 9.49418142 6.51167323 -0.00281005 -0.00276068 0.00050357
C 27.36120057 6.74110366 7.77879384 0.00284747 -0.00069223 0.00375683
C 24.23610574 9.59844688 11.31409566 0.00052052 -0.00158445 0.00280439
C 27.20044853 6.63610215 12.58817027 -0.00187987 0.00312474 -0.00488773
C 24.44944931 9.66510637 15.91615555 0.00293038 -0.00121537 -0.00452385
C 27.64418759 6.60601568 17.06143015 -0.00116122 -0.00708038 0.00146279
C 24.47952416 9.31275714 20.65207635 0.00518949 -0.00118445 0.00303261
C 27.54765731 6.54026137 22.01570667 0.00813282 -0.00502934 0.00055341
C 24.65311927 15.15829490 1.69388676 0.00172156 0.00675958 -0.00199269
C 27.75504913 12.22607723 3.05881876 0.00506261 -0.00374838 0.00183814
C 24.53312661 15.19939820 6.37461164 0.00039246 0.00533001 -0.00514114
C 27.84213474 12.15747296 7.74869712 0.00583021 0.00232288 0.00301892
C 24.72377728 15.38615939 11.28736928 0.00013878 -0.00330257 -0.00659392
C 27.89448743 12.24597598 12.69138108 -0.00502794 0.00206328 0.00221459
C 24.49216101 15.31616532 15.81656727 0.00258445 -0.00422631 0.00416032
C 28.00672524 12.36034189 17.18412661 -0.00293204 -0.00802617 0.00077344
C 24.95014363 15.27672529 20.56492465 -0.00417132 0.00851419 0.00019354
C 27.77738085 12.03550780 21.97377173 0.00330634 -0.00593321 0.00125611
C 24.88222417 20.97210913 1.89244753 -0.00609204 -0.00975138 0.00128099
C 28.37187504 18.07605314 3.18702926 -0.01102462 -0.00714541 0.00118938
C 24.86762886 20.51081604 6.49924247 -0.00256017 -0.00302151 0.00291617
C 28.19683177 17.72433973 7.79937803 -0.00299944 -0.00454716 -0.00478895
C 24.82053744 20.86693462 11.22963550 -0.00097072 0.00960431 0.00063533
C 28.43912304 18.00639965 12.54521712 0.00891194 -0.00495080 0.00617556
C 25.13397589 20.96908356 16.13871621 -0.00433144 -0.00658469 0.00388465
C 28.23435921 17.85244924 17.24212378 0.00311577 0.00258240 0.00564131
C 24.99942001 20.74349365 20.91345386 -0.00650724 0.00277821 0.00066970
C 28.30175007 17.99968155 22.26529790 0.00370877 -0.00327769 0.00123276
C 25.46199438 26.51757830 1.76639698 -0.00240609 -0.00054406 -0.00019068
C 28.56018728 23.42564771 3.06112448 -0.01198114 0.00003112 -0.00172688
C 25.44228649 26.43689135 6.50018557 0.00300418 0.00885597 0.00666019
C 28.63189352 23.66830396 7.70341318 0.00450231 0.00806007 0.00107938
C 25.47452422 26.54770686 11.31640997 -0.00280569 -0.00050488 0.00563478
C 28.52974699 23.54161561 12.68505088 -0.00170372 -0.00410089 0.00689431
C 25.53196140 26.52686947 16.07089396 -0.00129938 0.00187038 0.00361057
C 28.54677495 23.53234665 17.54443156 -0.00091507 0.00711403 -0.00352818
C 25.36664049 26.50040152 20.70154566 0.00125148 0.00017469 0.00605266
C 28.38898437 23.56343712 22.14238820 0.00021669 -0.01049939 -0.00647560
N 0.11399430 4.63094114 1.15387148 0.00199376 0.00426174 0.00234618
N 3.58598765 5.28175901 3.51109484 -0.00029274 -0.00460810 0.00186693
N 5.25673403 2.68631887 0.93016644 0.00341110 -0.00243253 0.00167392
N 2.06364326 1.75217314 3.67213626 -0.00681567 -0.00128894 -0.00944725
N 0.15522298 4.48470837 5.72394479 -0.00066479 0.00238768 -0.00004833
N 3.30476584 5.32504316 8.44687974 -0.00487976 0.00050586 -0.00713904
N 5.37436264 2.46065957 5.77213014 0.00070770 -0.00518417 0.00572384
N 1.50400534 1.11543426 8.51921665 0.00325923 0.00515047 -0.00743258
N 0.03449292 4.52020661 10.38550447 -0.00019877 -0.00457851 0.00255647
N 3.09178110 4.73681968 13.28826234 0.00462832 -0.00008985 -0.00109628
N 5.20523088 2.33900726 10.45272468 0.00055269 -0.00079112 0.00665876
N 1.53040731 1.27467518 13.12038400 0.00418121 0.00011446 -0.00144920
N 0.11031695 4.28674221 15.06408423 0.00352325 -0.00042115 -0.00106445
N 3.58946306 5.34255917 18.15948040 0.00539034 0.01062315 0.00142660
N 5.72373730 2.02288377 15.21314031 0.00275477 0.00654293 0.00355216
N 1.58158152 1.16790995 17.74859915 0.00110659 -0.00922989 0.00330725
N 31.01675653 4.30441758 19.96994971 0.00073782 0.00712618 -0.00284329
N 3.35562411 5.07945294 22.66541656 -0.00672591 -0.00001440 0.00305018
N 5.15258438 2.20321612 19.81248043 -0.00237271 -0.00269256 0.00028666
N 1.93150555 1.10174536 22.69949699 0.00009776 -0.00383991 0.00532556
N 0.67230351 10.07807878 1.11547130 -0.00043505 -0.00985108 0.00270312
N 3.92248803 10.91982586 3.67070012 -0.00472528 -0.00092589 0.00520775
N 5.39338095 8.27168539 0.78086457 0.00751420 -0.00657352 -0.00678768
N 2.25234814 7.16198168 3.79646689 -0.00453467 -0.00236505 0.00339800
N 0.79415840 10.20581474 5.84234174 -0.00472547 0.00138576 -0.00099762
N 3.85162095 11.02367473 8.43342860 -0.00585674 -0.00133331 0.00035711
N 5.67599252 7.75335631 5.50234089 0.00361813 0.00410103 -0.00138582
N 2.23789694 7.31883732 8.34881516 -0.00382144 0.00079824 -0.00474491
N 0.55918666 10.54100409 10.44649821 -0.00190360 0.00228550 0.00178634
N 4.12737900 10.98895901 13.16910798 -0.00619118 0.00137402 0.00451728
N 5.57343090 7.74587746 10.15007889 -0.00435919 0.00639015 0.00649171
N 2.31508223 6.92095925 13.29257543 0.00109556 0.00539251 0.00514793
N 0.36808485 10.28830853 15.32280523 0.00157095 0.00476365 -0.00273891
N 4.16601271 10.61273739 17.90331562 0.00475651 0.00302818 0.00426219
N 5.77127506 7.65107762 14.85277064 -0.00227250 -0.00128298 0.00000417
N 2.21745968 7.13363587 18.04092921 0.00520247 0.00122545 0.00033715
N 0.78301808 9.92508587 19.85370823 -0.00371632 -0.00029435 0.00583002
N 3.98577458 11.00917829 22.67425256 0.00155760 -0.00007934 -0.00131848
N 5.63851231 7.87781850 19.75919013 0.00356459 0.00031108 -0.00269212
N 2.18984897 7.06640285 22.85265744 0.00022849 0.00452275 -0.00299219
N 0.94745780 15.69920829 0.98542322 0.00201280 0.00350299 -0.00296473
N 4.54878703 16.76743333 3.71332038 -0.00386589 0.00728480 0.00805141
N 6.18222652 13.39156766 0.74302010 -0.00056534 0.00014623 0.00283606
N 3.02846498 13.00898704 3.47492834 0.00545682 -0.00070197 -0.00003270
N 1.14666382 15.95070755 5.44405102 0.00921647 0.00335053 -0.00602335
N 4.32825966 16.53604126 8.28482975 -0.00410665 -0.00666869 -0.00095429
N 5.98910348 13.64093449 5.55861525 0.01155701 0.00133220 0.00298869
N 2.74957365 13.05105568 8.36517190 -0.00292122 0.00060149 -0.00237687
N 1.03971409 15.56122525 10.48789843 0.00289130 -0.00080593 0.00551337
N 4.55641967 16.89535104 12.89153285 0.00127453 -0.00515573 0.00992913
N 5.85667471 13.69833306 10.56206588 0.00171668 0.00073706 0.00053875
N 2.81613988 12.85212349 13.40726317 0.00218632 0.00212724 -0.00571908
N 1.41723935 15.71219466 15.07671997 -0.00362950 -0.00154563 0.00194174
N 4.75998705 16.69243927 17.68071846 0.00206574 -0.00094359 0.00772510
N 5.96669464 13.62919370 14.71082662 0.00435057 -0.00280633 -0.01011118
N 3.12328719 12.68184003 17.80702891 0.00600480 -0.00073373 -0.00663093
N 0.94115832 15.67316216 19.93601921 -0.00496466 0.00355918 0.00139414
N 4.51871831 16.45936061 22.58919074 0.00073049 -0.00259159 -0.00903879
N 6.19028088 13.55480908 19.72177447 0.00506647 0.00145730 -0.00597422
N 2.68529677 12.84831163 22.29125336 -0.00365776 -0.00141156 -0.00479317
N 1.16957424 21.38800311 1.06896420 -0.00290170 0.00056370 -0.00073734
N 4.10257104 23.51328541 4.04316953 0.00303174 0.00051492 -0.00250435
N 5.60441038 20.35897024 0.88761370 -0.00157650 -0.00370353 -0.00077042
N 3.06891696 18.42620883 3.47001852 0.00350389 -0.00061776 -0.00191627
N 1.57960984 21.39448940 5.75498240 -0.00039601 -0.00087345 -0.00235243
N 4.30993434 23.53902207 8.47171589 0.00079137 0.00151610 0.00544026
N 5.34428779 20.13754750 5.60887436 -0.00016145 -0.00624765 0.00353647
N 2.85459947 18.30724599 8.40586313 -0.00375773 0.00509397 0.00503148
N 1.54798778 21.54116025 10.76179400 -0.00112147 -0.00002594 0.00996036
N 3.99189839 23.66521300 13.40500599 0.00563605 0.00024707 0.00373076
N 5.43681324 20.36219019 10.49438584 0.00188371 0.00292917 0.00215902
N 2.77938390 18.24358917 13.22749032 0.00383962 0.00696941 -0.00096856
N 1.40053244 21.33821403 15.50544624 0.00274834 -0.00374009 -0.00278255
N 4.12069106 23.47897853 17.83797982 -0.00281027 0.00244447 -0.00244883
N 5.32295739 20.54094683 15.31198217 0.00509024 -0.00256959 0.00131923
N 2.83595397 17.90334225 18.04400756 0.00102864 -0.00224663 -0.00285910
N 1.65430572 21.22742504 20.01778335 -0.00136479 -0.00405095 -0.00290069
N 4.48634408 23.81819166 22.60996121 0.00044422 -0.00123479 -0.00480637
N 5.24949470 20.06481095 20.22575610 0.00272402 -0.00537387 0.00394282
N 3.00610857 18.13371168 22.76026568 0.00291786 -0.00193038 0.00194556
N 0.66392843 27.98683454 1.16915618 -0.00485819 -0.00434629 -0.00360720
N 3.31116943 29.88834622 3.84756873 0.00003229 0.00059893 -0.00142124
N 4.61334533 26.79246381 1.12470830 -0.00588402 0.00052832 0.00822982
N 1.97844352 24.57659042 4.02139337 -0.00093396 0.00267059 0.00149712
N 1.08907299 27.63008463 5.75245925 -0.00247441 -0.00055145 -0.00703597
N 3.48410245 29.97638850 8.38810212 0.00193118 0.00487034 -0.00283411
N 4.57436925 27.23545015 6.02434720 0.00204869 -0.00598587 -0.00266693
N 2.26587006 24.61945649 8.69326159 -0.00264800 -0.00384919 0.00163751
N 0.66781468 27.71428226 10.49973917 0.00070317 0.00026167 -0.00345897
N 3.29921501 29.86193186 13.29201816 -0.00343312 -0.00800725 -0.00029993
N 4.89339404 26.76984609 10.35222841 0.00288649 0.00216305 0.00406994
N 1.95122792 24.65661614 13.20367443 0.00189482 -0.00193535 -0.00309134
N 0.68198808 27.82002130 15.29384993 0.00162983 0.00324760 0.00276047
N 3.35859555 29.77526977 17.77795460 0.00753860 -0.00709182 -0.00056460
N 4.65002390 26.82596461 15.20568903 -0.00320356 0.00293741 -0.00375077
N 2.10816095 24.55865910 18.07355218 0.00032183 -0.00214564 -0.00337669
N 0.82306799 27.64604869 20.16242032 -0.00286894 0.00880288 -0.00387691
N 3.58570675 29.61678841 22.58819853 0.00394994 0.00019919 0.00025713
N 4.82446492 26.74758368 20.00217826 0.00033096 -0.00154049 0.00284784
N 2.32904694 24.60655548 22.56338933 -0.00544824 0.00182900 0.00512258
N 6.80840476 4.48148167 0.78183198 0.00283968 0.00030715 0.00166424
N 10.65317965 5.22530536 3.66785819 0.00032450 0.00781473 0.00109357
N 12.03976251 1.80675203 0.98675158 0.00368128 -0.00676320 0.00345866
N 8.60970580 1.41941470 3.90682902 -0.00480956 0.00716528 0.00692692
N 7.17915626 3.85145049 5.64260059 -0.00159623 0.00476095 0.00553687
N 10.11540303 5.02597698 8.25968891 0.00681445 -0.00636523 0.00360571
N 12.17128790 2.02809928 5.69394203 -0.00154844 -0.00330097 0.00551239
N 8.40066967 1.00762829 8.79255625 -0.00478372 0.00229667 0.00321289
N 6.77823870 4.12299853 10.44773858 -0.00425557 -0.00533204 -0.00235477
N 9.95389969 4.79782221 13.29384393 -0.00400186 0.00063930 0.00174916
N 11.78112402 1.94838696 10.35043605 0.00091118 0.00367384 -0.00699573
N 8.36232048 1.08952915 13.06384822 -0.00644334 0.00467829 -0.00108661
N 6.61217837 4.11911012 15.32447613 0.00381558 0.00626337 0.00383749
N 10.12728288 4.75367611 17.94708884 -0.00444648 -0.00562600 0.00327332
N 11.73003399 1.85816400 15.01034497 -0.00783422 -0.00240202 -0.00186900
N 8.30353642 1.06488388 17.90059201 -0.00153065 0.00028149 0.00345909
N 6.67769412 3.87838212 19.82540306 -0.00542963 -0.00165818 -0.00373610
N 10.43335850 4.81258299 22.72233980 -0.01459100 -0.00066548 -0.00168396
N 11.84200372 1.68245710 19.97098908 -0.00384291 -0.00619249 -0.00030757
N 8.51622004 1.00130401 22.77639220 0.00701475 -0.00006951 0.00277889
N 7.45060212 9.33694907 0.81937860 -0.00066211 -0.00916898 -0.00147883
N 10.75796967 10.58283523 3.08017564 -0.00064684 -0.00418386 0.00334716
N 12.26689327 7.76401922 0.78015199 0.00006225 -0.00113691 -0.00336378
N 8.98644103 6.88680659 3.69865488 0.00597866 -0.00147226 0.00135310
N 7.05203798 9.60972406 5.42681993 -0.00085932 -0.00558602 -0.00307951
N 10.52667668 10.86545631 8.31635364 -0.00122381 0.00186272 0.00093312
N 12.28714418 7.72719464 5.60820443 0.00016714 0.00452575 -0.00020889
N 8.66108102 6.87539023 8.14762562 -0.00020976 -0.00263020 0.00638590
N 7.03674634 9.60193532 10.37253515 -0.00128228 0.00162559 0.00148961
N 10.47393018 10.42671579 13.09463822 -0.00910897 0.00538882 -0.00165821
N 11.95215109 7.81493806 10.43617482 0.00161153 0.00714163 -0.00474721
N 8.58068978 6.71838397 13.30506013 -0.00103852 -0.00496878 -0.00115787
N 7.32326681 9.44276833 14.94946757 -0.00279065 0.00093231 0.00239263
N 10.72600821 10.53160100 17.69454404 0.00643502 0.00408077 0.00223833
N 12.37672515 7.69390914 15.09102489 -0.00696829 0.00059901 -0.00225105
N 9.24621710 6.83216937 18.00719214 -0.00376852 0.00273595 0.00126778
N 7.28691119 9.50957249 19.99133966 -0.00216904 0.00410827 -0.00162560
N 10.93206237 10.74949952 22.39157782 0.00207615 0.00187400 0.00208680
N 12.42810735 7.36542755 19.67378263 0.00659853 -0.00193951 -0.00584160
N 9.16896760 6.70848243 22.28471629 -0.00685144 0.00154152 -0.00103564
N 7.68755432 15.20073990 0.85332255 0.00097784 0.00775860 0.00379469
N 10.36545172 17.47965617 3.51616837 0.00082991 -0.00777201 0.00600751
N 11.72831396 14.05430143 1.00692570 -0.00162577 0.00332679 0.00502380
N 9.09864379 12.13564648 3.41605117 -0.00574109 -0.00151018 -0.00061692
N 7.75429102 15.17791178 5.58588147 -0.00050649 -0.00653385 0.00420304
N 10.33427813 17.87085667 8.27160839 -0.00043086 -0.00138462 0.00287549
N 11.56684788 14.04933532 5.40556039 0.00094469 0.00091626 -0.00134930
N 8.81162060 12.29366165 8.31328608 -0.00019289 0.00076225 -0.00633212
N 7.62588492 15.24963502 10.33077069 -0.00099035 -0.00785395 -0.00289194
N 10.50888242 17.85990988 13.09019276 -0.00142854 -0.00327872 -0.00152304
N 11.93967772 14.08671402 10.38344753 0.00389576 0.00191987 0.00082989
N 9.02697116 12.18992134 12.88777076 0.00447011 -0.00392977 0.00324362
N 7.57434248 15.23668971 15.08874257 0.00666583 -0.00438865 -0.00219569
N 10.23587270 17.63716256 17.79826691 -0.00112099 0.00169713 -0.00048874
N 11.39717517 14.35350514 14.94487138 0.00279091 0.00410984 -0.00676511
N 9.17614694 12.26190908 17.66844131 0.00087673 0.00075435 0.00099688
N 7.58608389 15.38299592 19.95153014 0.00061791 -0.00191872 -0.00460202
N 10.22549660 17.38416330 22.71837419 0.00216651 0.00626533 -0.00145051
N 11.45709636 14.28573604 19.65544865 -0.00373452 0.00505809 0.00289297
N 9.06734994 12.20235066 22.47594233 -0.00846998 0.00452075 0.00203645
N 7.28210377 21.92265398 1.21212411 -0.00412845 -0.00286695 -0.00318681
N 9.87671813 24.36784450 3.80555356 -0.00037962 -0.00112320 0.00346287
N 10.96232162 20.99315114 1.09537166 0.00244136 0.00168833 0.00190162
N 8.39099276 18.65686470 3.79511917 -0.00227699 -0.00322670 -0.00297761
N 6.85484098 21.83178434 5.86904505 0.00201383 -0.00438758 -0.00109876