2000
Time=17999.99999999 pbc="T T T" Lattice="31.10047875 0.00000000 0.00000000 0.00000000 29.93345319 0.00000000 0.00000000 0.00000000 23.69228804" energy=-12040.10959709 virial="-49.35606870 -6.08101838 0.43963858 -6.08101838 -38.06775038 -8.95917554 0.43963858 -8.95917554 -52.40922327" stress="-0.00017248 -0.00023909 0.00011756 -0.00023909 0.00035465 -0.00038116 0.00011756 -0.00038116 0.00066463" Properties=species:S:1:pos:R:3:vel:R:3
C 30.26105225 3.71952064 1.70007462 0.00411118 -0.00449677 -0.00502848
C 2.41545374 0.63867586 2.85348142 -0.01353732 -0.00619708 0.00295800
C 30.62485918 3.65468237 6.42570271 0.00182055 0.00442005 0.00155016
C 2.32872093 0.43478447 7.56353650 -0.00367254 -0.00182318 0.00148529
C 30.46274104 3.78441505 11.02660912 -0.00431625 -0.00001107 0.00109467
C 2.23771921 0.59731660 12.58008458 0.00201166 -0.00240481 -0.00579370
C 30.48035660 3.62011566 15.92117730 -0.00112143 0.00764519 -0.00070921
C 2.61231998 0.70450712 17.16908274 -0.00361239 -0.00508298 0.00020101
C 30.44350876 3.61116359 20.63556250 -0.00302411 0.00705842 -0.00750200
C 2.51983502 0.56679148 21.96475379 0.00697508 0.00210916 0.00474812
C 30.79566870 9.14805785 1.72864936 0.00454642 -0.00467986 0.00067641
C 3.08627891 6.21564234 3.10839285 0.00875906 0.00150478 -0.00392759
C 30.82031396 8.99029607 6.50007127 -0.00209196 -0.00220849 0.00135772
C 2.78754161 6.18062508 7.65297384 -0.00359748 -0.00605408 -0.00199197
C 30.83571458 9.35455746 11.23346640 0.00451499 0.00351625 0.00139855
C 2.71810162 6.30064661 12.51670644 -0.00128882 -0.00481579 0.00661436
C 30.81252198 9.33301441 15.88944579 -0.00299165 -0.00431724 0.00171774
C 2.96465452 6.17515732 17.15466396 -0.00480870 0.00194444 0.00533224
C 30.83791413 9.19946407 20.59693636 0.00083068 0.00031897 0.00143606
C 2.76668881 5.91361759 21.92115757 0.00226409 0.00061703 -0.00265728
C 0.16900351 14.37995503 1.84828147 0.00258954 -0.00098668 0.00269317
C 3.25640258 11.91648182 3.14617116 -0.00601174 -0.00317299 -0.00391934
C 0.07929990 14.84691618 6.50352115 -0.00114419 -0.00157297 0.00892394
C 3.36046611 11.78927267 7.85352210 -0.00212085 -0.00709403 0.00624276
C 0.10686389 14.82402167 11.18855746 0.00117031 -0.00021286 0.00370575
C 3.13111800 11.90081020 12.46701618 -0.00204761 -0.00616531 -0.00646711
C 30.98641020 14.67265230 16.02936776 -0.00506488 0.00540287 -0.00282562
C 3.32558605 12.00969107 17.14751949 -0.00358929 0.00795959 0.00221392
C 0.22301937 14.53863029 20.77885651 -0.00581248 -0.00060774 0.00085804
C 3.38019539 11.55528834 22.01815578 0.00149971 -0.00774114 0.00093518
C 0.84180897 20.04065570 1.76570053 0.00367078 0.00552856 0.00300392
C 3.84363802 17.36840556 2.78693240 0.00328561 0.00738989 -0.00044539
C 0.57277363 20.30789275 6.46598603 0.00052777 0.00192042 0.00368373
C 3.46347476 17.36143143 7.71991345 0.00115179 -0.00233168 0.00123860
C 0.82722863 20.37897367 11.22910111 -0.00147397 0.00046271 -0.00557350
C 3.90878206 17.55987889 12.61274576 0.00481500 0.00123656 -0.00161358
C 0.69719566 20.24666618 15.91781882 -0.00132580 -0.00898896 0.00498636
C 3.85646649 17.04718765 17.22915298 -0.00376870 0.00659897 -0.00502921
C 0.71234055 20.25879625 20.56053618 -0.00285967 -0.00123579 -0.00001687
C 3.67883210 17.35109601 21.77564669 0.00359938 -0.00037543 0.00444119
C 0.18501269 27.02171715 1.62018610 -0.00630966 0.00752254 0.00327372
C 3.04940497 24.04179848 2.87188734 -0.00506029 0.00612290 -0.00771186
C 31.08815262 26.85765809 6.35304143 -0.00064888 -0.00388975 -0.00309800
C 3.56655599 24.12377947 7.76357772 0.00047062 -0.00588348 -0.00060141
C 0.07190683 26.91271531 11.04776972 0.00034136 0.00685002 0.00519960
C 3.26211580 24.17714748 12.57239845 -0.00833117 -0.00154203 0.00342581
C 0.02442945 26.73070662 15.84950297 -0.00335671 0.00043499 -0.00542656
C 3.17588582 24.04026791 17.20185016 -0.00007518 -0.00185134 -0.00009305
C 31.09519038 27.12467753 20.72755817 0.00139436 -0.00322509 -0.00365449
C 3.12761223 23.92630888 22.03337015 0.00497962 -0.00051810 0.00122243
C 6.20508594 3.38618535 1.48986151 0.00127006 -0.00218687 0.00908929
C 9.33768424 0.14624683 3.16152689 -0.00262912 0.00495985 0.00072565
C 6.00680883 3.31030995 6.43979429 0.00079009 0.00182729 0.00269663
C 9.08460075 0.35208076 7.77454784 0.00283890 -0.00526481 0.00000650
C 5.75122934 3.41784294 11.17664300 0.00024554 0.00239051 -0.00634078
C 8.81693063 0.28708599 12.49335401 -0.00228691 -0.00199641 0.00508947
C 5.79274498 3.27376942 15.96617429 0.00243246 -0.00152174 0.00223059
C 9.10297837 0.16486803 17.20088744 -0.00654200 -0.00143406 -0.00360486
C 6.07255515 3.29457180 20.59296403 -0.00237755 0.00088487 -0.00318999
C 9.14623196 0.37769234 22.00031534 -0.00505153 0.00395936 -0.00197844
C 6.45242130 8.76598677 1.83946298 -0.00382431 -0.00551435 0.00188048
C 9.70553488 5.86585705 2.97141458 -0.00219806 0.00182406 0.00695599
C 6.42466181 8.84141527 6.55428100 -0.00169088 -0.00053306 -0.00226212
C 9.36539728 5.96435701 7.82305038 -0.00530627 -0.00045540 -0.00188307
C 6.30750887 8.84705040 11.25644935 0.00080316 0.00674883 -0.00450112
C 9.62783281 5.84320038 12.52023469 0.00185465 -0.00442295 0.00342339
C 6.03530283 8.90872520 15.86060559 0.00065770 0.00153132 0.00300161
C 9.67076752 5.83991343 17.18523818 0.00158771 -0.00008440 0.00519844
C 6.38773252 8.70768488 20.58045943 0.00622038 0.00133514 -0.00203116
C 9.49064998 5.88631359 21.97929781 -0.00237423 -0.00075966 -0.00365780
C 6.83978362 14.32414795 1.66709278 -0.00165147 0.00198033 0.00011555
C 10.05475490 11.26486653 2.97168413 -0.00240489 -0.00408250 -0.00287645
C 7.09394969 14.26221347 6.29947052 0.00932751 -0.00209399 0.00128562
C 10.11452244 11.46034766 7.75166372 -0.00461553 0.00488922 0.00134178
C 6.83707503 14.28722115 11.14083498 0.00145998 0.00928297 -0.00138520
C 9.98972994 11.45552882 12.57679060 -0.00073277 0.00121559 -0.00042063
C 7.06097363 14.39258138 15.78203399 0.00117936 -0.00013503 -0.00630208
C 10.01529448 11.39939649 17.00565683 -0.00595136 -0.00140987 0.00267854
C 6.79357179 14.04819632 20.62840740 0.00413129 0.00253778 0.00375306
C 10.03147321 11.55630670 21.73437360 -0.00009205 0.00327574 -0.00089635
C 6.35789383 21.18400467 1.71845484 0.00218201 0.00282939 -0.00291474
C 9.48917909 18.06315681 3.13059677 -0.00199014 -0.00169934 -0.00002472
C 6.10880016 20.98592790 6.38805730 -0.00001593 -0.00131851 0.00145724
C 9.20834589 17.96146184 7.77809955 0.00481666 -0.00169339 -0.00342045
C 6.14315621 20.84425276 11.36273141 0.00603118 -0.00499140 -0.00185660
C 9.25774002 17.94393417 12.51532350 -0.00133721 -0.00155202 0.00167256
C 6.06063338 20.95154066 16.12620000 0.00063687 0.00273712 0.00711350
C 9.29995127 18.00083278 17.31463774 -0.00273449 -0.00004003 0.00453211
C 6.10663220 21.04654804 20.72772984 0.00141808 -0.00215661 0.00291216
C 9.34683520 18.07870852 21.96124389 0.00943854 -0.00229288 -0.00152585
C 5.77719666 27.63018964 1.72971320 0.00065209 0.00130287 -0.00333463
C 8.59436200 24.61686335 3.12903402 0.00215839 0.00326452 0.00183822
C 5.56198459 27.74330760 6.47813449 0.00092891 0.00493415 -0.00239208
C 8.84238071 24.54701312 7.95670531 -0.00366623 0.00522329 -0.00078600
C 5.63630746 27.61218187 11.19491401 0.00078875 -0.00178248 -0.00425674
C 8.55244306 24.64730270 12.65703386 0.00372284 0.00380550 -0.00186088
C 5.50950377 27.57700452 15.83326233 -0.00286894 -0.00295072 0.00155562
C 8.51804391 24.65021065 17.20341382 0.00440874 0.00136870 0.00394688
C 5.48230871 27.58719943 20.76569115 -0.00475204 0.00448213 0.00024183
C 8.76826809 24.82968685 21.88567837 -0.00482960 0.00112138 -0.00105594
C 12.75625795 2.83230377 1.57385549 0.00495832 -0.00306514 -0.01053866
C 15.57785901 29.60612757 3.15247469 -0.00017686 0.00203680 -0.00078619
C 12.49960048 2.75657638 6.50258548 0.00274965 -0.00776880 0.00076904
C 15.87690495 29.39357063 7.83751122 -0.00130649 -0.00122757 0.00079656
C 12.67983014 2.83621459 11.08645982 0.00508042 -0.00481043 -0.00127465
C 15.63767392 29.77027170 12.51077066 0.00377440 0.00162488 0.00157791
C 12.60295725 2.71991420 15.93213042 -0.00375700 0.00157990 0.00265191
C 15.80487373 29.67689425 17.21593623 -0.00044542 0.00482236 -0.00523926
C 12.69054541 2.83439151 20.54521985 -0.00177696 -0.00677747 -0.00075505
C 15.81484291 29.80385270 21.92256181 -0.00474607 -0.00155110 -0.00436608
C 13.16778646 8.44391201 1.67002136 0.00123788 -0.00375728 0.00027940
C 15.86658919 5.31093690 3.01035148 0.00404817 -0.00486334 -0.00079160
C 13.20189205 8.50326485 6.68252456 0.00255088 -0.00060176 -0.00345252
C 16.10009817 5.30818454 7.76560289 0.00153896 0.00381794 -0.00637917
C 13.18122075 8.38808098 11.19233578 0.00010955 -0.00144775 0.00773057
C 16.13606925 5.41811926 12.51740048 -0.00107554 0.00049886 -0.00167795
C 12.91430654 8.43201517 15.88741685 0.01319611 -0.00583257 -0.00572555
C 16.18363325 5.22309299 17.21932233 0.00418885 -0.00142385 0.00794233
C 13.27730910 8.46077254 20.45578145 0.00011197 -0.00574633 0.00688284
C 16.29983169 5.58093832 21.98367226 -0.00084691 0.00055764 0.00086049
C 12.32899747 14.88585975 1.69500216 -0.00346639 0.00614969 0.00108692
C 15.62296046 11.91710688 3.03037716 0.00170046 0.00024109 0.00088387
C 12.50524405 14.95366697 6.43587237 0.00491662 -0.00796483 0.00239715
C 15.54207661 12.11761665 7.90394210 -0.00397003 0.00480962 -0.00214816
C 12.55283062 14.93380358 11.24934688 0.00214985 0.00046270 -0.00205229
C 15.43919382 12.02544729 12.50096324 0.00434634 -0.00263778 0.00249053
C 12.36234301 15.09611784 16.06471951 0.00276931 -0.00280537 0.00176608
C 15.55300305 11.99457723 17.25904995 -0.00137716 0.00073253 0.00372245
C 12.36631542 15.06991033 20.74456198 0.00347320 -0.00047890 -0.00640686
C 15.52619535 12.03968098 22.14141056 -0.00163991 -0.00140810 0.00558733
C 11.68535459 21.67182629 1.69495388 -0.00118858 0.00409371 -0.00066259
C 15.02079440 18.65273066 3.04765762 0.00408392 -0.00352312 -0.00170976
C 11.74587881 21.74019176 6.48521169 0.00025574 -0.00449176 -0.00246155
C 14.92297365 18.39307190 7.61335296 0.00257328 0.00477284 -0.00060473
C 11.88803905 21.55635523 11.15497118 -0.00546457 -0.00347201 -0.00111802
C 14.99394262 18.63679681 12.40111151 0.00217942 0.00294162 -0.00447709
C 11.70444069 21.84096192 15.90909193 0.00408826 0.00432604 0.00031537
C 14.91926893 18.66139808 17.34444801 -0.00083451 0.00047267 -0.00587541
C 11.51314851 21.60886921 20.63904443 -0.00352929 -0.00704364 0.00249668
C 15.00978413 18.55613958 22.03099190 0.00647216 0.00562234 -0.00307134
C 12.42301567 27.07472129 1.72843725 0.00248479 0.00188980 0.00695550
C 15.40495840 24.02482772 2.93847057 0.00051421 0.00012953 0.00087004
C 11.97975697 27.18745643 6.63436694 -0.00363584 0.00362276 0.00317084
C 15.07602245 24.20361474 7.74551540 0.00048808 0.00006725 -0.00315166
C 12.17652124 27.33124422 11.30347299 0.00138626 0.00314296 0.00509290
C 15.37512747 24.17415669 12.57355801 -0.00277010 0.00085653 -0.00243870
C 12.39108415 27.24299939 15.82622353 0.00240823 -0.00166027 -0.00102607
C 15.18858178 24.04444207 17.35079786 -0.00445907 -0.00039353 0.00283844
C 12.11286689 27.28465442 20.71046404 0.00040485 -0.00360331 0.00428892
C 15.03191830 23.99597176 21.91530122 -0.00194222 0.00606340 0.00339855
C 19.45930238 2.28966512 1.97155430 -0.00058014 -0.00011293 -0.00158268
C 22.36862485 29.34297868 3.13274008 -0.00769818 0.00303491 0.00077797
C 19.24347451 2.17197625 6.43420435 -0.00804848 -0.00337400 0.00140052
C 22.24193399 29.32382328 7.86347784 0.00482046 -0.00134278 0.00224709
C 19.37051110 2.35701955 11.05268543 0.00283875 -0.00025317 0.00233563
C 22.28305124 28.97648631 12.71050954 0.00445439 0.00307762 0.00345704
C 19.40926678 2.06841320 15.89314945 0.00487681 -0.00011939 0.00527215
C 22.55920128 29.27340772 17.32658421 0.00028017 0.00059151 -0.00789583
C 19.26334383 2.41717526 20.62633421 -0.00379158 0.00228959 0.00008561
C 22.40133080 29.23459371 22.09722076 0.00303892 -0.00191627 -0.00558510
C 18.72317141 8.95876651 1.75793409 -0.00240994 -0.00138419 0.00440976
C 21.66425305 6.22357416 3.27045921 -0.00346918 0.00145875 -0.00790479
C 18.53766300 9.00224773 6.44222009 0.00116254 -0.00242184 -0.00057361
C 21.76724257 5.77315827 7.74438250 -0.00796543 -0.00132191 0.00237331
C 18.85069356 8.88408324 11.12959768 0.00402680 0.00477583 0.00600884
C 21.89504487 5.88607142 12.52181027 -0.00321410 -0.00322397 -0.00432057
C 18.47169475 8.95474656 15.96167925 -0.00062364 -0.00155348 -0.00478325
C 21.73406562 5.83465155 17.26688827 -0.00352862 0.00560832 -0.00033690
C 18.60346340 8.94645098 20.60927214 0.00896160 -0.00086179 -0.00158759
C 21.94123679 6.08069754 22.16863498 0.00158629 -0.00344965 0.00555180
C 17.94922080 15.43551088 1.90044509 -0.00612827 -0.00434369 -0.00702779
C 21.34583757 12.37429716 2.92912981 -0.00797465 -0.00322132 0.00508933
C 17.95905230 15.47240393 6.60077190 0.00167562 -0.00012840 -0.00187797
C 21.16130933 12.52805273 7.88434667 0.00034782 0.00526471 0.00641775
C 17.82341483 15.54515788 11.32112306 -0.01032524 -0.00168895 -0.00576290
C 21.03028053 12.60023347 12.42674410 -0.00181567 -0.00294455 0.00909597
C 17.81875357 15.68611134 15.94578687 0.00109673 -0.00142834 -0.00039683
C 20.90662868 12.39350875 17.15498245 0.00587408 -0.00100612 0.00869868
C 17.95236269 15.53007884 20.71147320 0.00072199 0.00162484 -0.00591318
C 21.02144781 12.27874167 21.81925672 -0.00020500 0.00110624 -0.00184218
C 18.67366715 21.20848936 1.68220104 -0.00790429 0.00550711 -0.00567315
C 21.37652020 18.23351451 2.92191751 -0.00401386 0.00524123 0.00040318
C 18.49404514 21.07541252 6.48392977 0.00001194 0.00279251 -0.00415800
C 21.67804804 18.37203096 7.77872569 -0.00146278 -0.00452584 -0.00244635
C 18.63571304 21.15014553 11.17030242 0.00064326 -0.00196920 0.00198239
C 21.46463513 18.21703521 12.39663402 -0.00204355 -0.00161264 0.00323482
C 18.52598613 21.21360539 15.96634103 -0.00422151 0.00542457 0.00162051
C 21.58389947 18.03735101 17.32159504 0.00296313 0.00491054 0.00385589
C 18.53919552 21.31119487 20.63484308 0.00691216 0.00018363 -0.00771779
C 21.73291628 18.28589106 22.09165419 0.00049900 -0.00112652 -0.00307108
C 18.97268216 26.79871273 1.87967124 0.00526083 -0.00718583 0.00540774
C 22.12732585 23.64536109 3.11051020 0.00449224 -0.00273417 -0.00276719
C 18.99294791 26.53911199 6.59605990 -0.01231007 0.00159212 -0.00273311
C 22.02790306 23.72030288 7.71628856 -0.00074415 0.00047866 -0.00502955
C 18.97172304 26.77351432 11.18774847 -0.00361839 0.01254151 -0.00421130
C 21.92503103 23.70064838 12.50186756 0.00317007 -0.00251928 0.00256999
C 18.73413597 26.76387296 15.93779694 0.00524525 0.00560890 0.00529305
C 22.29306224 23.49533799 17.19611866 -0.00187719 0.00221058 0.00055440
C 19.05604690 26.49771476 20.63703068 -0.00057775 -0.00456277 -0.00338958
C 22.03513697 23.74741303 21.95873225 0.01607325 -0.00527296 -0.00066198
C 25.21070496 2.94377127 1.80704017 -0.00442494 0.00153966 -0.00024018
C 27.82206850 29.75361532 3.12569207 0.00844938 -0.00413132 -0.00097139
C 24.66954382 3.03607001 6.47290692 0.00257131 0.00024291 0.00620209
C 27.87163400 0.12886239 7.72572757 -0.00106399 0.00131384 0.00127049
C 24.95924213 3.02898540 11.31970050 0.00023041 -0.00079888 0.00421334
C 28.02997495 29.76909942 12.44243860 0.00376831 0.00003245 -0.00085948
C 25.17610434 2.85724749 15.97521292 -0.00179644 0.00059168 0.00085846
C 28.15430757 29.92347120 17.16560497 -0.00266338 0.00155987 0.00512116
C 24.75883219 2.98084836 20.76825142 0.01063135 0.00351432 -0.00262051
C 28.15465362 29.84655681 21.87753538 -0.00384676 0.00065783 0.00153173
C 24.37447397 9.89663120 1.64783517 0.00500854 -0.00901128 0.00076994
C 27.36730354 6.42935022 2.92373506 -0.00087132 -0.00438706 0.00006281
C 23.98078367 9.53311374 6.40548445 0.00264135 -0.00293255 0.00411607
C 27.11312384 6.83286617 7.64713417 0.00395684 0.00132329 -0.00017316
C 24.27250654 9.53985347 11.07042335 0.00339702 -0.00460969 -0.00170866
C 27.45344820 6.45987444 12.48419509 0.00588089 0.00201257 0.00121265
C 24.32295012 9.59661473 15.89271462 -0.00174833 0.00359450 -0.00237326
C 27.42248307 6.38187567 17.17488149 0.00084322 0.00124625 0.00687638
C 24.02493090 9.24827307 20.60958030 -0.00273623 -0.00153356 -0.00936048
C 27.37475398 6.45085987 21.92833266 -0.00359479 -0.00518856 0.00167697
C 24.74636589 15.13740478 1.76568640 -0.00102143 -0.00389938 -0.00689684
C 27.72486098 12.14594670 2.99648415 0.00391065 -0.00465875 0.00466802
C 24.56152468 15.36142381 6.39943653 -0.00047573 -0.00434346 -0.00244148
C 27.78760870 12.22188303 7.75853583 -0.00210926 -0.00361724 0.00343250
C 24.68886462 15.05152346 11.06386847 -0.00244696 -0.00141781 -0.00182617
C 27.47270882 11.96309893 12.46781171 -0.00562967 0.00426383 0.00114066
C 24.61657748 15.12053568 15.86589881 0.00165176 -0.00105182 0.00130917
C 27.62762305 12.19291529 17.27591380 0.00272820 -0.00667493 -0.00081861
C 24.63464774 14.84411206 20.49613733 0.00510256 0.00565245 0.00139379
C 27.83288369 12.22582662 22.00022879 -0.00376967 0.00792742 0.00183241
C 24.94772899 20.76963622 1.80445842 -0.00038789 0.00186452 0.00178570
C 28.13296636 17.91523526 3.11798770 0.00724669 -0.00429916 0.00076041
C 25.20917014 20.78588160 6.53965622 -0.00446759 0.00246104 -0.00655442
C 28.10959286 17.91515564 7.79204600 0.00529564 -0.00071473 0.00218166
C 25.20650862 20.85464434 11.13713467 0.00451758 -0.00046482 -0.00461022
C 28.16001773 17.69871270 12.48276999 -0.00136877 -0.00779706 0.00415815
C 25.35001540 20.77530623 15.89675681 0.00509941 -0.00153780 -0.00160553
C 28.27479219 17.76618816 17.13584180 0.00081540 0.00382776 -0.00118324
C 25.06339652 20.77891883 20.66767980 -0.00691832 0.00310331 0.00032343
C 28.27282226 17.66446720 21.98301453 -0.00254502 -0.00278720 -0.00373850
C 25.56693228 26.23805681 1.77294597 -0.00167107 -0.00308526 -0.00350883
C 28.65368213 23.10771344 3.04462519 0.00740573 -0.00096205 -0.00222848
C 25.78748545 26.28069267 6.42304687 0.00748745 -0.00818803 0.00252946
C 28.63673160 23.19992280 7.69359647 -0.00239350 0.00314548 0.01181237
C 25.89430831 26.33416698 11.05089236 -0.00119746 -0.00688892 -0.00333976
C 28.79510258 23.49393624 12.31755055 0.00638580 0.00631093 0.00624526
C 25.76776424 26.22465128 16.02831889 0.00174070 0.00004758 -0.00975460
C 28.88550502 23.26746979 17.23352901 -0.00075755 -0.00427416 0.00186498
C 25.54888511 26.49341607 20.63573636 0.00184832 0.00524356 -0.00290240
C 28.60103079 23.30581768 22.08326059 -0.00215848 0.00767566 0.00022831
N 31.00364537 4.63232421 1.06837775 0.00115008 0.00374820 -0.00002097
N 3.79387081 5.22066497 3.78694383 -0.00100706 0.00367795 -0.00431149
N 5.46311709 2.56239839 0.74089003 0.00203992 0.00229970 0.00126299
N 1.27935204 1.30736152 3.47037322 0.00750250 0.00760018 -0.00132745
N 0.28533028 4.46511984 5.68024126 -0.00818236 -0.00073827 -0.00491767
N 3.50567081 5.22592633 8.29776877 0.00202297 -0.00219601 0.00498701
N 5.44890161 2.35846052 5.64280820 -0.00016951 -0.00100809 -0.00170064
N 1.58130481 1.33604287 8.26125036 0.00100606 0.00085937 -0.00536862
N 31.04591661 4.73234376 10.28139055 0.00237843 0.00142498 0.00260379
N 3.34128701 5.44193365 13.31430828 0.00384288 0.00104254 -0.00662035
N 5.02738523 2.53009370 10.49748382 -0.00790497 -0.00194786 0.00367822
N 1.50337333 1.45278903 13.37542091 0.00743426 0.00092284 -0.00467043
N 0.02497705 4.63078989 15.28470140 -0.00290000 -0.00658434 -0.00585303
N 3.68474962 5.38447403 17.99006618 -0.00020776 -0.00221844 -0.00433737
N 4.95688629 2.53800364 15.18220423 -0.00491536 0.00357784 0.00509056
N 1.86957444 1.51904874 18.00268001 -0.00383506 0.00160527 -0.00290313
N 0.22559081 4.49419944 20.04498454 -0.00199502 -0.00049233 -0.00079568
N 3.35265439 4.91500370 22.64259860 -0.00089697 0.00020653 0.00553461
N 5.27319869 2.42929940 19.94047908 0.00033262 0.00259543 -0.00030544
N 1.55698105 1.31487709 22.67614714 -0.00619893 0.00088523 -0.00436884
N 0.53539605 9.81389099 0.88831766 0.00532598 0.00407003 0.00602021
N 3.91384076 10.95851674 3.87876886 0.00347740 -0.00050835 0.00687295
N 5.76209565 7.96268327 1.06762894 0.00208991 0.00061411 0.00331747
N 2.41043381 7.15957699 3.82567394 -0.00665203 -0.00637292 -0.00504659
N 0.57972299 9.79954503 5.75757223 0.01022770 0.00007774 0.00314310
N 3.84075016 10.58370663 8.47525169 -0.00071923 0.00220751 -0.00235924
N 5.70788796 7.98240296 5.81432531 0.00429490 -0.00389100 -0.00326515
N 2.21991266 7.14413240 8.43371866 0.00014792 -0.00187179 -0.00140212
N 0.60306259 10.18513098 10.59974958 0.00082753 0.00175675 0.00532665
N 3.79157819 10.95941065 13.21385624 0.00003434 -0.00035463 -0.00245466
N 5.59012631 7.90227840 10.53370191 0.00038298 -0.00087583 -0.00191626
N 1.79698642 7.12816271 13.14436897 -0.00319329 0.00175302 -0.00625949
N 0.45087292 10.16602565 15.13425404 -0.00385072 0.00057733 0.00132409
N 3.92980016 10.90400667 17.67275794 0.00097753 -0.00045665 -0.00576688
N 5.64398265 7.81296508 15.14732313 0.00189182 -0.00226204 -0.00199604
N 2.14919167 7.02128668 17.79567421 0.00481995 0.00110719 0.00136429
N 0.48318020 10.03743883 19.81991589 -0.00319274 -0.00532195 0.00360965
N 3.99510426 10.54906528 22.76864695 0.00056779 0.00299802 0.00059975
N 5.58340700 7.93219411 19.86990853 -0.00565818 -0.00076969 -0.00130502
N 1.94704448 6.78134239 22.65823158 0.00021475 -0.00614093 0.00218008
N 1.05405998 15.20530122 1.15702473 -0.00508921 0.00249942 0.00398844
N 4.83251378 16.87601253 3.52703213 0.00100159 0.00307029 -0.00318258
N 5.85541093 13.51100305 1.03930401 -0.00098237 -0.00153197 -0.00937958
N 2.64033209 12.94051987 3.91459700 -0.00054387 0.00244370 0.00077105
N 0.76864149 15.69129520 5.70573629 -0.00114708 -0.00285209 -0.00129661
N 4.42068178 16.60639896 8.33318535 0.00393278 -0.00376447 0.00412934
N 6.34850290 13.48510429 5.54788831 -0.00205699 0.00313631 -0.00286003
N 2.82628863 12.73576062 8.64716413 -0.00091989 0.00006060 -0.00278036
N 0.94783226 15.60918640 10.48123544 -0.00370659 -0.00295093 0.00326465
N 4.52634099 16.61300740 13.31229153 -0.00622897 0.00699736 0.00296717
N 6.21837471 13.27657285 10.39981236 -0.00036238 0.00066601 -0.00144476
N 2.58910375 12.89727548 13.14669578 -0.00393617 0.00311274 -0.00006093
N 0.56573893 15.66233551 15.40433870 0.00266111 -0.00218674 0.00049750
N 4.61391976 16.18556175 17.97331946 0.00720921 -0.00228669 -0.00087516
N 6.25511857 13.52195377 15.12809570 -0.00130422 -0.00172009 -0.00413154
N 2.64613870 12.75671760 18.08281570 0.00489408 -0.00567591 -0.00113166
N 0.93504276 15.46918170 20.08616679 -0.00014455 -0.00444937 -0.00267515
N 4.54941338 16.57227368 22.49433421 -0.00227873 0.00323091 0.00224894
N 6.15110585 13.34380165 19.71727929 -0.00159325 0.00250029 -0.00662605
N 2.70367032 12.47656305 22.75489399 0.00274359 0.00238733 -0.00217917
N 1.49222286 20.85507289 0.90148090 -0.00038717 -0.00577228 -0.00073974
N 3.91103318 23.23667157 3.49806701 -0.00654023 0.00095880 -0.00497955
N 5.47482619 20.42416991 1.07064515 -0.00298243 -0.00324158 -0.00348238
N 2.67912905 17.79124266 3.58953726 0.00450478 -0.00114760 -0.00304269
N 1.20694943 21.21918154 5.67155780 0.00028645 0.00602013 0.00364121
N 4.42868720 23.42026495 8.55147441 -0.00328689 -0.00379249 -0.00049190
N 5.37933061 20.18542586 5.63246740 0.00526770 -0.00750028 -0.00399399
N 2.56116300 17.96164963 8.55059439 -0.00278740 0.00162982 -0.00256066
N 1.65073611 21.05752639 10.44021104 -0.00327293 -0.00294415 0.00007241
N 4.18776742 23.52431371 13.31748402 0.00511042 0.00171329 -0.00659305
N 5.31077524 20.16672576 10.51224032 -0.00328861 -0.00100495 0.00194665
N 3.04900939 18.49115611 13.23927074 -0.00074401 -0.00266720 0.00439550
N 1.56899039 20.99184227 15.24768055 -0.00147620 0.00380403 -0.00493039
N 4.17307328 23.48550574 17.99217606 -0.00028875 0.00686100 0.00097395
N 5.47885622 20.06503133 15.30027220 0.00005234 -0.00318551 -0.00318297
N 3.00556269 17.85834927 17.89487224 -0.00188171 0.00511256 -0.00026523
N 1.43118078 21.25738147 19.93524107 -0.00292143 -0.00392430 -0.00275546
N 4.10017281 23.47708501 22.85060813 -0.00192191 -0.00270763 -0.00055635
N 5.31945264 20.12398864 20.07780744 0.00190118 -0.00578802 -0.00400114
N 2.91232288 18.15279514 22.55916575 0.00299700 0.00314376 0.00013928
N 1.04707583 27.83702869 0.96497074 0.00688345 -0.00590970 0.00341455
N 3.21668660 29.87524794 3.64756537 -0.00215959 0.00243812 -0.00258257
N 4.96622088 26.92691076 0.95672536 0.00411381 0.00476376 -0.00920859
N 2.05270417 24.56202434 3.73030749 0.01051248 -0.00333931 0.00518139
N 0.82600290 27.60079804 5.61029839 -0.00196867 -0.00546987 -0.00571130
N 3.22573543 29.68069182 8.33624303 -0.00114990 0.00160525 -0.00768687
N 4.88216684 26.98217274 5.60942817 0.00136373 0.00029963 0.00036118
N 2.43654686 24.57862620 8.36419846 0.00182149 -0.00540002 -0.00321135
N 0.87694760 27.64822140 10.31889119 0.00810794 -0.00811355 -0.00625410
N 3.27110168 29.87622627 13.17751643 -0.01051454 0.00050930 -0.00030588
N 4.88436070 26.82256876 10.42463943 -0.00346407 -0.00762881 0.00600868
N 2.08791766 24.40398229 13.21579973 0.00051892 0.00306988 -0.01197396
N 0.77872540 27.69835146 15.26053403 -0.00210042 -0.00204704 0.00459071
N 3.45271260 29.77296508 17.74296888 -0.00032359 0.00463546 -0.00013607
N 4.69563566 26.72800505 15.13464059 -0.00362526 0.00194706 -0.00158842
N 2.11505930 24.59724334 17.83255560 0.00042362 0.00585951 -0.00381974
N 0.84023903 27.75861820 19.86325121 0.00320312 0.00600271 0.00048496
N 3.43968665 29.81379029 22.70304354 -0.00009117 -0.00268543 0.00037085
N 4.70701075 26.76217880 20.04551237 -0.00258581 -0.00171829 0.00232497
N 2.00168462 24.36473213 22.67235700 -0.00185926 -0.00096424 0.00625351
N 6.79969909 4.45955952 0.82081597 -0.00186499 0.00363982 -0.00074158
N 10.24753673 4.90332331 3.77969901 0.00110026 0.00063374 -0.00155105
N 11.91073652 2.01212277 0.89872602 0.00267639 -0.00283522 -0.00009041
N 8.88358317 1.25400247 3.78233845 0.00005179 -0.00103217 0.00587140
N 6.97616740 4.06855750 5.77478016 0.00025851 0.00482062 -0.00233089
N 9.92065627 4.98575336 8.54349916 -0.00144344 -0.00355335 0.00327966
N 11.64797274 1.95094634 5.73338325 0.00221200 0.00306209 0.00511326
N 8.32473819 1.26093119 8.41831419 -0.00296907 0.00701569 -0.00289650
N 6.59488664 4.22727798 10.38313574 -0.00516256 0.00390656 -0.00114857
N 10.28489023 4.88066179 13.24255532 -0.00209095 0.00635276 -0.00311771
N 11.73426464 2.18998047 10.42888255 -0.00148227 0.00091594 0.00286921
N 8.40482700 1.40779368 13.17803960 0.00436690 -0.00103217 0.00498853
N 6.49451492 4.29026543 15.33785962 -0.00009490 0.00366435 0.00306343
N 10.47521884 5.00537432 17.82814822 0.00604182 -0.00166818 -0.00398707
N 11.87864859 1.85172312 15.14383671 -0.00019558 -0.00576898 0.00604216
N 8.53926499 1.13199201 17.97299401 0.00057641 0.00244227 0.00452136
N 6.87307355 4.05804755 19.83710887 -0.00407306 -0.00500737 0.00407715
N 10.09184708 4.88051664 22.64520016 -0.00080438 0.00453798 -0.00033840
N 11.80329648 2.00174810 19.92885183 -0.00434250 -0.00266240 0.00042633
N 8.55419614 1.48198686 22.57223001 -0.00164715 0.00808496 -0.00662733
N 7.11796914 9.72069545 1.16137912 0.00767118 0.00423469 0.00410451
N 10.78949047 10.52762428 3.75790998 -0.00116014 0.00120020 -0.00202929
N 12.39998799 7.67366604 0.86820370 -0.00222819 -0.00195961 0.00110817
N 8.98322828 6.80622919 3.65544662 0.00338040 0.00174779 -0.00027801
N 7.18352571 9.71285529 5.83098379 -0.00139923 -0.00434287 0.00079463
N 11.02660814 10.63874912 8.48463511 -0.00184931 -0.00059193 0.00383618
N 12.40043074 7.59411604 6.11866642 0.00546882 0.00297640 -0.00105653
N 8.62647890 6.85557953 8.49574299 0.00936695 -0.00149428 0.00071482
N 6.94551115 9.67895523 10.42638213 -0.00223961 -0.00057669 -0.00528980
N 10.37526811 10.29177472 13.24141420 0.00022357 -0.00342390 0.00153220
N 12.37441275 7.62904836 10.42808442 -0.00265482 -0.00911100 0.00374600
N 9.12129798 6.81933849 13.26299651 -0.00097009 0.00368038 -0.00386266
N 6.84206280 9.71480245 15.19938051 0.00531946 0.00059867 0.00168475
N 10.69140207 10.62006757 17.85679276 0.00574217 -0.00467283 0.00385524
N 12.38980274 7.44104257 15.12470095 -0.00464459 -0.00266542 -0.00510130
N 9.15255659 6.99610222 17.86474705 0.00269120 0.00578961 -0.00266855
N 7.12130331 9.53522353 19.77490275 -0.00347645 0.00047070 -0.00000974
N 10.83672493 10.75871893 22.47419810 0.00074672 -0.00145240 -0.00447409
N 12.37412814 7.74673972 19.78857823 0.00079364 0.00016524 0.00198450
N 9.17995078 6.99982369 22.67067776 0.00221282 0.00013029 0.00399636
N 7.65893680 15.04983749 0.88611311 0.00196559 0.00337758 -0.00588785
N 10.47406589 17.43037406 3.86616637 0.00120258 0.00969975 0.00414769
N 11.41890426 14.17398597 0.90627959 -0.00067616 0.00059858 0.00280334
N 9.27619053 12.16383645 3.65754380 0.00132418 0.00740587 0.00593883
N 7.81502583 15.19103430 5.56007873 -0.00118413 0.00627820 -0.00219687
N 10.24826409 17.39852561 8.49082330 0.00069196 -0.00263021 0.00056404
N 11.75363279 14.07643871 5.71282804 0.00041487 0.00517418 -0.00122771
N 9.44776435 12.27674131 8.55602628 0.00368713 -0.00098112 -0.00418386
N 7.61356536 15.14297472 10.41834281 -0.00064395 -0.00243393 0.00053217
N 10.35593005 17.43212543 13.19716259 0.00258377 -0.00078784 -0.00160055
N 11.66462339 14.16468467 10.62719801 0.00452468 0.00005614 0.00126130
N 9.23301982 12.38092877 13.22898185 -0.00433080 0.00170981 -0.00274918
N 7.86589663 15.19114488 15.03550897 0.00281063 -0.00027866 0.00065425
N 10.13252230 17.22282564 18.06599181 -0.00129206 0.00234850 -0.00017181
N 11.62410952 14.17320393 15.35553971 0.00318318 -0.00208177 -0.00406708
N 9.03649458 12.23789449 17.56757367 -0.00086390 0.00282513 -0.00148389
N 7.57697377 15.00544382 20.07060139 0.00034967 0.00076881 0.00413106
N 10.22968650 17.24872989 22.63209970 0.00713444 0.00297609 0.00058795
N 11.85776056 14.13565075 19.90916945 0.00116400 0.00092021 0.00257126
N 9.11186269 12.31059703 22.46284716 0.00186066 -0.00033787 -0.00285467
N 7.13317054 21.90797877 0.91629428 0.00230229 -0.00201298 0.00723950
N 9.58257661 23.92746050 3.79546710 0.00532320 -0.00069075 -0.00361516
N 11.04157315 20.82310177 0.88707374 -0.00129803 0.00379498 0.00053107
N 8.46524913 18.61860809 3.81304170 0.00853458 -0.00299981 0.00166906
N 6.96688568 21.84776103 5.78339851 -0.00140070 -0.00520916 -0.00287783