2000
Time=89000.00000004 pbc="T T T" Lattice="31.23967335 0.00000000 0.00000000 0.00000000 29.91850950 0.00000000 0.00000000 0.00000000 23.64976868" energy=-12039.26731479 virial="-36.67322504 -0.40632038 42.55910150 -0.40632038 -43.40820585 -32.73606788 42.55910150 -32.73606788 -3.47219225" stress="0.00042935 -0.00006139 0.00188838 -0.00006139 0.00026536 -0.00141294 0.00188838 -0.00141294 0.00253790" Properties=species:S:1:pos:R:3:vel:R:3
C 30.65685270 3.67798635 1.73404213 -0.00136263 -0.00099217 0.00216821
C 2.45972225 0.57631591 2.87111628 -0.00053867 0.00190708 0.00210748
C 30.70719461 3.49876626 6.31282874 0.00063613 0.00444364 -0.00002550
C 2.44510618 0.53078974 7.59954989 -0.00304266 0.00086792 -0.00095019
C 30.61308382 3.63886325 11.10695991 -0.00242230 0.00141351 -0.01118908
C 2.77726559 0.28090409 12.50166290 0.00027541 -0.00139660 0.00123191
C 30.38023743 3.36914337 15.69453483 0.00044846 0.00101188 0.00417449
C 2.66751392 0.51760503 17.13912479 -0.00178911 0.00202194 0.00300704
C 30.57797309 3.42015291 20.61300633 -0.00450160 -0.00136286 0.00283592
C 2.57466402 0.81613401 21.90023643 0.00270181 0.00482524 -0.00119591
C 31.00370711 9.58117958 1.61605444 -0.00023729 -0.00300253 0.00190364
C 2.80201863 6.27260138 2.80437008 0.00282689 0.00095048 0.00268790
C 30.97453729 9.21321024 6.26301659 -0.00341226 -0.00320683 -0.00032927
C 2.67987585 6.23670719 7.64728548 -0.00307473 -0.00441145 0.00206067
C 0.08680189 9.22640707 11.14424857 0.00223618 -0.00377476 0.00513313
C 3.00419342 5.82662432 12.48427345 -0.01082271 0.00532231 -0.00753670
C 31.01859635 8.93233307 15.88028651 -0.00642299 0.00547795 -0.00091911
C 3.15447377 6.15935180 17.00368141 -0.00402680 -0.00194215 -0.00389563
C 30.93220344 9.04945964 20.50813195 0.00260666 -0.00127835 -0.00087504
C 3.12742204 6.19173943 21.59876534 0.00166356 -0.00257239 -0.00057382
C 0.19600230 15.04857243 1.66468627 0.00501646 0.00111855 0.00181084
C 3.36636862 11.95394089 3.08576254 0.00196523 0.00086550 0.00528039
C 0.21192626 14.52653096 6.54184911 -0.00242616 -0.00123972 0.00124732
C 3.32036776 11.96206647 7.84897882 0.00329027 -0.00338051 -0.00003901
C 0.31626419 14.44744943 11.21064882 -0.00115643 0.00149787 0.00273476
C 3.46851200 11.91466131 12.56624340 0.00325250 -0.00428818 -0.00513275
C 0.06531466 14.63319552 15.97761380 -0.00186868 0.00203456 0.00025824
C 3.42712240 11.72853814 17.35680321 0.00108938 -0.00906163 0.00169369
C 0.30556147 14.58636240 20.63824089 -0.00074439 -0.00348999 0.00268898
C 3.30843650 11.79736196 21.97890811 -0.00082884 -0.00359397 -0.00628294
C 0.63482494 20.37350564 1.78770721 -0.00358223 0.00375386 -0.00177817
C 3.96390916 17.40153935 3.04447434 0.00265317 -0.00411512 -0.00621696
C 0.68875756 20.46617963 6.35553486 -0.00163071 0.00689882 0.00918418
C 3.79581685 17.28086355 7.67290973 -0.00442989 -0.00428352 -0.00000156
C 0.77699490 19.93226926 11.04788654 0.00095534 -0.00224498 -0.00718319
C 3.82173480 17.21412895 12.40744159 -0.00602002 -0.00382542 0.00128687
C 0.29578580 20.36870579 15.87949536 0.00312526 -0.00137194 -0.00449266
C 3.60215678 17.39176091 17.10650593 -0.00084660 -0.01177182 0.00260445
C 0.43458989 20.24626837 20.70310302 -0.00161806 0.00230799 0.00278948
C 3.63520161 17.60356334 21.90310238 0.00090022 0.00258366 0.00128471
C 0.12693020 26.59146254 1.82429546 0.00008481 0.00839539 0.00063473
C 3.46938782 23.76013963 3.06092097 0.00247490 0.00341282 0.00093294
C 0.04297111 26.68812457 6.45672476 -0.00268482 0.00289254 -0.00096859
C 3.47506822 23.90292050 7.74347364 -0.00177608 -0.00161054 0.00059609
C 31.11084612 26.48657098 11.08333759 -0.00358709 -0.00483621 -0.00186213
C 3.03806862 23.50098956 12.52748896 -0.00005181 0.00206224 0.00344216
C 31.00229288 26.72343039 15.91200147 -0.00448128 0.00373367 0.00098421
C 2.72618229 23.95941266 17.05420969 0.00708556 -0.00511861 0.00989731
C 31.23965239 26.92748417 20.76111507 0.00121645 -0.00611863 -0.00886457
C 3.26596512 23.89132218 21.93334066 0.00327496 -0.00598964 0.00490652
C 5.98556522 3.50165997 1.58652486 -0.00106290 -0.00236076 0.00537516
C 9.21823915 0.42519523 2.83617154 0.00821867 -0.00136511 -0.00310464
C 6.16926066 3.24439126 6.19297112 -0.00224495 0.00617540 0.00065361
C 9.10415688 0.17057938 7.63984700 0.00155563 -0.00297578 -0.00624579
C 5.91519043 3.03174662 10.99685154 0.00674659 0.00360076 -0.00359761
C 9.05935809 29.73961224 12.54567320 -0.00178405 0.00479158 -0.00249835
C 6.17275884 3.19269776 15.95270885 -0.00094957 -0.00338712 0.00228345
C 9.03176411 0.46083828 17.22981474 0.00652463 -0.00299144 0.00289142
C 6.32779807 3.33624406 20.56340314 0.00152611 0.00134657 -0.00686785
C 8.68779203 0.35839345 22.00633151 0.00286806 0.00509298 0.00045543
C 6.60552225 8.85265717 1.76219432 -0.00147267 0.00507715 -0.00488564
C 9.61669720 5.91232687 3.13216957 0.00067518 0.00237397 0.00132583
C 6.28836363 8.76029494 6.49590034 0.00623666 0.00014382 0.00292767
C 9.80383471 5.93232436 7.91673063 -0.00031537 -0.01044878 0.00088614
C 6.43219755 9.00119332 11.31655528 0.00526960 -0.00014187 -0.00023830
C 9.45006562 5.53384171 12.41025298 -0.00316810 0.00729241 0.00831842
C 6.43778910 8.58086213 16.06755779 -0.00064020 0.00347648 0.00050150
C 9.78168866 5.94288958 17.11873827 -0.00042583 -0.00087973 -0.00313419
C 6.54070393 8.76969343 20.68423994 -0.00436387 -0.00241077 0.00494426
C 9.81719024 5.85135657 22.08744952 -0.00225655 0.00889407 0.00587775
C 6.96285943 14.48152225 1.81180056 0.00094081 -0.00181457 -0.00071561
C 9.96491618 11.31802189 3.18782476 -0.00073920 -0.00661318 -0.00008080
C 7.09348087 14.25736046 6.40435280 0.00753627 -0.00258744 0.00461088
C 10.01729926 11.44036724 7.76883849 0.00655517 -0.00238241 0.00205427
C 6.91803666 14.29752249 11.18000428 0.00040788 0.00061945 -0.00434169
C 9.84930122 11.63878905 12.80554583 0.00837795 -0.00554073 0.00453904
C 6.81117542 14.35978854 15.87921461 0.00601705 0.00085585 -0.00280677
C 9.75884369 11.46203923 17.35039163 -0.00051343 -0.00161328 -0.00550962
C 6.72107957 14.61046102 20.68384332 -0.00045144 0.00031384 0.00446224
C 9.67964835 11.71435446 22.01315348 -0.00214354 0.00612607 0.00475518
C 6.34571341 20.72835465 1.88550583 0.00466341 -0.00424985 -0.00238236
C 9.66663143 17.97457435 3.15980666 -0.00156854 -0.00302061 -0.00516406
C 6.69174070 21.05703204 6.51206586 -0.00007665 0.00208217 -0.00080257
C 9.46520997 17.96648371 7.75592127 0.00302225 0.00844347 0.00076743
C 6.39669126 20.71206476 11.21862363 0.00559158 0.00111407 0.00642743
C 9.47213908 17.93597493 12.50710654 -0.00667098 -0.00470785 0.00224167
C 5.93064632 20.74225216 15.89325610 0.00575412 0.00751927 0.00104300
C 9.48419878 17.84448155 17.05688294 -0.00516201 0.00669998 -0.00524540
C 6.23844253 20.82945153 20.62845489 -0.00156809 0.00283031 0.00499516
C 9.43773562 18.13356982 21.96393871 -0.00413682 0.00076819 0.00575114
C 5.70934319 27.67887397 1.51202440 0.00204314 -0.00113940 0.00875645
C 8.88722038 24.68652998 2.89460061 -0.00084809 0.00566347 0.00501472
C 5.47135834 27.55699727 6.45984368 -0.00114613 -0.00199596 -0.00175089
C 8.72323789 24.53063748 7.73963992 0.00331727 0.00056972 -0.00150831
C 5.42497303 27.12967039 11.06882023 0.00110891 -0.00092757 -0.00525267
C 8.78442933 24.58240295 12.70919611 -0.00432969 0.00142160 0.00463839
C 5.23282945 27.44363856 16.00122254 -0.00373757 0.00230151 -0.00125525
C 8.36471096 24.41839666 17.15790913 -0.00246835 0.00418617 0.00151306
C 5.62405429 27.66029352 20.58574463 -0.00200558 -0.00419704 -0.00425456
C 8.85386339 24.65516617 21.68570499 0.00119781 -0.00318643 0.00421219
C 12.81972716 2.91699893 1.63430609 -0.00399504 -0.00614481 -0.00671323
C 15.90539880 29.61196928 3.18248808 -0.00177087 0.00805280 0.00002279
C 12.57804782 3.02905389 6.48761359 -0.00120077 -0.00197086 0.00349860
C 15.89014572 29.79130651 7.88932385 -0.00581176 0.00191321 -0.00251890
C 12.44006343 2.61755333 11.07687856 0.00031482 -0.00370978 0.00095200
C 16.01610032 29.72372690 12.38673018 -0.00033693 0.00459343 0.00357885
C 12.67865586 2.70160362 15.72132311 -0.00006835 0.00691523 -0.00122898
C 15.83852433 29.68114589 17.14396684 -0.00040361 0.00225958 -0.00132810
C 12.63429321 2.55542651 20.71982710 -0.00221745 -0.00050516 0.00232150
C 15.70322157 29.83844816 21.82536613 0.00281547 0.00033605 0.00123179
C 13.33472385 8.32729801 2.02983074 0.00630821 -0.00038189 -0.00117482
C 16.13329090 5.34634124 2.86498663 0.00084621 -0.00085429 0.00112182
C 13.20754257 8.50134439 6.59010125 0.00490592 -0.00126784 0.00379984
C 16.41711456 5.42925067 7.93729971 -0.00136688 0.00458800 0.00248301
C 13.37937768 8.54904620 11.11928836 0.00510871 0.00463740 0.00578866
C 15.84053164 5.18296888 12.52397020 -0.00569771 0.00981293 0.00160046
C 13.20016959 8.59053407 15.83188929 -0.00215561 0.00511345 0.00307836
C 15.72264856 5.55176549 17.30342187 0.00233904 -0.00200019 0.00268190
C 13.42345347 8.75710609 20.59189669 -0.01017790 0.00334631 0.00208048
C 16.09478290 5.67837362 21.77281113 -0.00254042 0.00039508 0.00245844
C 12.52986763 14.95700811 1.83942770 0.00058912 -0.00246716 0.00453463
C 15.71280862 12.05069433 2.97052272 -0.00407703 0.00302953 -0.00000249
C 12.78410925 14.68933266 6.58754310 -0.00699859 0.00498203 0.00259526
C 15.60431230 11.94037803 7.64182936 0.00541458 0.00404197 0.00686533
C 12.47466725 14.76127223 11.28836496 -0.00229264 -0.00799335 0.00770016
C 15.74885597 12.15142112 12.42712295 0.00291220 -0.00144386 0.00535940
C 12.80196514 14.84811307 16.01077805 -0.00095379 -0.00506803 0.00315970
C 15.84197644 12.07816271 17.28936776 -0.00383618 0.00470906 0.00395991
C 12.46761399 14.97480843 20.92222927 -0.00314847 0.00194218 0.00500433
C 15.65213373 11.90295091 21.82861013 -0.00217847 -0.00269249 0.00177507
C 12.02345498 21.49591196 1.56484397 0.00307827 0.00443413 0.00104976
C 14.95619855 18.25362970 3.10798033 0.00195091 -0.00196546 0.00194916
C 11.76869006 21.57480640 6.40946798 -0.00024816 -0.00450876 -0.00094127
C 15.06606199 18.37363267 7.85219607 0.00281711 -0.00046551 0.00149195
C 12.24690235 21.56384182 11.04928609 -0.00786115 0.01165688 0.00729156
C 15.05488470 18.48732900 12.37619339 0.00299744 0.00210098 0.00238207
C 11.93661161 21.48180128 15.75096331 0.00587631 -0.00225466 -0.00534949
C 15.02261351 18.53105210 17.27589748 0.00136425 0.01062695 0.00969992
C 11.77806210 21.82912245 20.40895149 -0.00074640 -0.00402379 0.00043751
C 14.90124538 18.59848802 21.85705450 -0.00873073 0.00565285 0.00118437
C 12.03522959 27.38992299 1.70641975 -0.00242388 -0.00027167 0.00140433
C 15.28093867 23.98147714 2.90271529 0.00246726 -0.00193187 0.00361381
C 11.98606500 27.18709484 6.43733269 -0.00311728 -0.00070097 0.00038449
C 15.68719230 24.06398629 7.49556429 0.00374048 -0.00070968 -0.00131836
C 12.58388601 27.21113523 11.14810197 -0.00713822 -0.00070101 -0.00404026
C 15.46638156 24.11203766 12.31891366 -0.00332702 -0.01027367 0.00188238
C 12.19048490 27.27601508 15.78058229 0.00113554 0.00094040 0.00117060
C 15.57192160 24.08380670 17.21641890 0.00119073 0.00711511 0.00431778
C 12.35993978 27.14599239 20.72048623 -0.00030262 0.00242871 0.00334658
C 15.37097658 24.49344143 21.88142317 0.00389487 -0.00430022 -0.00931571
C 19.09216335 2.34009662 1.74794784 0.00062955 0.00701316 0.00001757
C 22.39618884 29.47723762 3.08665701 -0.00287237 -0.00791988 0.00183493
C 19.50510527 2.42462990 6.59181480 0.00162483 0.01067937 -0.00397524
C 22.52350024 29.79435786 7.90394334 -0.00355037 0.00159401 -0.00546989
C 19.42378888 2.61430058 11.37653084 0.00653646 -0.00269317 -0.00363233
C 22.55732210 29.36711514 12.47816726 0.00218806 -0.00814818 0.00203968
C 19.56262928 2.34889713 16.05371360 -0.00227737 -0.00630692 -0.00515387
C 22.11770025 29.54233371 17.27172098 0.00038217 0.00559792 0.00125441
C 19.07272787 2.52479155 20.74935034 0.00396501 -0.00631176 -0.00292762
C 22.52762769 29.37872789 21.84257035 -0.00561529 -0.00032130 0.00372140
C 18.70581779 8.68093190 1.79207614 -0.00220225 0.00128433 -0.00705421
C 21.94589697 5.97922822 3.14202485 -0.00480488 -0.00119740 -0.00472473
C 18.56109882 9.03849980 6.46976469 0.00519204 -0.00435843 -0.00360401
C 21.74767633 6.28246785 7.89497638 0.00377236 -0.00387304 0.00274995
C 18.98748817 8.97538921 11.39931094 -0.00469544 0.00325935 0.00283029
C 22.11199862 6.06997396 12.47816203 -0.01078495 0.01401546 -0.00213999
C 18.74859582 9.13185228 16.00285176 -0.00406284 0.00779938 0.00743387
C 21.88215903 5.74109946 17.30273383 0.00148314 -0.01237791 -0.00857811
C 18.65554690 8.75686366 20.57143179 -0.00143246 -0.00423641 -0.00704224
C 22.24651442 5.93378723 21.85517988 0.00140967 0.00234404 0.00247157
C 18.12499425 15.71582313 1.74766473 0.00524584 0.00281004 -0.00249424
C 21.26264982 12.58183468 3.11881657 0.00224437 0.00076119 -0.00351590
C 18.32412471 15.42324555 6.54219146 0.00653777 -0.00261597 -0.00038944
C 21.36933266 12.88299961 7.86980968 -0.00495003 0.00428729 -0.00129372
C 18.08760783 15.63358220 11.32824492 0.00302460 0.00309070 -0.00675671
C 21.13041901 12.71599014 12.54822451 -0.00076213 -0.00086137 -0.00210100
C 18.25144010 15.56791688 15.96554384 -0.00262278 0.00251580 0.00100232
C 20.88673460 12.44016369 17.19118464 0.00937615 -0.00072822 0.00679110
C 18.05355464 15.49151007 20.70273101 0.00425116 -0.00585314 0.01022455
C 21.21505256 12.68205284 21.75698060 0.00082253 0.00072901 0.00540262
C 18.41697344 21.17629376 1.55226098 0.00092043 -0.00408609 -0.00562370
C 21.33238442 18.11866275 3.00586158 0.00022437 -0.00116318 0.00058050
C 18.51879559 21.05652074 6.41014019 0.00104154 0.00068728 -0.00347787
C 21.53406706 18.32537686 7.74986337 -0.00483315 0.00193622 -0.00693838
C 18.46532173 21.01215466 11.16186916 -0.00347149 -0.00320459 0.00364632
C 21.57554608 18.09765056 12.63991127 -0.00081593 -0.00258329 0.00283015
C 18.60923713 20.87359729 15.95611156 -0.00003928 -0.00046824 -0.00015715
C 21.77813482 18.04713761 17.33907325 0.00087771 0.00675654 -0.00302538
C 18.32145160 21.27339600 20.69801988 0.00121244 0.00024666 -0.00684978
C 21.57438298 18.04741685 21.91628110 0.00058329 -0.00030085 -0.00421251
C 19.00861954 26.72848328 1.80876598 -0.00062338 0.00026923 -0.00369711
C 22.42516512 23.89691435 3.24412369 0.00353221 -0.00010826 -0.00136109
C 18.71802245 26.83694009 6.46046137 -0.00102126 -0.00130391 -0.00115534
C 21.87796016 23.53478367 7.65072632 -0.00151676 -0.00273734 0.00023257
C 18.95007082 26.79066693 11.24102571 0.00753939 -0.00147877 0.00615095
C 22.18869405 24.02054440 12.36204836 0.00079676 0.00602055 -0.00731162
C 19.05643639 26.39158580 15.97004316 -0.00079739 -0.00505644 -0.00214799
C 21.92397328 23.55883968 17.23240556 0.00577350 -0.00739532 0.00040612
C 18.92984546 26.69583734 20.70093549 -0.00942015 -0.00256929 0.00072445
C 22.02448003 23.74584669 22.01226251 -0.00073803 0.00337236 -0.00049538
C 24.93475939 2.93113482 1.76915280 -0.00091396 0.00353614 -0.00077527
C 28.13248437 0.25194412 3.08038286 -0.01162301 -0.00043848 0.00200962
C 25.28687478 2.83333832 6.42041888 -0.00242991 0.00301620 -0.00432808
C 28.01052215 29.54162877 7.82867373 -0.00271505 -0.00176276 -0.00409827
C 25.09094778 2.98137961 10.97315301 0.00011634 -0.00798080 -0.00327036
C 28.33467819 29.77507027 12.41141421 0.00151388 -0.00071496 0.00066180
C 25.10183805 3.10281279 15.94558649 -0.00102171 -0.00511552 -0.00261265
C 27.88056408 0.01318138 17.37958484 -0.00830860 0.00028780 0.00175119
C 24.98741310 3.04429146 20.67019563 -0.00156916 0.00269277 -0.00266368
C 28.16581601 0.19090890 22.22003124 -0.00056000 0.00298495 -0.00048356
C 24.28920395 9.62028906 1.65069113 0.00226450 -0.00203800 -0.00001137
C 27.74215216 6.46973918 2.91484196 -0.00692970 -0.00102459 0.00063620
C 24.31778751 9.71738128 6.27187074 -0.00319658 -0.00336115 0.00406323
C 27.36345819 6.60734016 7.66020306 0.00169461 0.00386130 0.00965414
C 24.42548859 9.79424120 11.21755080 0.00297932 -0.00460011 -0.00406772
C 27.32926391 6.62287867 12.32270494 -0.00170839 -0.00112899 -0.00217735
C 24.52936951 9.57896492 15.81590313 -0.00290120 -0.00082076 -0.00205607
C 27.59771981 6.47716088 17.22537867 -0.00266088 -0.00129814 0.00480400
C 24.36561490 9.61454565 20.53470461 0.00085444 0.00098006 0.00485484
C 27.60588697 6.72240606 21.97590035 -0.00430404 0.00015118 0.00224617
C 24.59469636 15.33563418 1.62960227 -0.00797719 -0.01076479 -0.00181118
C 27.73412057 12.33081297 2.96018117 -0.00099957 -0.00670245 -0.00436540
C 24.60287410 15.20795637 6.42182466 0.00361015 0.00124076 0.00406422
C 27.92279711 12.21199354 7.81711469 0.00332126 -0.00607420 -0.00865137
C 24.96972601 14.98400318 10.98561355 -0.00104886 -0.00640006 0.00446269
C 28.08348670 12.17785872 12.58070544 -0.00429153 -0.00143791 0.00136463
C 24.60889631 15.15053058 15.73408776 -0.00077320 -0.00642905 0.00288351
C 27.86965853 12.10180337 17.21582363 -0.00570690 0.00212611 0.00636006
C 24.79098077 15.09710857 20.49224259 0.00422540 -0.00093848 -0.00052627
C 27.90761305 12.30265820 21.94950857 -0.00098828 0.00079720 -0.00483412
C 24.96160417 20.66461041 1.72886852 -0.00160724 0.00166698 -0.00152162
C 28.41071135 17.46428131 3.05618406 -0.00473552 0.00007406 0.00581173
C 25.11541587 20.53606390 6.24408049 -0.00036436 -0.00071830 0.00129791
C 28.55157691 17.72642857 7.77476206 -0.00631036 -0.00050178 -0.00085616
C 25.08188029 20.67791890 11.21039789 -0.00392381 -0.00207330 -0.00129659
C 28.19949215 17.67377335 12.49063701 0.00069306 0.00417516 -0.00112675
C 24.98166737 20.79309878 16.13278893 -0.00051736 0.00190084 0.00878405
C 28.27708323 17.88481986 17.09741997 -0.00101095 0.00843290 -0.00368992
C 25.40826724 20.66758283 20.76016225 -0.00051528 -0.00392831 0.00152629
C 28.35037642 17.64247457 21.66950618 -0.00291541 0.00098398 -0.00469567
C 25.65967248 26.39912174 1.66475100 0.00677662 -0.00113048 -0.00281393
C 28.92997861 23.32302916 3.00165326 -0.00336978 0.00673456 -0.00285609
C 25.68515262 26.31585682 6.38654796 -0.00294374 -0.00091091 0.00024814
C 28.55775816 23.15068340 7.69139598 0.00163554 0.00306206 0.00424596
C 25.57085979 26.22399382 11.06964050 0.00020715 -0.00071955 0.00356939
C 28.40719136 23.10545653 12.43917684 -0.01091381 0.00385592 0.00552432
C 25.35213899 26.21450186 15.77607945 -0.00247592 -0.00492512 -0.00104838
C 28.46793913 23.32553616 17.24661883 0.00408769 0.00570874 0.00156736
C 25.68762387 26.25278928 20.58330576 -0.00454278 -0.00312281 -0.00073743
C 28.76428636 23.38265513 21.89832824 0.00111920 -0.00069628 -0.00175084
N 0.20892746 4.47858633 0.99701864 -0.00681878 0.00092356 -0.00177350
N 3.30118892 5.19754513 3.53810452 -0.00274008 -0.00129063 -0.00603053
N 5.23109907 2.45636574 1.08972262 -0.00085296 0.00001013 -0.00757764
N 1.36594364 1.08232296 3.61745146 0.00150130 0.00309326 0.00371378
N 0.25848029 4.34649423 5.49055256 -0.00210217 0.00332606 0.00436463
N 3.17799079 5.19288413 8.42252127 -0.00327658 0.00384559 0.00159954
N 5.38857363 2.36842459 5.51026368 -0.00238859 0.00155065 -0.00045394
N 1.73005782 1.32898042 8.39217528 0.00847394 -0.00138812 -0.00096606
N 0.36820920 4.26879828 10.35537112 0.00686463 0.01085291 0.00233996
N 3.51881999 4.93200014 13.32858595 0.00241096 0.00248886 0.00099781
N 5.18224939 2.16046891 10.27847507 0.00548744 0.00287177 -0.00335140
N 1.80302323 0.88942149 13.21180820 0.00364528 0.00630467 0.00463881
N 0.04074341 4.14233083 15.01992939 -0.00160843 -0.00155669 0.00466377
N 3.74033443 5.18489903 17.70902184 0.00155592 -0.00940615 -0.00190042
N 5.42951991 2.28111185 15.26060599 -0.00073226 -0.00597386 0.00369945
N 1.79931668 1.39723288 17.74635388 0.00067735 -0.00276543 -0.00743637
N 0.01828962 4.49007989 20.14437936 -0.00487830 -0.00345021 0.00264692
N 3.71904514 5.33464398 22.45717008 -0.00176950 -0.00599848 -0.00687362
N 5.34222455 2.66512984 19.88028210 0.00469973 0.00627598 -0.00034912
N 1.57821388 1.36823928 22.60543070 0.00175906 -0.00573746 0.00552254
N 0.57929056 10.43889965 0.94112336 -0.00344745 -0.00026080 -0.00151422
N 4.05223125 11.04525964 3.84598845 0.00319150 0.00161964 -0.00216350
N 5.75830436 8.18046863 0.93231674 -0.00187443 0.00655752 0.00055423
N 2.43176411 7.36107999 3.51097923 0.00151531 -0.00219087 0.00105760
N 0.56898165 10.08842170 5.70335074 -0.00080473 0.00233594 -0.00049142
N 3.95182855 10.88535290 8.45934363 -0.00152333 0.00365973 -0.00106449
N 5.38463729 7.99760844 5.78967712 0.00266275 0.00162589 0.00227373
N 2.20695998 7.31739073 8.39132084 0.00405909 -0.00009070 -0.00013440
N 0.84584190 10.21410147 10.61121599 -0.00285753 0.00192290 -0.00170536
N 4.02994464 10.88721638 13.20508000 0.00394526 -0.00350756 -0.00005619
N 5.52254836 8.28450552 10.56008945 0.00147752 -0.00350220 -0.00274095
N 2.18523312 6.80958436 13.06028921 -0.00294959 -0.00181413 -0.00498009
N 0.64316826 9.85807731 15.44101093 -0.00044542 0.00002988 0.00608089
N 3.96878762 10.79555988 18.12776975 -0.00025687 -0.00246166 -0.00676378
N 5.49774628 7.78170223 15.41718264 0.00160878 -0.00012725 0.00220737
N 2.39221490 6.98492336 17.75310069 -0.00319861 0.00047634 -0.00339700
N 0.34966579 9.91589088 19.73701715 0.00559612 -0.00517789 0.00048308
N 4.25846186 11.03526279 22.57333844 -0.00122760 -0.00093083 0.00158680
N 5.70459176 7.99029608 20.01144677 0.00121837 -0.00128730 0.00208482
N 2.38268487 7.22683789 22.07327686 -0.00736805 -0.00140008 0.00699559
N 0.91115558 15.76554132 0.75268397 -0.00380395 -0.00315033 0.00234538
N 4.86485611 16.55557520 3.59976734 -0.00204224 0.00657853 0.00068208
N 6.19479444 13.81075686 0.91961662 0.00194437 0.00589523 0.00101219
N 2.56535711 12.79955882 3.80227816 0.00848803 0.00025477 0.00943701
N 1.19210927 15.28125368 5.94159792 0.00160475 -0.00508370 -0.00364064
N 4.67856371 16.47326827 8.37094330 0.00048080 0.00593864 -0.00165004
N 6.37616475 13.43847920 5.64703901 -0.00003877 0.00670197 0.00229394
N 2.92607653 12.92228292 8.72571444 0.00484906 0.00110832 0.00186193
N 1.23667461 15.16123660 10.49356883 -0.00612076 0.00615268 -0.00497455
N 4.45177291 16.36623189 13.19319150 0.00482779 -0.00104881 0.00004178
N 6.03858789 13.58755415 10.44719565 0.00039699 0.00585706 -0.00201550
N 2.83334098 12.78725369 13.36955223 -0.00003822 0.00577155 -0.00099531
N 0.73096632 15.64208221 15.24503175 -0.00460653 0.00206690 0.00537076
N 4.74235175 16.87590754 17.62768700 -0.00089719 -0.00366385 0.00675764
N 6.13102270 13.42008620 15.18360064 -0.00869677 0.00156854 0.00690972
N 2.88629805 12.76844725 18.08207682 -0.00461331 0.00297561 -0.00316391
N 1.02655755 15.54880364 19.97496533 -0.00318726 -0.00373558 -0.00262019
N 4.62011182 17.12311874 22.61999005 0.00221885 0.00212457 0.00023933
N 5.98541065 13.67111974 20.03985856 0.00684900 0.00531290 0.00317313
N 2.77599729 12.72162266 22.83412364 -0.00038385 0.00469574 0.00762482
N 1.56231080 20.91354119 0.95572674 0.00260651 0.00242270 -0.00280420
N 4.50172373 23.19508265 3.77197066 -0.00334503 -0.00115506 -0.00144635
N 5.58463958 19.89491177 1.19236505 -0.00057749 -0.00025388 0.00020531
N 3.24378138 18.16981362 3.86656375 0.00094503 0.00065132 0.00434907
N 1.67562936 21.15304483 5.76810273 -0.01008357 0.00405879 -0.00116691
N 4.39190297 23.54205222 8.64928564 -0.00578761 -0.00140604 0.00264257
N 5.80085243 20.30350274 5.79853250 -0.00245880 -0.00286172 0.00106292
N 2.86811686 17.88484229 8.46867606 -0.00280080 0.00579107 -0.00396513
N 1.36181661 20.91634711 10.24173159 -0.00154723 0.00026278 0.00184996
N 3.98746635 22.96790137 13.28143928 0.00099606 0.00056178 -0.00095350
N 5.59662204 19.88679144 10.50493731 -0.00379840 -0.00042843 -0.00058967
N 3.07928738 18.16205318 13.02073831 0.00026815 -0.00087480 -0.00285323
N 1.01078400 21.26258123 15.03728975 -0.00217456 -0.00710958 -0.00614932
N 3.80579770 23.44311850 17.60174584 -0.00558155 -0.00437532 -0.00063154
N 5.24601085 19.83721107 15.17922489 0.00042465 0.00503892 -0.00233310
N 2.76362504 17.90040187 17.98580870 0.00412273 -0.00200374 0.00011258
N 0.94133123 21.18590336 19.88085759 0.00196638 -0.00040488 -0.00321718
N 4.27825378 23.49832677 22.73554704 -0.00311599 -0.00146182 -0.00383000
N 5.25980625 20.13996371 19.93606663 0.00432571 -0.00115219 -0.00361434
N 2.72837785 18.24186894 22.65691418 0.00577124 0.00236645 0.00211184
N 0.94002596 27.41047863 1.10539765 -0.01092532 -0.00634148 -0.00345815
N 3.37139548 29.86564914 3.63189484 -0.00199109 0.00483018 0.00319007
N 4.90765907 26.82469812 0.92919072 0.00123086 -0.00153927 -0.00291794
N 2.54752113 24.38164121 3.84577829 0.00799834 0.00145519 0.00015526
N 0.84239431 27.58225012 5.72440689 0.00003678 -0.00133678 -0.00370436
N 3.42148019 29.72976989 8.32481351 -0.00367614 0.00045077 0.00753534
N 4.82789865 26.64366153 5.63628899 0.00062902 -0.00331257 -0.00359376
N 2.18874506 24.20974914 8.16137355 0.00172642 -0.00197689 0.00255725
N 0.75471138 27.29575158 10.43865947 0.00207366 -0.00665109 -0.00370042
N 3.75544455 29.48424112 13.15788276 0.00693758 -0.00380553 0.00061573
N 4.53542258 26.48184986 10.32703702 -0.00442782 0.00248286 -0.00253537
N 2.04319484 24.14755522 13.16489895 -0.00062956 -0.00447032 -0.00288078
N 0.37830571 27.65706564 15.07022819 0.00024758 -0.00238096 -0.00361767
N 3.67013416 0.06742187 17.95140214 0.00150809 0.00057921 0.00206903
N 4.54313826 26.61601332 15.12200372 -0.00932924 0.00174114 -0.00484678
N 1.89411017 24.69049428 17.92922910 -0.00142129 0.00681844 -0.00054295
N 0.93413815 27.54469753 19.97617702 0.00539082 -0.00195000 -0.00303606
N 3.37871203 0.00312199 22.65505075 0.00236070 -0.00484533 -0.00180389
N 4.70831649 26.83964595 19.96748419 0.00692144 -0.00374617 0.00079158
N 2.16386426 24.21048946 22.74375527 0.00106508 0.00292043 -0.00132340
N 6.69551886 4.26176838 0.71396861 -0.00464074 0.00112479 -0.00051524
N 10.06571365 4.91693390 3.89149494 0.00084542 0.00541872 0.00335325
N 11.94254019 2.07945223 1.03308375 0.00109682 0.00254860 -0.00172259
N 8.41157047 1.23634374 3.57278391 -0.00298545 -0.00646792 -0.00355730
N 6.73855104 4.23205806 5.49146454 0.00496488 0.00201331 0.00676500
N 10.16613085 4.75367339 8.51525105 -0.00096403 0.00447448 -0.00128446
N 11.88956110 1.98788318 5.79393845 0.00242730 -0.00218544 -0.00463478
N 8.41689151 1.20673846 8.24769196 -0.00347080 -0.00052969 -0.00042711
N 6.67776719 3.93538758 10.31664930 -0.00136404 0.00644378 0.00806120
N 10.27607323 4.63263398 13.07174677 0.00646791 0.00225004 -0.00288822
N 11.63482819 1.81889141 10.36194223 0.00384445 0.00516453 0.00036817
N 8.22853637 0.81119818 13.03912761 -0.00813368 0.00249758 0.00183651
N 6.85046830 4.06397907 15.17386126 -0.00056239 0.00165434 -0.00545477
N 10.53530410 4.87602711 17.64504717 0.00352485 0.00124610 0.00093964
N 11.75740310 1.82120181 15.15854153 0.00128533 -0.00121283 -0.00253875
N 8.53572966 1.47244558 18.02210490 0.00211328 0.00079758 0.00545124
N 7.24985687 3.95215181 19.81013933 -0.00239780 0.00287286 -0.00362663
N 10.36162408 4.91345505 22.89050568 -0.00455170 -0.00152531 -0.00217342
N 11.95150108 1.77224210 19.89602425 -0.00123821 0.00186659 -0.00023140
N 8.31420767 1.36530342 22.80861647 -0.00475605 0.00211273 0.00072588
N 7.64010095 9.62593434 1.15135496 -0.00676163 0.00146071 -0.00414541
N 10.43349308 10.37732989 4.04251300 0.00234450 -0.00414177 0.00083827
N 12.26656025 7.71039022 1.45983217 -0.00231121 -0.00106580 0.00303975
N 8.79095460 6.81205807 3.85225781 -0.00524787 0.00322035 -0.00667494
N 7.18612214 9.47151371 5.68535009 0.00428845 -0.00405442 0.00612970
N 10.73283864 10.56098143 8.49087171 -0.00096283 -0.00147153 -0.00371447
N 12.40665076 7.63992227 5.89301669 0.00413256 -0.00711441 -0.00217140
N 9.27302402 6.87924516 8.70564586 0.00106301 0.00089629 -0.00439613
N 7.40073986 9.63519495 10.67491464 0.00286439 0.00186175 -0.00077298
N 10.85300533 11.02995217 13.54141877 0.00632503 -0.00502185 0.00711760
N 12.73966338 7.62016524 10.35169846 -0.00196035 0.00541060 -0.00030738
N 9.09845439 6.66288278 13.11124361 -0.00043473 -0.00551008 -0.00181790
N 7.13071051 9.40958240 15.29990340 0.00218085 -0.00043434 0.00329083
N 10.85248909 10.88167168 17.93888649 -0.00491738 0.00067181 0.00287164
N 12.36382616 7.81498240 15.03587245 -0.00079176 -0.00070587 0.00447919
N 9.25911168 6.76746645 18.05730496 0.00166809 -0.00455281 -0.00143191
N 7.49324609 9.39600220 19.90201377 0.00529948 -0.00303252 -0.00351228
N 10.62065767 10.97343530 22.61103208 -0.00307655 0.00138836 0.00215684
N 12.38459811 7.94000651 20.05509227 -0.00226832 0.00000633 0.00211162
N 9.22452096 6.87359967 22.70282823 0.00017520 -0.00253829 0.00119249
N 7.85706041 15.27681782 1.17281438 0.00402709 -0.00124060 -0.00710540
N 10.63500724 17.47933502 3.92283926 0.00010491 -0.00105680 0.00193787
N 11.81758676 13.98273422 1.19113330 0.00390676 -0.00574438 0.00140448
N 9.20352502 12.20453851 3.82561668 -0.00583620 -0.00091628 0.00735571
N 8.00388660 15.16229593 5.84397493 -0.00246686 -0.00174056 0.00463276
N 10.45999315 17.45140786 8.46706476 -0.00409265 0.00708808 0.00052322
N 12.00934769 13.98605041 5.77425534 -0.00198595 0.00389744 -0.00125440
N 9.01873230 12.00767353 8.50822011 0.00766772 -0.00612484 -0.00006188
N 7.83626645 14.96860713 10.45132779 -0.00163469 -0.00455485 0.00027138
N 10.50340903 17.40745576 13.17756134 -0.00358603 0.00172521 0.00323449
N 11.77290629 13.87141070 10.55513218 -0.00126701 0.00374723 -0.00928326
N 8.94870768 12.35951210 13.50502146 0.00329261 -0.00365989 0.00782614
N 7.64089116 15.10465114 15.14388519 0.00155553 -0.00529891 0.00173581
N 10.50694481 17.53069032 17.88697209 0.00188031 0.00460121 -0.00034827
N 11.85392074 14.17474772 15.41485111 -0.00340891 0.00315690 0.00000249
N 9.01970991 12.29052601 18.14294870 -0.00019483 0.00183457 0.00094031
N 7.68101966 15.19784226 19.97588742 0.00208317 0.00179655 -0.00332077
N 10.48670122 17.51381887 22.61438851 -0.00244831 -0.00092951 -0.00369858
N 11.56581644 14.37442851 20.11427905 -0.00176178 0.00237509 0.00099930
N 8.89579141 12.38698002 22.87917431 0.00105343 0.00299625 -0.00058860
N 7.12918239 21.61730476 1.13664578 -0.00730545 0.00079221 -0.00244762
N 9.80244059 23.81873628 3.48078680 -0.00024264 -0.00836928 -0.00232023
N 11.07910698 20.80916030 0.91984849 0.00198861 0.00129523 -0.00030630
N 8.70721514 18.72913557 3.78352186 0.00142212 -0.00210473 0.00602942
N 7.43381609 21.85266730 5.78101145 -0.00344605 0.00389813 0.00150041