2000
Time=91000.00000003 pbc="T T T" Lattice="30.99940764 0.00000000 0.00000000 0.00000000 30.05824017 0.00000000 0.00000000 0.00000000 23.63195833" energy=-12040.66904974 virial="-49.48858643 -18.59816793 -50.82613583 -18.59816793 -84.10780301 9.80756978 -50.82613583 9.80756978 -68.92445243" stress="-0.00011938 -0.00086579 -0.00233388 -0.00086579 -0.00158944 0.00036517 -0.00233388 0.00036517 -0.00024848" Properties=species:S:1:pos:R:3:vel:R:3
C 30.30451834 3.40236257 1.88425664 -0.00051300 0.00299762 0.00307259
C 2.98826329 0.67500575 3.00555419 0.00272295 -0.00033462 0.00282115
C 30.55260635 3.55633543 6.61101235 0.00073668 -0.00286769 -0.00343399
C 2.46924233 0.41566288 7.89381825 0.00660015 0.00127469 0.00029203
C 30.68546205 3.68707029 11.09383451 -0.00136781 -0.00397410 -0.00548476
C 2.61236741 0.43719395 12.57596578 0.00415440 -0.00283242 -0.00384241
C 30.55064392 3.56705399 15.92144006 -0.00926267 -0.01071044 -0.00260933
C 2.51071953 0.41775885 17.42052819 0.00430105 -0.00344706 -0.00939385
C 30.22145509 3.49982343 20.76713414 -0.00412809 -0.00027810 0.00440327
C 2.28084102 0.71064972 21.82184748 0.00705640 -0.00522209 -0.00287268
C 30.83755031 8.94739606 1.57406641 0.00082870 0.00512914 0.00071879
C 3.11426425 6.15201331 2.92308828 0.00325326 -0.00272684 -0.00062470
C 30.58890713 8.97937083 6.33446170 -0.00152570 0.00524624 0.00117297
C 3.08468148 6.13495401 7.70233136 0.00908989 0.00599015 0.00002721
C 30.82499061 8.95302080 11.16286491 0.00257759 -0.00117162 -0.00049113
C 2.84817385 6.39290715 12.55121256 0.00133680 0.00126262 0.00236785
C 30.53127140 9.12809369 15.77985873 0.00581109 0.00206839 0.00618740
C 2.40385695 5.99262050 17.41467244 0.00006854 -0.00192106 0.00103170
C 30.44297135 8.99357838 20.52212587 -0.00146693 0.00319588 0.00269225
C 2.75668210 6.22397035 21.97270111 -0.00066914 0.00207226 -0.00275877
C 0.29181054 15.15413089 1.75869556 -0.00320105 -0.00153494 0.00483492
C 3.31696135 11.83055365 3.02390324 -0.00091532 0.00028326 -0.00289906
C 0.31841676 14.69383342 6.49333947 0.00617615 0.00065239 -0.00034885
C 3.44982621 11.63238176 7.73643795 -0.00216509 0.00337011 -0.00502887
C 0.18894039 14.88957291 11.14429672 0.00212349 -0.00222636 -0.00775605
C 3.51804080 11.95144719 12.29423151 0.00317734 0.00455725 -0.00346913
C 0.18093349 14.68010400 15.87575229 0.00124958 0.00313655 0.00158284
C 3.04719360 11.78748309 17.27981761 -0.00506640 -0.00772387 -0.00244930
C 0.13288893 14.98841988 20.81482339 0.00014502 0.00969206 -0.00988784
C 3.09158532 12.00274973 22.03091969 -0.00242170 -0.00235843 -0.00386032
C 0.44201213 20.64715046 1.68378877 -0.00658559 -0.00484525 -0.00157219
C 3.58158648 17.51562768 3.04666625 -0.00611801 0.00943762 0.00415738
C 0.57952218 20.50230883 6.43710302 -0.00210149 0.00200891 0.00218531
C 3.40430565 17.41413530 7.76409929 -0.00345836 0.00673918 0.00099316
C 0.49619119 20.39634732 11.16997760 -0.00484458 -0.00281071 -0.00237874
C 3.62672057 17.49009117 12.65230777 -0.00228434 -0.00252666 0.00871362
C 0.73559475 20.38749809 15.86878639 -0.00061092 -0.00432758 -0.00090846
C 3.50361021 17.23328504 17.33638189 -0.00244378 -0.00160445 -0.00610422
C 0.48192803 20.46079132 20.51552546 0.00017019 -0.00062004 0.00058945
C 3.67068061 17.47297306 21.94533262 0.00230358 -0.00902143 0.00684455
C 30.88099082 27.21968482 1.91539764 -0.00575243 0.00007634 -0.00210351
C 3.18360398 24.15288428 3.07421189 -0.00100213 0.00138482 0.00414456
C 0.19684375 27.06849736 6.53093445 0.00249321 0.00934600 -0.00267444
C 3.11274988 23.95993602 7.94638080 0.00224221 -0.00208628 -0.00373090
C 30.83477984 27.20244533 11.36704744 -0.00525972 -0.00438375 0.00636329
C 3.09430183 23.94688905 12.48706619 0.00359190 -0.00170994 -0.00486320
C 0.02818256 27.01863484 15.92345610 0.00863845 -0.00408445 0.00260779
C 2.83164999 24.13827298 17.26960141 -0.00552493 0.00656895 0.00300135
C 30.83118299 27.14727980 20.61037280 -0.00311040 -0.00015718 -0.00367177
C 2.86330318 24.21027778 22.03475586 -0.00455783 0.00091783 -0.00039649
C 6.12989311 3.35186654 1.79754537 0.00077218 0.00119971 -0.00073762
C 9.06137449 29.96039223 3.01717816 -0.00838381 -0.00160068 0.00532787
C 6.26196747 3.36859349 6.52767135 0.00390025 -0.00087775 -0.00306050
C 9.19213091 0.24954737 7.74395769 0.00256186 0.00023311 -0.00433310
C 5.81380687 3.34892727 11.00006613 -0.00348459 -0.00429218 -0.00246897
C 8.92352364 0.17547889 12.35057897 -0.00287314 0.00066214 -0.00155078
C 5.94378740 3.10606103 15.89235973 -0.00588017 -0.00037547 0.00370867
C 9.21583711 0.41129037 17.22559605 -0.00127907 -0.00096995 0.00182671
C 6.20788953 3.22100921 20.54591605 -0.00244173 0.00135024 -0.00046362
C 9.14073423 0.30102759 21.98349972 -0.00156558 -0.00188499 0.00072306
C 6.26672691 8.82084205 1.71281628 0.00422683 0.00535214 0.00246727
C 9.52759794 5.92674095 3.04711325 -0.00194338 -0.00196192 0.00344886
C 6.58922812 8.80669813 6.33065968 0.00157233 0.00454218 0.00322412
C 9.77601067 5.98456955 7.68482809 0.00390968 0.00373418 -0.00082442
C 6.52865008 8.54156738 11.04185020 -0.00054095 -0.00022515 -0.00190142
C 9.55540455 5.90195223 12.35189821 -0.00119774 -0.00255294 -0.00082148
C 6.29058049 8.58985912 15.93841446 0.00167571 0.00426669 0.00049024
C 9.51378523 5.76142106 17.05989639 -0.00294006 0.00408381 0.00656324
C 6.25697760 8.85822261 20.52734259 -0.00287904 -0.00054618 0.00076601
C 9.64914103 6.13946076 21.70330046 -0.00769875 -0.01460692 0.00031156
C 6.78302068 14.62637546 1.84880316 0.00032137 0.00818051 0.00104055
C 9.84685549 11.48436513 3.08620092 -0.00459139 0.00257772 -0.00723367
C 6.85587749 14.58496480 6.41377092 -0.00467068 0.00534700 -0.00437194
C 9.86894684 11.60421812 7.75981601 -0.00202878 -0.01030857 -0.00803937
C 6.87065931 14.35241797 11.14096883 -0.00389491 0.00538174 -0.00728774
C 9.81396012 11.27080777 12.44099737 0.00559129 0.00318239 -0.00108833
C 6.55981352 14.45041131 15.79477742 -0.00242563 0.00378976 0.00040626
C 9.79263481 11.30869339 17.11070085 0.00020322 0.00097269 -0.00312501
C 6.58612422 14.05173514 20.46644733 0.00270542 0.00025090 0.00058758
C 9.79217287 11.34652185 21.74318297 0.00165452 0.00502814 -0.00517930
C 5.91626746 21.22006776 1.61613982 -0.00104601 -0.00005111 0.00237894
C 9.20877292 18.28267058 2.95238099 0.00182946 -0.00112601 -0.00597893
C 5.94572841 21.13216812 6.49923538 -0.00431638 -0.00192377 0.00372942
C 8.98343854 17.96891091 7.61168546 -0.00174811 0.00216614 0.00148987
C 6.30336520 20.86250419 11.46893501 0.00389897 0.00285636 -0.00178274
C 9.08918913 17.96901706 12.51591209 -0.00294308 0.00027871 0.00723567
C 6.31822011 21.03001195 16.10305945 0.00550235 0.00873134 -0.00322040
C 9.23746363 17.99935920 17.08736681 -0.00171308 -0.00615485 -0.00627474
C 6.07304082 21.11350039 20.63210709 -0.00526023 -0.00246530 -0.00109906
C 9.32626324 18.13649155 21.72468631 -0.00793631 -0.00736449 -0.00131550
C 5.34992063 27.99534729 1.62947694 -0.00327278 0.00142177 0.00256993
C 8.49034410 24.64236254 2.92456649 0.00467484 0.00007288 -0.00051818
C 5.64537093 27.64139837 6.64508762 -0.00562151 -0.00179377 0.00428738
C 8.55728507 24.47271748 7.64785809 -0.00200030 0.00079003 -0.00090144
C 5.37509980 27.69797517 11.19285949 -0.00386603 0.00223500 0.00317347
C 8.65224769 24.49528085 12.43133813 0.00185742 -0.00119219 0.00222362
C 5.62265276 27.62541317 15.87986224 -0.00736575 -0.00265958 -0.00876681
C 8.75286547 24.73759515 17.16655848 0.00768824 0.00062709 0.00046782
C 5.84210110 27.54648053 20.53782070 0.00624309 0.00555268 -0.00208358
C 8.52973659 24.62595024 22.05251870 0.00395076 0.00526376 0.00039801
C 12.61260151 3.01936286 1.79179827 0.00409396 0.00050214 0.00291517
C 15.90475434 29.95295793 2.89190009 0.00232681 -0.00418587 0.00617472
C 12.82808637 2.73748732 6.35972500 0.00151244 0.00037408 -0.00183870
C 15.62885055 29.88917872 7.56981006 0.01001160 -0.00170713 0.00104877
C 12.84647207 2.68110306 11.04487227 0.00006897 -0.00056568 -0.00220691
C 15.76356441 29.94887711 12.43031383 0.00247422 -0.00465731 0.00040386
C 12.55387690 2.64039699 15.64565892 -0.01139532 0.00298518 0.00140842
C 15.59802514 29.64783729 17.31332535 0.00160552 -0.00251150 0.00130503
C 12.54573407 2.68403022 20.43530283 -0.00082032 0.00165205 -0.00756553
C 15.55048034 0.00057578 21.89695022 -0.00594710 0.00146974 -0.00639575
C 13.07915240 8.36398372 1.85171682 -0.00165171 -0.00117366 -0.00346560
C 16.25196313 5.63587938 2.92330025 0.00054016 -0.00050414 0.00249865
C 13.28120322 8.45434518 6.54442479 -0.00011226 0.00314610 0.00056178
C 16.30449973 5.54175098 7.70718257 -0.00076466 -0.00376885 0.00044425
C 12.78028827 8.39065807 11.26625349 -0.00340683 0.00172987 0.00569850
C 16.16452193 5.50158099 12.46360902 -0.00691243 -0.00367058 -0.00250283
C 12.93170984 8.26726968 15.76859630 0.00192373 -0.00167514 -0.00103924
C 15.76469951 5.20373414 17.24866543 -0.00172475 -0.00004544 -0.00998161
C 13.12386805 8.28320155 20.81410769 0.00560867 -0.00492124 -0.00305258
C 16.12838116 5.58473631 21.70225621 -0.00131147 0.00228131 0.00116866
C 12.60491144 15.07246201 1.80616618 0.00287459 0.00136436 0.00031072
C 15.43249776 12.46395646 3.07652354 -0.00239045 0.00683409 0.00002432
C 12.55231544 15.60366637 6.25629501 0.00665358 -0.00040765 0.00650855
C 15.27898823 12.14594444 7.87274746 0.00019657 -0.00084711 0.00011941
C 12.54141802 14.97397761 11.17847192 0.00109906 -0.00316736 0.00292496
C 15.41434994 11.88955934 12.57743242 0.00739923 -0.00033992 0.00249012
C 12.58365015 14.95507681 15.67368351 -0.00120408 -0.00091840 0.00372128
C 15.63958403 12.10613587 17.43858833 -0.00325588 0.00366558 0.00660629
C 12.28954157 14.89070538 20.50892447 -0.00064763 -0.00801393 0.00924949
C 15.33963667 12.19625574 21.99375437 0.00183816 0.00553566 -0.00575465
C 11.74555084 21.62320441 1.59433749 -0.00011799 -0.00182191 0.00035608
C 15.04568962 18.65892539 2.87572261 0.00023606 0.00373178 0.00175992
C 11.63147544 21.53549600 6.33360419 -0.00009432 0.00446346 -0.00386800
C 14.96078135 18.27251659 7.76573402 -0.00165529 0.00404689 -0.00354126
C 11.87300663 21.67148407 11.03045720 -0.00582432 0.00728025 0.00091554
C 14.82772726 18.57911934 12.33516253 0.00120526 0.00553725 -0.00736394
C 11.90743877 21.71460632 15.81338158 -0.00628630 0.00153953 0.00119157
C 14.73249811 18.25968475 17.00980230 -0.00836098 0.00138457 0.00555245
C 11.79202657 21.55170422 20.59763189 -0.00087074 0.00145192 0.00012761
C 15.00229487 18.73910016 21.81121274 0.00234680 -0.00648128 0.00176761
C 12.16730831 27.22038988 1.96614846 0.00265235 0.00756611 -0.00135388
C 15.23013747 24.18786911 3.07365819 0.00497120 -0.00561281 -0.00072193
C 12.33089096 26.99808307 6.45830347 0.00346880 -0.00414681 -0.00240161
C 15.14061768 23.91170913 7.70616489 0.00018415 -0.00018610 0.00125449
C 12.39404677 27.51721041 11.10387481 0.00350818 -0.00490111 -0.00201145
C 15.57165907 24.27860643 12.53908023 -0.00220468 -0.00431294 0.01157517
C 12.31664433 27.21335751 15.97132868 0.00473146 -0.00406207 0.00150128
C 15.19639176 24.37075922 17.43428788 -0.00282263 0.00057941 -0.00698485
C 12.27606836 27.33089252 20.64243217 -0.00328921 0.00308191 0.00311988
C 15.18227650 24.29122119 22.24079804 0.00542955 -0.00236145 -0.00712375
C 19.24376237 2.89756283 1.44489093 0.00937365 0.01118263 -0.00478675
C 22.35500157 29.46629038 3.07736435 0.00020105 -0.00217760 0.00032754
C 19.36901043 2.24736488 6.44936846 0.00441952 0.00043256 -0.00117369
C 22.52984097 29.52879453 7.84937039 -0.00373100 0.00590484 0.00133397
C 19.48603530 2.50073033 11.07293587 -0.00401653 -0.00380412 -0.00433077
C 22.27330305 29.55520119 12.67193077 -0.00239563 0.00203049 0.00303850
C 19.12356943 2.52518725 15.92816893 0.00024500 -0.00422250 -0.00188481
C 22.20946669 29.73030542 17.41753658 0.00983431 -0.00342820 0.00643684
C 19.14221948 2.57248986 20.74397232 0.00381433 -0.00592657 -0.00481150
C 22.24363160 29.57118954 21.93264567 -0.00337446 -0.00484902 -0.00344327
C 18.56976447 9.19959459 1.70501730 0.00130336 -0.00262178 0.00458069
C 21.55155679 6.24276386 2.98219800 0.00394913 -0.00130311 0.00085905
C 18.18351379 8.98354780 6.54093309 0.00618151 -0.00532889 0.00597503
C 21.48178567 6.17372242 7.80638500 -0.00149303 -0.00304121 0.00801651
C 18.57905876 9.03638035 11.19023915 0.00259494 0.00236143 -0.00873640
C 21.63188124 5.91562091 12.54352951 -0.00030374 -0.00972814 0.00148762
C 18.74158315 8.84530478 16.00351586 0.00214320 -0.00357119 -0.00436426
C 21.83823434 5.77246557 17.26927055 0.00110809 -0.00143125 -0.00137548
C 18.74026918 9.36605449 20.52668734 0.00366095 -0.00005673 -0.00641463
C 22.13096262 6.39977434 21.92942062 0.00459807 -0.00278041 0.00124625
C 18.16422132 15.77174543 1.66322238 0.00239317 -0.00031712 0.00350115
C 21.22179722 12.83210136 2.73129902 0.00388264 0.00275129 -0.00591126
C 18.03751732 15.91401037 6.52405344 -0.00474648 -0.00135166 0.00188753
C 21.20654641 12.53000814 7.40658332 -0.01000009 0.00364038 -0.00220161
C 18.13527935 15.28002076 11.21379013 -0.00499943 -0.00470175 0.00306470
C 21.16349178 12.41287121 12.20546905 0.00601727 0.00150678 0.00101142
C 18.24531448 15.55356805 15.70262537 0.00079482 -0.00291815 -0.00296616
C 21.33183091 12.41397352 16.91060566 -0.01310778 0.00551344 0.00307218
C 18.01930348 15.49920507 20.57096826 -0.00254357 0.00908203 -0.00646527
C 21.29019362 12.45557082 21.94020032 -0.00005705 0.00761567 -0.00335878
C 18.50789311 21.37375108 1.65204949 -0.00231176 0.00588024 -0.00002850
C 21.64326811 18.28363220 3.10829578 0.00138573 -0.00627906 0.00285370
C 18.51729219 21.20978521 6.38867079 -0.00594834 0.00016369 -0.00581229
C 21.59366970 18.01290687 7.77261695 -0.00721798 0.00325857 0.00137297
C 18.46077838 21.09424784 11.15106958 0.00190400 -0.00105860 0.00265041
C 21.73334315 18.12647481 12.49285150 -0.00128816 -0.00217846 0.00203063
C 18.18127018 21.41685207 15.92869686 -0.00609666 0.00066091 -0.00801112
C 21.31460028 18.43782370 17.16224401 -0.00585889 -0.00395854 0.00001613
C 18.32212686 21.11929941 20.51645756 -0.00512251 0.00059006 0.00189223
C 21.29234701 18.17961265 21.85912783 0.00262137 0.00209849 0.00456848
C 18.55396290 26.96289368 1.76331696 -0.00104877 -0.00418833 -0.00043663
C 21.93485226 23.72651241 3.10132994 0.00189024 0.00403622 0.00591039
C 18.83855109 26.70745037 6.44876685 0.00230189 -0.00406640 0.00368758
C 22.05557831 24.05285180 7.84257639 0.00276876 0.00035404 0.00043070
C 18.90259413 26.84423284 11.08598041 -0.00043822 -0.00547860 0.00349783
C 21.87044920 23.62189112 12.45172926 0.00447504 -0.00905878 0.00411118
C 18.80739590 26.77780577 15.93129953 0.00206277 -0.00090543 0.00029823
C 21.91180859 24.05693826 17.16798615 -0.00112995 -0.00061523 -0.00720412
C 18.95641146 26.79539617 20.58953832 -0.00725827 0.00055650 0.00157283
C 21.86687508 24.02510106 21.87368580 -0.00264305 0.00026959 0.00126099
C 24.74394484 3.09756068 1.89891990 0.00395363 -0.00068281 -0.00380926
C 27.80411470 0.15623359 3.28800919 0.00346005 -0.00017346 -0.00407260
C 24.87418702 3.15858765 6.50818487 -0.00605864 -0.00525604 0.00699344
C 28.04108017 29.98730045 7.81438394 0.00260904 -0.00395820 -0.00261538
C 24.61275276 3.14579069 11.33208526 -0.00439601 -0.00002515 -0.00075954
C 27.90349068 0.07919438 12.50307809 0.00670769 -0.00207469 0.00347266
C 24.70402612 2.58392329 16.03853547 -0.00354676 -0.00977416 0.00430446
C 27.96826071 29.94021551 17.04285063 -0.00046001 -0.00398871 0.00297156
C 24.92185973 3.01409724 20.76644866 -0.00093478 0.00477326 -0.00208209
C 27.95015246 29.86495537 21.95207228 0.00020960 0.00330349 -0.00183656
C 24.30578473 9.39729026 1.52999551 -0.00849279 0.00333204 0.00007736
C 27.44196708 6.60450544 3.04848860 0.00138849 -0.00001570 -0.00590321
C 24.10533625 9.53128252 6.31462680 0.00034054 -0.00136957 -0.00151790
C 27.31623650 6.54265682 7.68693801 0.00410030 -0.00328459 -0.00261394
C 24.29486698 9.47950318 11.18067937 -0.00050200 0.00841788 -0.00329520
C 27.39237020 6.33571670 12.44659125 -0.00277052 -0.00852211 0.00594898
C 24.09540665 9.57143584 15.78196826 0.00204911 0.00286796 -0.00050753
C 27.25143406 6.57058911 17.05782651 -0.00153037 -0.00273322 -0.00232910
C 24.23658317 9.69529582 20.54038009 -0.00005570 -0.00160377 -0.00241762
C 27.37450940 6.46798374 21.94481594 0.00009841 0.00160390 0.00477173
C 24.82832363 15.24286099 1.64449652 0.00006580 0.00744604 -0.00704332
C 27.89500115 12.24041355 2.84838729 0.00454984 0.00201413 0.00039319
C 24.74669813 15.23520048 6.34189650 -0.00467186 0.00146495 0.00595065
C 27.48838373 12.10504423 7.50819554 -0.00928904 -0.00980910 -0.00618277
C 24.60596993 15.14531895 11.20752980 0.00263889 -0.00686488 -0.00082747
C 27.63919789 12.31624266 12.44305517 -0.00109810 0.00401181 -0.00773384
C 24.47645690 15.27942686 15.85974814 0.00166437 0.00110880 0.00062491
C 27.60421423 12.56730891 17.15672515 0.00533422 -0.00394660 -0.00131889
C 24.59650097 15.20953400 20.53666039 -0.00827973 -0.00662804 -0.00136345
C 27.59850111 12.28685790 21.93194052 0.00125561 0.00582816 0.00106102
C 24.87372404 20.73765736 1.73584432 0.00338828 -0.00393137 -0.00337021
C 28.54069221 17.96705249 3.12312714 0.00110351 -0.00441194 0.00119140
C 24.79460028 20.44566707 6.38837728 0.00087844 0.00171750 0.00665388
C 28.17756787 17.73907659 7.79143810 0.00054095 -0.00299302 0.00193070
C 25.01591346 20.69911154 11.01182498 -0.00678204 0.00005169 0.00177911
C 28.03224289 17.75314703 12.57388469 0.00056672 -0.00267875 -0.00550970
C 25.05232312 20.69739954 15.90198809 0.00237761 -0.00438405 -0.00073926
C 28.02028209 17.82574502 17.18693991 -0.00504905 -0.00798406 -0.00660978
C 25.28262991 20.75563980 20.71557806 0.00105658 -0.00287998 0.00282529
C 28.04369160 18.07346628 22.08631620 0.00077415 0.00392741 -0.00204574
C 25.41333605 26.72162314 1.63183535 0.00140625 -0.00032361 0.00210209
C 28.22559438 23.56437639 2.89579141 0.00448910 0.00802824 0.00140339
C 25.25942085 26.47759796 6.40147028 -0.00150926 -0.00216511 0.00015103
C 28.38273933 23.48432175 7.63702051 0.00066046 -0.00859834 -0.00167132
C 25.56370808 26.55785834 11.30891302 0.00373304 -0.00036088 -0.00165525
C 28.49912988 23.39744261 12.44117500 0.00165620 0.00471082 -0.00358115
C 25.59224675 26.40186263 15.87984719 -0.00587331 0.00192177 0.00177282
C 28.70719382 23.26195851 17.29155011 -0.00320629 -0.00031054 -0.00576299
C 25.36790460 26.41480513 20.68075013 -0.00315063 0.00111558 -0.00109747
C 28.35357890 23.41502469 21.95761391 0.00668322 0.00652986 -0.00693936
N 0.31662664 4.11154683 1.25967405 -0.00341304 -0.00126698 0.00472802
N 3.78379098 5.28419436 3.67163207 0.00023445 -0.00179838 -0.00075054
N 5.51314882 2.47064236 0.92566406 0.00277888 0.00399542 -0.00023202
N 2.24831058 1.70074296 3.52637877 0.00551262 0.00088022 0.00301515
N 0.21841409 4.29980499 5.72112367 -0.00040447 -0.00107626 0.00296759
N 3.62893627 5.11025179 8.52890685 -0.00041208 0.00448794 -0.00384522
N 5.55214790 2.36578505 5.88787766 0.00527027 0.00167116 0.00211055
N 1.70823126 1.39753235 8.52128528 0.00216029 -0.00223183 0.00455359
N 0.40825067 4.56409043 10.39877122 0.00148594 -0.00553357 -0.00446237
N 3.42987071 5.30551356 13.07302318 0.00000252 0.00340850 -0.00265352
N 5.00150468 2.54037626 10.14004912 -0.00165207 -0.00381513 0.00042706
N 1.95886780 1.36456774 13.35604192 -0.00267537 -0.00467879 -0.00316983
N 0.30473560 4.32080351 15.10219486 -0.00146784 0.00825398 0.00398997
N 3.06497912 5.01376073 18.09889653 -0.00364663 0.00405920 0.00378479
N 5.23600419 2.34682847 15.05417396 -0.00319896 0.00699498 0.00136480
N 1.87035710 1.38680999 18.12553780 0.00162211 0.00465773 0.00656952
N 30.95443310 4.33281792 20.02469344 0.00158281 0.00356890 0.00009100
N 3.36502667 5.25054292 22.65119906 0.00097041 -0.00466468 0.00389116
N 5.37626219 2.22449622 20.12679623 -0.00409864 0.00702495 0.00378122
N 1.37512151 1.43749728 22.52490220 -0.00724162 -0.00526021 0.00646266
N 0.43834108 9.95979946 0.90591641 0.00147857 -0.00600435 -0.00231485
N 3.83311262 10.86007426 3.84069216 -0.00289793 -0.00268732 0.00342911
N 5.30350662 8.05790059 1.05512480 0.00696409 0.00303800 0.00054274
N 2.43753396 7.14582212 3.54002844 0.00290654 -0.00733001 -0.00014131
N 0.38461036 9.87759095 5.74235808 0.00198248 -0.00423438 0.00438757
N 3.99045115 10.49920503 8.33942158 0.00262025 -0.00023361 -0.00019841
N 5.76184041 8.03876335 5.54782550 -0.00267643 -0.00528980 0.00534257
N 2.55032070 7.21695829 8.34729345 0.00486467 0.00040368 -0.00325920
N 0.55353620 9.85104548 10.44728190 0.00566389 -0.00123234 0.00335615
N 3.95891530 10.99616496 13.13791014 0.00413923 0.00646173 -0.00139771
N 5.62423403 7.70253082 10.43914222 -0.00042041 0.00544775 -0.00689845
N 2.00088412 7.05470680 13.42216498 0.00554982 0.00033726 0.00220563
N 0.50574106 9.86773851 15.18016904 -0.00729602 0.00369701 0.00271134
N 3.74850829 10.85859840 18.01690309 -0.00063792 -0.00309040 0.00319619
N 5.45134268 7.98350490 15.01939127 -0.00435986 -0.00566542 -0.00194952
N 1.89184506 7.08691822 17.98062275 -0.00190600 -0.00087615 0.00825045
N 0.08255052 10.04488677 20.01925443 0.00269523 0.00104902 -0.00671262
N 3.85524294 11.09264205 22.76307215 -0.00508591 0.00145085 0.00507952
N 5.50936234 7.84798478 19.90103376 0.00343076 0.00513220 -0.00268108
N 2.09394769 7.28355193 22.64438238 0.00421816 0.00086816 -0.00037608
N 1.12036536 15.99851303 1.09986661 -0.00037376 -0.00655450 0.00551963
N 4.30797828 16.67845896 3.81785261 -0.00018761 0.00189313 -0.00333730
N 6.12690335 13.58085129 1.30979254 0.00529505 0.00344722 0.00529278
N 2.78245142 12.84977608 3.69282981 -0.00187228 -0.00038342 -0.00461659
N 1.19701446 15.47435779 5.86915273 -0.00250297 0.00320005 -0.00339182
N 4.27897657 16.61370631 8.47858433 0.00136523 0.00151029 -0.00079928
N 6.01654119 13.71186947 5.68299320 -0.00018839 -0.00222932 0.00319478
N 2.83820733 12.54309273 8.53406131 0.00070994 0.00111593 0.00686879
N 0.85190607 15.76989775 10.28067281 0.00309968 0.00260574 -0.00107120
N 4.19948813 16.58763738 13.44874229 0.00257123 0.00903924 -0.00611491
N 6.11414676 13.55395858 10.36855574 0.00010494 -0.00516816 -0.00259212
N 2.87177312 13.02496605 12.80206644 0.00392743 0.00111229 -0.00575161
N 0.88930814 15.62745991 15.23039263 -0.00235771 0.00474851 0.00694149
N 4.25166289 16.39394624 18.03885277 0.00016598 0.00490813 0.00118753
N 5.62820310 13.67784228 15.15767181 -0.00256925 -0.00451571 0.00589536
N 2.50711776 12.87879769 17.90237455 0.00152669 -0.00254683 -0.00209717
N 0.98257227 15.83358866 20.27255683 -0.00624619 0.00440978 -0.00321494
N 4.54400858 16.72809250 22.63675237 -0.00127236 0.00753615 0.00187065
N 5.71676619 13.15363747 19.91321443 -0.00104854 -0.00202417 0.00491311
N 2.36327092 12.90810504 22.72597795 0.00129596 -0.00265537 -0.00076630
N 1.22573889 21.46700002 0.91502678 -0.00620880 0.00129434 0.00005971
N 4.12748106 23.56674888 3.87171433 -0.00425010 0.00179224 0.00033720
N 5.24069467 20.27815418 0.86462319 0.00267564 0.00353482 0.00095186
N 2.78008110 18.45365053 3.66073697 0.00158066 0.00033149 0.00236069
N 1.33616368 21.43062641 5.75872888 0.00161691 -0.00050773 -0.00273032
N 4.10325719 23.35280852 8.65472766 -0.00008505 -0.00619985 -0.00226865
N 5.20542642 20.27222613 5.82258269 -0.00276798 0.00139877 -0.01046777
N 2.45350976 18.06292172 8.52571333 0.00243781 -0.00695285 -0.00550887
N 1.47975745 21.05908058 10.51953520 0.00313602 -0.00611009 0.00150719
N 4.15678251 23.50922590 13.22744805 0.00026971 -0.00323871 0.00704952
N 5.38267408 20.11381592 10.77390448 0.00495485 -0.00102797 0.00774701
N 2.60143844 18.26352886 13.26739723 -0.00825395 0.00359439 -0.00358794
N 1.63419624 21.09358565 15.12646374 0.00007415 0.00506748 0.00194469
N 3.85035375 23.54104801 17.94019722 0.00704275 0.00139231 0.00085307
N 5.37923160 20.28906935 15.42305781 -0.00882206 0.00041747 -0.00290751
N 2.81543978 18.10204442 18.06660012 0.00247871 0.00140639 0.00405577
N 1.40949805 21.19038092 19.81062231 -0.00237897 0.00278385 -0.00203229
N 3.83339872 23.60093955 22.78355579 -0.00146990 0.00237604 0.00041686
N 5.40550000 20.18722499 19.89099924 -0.00702974 0.00791402 -0.00204009
N 2.71194255 18.16656875 22.68212980 0.00503557 0.00344332 0.00588994
N 0.73217258 28.00184394 1.24340733 -0.00666947 0.00569240 0.00386720
N 3.46430501 29.88976211 3.95636225 -0.00183432 -0.00206001 0.00263121
N 4.44992840 27.31541878 0.94804332 0.00308716 -0.00529701 -0.00215292
N 2.37961257 25.05494934 3.70975734 -0.00635742 -0.00476430 0.00021968
N 0.88110385 28.12885901 5.92605153 -0.00667146 -0.00292777 -0.00516580
N 3.16403130 29.67337206 8.68814949 0.00638980 -0.00793297 0.00280854
N 4.98414065 26.56116103 6.04028517 -0.00130480 -0.00705471 -0.00383063
N 2.10337001 24.58912989 8.58168599 0.00055691 0.00552950 0.00281371
N 0.60172393 28.01660120 10.64432046 0.00607139 -0.00284322 0.00006154
N 3.34069351 29.57735426 13.27545336 -0.00335346 -0.00127143 0.00300772
N 4.54620965 26.87376514 10.45681932 -0.00306249 0.00154002 0.00300653
N 2.20717927 24.65256996 13.18180805 -0.00052904 0.00277898 -0.00066543
N 0.70635724 27.92909477 15.21495173 -0.00219773 0.00166893 0.00219150
N 3.54021601 29.84636352 18.04006858 -0.00434404 -0.00496990 0.00144216
N 4.99172596 26.73099213 15.02633779 0.00921571 0.00013476 0.00268478
N 2.03565774 24.82675985 18.07583022 0.00614053 0.00414416 -0.00712154
N 0.75473770 27.74963928 19.80995853 -0.00423112 -0.00150008 0.01606028
N 3.17854819 0.04386281 22.58503368 0.00113096 -0.00131356 -0.00177349
N 5.16713382 26.55870855 19.93230632 0.00188285 0.00193720 0.00211082
N 1.76594607 24.72822398 22.72755368 -0.00455794 0.00318957 -0.00314370
N 6.99404397 4.24104559 1.16954521 -0.00044160 -0.00388233 -0.00200858
N 10.16355124 4.87066029 3.64134185 -0.00221300 0.00370268 -0.00390295
N 11.93163750 2.18952835 0.90449121 0.00079908 -0.00353537 0.00106599
N 8.62947092 0.97837675 3.68925436 0.00504220 -0.00445009 -0.00131036
N 6.89101545 4.24033333 5.74438063 0.00210773 0.00213734 -0.00125360
N 10.25905039 4.88760804 8.37306631 -0.00757312 -0.00236444 0.00411260
N 12.03592625 1.76257135 5.76596470 -0.00290059 -0.00305699 -0.00202384
N 8.44656989 1.13674741 8.47590580 0.00198602 0.00170269 0.00673307
N 6.71559610 4.14449969 10.40331271 -0.00407918 0.00002683 0.00081875
N 10.15203931 4.93992048 13.08947853 -0.00043363 0.00688824 -0.00335611
N 12.03574389 1.72999075 10.48267751 0.00960457 0.00214968 0.00314483
N 8.26399244 1.05041633 13.17421501 0.00273564 -0.00072563 0.00567424
N 6.75222840 4.00216574 15.30616326 0.00380799 -0.00110174 -0.00084332
N 10.11828276 4.81710602 17.84164008 0.00308465 0.00052494 -0.00092497
N 11.60152203 1.91361571 15.02773360 0.00072584 -0.00271955 -0.00014550
N 8.44600417 1.33696638 17.98088018 0.00891167 -0.00009788 -0.00113475
N 6.72803409 4.12022616 19.68118128 0.00257477 -0.00872552 -0.00136896
N 10.29552277 5.22370311 22.46056611 -0.00204632 -0.00035423 0.00473361
N 11.72050573 1.94771807 19.60958230 -0.00030671 0.00637759 -0.00682019
N 8.53047216 1.28323546 22.75039347 -0.00364475 -0.00436818 0.00205731
N 6.97530465 9.57743866 0.88261988 0.00282091 0.00516121 -0.00065045
N 10.85797274 10.86154022 3.73405072 -0.00231844 0.00297772 -0.00375435
N 12.20114145 7.67567265 1.05004685 -0.00184586 -0.00835910 0.00490146
N 9.03032866 6.89887808 3.88100857 -0.00009301 0.00160916 -0.00030833
N 7.33039623 9.80050635 5.70522284 0.00138769 0.00895754 0.00361926
N 10.83376193 11.00846831 8.45764216 0.00231758 0.00493761 -0.00244315
N 12.42123412 7.66126937 5.78298930 0.00024192 0.00133891 -0.00175389
N 8.96030967 6.77238453 8.44204664 -0.00417541 0.00332038 0.00239649
N 7.20038245 9.44738884 10.23568065 -0.00333565 -0.00287625 -0.00310732
N 10.39147110 10.46636986 13.32208431 0.00192713 -0.00362039 -0.01054112
N 12.09062530 7.49973346 10.50898280 0.00456249 0.00991867 0.00276296
N 8.86808189 6.78628616 13.13601352 -0.00323291 -0.00028999 0.00016215
N 7.08120371 9.57264464 15.37601449 0.00056114 -0.00080187 0.00275302
N 10.53205872 10.43911727 17.81868009 0.00275250 -0.00018607 -0.00160063
N 12.20567070 7.45792695 15.00891987 -0.00515459 -0.00198493 0.00381536
N 8.78704589 6.68108372 17.73835670 0.00506186 -0.00294428 0.00011083
N 7.17159708 9.48245759 19.75316542 -0.00472542 0.00292372 0.00480476
N 10.66637021 10.50384529 22.35725009 -0.00408039 -0.00401171 -0.00668266
N 12.23660516 7.56010879 20.04609348 0.00138054 -0.00376698 -0.00088083
N 8.86227085 6.91300797 22.49652749 0.00156239 -0.00408660 -0.00035867
N 7.52469220 15.44909693 0.98633631 0.00157105 -0.00528143 -0.00596727
N 10.35558203 17.80708133 3.69581545 -0.00345771 0.00466319 0.00753072
N 11.58461876 14.37412961 1.14815340 0.00162938 0.00377507 -0.00136446
N 9.04261361 12.32524894 3.81483010 -0.00101465 0.00041048 0.00183270
N 7.46577265 15.56801681 5.74325134 0.00884874 0.00515614 0.00254216
N 10.12477400 17.60121153 8.26747408 -0.00279865 -0.00059610 0.00244426
N 11.65705281 14.76279391 5.63337217 -0.00078184 0.00338267 0.00297869
N 9.04048997 12.35923907 8.55386147 -0.00198354 -0.00811883 0.00759384
N 7.68816276 15.17473109 10.40988502 -0.00051378 0.00242850 0.00129407
N 10.11327028 17.41781494 13.19501089 0.00477335 0.00022981 0.00058048
N 11.56337012 14.36060847 10.43595150 -0.00003840 -0.00052703 -0.01159240
N 9.06493440 12.22266501 13.15222548 0.00798312 -0.00093720 -0.00259536
N 7.45075670 15.05054403 14.97747114 0.00053401 0.00537244 0.00199028
N 10.17215393 17.29540679 17.75470165 0.00265503 0.00064342 0.00187922
N 11.75179098 14.02067156 15.14774494 -0.00084358 -0.00407995 -0.00013540
N 9.05645048 12.22559097 17.77974584 0.00259800 0.00420023 -0.00442655
N 7.43319201 14.66707655 19.61172132 0.00885691 -0.00342054 -0.00641920
N 10.24383559 17.41020127 22.37597279 -0.00000548 -0.00013108 -0.00193728
N 11.43011289 14.09567882 19.67227171 -0.00258720 -0.00027319 -0.00383152
N 9.18528452 12.18044944 22.56233109 0.00243882 -0.00074613 0.00639591
N 6.84734070 21.85824956 0.88941651 -0.00190470 0.00177613 0.00537648
N 9.24719622 23.68917351 3.55701348 -0.00819052 0.00405094 0.00192727
N 11.01662619 20.69358610 0.90921327 0.00036805 -0.00466863 -0.00426780
N 8.14107091 18.58135900 3.66512731 0.00386668 -0.00458647 0.00263243
N 6.64088307 22.02411940 5.75267942 0.00207488 0.00135522 0.01056566