2000
Time=12000.00000000 pbc="T T T" Lattice="31.14468456 0.00000000 0.00000000 0.00000000 29.98865321 0.00000000 0.00000000 0.00000000 23.61332791" energy=-12042.35028279 virial="-35.41771348 -13.83463271 14.28420459 -13.83463271 -42.91722161 17.24983118 14.28420459 17.24983118 20.45205551" stress="0.00035760 -0.00066235 0.00068204 -0.00066235 0.00012950 0.00083552 0.00068204 0.00083552 0.00428294" Properties=species:S:1:pos:R:3:vel:R:3
C 30.52355239 3.56507218 1.70975200 -0.00087253 0.00735071 -0.00535233
C 2.27852361 0.36547173 2.92583792 0.00283382 -0.00076898 0.00418416
C 30.46133814 3.74134637 6.39272924 0.00553881 0.00113278 0.00071972
C 2.49981529 0.41291477 7.65131021 0.00063579 0.00121992 0.00234882
C 30.51169668 3.71713177 11.11963270 0.00210075 0.00330426 0.00570609
C 2.66764808 0.46654366 12.20136931 -0.00300160 0.00109204 -0.00036338
C 30.54831297 3.55419947 15.60878387 0.00442035 0.00605309 -0.00244846
C 2.51841015 0.63327759 17.00522327 0.00155371 0.00182517 0.00197078
C 30.48744477 3.59338617 20.65182317 0.00293985 -0.00064924 -0.00109288
C 2.63021774 0.57292479 21.83690066 -0.00037112 -0.00148483 -0.00093873
C 30.77854605 9.21280857 1.67408172 -0.00810609 -0.00373289 0.00689686
C 2.77633849 6.10224533 3.11131830 -0.00322205 -0.01094469 0.00104139
C 0.19469785 9.52363484 6.53938473 0.00244409 0.00240856 0.00168270
C 2.95013328 5.98440337 7.81272450 -0.00757863 0.00066521 -0.00169798
C 31.10861918 9.11323466 11.30484751 0.00678834 0.00245566 0.00580929
C 3.03208775 6.16557630 12.55969664 0.00091818 -0.00383217 -0.00502762
C 31.06056857 9.14459675 15.79372448 0.00342539 0.00100256 0.00377241
C 2.95470034 6.27033776 17.07975479 -0.00111849 0.00113643 0.00431423
C 30.91995084 9.20735297 20.50396955 0.00365557 0.00105814 -0.00222446
C 2.84133340 6.08049154 21.75476353 0.00261770 -0.00089625 -0.00292642
C 0.13873835 14.95100543 1.61257619 0.00286663 0.00437547 -0.00210622
C 3.35871891 11.79529078 2.99842369 -0.00743060 -0.00209204 -0.00380331
C 0.30554269 14.80839277 6.41077613 0.00492296 -0.00398952 -0.00224681
C 3.25409279 11.68921160 7.86289358 0.00349524 0.00202957 -0.00281769
C 0.11576008 14.80990080 11.25889844 0.00075260 -0.00027577 -0.00163290
C 3.55440984 11.90492682 12.51196179 0.00496548 0.00243154 -0.00160806
C 31.13594748 14.59883703 15.87779936 0.00171952 0.00220817 -0.00223044
C 3.31782693 11.80755352 17.10048906 0.00335772 -0.00357455 0.00174784
C 0.25643813 14.92858093 20.58904353 0.00040315 0.00742384 -0.00577969
C 3.33303934 11.99080652 21.79734902 0.00200215 0.00001020 0.00458202
C 0.47675676 20.29972461 1.79254837 0.00375074 0.00249969 -0.00252538
C 3.72500761 17.46041251 3.10877693 0.00607621 0.00419017 -0.00231464
C 0.83338352 20.59894744 6.41454542 -0.00839621 -0.00055997 0.00391855
C 3.87083867 17.42480370 7.78590296 0.00282647 -0.00507905 0.00638695
C 0.60640484 20.57965235 11.25466016 0.00282876 0.00498172 0.00641229
C 3.70794711 17.33685758 12.48283254 0.00198523 0.00106284 0.00621282
C 0.56507269 20.56505604 15.88779008 -0.00023163 0.00027118 -0.00334557
C 3.77391901 17.48086323 17.17179513 -0.01067954 -0.00291491 0.00441982
C 0.64093261 20.59569049 20.71654979 -0.00240860 -0.00499674 0.00009843
C 3.76465620 17.24211574 21.92828923 0.00153299 0.00065965 0.00197579
C 30.97461691 27.09222832 1.69887652 0.00429397 0.00028210 -0.00701695
C 3.15844711 23.93077323 2.95105687 0.00218612 0.00941885 -0.00132360
C 0.02943629 26.80195260 6.41325856 -0.00023951 -0.00198536 0.00058019
C 3.03907168 23.85990941 7.67689758 0.00020712 0.00031397 0.00093302
C 0.17160313 27.14688021 11.15840282 -0.00222622 -0.00092935 0.01061408
C 3.02300013 24.27523971 12.41459328 0.00280835 0.00316019 0.00646938
C 0.00529290 27.13269458 15.93643960 -0.00017399 -0.00048628 -0.00096454
C 2.90107524 24.09976596 17.24783462 -0.00112136 -0.00000485 0.00492702
C 30.99139046 27.02784599 20.64135325 -0.00462485 -0.00357332 0.00233164
C 2.87698335 24.00640687 21.96842006 0.00231652 -0.00049205 -0.00100960
C 5.79726139 3.07035812 1.80380980 -0.00062145 0.00582014 -0.00652085
C 9.04014708 29.75856390 2.95460108 0.00386622 -0.00066599 0.00018063
C 6.14099488 3.02531936 6.56055672 -0.00212555 -0.00604208 -0.00228115
C 9.09483476 0.22659385 7.70918030 0.00301239 -0.00125209 -0.00039060
C 6.06093507 3.00971681 11.15339294 0.01181587 0.00554729 0.00346829
C 9.12937585 0.16938357 12.42245814 0.00019140 -0.00225065 -0.00235183
C 5.94220316 3.09302534 15.89662341 -0.00484236 -0.00075125 0.00921017
C 8.88972835 29.97334182 17.12807656 -0.00423411 0.00655073 0.00667772
C 6.01763420 3.11096051 20.67709301 0.00171388 -0.00642834 0.00412081
C 8.94149163 29.90228682 21.91876679 -0.00376807 0.00252097 0.00251005
C 6.12458068 8.61576030 1.74888888 -0.00125685 -0.00493738 0.00177466
C 9.12792020 5.80957334 3.12903090 0.00125762 0.00643312 0.00587100
C 6.20395017 8.66581649 6.44699265 0.00574328 0.00367717 0.00266575
C 9.42201030 5.64735403 7.74506470 0.00627938 0.00424457 0.00097844
C 6.50758562 8.49257578 11.22785541 -0.00081024 -0.00852648 0.00221358
C 9.55741128 5.64693404 12.54908450 -0.00386754 0.00437907 0.00415851
C 6.33297787 8.72273895 15.97979827 -0.00036604 0.00053129 0.00079142
C 9.34718658 5.89998518 17.23195336 0.00240310 -0.00371338 -0.00026025
C 6.27593121 8.59716281 20.74814249 0.00453526 -0.00207391 0.00419466
C 9.56099075 5.67124338 22.02843516 0.00252803 -0.00213356 -0.00194833
C 6.95244926 14.41792705 1.84035243 -0.00069819 -0.00234359 -0.00524401
C 9.82618774 11.35723032 3.12369016 0.00049601 -0.00542378 -0.00659355
C 7.04019721 14.29608239 6.42484837 -0.00953744 -0.00125745 -0.00146009
C 9.97261655 11.55146762 7.78235124 -0.00190222 -0.00113149 0.00900505
C 6.75866234 14.29148602 11.11646614 -0.00030009 -0.00055233 -0.00242120
C 9.71784189 11.26792395 12.51153907 -0.00029060 0.00074735 -0.00252889
C 6.77213092 14.39794309 15.98972167 -0.00305569 -0.00263840 0.00109533
C 9.87325769 11.45250182 17.28505992 0.00136949 0.01060660 0.00913650
C 6.91034337 14.54013474 20.56687936 0.00645560 -0.00386055 0.00218542
C 9.98521566 11.43348630 21.92164524 -0.00111379 0.00145508 -0.00061622
C 6.13129005 21.10188215 1.71556237 -0.00007950 -0.00574485 -0.00021100
C 9.40808656 17.83899073 3.08010687 -0.00919038 0.00073808 -0.00396242
C 6.20693030 20.99489672 6.60359950 -0.00551386 0.00217890 -0.00091834
C 9.38342109 18.00342091 7.82864549 0.00097503 -0.00954044 -0.00016132
C 6.10463851 21.14293471 11.16185304 0.00065295 -0.00298237 -0.00600961
C 9.15147897 18.00219441 12.60503464 0.00215909 -0.00123618 -0.00259891
C 6.12546986 20.94475836 16.07134936 -0.00365483 -0.00690849 0.00061620
C 9.31630893 17.87251696 17.45778544 -0.00644996 -0.00419778 0.00657694
C 6.09022695 21.24370231 20.69615823 -0.00174475 -0.00335709 0.00294381
C 9.28172819 18.06050196 21.95888201 0.00535560 0.00220962 0.00131809
C 5.41266924 27.28466370 1.72300043 0.00018888 0.00070314 0.00547189
C 8.92571341 24.44221326 2.97135508 -0.00210666 -0.00052546 -0.00146608
C 5.66730466 27.50238104 6.38706231 0.00390289 0.00290398 -0.00234653
C 8.83609788 24.55874391 7.74149319 -0.00172664 -0.00279126 -0.00209239
C 5.66675151 27.56756095 11.16649750 -0.00029728 0.00101476 0.00320406
C 8.74181041 24.38367439 12.38966640 -0.00030027 0.00255161 0.00457024
C 5.57410703 27.70193385 15.67228043 -0.00326829 -0.00278774 -0.00529182
C 8.87943373 24.49034888 17.22857221 -0.00347123 -0.00055196 0.00369287
C 5.56793445 27.39903827 20.49277667 0.00489311 -0.00186263 -0.00509786
C 8.66928335 24.52283104 21.88557397 -0.00034695 -0.00240178 0.00078214
C 12.49981844 2.55916429 1.60377783 -0.00355735 0.00430735 0.00072822
C 15.82585900 29.89135985 3.11722337 0.00516623 -0.00894915 -0.00551963
C 12.45565340 2.70863752 6.40840467 -0.00260310 0.00296155 -0.00136662
C 15.56335363 29.73770311 7.79370237 0.00279164 0.00090566 -0.00140719
C 12.73946547 2.83399104 11.07399534 -0.00849752 0.00717516 -0.00631964
C 15.82076792 29.75815927 12.64963228 -0.00153557 -0.00129831 -0.00435096
C 12.53190953 2.90768044 15.83210901 0.00279015 -0.00130697 -0.00045296
C 15.69753246 29.56954977 17.27542019 0.00162138 0.00047977 0.00438114
C 12.48416664 2.67984962 20.48756748 -0.00275149 0.00193078 -0.00315247
C 15.90036825 29.90077588 21.92384276 -0.00177370 -0.00311106 -0.00261893
C 13.13596089 8.37647298 1.70841633 0.00213502 0.00414840 0.00763119
C 15.88834381 5.24037462 2.99750539 -0.00070543 0.00336744 0.00183025
C 13.15173967 8.57339179 6.52884891 0.00054104 0.00036458 0.00226616
C 16.09377560 5.41965273 7.71280607 -0.00409107 -0.00093819 0.00357134
C 13.07134958 8.22986739 11.08330079 0.00737650 -0.00293622 0.00212397
C 16.14252423 5.41023205 12.52536434 -0.00411776 0.00083697 -0.00656616
C 13.25672679 8.44975652 15.74308278 0.00179260 0.00261799 -0.00408325
C 16.35874173 5.51219366 16.94377388 0.00039863 -0.00425035 -0.00214936
C 13.10594717 8.40131828 20.40376881 0.01135657 0.00220830 -0.00278378
C 16.18858908 5.67958631 21.85471517 0.00339485 0.00121021 0.00165105
C 12.49697592 14.95884444 1.54417220 0.00776456 0.00249582 0.00790337
C 15.53760127 11.80511185 2.87894974 0.00064535 0.00226252 0.00310219
C 12.76355529 14.81523588 6.36853262 -0.00058355 -0.00222563 0.00355546
C 15.66993269 12.09506304 7.68112828 0.00291815 -0.00533789 0.00497440
C 12.65547220 15.12676312 11.21434688 0.00504269 0.00212403 -0.00310159
C 15.45110691 11.97490123 12.33370198 0.00761431 -0.00188881 -0.00380617
C 12.33219985 15.08733376 15.87796823 -0.00646889 0.00653760 0.00082271
C 15.64963941 12.03113316 17.02317479 0.00824878 0.00022201 -0.00476813
C 12.58497375 14.84909688 20.58201187 -0.00230944 0.00029526 -0.00203207
C 15.60026838 11.99198369 21.77053997 0.00213586 0.01230384 -0.00080115
C 11.95058885 21.59452904 1.84014062 0.00028792 0.00475788 -0.00580135
C 15.01997940 18.65018648 3.03108026 0.00890803 0.00080481 -0.00863442
C 11.79324003 21.35914152 6.35944713 0.00182570 0.00239558 0.00202603
C 15.02368001 18.37778452 7.68814161 0.00693651 -0.00483074 0.00380180
C 11.94051669 21.64158444 11.05830505 -0.00658706 0.00320836 0.00238491
C 14.95902719 18.69932667 12.34612500 0.00285980 -0.00088074 0.00752320
C 11.68851503 21.78789750 15.71786684 0.00316707 -0.00838127 -0.00155610
C 15.10705809 18.67414418 17.02468510 0.00608304 -0.00524483 -0.00141389
C 11.83713285 21.71319662 20.48844845 -0.00732766 0.00493777 0.00108791
C 15.11280342 18.46230611 21.84015287 0.00816355 -0.00117173 -0.00124726
C 12.31974752 26.91468315 1.66522302 0.00134507 -0.00135580 -0.00051136
C 15.45338593 24.16352816 3.15162864 -0.00622797 -0.00138989 -0.00309671
C 12.44045344 27.08134773 6.44886785 -0.00233660 -0.00680465 -0.00061135
C 15.44046185 24.10692818 7.81931587 -0.00005535 -0.00165420 0.00498591
C 12.26018594 27.17412777 11.18042282 -0.00005134 -0.00710623 0.00080913
C 15.34357851 24.34321306 12.39528560 0.00208841 -0.00273527 -0.00621383
C 12.22062973 27.27342279 15.80084460 0.00119395 -0.00467767 -0.00116212
C 15.37495384 24.18732575 17.09916761 -0.00294673 -0.00407404 -0.00282791
C 12.27271446 27.15526685 20.59906920 0.00447098 -0.00076821 0.00232393
C 15.32730464 24.08269389 21.92593021 0.00366167 -0.00676309 0.00620586
C 19.08997667 2.45184074 1.86889890 -0.00064345 0.00488118 0.00140234
C 22.49865270 29.56966649 2.98154603 -0.00074333 0.00140138 -0.00237002
C 19.23658394 2.43076272 6.40278072 -0.00219335 0.00786620 0.00041091
C 22.38844120 29.59865888 7.83731141 0.00303781 0.00203185 -0.00141524
C 19.20480164 2.61934892 11.17424419 0.00071948 0.00216651 0.00063636
C 22.34569082 29.56022019 12.53217405 -0.00643355 0.00242398 -0.00121232
C 19.42814922 2.45832498 15.87252940 0.00162209 -0.00099096 0.00313186
C 22.57490716 29.38705050 17.11896978 0.00785655 0.00172449 -0.00416026
C 19.39068802 2.45294050 20.51826701 -0.00271787 0.00573593 0.00113268
C 22.31309760 29.58271504 21.89840564 0.00191393 -0.00014547 -0.00394960
C 18.77193646 8.83292122 1.77166246 -0.00020616 -0.00600245 -0.00318557
C 21.94056421 5.96242154 3.08852863 -0.00051586 -0.00267705 0.00104401
C 18.63437841 8.97791332 6.47396426 -0.00191183 -0.00225148 0.00394998
C 21.90333233 6.05060701 7.73900494 0.00619082 0.00637549 0.00051109
C 18.60568448 9.08633373 11.20603889 -0.00522309 -0.00128953 0.00363115
C 21.93395972 6.17214632 12.36171961 -0.00067115 0.00022581 0.00569235
C 18.78042872 9.00376072 15.90218172 -0.00163412 0.00463580 -0.00474625
C 21.79868552 5.98960874 16.97260319 0.00287152 0.00390254 0.00371629
C 18.64274127 8.83923813 20.57405478 -0.00209423 -0.00012230 0.00358474
C 22.04459407 5.69275843 21.96880436 -0.00267110 -0.00012401 0.00091913
C 18.06344149 15.51978149 1.66555187 -0.00244273 0.00048277 0.00075143
C 20.96170680 12.52187570 3.11821928 0.00853077 -0.00643414 -0.00054714
C 18.17929025 15.54181522 6.43984221 -0.00017097 0.00480892 0.00280497
C 21.09435390 12.45030248 7.74941685 -0.00140440 0.00354017 0.01151545
C 18.02579226 15.71018478 11.21270327 -0.00316192 -0.00311758 0.00205091
C 21.14632388 12.56504664 12.55329084 0.00177145 -0.00683399 0.00157597
C 17.92548799 15.73786949 15.87223923 -0.00057194 0.00553398 0.00411960
C 21.13691830 12.51836519 17.27163154 0.00091041 0.00256706 -0.00408204
C 18.06618926 15.50019113 20.47378674 -0.00506862 0.00752021 -0.00490683
C 21.18393266 12.53216443 21.87499348 -0.00354987 0.00178969 0.00478106
C 18.67882404 21.20098401 1.71848878 0.00057555 -0.00144781 0.00075993
C 21.56111161 18.20681611 3.01851860 -0.00143215 0.00573093 -0.00049031
C 18.52146781 21.14777978 6.47224268 0.00142871 -0.00909653 0.00408391
C 21.60257874 17.98860431 7.73945781 0.00030406 0.00327955 0.00496106
C 18.44224764 21.14700866 11.00274919 -0.00384961 0.00050850 0.00356633
C 21.66792889 18.12950363 12.60888598 -0.00697824 -0.00230426 -0.00224169
C 18.49759470 21.38501621 15.61923055 0.00248633 0.00185563 0.00109953
C 21.68684350 18.27479954 17.26521163 -0.00778957 -0.00446342 0.00274026
C 18.54745137 21.15863186 20.31173330 -0.00141236 0.00485344 0.00366546
C 21.52433163 18.21449302 21.94789692 -0.00358195 -0.00209044 -0.00939199
C 18.90091720 26.87211639 1.58005754 0.00231008 0.00923363 0.00326384
C 21.91891612 24.00978490 3.03995108 -0.01007873 -0.00191395 -0.00427602
C 18.82514481 26.84513068 6.51684499 -0.00007942 -0.00289140 0.00998354
C 21.98968172 23.87034399 7.75803199 -0.00150864 0.00105174 0.00221195
C 18.87145606 26.77337700 11.20392876 0.00879376 0.00392743 0.00036632
C 22.09372382 23.74869154 12.39861301 0.00508878 -0.00651528 -0.00115770
C 18.98812534 26.68502529 15.85050757 -0.00095875 0.00370169 -0.00238344
C 22.09463730 23.82152735 17.13333733 -0.00072119 -0.00138898 -0.00670865
C 18.82595086 26.77015603 20.66713728 -0.00419194 0.00143378 0.00242600
C 21.85795172 23.80971825 21.91949681 -0.00599073 0.00133321 0.01638298
C 25.12497548 2.90386034 1.67108485 -0.00799741 -0.00442951 -0.00916783
C 28.11170835 0.01842035 2.91461941 -0.00164905 0.00254688 0.00491085
C 25.14947466 3.19971217 6.56363227 0.00548403 0.00818922 0.00385750
C 27.90236616 29.97034531 7.69262586 0.00028781 -0.00071775 -0.00675300
C 25.20999746 2.97401653 11.12175246 0.00465761 -0.00126910 0.00741033
C 28.08317392 29.88216794 12.40239592 0.00394752 0.00335490 -0.00409254
C 24.90924837 3.25878969 15.79213889 -0.00185965 0.00230250 -0.00325375
C 27.90029898 0.11024115 17.07522764 -0.00774516 0.00074939 0.00134538
C 24.99033282 2.93506240 20.61776016 0.00104621 -0.00671705 -0.00223795
C 28.15893101 0.00473800 21.79250703 0.00124842 -0.00378649 0.00109451
C 24.26573504 9.61342910 1.57215159 -0.00375915 -0.00156044 -0.00470462
C 27.49213191 6.58116540 3.02002695 -0.00116593 0.00116555 0.00543070
C 24.39351620 9.66321569 6.43283316 0.00396418 0.00014907 0.00107182
C 27.52374369 6.71314054 7.74269617 0.00613071 0.00527211 0.00161245
C 24.31449998 9.57261276 11.23791968 -0.00069384 0.00193452 0.00337262
C 27.32561528 6.47984224 12.46142195 0.00292315 0.00472587 -0.00452964
C 24.35829941 9.56559557 16.02944217 0.00324951 -0.00288810 -0.00037896
C 27.92286364 6.55905896 17.07077368 0.00137364 -0.00255441 0.00125642
C 24.56173863 9.69700675 20.64975208 -0.00237140 -0.00899533 0.00889154
C 27.65152720 6.74451012 21.98543899 0.00331754 0.00073043 0.00370861
C 24.71320154 15.20723644 1.72510906 0.00141036 -0.00346288 -0.00008668
C 27.67586474 12.38880554 3.13502013 -0.00124109 -0.00000577 -0.00219883
C 24.81193116 15.12564750 6.60153268 0.00761274 0.00560627 0.00094285
C 27.86226143 12.13085220 7.85533388 0.00297176 0.01068555 -0.00024945
C 24.59887979 15.22329543 11.12295055 -0.00122981 -0.00354677 -0.00115760
C 27.84763672 11.99766637 12.46458699 -0.00063500 -0.00015160 0.00381846
C 24.85542947 15.30628881 15.97470482 0.00731795 -0.00082871 -0.00017038
C 27.74306141 12.07578871 17.21555539 0.00380146 0.00451211 0.00051187
C 24.63064021 15.10257495 20.61323771 -0.00029154 0.00279952 0.00302512
C 27.99558704 12.33812862 22.03007725 0.00402329 -0.00084842 -0.00030418
C 24.92408311 20.86879380 1.79586403 0.00020287 -0.00067587 -0.00034306
C 28.17952173 18.05022422 3.17394205 0.00213750 -0.00031148 0.00244069
C 25.13312856 20.78360822 6.31719321 0.00404453 0.00136515 -0.01061526
C 28.36348438 18.06567954 7.60299146 0.00058452 -0.00271096 0.00140431
C 25.27143920 20.84126300 11.07985663 -0.00127049 0.00839341 -0.00117399
C 28.19014395 17.57140529 12.52032208 -0.00227041 -0.00010371 0.00530231
C 25.19571119 20.90080039 15.79416785 0.00165600 0.00292700 -0.00197655
C 28.32976492 17.98103985 17.24473609 0.00544130 -0.00628608 0.00373171
C 25.09054711 20.79347567 20.32384982 -0.00767774 0.00116082 0.00023377
C 28.14798746 18.06674201 21.88669076 0.00278849 0.00235713 -0.00040482
C 25.24383389 26.60485006 1.74773859 0.00434863 -0.00285559 -0.01134608
C 28.44716477 23.45452973 2.94387078 0.00137154 -0.00491059 0.00529794
C 25.65528116 26.44626895 6.60188185 -0.00149470 0.00298121 0.00523311
C 28.65978046 23.68621018 7.84687821 -0.00132543 -0.00327802 0.00924607
C 25.43534428 26.32782233 11.13620380 -0.00114286 -0.00378899 -0.00042368
C 28.64160267 23.61846969 12.49555576 0.00300670 -0.00186539 -0.00075204
C 25.50489461 26.33655898 15.78680242 0.00562025 -0.00204442 -0.00099878
C 28.68506417 23.48923522 17.14118939 0.00497528 0.00050622 0.00216908
C 25.46734117 26.26110532 20.70601413 -0.00313467 0.00250444 -0.00035353
C 28.27946954 23.40452870 21.81817226 0.00058954 -0.00286836 -0.00244676
N 0.17604273 4.40981801 0.99420232 -0.00031326 -0.00639244 -0.00443876
N 3.32191029 5.05712248 3.78959782 -0.00667414 -0.00410453 -0.00005604
N 5.21635628 2.14745203 0.98613484 -0.00013368 0.00502898 -0.00277028
N 1.65945489 1.24963221 3.75449422 0.00084564 0.00338792 0.00051172
N 0.15378822 4.56808295 5.64863430 -0.00184700 -0.00260514 0.00584944
N 3.58407163 4.98957054 8.53937306 -0.00002103 0.00088879 0.00234279
N 5.23780804 2.32719368 5.87747274 0.00060693 -0.00161898 0.00229828
N 1.79524833 1.37562367 8.31943347 0.00673309 -0.00033409 0.00182446
N 0.30534457 4.52905381 10.50870870 -0.00010764 0.00286171 0.00632577
N 3.64375756 5.20350045 13.27444867 0.00465343 0.00013719 0.00615080
N 5.40428819 2.24693959 10.34795335 0.00396416 -0.00554984 -0.00287745
N 1.79750927 1.26755351 12.84283506 0.00387381 -0.00370861 0.00471629
N 0.29413017 4.37036312 14.97706416 0.00159228 -0.00150410 -0.00504573
N 3.54734897 5.14020009 17.65264006 -0.00372511 0.00413111 -0.00176051
N 5.13469952 2.36441706 15.09974750 -0.00261690 -0.00502087 -0.00347595
N 1.60299618 1.16886234 17.82611017 -0.00053011 0.00391195 -0.00560413
N 0.25920551 4.42888921 19.99071408 0.00416899 0.00169189 0.00073942
N 3.46946947 5.13139125 22.44599796 -0.00084319 -0.00147648 -0.00009067
N 5.31279011 2.21424984 19.87541773 -0.00579811 -0.00086602 0.00226491
N 1.81395854 1.47539119 22.44123833 0.00285458 0.00331763 -0.00322441
N 0.62568795 10.11039046 1.19486018 0.00035105 -0.00053434 0.00144320
N 4.04960627 10.81412720 3.68954256 0.00101637 -0.00242848 -0.00422054
N 5.23891167 7.84886937 1.05653483 0.00195345 -0.00013470 0.00342866
N 2.35921995 7.08048935 3.91596839 0.00447190 -0.00033603 0.00083123
N 0.95565730 10.39156628 5.75891851 0.00326100 -0.00109033 0.00970814
N 3.86996210 10.64228810 8.47302792 0.00447230 0.00160709 0.00110474
N 5.50854249 7.83468606 5.56401582 0.00302844 -0.00128902 0.00193373
N 2.37510947 7.02799617 8.54373933 0.00187263 -0.00027516 0.00072474
N 0.69112311 10.00518124 10.56247203 -0.00252008 -0.00319032 -0.00229543
N 4.16324466 10.90910362 13.21977560 0.00087100 -0.00412712 -0.00290134
N 5.73767090 7.58408363 10.59546506 0.00515490 0.00200270 0.00113173
N 2.41690281 7.20684674 13.24730665 -0.00167261 -0.00217470 -0.00532614
N 0.71211478 10.04351408 15.10736489 -0.00286070 0.00064888 0.00406054
N 3.88113163 10.99381161 18.00096207 0.00146871 -0.00248172 0.00654250
N 5.61216832 7.97900285 15.13651790 -0.00543094 -0.00301919 -0.00017836
N 2.37811419 7.17765307 17.87086285 0.00119738 0.00138951 0.00054450
N 0.62908386 10.17947965 19.93875772 0.00031215 -0.00562870 -0.00054166
N 3.83629741 11.00482843 22.61283468 0.00188852 0.00233863 0.00025314
N 5.59868468 7.68972265 19.98187025 0.00099682 0.00647594 0.00054085
N 2.09187785 6.97583229 22.46779636 -0.00151933 0.00404647 0.01013529
N 0.97744712 15.66837079 0.86523612 -0.00552301 0.00318797 -0.01031761
N 4.61091514 16.67658084 3.80956338 0.00654125 0.00070553 -0.00014303
N 6.20309076 13.59400656 1.08418441 -0.00092151 0.00064393 -0.00156966
N 2.80222251 12.84518814 3.71505554 -0.00447758 0.00012799 0.00150732
N 0.94665675 15.71247898 5.65971165 -0.00054780 0.00050828 -0.00396607
N 4.58899463 16.52353901 8.49840301 -0.00058087 0.00485712 -0.00235913
N 6.11200426 13.56789657 5.81764237 0.00121899 -0.00056181 -0.00194200
N 2.65214793 12.59141903 8.63175233 -0.00312769 0.00238742 0.00049676
N 0.95187890 15.61445745 10.58785760 0.00223952 0.00050704 0.00914000
N 4.50783803 16.51155425 13.20489622 -0.01408614 0.00086733 -0.00152323
N 6.11264157 13.39735440 10.35470034 0.00119796 0.00862982 0.00021190
N 2.87668823 12.87345796 13.21485384 -0.00154394 0.00050761 -0.00266473
N 0.72168069 15.56804677 15.25071773 0.00388488 0.00020424 -0.00091158
N 4.30849377 16.53079996 17.97810022 0.00221948 -0.00131619 0.00097785
N 6.11642983 13.51715681 15.19450818 -0.00251661 0.00094830 0.00142966
N 2.60806269 12.86060533 17.57759050 0.00254179 0.00163257 -0.00314469
N 0.81200642 15.94031819 19.80362016 0.00010781 0.00307998 0.00095809
N 4.65900441 16.65520236 22.84520453 -0.00413010 -0.00591778 -0.00230215
N 6.07479958 13.69361892 19.86966584 0.00441808 -0.00268609 -0.00461412
N 2.92560728 13.07503021 22.41163839 0.00205803 0.00220743 -0.00378425
N 1.31621727 21.12022924 1.16555200 0.00113001 0.00195692 0.00457297
N 4.06617244 23.28358553 3.63845615 0.00102348 -0.00015727 0.00238993
N 5.43095079 20.16167409 1.02339971 0.00091140 -0.00182683 0.00330784
N 2.84568297 18.22043553 3.84097800 0.00159330 -0.00533889 0.00398885
N 1.47768577 21.41190432 5.55417524 -0.00297919 0.00500841 -0.00311515
N 4.07431971 23.39551522 8.40667946 -0.00139601 0.00475688 0.00422363
N 5.35195471 20.29125226 5.81104760 0.00348296 0.00284156 -0.00222940
N 2.91950694 18.10414351 8.54283975 0.00581285 -0.00744459 0.00119091
N 1.37192191 21.55092631 10.67613935 -0.00513858 -0.00351542 -0.00390383
N 3.95946694 23.69634377 13.19399845 0.00256903 -0.00402053 -0.00848355
N 5.44311762 20.15635424 10.47256373 -0.00119415 -0.00432216 -0.00513746
N 2.93301575 18.22478795 13.16740057 0.00095552 0.00001976 -0.00404801
N 1.40012232 21.27325180 15.09882423 0.00036903 0.00023464 -0.00343159
N 4.03895638 23.55127374 17.81509337 -0.00027225 0.00021127 -0.00248422
N 5.26460421 20.24830338 15.25208416 0.00083161 0.00071080 -0.00395148
N 2.92025598 18.34973482 17.73511542 0.00049492 -0.00380939 0.00103814
N 1.59300599 21.26836468 20.07843370 0.00036242 -0.00069865 0.00452154
N 3.84032179 23.41615143 22.68182573 -0.00152031 -0.00402611 -0.00119688
N 5.36575416 20.32032295 20.06169778 0.00372751 -0.00031332 0.00407010
N 2.86956843 18.12679191 22.48244265 0.00131828 0.00664855 -0.00101128
N 0.70872565 27.91649063 1.06143578 0.00144608 -0.00854838 -0.00015495
N 3.19464571 29.50047782 3.56549690 0.00165728 0.00273530 0.00279990
N 4.68359710 26.54698613 0.92641931 0.00250623 0.00397635 0.00334602
N 2.15198869 24.49563287 3.63644521 0.00015851 -0.00121193 0.00011920
N 0.69327096 27.68552522 5.57592948 0.00114252 -0.00277021 -0.00147887
N 3.37093823 29.61814667 8.35178817 0.00492481 0.00427996 0.00494628
N 4.92062475 26.65392202 5.65202602 -0.00356018 0.00487813 0.00213907
N 2.09888402 24.57487394 8.38743688 -0.00048716 0.00441937 0.00472989
N 0.89816566 27.94650425 10.39932023 0.00818034 0.00117084 -0.00340358
N 3.65871888 29.84091741 13.01275071 0.00510173 -0.00325526 0.00075706
N 4.82845039 26.81492449 10.42140949 -0.00364292 0.00001995 0.00042696
N 1.96418951 24.77830447 13.10575914 -0.00438271 -0.00065762 0.00007832
N 0.80238935 27.98477206 15.20614957 -0.00090164 -0.00063432 -0.00570883
N 3.23939344 29.59326771 17.62705058 -0.00212910 0.00099290 0.01151752
N 4.78765894 26.83382254 15.04847439 -0.00175671 0.00620803 -0.00231472
N 2.02058396 24.70720245 18.04825469 0.00185409 -0.00430177 0.00491679
N 0.49001043 27.94068154 19.88757531 -0.00342870 -0.00188277 0.00013589
N 3.20421043 29.66858389 22.65148659 0.00013647 -0.00065475 -0.00412586
N 4.49217277 26.91748225 19.84928371 0.00021692 -0.00266943 0.00819046
N 1.81453640 24.52738885 22.67862532 0.00420084 -0.00147861 -0.00618510
N 6.62682602 3.95884095 1.22768505 0.00158638 0.00172572 -0.00001540
N 10.03593478 5.04739670 3.80066491 -0.00030992 -0.00027784 -0.00404104
N 11.79670761 1.70055592 0.86601383 0.00170165 -0.00186198 -0.00590828
N 8.54103825 0.81781970 3.65720694 -0.00014849 0.00057582 -0.00400551
N 6.88398533 3.84017154 5.76456533 -0.00169173 0.00341861 -0.00246700
N 10.15949669 4.77583170 8.43447412 -0.00621458 0.00378665 0.00506025
N 11.45670412 2.13415480 5.58558394 -0.00184982 -0.00332530 -0.00057440
N 8.36962714 0.99939699 8.56263275 0.00232376 0.00245189 -0.00130530
N 7.05843370 3.82441736 10.60923684 -0.00016886 -0.00629183 0.00770899
N 10.28125314 4.74314966 13.28030130 -0.00454753 -0.00551446 -0.00328142
N 11.89235834 2.04748800 10.38436976 -0.00061578 -0.00125466 -0.00355719
N 8.56113006 1.19789160 13.13739712 0.00724735 -0.00139587 -0.00321333
N 6.85855261 3.90355332 15.25768397 0.00162897 0.00188762 -0.00035080
N 9.89045619 4.82164563 17.85918318 -0.00282392 -0.00025820 -0.00003703
N 11.73347612 1.97177721 15.19890861 0.00160078 0.00334538 -0.00060202
N 8.23937038 0.95787209 17.83664526 0.00438187 -0.00178483 0.00077796
N 6.74827530 4.02659717 20.03498990 0.00143462 0.00352220 -0.00422087
N 9.99798072 4.48428128 22.62793462 -0.00004748 0.00835371 0.00078286
N 11.66669554 1.86892783 19.69662961 -0.00100239 -0.00218884 -0.00545305
N 8.23646105 0.76968628 22.68023784 0.00212183 0.00510803 0.00823275
N 6.96877483 9.41380291 1.05431959 0.00342585 0.00190337 0.00580027
N 10.91904479 10.77337885 3.76332932 -0.00130805 0.00552031 0.00902528
N 12.38965900 7.37160057 1.12456238 -0.00175191 -0.00404858 0.00225856
N 8.44610149 6.74017576 3.89056866 0.00211071 0.00124860 0.00098648
N 7.01425106 9.64358495 5.90761304 0.00676307 0.00469446 0.00315720
N 10.83394344 10.84375015 8.56882010 -0.00039484 -0.00143997 0.00647084
N 12.31130293 7.77106440 5.80908755 0.00207514 -0.00443983 -0.00062853
N 8.90421181 6.67080606 8.45152662 0.00369605 -0.01162825 -0.00098549
N 7.23998109 9.29484013 10.41873630 0.00190297 -0.01058808 -0.00214840
N 10.62297306 10.53090151 13.19584141 -0.00095277 -0.00229000 0.00048823
N 12.27307522 7.53322969 10.20576057 0.00359227 0.00082535 0.00093485
N 8.69255946 6.42019628 13.26870604 -0.00151011 0.00475932 0.00300552
N 7.30733212 9.48428447 15.37132807 -0.00080532 -0.00306717 0.00833207
N 10.80097752 10.65750273 17.95016386 -0.00220315 0.00027403 0.00035737
N 12.38539633 7.59182673 15.12943719 -0.00470707 -0.00602435 -0.00075724
N 8.99062373 6.99076944 17.92964859 -0.00111959 -0.00248591 -0.00097602
N 6.91343712 9.54014255 20.00302035 0.00055720 0.00007095 0.00257015
N 10.63283272 10.45874290 22.58612595 0.00020016 -0.00145446 0.00034948
N 12.34730868 7.46721922 19.71677875 -0.00152832 0.00327216 -0.00119579
N 9.18264791 6.61692541 22.98822918 -0.00191419 -0.00407763 -0.00345299
N 7.68562696 15.35728853 1.17348474 -0.00358867 0.00139921 -0.00079109
N 10.50224092 17.28783390 3.76404243 0.00175232 -0.00766166 -0.00201357
N 11.68767088 14.16868006 0.84926118 0.01175571 -0.00076496 -0.00038889
N 9.15179406 12.25575801 3.83144885 0.00065350 0.00261252 -0.00068106
N 7.97477972 14.97590970 5.67189997 0.00412917 0.00354399 0.00404964
N 10.59249946 17.39023373 8.39273172 0.00033367 -0.00090695 0.00275673
N 11.95390434 14.07035044 5.51791929 -0.00237573 -0.00342231 0.00237293
N 9.10767418 12.37555897 8.44635009 -0.00292138 0.00517050 0.00542229
N 7.55188260 15.27102159 10.54213314 -0.00073061 -0.00066024 -0.00069959
N 10.13477565 17.47281733 13.37933724 0.00082606 0.00370685 -0.00766376
N 11.77507518 14.40266935 10.54650406 -0.00304086 -0.00014347 0.00169095
N 8.88881361 12.03290036 13.25778431 0.00508663 -0.00413396 -0.00054912
N 7.58361044 15.32636677 15.39055833 0.00165051 -0.00519859 -0.00611355
N 10.36136354 17.41220416 18.12391575 0.01028652 -0.00292985 -0.00327626
N 11.53360775 14.37049536 15.07608976 0.00060080 0.00491340 0.00112253
N 8.99462333 12.16859236 17.97534086 0.00258214 -0.00322412 0.00546788
N 8.00217665 15.01866163 19.95663942 0.00553724 0.00148451 -0.00898710
N 10.39833724 17.52231760 22.69543508 -0.00208636 -0.00643101 -0.01042912
N 11.79693502 14.11560898 19.79717161 0.00207119 -0.00050123 0.00782611
N 9.03713782 12.12059712 22.63750818 0.00543885 0.00037377 -0.00450244
N 6.96466053 21.87504594 0.96219877 -0.00176094 0.00397782 0.00017183
N 9.85456138 23.68845958 3.65458728 0.00131293 -0.00257180 -0.00414507
N 10.96501558 20.91381901 1.20794699 -0.00070385 -0.00216212 -0.00030055
N 8.51184346 18.56256963 3.76029190 -0.00981749 0.00171799 0.00813009
N 7.25166685 21.59323857 5.89241726 -0.00277709 -0.00505218 0.00006207