2000
Time=70000.00000007 pbc="T T T" Lattice="31.10442748 0.00000000 0.00000000 0.00000000 30.08190321 0.00000000 0.00000000 0.00000000 23.78879685" energy=-12040.05903327 virial="-67.90827426 -4.03255897 -5.62568323 -4.03255897 -74.55481288 -19.01446401 -5.62568323 -19.01446401 -139.55558755" stress="-0.00089078 -0.00014048 -0.00019250 -0.00014048 -0.00113346 -0.00081956 -0.00019250 -0.00081956 -0.00362940" Properties=species:S:1:pos:R:3:vel:R:3
C 30.43870476 3.79649940 1.78392183 0.00333478 -0.00203885 -0.00617381
C 2.46152134 0.45716824 2.89956386 0.00318017 -0.00437827 0.00159256
C 30.38641664 3.52028617 6.50012133 0.00158534 0.00004256 -0.00559433
C 2.35144315 0.35969557 7.63687364 0.00235344 -0.00625095 -0.00586335
C 30.38274781 3.73335861 11.13053632 -0.00162317 -0.00194737 -0.00709794
C 2.43582838 0.67279580 12.45353817 0.00107980 -0.00423526 0.00126797
C 30.45182178 3.84257708 16.02066600 -0.00516143 0.00044897 -0.00143875
C 2.53505888 0.54424447 17.20267242 -0.00157143 -0.00332152 0.00119677
C 30.45370145 3.79611610 20.61393716 0.00063024 -0.00609764 0.00125334
C 2.66616637 0.93380614 21.70092223 -0.00114437 -0.00186825 0.00167234
C 30.82159944 9.75505267 1.74031041 0.00297654 -0.00478390 0.00119187
C 2.59085379 6.27901263 3.07570960 0.00423806 0.00792570 -0.00027427
C 30.79318271 9.41507272 6.49919405 0.00713721 0.00181283 -0.00386867
C 2.76963378 5.85694485 7.62435977 -0.00597860 -0.00121689 -0.00051885
C 30.95797726 9.22693632 11.11683467 0.00049981 -0.00355328 0.00438140
C 2.89066780 6.25011585 12.47322316 -0.00067637 0.00142454 0.00309244
C 30.86456896 9.54798702 15.85988198 -0.00382774 -0.00178626 -0.00111109
C 2.97685504 6.22635621 17.20016659 -0.00135806 -0.00463128 -0.00444670
C 0.22954929 9.25729131 20.70090527 0.00022960 0.00169022 -0.00472535
C 2.64478588 6.37910129 22.13292175 -0.00068641 -0.00454776 0.00258052
C 0.22431038 14.94747978 1.49616035 0.00399019 0.00367233 0.00061477
C 3.49993438 11.92622640 2.73047341 0.00132833 -0.00084954 0.00472329
C 0.15668528 14.68703084 6.23689192 0.01437366 -0.00140696 0.00485045
C 3.37878640 11.85192523 7.73305327 0.00268699 -0.00386748 -0.00224625
C 0.01780689 14.60783403 10.97565094 -0.00248776 -0.00042518 -0.00044461
C 3.17771611 11.82416013 12.54498764 0.00133040 0.00866847 -0.00142605
C 0.13677092 14.70007507 15.90022208 -0.00758082 0.00421452 0.00351956
C 3.57848746 11.66653019 17.17880972 -0.00303012 -0.00153574 -0.00133063
C 0.42276917 14.75460812 20.65949671 0.00341692 0.00482263 0.00580716
C 3.42239647 11.78018792 21.87454663 -0.00109057 -0.00385805 -0.00605759
C 0.61709990 20.61989627 1.66061507 -0.00148707 -0.00987822 -0.00416288
C 3.76744224 17.41304977 3.04547665 0.00607489 0.00254583 0.00772655
C 0.54237701 20.49478192 6.51286611 0.00251211 0.00388885 0.00171454
C 3.53385139 17.26684033 7.89016999 -0.00393461 -0.00410330 0.00554286
C 0.51788473 20.50623820 11.16879129 -0.00592138 0.00323091 0.00142955
C 3.62661912 17.44591075 12.47686316 -0.00516187 0.00076382 0.00238705
C 0.80686020 20.27763450 16.07529985 -0.00218980 -0.00657347 -0.00010576
C 3.67462913 17.35959263 17.23553681 0.00126256 -0.00768491 0.00073056
C 0.74354297 20.40694620 20.74786922 0.00261205 -0.00510280 0.00278651
C 3.57333779 17.54174337 22.07313865 0.00005688 -0.00392953 0.00193046
C 0.07550414 27.07448527 1.57707278 -0.00861294 0.00176440 -0.00044603
C 3.04139638 24.11928227 3.19021450 0.00287561 -0.00527876 0.00463929
C 30.98845299 27.07368370 6.37200911 0.00419209 -0.00067312 -0.00332238
C 3.30309746 24.10606210 7.95624303 0.00514970 -0.00298686 -0.00029412
C 30.99249267 27.12189133 11.18589798 0.00175038 0.00048126 0.00177277
C 2.98325462 24.05374792 12.55818030 0.00720536 -0.00076010 -0.00529974
C 30.99263745 27.03286643 16.01472086 -0.00332770 -0.00678976 0.00161942
C 3.01384024 23.85738511 17.24320288 -0.00062464 0.00753485 0.00295023
C 30.91033937 27.03085031 20.63999916 -0.00261039 -0.00401719 -0.00315879
C 3.07321803 23.86879668 22.11929518 -0.00493586 -0.00054249 0.00742755
C 6.02169871 3.27668114 1.66287898 -0.00101029 -0.00292061 0.00195545
C 9.01138180 0.08985216 2.92107571 0.00383604 0.00210691 -0.00016587
C 6.07858394 3.36953595 6.21926396 0.00021700 0.00223745 0.00537446
C 9.23963355 0.17893792 7.85034848 -0.00314241 0.00016045 0.00719180
C 5.93283907 3.12375851 10.98065003 -0.00258208 0.00765569 -0.00327051
C 9.26586036 0.27452364 12.67946359 0.00159681 0.00069977 0.00113177
C 6.24190408 3.05604911 15.96618286 -0.00418021 -0.00127076 0.00298113
C 9.10937337 0.17238742 17.34490064 0.00111523 0.00013510 -0.00115323
C 6.03351485 3.40683198 20.68277313 0.00242245 -0.00061181 0.00118474
C 9.00910484 0.52670966 21.97896197 0.00455960 0.00246270 0.00347582
C 6.72316567 8.65633201 1.66656820 0.00138709 -0.00014988 -0.00009023
C 9.91936961 5.44187646 3.00721471 -0.00507238 0.01038128 -0.00229728
C 6.60256227 8.53027281 6.19145001 0.00091458 0.00395314 0.00168651
C 9.45519918 5.58356336 7.65959300 -0.00115335 0.00795873 0.00164925
C 6.48196746 8.66693665 11.12044623 0.00233976 -0.00450445 0.00039284
C 9.62599700 5.79681978 12.68298423 0.00148459 -0.00043485 0.00240324
C 6.43348395 8.72986200 15.90060535 -0.00204822 -0.00737759 -0.00494232
C 9.64989560 5.79575422 17.42274775 0.00754921 -0.00606626 -0.00692821
C 6.33427571 8.69172971 20.65413636 -0.00395644 -0.00517392 -0.00634045
C 9.67626736 5.90615745 22.07811336 -0.00310920 -0.00236689 -0.00351923
C 6.84429630 14.56877824 1.68597907 -0.00304223 -0.00680769 -0.00049631
C 9.92708249 11.07263024 3.17829810 -0.00297104 -0.00036621 0.00387550
C 6.89417736 14.20598864 6.49064613 -0.00003259 -0.00053670 0.00067643
C 9.89161259 11.26267969 7.82247283 0.00636161 -0.00934461 -0.00005334
C 6.76931032 14.42919923 11.17274690 -0.00057136 0.00335692 -0.00018093
C 9.94173495 11.31163151 12.49440662 0.00258148 -0.00338404 -0.00082417
C 6.83616003 14.43927824 16.00391807 0.00040930 0.00296622 0.00462392
C 9.84646127 11.27521846 17.36427387 0.00106525 0.00769961 0.00247895
C 6.94127181 14.34183200 20.67845713 -0.00100379 0.00129414 0.00135118
C 9.74137618 11.48613214 22.11960055 -0.00471545 -0.00895860 -0.00108953
C 6.19968823 21.03200004 1.66358422 -0.00779884 0.00601623 0.00354106
C 9.24155974 18.01262058 2.98389556 -0.00511975 0.00114257 -0.00640594
C 6.19871017 21.16542247 6.51437843 0.01022127 0.00351856 0.00236745
C 9.14384347 18.01966023 7.86777369 0.00002348 -0.00571151 0.00037192
C 5.93220733 20.85211271 11.31694375 0.00065937 -0.00232956 0.00182263
C 9.21028945 18.14790633 12.65750782 -0.00202890 0.00409656 -0.00615211
C 6.13555398 20.99834530 16.08740498 0.00341368 -0.00447893 0.00001302
C 9.36455773 18.03765565 17.50978256 0.00079516 0.00091245 0.00838832
C 6.22640341 20.89016851 20.79688848 0.00890582 -0.00605972 -0.00400594
C 9.26769749 18.09568151 22.24983115 -0.00417889 0.00062536 -0.00052375
C 5.56439114 27.80440354 1.62128925 0.00162396 -0.00260238 0.00055923
C 8.69877508 24.98320240 3.20100894 -0.00518773 -0.00046758 -0.00056346
C 5.78155929 27.87194483 6.39068845 -0.00138967 0.00105036 0.00321249
C 8.68426042 24.55498317 7.90539070 -0.00695645 0.00050038 -0.00939470
C 5.68156005 27.72965391 11.36239961 0.00011867 0.00498890 0.00238308
C 9.05942226 24.87819920 12.60772345 -0.00065683 -0.00225551 0.00420710
C 5.65894653 27.53511715 15.95834514 -0.00471427 0.00332358 0.00083981
C 8.68094313 24.41942576 17.35005785 -0.00245443 -0.00630116 -0.00401678
C 5.66168701 27.61757778 20.69291296 -0.00029147 -0.00017961 -0.00420578
C 8.64807044 24.66110387 22.00508416 -0.00326686 -0.00397351 0.00283935
C 12.61453703 2.63110527 1.82584386 -0.00180586 -0.00599135 0.00155460
C 15.86547509 30.01862405 3.40290633 -0.00002605 0.00487073 -0.00156764
C 12.78161539 2.18922481 6.65610985 -0.00334458 0.00136750 -0.00727598
C 15.62653063 29.61030526 7.83935290 0.00443731 0.00558696 -0.00330316
C 12.71418883 2.85410811 11.37204867 -0.00070302 0.00255133 0.00399907
C 15.74976564 29.86108920 12.47926885 0.00279631 0.00451886 -0.00396604
C 12.66026498 2.83021996 16.14424748 0.00239345 0.00158481 0.00167399
C 15.98192340 29.96433354 17.48987460 -0.00468626 0.00490409 -0.00094759
C 13.04772320 2.83374301 20.92106766 -0.00758942 0.00568731 0.00623941
C 15.91036962 0.08757864 22.31978204 0.00772988 0.00301993 -0.00352197
C 13.41560575 8.48967674 1.88417063 0.00355387 0.00300696 -0.01016644
C 16.21015713 5.44477909 3.00357852 0.00447013 -0.00052672 -0.00429539
C 13.22852679 8.44203519 6.44939382 -0.00134130 0.00246167 -0.00579496
C 16.25431138 5.46276104 7.84801155 -0.00274223 0.00238160 0.00243419
C 12.80216759 8.15248714 11.23585307 -0.00341661 0.01143649 0.00012626
C 16.29098948 5.47318666 12.54801975 0.00149235 0.00335457 0.00095234
C 13.16606358 8.54605452 16.03814427 0.00551335 0.00130313 0.00018746
C 16.36775358 5.76395788 17.31311960 0.00435228 -0.00072018 -0.00176019
C 13.25931925 8.59178318 20.96802734 -0.00852583 0.00680086 -0.00401329
C 16.37724116 5.67070852 22.13547122 -0.00843966 -0.00115950 0.00678957
C 12.45693699 15.13530967 1.81498338 0.00145163 0.00056727 0.00654287
C 15.38632715 12.31533110 3.03087015 0.00141732 -0.00726920 -0.00142395
C 12.37309501 15.04116476 6.47044876 0.00219679 -0.00212029 -0.00446941
C 15.33602950 12.08111406 7.79191749 0.00174146 -0.00188787 -0.00379267
C 12.19951767 14.88222281 11.22710728 0.00325708 0.00208211 0.00072837
C 15.44426655 12.17295081 12.71165049 -0.00134833 -0.00081024 0.00487779
C 12.17081412 15.12740434 16.07335680 -0.00487935 -0.00543239 -0.00533167
C 15.34560927 12.02494200 17.36819504 -0.00409220 0.00048237 -0.00637233
C 12.61884501 14.95347352 20.58967997 0.00185515 0.00059205 0.00443360
C 15.84146788 12.31496970 22.19365004 -0.00681179 0.00101383 -0.00448382
C 11.66524622 21.87741160 1.69102044 0.00330859 0.00242082 -0.00375686
C 14.89236156 18.82022793 3.18084042 -0.00180276 0.00204159 0.00068024
C 11.68917429 21.53260622 6.41997024 -0.00212420 0.00151463 0.00936471
C 14.85381752 18.48592752 7.87692190 0.00333976 0.00021537 0.00541440
C 11.83493308 21.65210753 11.21662583 -0.00277980 0.00455754 -0.00683525
C 14.92422957 18.79499252 12.55146703 0.00078381 0.00248417 -0.00239766
C 11.98194555 21.56623140 15.94702407 -0.01145835 0.00041466 0.00025581
C 14.92405318 18.84979261 17.25969742 -0.00701074 0.00027662 -0.00091286
C 11.63447854 21.75140098 20.85073261 0.00392840 -0.00258767 0.00164345
C 14.73860577 18.49816791 21.95136733 0.00557774 0.00600661 -0.00332698
C 12.36768352 27.20032613 1.86539295 0.00169674 0.00103281 0.00318154
C 15.55000247 24.41251754 3.03928404 0.00395083 -0.00018188 -0.00088599
C 12.40295820 27.07547738 6.68461834 0.00341486 0.00395889 -0.00424258
C 15.34512325 24.06948300 7.72946135 0.00343223 -0.00266934 -0.00332789
C 12.33884207 27.33640736 11.34439367 -0.00167737 0.00068702 0.00515093
C 15.10550693 24.16173135 12.58966254 -0.00448914 0.00228734 0.00254640
C 12.27127449 27.14705848 16.13036229 -0.00094731 0.00549785 0.00405114
C 15.43922522 24.33020760 17.62212320 -0.00974197 0.00288638 -0.00565168
C 12.29163668 27.45539939 20.75006438 0.00037041 0.00166058 -0.00037398
C 15.19481080 24.36527919 22.06580122 -0.00142160 0.00218716 0.00143075
C 19.42651736 2.20342484 1.75398935 -0.00045674 0.00064344 0.00322324
C 22.65557060 29.57200994 3.08392577 -0.00452403 -0.00256487 -0.00176192
C 19.69744501 2.33912085 6.43002020 0.00518844 0.00044155 0.00092758
C 22.60121967 29.38732186 7.98831133 0.00020854 0.00467771 0.01051176
C 19.17411438 2.44949641 11.07207498 0.00388290 -0.00121138 -0.00111411
C 22.47282137 29.24518059 12.52914060 -0.00992976 0.00723257 0.00258179
C 19.31220077 2.30112331 16.01005052 0.00189439 -0.00305532 -0.00356701
C 22.07343167 29.43072515 17.26489737 0.00024237 0.00189557 -0.00294958
C 19.33618495 2.55883552 20.77900380 -0.00263522 -0.00583869 0.00252268
C 22.47502635 29.34535184 21.98442240 0.00165913 -0.00105332 -0.00150294
C 18.55827815 9.28769762 1.74644703 -0.00380052 -0.00526398 0.00192704
C 21.84417874 5.74324578 3.05715149 -0.00582410 -0.00378522 -0.00450136
C 18.59806275 8.99627571 6.44344713 0.00255320 0.00082230 0.00202281
C 21.90667715 6.23936974 8.00146595 -0.00116263 -0.00243751 0.00172352
C 18.31209720 9.22157872 11.19020596 -0.00147919 -0.00123038 -0.00457179
C 21.78155506 6.20333826 12.67007654 0.00370728 0.00777768 -0.00839282
C 18.64312291 9.11697229 16.02963118 -0.00250687 -0.00451070 -0.00627821
C 21.94206165 5.95311573 17.44013197 0.00072787 0.00197075 -0.00219108
C 18.56668873 9.09157438 20.88141025 0.00069674 -0.00594502 -0.00814414
C 22.06063647 6.20424417 22.13221202 0.00205587 -0.00113690 0.00115026
C 18.29207778 15.74161161 1.88990258 -0.00395327 0.00289337 -0.01117012
C 21.26755334 12.86954258 2.96560144 0.00224085 0.00437152 -0.00628412
C 18.09561796 15.57390240 6.57901018 0.00656274 0.00490615 0.00131818
C 21.06822320 12.38790580 7.79392650 0.00730850 -0.00471717 0.00371384
C 18.11181479 15.55794108 11.24781800 -0.00036912 0.00924493 0.00017739
C 21.20961404 12.66292836 12.34592745 -0.00780113 0.00160401 0.00045698
C 17.65094776 15.82129748 15.85709916 -0.00154973 -0.00134441 -0.00036353
C 21.21338498 12.64967845 17.27425496 -0.00356804 0.00114748 -0.00060698
C 17.73673660 15.61280471 20.76654771 0.00608174 -0.00462679 0.00208095
C 21.44440770 12.94118926 21.93201058 0.00217482 0.00256573 -0.00548613
C 18.56002720 21.42449789 1.74171140 0.00177979 0.00449297 -0.00346662
C 21.70351331 18.29039105 3.14544995 0.00176513 0.00480524 -0.00094508
C 18.53994476 21.32027567 6.50537946 -0.00077879 -0.00659132 0.00344993
C 21.38869063 18.19357612 7.95166250 -0.00247270 -0.00864103 0.00334238
C 18.36739581 21.36000295 11.12825076 0.00294260 -0.00169035 0.01249655
C 21.50083128 18.37288888 12.54202956 0.00228259 0.00053407 -0.00429364
C 18.40094102 21.39054937 15.95412985 -0.00250461 0.00763349 0.00023004
C 21.21997950 18.22698284 17.34308023 -0.00188784 0.00342329 -0.00132796
C 18.38121779 21.16855950 20.76585778 0.00162894 0.00425585 -0.00120376
C 21.51271259 18.37375430 22.07616363 -0.00063877 0.00332746 -0.00793524
C 19.00442813 26.90870768 1.79607734 0.00495907 -0.00189180 0.00356875
C 22.06539793 23.83268456 2.97872279 -0.00313070 0.00274530 0.00059376
C 18.96505941 26.87987151 6.61810073 -0.00579465 -0.00156470 0.00053941
C 21.88813161 23.71193523 7.81530147 0.00030193 -0.00045902 0.00211515
C 18.70815377 26.80304996 11.47450433 -0.00551605 -0.00901894 0.00243893
C 22.11708828 24.04875219 12.66027879 -0.00751418 0.00389950 -0.00392245
C 18.81145188 26.94871483 16.18240911 0.00210843 -0.00352681 -0.00498300
C 21.83844587 23.78365893 17.44221690 0.00151315 -0.00504067 0.00002115
C 18.74634725 26.88835698 20.81634804 0.00001522 -0.00529229 0.00415023
C 21.97429728 23.84254004 21.93798351 0.00389493 0.00203206 0.00341867
C 24.91486359 3.02584951 1.69282683 -0.00361602 0.00067207 -0.00000631
C 28.02226457 0.06200920 3.11478024 0.00478230 0.00294854 0.00493439
C 25.03756241 3.01239160 6.71617605 -0.00010704 -0.00517205 -0.00247525
C 27.89373836 29.83360328 7.94723186 0.00304984 -0.00600936 -0.00097778
C 24.87363559 3.01276545 11.36679595 -0.00239398 0.00332376 -0.00101849
C 28.09660254 29.95078922 12.85267702 0.00456089 0.00403495 0.00068288
C 25.01822195 3.08569082 16.11147648 0.00689144 -0.00256865 0.00444463
C 27.94328769 0.06480129 17.42071205 -0.00311364 0.00143155 -0.00411245
C 24.82668255 2.88914584 20.83651023 -0.00720212 0.00084101 0.00255128
C 27.82814525 30.07427902 22.17940553 -0.00128452 -0.00240860 0.00195717
C 24.09873932 9.80346526 1.69937215 -0.00059955 -0.00284985 0.00414224
C 27.54466988 6.66039420 2.91314024 0.00023434 -0.00190489 -0.00781455
C 24.34678618 9.84137375 6.30862072 -0.00372134 -0.00255478 -0.00030856
C 27.22319173 6.62450079 7.58682006 -0.00372661 0.00122568 -0.00347597
C 24.36871737 9.57852437 11.23425615 0.00250556 -0.00062542 -0.00601622
C 27.26584629 6.59824011 12.45975768 -0.00043326 0.00367217 -0.00248574
C 24.04559243 9.69531844 16.01124440 0.00158647 0.00446729 0.00083431
C 27.45394202 6.58113806 17.19830957 -0.00271351 -0.00500524 -0.00230598
C 24.41920798 9.64791633 20.61510180 -0.00157691 -0.00031332 -0.00050772
C 27.19746992 6.67998689 21.87487004 -0.00326183 -0.00247279 -0.00712323
C 24.66369690 15.32385794 1.67413671 0.00314470 0.00065422 0.00261931
C 27.68366239 12.24945358 2.84644921 -0.00508509 -0.00343307 0.00148797
C 24.51757859 15.28626772 6.56039744 -0.00274110 0.00288036 0.00059004
C 27.76094297 11.99491771 7.81065491 0.00502676 -0.00392274 0.00351272
C 24.78584189 15.17384963 11.16505426 -0.00317686 0.00038768 -0.00137442
C 27.78003088 12.08301823 12.51318690 -0.00319778 -0.00274936 -0.00384287
C 24.48932690 15.38956407 15.86538396 -0.00074528 0.00342096 -0.00169257
C 27.72442379 12.20177958 17.16592515 -0.00036769 0.00159714 -0.00094344
C 24.77150625 15.30978190 20.55247314 -0.00605654 0.00510949 0.00312419
C 27.73587674 12.30036358 21.86116255 -0.00187532 0.00147417 0.00358702
C 24.91886451 20.80922138 1.71888993 0.00056187 0.00572807 -0.00021120
C 28.06692767 17.79020902 2.89564679 -0.00804698 0.00133488 -0.00452260
C 25.27643475 20.74673486 6.59313339 -0.00196397 -0.00064013 -0.00489546
C 28.31956011 17.73694386 7.57541812 0.00408758 0.00451472 -0.00210529
C 25.10971558 20.89569315 11.34578872 -0.00028040 -0.00388288 -0.00461153
C 28.04994953 17.89094336 12.44802545 -0.00654645 0.00436810 -0.00076604
C 25.02039645 20.88547187 16.04283008 -0.00158814 0.00290191 -0.00728351
C 28.19702714 17.72625032 17.20901777 -0.00359933 0.00533733 0.00162704
C 25.25487392 20.55480522 20.83792665 0.00073854 -0.00354283 0.00318573
C 28.42433853 17.90405367 21.82757699 0.00054592 -0.00325694 -0.00040677
C 25.67312665 26.28425154 1.69260646 0.00536935 -0.00409731 0.00272753
C 28.41654976 23.46608340 2.90213013 -0.00696825 -0.00083847 -0.00428445
C 25.56049494 26.49099233 6.70167954 -0.01209782 -0.00251027 0.00132151
C 28.54607330 23.68665954 7.75204770 0.00525230 -0.00197063 -0.00459825
C 25.53883356 26.17862135 11.56226127 0.00631109 -0.00224630 0.00585988
C 28.56094028 23.40224249 12.65674535 -0.00169177 0.00414089 0.00727210
C 25.56828471 26.35107729 16.00827075 -0.00437284 -0.00016390 0.00605173
C 28.47022491 23.22462134 17.32591408 -0.00262666 0.00027187 0.00401860
C 25.50208408 26.38881027 20.72661102 0.00394794 -0.00566152 0.00143861
C 28.73471294 23.46150925 22.12534647 -0.00081987 -0.00050011 0.00341065
N 0.08904852 4.61342033 1.07184025 -0.00072420 -0.00314636 -0.00185286
N 3.16615617 5.13371037 3.60042247 -0.00722951 0.00219118 0.00098198
N 5.29167537 2.46174238 0.93501064 -0.00152968 0.00131596 -0.00464795
N 1.60730332 1.11572049 3.73447240 0.00323407 -0.00521683 0.00242798
N 0.11937514 4.31149153 5.76438893 0.00400665 -0.00283172 -0.00580636
N 3.42816499 4.90669135 8.38446970 -0.00011759 0.00042138 -0.00388840
N 5.25430463 2.42866037 5.57476572 -0.00357709 -0.00234606 -0.00311879
N 1.51146783 1.18505868 8.33130480 0.00361714 0.00008355 -0.00626344
N 30.76188749 4.73620976 10.22325889 0.00124688 -0.00224132 0.00364315
N 3.70504175 5.35224395 13.11540133 0.00296298 -0.00467877 -0.00555896
N 5.11961936 2.31354989 10.13912837 -0.00620753 -0.00851440 0.00543770
N 1.69143078 1.40338769 13.28000055 -0.00040081 0.00362708 0.00110455
N 0.23411510 4.61288807 15.26382909 0.00181760 0.00378993 -0.00157529
N 3.70791249 5.42311540 18.05504866 0.00617471 -0.00567819 -0.00208448
N 5.58635799 2.14288263 15.24016860 -0.00326827 0.00176578 0.00640244
N 1.68031305 1.45872749 17.85519469 0.00017238 -0.00223648 0.00928520
N 0.07799370 4.60252910 19.78664262 0.00464971 -0.00318580 -0.00304618
N 3.34414304 5.36640070 22.74747735 -0.00753438 0.00173255 -0.00036281
N 5.48777466 2.50480234 19.86127474 0.00258229 0.00196770 -0.00195601
N 1.58013445 1.53418342 22.21925201 -0.00402334 0.00314051 0.00060902
N 0.52242617 10.58237014 0.96528217 0.00600200 0.00694549 -0.00160671
N 3.97809653 10.80465869 3.36532688 -0.00713677 0.00619511 -0.00081456
N 5.79279628 7.91967013 0.96498629 0.00378361 0.00885763 -0.00036037
N 2.27657829 7.25065368 3.94198619 -0.00478190 0.00215956 -0.00028923
N 0.32117454 10.38399991 5.70836920 -0.00149205 0.00450341 0.00693921
N 3.84058692 10.79348022 8.42936550 0.00083796 0.00048159 0.00433600
N 5.67936442 7.84664122 5.38609335 0.00202028 -0.00297355 -0.00035500
N 2.42787901 6.96350821 8.30097677 0.00055759 0.00385605 0.00114088
N 0.74627570 9.95496346 10.42468089 -0.00291065 0.00047679 -0.00197053
N 3.89246274 10.87035793 13.21659026 -0.00748700 0.00345774 -0.00257570
N 5.65334445 7.81325528 10.39439515 -0.00043907 0.00209839 -0.00395521
N 2.21741222 7.15977793 13.27758167 0.00485352 -0.00197168 -0.00259998
N 0.58360263 10.30644215 15.12254443 0.00288536 0.01071043 0.00547634
N 4.36644392 11.01019484 18.04522744 -0.00129200 0.00339107 0.00819316
N 5.61580395 8.01485357 15.07958899 -0.00457121 -0.00198420 -0.00520816
N 2.10372235 7.09047433 17.77478453 -0.00462413 0.00088399 0.00117673
N 0.96371392 10.00070192 19.80424069 -0.00551409 -0.00138916 -0.00607436
N 4.29423878 10.98759462 22.57231713 -0.00292701 -0.00090245 -0.00311383
N 5.43929985 8.00588379 19.88276668 -0.00266555 -0.00462951 0.00258787
N 2.23911162 7.37813538 22.89498979 0.00671652 -0.00018792 -0.00322177
N 1.05148645 15.70991791 0.76103728 0.00203250 -0.00203263 -0.00145869
N 4.75163549 16.70750593 3.80995555 0.00048026 -0.00161548 0.00932316
N 5.99986248 13.73616481 0.99350326 0.00923253 -0.00249397 0.00426398
N 3.04517167 12.87193378 3.55289019 -0.00609186 0.00200208 0.00007896
N 0.98290160 15.51516482 5.46341689 -0.00173151 -0.00425352 0.00465800
N 4.30959586 16.38165421 8.64962497 0.00242511 0.00234273 0.00752877
N 6.22631503 13.37101945 5.63205444 -0.00124762 0.00279500 -0.00479730
N 2.61614162 12.68460407 8.45538769 -0.00271328 0.00818447 -0.00294610
N 0.90393482 15.40331416 10.29427044 0.00510956 -0.00076644 -0.00104629
N 4.41561364 16.60798375 13.19896885 0.00753775 -0.00031336 -0.00085162
N 6.03113275 13.54280594 10.47720167 -0.00293453 -0.00024720 0.00338726
N 2.28064114 12.57372537 13.27562163 -0.00268311 -0.00250354 -0.00357309
N 0.78513746 15.65037383 15.23926097 -0.00077305 0.00056035 -0.00394722
N 4.69529344 16.63006061 17.82651225 -0.00349051 -0.00141118 -0.00287274
N 6.12209242 13.51171242 15.28288984 -0.00285810 0.00030079 0.00039630
N 2.85043501 12.68695061 17.72173246 -0.00209019 -0.00313951 -0.00646605
N 1.32279004 15.58602149 20.09104342 -0.01009043 0.00207902 0.00010055
N 4.34401535 16.77016784 22.92583685 -0.00436018 0.00460800 0.00899479
N 6.20088511 13.58137171 19.85331218 -0.00089416 -0.00034705 -0.00217628
N 2.63108108 12.62714234 22.58191020 -0.00073111 0.00451977 -0.00160194
N 1.58923129 21.38043140 1.09651549 -0.00451213 -0.00554430 0.00524407
N 4.05179427 23.74836654 3.95209721 0.00352453 0.00191763 0.00641427
N 5.45067826 20.04547154 1.05241876 0.00023232 -0.00337503 0.00954989
N 2.84278482 18.00074703 3.80577671 0.00122570 0.00355423 0.00187891
N 1.28942727 21.46437505 5.91076973 -0.00182582 -0.00273363 0.00407408
N 4.09412964 23.40366874 8.79315256 0.00620776 -0.00077101 -0.00026657
N 5.35517815 20.31766940 5.91151503 0.00153087 0.00062196 -0.00182733
N 2.80947037 18.25694908 8.54621940 -0.00015787 -0.00217836 0.00298838
N 1.31359028 21.42486723 10.55650834 0.00561542 0.00372678 0.00017453
N 4.08694600 23.36410183 13.00629326 0.00228176 -0.00393181 -0.00026318
N 5.22706115 19.92210826 10.55641036 -0.00192461 -0.00034936 0.00682089
N 2.84442511 18.26485743 13.17826209 -0.00092006 0.00153023 -0.00465888
N 1.45776483 21.08427444 15.21117887 -0.00499570 0.00133990 -0.00129712
N 3.97328412 23.29216863 18.05008546 0.00598964 0.00019687 0.00140685
N 5.23289602 20.11055472 15.55087802 -0.00666238 0.00442641 0.00259548
N 2.89519303 18.10153978 18.07195910 0.00453631 0.00119660 0.00980627
N 1.63328585 21.17290872 20.05578021 -0.00445244 -0.00435541 0.00312208
N 4.16827154 23.28236149 22.70717379 0.00561029 -0.00564372 -0.00263097
N 5.37644179 19.94840453 20.34494522 -0.00517302 -0.00921039 0.00319893
N 2.76485208 18.41204816 22.72368769 -0.00159456 -0.00318725 0.00396583
N 0.90650271 27.83467812 0.79611352 -0.00207926 -0.00441608 -0.00095073
N 3.35846913 29.74916445 3.52387034 -0.00148643 -0.00264004 -0.00506363
N 4.69879493 27.22725255 0.76660868 -0.00342873 0.00006073 0.00029497
N 2.14584701 24.97444207 3.75972363 -0.00209721 0.00660735 -0.00537553
N 0.54656238 28.09256852 5.67152215 -0.00198412 -0.00080273 -0.00010409
N 3.24147485 29.74624119 8.41891567 -0.00012028 -0.00515258 0.00331664
N 4.89615795 27.13706136 5.60911908 -0.00172034 -0.00288629 -0.00566772
N 2.32583765 24.75819991 8.66218181 0.00401451 -0.00016831 0.00333131
N 0.47421669 28.02581931 10.41982144 0.00218547 -0.00362967 0.00261043
N 3.25826876 29.82353893 13.01762928 -0.00071818 -0.00926068 0.00135732
N 4.99357193 26.85783577 10.55231784 -0.00926199 -0.00024044 0.00445287
N 1.99047307 24.44507874 13.38893719 -0.00584130 -0.00030783 -0.00013556
N 0.75584959 27.69813123 15.18448145 0.00257447 -0.00314037 -0.00307858
N 3.17485189 29.72637221 17.97747747 0.00052445 0.00959588 -0.00119584
N 4.77991360 26.72855743 15.32976913 0.00728592 0.00321603 -0.00029304
N 1.99247592 24.41156393 17.93867810 0.00417522 0.00448660 -0.00311793
N 0.77778991 27.76955916 20.01541167 -0.00390529 0.00172798 -0.00311578
N 3.35900992 0.11967673 22.57905540 0.00210943 0.00065162 -0.00537554
N 4.82522517 26.74382322 20.08001780 0.00829109 -0.00153731 0.00664311
N 2.28395686 24.67025615 22.87018087 -0.00213178 0.00139593 0.00223805
N 6.68107406 4.20866178 0.92718460 0.00425270 -0.00484710 -0.00572705
N 10.38303027 4.46940291 3.84116098 0.00251325 -0.00097701 0.00328804
N 11.94793972 1.74327586 1.02532028 0.00065885 -0.00275440 -0.00003596
N 8.32919657 1.13751940 3.43663470 0.00795900 0.00031869 0.00612326
N 6.92433128 4.02981844 5.45661957 -0.00231218 -0.00361423 0.00220049
N 10.06752554 4.66312504 8.42494818 0.00368496 0.00252929 -0.00407732
N 11.91363280 1.37992185 5.96181098 -0.00077105 -0.00932653 0.00203170
N 8.53008004 1.19588956 8.40638255 0.00180616 0.00774680 -0.00343652
N 6.76179325 3.98314514 10.29528731 0.00734002 0.00576610 -0.00176085
N 10.42568424 4.90955282 13.31079186 0.00029133 -0.00026653 0.00025026
N 12.05059111 2.01202574 10.60536618 -0.00080484 -0.00393461 0.00069524
N 8.93728648 1.45631111 13.26032214 0.00418581 -0.00372207 0.00463316
N 7.05354122 3.91498344 15.26724664 0.00188693 0.00615835 0.00886226
N 10.43853751 5.01305093 18.21223881 0.00190441 0.00584378 -0.00757399
N 11.86509193 1.94056789 15.49916380 0.00129903 -0.00072099 -0.00159174
N 8.96372546 1.40049086 17.98576662 0.00373460 0.00352357 0.00149228
N 6.99927460 4.28608197 20.22719347 0.00773143 -0.00244104 -0.00313648
N 10.50405232 4.96525519 22.63472816 -0.00113997 -0.00105863 -0.00135665
N 12.19276767 2.20419701 20.06951067 0.00817456 -0.00286593 0.00499241
N 8.63100515 1.54347853 22.82748327 0.00023390 0.00404139 0.00983139
N 7.32636118 9.59423341 0.96995450 0.00210518 0.00085672 0.00271819
N 10.59426951 10.28736200 4.06437402 -0.00003593 -0.00020053 -0.00177560
N 12.73280600 7.57060604 1.09142098 -0.00239850 0.00602522 0.00332958
N 9.13846923 6.41410761 3.52824046 -0.00385302 0.00017521 -0.00022756
N 7.56936217 9.22640037 5.58457771 -0.00581850 0.00455629 0.00101035
N 10.78598211 10.55813337 8.46837954 -0.00412927 0.00042065 -0.00242735
N 12.59854733 7.36943409 5.80866673 -0.00533190 -0.00118150 0.00461895
N 9.02596336 6.66007137 8.33591754 0.00327964 0.00278631 0.00215345
N 7.15574701 9.65723679 10.44479844 0.00594613 -0.00189920 -0.00189748
N 10.53451869 10.32083248 13.22899975 -0.00413388 -0.00331471 0.00077518
N 12.08894143 7.28521736 10.48393125 0.00292636 -0.00199273 -0.00318116
N 8.79974770 6.49119855 13.45687947 0.00552351 0.00644431 -0.00119428
N 7.37795809 9.53390641 15.35495121 0.00213587 -0.00542035 -0.00042489
N 10.62606320 10.55277446 18.28455175 -0.00074862 -0.00104883 -0.00488836
N 12.33363153 7.67480654 15.36064577 0.01019135 0.00229482 0.00022152
N 9.06362658 6.82683752 18.09470878 0.00144162 -0.00233854 -0.00695629
N 7.24457666 9.37924064 19.95530607 -0.00217606 0.00073202 -0.00429865
N 10.61761099 10.63602138 22.73079200 -0.00529232 0.00439465 -0.00429576
N 12.47116251 7.67123700 20.32192387 0.00154521 0.00029820 -0.00209826
N 8.69867353 6.51132209 22.88420735 -0.00194812 -0.00008765 0.00411809
N 7.64891853 15.42347627 0.98887889 0.00048184 0.00052171 -0.00318005
N 10.23631349 17.51573834 3.70725498 0.00254152 -0.00691928 0.00303721
N 11.67221233 14.40254454 1.05035774 -0.00242334 0.00037894 0.00089193
N 9.30529359 12.20934429 3.73745199 -0.00423185 -0.00411179 0.00461953
N 7.65532926 15.12857219 5.94508747 -0.00063917 -0.00472313 -0.00129508
N 10.14153233 17.69914441 8.74461336 0.00016144 -0.00403758 0.00417739
N 11.56739676 14.15180930 5.85241561 0.00457493 0.00077325 0.00365925
N 9.07717276 12.04960847 8.57343653 0.00065695 0.00038839 -0.00363264
N 7.67929792 15.13456500 10.47500075 0.00278124 0.00168134 0.00787163
N 10.24107103 17.69422874 13.41455457 -0.00500726 0.00335160 0.00116872
N 11.41044307 14.15628059 10.43367258 -0.00092820 0.00766646 0.00335873
N 9.12561617 12.18014573 13.21186354 -0.00100213 -0.00259228 -0.00319145
N 7.59931031 15.33412617 15.28969561 -0.00093516 -0.00666283 0.00080901
N 10.41202605 17.42988951 18.17778632 -0.00083960 0.00232047 -0.00591511
N 11.38985007 14.34967882 15.19480530 0.00494726 -0.00596777 0.00444634
N 9.11291823 12.31458116 17.87318434 0.00649222 0.01041163 0.00268480
N 7.82477527 15.22677992 20.12278043 0.00076516 -0.00409693 -0.00325060
N 10.29152408 17.40689442 22.83802679 0.00480639 -0.00209122 0.00455630
N 11.60349610 14.32935089 20.00359981 0.00175632 0.00535730 0.00025925
N 8.98832996 12.25564313 22.91716601 0.00156927 -0.00095304 -0.00022272
N 6.88817057 21.89845874 0.90974169 0.00005174 0.00024846 0.00671016
N 9.44247260 24.16503376 3.96631310 0.00467430 -0.00231210 -0.00529328
N 10.91375830 20.95803969 1.03559968 -0.00274922 0.00309538 0.00259469
N 8.16293142 18.57573785 3.55471368 0.00048407 -0.00083553 -0.00044148
N 6.89016727 21.98692670 5.69276067 -0.00366095 0.00692547 0.00206110