2000
Time=78000.00000008 pbc="T T T" Lattice="31.15945529 0.00000000 0.00000000 0.00000000 29.98915190 0.00000000 0.00000000 0.00000000 23.70300903" energy=-12039.74656749 virial="-85.18410925 -42.14387986 2.99373226 -42.14387986 -68.55272208 24.50886081 2.99373226 24.50886081 -117.34263679" stress="-0.00178727 -0.00185736 0.00022341 -0.00185736 -0.00088771 0.00103148 0.00022341 0.00103148 -0.00268770" Properties=species:S:1:pos:R:3:vel:R:3
C 30.42996354 3.65197615 1.60327284 -0.00314946 -0.00232774 0.00277274
C 2.78686381 0.49239138 2.74051092 -0.00783238 0.00292414 0.00394609
C 30.51551965 3.37408629 6.43152432 0.00058635 -0.00324720 0.00343396
C 2.50832105 0.80849486 7.78452027 -0.00052900 -0.00163098 0.00140663
C 30.66039286 3.72872456 11.12318791 0.00399952 0.00326891 -0.00587845
C 2.46534748 0.79420697 12.36761597 -0.00292639 0.00138297 -0.00331304
C 30.55215760 3.24515453 15.79178162 -0.00045780 0.00197402 -0.00131868
C 2.61206045 0.71371519 17.20367736 -0.00404834 0.00414947 -0.00136601
C 30.66861775 3.64506888 20.64102229 -0.00757619 0.00390263 -0.00218522
C 2.72327137 0.55420874 21.92279601 0.00638388 -0.00068006 0.00383628
C 0.01420235 9.21624960 1.45166227 0.00339427 -0.00184437 -0.00268974
C 2.84451197 6.03883090 3.06782146 0.00396594 0.00321267 0.00052653
C 31.01501000 9.25669835 6.42794093 0.00113019 0.00314370 0.00553676
C 3.05008523 6.28458469 7.53525502 0.00744621 0.00047959 0.00492282
C 31.03883098 9.09753887 11.18467887 -0.00055631 -0.00166046 -0.00326017
C 2.86099374 6.10697670 12.41402903 -0.00253482 -0.00157086 -0.00071147
C 31.07976334 9.01496673 15.90841376 -0.00106408 0.00004550 -0.00013906
C 3.15343162 6.09721839 17.14372575 -0.00302407 -0.00123042 0.00454239
C 30.90278895 9.13805175 20.51211852 0.00374228 -0.00474908 0.00304696
C 2.76295660 6.12049894 21.90646742 -0.00142524 -0.00245939 -0.00109701
C 0.02786538 14.60889821 1.67868773 0.00181102 -0.00654337 0.00315988
C 3.33464566 11.78654431 2.85492782 0.00627333 -0.00123105 -0.00191726
C 0.09290981 14.81518298 6.28525630 0.00419260 -0.00259325 -0.00024320
C 3.48098078 11.99507536 7.71376628 0.00020966 0.00117203 -0.00434982
C 0.33495888 14.72948400 11.27338192 -0.00021067 -0.00296454 -0.00028380
C 3.34721296 11.93983249 12.44610944 0.00395290 0.00117575 -0.00275813
C 0.16453438 14.61944422 15.91215097 0.00046725 -0.00228814 -0.01142414
C 3.22803657 11.59995404 17.19787092 0.00360658 -0.00023705 -0.00246842
C 0.10104853 14.85366284 20.60716637 -0.00056749 0.00393496 -0.00351609
C 3.16548062 11.70788795 21.97258375 -0.00146827 0.00064884 -0.00370052
C 0.77403176 20.07460501 1.78257837 0.00080236 0.00129055 0.00005804
C 3.63066083 17.54548768 2.81496071 -0.00106670 -0.00135520 0.00310139
C 0.68682166 20.30801096 6.47535818 0.00570484 -0.00444631 -0.00570935
C 3.87255581 17.41869243 7.61548347 0.00264055 -0.00636511 0.00552959
C 0.62539611 20.38403535 11.33236190 -0.00716234 -0.00338460 0.00148947
C 3.63185003 17.54590030 12.63755893 -0.00399199 -0.00653788 -0.00933136
C 0.64522575 20.68683847 15.89877328 -0.00482045 -0.00348046 0.00207120
C 3.57204627 17.51499711 17.37251835 -0.00225426 0.00185409 0.00390446
C 0.62146131 20.54138714 20.66567103 -0.00201015 0.00229450 0.00526105
C 3.70631062 17.25065076 22.00750029 0.00289889 -0.00431911 0.00380700
C 0.09956698 27.04580275 1.72609507 0.00025898 0.00561113 0.00387592
C 3.32156732 23.73312188 3.04053058 -0.00070041 0.01145559 0.00298821
C 0.11394789 27.09088203 6.45188578 -0.00425090 0.00173903 0.00650647
C 3.01705695 23.99539575 7.71574694 -0.00159116 -0.00021038 -0.00369123
C 31.03391959 27.13496337 11.39806170 -0.00126454 -0.00462829 -0.01141859
C 3.19848351 23.90881877 12.62095613 -0.00265736 -0.00013102 0.00584250
C 30.73176435 27.11727265 15.94143159 0.00297198 -0.01463196 0.00500732
C 3.08992271 24.42078153 17.46347011 -0.00538897 -0.00314954 0.00302260
C 31.12184803 27.18289765 20.68182075 0.00395598 -0.00255593 -0.00517955
C 3.22165290 24.15670413 22.17675191 0.00110638 0.00244961 -0.00017027
C 5.98521676 3.29578810 1.55069601 0.00205861 -0.00626143 -0.00213096
C 9.09749684 0.04804491 2.84199993 0.00352930 -0.00792753 -0.01100136
C 6.35013251 3.07316236 6.34139285 -0.00281288 0.00296575 0.00296021
C 8.88812215 0.08626951 7.78541247 0.00140978 0.00527161 -0.00489173
C 6.13750991 3.46497261 11.42362934 0.00077424 0.00597516 0.00494598
C 9.09103579 0.51205680 12.49539016 0.00017273 -0.00167909 -0.00462870
C 6.14957211 3.07912756 16.08107667 -0.00413680 0.00335226 0.00396238
C 9.44410501 0.09130228 17.32018971 -0.00513352 -0.00160270 0.00241753
C 6.20252476 3.14317258 20.69480902 0.00852729 -0.00440092 0.00034621
C 9.27463576 29.89796405 21.87262498 -0.00725034 0.00231220 0.00066817
C 6.49722536 8.60890558 1.60244405 -0.00096320 0.00925172 0.00178409
C 9.55248398 5.96755418 2.99204444 -0.00305033 0.00189054 0.00055527
C 6.40209326 8.94540825 6.33315576 -0.00199562 -0.00431710 0.00077424
C 9.49897065 5.60664210 7.91167826 -0.00211803 -0.00166091 0.00848809
C 6.61811294 8.79970144 11.09322129 -0.00378863 -0.00229450 0.00880697
C 9.48657023 5.91915442 12.52043588 -0.00333797 0.00184060 -0.00116959
C 6.23116274 8.71688853 16.11891405 0.00518925 0.00044177 0.00070839
C 9.64475892 5.47624893 17.22991150 0.00049120 -0.00420442 0.00699023
C 6.31504953 8.72343360 20.78422539 0.00019186 -0.00070826 0.00281524
C 9.78830909 5.61563652 22.11005556 0.00653962 -0.00052775 -0.00225428
C 6.63815237 14.19278395 1.74816954 0.00077691 0.00191005 0.00352713
C 10.13904503 11.59083771 2.86785905 0.00045466 0.00286462 -0.00173417
C 6.90161115 14.29539214 6.35522319 -0.00353526 0.00061216 0.00070761
C 9.88359215 11.47752432 7.60229036 0.00007084 0.00358975 0.00373134
C 7.02614415 14.49390098 11.28607831 0.00277774 -0.00610170 -0.00107842
C 9.96561737 11.33022220 12.43475905 -0.00002568 -0.00136947 -0.00061522
C 6.53655395 14.39388641 15.95335152 -0.00457024 -0.00199428 -0.00403945
C 9.74061555 11.42782333 17.09168688 -0.00193701 0.00702516 -0.00091677
C 6.73474469 14.51962786 20.66941764 -0.00363249 -0.00166448 0.00057131
C 9.58496738 11.09844426 22.00061261 0.00148340 -0.00513154 0.00210038
C 6.36996443 20.96458192 1.66710329 -0.00011272 -0.00141971 0.00084113
C 9.24822906 17.67594054 3.07524626 0.00502005 0.00162722 0.00179890
C 5.98930320 20.69577193 6.55029062 0.00553085 0.00278202 0.00003224
C 9.53711848 18.09152164 7.82034974 0.00610691 -0.00296976 -0.00033880
C 6.15676649 20.88400349 11.24039667 -0.00051057 -0.00285621 -0.00002760
C 9.08869403 17.91264423 12.64977164 0.00336419 -0.00235961 -0.00608101
C 6.24648037 21.30608617 16.06296798 -0.00077028 -0.00203974 -0.00337124
C 9.37687692 17.69374400 17.27598751 -0.00130735 -0.00489523 0.00579341
C 6.27774526 20.81393199 20.94175330 0.00142397 0.00757914 0.00326626
C 9.31238414 17.55796324 21.93174749 -0.00037863 -0.00247908 -0.00055972
C 5.61466300 27.63447808 1.73782796 0.00738699 -0.00575649 0.00549716
C 8.73268763 24.46603843 3.04783620 -0.00235530 -0.00306797 -0.00313721
C 5.56731098 27.61427790 6.60971441 -0.00683201 0.00189457 0.00402243
C 8.65518155 24.67331476 7.72718794 0.00192202 -0.00184780 -0.00105705
C 5.77663742 27.44974087 11.22207564 -0.00282634 0.00181466 -0.00383109
C 8.82214524 24.59845430 12.63493891 0.00402876 -0.00243086 0.00645758
C 5.44141859 27.82983422 15.96349781 0.00038759 0.00634598 -0.00418891
C 8.63423097 24.72055826 17.38617727 -0.00147304 0.00587883 -0.00241029
C 5.64351511 27.43060090 20.88576775 -0.00125249 0.00145036 -0.00144419
C 8.97751682 24.73629262 22.03557460 -0.00185211 0.00759936 0.00298996
C 12.75155413 2.86873788 1.62385590 -0.00818791 0.00123728 0.00175123
C 15.88336356 29.89735983 3.04912615 -0.00771281 -0.00676467 -0.00252536
C 12.63371900 2.93174070 6.28062852 0.00141132 -0.00676219 0.00305904
C 15.84137757 29.86023809 7.67825115 0.00042617 0.00534869 0.00541900
C 12.47547971 2.99012789 11.05860595 -0.00326652 -0.00927877 -0.00469091
C 15.93487326 29.96487956 12.52920026 -0.00092260 -0.00724673 0.00196957
C 12.74527596 2.81783777 15.93413214 0.00060964 -0.00459045 -0.00121559
C 15.97540233 29.83579320 17.30346209 0.00500985 -0.00240666 0.00139283
C 12.75104452 2.76949243 20.66188731 0.00156932 0.00333746 -0.00052895
C 15.83707932 0.01134047 22.12882543 -0.00111331 0.00141553 0.00051371
C 13.19144970 8.53297772 1.69781184 -0.00300646 0.00001910 0.00116953
C 16.36588656 5.64755034 3.35959302 0.00330108 -0.00068659 0.00447207
C 13.36498629 8.43156059 6.51977646 0.00008648 -0.00245024 0.00362722
C 16.16015604 5.50898405 7.89116923 -0.00479529 0.01265963 0.00122772
C 13.11504483 8.39467558 11.08382817 -0.00398687 -0.00357547 0.00357449
C 16.16595176 5.58570303 12.53781841 0.00208104 -0.00139247 0.00201447
C 12.91591209 8.30817128 15.94706429 0.00228774 -0.00692711 -0.00304479
C 16.19357526 5.68900917 17.27908206 -0.00183775 0.00103005 -0.00082275
C 13.12353945 8.35852449 20.72372965 -0.00777536 0.00243229 -0.00552491
C 16.05791459 5.65379832 22.04514622 0.00037227 -0.00158770 0.00269378
C 12.28682745 14.91798159 1.64987962 0.00015544 -0.00321358 0.00094309
C 15.85897480 12.00763920 3.05153217 -0.01397417 0.00005468 0.00261046
C 12.40478670 15.06765106 6.53915438 0.00223700 0.00418842 0.00067226
C 15.65999123 12.02575056 7.69437358 -0.00411746 -0.00182970 0.00137549
C 12.30715250 14.96612229 11.27604051 0.00543511 -0.00102584 -0.00352212
C 15.28986810 12.20003609 12.42993702 -0.00606619 0.00287155 -0.00897906
C 12.44677822 14.77109323 15.87183581 0.00093903 0.00434036 0.00265180
C 15.38586816 11.93109948 17.22613022 -0.00306525 0.00228483 0.00378429
C 12.39362034 14.86791222 20.63728992 0.00414672 0.00223811 -0.00459524
C 15.35788878 11.91267761 21.89105356 -0.00224902 -0.00109531 0.00207414
C 11.87515324 21.38800644 1.60942859 0.00241828 -0.00167182 -0.00065592
C 14.73632512 18.40148529 3.28322979 0.00298542 -0.00637380 -0.00789530
C 11.55870935 21.61134308 6.52735192 -0.00121714 0.00081987 0.00215883
C 14.92552619 18.71700962 7.84925419 0.00141682 -0.00444927 -0.00456173
C 11.81109868 21.69176217 11.28654139 -0.00163415 -0.00015262 0.00073521
C 14.93552599 18.67905719 12.50393087 -0.00096418 0.00147112 -0.00080960
C 11.91327752 21.45837940 16.02273694 0.00321260 -0.00080069 0.00453935
C 14.91465096 18.53893231 17.36515738 -0.00450806 0.00202774 0.00057138
C 11.47513941 21.77300073 20.56590305 0.00000740 -0.00404321 0.00185377
C 15.05480863 18.70630728 22.11693722 0.00607621 -0.00149458 0.00202880
C 12.11104716 26.99379083 1.81049175 0.00370858 -0.01179996 0.00656596
C 15.41226883 24.20943052 3.19323304 -0.00250918 0.00084790 0.00424816
C 11.94247177 27.26173149 6.45003140 0.00718111 0.00340846 -0.00447236
C 15.27558481 24.14030800 7.89297789 -0.00296880 0.00002952 -0.00409739
C 12.06091454 27.27369589 11.29900110 0.00177011 -0.00175038 -0.00110199
C 15.21971319 24.20163490 12.68603292 -0.00503401 -0.00111709 0.00034090
C 12.40346809 27.11919396 16.12462319 0.00861338 -0.00137999 -0.00431491
C 15.24770093 24.04498163 17.39193176 -0.00260540 -0.00512362 0.00125134
C 12.40597442 27.31341917 20.69672247 0.00723630 -0.00293132 -0.00366766
C 15.41865937 24.19390204 22.23126210 -0.00575008 -0.00069504 0.00063226
C 19.24637407 2.49150127 1.80045065 -0.00657157 0.00266806 0.00372295
C 22.67602528 29.38159545 3.08629561 0.00046363 -0.00200638 0.00771728
C 19.54762084 2.40265043 6.57981351 -0.00480958 0.00324524 0.00555366
C 22.58132529 29.17067983 7.63944481 -0.00305782 0.00035927 0.00002924
C 19.21391590 2.31144585 11.18508237 0.00528424 -0.00284574 -0.00154902
C 22.29536067 29.38064169 12.27986340 0.00163108 0.00253698 -0.00391756
C 19.31811126 2.47632649 16.04012615 0.00113420 0.00060250 0.00380967
C 22.47713149 29.61622151 17.26183382 -0.00828757 0.00221988 -0.01175103
C 19.44769019 2.38425411 20.87141887 -0.00315448 -0.00400479 -0.00148444
C 22.44833389 29.38762623 22.17585784 -0.00004518 0.00138485 0.00107391
C 18.57016007 9.27102181 1.56386330 0.00547061 -0.00278502 0.00194157
C 21.69871627 6.21526235 2.94802403 -0.00036558 0.00266008 0.00475532
C 18.86341654 9.10575713 6.46421605 -0.00173467 -0.00289190 0.01099678
C 21.82673135 6.05582596 7.72202511 -0.00304459 -0.00053516 0.00319567
C 18.77219433 8.83867653 11.27729974 0.00087779 0.00105332 0.00490390
C 21.59107454 6.11954183 12.48454542 0.00383186 0.00315874 0.00675668
C 18.70600862 8.86095214 16.03418997 0.00521832 0.00056127 -0.00377750
C 21.60573079 5.93350686 17.11868585 0.00599211 0.00514201 0.00054751
C 18.55782617 9.12778107 20.50897699 0.00285491 -0.00182543 -0.00380709
C 21.67462581 5.90305160 21.67941849 0.00392516 -0.00003209 0.00046454
C 18.23736161 15.54319791 1.81029330 -0.00529503 0.00257353 -0.00352778
C 21.09385363 12.59807226 2.97916785 0.00906556 0.00251234 -0.00189549
C 18.11315307 15.77920991 6.45944937 0.00435605 0.00143492 -0.00396507
C 21.15162382 12.82073072 7.79570030 -0.00254512 0.00217234 0.00123865
C 17.79501271 15.86860728 11.18646027 -0.00835122 -0.00050251 -0.00166599
C 21.00453075 12.59787381 12.40269045 -0.00037707 0.00281248 0.00047844
C 17.89318539 15.53592427 16.13888948 0.00081979 0.00538852 -0.00090898
C 21.08676250 12.55264957 17.13323324 0.00035522 0.00350014 -0.00023596
C 18.20014160 15.61681417 20.78786894 -0.00327146 0.00195236 -0.00022573
C 21.19837987 12.36739963 21.83795829 -0.00213220 0.00334320 -0.00290317
C 18.74693350 21.14422352 1.95951763 -0.00384038 -0.00114209 -0.00276435
C 21.79018722 18.32459542 3.26011018 0.00166199 0.00044300 0.00574932
C 18.77648482 21.45661764 6.60835239 -0.00276054 0.00489267 0.00043605
C 21.57192685 18.19844744 7.79307645 0.00909876 0.00436532 -0.00916076
C 18.21051304 21.15282432 11.17539421 -0.00269301 0.00015298 -0.00000808
C 21.59946081 18.29837078 12.61516529 0.00268218 -0.00067982 0.00101990
C 18.60044661 21.09517848 15.93953782 -0.00268667 0.00508446 -0.00576659
C 21.58073069 18.30139473 17.31519832 -0.00013756 0.00161814 0.00007413
C 18.63758518 21.03784032 20.80253224 -0.00340686 -0.00184279 0.00063471
C 21.43485960 17.97084864 22.07933424 0.00502279 0.00315521 0.00169657
C 18.74515958 26.58082403 1.81752747 0.00485888 0.00444180 -0.00163353
C 22.04414553 23.86672463 3.02731981 -0.00452220 0.00078526 -0.00044188
C 19.03856223 26.72590471 6.65419376 0.00575153 -0.00472840 0.00069725
C 22.42048664 23.81378449 7.93389077 -0.00588123 0.00129030 -0.00040204
C 18.83831293 26.60413680 11.26669447 0.00315202 0.00505222 -0.00690957
C 21.94318726 23.55623683 12.44268885 0.00039757 0.00377185 0.00072596
C 18.90684150 26.59588415 16.10070674 -0.00489005 0.00175157 0.00245054
C 21.71253929 23.88113128 17.33478063 0.00055245 0.00432489 0.00586221
C 18.88637215 26.78704319 20.89228976 -0.00827201 -0.00468370 0.00179395
C 22.04126187 23.57179474 22.21393398 0.00081750 -0.00609294 0.00268640
C 24.91327655 3.23021568 1.88786600 -0.00496852 -0.01032188 -0.00631791
C 28.42077172 0.15218788 3.09781669 -0.00401813 -0.00433954 -0.00475452
C 24.86795066 2.61108692 6.41191997 0.00092808 -0.01067758 0.00361506
C 27.88752301 0.06242324 7.96320821 -0.00608383 0.00592321 -0.01179688
C 24.84126356 3.01619500 11.22897634 -0.00421358 -0.00380945 0.00129610
C 28.24298529 0.26161209 12.59808597 0.00165648 0.00403358 0.00015083
C 25.07320111 2.93656002 15.85149384 -0.00578812 0.00157044 0.00621296
C 27.89676278 29.83665642 17.39381794 -0.00454461 0.00322663 -0.00344679
C 24.85888537 3.04022127 20.88663116 -0.00335920 0.00233873 0.00306190
C 27.96771492 0.07323651 22.10104911 0.00635748 0.00339071 -0.00090541
C 24.08193112 9.86416376 1.38536946 0.00428188 0.00702448 -0.00149824
C 27.59039126 6.48957978 2.87661251 -0.00598992 0.00014598 0.00155072
C 24.32709240 9.59192812 6.12581820 -0.00503647 -0.00250409 0.00037496
C 27.47551610 6.51289606 7.61106236 -0.00129239 -0.00103729 -0.00359869
C 24.08585255 9.64636307 10.98095665 0.00048008 -0.00156512 0.00514589
C 27.77515738 6.42085161 12.36937148 0.00380933 0.00268717 0.00242736
C 24.20893813 9.52167042 15.70986413 -0.00715599 -0.00642569 -0.00040477
C 27.44446788 6.47862086 17.10797510 0.00307141 0.00093574 0.00238106
C 24.38689064 9.52942463 20.44250346 0.00097711 0.00194574 -0.00282702
C 27.41614039 6.52777641 21.90391578 0.00434737 0.00256540 0.00407028
C 24.58430360 15.24975647 1.61467592 -0.00291947 0.00079751 0.00002703
C 27.80100096 12.23835751 2.94221254 0.00519779 0.00416922 -0.00776947
C 24.56073647 15.27903565 6.37224543 0.00816743 0.00386869 0.00834024
C 27.63775972 12.03578915 7.73790562 0.00286015 -0.00297923 -0.00171885
C 24.86050746 15.02657565 11.18192706 0.00261338 -0.00249407 -0.00427574
C 27.84512223 12.15140868 12.41980128 0.00532549 0.00096362 -0.00098421
C 24.80307589 15.22996822 15.69331084 0.00246260 0.00261869 -0.00027786
C 27.78495775 11.90664144 17.08326230 0.00277947 0.00076379 0.00039104
C 24.78558796 15.55834363 20.67205681 -0.00014143 0.00765331 0.00175420
C 27.76431835 12.33337862 21.85022436 0.00531153 -0.00613962 0.00241507
C 25.25839869 20.77243113 1.61703355 -0.00051267 0.00225020 -0.00118832
C 28.32030992 17.70095890 3.07245131 -0.00573731 0.00184219 -0.00115019
C 25.49393394 21.16509799 6.53939012 0.00298810 0.00800159 0.00129356
C 28.46558469 17.82252630 7.72841914 0.00104236 0.00150290 -0.00356561
C 25.30842141 20.58450787 11.13135018 0.00349667 0.00044760 -0.00153924
C 28.41988061 17.93642172 12.29440566 -0.00689527 0.00180006 -0.00284443
C 25.23708447 20.61067023 15.76551475 0.00293670 -0.00176357 0.00538773
C 28.36281087 17.87735930 17.06370883 -0.00258878 -0.00268559 0.00309874
C 25.21507687 20.47330177 20.48310743 0.00468957 0.01137461 -0.00133973
C 28.20989581 17.60857553 22.04390499 -0.00468519 0.00012308 0.00254674
C 25.89762632 26.39109488 1.74355149 0.00578443 0.00179859 0.00552796
C 28.87585067 23.44039567 2.90539493 0.00034104 0.00740846 0.00415599
C 25.65458420 26.40266707 6.40194157 -0.00650892 -0.00204659 -0.00370450
C 28.47976804 23.50304165 7.64399972 -0.00252506 0.00040311 0.00502894
C 25.57756486 26.48560133 11.25683974 0.00547118 -0.00773076 -0.00433759
C 28.78083029 23.45709017 12.45041003 -0.00798897 0.00044880 -0.00773437
C 25.23416737 26.38335436 16.01338010 0.00313402 -0.00565288 -0.00368104
C 28.43015414 23.58121050 17.14364809 0.01002450 0.00360047 0.00184540
C 25.57717559 26.43020090 20.59243622 -0.00256755 -0.00279179 0.00245734
C 28.52339562 23.26928152 21.97566359 -0.00076615 -0.00677125 -0.00043471
N 0.04851110 4.58466054 1.10925374 0.00572631 -0.00306395 -0.00093722
N 3.39840376 5.10023075 3.82031579 -0.00098091 -0.00226233 -0.00002415
N 5.15730367 2.50258956 0.92754202 -0.00204771 0.00142131 0.00171497
N 1.86617782 1.16356310 3.43501069 0.00236967 0.00926539 0.00069368
N 0.17119495 4.23050658 5.72563404 0.00000417 0.00650275 -0.00389718
N 3.80138923 5.46911763 8.29704815 0.00983344 0.00444382 0.00143457
N 5.39704076 2.26495382 5.75139318 -0.00471695 -0.00507300 0.00093667
N 1.54396969 1.55826362 8.32828895 0.00269352 -0.00123861 -0.00325246
N 0.57543285 4.23852846 10.45292107 0.00756995 -0.00087844 0.00051030
N 3.51569522 5.18642745 13.13241345 -0.00855568 0.00124892 0.00150768
N 5.47897454 2.62899003 10.64987787 -0.00492885 0.00167895 0.00167598
N 1.81689537 1.52520179 13.31883147 -0.00051842 -0.00143631 0.00499349
N 0.27632582 4.05204090 15.09675533 0.00165357 0.00410817 -0.00945850
N 3.81886796 5.11402130 17.89165501 0.00190425 0.00124884 -0.00114060
N 5.27864048 2.38807559 15.20021802 -0.00337766 0.00100223 -0.00285569
N 1.61422849 1.30819321 17.95563926 0.00397721 -0.00736085 -0.00133293
N 0.16219369 4.46046240 19.79935234 -0.00231918 0.00458420 0.00986234
N 3.56563177 5.21844123 22.59938580 0.00315800 0.00024391 -0.00370517
N 5.45204696 2.18062954 20.06225029 0.00133195 -0.00387536 -0.00224936
N 1.97784357 1.42701867 22.65499431 -0.00126864 -0.00540051 -0.00203643
N 0.47473293 10.31577768 0.84236705 -0.00343252 0.00385735 -0.00247941
N 4.03763375 10.81971095 3.49031461 0.00618201 -0.00409951 -0.00447444
N 5.54055944 7.90111419 0.93971355 0.00235875 -0.00357267 0.00172370
N 2.26325080 7.02534038 3.73872452 -0.00373194 -0.00319917 0.00002667
N 0.35368173 10.20961326 5.59016796 0.00546794 -0.00808499 -0.00243294
N 4.04066706 10.94269655 8.30310091 -0.00349147 0.00020444 -0.00174530
N 5.73843664 7.88978356 5.69725910 -0.00432334 0.00095497 0.00204458
N 2.23689207 7.15506848 8.24464103 0.00441277 0.00357860 -0.00038646
N 0.52862249 10.07164214 10.51510975 0.00276702 0.00306357 -0.00051403
N 3.92500254 10.99311074 13.14738240 0.00551278 -0.00643886 -0.00220977
N 5.77491243 8.10686642 10.29040730 0.00346832 -0.00628398 -0.00291540
N 2.27103716 7.21007008 13.10351607 -0.00483408 -0.00358278 0.00103432
N 0.62157305 9.96914125 15.18485108 -0.00156379 -0.00299829 0.00008820
N 3.83276797 10.64240999 17.88430066 0.00340208 -0.00264163 -0.00610238
N 5.68750537 7.76436924 15.23895487 -0.00046014 0.00421660 -0.00099114
N 2.49517443 7.07749379 17.79566421 -0.00442869 -0.00315088 -0.00030188
N 0.46214803 10.07312272 19.79841112 -0.00099926 0.00253629 -0.00853711
N 3.94570496 10.83664127 22.66403944 -0.00174007 0.00039773 0.00530085
N 5.56546491 7.83587421 20.09754981 -0.00426257 -0.00073865 0.00286769
N 2.15407618 7.01815448 22.68719036 -0.00297648 0.00329893 -0.00094968
N 0.76819341 15.48516146 0.99494072 0.00522351 0.00111666 -0.00646360
N 4.47154025 16.62135008 3.38573772 -0.00273965 -0.00239566 -0.00511106
N 5.63348052 13.48225457 1.19301009 -0.00113948 -0.00199231 -0.00013775
N 2.60079224 12.63510944 3.64032172 -0.00056810 0.00228519 0.00440928
N 0.83937368 15.48957679 5.40601281 -0.00493967 -0.00608399 -0.00557887
N 4.51391004 16.53976712 8.43041719 0.00082587 -0.00638084 0.01282021
N 6.16714620 13.47207227 5.58701117 -0.00057228 0.00355111 0.00261739
N 2.87291230 12.90230415 8.51937331 0.00646463 0.00212984 0.00060030
N 0.99599392 15.58307917 10.48713390 0.00090230 0.00524746 -0.00845442
N 4.37774095 16.63431071 13.32501435 0.00328266 -0.00315527 -0.00362029
N 6.23617835 13.61544288 10.64028725 0.00541232 -0.00096276 0.00080878
N 2.65498975 12.91614163 13.15532040 0.00219184 -0.00197743 -0.00502272
N 0.90761690 15.59778530 15.29267856 0.00389820 0.00066183 -0.00085957
N 4.55374214 16.89074175 18.01201613 0.00131406 -0.00396983 -0.00818074
N 5.88461873 13.56109117 15.11816545 -0.00176996 -0.00421324 -0.00234139
N 2.59264806 12.47662604 18.02533757 0.00846190 -0.00078286 0.00117106
N 1.00346390 15.57459137 19.78927924 -0.00375683 0.00577687 0.00730241
N 4.74512549 16.71924476 22.78572696 -0.00134821 -0.00077748 0.00012973
N 5.79171252 13.74351334 20.08959547 0.00110268 -0.00361899 -0.00205021
N 2.69043677 12.75359900 22.63768518 0.00209663 0.00223862 -0.00170087
N 1.63414035 20.83798186 1.07285882 -0.00130302 -0.00304385 0.00056774
N 4.29113753 23.25018039 3.78602733 0.01146348 -0.00249553 0.00229062
N 5.63761144 20.23486604 0.88578691 0.00022283 0.00254863 0.00421325
N 3.03424376 18.33290548 3.75788807 -0.00389611 -0.00195415 0.00281278
N 1.51106821 21.12196168 5.75628817 0.00463873 -0.00552756 -0.00046453
N 4.16248597 23.60561301 8.35063789 0.00637028 0.00211031 0.00203479
N 5.45684639 19.91129095 5.56044346 -0.00456680 -0.00031962 0.00465064
N 3.04236223 18.29532091 8.23786030 -0.00035854 0.00661469 0.00485921
N 1.39230734 21.27655878 10.60921752 0.00527506 -0.00175462 0.00301998
N 4.27461586 23.41164443 13.31948769 -0.00273632 0.00569226 -0.00653783
N 5.22762484 20.17732392 10.52910405 -0.00604652 0.00164798 0.00213896
N 2.96757613 18.47399427 13.43408174 0.00358029 0.00369167 0.00005484
N 1.33900093 21.55251103 15.11048405 0.00112203 -0.00201125 -0.00431030
N 4.03945921 23.88730770 18.26819565 -0.00205569 0.00019763 -0.00171382
N 5.39048394 20.40893281 15.44084418 0.00425252 -0.00276654 -0.00619446
N 2.60193761 18.09167693 18.05105653 -0.00385757 0.00418785 -0.00332210
N 1.54349536 21.33890215 19.99486304 0.00113728 0.00057194 -0.00537873
N 4.19016697 23.53012602 22.97378016 -0.00324230 0.00137570 0.00194187
N 5.27789880 20.27203174 20.16036558 0.00775596 0.00009719 -0.00147779
N 2.81295865 17.99977971 22.69378201 0.00408717 0.00271325 -0.00660858
N 0.83900419 27.99028182 1.04349129 -0.00191237 -0.00021313 0.00196081
N 3.78855972 29.96621556 3.56292888 0.00054609 0.00432978 -0.00192928
N 4.69231569 26.89182196 1.04135062 0.00024658 -0.00185063 0.00161174
N 2.28027973 24.33339116 3.74859156 -0.00034663 0.00806634 0.00071807
N 0.88931022 28.01414659 5.80435748 0.00013210 0.00794419 0.00088042
N 3.22301056 29.93391015 8.49941680 -0.00703605 -0.00115182 -0.00215414
N 4.78286445 26.71924421 6.03776309 -0.00446108 0.00067726 0.00070055
N 2.09781041 24.53676469 8.51189748 0.00760623 -0.00729564 0.00017309
N 0.70357001 27.99618157 10.76634595 -0.00203883 -0.00091116 0.00089345
N 3.31980513 29.78320896 12.78734716 -0.00006036 -0.00779630 0.00262728
N 4.96491660 26.57372402 10.56308446 0.00301260 0.00257640 -0.00268762
N 2.24561326 24.49086828 13.43481401 -0.00001920 0.00046704 0.00169278
N 0.35904029 28.01077480 15.26762974 -0.01126163 0.00431537 -0.00002144
N 3.46335856 29.95447913 17.95441376 -0.00202947 0.00302055 -0.00418080
N 4.64371132 27.08074821 15.24918895 0.00120631 0.00548761 -0.00338267
N 1.98914700 24.93764551 18.03654711 0.00138965 0.00284482 -0.00652333
N 0.77135289 27.96835834 19.86237427 0.00150762 0.00266799 0.00589724
N 3.59336289 29.72390525 22.55943584 0.00490499 0.00066987 -0.00316732
N 4.71564041 26.71735557 20.20461355 -0.00223810 -0.00274291 -0.00702644
N 2.12042679 24.55847432 22.79329563 0.00119931 -0.00283623 0.00787981
N 7.00276144 3.96877164 0.84988979 -0.00066005 -0.00207902 0.00074593
N 10.06725588 4.79664484 3.49702555 -0.00242112 -0.00386498 -0.00571084
N 11.94324541 1.93806791 1.04789143 0.00686958 0.00417226 -0.00516842
N 8.60604338 1.18990328 3.44642779 0.00249658 -0.00346345 0.00124623
N 7.11864015 3.80956142 5.50859261 0.00022332 0.00020959 -0.00721643
N 10.10161951 4.63734615 8.62857580 0.00142945 0.00282604 -0.01012963
N 12.11011394 1.83983810 5.58615255 -0.00054656 0.00199510 -0.00404059
N 8.25482745 1.05286490 8.45205542 -0.00131353 -0.00199267 0.00382534
N 6.99962466 4.22398500 10.75222569 -0.00073985 0.00163688 0.00136508
N 10.14633222 4.99180448 13.22488262 -0.00296898 0.00183025 0.00678813
N 11.87636878 1.96536725 10.39767521 0.00158808 -0.00193372 -0.00135051
N 8.50818843 1.49112254 13.20670741 0.00149362 -0.00197554 -0.00496852
N 6.93441371 3.96554078 15.40837815 -0.00482618 0.00014955 -0.00468910
N 10.36538111 4.59085241 17.93200897 -0.00499811 0.00109327 -0.00708961
N 11.86120830 2.07683211 15.21382831 -0.00718900 -0.00389454 0.00156365
N 8.69651092 0.93832076 18.00811280 -0.00099614 0.00421098 0.00319468
N 6.99304816 3.97850036 19.92212149 0.00216592 -0.00164291 0.00183780
N 10.18616941 4.57059818 22.92559161 0.00133700 -0.00367960 0.00575125
N 12.04175392 1.88823484 19.83188052 -0.00828759 -0.00423634 0.00299443
N 8.56867999 0.79544094 22.63589227 0.00317322 -0.00537970 -0.00124342
N 7.42640624 9.28641671 0.85078567 -0.00213863 0.00640655 0.00389049
N 10.86977513 10.68857549 3.70795422 -0.00355291 0.00172582 -0.00420410
N 12.44790156 7.72236510 0.87998610 -0.00528911 -0.00392591 0.00054854
N 9.09020875 6.93133971 3.84980145 0.00377886 -0.00183208 0.00441561
N 7.31981820 9.66356319 5.58691908 0.00179778 -0.00168338 -0.00219952
N 10.82516862 10.66605607 8.14928129 -0.00392313 0.00664254 0.00007791
N 12.46042595 7.72797794 5.74248578 -0.00287631 -0.00253137 -0.00892525
N 9.01688805 6.69396983 8.59509340 -0.00263028 -0.00172627 -0.00473343
N 7.33042834 9.78329095 10.50128857 0.00331185 0.00154125 0.00131983
N 10.77566427 10.58654105 13.24698791 -0.00055275 -0.00139475 0.00295265
N 12.29229215 7.58749023 10.33728109 0.00096640 0.00168773 -0.00062364
N 8.59513751 6.71620355 13.17546783 -0.00040358 0.01021104 0.00338558
N 6.91839962 9.70966145 15.49666986 0.00119537 -0.00318213 0.00486146
N 10.48078366 10.53786698 17.82469193 0.00214651 -0.00245347 -0.00136874
N 12.01748505 7.54680972 15.32363904 -0.00041482 0.00206558 0.00154286
N 9.10402282 6.48436239 17.92167083 0.00563210 -0.00278858 -0.00082319
N 7.07772169 9.52830544 19.93327847 0.00628144 0.00950287 0.00354727
N 10.63923913 10.58918792 22.74911499 -0.00006856 -0.00280877 -0.00328105
N 12.39879370 7.53266328 19.92991480 0.00302670 0.00400630 0.00162809
N 9.17285935 6.70503797 22.75090332 0.00009536 0.00841487 0.00132476
N 7.44040492 14.95032483 0.97351200 0.00099321 -0.00104789 0.00533508
N 10.21645860 17.06723901 3.82101197 0.00175542 0.00604219 -0.00188188
N 11.41770695 14.31297283 0.75848633 0.00483317 -0.00233406 0.00270762
N 9.33074554 12.43337601 3.50291792 0.00042320 -0.00072037 -0.00134177
N 7.51492947 15.31134477 5.72870549 0.00932589 0.00109568 0.00358654
N 10.42733289 17.60557677 8.66561034 0.00768485 0.00079548 -0.00191037
N 11.51072138 14.21174254 5.90336006 -0.00146879 -0.00149342 -0.00146715
N 9.11413082 12.17931129 8.52519146 -0.00108822 0.00000785 -0.00023965
N 7.70128756 15.36299072 10.48004539 -0.00011641 -0.00157522 -0.00793935
N 10.10043631 17.40939286 13.37939625 0.00003730 0.00448827 0.00109459
N 11.60289819 14.19068719 10.46590251 -0.00737323 0.00477037 -0.00279859
N 9.08661668 12.06502055 13.13329348 0.00137671 -0.00618171 -0.00338786
N 7.44927030 15.22677618 15.37280699 -0.00281347 -0.00197145 -0.00037046
N 10.47378715 17.21286249 17.95420691 -0.00754126 0.00283618 0.00316476
N 11.65122263 13.96003552 15.16546313 -0.00214954 0.00170142 0.00240450
N 9.04455700 12.25902976 17.82049659 0.00562280 -0.00252409 -0.00004133
N 7.60759395 15.09068515 19.77366770 -0.00509525 0.00715861 -0.00322890
N 10.44016404 16.97930747 22.45194310 -0.00139980 -0.00065347 -0.00896318
N 11.55417278 14.22476755 19.82863551 -0.00054970 0.00395649 0.00118607
N 8.74843794 11.91686772 22.66146639 -0.00025374 0.00493000 0.00571636
N 7.29865335 21.87281191 1.21136575 -0.00059674 -0.00534915 0.00336356
N 9.52279873 23.62379086 3.78363968 -0.00464235 -0.00553475 0.00366233
N 11.10950939 20.50919432 0.84125506 0.00325945 0.00195636 -0.00162326
N 8.28455200 18.36253413 3.78221420 0.00424192 -0.00548151 -0.00422610
N 6.84538422 21.62710270 6.06881910 0.00517490 0.00426478 0.00134864