2000
Time=64000.00000006 pbc="T T T" Lattice="31.13424638 0.00000000 0.00000000 0.00000000 29.99408719 0.00000000 0.00000000 0.00000000 23.72286278" energy=-12043.98973548 virial="-43.47367603 -51.53216870 -7.35723084 -51.53216870 -23.81568572 -3.09021987 -7.35723084 -3.09021987 -27.98581066" stress="0.00025918 -0.00226988 -0.00038575 -0.00226988 0.00117631 -0.00013943 -0.00038575 -0.00013943 0.00143021" Properties=species:S:1:pos:R:3:vel:R:3
C 30.40440510 3.88950150 1.87980610 0.00319406 -0.00506133 -0.00096199
C 2.74742522 0.72050893 3.07742883 0.00123637 -0.00257932 -0.00184458
C 30.29203907 3.78750854 6.54431736 -0.00521814 0.00019133 -0.00033000
C 2.20315548 0.47875987 7.79425446 0.01064375 0.00201082 0.00483420
C 30.52153685 3.55572914 11.10300394 -0.00450930 -0.00079321 0.00737632
C 2.69383248 0.49252754 12.29289350 -0.00041994 -0.00204033 -0.00220540
C 30.69406662 3.81014298 15.77052697 -0.00261478 0.00162551 0.00153727
C 2.38543319 0.54992764 17.15380835 0.00134977 0.00345858 -0.00234814
C 30.43010414 3.62872304 20.64631572 -0.00255125 -0.00050483 0.00095773
C 2.49169426 0.60706980 22.13024862 0.00350035 -0.00191312 -0.00335944
C 30.81292997 9.24347519 1.81876190 -0.00311355 0.00817991 0.00503336
C 2.79172436 6.43791998 3.06495357 -0.00441556 -0.00296634 0.00273852
C 30.60613788 9.41512845 6.60211616 -0.00048914 -0.00133768 -0.00303902
C 2.84849583 6.15021825 7.83459443 0.00210427 -0.00169525 0.00150216
C 31.02939815 9.21512147 11.34372459 0.00892245 0.00782434 -0.00252694
C 2.88091204 6.19950157 12.59754929 -0.00444265 -0.00383884 -0.00199744
C 30.99581331 9.21025921 15.99002604 -0.00102297 -0.00166650 -0.00198213
C 2.66138349 6.41620487 17.27110272 0.00322065 0.00219488 0.00701064
C 30.87439348 9.19063672 20.74375661 -0.00242597 0.00816250 0.00064953
C 2.86598483 6.13402051 22.07620566 0.00116409 -0.00176505 0.00818667
C 0.05912370 14.94811732 1.78046314 0.00020200 -0.01222017 0.01353947
C 3.12354072 11.88368680 3.01197332 0.00202183 0.00083855 -0.00032302
C 0.17258802 14.83727832 6.41990242 0.00681641 -0.00462026 -0.00232689
C 3.31636225 12.02672297 7.82208890 0.01047329 0.00236639 0.00232624
C 0.09796170 14.81626957 11.18751137 0.00066012 0.00008108 0.00227879
C 3.35830048 11.92534741 12.46912003 -0.00492547 0.00258055 0.00051654
C 0.24144684 14.96916067 16.09752691 -0.00223212 0.00003819 0.00038911
C 3.56659181 11.48226167 17.37970795 -0.00216462 0.00146985 0.00367096
C 0.08223422 14.59400366 20.71888321 0.00075785 -0.00035710 -0.00187726
C 3.27502444 11.75120841 22.02374105 -0.00106529 -0.00358167 -0.00069288
C 0.58877114 20.50934313 1.58503248 0.00112129 -0.00534126 -0.00189960
C 3.43417186 17.81123330 2.95829575 -0.00011916 0.00077577 -0.00103728
C 0.49279213 20.58942962 6.49058750 0.00065096 -0.00361074 -0.00620583
C 3.62810298 17.68943690 7.98273597 0.00341562 -0.00239025 0.00213028
C 0.73129980 20.44933428 11.33633579 0.00362307 -0.00898631 0.00078309
C 3.81201086 17.38161944 12.52145226 0.00325102 -0.00065827 -0.00449665
C 0.81370417 20.36070761 15.94971409 -0.00104821 0.00406906 0.00528663
C 3.67462258 17.01312712 17.36747874 -0.00493697 0.00767043 -0.00405544
C 0.65244375 20.27746878 20.50297301 0.00123170 -0.00357260 0.00593437
C 3.95953661 17.37926901 21.90480438 0.00146864 -0.00006120 -0.00804463
C 31.05576249 27.21068494 1.60905533 0.00182626 -0.00600827 0.00232261
C 3.03700173 24.16815631 2.98259850 0.00088904 -0.00536096 0.00563175
C 0.12419507 27.02087797 6.30193040 0.00838912 -0.00182474 0.00013264
C 3.09842138 24.28149788 7.67655288 0.00006220 0.01026707 -0.01216016
C 0.18382512 26.94914304 11.21002158 0.00337328 0.00744852 -0.00505651
C 3.23417875 24.11008707 12.50301132 -0.00096414 0.00656430 -0.00367434
C 31.06505353 27.12719333 16.05260579 0.00041355 -0.00239652 0.00729772
C 3.09676235 23.75876792 17.28227497 -0.00202567 0.00037244 -0.00373618
C 0.07764550 27.09417746 20.62676118 0.00261310 -0.00130497 0.00449682
C 3.16411701 24.06015363 21.97311507 0.00121747 -0.00279218 0.00045196
C 5.92896847 3.69774634 1.67712004 -0.00034382 -0.00001581 0.00335650
C 9.29886990 0.50680869 3.11227406 0.00343204 -0.00337269 -0.00299635
C 6.01907282 3.06807830 6.36744803 -0.00637531 -0.00101149 -0.00171295
C 8.94825033 29.94545157 7.71130239 0.00347457 0.00146548 0.00248638
C 5.93892752 3.16757544 11.19448860 0.00299471 0.00159643 -0.00167658
C 9.12677510 29.96001760 12.41582018 -0.00956359 -0.00679635 0.00107612
C 6.12986490 3.26093496 15.87880516 0.00098639 0.00063604 0.00500962
C 8.95199546 0.21442386 17.16333461 0.00182339 -0.00100484 -0.00006529
C 5.85571204 3.43938246 20.70898405 -0.00715515 0.00256784 -0.00356641
C 8.94303454 0.35900918 21.87449772 0.00471276 0.00173219 -0.00271401
C 6.20929555 9.03409164 1.91437137 0.00254179 -0.00107652 -0.00165609
C 9.45836539 5.79571014 3.04055118 -0.00944907 0.00131550 -0.00732643
C 6.41767227 8.95074321 6.43757342 0.00474304 -0.00300500 -0.00230471
C 9.73608020 5.92953644 7.64057796 -0.00076107 -0.00438370 -0.00170169
C 6.43531453 8.83330204 11.24120375 0.00194047 0.00405096 0.00684539
C 9.49777305 5.58789065 12.39961011 0.00279791 -0.00082866 0.00576416
C 6.44152012 8.86290925 15.94609163 -0.00316779 -0.00264956 -0.00201682
C 9.41433259 5.75797371 17.21072616 -0.00031656 0.00296942 0.00314419
C 6.44286658 8.83740675 20.84753435 0.00451427 -0.00002807 0.00246632
C 9.43015848 5.91109862 22.00389596 -0.00228506 0.00215433 -0.00056819
C 6.59662825 14.48247439 1.73170518 -0.00578600 -0.00225023 0.00130289
C 9.86059544 11.21893573 2.97678037 -0.00420412 0.00099120 0.00997233
C 6.29339706 14.45396952 6.24886498 -0.00110444 -0.00098159 -0.00349789
C 10.00087347 11.59124423 7.67093189 0.00301096 0.00061284 -0.00492778
C 6.84677413 14.43681487 11.24329258 -0.00406132 0.00246216 0.00349517
C 10.09994542 11.39913979 12.34888457 -0.00469956 0.00305264 0.00452324
C 7.09108871 14.40498905 16.03374694 0.00376476 -0.00196783 -0.00451558
C 9.97655902 11.53195459 17.19339567 -0.00009921 -0.00314245 -0.00446698
C 7.05149071 14.31797995 20.95100721 0.00174098 -0.00014655 -0.00415025
C 10.07134645 11.57003431 22.11275511 -0.00178591 0.00352422 -0.00367118
C 5.88576986 21.12509956 1.91181469 0.01037079 -0.00449366 0.00224827
C 8.94241121 17.81292163 3.17724195 -0.00690007 -0.00156640 0.00467163
C 6.01695833 21.05120065 6.55091147 -0.00052665 0.00140530 -0.00166304
C 9.22752539 17.87611277 7.74733001 0.00220095 0.00024846 -0.00607929
C 6.27046989 21.21033008 11.19999430 -0.00141399 0.00709916 -0.00220321
C 9.47276554 18.02077559 12.59957906 -0.00555308 -0.00141126 0.00404517
C 6.32623855 20.84760374 15.93972701 -0.00553876 -0.00639977 -0.00451094
C 9.45781728 18.01306365 17.36590137 0.00004652 -0.00403986 0.00254155
C 6.51820384 20.68033774 20.72061774 0.00087917 0.00638845 0.00754770
C 9.49449277 18.01766468 22.09679279 0.00679682 -0.00009279 0.00480041
C 5.57175979 27.64595928 1.72013719 -0.00316968 0.00098810 0.00106868
C 8.90723621 24.48025328 3.02858761 -0.00498535 -0.00077055 0.00124454
C 5.36110724 27.56254841 6.54969461 -0.00729905 -0.00303430 -0.00170718
C 8.67733268 24.57891476 7.66562341 -0.01211872 0.00688926 -0.00090913
C 5.74143454 27.76053847 11.22012731 0.00075026 -0.00570273 0.00036731
C 9.01586774 24.29559466 12.66339609 0.00420052 0.00245536 0.00635526
C 5.50228100 27.68798272 16.11550445 -0.00251639 -0.00539442 -0.00235334
C 8.91827566 24.64737530 17.14578564 0.00652997 -0.00224436 0.00545831
C 5.42010177 27.72368105 20.73165919 -0.00551621 0.00931651 0.00227391
C 8.71509940 24.44138290 22.00898120 0.00356734 0.00220863 -0.00746453
C 12.94889189 2.61067783 1.68804142 -0.01186752 0.00056748 -0.00131053
C 15.97917246 29.66240105 2.99887763 -0.00099073 0.00242870 -0.00089058
C 12.57771158 2.63544739 6.33022448 -0.00467569 -0.00305510 -0.00050708
C 15.78681802 29.54992372 7.70943196 -0.00058288 -0.00118176 0.00326414
C 12.53054249 2.53683581 11.01803096 -0.00034734 -0.00155486 0.00100639
C 15.88996491 29.76938558 12.35021060 0.00639819 -0.00003639 0.00028556
C 12.69110607 2.37271325 15.82519543 0.00038708 0.00610770 0.00226969
C 15.92738138 29.81132427 17.12261471 -0.00317303 0.00348728 -0.00456347
C 12.83093302 2.65159175 20.62003758 -0.00022539 0.00876859 -0.00137732
C 15.80610410 29.72569100 21.91300663 -0.00082533 0.00454227 0.00370597
C 12.99939128 8.27127306 1.67499151 0.00769385 0.00377282 -0.00223745
C 16.19820276 5.27430578 2.95587975 -0.00496039 0.00308042 0.00164525
C 13.33637481 8.34336092 6.56298275 -0.00084527 -0.00688340 0.00355021
C 15.97960603 4.98138725 7.65370687 0.00423066 -0.00030339 0.00409671
C 13.11396647 8.31256268 11.11082702 -0.00326712 0.00155072 0.00298990
C 16.21589467 5.25710272 12.22097296 0.00325826 -0.00626832 -0.00040651
C 13.27544415 8.30331433 15.89737280 -0.00262372 -0.00666685 0.00557253
C 15.85205421 5.50212311 16.93542432 -0.00011854 -0.01130948 -0.00575964
C 13.11791474 8.15072378 20.59774942 0.00610910 -0.00352843 -0.00506282
C 16.07272843 5.56611873 21.78670127 0.00050890 -0.00679859 0.00071441
C 12.35058098 15.10507459 1.57201686 0.00788884 -0.00704016 0.00128797
C 15.72072955 11.79793113 3.16924082 -0.00197869 -0.01000940 -0.00176526
C 12.38950292 15.12401219 6.17022937 -0.00211973 -0.00360819 0.00081119
C 15.62207844 11.90959640 7.79540688 0.00714296 0.00280429 0.00303960
C 12.32874317 15.35572361 10.98029068 0.00187648 -0.00003311 -0.00424441
C 15.51980758 11.98500509 12.48905182 0.00451812 -0.00488362 0.00205378
C 12.80134875 15.13260760 15.88450551 -0.00341470 -0.00085489 0.00333877
C 16.01416355 11.97803740 17.16680699 -0.00281215 -0.00447356 -0.00279395
C 12.79112227 14.81777703 20.67228516 0.00045232 0.00152043 -0.00566371
C 15.57508778 11.73651156 22.16225035 -0.00193525 -0.00178766 0.00555954
C 11.95377764 21.54110770 1.53533810 -0.00407991 -0.00137115 -0.00487653
C 14.91172657 18.60630406 3.11990342 0.00549667 -0.00418177 -0.00047667
C 11.79355939 21.55248250 6.14888966 -0.00309913 0.00162245 0.00094421
C 14.85653341 18.93383523 7.67800263 -0.00758748 0.00328626 -0.00266495
C 11.69215372 21.55846806 11.16118150 0.00646407 -0.00448932 -0.00411904
C 14.83509180 19.07880765 12.55094803 -0.00622237 -0.00228374 0.00093893
C 11.79445157 21.77168793 16.15285342 -0.00011841 0.00080872 -0.00307492
C 15.05780028 18.56968331 17.19579124 -0.00237460 -0.00856592 0.00023031
C 12.05218982 21.47970685 20.66315453 0.00187161 -0.00232606 0.00752905
C 15.07893339 18.39709943 21.97371278 0.00585118 -0.00494741 0.01307712
C 12.36169013 27.23199136 1.79297152 -0.00822901 -0.00800264 0.00258347
C 15.26567378 23.89404995 2.94791793 -0.00365391 0.01131611 0.00462468
C 12.30455369 26.94444083 6.34693613 -0.00948510 0.00570336 0.00584375
C 15.37874684 24.05287095 7.87926861 -0.00506288 -0.00218396 -0.00373852
C 12.21605031 27.23718949 11.18266429 -0.00027661 0.00486280 -0.00104389
C 15.28300459 24.07718015 12.59611391 0.00088788 -0.00932938 0.00146912
C 12.31988657 27.32508731 15.96229005 -0.00057092 0.00108237 -0.00428545
C 15.27180402 24.24737904 17.38551151 -0.00369711 0.00572910 0.00516700
C 12.19706672 27.09378197 20.64572617 -0.00464738 0.00402205 0.00115608
C 15.53157074 24.24697941 22.02865408 -0.00263795 -0.00557745 -0.00573047
C 19.23130330 2.18704655 1.55735630 0.00010803 -0.00567125 0.00084616
C 21.97223637 29.13730536 3.03655295 0.00236171 0.00125922 -0.00071172
C 19.27824219 2.14653765 6.42485159 0.00180685 -0.00477743 -0.00429704
C 22.35097842 29.23353306 7.79098733 0.00063361 -0.00126754 0.00009570
C 19.65035875 2.35295957 11.16218057 0.00038261 0.00338680 0.00012494
C 22.53159436 29.37095694 12.24441925 0.00287227 -0.00403584 -0.00352806
C 19.24790901 2.26658634 15.84418695 -0.00312157 -0.00247600 -0.00307835
C 22.36190528 29.68019765 17.21498645 0.00090313 -0.00770539 0.00178101
C 19.11248150 2.35029413 20.41874373 0.00214015 -0.00327995 -0.00427471
C 22.15563225 29.13978751 21.93317434 -0.00461968 0.00811620 0.00462473
C 18.59208028 8.92915513 1.85909506 0.00070286 -0.00246352 0.00163525
C 21.56310280 5.72692908 2.98435392 -0.00246614 0.00235604 -0.00008889
C 18.81951228 8.83817609 6.41469431 0.00424110 -0.00119446 -0.00071094
C 21.80170278 5.82002385 7.71290571 0.00130819 -0.00491478 -0.00520676
C 18.92274576 8.84598485 11.41355752 -0.00031763 0.00496462 -0.00086916
C 21.97126910 5.91705103 12.42422131 0.00388646 0.00218255 0.00505296
C 18.82987410 9.02153017 15.98983099 -0.00118994 -0.00147909 0.00038494
C 21.81585985 5.99313319 17.23726601 0.00973331 0.00362672 0.00020789
C 18.63218613 8.86112107 20.89094207 -0.00108455 0.00433799 -0.00215061
C 21.66949683 5.86406214 21.87282675 -0.00162091 -0.00269267 0.00216097
C 18.07576724 15.69272030 1.73777596 -0.00538489 -0.00187075 0.00302165
C 21.29265449 12.35259751 3.12771054 0.00190078 0.00602225 -0.00042844
C 17.78932675 15.72957090 6.43192169 -0.00691585 -0.00290918 0.00130799
C 20.96488124 12.48423374 7.93453598 0.00494738 -0.00581319 -0.00672172
C 17.77198901 15.81431543 11.28826250 0.00651211 0.01261461 0.01679107
C 21.35427867 12.45015885 12.64737695 0.00202640 -0.00137219 0.00465908
C 18.09417139 15.63906327 15.89632322 -0.00621441 -0.00021097 0.00517866
C 21.33140365 12.63230891 17.31248467 0.00069578 0.00103839 -0.00129047
C 18.27568290 15.34257981 20.78663288 0.00355005 0.00034927 0.00177084
C 21.33808392 12.49825908 21.97819164 0.00160560 -0.00326448 0.00684620
C 18.28751098 21.09176813 1.43498689 0.00701157 -0.00388052 0.00129036
C 21.66091619 18.25738040 3.10591191 0.00351249 -0.00222182 0.00210947
C 18.49265239 21.29970910 6.48743557 -0.00879834 -0.00207663 -0.00876734
C 21.70512756 17.99928021 7.82474831 0.00102386 0.00382139 -0.00416138
C 18.67181815 21.28612777 10.99461402 0.00783609 -0.00560082 0.00744706
C 21.64886987 18.21023887 12.80054407 0.00581427 -0.00220326 -0.00680514
C 18.05053328 21.27249500 16.07623237 -0.00246679 0.00377156 0.00463352
C 21.76674811 18.40013610 17.44771913 0.00263004 0.00289469 0.00832701
C 18.48755474 21.32632997 20.64230075 0.00134225 0.00105264 0.00104333
C 21.62425525 18.12590573 22.19957094 -0.00100630 0.00225548 0.00023962
C 19.05729928 26.64298983 1.66445109 -0.00260615 -0.00017468 0.00375652
C 22.15008132 23.70418331 2.84839232 0.00438840 -0.00960541 -0.00370105
C 18.95778606 26.76990604 6.53281482 0.00037974 -0.00798441 -0.00269893
C 22.36011314 23.69961319 7.87336594 -0.00011896 0.00194799 -0.00238801
C 18.59302949 26.59033368 11.21756817 -0.00014107 -0.00243209 -0.00470648
C 21.83296373 23.79393725 12.58599430 0.00502341 0.00146130 -0.00570205
C 19.11772134 26.69398689 16.00842234 0.00058601 0.00421269 -0.00166019
C 21.99809468 23.59181794 17.21559229 0.00250607 -0.00440304 -0.00588394
C 18.89123394 26.64423238 20.57822121 -0.00128657 -0.00041882 -0.00237472
C 22.07642954 23.85296298 22.00932531 -0.00474602 0.00729219 0.00419248
C 24.58244295 2.96149237 1.70074063 0.00181455 0.00174628 -0.00051538
C 27.88417544 29.70692293 2.94977857 0.00144109 -0.00379381 -0.00747292
C 24.78684221 2.79863256 6.35602761 0.00248340 -0.00371174 0.00027949
C 28.02014717 0.25740513 7.73465427 -0.00918202 0.00169572 0.00485187
C 24.85645501 3.26545428 11.30317532 -0.00148676 -0.00200407 -0.00671903
C 27.84304819 0.11322745 12.51040566 -0.00511381 -0.00385166 -0.00317171
C 24.68446998 3.17485334 15.88701683 -0.00341337 0.00416936 -0.00709848
C 27.81898740 0.04238850 17.33965060 -0.00202269 -0.00925894 0.00476744
C 24.91872150 3.06169851 20.69111335 -0.00818471 -0.00279733 0.00103085
C 28.11140822 0.09361511 22.11026100 0.00366946 0.00389043 0.00229617
C 24.10618490 9.52098359 1.70937757 0.00892511 -0.00017260 -0.00680777
C 27.33514510 6.37681647 3.03351647 -0.00650398 -0.00758627 -0.00242124
C 24.45515191 9.41872166 6.46327628 -0.00217137 0.00223928 -0.00386361
C 27.48623572 6.69121320 7.78176013 -0.00514326 0.00260471 0.00414697
C 24.26661789 9.68490171 11.16275578 0.00196478 -0.00213926 0.00822765
C 27.64825801 6.50523247 12.65339133 -0.00516714 0.00281074 -0.00319861
C 24.18349610 9.55976306 16.03205558 0.00282617 -0.00077846 0.00766781
C 27.43328742 6.62995844 17.30850316 -0.00072592 -0.00664608 0.00086116
C 24.16976622 9.72659004 20.69455665 -0.00082721 0.00324814 0.00558059
C 27.24666686 6.84296263 22.10094035 0.00002592 0.00735943 -0.00316322
C 24.71027939 15.24693839 1.87165744 -0.00341998 0.00175469 -0.00179808
C 27.81654866 12.14537081 3.31506209 0.00084019 0.00743292 -0.00396845
C 25.00743292 15.32531105 6.60171782 -0.00336003 -0.00136448 -0.00363358
C 27.64780756 12.40184656 8.00476846 -0.00057302 -0.00245602 0.00332343
C 24.52038070 15.05461361 11.46585266 -0.00211930 -0.00449540 0.00177635
C 27.90267269 12.19859244 12.67176053 -0.00204822 0.00142561 -0.00117547
C 24.74107453 15.29661938 16.23703182 -0.00274487 -0.00380373 0.00167145
C 27.69572758 12.24629082 17.50754901 -0.00133833 0.00076727 -0.01075754
C 24.61830429 15.07802376 20.79878099 -0.00158926 -0.00220590 -0.00603212
C 27.59209620 12.33672680 22.34140042 -0.00359154 -0.00255552 0.00026387
C 24.94787310 20.61788716 1.83381667 0.00452228 -0.00369208 -0.00119326
C 28.13162017 17.85674733 3.10695946 0.00165186 -0.00480153 0.00190708
C 25.03545329 20.77711062 6.62609216 0.00272656 0.00716471 0.00044021
C 28.18414807 18.14019917 7.74037847 0.00299132 0.00483770 0.00250521
C 25.12839891 20.76964378 11.46824188 0.00646199 -0.00472139 -0.00390982
C 28.38832036 18.04310524 12.57026363 -0.00385281 0.00915195 0.00110706
C 25.11922257 20.84913032 15.92484679 -0.00209263 0.00826178 -0.00432407
C 28.22281158 17.94397281 17.21600861 0.00064558 0.00641269 -0.00868986
C 25.11435611 20.73682512 20.87583135 -0.00015717 0.00940018 -0.00687162
C 28.27167695 17.95793869 21.99636147 0.00340625 -0.00189711 -0.00348273
C 25.43015038 26.32925991 1.50123933 -0.00494845 0.00020324 -0.00019531
C 28.97009062 23.58142343 3.01052597 -0.00543889 -0.00094780 -0.00012230
C 25.81500908 26.50113968 6.24052118 0.00123627 0.00042059 0.00015648
C 28.82328903 23.35312800 7.68767646 0.00320129 -0.00514783 0.00835100
C 25.79824273 26.34576942 10.98533587 0.00049869 -0.00217020 0.01143887
C 28.88881649 23.56219998 12.38982956 -0.00419713 -0.00692465 -0.00243817
C 25.58888644 26.33710930 15.82166407 0.00826705 -0.00678951 -0.00502871
C 28.50328601 23.29923262 17.35358421 0.00594170 0.00383922 -0.00241254
C 25.75151017 26.37658369 20.51485405 0.00225624 -0.00064368 -0.00323807
C 28.70698664 23.31266236 22.00075558 -0.00709115 -0.00128296 0.00581436
N 0.00685625 4.70268794 1.02664227 -0.00419797 -0.00361738 -0.00013432
N 3.31771427 5.38243514 3.81909447 -0.00563402 -0.00315486 0.00095162
N 5.37448935 2.65145264 1.01032209 0.00324550 -0.00636360 -0.00448195
N 1.86784610 1.54156614 3.71800385 -0.00922259 -0.00254749 -0.00342760
N 31.04236357 4.65119300 5.85657678 -0.00878824 -0.00528965 0.00528589
N 3.47095506 5.20667841 8.51166803 -0.00095776 0.00217234 0.00346948
N 5.14122923 2.34251342 5.60763686 -0.00156144 0.00096229 0.00571251
N 1.33070044 1.27932705 8.51727402 -0.00288817 -0.00183895 0.00544405
N 31.11916470 4.51444755 10.38244537 -0.00286264 0.00017494 -0.00260406
N 3.53215948 5.26572459 13.29502962 -0.00283153 -0.00118257 -0.00506338
N 5.23469464 2.22597473 10.44885517 0.00274631 -0.00139921 -0.00304575
N 2.00847418 1.40873178 12.99888799 0.00379910 0.00463905 -0.00269344
N 0.45759491 4.45946961 15.01574086 -0.00076666 -0.00039225 -0.00032673
N 3.24124712 5.50541756 18.06369668 -0.00038943 -0.00045158 0.00204567
N 5.18646523 2.45124603 15.30600734 0.00107287 0.00111228 -0.00301845
N 1.64373381 1.36025442 17.93187624 -0.00161445 0.00322849 0.00035906
N 0.24471779 4.50133404 20.13246526 0.00159222 0.00490884 0.00119413
N 3.56838689 5.21111049 22.79262175 0.00036090 -0.00168632 0.00104362
N 4.99965206 2.67587877 20.00646653 0.00520946 -0.00476433 -0.00174672
N 1.68930265 1.46822402 22.89068104 0.00134251 -0.00077032 -0.00359605
N 0.57651029 10.05154841 1.12597868 0.00130761 -0.00158740 -0.00466356
N 3.62430495 11.00621870 3.94271373 -0.00191062 0.00321285 0.00357466
N 5.46030825 8.04636753 1.27795580 0.00456956 -0.00128593 -0.00298167
N 1.99887802 7.23709151 3.85494643 -0.00125180 -0.00108737 0.00452281
N 0.32716682 10.28635355 6.01603592 -0.00419023 -0.00321569 -0.00750147
N 3.79907362 11.02985538 8.57111165 -0.00484884 -0.00335648 0.00040157
N 5.73652137 7.96969075 5.79206283 0.00424169 0.00060268 -0.00350829
N 2.46221097 7.27738437 8.45430651 0.00292409 0.00217963 0.00610373
N 0.64433936 10.05810228 10.63780536 -0.00087563 0.00299113 0.00187248
N 4.05919426 10.95096237 13.19537279 -0.00315877 0.00066805 -0.00739179
N 5.55821795 8.15720273 10.40207235 0.00161263 0.00165640 -0.00854845
N 2.27703784 7.17689620 13.28557156 0.00347493 0.00243299 -0.00294000
N 0.72718767 10.12465210 15.52969199 -0.00542668 0.00238293 -0.00708144
N 4.14090968 10.56604676 18.19104826 -0.00632141 0.00215143 -0.00472214
N 5.81513268 7.95541196 15.14914172 0.00379818 0.00503551 -0.00021832
N 2.07200985 7.52051721 17.86955282 -0.00009889 0.00671065 -0.00262963
N 0.55575294 10.08380115 20.06115158 -0.00262030 0.00154955 0.00454572
N 3.65766102 10.68644992 22.84828523 0.00079815 0.00348742 -0.00564801
N 5.51361899 8.11126686 20.12471785 0.00297851 -0.00117845 -0.00124109
N 2.20900253 7.10183728 22.75353694 -0.00052024 0.00189901 0.00600486
N 0.96863044 15.52762635 0.88084127 0.00502463 -0.00454618 -0.00514142
N 4.31208500 16.97480780 3.55082311 0.01092909 -0.00289688 -0.00291699
N 5.87619329 13.63948682 0.92313203 0.00120238 -0.00114778 -0.00139054
N 2.43266312 12.93339709 3.49711176 0.00064488 0.00572161 0.00258686
N 0.98281685 15.57109432 5.60331804 -0.00284082 -0.00379392 -0.00055420
N 4.66146436 17.01531301 8.55950511 -0.00048674 -0.00043728 -0.00442434
N 5.67115259 13.52941212 5.50223080 0.00197151 -0.00312147 -0.00045174
N 2.63857637 12.99012487 8.55035929 -0.00066500 -0.00127363 0.00160899
N 0.83928436 15.77151752 10.52618776 -0.00135594 0.00161300 -0.00344172
N 4.43202921 16.50355102 13.40641177 0.00058233 -0.00306011 -0.00562318
N 6.13725410 13.46801228 10.58900107 0.00317392 -0.00160638 0.00331164
N 2.64991023 12.83993614 13.19521632 -0.00714163 0.00224514 0.00544958
N 1.04014079 15.75591793 15.31832664 0.00596864 0.00358566 -0.00041736
N 4.48169633 16.29110382 18.16003298 -0.00312722 0.00034036 0.00546501
N 6.37942141 13.53742546 15.28442201 -0.00255646 0.00387189 0.00082137
N 2.71739281 12.37224855 18.00752762 0.00048808 0.00607958 -0.00201282
N 0.90717402 15.50456323 20.09377990 -0.00225354 -0.00453807 -0.00016413
N 4.51606825 16.52721571 22.81849034 0.00347035 -0.00297497 0.00507434
N 6.35555854 13.50352229 20.16123044 0.00073827 0.00318633 0.00155212
N 2.74396577 12.82848481 22.69093505 0.00296639 -0.00117875 -0.00055356
N 1.46542905 21.34180656 0.93182906 -0.00329081 0.00059016 -0.00443071
N 3.88895851 23.40098456 3.65390947 0.00320124 -0.00046468 0.00259433
N 5.16090899 20.30314786 1.11145981 -0.00457006 -0.01212308 -0.00458369
N 2.58917240 18.47561467 3.84196680 -0.00281039 0.00665375 -0.00599564
N 1.39948840 21.14026612 5.64424126 -0.00337239 -0.00495548 0.00019130
N 4.06312814 23.49553354 8.16705426 -0.00041228 0.00098293 0.00239443
N 5.07452863 20.51013257 5.76897332 -0.00633300 -0.00034884 -0.00143052
N 2.73938771 18.29351705 8.90270496 0.00335125 0.00229337 0.00048371
N 1.54123853 21.31623052 10.64940813 -0.00175561 -0.00007747 0.00220453
N 4.24054020 23.48738536 13.20121882 0.00201437 -0.00178831 -0.00230062
N 5.51085568 20.34825476 10.47310064 0.00224445 0.00184187 -0.00076371
N 3.00821173 18.28645012 13.11943811 0.00776451 0.00213373 -0.00414824
N 1.54860339 21.17829761 15.18617647 -0.00101128 -0.00227620 0.00006571
N 4.18165486 23.09321710 17.87595523 0.00233124 0.01086031 0.00390145
N 5.45499085 19.87566245 15.39006390 -0.00014719 0.00201433 0.00447734
N 2.78078515 17.88026074 17.90203674 -0.00233416 0.00518064 0.00128058
N 1.55649266 21.09070118 19.90317515 0.00445539 -0.00119229 0.00126492
N 4.12575950 23.53884892 22.74921634 0.00020247 0.00096572 0.00127529
N 5.71516371 19.85434055 19.96445439 0.00418604 -0.00350197 -0.00743653
N 3.09147921 18.24361377 22.46347808 -0.00452501 0.00045573 -0.00091719
N 0.84921842 28.04518733 1.08793513 -0.00489353 0.00351043 0.00488867
N 3.18615664 29.54059536 3.76854012 -0.00505443 0.00017307 0.00740721
N 4.74932330 26.84046418 0.93210599 -0.00036519 -0.00554649 -0.00161042
N 2.04192538 24.70275588 3.74296284 0.00272971 0.00522616 0.00568076
N 0.98082240 27.87175737 5.71827677 0.00704736 -0.00089704 -0.01028393
N 2.94073038 29.60830500 8.51765897 0.00489764 0.00254887 0.00368183
N 4.67286580 26.67512812 5.78205437 0.00384990 0.00745825 -0.00007402
N 2.16877390 24.66580344 8.60285520 0.00068295 -0.00248352 0.00358506
N 0.95580365 27.82450658 10.41224219 0.00372673 -0.00280368 -0.00480612
N 3.57402164 29.73686867 13.03597510 0.00418156 -0.00043173 -0.00192678
N 5.01290933 26.76000352 10.61695477 -0.00228307 0.00258780 0.00474232
N 2.29632458 24.74298570 13.28460947 -0.00353922 0.00534863 -0.00407602
N 0.85004977 27.87817901 15.35064964 0.00093861 -0.00689694 -0.00112503
N 3.13826271 29.61185626 17.88296151 0.00692132 0.00594043 -0.00056014
N 4.87348127 26.81808715 15.26880024 0.00341818 -0.00189970 0.00143300
N 2.30615154 24.42953325 18.08597973 0.00252829 -0.00167263 -0.00838914
N 0.89443672 27.86684490 19.83520928 -0.00291743 0.00644084 0.00168311
N 3.43393643 29.88975622 22.84675372 -0.00020226 0.00686337 -0.00259428
N 4.68691777 26.81263579 20.03764214 -0.00023089 -0.00185399 -0.00088416
N 2.09508816 24.52668697 22.71883473 -0.00115715 0.00923081 -0.00030735
N 6.86111172 4.42102247 1.02353962 0.00400503 0.00095924 0.00231320
N 10.22369169 4.81565937 3.59141164 0.00363289 -0.00029578 -0.00089274
N 12.09174305 1.82299480 0.87727346 -0.00024376 0.00373888 0.00263282
N 8.58383532 1.35541609 3.87040117 0.00089110 0.00113349 0.00117066
N 6.89912263 3.86561985 5.70462715 0.00233448 -0.00610945 -0.00159107
N 10.00792304 4.80084098 8.34387354 -0.00095221 0.00496747 0.00258811
N 11.81744690 1.78369569 5.57604092 0.00513213 0.00267537 -0.00310754
N 8.42348930 0.97792381 8.37751058 0.00661485 0.00126697 -0.00183503
N 6.61354587 4.12295904 10.43410385 0.00632834 0.00112216 -0.01264906
N 10.06984612 4.59656522 13.09923302 -0.00513266 -0.00099623 -0.00383607
N 11.68952987 1.70956633 10.28798311 -0.00561960 -0.00260956 -0.00172333
N 8.35506067 0.74579655 13.22969990 0.00373449 0.00101933 0.00034271
N 7.08149042 3.71875184 15.05656345 0.00226463 -0.00229468 0.00062417
N 10.09455209 4.79487659 17.87287187 -0.00120307 -0.00536572 -0.00250967
N 11.86094492 1.63173410 15.00936074 -0.00026473 0.00242359 0.00201888
N 8.12979749 1.17800936 17.75983999 -0.00168371 -0.00248236 -0.00085578
N 6.78150487 4.10715299 20.00365921 -0.00285680 0.00301828 -0.00285831
N 10.26465069 5.07799246 22.73067600 -0.00393467 -0.00410704 -0.00568980
N 11.91983867 1.95495636 19.92497321 0.00059809 -0.00139415 0.00856142
N 8.51876796 1.37466142 22.64969416 -0.00019376 0.00745088 -0.00264334
N 6.94656857 9.77208295 1.07268983 -0.00002933 -0.00110449 0.00539025
N 10.79904085 10.44851567 3.70345157 -0.00335955 -0.00174283 -0.00051373
N 12.14058706 7.48914853 1.00792924 -0.00288041 0.00690620 0.00017804
N 8.66516536 6.51804703 3.93803919 -0.00004881 0.00207828 -0.00456195
N 7.24303347 9.81409634 5.74914454 0.00003879 -0.00036493 0.00801633
N 10.76187544 10.78953257 8.38935963 0.00503880 -0.00305299 0.00160817
N 12.56964362 7.59571527 5.80743358 -0.00409018 -0.00614724 -0.00233511
N 9.15758819 6.89770748 8.35688692 0.00276987 0.00542953 0.00178365
N 7.33167151 9.61252232 10.57370569 0.00041864 -0.00001543 0.00064000
N 10.73206460 10.46687945 13.01939916 0.00695706 -0.00512549 -0.00235127
N 12.54735027 7.28313069 10.33436205 -0.00419342 -0.01050975 -0.00066268
N 8.98025434 6.58048598 13.19080190 0.00237150 -0.00224497 -0.00006824
N 7.15642801 9.74225243 15.23870950 -0.00331377 0.00202946 0.00545387
N 11.03849076 10.97839356 17.86824747 -0.00327361 0.00069237 0.00354219
N 12.37681847 7.55671931 15.15060910 0.00523760 0.00982267 0.00465833
N 8.72069764 6.58992322 18.06333125 0.00257106 -0.00138625 0.00144134
N 7.30874024 9.63177580 20.16434435 -0.00372029 -0.00281183 0.00048905
N 11.01182674 10.79844760 22.70854775 -0.00166886 -0.00216494 0.00260737
N 12.25317708 7.38510528 19.90558645 -0.00920538 -0.00277459 0.00452216
N 8.86370720 6.91760545 22.76816892 0.00061277 -0.00314008 0.00293936
N 7.59420721 15.23925404 1.28233033 -0.00070470 0.00256997 -0.00021417
N 10.03775196 17.48129561 3.89304176 0.00406839 0.00300369 0.00373620
N 11.72888289 14.15409409 0.82252413 -0.00375076 0.00059839 0.00348877
N 9.12758546 12.12029203 3.64534585 -0.00273440 0.00663984 0.00245454
N 7.11080813 15.38072317 5.72481468 0.00200998 0.00448865 -0.00319818
N 10.30333531 17.32727841 8.39383086 0.00024552 0.00384238 0.00414526
N 11.45243946 14.53724088 5.38494420 0.00040938 -0.00127661 -0.00454505
N 9.18881859 12.40519628 8.31408819 -0.00356485 -0.00367568 0.00238800
N 7.60100519 15.26708988 10.47196993 -0.00072400 -0.00928865 -0.00237754
N 10.33969385 17.30422578 13.33962353 0.00276766 -0.00138034 0.00001210
N 11.62018347 14.41747629 10.33337689 -0.00133606 0.00465275 0.00434653
N 9.40290766 12.36758417 13.02957762 -0.00524530 -0.00644765 0.00583836
N 7.83210851 15.24659023 15.31068605 0.00254950 -0.00836643 -0.00009064
N 10.44211431 17.35178035 18.05702139 0.00046972 0.00287313 0.00257706
N 11.90035687 14.44618365 15.17626818 0.00330042 -0.00584346 -0.00316351
N 9.13471113 12.24861064 17.95192567 0.00011965 -0.00131245 -0.00137886
N 7.84830069 15.17731905 20.29446800 0.00570294 0.00472490 -0.00341601
N 10.55119694 17.40779071 22.69665176 0.00433778 0.00660252 0.00287478
N 11.91055719 13.97719599 20.06932020 0.00222977 -0.00141691 0.00696802
N 9.13029362 12.10484661 22.96517175 0.00393730 0.00301367 -0.00110164
N 6.82501156 21.93968929 1.34331600 0.00101733 -0.00280838 0.00113424
N 9.59324673 23.44637337 3.72393731 0.00252601 -0.00071820 0.00130524
N 10.95773298 20.98891601 0.81359573 0.00343983 0.00134321 0.00289104
N 7.89594583 18.30449466 3.86652693 0.00596544 -0.00160619 0.00205033