2000
Time=82000.00000008 pbc="T T T" Lattice="30.99629787 0.00000000 0.00000000 0.00000000 30.19289900 0.00000000 0.00000000 0.00000000 23.68946768" energy=-12039.87835169 virial="-45.51872805 10.13546003 0.48964853 10.13546003 -55.47445556 26.20746984 0.48964853 26.20746984 -95.34565285" stress="-0.00004428 0.00042943 0.00009159 0.00042943 -0.00029220 0.00115005 0.00009159 0.00115005 -0.00161530" Properties=species:S:1:pos:R:3:vel:R:3
C 30.40360382 3.75062599 1.64195878 -0.00115372 -0.00157694 -0.00007434
C 2.64977074 0.58427024 2.98404711 -0.00235109 -0.00022159 -0.00055199
C 30.26505080 3.64706864 6.46001956 -0.00309176 -0.00433967 -0.00866632
C 2.55030359 0.69921286 7.80518725 0.00626163 0.00124799 -0.00202413
C 30.49105556 3.89601482 11.19613517 -0.00331114 -0.00855137 -0.00579284
C 2.34771192 0.76427074 12.42210375 -0.00342353 0.00449059 0.00026698
C 30.29266506 3.56061076 15.98232539 -0.00976625 0.00210439 -0.00879422
C 2.66626957 0.40625193 17.21990405 0.00133398 0.00343317 -0.00113512
C 30.47054748 3.47472766 20.67687618 -0.00226186 -0.00573647 -0.00109394
C 2.64915919 0.72021151 22.03089994 -0.00223797 -0.00532266 0.00417808
C 30.71209176 9.31659456 1.72477347 -0.00222982 -0.00091814 0.00156465
C 2.45866450 6.24537778 2.77921722 0.00356775 -0.00063397 -0.00287415
C 30.67639513 9.22053907 6.33840286 -0.00183694 0.00439907 0.00267270
C 2.85046657 6.14145442 7.51971801 0.00477864 -0.00901820 0.00642014
C 30.56120253 9.30095903 10.88772638 0.00229879 0.00535873 -0.00244206
C 2.61779868 6.36197749 12.43194789 0.00440295 -0.00056902 -0.00515590
C 30.72203999 9.19381376 15.71321434 0.00277499 -0.00296348 0.00246365
C 2.94875914 6.17527688 17.16036777 0.00309304 -0.00492177 -0.00268022
C 30.98599933 9.17333005 20.46651279 -0.00001992 -0.00294886 -0.00392239
C 2.72551092 5.98491680 21.85564305 0.00193967 -0.00205737 -0.00249748
C 0.02148687 14.90503737 1.61601943 -0.00179206 0.00281908 -0.00460611
C 3.43163501 11.66317330 2.97124416 -0.00284418 -0.00189650 -0.00116907
C 0.21673040 14.89505873 6.17002905 -0.00707495 -0.00668376 0.00242369
C 3.24103590 11.86299271 7.54827687 0.00778648 0.00061125 -0.00161498
C 0.31735426 15.00792549 10.88235450 -0.00981620 0.00526014 0.00526884
C 3.37347915 11.72117157 12.34586395 0.00354301 -0.00118303 -0.00161994
C 0.33817720 14.94859368 15.93649380 0.00198501 0.00394132 -0.00524559
C 3.35080932 11.95621977 17.21982324 -0.00074054 0.00805215 -0.00259347
C 0.22302792 14.90907202 20.69006527 0.00977452 -0.00278445 0.00219140
C 3.37094832 11.91491525 21.92715356 0.00131105 -0.00370230 0.00429635
C 0.88516955 20.49552467 1.85581646 0.00432296 0.00168368 -0.00908506
C 3.64001701 17.34331615 2.86715169 -0.00171983 -0.00253092 0.00155539
C 1.05569038 20.47541380 6.54667708 -0.00329334 0.00015562 0.00596722
C 3.79332919 17.33726699 7.61594171 -0.00379375 0.00004778 0.00199543
C 0.85042765 20.51243007 11.08977813 0.00172958 0.00241202 0.00752578
C 3.86967881 17.42113360 12.38084650 -0.00910172 0.00297652 -0.00004969
C 0.49404023 20.57804120 16.02814180 -0.00112879 0.00080623 -0.00055753
C 3.49137776 17.70821156 17.08804626 0.00190395 -0.00223436 -0.00015580
C 0.60027397 20.59484008 20.85881499 -0.00520814 -0.00020626 0.00150127
C 3.64251033 17.67099285 21.84453651 -0.00178207 0.00015866 -0.00387025
C 0.12765499 27.05584892 1.53103736 0.00167841 -0.00176690 0.00235210
C 3.34150072 23.98991946 3.09739213 0.00486244 0.00709236 -0.00117613
C 30.78276487 27.07818662 6.56888194 -0.00233726 -0.00028273 0.00512818
C 3.28142662 24.21546189 7.72737582 -0.00116925 -0.00153316 -0.00650254
C 0.03312996 27.17581042 11.34128409 0.00422482 -0.00096532 -0.00037194
C 2.98040268 24.29659276 12.69076231 -0.00446847 -0.00115597 0.00507557
C 0.12786227 27.51409336 15.95272543 -0.00249211 0.01068338 0.00358546
C 2.97337643 24.24903513 17.39022550 -0.00012179 -0.00030882 0.00676491
C 0.08898681 27.63668462 20.76459362 0.00413791 -0.00261014 0.00077240
C 2.95405354 24.03195375 22.13476503 0.00259612 -0.00448031 0.00310999
C 5.82399954 3.28503117 1.53163947 0.00042036 0.00058047 0.00160877
C 9.23918305 0.05776019 2.93113184 0.00423826 0.00008932 0.00658811
C 6.13433907 3.07573709 6.26445675 -0.00357054 0.00484991 -0.00869701
C 9.31200311 0.15819906 7.75873706 0.00442421 0.01091365 -0.00211432
C 6.07243336 3.34826969 11.20896798 0.00133430 0.00241870 0.00528872
C 8.95532927 0.34663459 12.44380027 -0.00520991 0.00816529 0.00485225
C 5.92113729 3.12602784 16.04609373 -0.00191111 0.00385842 -0.00340572
C 8.96025111 0.06285205 17.23075369 0.00147467 -0.00728102 0.00080657
C 6.07616043 3.11174050 20.57852213 0.00344030 0.00262643 -0.00152532
C 9.14002738 0.21871081 22.14269651 -0.00827292 -0.00430072 0.00383052
C 6.14750537 8.82538135 1.69320662 -0.00305965 -0.00172699 0.00190201
C 9.27596428 5.87323188 3.00398009 -0.00280336 0.00055843 0.00322493
C 6.44824041 8.67699990 6.33476241 0.00642045 0.00104515 -0.00553045
C 9.37900438 5.94406315 7.77063269 -0.00191966 -0.00054254 0.00527318
C 6.20468267 8.72351176 11.24415767 0.00288588 -0.00258130 -0.00206537
C 9.62460332 5.86827431 12.38276758 -0.00168735 -0.00093715 0.00342147
C 6.42310965 8.83008202 15.90709754 0.00280902 -0.00204263 0.00320006
C 9.43487599 5.77951681 17.07395935 0.00002577 0.00252047 0.00527081
C 6.26455358 8.87464938 20.57003984 0.00536362 0.00887115 -0.00166619
C 9.51537793 5.60437062 21.66394339 0.00251991 -0.00179324 0.00035931
C 6.81400495 14.45130065 1.70994432 0.00176375 -0.00403097 -0.00884521
C 9.78152617 11.29936130 3.08578573 -0.00093398 0.00469165 0.00480686
C 6.74073130 14.64442762 6.32144626 0.00463403 0.00304174 -0.00631233
C 9.89771856 11.20572252 7.67491228 -0.00551555 -0.00563906 -0.00150416
C 6.81748610 14.11722210 11.22090652 0.00107312 0.01046282 -0.00047618
C 10.04875188 11.40358654 12.47569971 0.00096927 0.00256721 -0.00100721
C 6.81076275 14.37541993 15.89078350 0.00171981 0.00626449 -0.00366343
C 10.26317162 11.42233824 17.33347829 0.00813417 -0.00078386 0.00081438
C 6.96162935 14.57012950 20.61577482 -0.00878036 0.00069683 -0.00358375
C 9.80289185 11.34120511 21.96111205 0.00187998 -0.00813309 0.00241687
C 6.38819812 21.08122677 1.62738871 0.00486991 0.00444677 -0.00523773
C 9.53317294 18.18770544 2.90170756 -0.00360588 0.00153157 -0.00110644
C 6.21594766 21.21093552 6.55198684 -0.00014067 -0.00232570 0.00191372
C 9.09525307 18.22786088 7.73737220 0.00164828 0.00308191 -0.00226378
C 6.02598358 21.41013546 11.19714522 -0.00329882 -0.00195636 0.00126512
C 9.14132100 17.89544371 12.49018982 0.00296237 0.00085515 0.00445105
C 6.07317209 21.13989662 15.86249228 -0.00408645 -0.00827283 -0.00029095
C 9.17335129 18.07125255 17.10361332 -0.00053221 0.00807855 -0.00364049
C 5.95281004 21.26888510 20.77913582 -0.00210195 -0.00091087 0.00774318
C 9.46585889 17.91649753 22.04974396 -0.00730042 -0.00382773 -0.00399986
C 5.68452477 27.78161553 1.87057350 -0.00503335 0.00198384 -0.00002716
C 8.90326581 25.01024719 3.11601467 -0.00047564 -0.00695492 0.00479173
C 5.72884403 27.94822268 6.56265520 -0.00063240 -0.00569247 -0.00338480
C 8.77514874 24.62801184 7.91485001 0.00003431 -0.00894022 -0.00049029
C 5.40799027 27.93687091 11.17013220 0.00800802 0.00653200 0.00136758
C 8.19999430 24.86315233 12.59077785 0.00187693 -0.00247884 -0.00338537
C 5.55234515 27.93936590 16.02290926 -0.00137820 0.00335824 0.00104137
C 8.53420709 24.84701302 17.39158961 -0.01106665 -0.00487933 -0.00151685
C 5.51482091 27.78860909 20.95398770 -0.00148891 0.00615518 -0.00141389
C 8.92509468 24.68816161 22.19359182 -0.00186790 0.00114895 -0.00481009
C 12.46537730 2.91262519 1.73692964 0.00442421 -0.00288333 0.00135154
C 15.66302641 0.08681240 3.11397952 -0.01071664 0.00156420 0.00422078
C 12.78223358 2.81254581 6.40762501 -0.00600623 0.00209944 0.01203957
C 15.52301322 30.06478912 7.74240135 -0.00265785 0.00117604 0.00128963
C 12.66171539 2.80549179 11.01142051 0.00146888 -0.01245168 0.00736225
C 15.79899764 29.73145276 12.55178206 -0.00199803 -0.00522339 -0.00007852
C 12.90285086 2.82321869 15.66586756 0.00103147 0.00550584 0.00650945
C 15.66950343 30.05183453 17.36170905 0.00337640 -0.00783285 0.00599335
C 12.49378457 2.95366409 20.76735977 -0.00029873 -0.00113722 -0.00136415
C 15.72963976 30.11386307 22.12545142 0.00103715 -0.00229105 -0.00115043
C 12.67586527 8.17118363 1.78886808 -0.00418715 0.00639431 -0.00920018
C 16.19762640 5.57569332 3.03225075 0.00641089 -0.00312134 0.00184489
C 13.08026823 8.15786951 6.28692835 0.00068456 -0.00354084 0.00447756
C 16.25569871 5.29173344 7.81195132 0.00128339 -0.00420328 -0.00121837
C 13.03391081 8.32214114 11.19473353 0.00467764 -0.00602573 0.00467350
C 16.20638132 5.51083398 12.52254758 -0.00041801 0.00069535 -0.00274264
C 13.06897476 8.29277394 15.96377691 0.00192675 0.00154965 -0.00065743
C 16.37557096 5.51433112 17.15844273 0.00628253 -0.00072295 0.00678263
C 12.89517430 8.27796224 20.81034172 -0.00184635 0.00383795 -0.00031965
C 16.09789047 5.33809668 22.08359832 0.00153867 0.00010296 0.00073020
C 12.33407351 14.98071466 1.97238029 -0.00061930 0.00083833 0.00501216
C 15.58179645 12.03423288 3.08052190 0.00175323 0.00675086 0.00518609
C 12.17951420 15.18006380 6.65157830 -0.00178909 -0.00002802 -0.00108640
C 15.28317268 11.50853032 7.82312505 0.00038535 0.00098494 -0.00132410
C 12.62529878 14.89232177 11.34515562 -0.00402579 0.00259523 0.00121378
C 15.41396510 12.20601377 12.57816741 -0.00525162 -0.00713599 0.00338770
C 12.35493861 15.36813442 16.00344492 0.00215413 0.00003729 -0.00430077
C 15.31535067 12.20457981 17.43433271 -0.00110388 0.01023962 0.00171107
C 12.36941245 15.01828969 20.84137905 0.00220956 -0.00324221 -0.00324539
C 15.31494776 11.96188539 22.13666632 -0.00944428 -0.00142733 0.00339715
C 11.92544743 21.88590586 1.77644109 -0.00224607 0.00306636 -0.00019651
C 14.86134275 18.64346544 2.88739182 -0.00018507 -0.00444948 -0.00081635
C 11.63666340 21.83874882 6.66578456 -0.00396633 -0.00005509 -0.00385308
C 14.85212009 18.68554535 7.80454643 -0.00885198 0.00357761 -0.01057726
C 11.67126137 21.42697535 11.33740023 0.01026369 -0.00276116 -0.00630125
C 14.95515905 18.50878941 12.50921623 0.00312227 0.00442010 -0.00331720
C 11.53561441 21.69827255 15.98566517 -0.00444451 -0.00230567 0.00193765
C 14.75455471 18.53932362 17.33443142 0.00275646 0.00326419 -0.00478071
C 11.76589025 21.68387826 20.62911973 -0.00323374 -0.00799103 -0.00086470
C 15.07135273 18.83430103 21.98079594 -0.00439220 -0.00456654 -0.00045532
C 12.38187011 27.18094843 1.82563223 0.00207565 0.00627447 -0.00594361
C 15.41029471 24.47094121 3.15239134 -0.00137491 -0.00427553 -0.00064669
C 12.31052592 27.37853740 6.73606415 -0.00182001 -0.00658633 0.00390004
C 15.13479262 24.17893418 7.82257418 0.00438263 -0.00202603 0.00150575
C 12.07653764 27.45946813 11.33294346 -0.00398373 0.00185767 0.00300854
C 15.30866664 23.95558937 12.47384443 -0.00176886 -0.00065707 -0.00331278
C 12.18331851 27.35460143 16.05573690 -0.00129138 -0.00205401 -0.00051836
C 15.18046684 24.34852338 17.22536156 -0.00205494 0.00058225 0.00067885
C 12.14628407 27.54236108 20.75684510 -0.00191320 0.00289563 -0.00534393
C 15.23560262 24.33503687 22.01161785 -0.00287411 -0.00634093 -0.00068480
C 19.02468001 2.74596256 1.77370022 0.00283135 0.00085863 0.00991073
C 21.95155684 29.65553233 3.11682432 0.00236253 0.00303616 0.00114448
C 19.32365999 2.40504314 6.46251539 0.00683379 -0.00185504 -0.00156833
C 22.32963439 29.44573693 7.82460026 0.00184147 -0.00057825 -0.00911827
C 19.36820793 2.35347906 11.32633017 0.00067946 0.00489315 -0.00070683
C 22.10290395 29.36504893 12.42479635 0.00648912 -0.00308649 0.00848956
C 19.38806553 2.39185260 15.93279536 -0.00565852 0.00250020 0.00533386
C 22.28266152 29.50512597 17.27866494 -0.00146167 -0.00611745 -0.00313809
C 19.19095985 2.55804623 20.72006248 0.00315287 0.00207408 -0.00497829
C 22.17322965 29.86154078 22.21794677 -0.00552575 0.00536916 -0.00096528
C 18.69453643 9.26296378 1.74644218 -0.00106716 -0.00018604 0.00012756
C 22.02020116 6.22252025 2.83084748 -0.00206951 0.00480738 -0.00260775
C 18.46962757 8.87885640 6.45269578 0.00400296 0.00091703 0.00091698
C 21.73719146 5.98426519 7.82030195 0.00722652 -0.00289572 0.00267083
C 18.54413684 9.28773925 11.29663953 -0.00086834 -0.00227577 0.00183982
C 21.74722205 6.00259252 12.40145995 -0.00058985 0.00400873 0.00041066
C 18.74174814 9.18817560 15.91990487 0.00410090 0.00069573 0.00240289
C 21.76289453 5.87548694 17.23108271 0.00302825 0.00128461 -0.01174815
C 18.45504089 9.07217325 20.64382043 -0.00266859 0.00719428 0.00421102
C 21.80319757 6.17433994 21.88110722 -0.00154272 -0.00453376 0.00028216
C 17.97245616 15.67799148 1.64008005 -0.00641151 -0.00594653 0.00083897
C 20.99169590 12.73173289 3.02738289 -0.00027410 0.00674879 -0.00428782
C 17.80874609 15.65682605 6.43799700 -0.00354716 -0.00096281 0.00128574
C 21.37401059 12.49363377 7.76521140 0.00420160 -0.00309886 0.00165268
C 18.09528622 15.42220485 11.08553697 -0.00143276 0.00224788 0.00972343
C 21.12487257 12.53952204 12.56347780 -0.00743756 0.00165353 -0.00257474
C 18.14080009 15.85146126 15.87601107 -0.00009294 -0.00754241 0.00270504
C 21.05674139 12.78709227 17.21045347 0.00021467 0.00350254 0.00156164
C 17.94114548 15.91692114 20.55927642 0.00636872 -0.00955322 0.00491749
C 20.83724015 12.69961895 22.04803800 0.00484902 0.00038011 -0.00082024
C 18.08962152 21.33401724 1.69131424 0.00036874 -0.00052716 0.00394971
C 21.39554963 18.29776308 3.02778620 0.00319819 -0.00019818 0.00113583
C 18.14602933 21.40403016 6.28805118 -0.00600912 -0.00109481 0.00441578
C 21.38236209 18.07781726 7.53542250 -0.00575540 -0.00515494 -0.00057370
C 18.57109792 21.15181822 10.96552039 -0.01073316 0.00241972 0.00408726
C 21.22096235 18.25100064 12.46156978 0.00255710 0.00356452 -0.00144684
C 18.68415148 21.18020894 15.90149940 -0.00104681 -0.00246505 0.00484953
C 21.68881562 18.52164200 17.25860959 -0.00733491 -0.00365185 0.00412627
C 18.27796652 21.69674444 20.70121216 -0.00665577 -0.00213097 0.00235511
C 21.21921172 18.37189273 21.93496920 0.00595704 0.00181689 0.00777402
C 18.56373097 27.02011795 1.59730806 -0.00061589 -0.00135121 -0.00097362
C 22.01081398 23.93429882 3.00327093 -0.00037079 -0.00294941 0.00454840
C 18.38359679 27.10308460 6.50920213 -0.00142740 0.00849777 -0.00430873
C 21.80571330 23.77670487 7.64814908 0.00249721 -0.00130807 -0.00168985
C 18.71706560 26.74237032 11.02807932 -0.00001527 0.00290365 -0.00057762
C 21.86922639 24.07303129 12.41787153 0.00087316 -0.00071767 0.00012487
C 18.74230898 26.79786528 15.99099185 -0.00670474 -0.00531356 0.00300673
C 21.94409582 24.07283379 17.06717202 0.00468445 0.00173283 0.00222272
C 18.81187509 27.09371863 20.71246131 -0.00369936 0.00347939 -0.00278412
C 22.12265707 23.93605258 22.09659670 0.00158519 -0.00809543 0.00202001
C 24.70781553 2.79952972 1.95296175 -0.00271133 -0.00960669 -0.00064946
C 27.99130544 30.07902331 3.05011749 -0.00237021 0.00455336 -0.00587880
C 24.62774124 2.99738448 6.42334798 0.00072097 -0.00165737 0.00170507
C 27.98108386 30.08592394 7.67442954 0.00315709 0.00721131 -0.00704705
C 24.58925308 2.74533557 11.21416518 -0.00136861 0.00583530 0.00093704
C 27.89766410 0.01670168 12.50105612 0.00710939 -0.00242349 0.00147980
C 24.83867860 2.98060758 16.09764593 -0.00054237 -0.00088634 0.00530917
C 28.04295880 0.30614126 17.38385648 -0.00376172 0.00453051 0.00045513
C 25.00391850 3.26381604 20.94598568 0.00504586 -0.00446272 0.00619567
C 28.22876719 0.15775581 22.09525621 0.00139938 0.00109687 0.00434638
C 24.26518606 9.88551287 1.54998284 -0.00023225 -0.00215954 0.00369675
C 27.20897465 6.65134341 2.92090427 0.00158144 0.00300525 -0.00158202
C 24.13655933 9.65530481 6.39538194 0.00990261 -0.00173356 -0.00271061
C 26.97062090 6.62468692 7.59651106 0.00058646 -0.00120928 0.00162561
C 24.10144012 9.63390955 11.09968254 -0.00080597 -0.00108086 -0.00822946
C 27.45205664 6.49121125 12.31970397 -0.00174375 0.00287863 -0.00648799
C 24.29413750 9.58040968 15.87451909 -0.00300335 -0.00243605 0.00648016
C 27.36462505 6.46383744 17.22276613 -0.00074837 0.00744480 0.00481069
C 24.03633146 9.81172515 20.63288110 -0.00944172 -0.00031205 0.00095721
C 27.42732994 6.84243392 21.90138619 0.00681317 0.00435998 -0.00211245
C 24.61709028 15.26840772 1.59373146 0.00056957 0.00410410 -0.00153628
C 27.61378988 12.43994635 2.86117700 0.00044092 -0.00251124 -0.00460265
C 24.89270895 15.27203445 6.26689579 0.00059539 0.00186194 -0.00511946
C 27.71259892 12.40588456 7.59259498 -0.00644245 -0.00313192 0.00366864
C 24.36710665 15.35714974 11.24188474 0.00321717 -0.00173391 -0.00242547
C 27.75173479 12.50648054 12.39979189 0.00095748 0.00758385 -0.00535921
C 24.62563573 15.28460351 16.07231003 0.00254699 -0.00016377 0.00318206
C 27.78187222 12.08803249 17.16177275 -0.00082152 0.00057373 -0.00194784
C 24.55705551 15.39372978 20.67733849 0.00502670 -0.00256693 0.00215761
C 27.44897734 12.42532294 21.86038065 0.00185122 0.00332364 0.00166421
C 25.23743267 20.89754467 1.65640182 0.00154884 -0.00046046 -0.00099069
C 28.36886876 18.06733525 3.10684635 -0.00473116 -0.00203637 -0.00882922
C 25.03298520 21.13898784 6.33917432 -0.00079890 -0.00240531 -0.00158933
C 28.19346447 17.94266487 7.75488938 0.00043461 0.00638803 -0.00548943
C 25.02787202 20.70028790 11.25943851 -0.00394286 -0.00597686 -0.00607928
C 28.39987970 18.06725046 12.57546309 -0.00319097 0.00048538 -0.00566797
C 25.09796799 20.93930091 15.90377833 0.00235668 -0.00393855 -0.00428688
C 28.15462814 17.93403241 17.13340490 -0.00124551 0.00423540 0.01013572
C 24.95504732 21.16911602 20.72851336 -0.00294261 -0.00503413 -0.00342675
C 28.06309562 18.09509446 22.08203092 0.00624362 0.00075528 0.00081284
C 25.35168445 26.54541892 1.95789881 0.00693079 -0.00134085 0.00024592
C 28.93879497 23.53572335 3.00914865 0.00813706 0.00996159 0.00216978
C 25.26591282 26.21466659 6.46077003 0.00144100 -0.00034956 0.00044260
C 28.64327019 23.36883999 7.69975708 -0.00285571 -0.00415432 0.00368448
C 25.37728896 26.52828281 11.12286407 0.00202068 -0.00499155 0.00263534
C 28.40241356 23.68016279 12.47526358 -0.00789370 -0.00775880 0.00501856
C 25.73570485 26.70877057 16.06146020 -0.00351912 -0.00325289 -0.00719693
C 28.45795075 23.99346025 17.40879967 0.00135659 0.00201726 -0.00249724
C 25.49641640 26.82621083 20.81779721 -0.00280171 -0.00126737 0.00225021
C 28.69114957 23.78109026 22.05036995 -0.00291543 -0.00245037 0.00457985
N 0.05111162 4.60531933 0.82579100 0.00409812 -0.00529830 -0.00302575
N 2.87792987 5.20081026 3.59511273 -0.00103419 0.00179405 0.00338084
N 5.09470830 2.23234927 0.91479492 0.00305606 0.00106417 0.00358229
N 1.94577499 1.46219842 3.67439804 0.00032840 0.00361978 -0.00242155
N 0.04887224 4.44896331 5.71325817 -0.00293898 -0.00142025 -0.00143147
N 3.26956730 5.20427053 8.43027279 -0.00140901 0.00392507 -0.00657535
N 5.34022511 2.26197333 5.54049251 0.00158116 0.00161431 0.00088373
N 1.48656629 1.45830097 8.30694200 0.00330257 -0.00173587 -0.00430540
N 0.02273517 4.74471063 10.26514266 0.00263738 0.00427705 0.00094638
N 3.35233578 5.40883887 13.14020314 -0.00120113 0.01016180 0.00280689
N 5.39657936 2.40476506 10.53163693 0.00084741 -0.00202917 -0.00426746
N 1.62743210 1.60543104 13.21564584 0.00191589 -0.00425980 -0.00292609
N 0.16372607 4.43860383 15.46477799 -0.00146677 0.00154066 0.00898461
N 3.51702603 5.18663971 17.93018439 -0.00174553 0.00084529 -0.00609125
N 5.19168160 2.53073249 15.05831690 -0.00161388 0.00214899 -0.00125030
N 1.99734016 1.37766152 17.90023618 0.00382063 0.00042646 -0.00384324
N 30.98937541 4.53472889 20.08955428 -0.00238310 0.00237417 0.00879681
N 3.46488195 5.08134791 22.55884614 0.00644948 0.00270398 -0.00092464
N 5.22354794 2.29669496 19.96237778 -0.00341636 -0.00156775 0.00128560
N 1.76647221 1.34850289 22.82582418 0.00234609 0.00296694 -0.00358611
N 0.40626513 10.17669570 0.92264033 0.00063665 -0.00086292 -0.00246466
N 3.99544104 10.63212456 3.75449296 0.00339374 -0.00718361 0.00189692
N 5.37763648 7.89230187 1.00396419 0.00210661 -0.00420371 0.00014253
N 1.99583711 7.28217658 3.51190182 0.00263589 -0.00158704 -0.00120864
N 0.60446991 10.10913866 5.72793109 0.00201966 -0.00571529 0.00378444
N 3.82143379 10.77117583 8.20900359 0.00110701 0.00346703 0.00594489
N 5.45284016 8.01545670 5.64562539 0.00530436 -0.00274499 0.00046919
N 2.17724651 7.19275056 8.05273366 0.00097486 0.00027378 0.00237874
N 0.44355304 10.14534069 10.23209749 -0.00183864 0.00732800 -0.00401750
N 4.09086301 10.80374697 13.06916610 0.00121904 -0.00144183 0.00080608
N 5.21926931 8.12220546 10.47659243 -0.00103201 -0.00129599 -0.00946147
N 1.87640853 7.26509710 13.18014679 0.00058020 -0.00537008 0.00743061
N 0.59140704 9.93669386 15.04503675 -0.00509306 -0.00648319 -0.00058978
N 3.82398927 10.89363507 17.94954512 -0.00030605 0.00328128 -0.00128958
N 5.70812599 7.92358521 15.14505051 -0.00365891 0.00075117 -0.00310672
N 2.22089412 7.10683566 17.83892930 -0.00211829 0.00528447 -0.00361228
N 0.74391370 10.01547295 19.68975825 0.00240216 -0.00005928 -0.00440662
N 3.68376325 10.75878986 22.48304153 0.00608154 0.00245450 -0.00233847
N 5.36184457 8.13689549 19.83401839 0.00034100 -0.00581570 0.00077305
N 2.27773868 7.07096569 22.50992360 -0.00028897 0.00132584 0.00657816
N 1.02145992 15.72318352 1.10635608 0.00602322 -0.00325607 0.00312512
N 4.23583785 16.27138958 3.56022009 -0.00278038 -0.00240153 0.00311062
N 5.89355616 13.72084537 1.01651338 -0.00450406 0.00706394 0.00175224
N 2.64632107 12.48564585 3.67174951 -0.00370346 0.00477338 -0.00241876
N 1.03620129 15.49445854 5.28874998 -0.00651437 -0.00184688 -0.00721565
N 4.69370902 16.72467453 8.40297714 0.00082817 0.00021026 -0.00466946
N 5.82445679 13.98821522 5.58338051 0.00353464 -0.00181238 0.00088078
N 2.71770128 12.89325124 8.22796964 0.00121256 0.00596065 -0.00016855
N 0.92467224 16.02121223 10.12718471 -0.00645737 -0.00791870 -0.00089586
N 4.49493905 16.56584364 13.26241602 0.00512715 -0.00351907 0.00732397
N 6.06578417 13.38911922 10.35914567 0.00200828 -0.00179560 0.00108633
N 2.81968814 12.65594653 13.12191376 0.00061522 -0.00164585 0.00567075
N 0.89380665 15.90959716 15.07510365 -0.00038211 0.00022777 -0.00306377
N 4.52565066 16.96503886 17.54683113 -0.00060829 -0.00059885 -0.00326892
N 6.12639641 13.47398327 15.17118382 -0.00403530 -0.00027945 0.00302726
N 2.90689064 12.94275189 18.01690615 0.00805406 -0.00273436 0.00291225
N 1.13022812 15.55767859 19.96964984 -0.00331814 -0.00465216 -0.00118044
N 4.43288425 16.75789409 22.54488510 -0.00165652 -0.00326102 0.00060976
N 6.10702628 13.77862176 19.89173597 0.00090690 -0.00070482 0.00021446
N 2.74555297 12.85115395 22.71886128 -0.00768663 -0.00759871 -0.00515188
N 1.47768319 21.51451005 1.20824932 0.00480691 -0.00219619 0.00191142
N 4.39782701 23.36010118 3.69722317 -0.00485629 -0.00508508 0.00467312
N 5.47301708 20.37836183 0.88331269 0.00255853 -0.00255773 -0.00384356
N 2.93653202 18.34566188 3.50870048 0.00933812 -0.00242219 0.00081605
N 1.89213195 21.30565647 5.87428394 -0.00733417 0.00527711 0.00591959
N 4.14843682 23.62403987 8.56629579 0.00267665 0.00175172 -0.00621806
N 5.63887571 20.43084727 5.64261603 0.00384535 0.00218269 0.00043389
N 3.03756081 18.30664503 8.23331772 -0.00131838 -0.00386057 0.00099685
N 1.67610129 21.40842017 10.39930467 -0.00358199 -0.00017718 0.00125158
N 4.08045393 23.80054359 13.31823520 0.00145326 -0.00162012 -0.00117551
N 5.21509060 20.65384238 10.37830783 -0.00292771 -0.00340476 -0.00006774
N 2.99357510 18.27387453 12.99656802 -0.00288451 -0.00589687 -0.00025831
N 1.41354480 21.21913663 15.29289388 -0.00272263 0.00674634 -0.00662829
N 3.94321079 23.54302745 18.11010854 0.00045466 -0.00203410 -0.00080947
N 5.23319342 20.48913679 14.98087551 0.00317887 -0.00268805 0.00112357
N 2.70121971 18.37579557 17.95477459 0.01069186 0.00024856 0.00500592
N 1.48729239 21.38241987 20.15566297 0.00382241 0.00502512 -0.00208017
N 4.04645530 23.61379400 22.90538283 -0.00143286 -0.00501332 -0.00692946
N 5.18444890 20.40887406 20.05572245 -0.00565056 -0.00356419 -0.00982473
N 2.76039286 18.27953420 22.60977458 -0.00381914 -0.00052569 -0.00093876
N 0.93181149 27.98395247 0.91398671 -0.00513842 -0.00554093 0.00282150
N 3.38860447 29.84954591 3.61213956 0.00236144 -0.00303304 -0.00550181
N 4.92972456 26.97831236 1.10724040 0.00578513 0.00228640 0.00516304
N 2.44804733 24.44537557 3.88379267 -0.00162726 0.00033101 -0.00000711
N 0.75166156 27.70591390 5.86694659 -0.00053756 -0.00034142 0.00972087
N 3.23396140 30.13168730 8.68141850 -0.00073304 0.00140838 0.00116071
N 4.82525619 27.23177214 5.88450673 0.00064238 -0.00245181 -0.00386895
N 2.29993108 24.91469331 8.44235590 0.00117422 0.00009921 0.00303237
N 0.69384568 28.03567421 10.54141657 -0.00380598 -0.00013277 0.00080494
N 2.96469192 29.89389448 13.01598929 -0.00123090 0.00403159 0.00148770
N 4.69151010 27.12728556 10.34007534 0.00377937 0.00032272 -0.00384406
N 1.98090029 24.46259674 13.51630536 -0.00394636 0.00114554 -0.00339610
N 0.98452450 28.15092359 15.24739471 -0.00042259 -0.00402818 -0.00475785
N 3.38914568 29.71483803 17.95292173 0.00542121 0.00043710 0.00216886
N 4.55234188 27.19486514 15.43150595 0.00049699 0.00436497 -0.00148197
N 2.07406212 24.86075559 18.13162469 -0.00538404 0.00111848 0.00351663
N 0.83776705 28.43355773 19.92474657 -0.00246013 0.00274319 0.00133419
N 3.35944063 29.93019071 22.70761022 0.00557273 0.00548899 -0.00131595
N 4.57321044 26.92744721 20.38120752 0.00034899 0.00294438 -0.00273234
N 2.03718324 24.66101528 22.92191051 -0.00158167 0.00345604 0.00100918
N 6.60477587 4.01775494 0.73070242 -0.00164842 -0.00142404 -0.00038909
N 10.07703325 4.91792143 3.62517897 0.00507502 -0.00120529 0.00351691
N 11.73934874 2.11539216 0.88014396 0.00247695 0.00557981 -0.00443150
N 8.61886746 1.00972453 3.63479913 -0.00639928 0.00148369 -0.00155757
N 6.77920251 4.02319010 5.55434990 -0.00090665 0.00037121 0.00347059
N 10.08738852 4.95235502 8.46348197 0.00324517 0.00411270 0.00529520
N 11.92572176 1.99642388 5.75050866 0.00490951 0.00254937 -0.00055181
N 8.57058778 1.25192170 8.31945127 -0.00143656 0.00338998 -0.00402684
N 6.54698164 4.38754573 10.41317008 -0.00092986 -0.00128557 0.00532151
N 10.05476026 4.80437072 13.07080994 0.00185157 -0.00131561 -0.00721524
N 11.82016104 2.15012977 10.23234681 -0.00880414 0.00254716 -0.00220884
N 8.45327147 1.39611497 13.12205966 -0.00958907 0.00536877 0.00101481
N 6.83295942 4.08308471 15.62671894 0.00252860 -0.00178904 0.00090472
N 10.15337643 4.91100893 17.79582849 -0.00064355 0.00119982 0.00382734
N 11.95278732 2.03101448 15.11728003 0.00223620 -0.00361214 -0.00157806
N 8.52974213 1.21776046 17.88275660 -0.00318852 0.00701682 -0.00286386
N 6.73417373 3.91813442 19.73491916 0.00602037 0.00125734 0.00301777
N 10.17194053 4.75963970 22.46477895 0.00144032 0.00275605 0.00525936
N 11.65687597 2.20540457 20.05508466 0.00426121 -0.00139643 0.00269102
N 8.54349216 1.21013895 22.85006501 0.00010276 -0.00106138 -0.00665808
N 6.90557373 9.64998913 0.99338797 -0.00500414 -0.00050374 -0.00079788
N 10.44173604 10.44677500 3.89187486 0.00347124 -0.00210541 0.00698422
N 12.04502013 7.39361855 0.88583220 -0.00198569 -0.01200604 0.00682661
N 8.72870552 6.73023774 3.84899848 -0.00049945 0.00133133 -0.00053370
N 7.15711953 9.57447627 5.60109535 0.00241885 0.00235209 0.00099800
N 10.88117231 10.62942864 8.44022810 0.00125828 0.00187719 -0.00072381
N 12.20598154 7.31658274 5.71673898 0.00396997 -0.00694283 0.00544125
N 8.86940523 6.86796313 8.58947030 0.00157134 0.00229213 -0.00289380
N 7.12708184 9.48411078 10.62637846 0.00088570 0.00028396 0.00460547
N 11.04693964 10.77593114 13.21233660 -0.00646537 0.00095075 0.00095882
N 12.36775265 7.54958081 10.29085399 -0.00505810 0.00287171 -0.00152391
N 8.97028842 6.75973675 13.10301388 -0.00408109 -0.00346524 -0.00115596
N 7.25072081 9.59706711 15.23356806 0.00060162 0.00179939 -0.00362789
N 10.76142528 10.39222782 18.06882837 0.00014952 -0.00095642 -0.00237994
N 12.30695070 7.46918813 15.15630228 0.00064312 0.00164681 -0.00060638
N 8.71846313 6.70406133 17.69060403 0.00575378 -0.00344430 -0.00343871
N 7.07339005 9.65227708 19.74433523 -0.00466485 0.00065484 0.00257744
N 10.52141556 10.53618809 22.79713298 -0.00181479 0.00188924 -0.00203247
N 12.27650763 7.28794573 20.06514055 -0.00220556 -0.00360836 0.00729729
N 8.77016559 6.56843747 22.33393033 0.00059183 -0.00182295 -0.00331078
N 7.68739479 15.16956088 0.87884975 0.00477549 0.00038273 -0.00298005
N 10.60244102 17.58174943 3.46221960 -0.00547742 0.00238279 -0.00595021
N 11.66868770 14.04345656 1.24076127 0.00131261 -0.00061508 -0.00061471
N 8.99005055 12.23290013 3.71124521 0.00495531 -0.00616982 -0.00159291
N 7.51590350 15.51276469 5.68850732 0.00301924 0.00387671 -0.00062536
N 10.04479759 17.66631432 8.47788457 -0.00283050 0.00061713 0.00262546
N 11.25529652 14.45081723 5.96623979 -0.00257932 -0.00255326 -0.00329243
N 9.03555498 11.99906252 8.35897468 -0.00002252 -0.00632211 0.00200041
N 7.55410855 15.10208843 10.69470286 -0.00353080 -0.00339610 0.00455743
N 10.23098204 17.52660999 13.16198828 -0.00199814 -0.00465960 -0.00012079
N 11.93694888 13.86632819 10.84119322 -0.00216707 0.00271753 -0.00623317
N 9.12944381 12.03231016 13.21609367 -0.00334089 0.00216178 0.00256829
N 7.61435260 15.23401905 15.18042714 0.00413261 0.00246834 -0.00147274
N 10.02673282 17.58953004 18.08290138 0.00347982 -0.00239391 0.00521574
N 11.56426651 14.58557024 15.25969901 -0.00246377 0.00101272 0.00093548
N 9.38790264 12.17139863 18.04058050 -0.00616066 -0.00499547 -0.00567923
N 7.66520416 15.44695637 19.86697953 0.00532657 -0.00298536 -0.00284455
N 10.38726056 17.21549637 22.86366804 0.00541473 -0.00264797 -0.00056922
N 11.82051255 13.97140860 20.08016591 -0.00049737 0.00368536 0.00139734
N 9.01365375 12.28878842 22.57449007 -0.00210223 0.00536054 0.00289285
N 7.17285916 21.94167482 0.90704519 0.00060243 0.00087918 -0.00050800
N 9.64554624 24.08448538 3.81696958 0.00435857 -0.00354137 -0.00211712
N 11.26498969 20.90684150 1.11028150 -0.00340518 0.00241479 -0.00038203
N 8.79125098 18.91016788 3.81218886 -0.00130702 0.00017535 -0.00273141