2000
Time=31000.00000001 pbc="T T T" Lattice="31.25341920 0.00000000 0.00000000 0.00000000 29.90413997 0.00000000 0.00000000 0.00000000 23.70400944" energy=-12043.03733122 virial="-27.39881388 -43.16554082 -10.80543606 -43.16554082 -46.93892410 16.57832031 -10.80543606 16.57832031 -59.11073106" stress="0.00109024 -0.00200689 -0.00049911 -0.00200689 -0.00007186 0.00077462 -0.00049911 0.00077462 0.00016497" Properties=species:S:1:pos:R:3:vel:R:3
C 30.70610202 3.63937467 1.57902028 -0.00217175 0.00134739 0.00547586
C 2.44612244 0.50502845 2.81474776 -0.00284100 -0.00379545 -0.00354769
C 30.55092229 3.72116465 6.25632868 -0.01199700 0.00701069 0.00396133
C 2.67627073 0.76095862 7.62371399 -0.00210754 -0.00538582 0.00081118
C 30.46029667 3.66448576 11.11097438 0.00125780 0.00011365 -0.00203678
C 2.64972834 0.68670428 12.61348010 0.00211400 -0.00098006 -0.00142106
C 30.57746855 3.89538168 15.78846859 -0.00153720 -0.00115778 -0.00121980
C 2.57623980 0.96624827 17.29529663 0.00091900 -0.00855593 0.00117367
C 30.47234346 3.76574779 20.53492338 -0.00311316 0.00091587 0.00371320
C 2.41189200 0.49734578 21.93434522 0.00118720 0.00465949 0.00403946
C 30.78671822 9.18441926 1.86588808 0.00295485 0.00020916 -0.00221606
C 2.78997930 6.11491637 2.92937456 -0.00306361 0.00006958 -0.00489941
C 31.04678598 9.19126002 6.46424422 -0.00097217 0.00190992 0.00122560
C 2.81481121 6.29204782 7.90137840 -0.00059111 -0.00004843 0.00162544
C 31.02738885 9.12228122 11.10906759 0.00052956 0.00437433 -0.00401262
C 3.18922100 6.15646201 12.50964246 0.00521188 0.00268863 -0.00616568
C 30.97181794 9.43901797 15.88649920 0.00097502 0.00284060 0.00334438
C 2.90547707 6.23991805 17.18620859 -0.00663510 0.00981749 -0.00903426
C 30.94610864 9.43220539 20.62761727 0.00573324 0.00303869 0.00387195
C 2.88522179 6.25717391 21.89634012 -0.01006163 -0.00085060 -0.00384156
C 0.33511093 14.63437165 1.69692073 0.00241210 -0.00087457 0.00117529
C 3.31341480 11.84672161 3.13868580 -0.00614343 -0.00095998 -0.00913623
C 0.15403825 14.59583911 6.53359703 -0.00654172 0.00268730 0.00420009
C 3.29553179 11.64164104 7.73340403 -0.00309321 -0.00218092 -0.00017070
C 0.22307635 14.81740497 11.16585371 -0.00275907 0.00009330 0.00355549
C 3.33369109 11.65190775 12.40759059 -0.00067117 0.00590873 0.00007347
C 0.14791777 14.69904559 15.92453379 0.00072398 0.00062285 0.00374129
C 3.22381000 11.98966275 17.22743309 0.00057298 0.00355512 -0.00422732
C 0.10045305 14.86058492 20.67328693 -0.00482015 0.00125540 0.00094403
C 3.18252495 11.71275687 22.11913457 0.00246565 -0.00047593 0.00184355
C 0.54683317 20.46162483 1.75106063 0.00012862 -0.00047285 0.00061798
C 3.73151941 17.47520920 2.92758255 0.00137324 0.00242534 0.00303855
C 0.73655835 20.45473402 6.39046814 -0.00231879 0.00115884 -0.00311314
C 3.39832021 17.60609323 7.66626073 0.00457013 0.00324427 0.00281771
C 0.68441420 20.43453812 11.19458617 -0.00038866 -0.00127038 0.00172357
C 3.69726553 17.31410790 12.45698625 0.00338594 -0.00062826 -0.00296849
C 0.66643209 20.56195747 15.92068436 -0.00380533 -0.00119937 0.00571179
C 3.86671374 17.43335511 17.15357478 0.00263558 -0.00107981 -0.00711589
C 0.66911728 20.11609307 20.71494435 0.00343602 0.00076209 -0.00137985
C 3.67382466 17.67580846 21.93833101 0.00839660 0.00508647 -0.00482219
C 0.14961534 26.72266151 1.67251020 -0.00363906 0.00291140 0.00490175
C 3.35237367 23.79460547 3.09836767 0.00078668 0.00856329 0.01030963
C 31.21958613 26.97399884 6.30152225 -0.00307901 0.00825003 -0.00002526
C 3.26236268 23.66878788 7.83852744 0.00483774 -0.01180594 -0.00870379
C 0.31544897 26.98060203 11.00429969 0.01000080 -0.00319116 -0.00384750
C 3.18150436 24.17645013 12.54412840 0.00725621 -0.00118983 0.00182445
C 31.21497268 27.14782911 15.80980248 -0.00953559 -0.00281959 0.00035300
C 3.11428487 24.07227313 17.32505309 -0.00335916 -0.00564347 0.00142942
C 0.25987089 27.05628178 20.64909155 0.00131554 -0.00119646 0.00398549
C 2.93063972 23.67412367 22.01911062 0.00193630 0.00059132 0.00582038
C 6.20532134 3.16792077 1.63258925 -0.00581371 -0.00265693 -0.00437941
C 9.08237695 0.18409248 3.02008534 -0.00145541 0.00182950 -0.00090366
C 6.15144410 3.24270730 6.51306431 -0.00062898 0.00421010 -0.00195823
C 9.26080366 0.50351618 7.76654304 0.00226630 0.00310525 0.00456144
C 6.23835045 3.34947952 11.35965121 -0.00142150 -0.00086857 -0.00001643
C 8.94299116 0.00961567 12.43444265 -0.00524613 -0.00264990 0.00328097
C 6.03933440 3.21630892 15.95084793 -0.00377269 0.00159478 -0.00227527
C 9.32839760 0.05982519 17.30469445 -0.00404956 -0.00170823 0.00211973
C 6.04186157 3.41308906 20.71947368 0.00354478 -0.00304359 0.00046869
C 9.40222987 0.17915891 22.03051139 0.00411640 -0.00406509 -0.00453324
C 6.46637781 8.92390660 1.62951393 0.00335163 -0.00597841 -0.00647450
C 9.51728310 6.06917132 3.02302874 -0.00113193 0.00210484 -0.00053612
C 6.60335496 8.84941015 6.26113212 0.00329240 -0.00215491 0.00239366
C 9.77223632 5.78354588 7.88925869 0.00033441 -0.00128957 -0.00105195
C 6.65244605 8.63728917 10.97919441 0.00373640 -0.00644317 0.00079006
C 9.65029010 5.91262960 12.56494275 0.00563550 0.00485740 0.00173949
C 6.37367211 8.63809218 15.84192967 0.00106128 0.00519462 -0.00072563
C 9.97112243 5.64885173 17.25650375 0.00138870 -0.00011451 0.00463454
C 6.32552111 8.65825093 20.67400697 0.00219403 0.00122217 0.00963761
C 10.01094770 5.94250213 22.02301623 -0.00021432 0.00144613 0.00454417
C 6.92469291 14.28876742 1.59591641 0.00556930 -0.00321138 -0.00161203
C 9.95427614 11.42355772 3.06363531 -0.00107793 0.00180085 0.00824574
C 6.98931062 14.41266611 6.38129169 -0.00560055 0.00108815 -0.00394316
C 10.16675907 11.30713375 7.89078863 -0.00070535 0.00319852 -0.00104893
C 6.96215834 14.24133287 11.04468594 0.00426588 0.00186793 -0.00036337
C 10.23916569 11.29843507 12.60677246 0.00862584 0.00053013 0.00163788
C 6.92202161 14.29969557 15.88882671 0.00267032 0.00282132 -0.00122279
C 9.76999193 11.21555800 17.25790465 -0.00146872 0.00498075 -0.00052469
C 6.91698047 14.32077432 20.63325808 0.00943030 0.00358168 -0.00345132
C 9.84279023 11.36283257 21.92624079 -0.00031416 0.00567388 0.00643967
C 6.21395818 20.99375932 1.74697054 -0.00038089 0.00029704 0.00135504
C 9.38125412 18.12658166 3.15487869 -0.00239119 -0.00305579 -0.00149180
C 6.15710788 20.77220050 6.52654215 0.00507799 -0.00277284 -0.00806775
C 9.21490565 17.72804362 7.86379655 0.00242531 0.00599560 -0.00359286
C 6.47044481 20.88629203 11.24638791 -0.00777635 0.00495989 0.00264614
C 9.61886064 17.70694481 12.51088986 0.00214766 -0.00392186 -0.00539623
C 6.01702529 20.97830092 15.88306231 0.00470515 0.00514804 0.00462350
C 9.27027135 17.89942439 17.17766832 -0.00277977 -0.00391408 -0.00681478
C 6.33873810 21.16088960 20.63999733 -0.00697741 -0.00674439 -0.00073528
C 9.31567136 18.03394790 22.10120730 0.00024737 -0.00073227 0.00783999
C 5.66489591 27.40629097 1.51789362 -0.00151067 0.00424248 0.00063697
C 8.76126110 24.60678905 3.03875385 0.00930679 0.00294224 -0.00490324
C 5.66169023 27.55807180 6.32109850 0.00016564 0.00059446 -0.00674400
C 8.84095948 24.64812122 7.70475482 -0.00516655 0.00042725 0.00966661
C 5.53749733 27.63394221 11.21176614 -0.00183352 0.00151156 0.00715079
C 8.69220542 24.46710188 12.66968246 -0.00712878 -0.00208368 0.00886567
C 5.51464187 27.49945171 16.00355599 -0.00300417 0.00183737 0.00119362
C 8.57018991 24.48828281 17.26897447 0.00253577 -0.00043549 -0.00168682
C 5.63290823 27.68361724 20.59034178 -0.00434800 -0.00001924 0.00176044
C 8.71714006 24.81398660 22.16073631 -0.00244228 0.00458857 -0.00756723
C 12.61866832 3.04392281 1.64593198 -0.00053301 -0.00805027 0.00198795
C 15.69070596 29.79909480 2.97521992 -0.00458627 0.00207729 0.00022991
C 12.79302501 2.85506356 6.47608490 0.00493918 0.00364503 -0.00372363
C 15.76938476 29.76294172 7.72658458 -0.00553944 0.00097129 0.00066339
C 12.86071639 2.62616286 11.38029419 0.00205177 -0.00096048 -0.00034772
C 15.80765652 29.65029732 12.63064187 0.00263784 0.00722640 0.00657511
C 12.75887578 2.48986592 15.97599229 0.00161379 -0.00517076 0.00240296
C 15.86295068 29.70944673 17.26575503 -0.00071813 -0.00009690 -0.00797232
C 12.83218754 2.78832504 20.63022489 -0.00214766 0.00158178 -0.00321213
C 15.59177771 29.74926384 22.11659497 -0.00382569 0.00876108 0.00147384
C 13.02178641 8.29692728 1.61676775 -0.00221831 -0.00447122 -0.00156439
C 16.15736677 5.12855498 2.88436764 0.00313750 0.00613806 -0.00037173
C 13.43173328 8.12576063 6.50824619 -0.00178567 -0.00607320 -0.00435520
C 16.35631125 5.14545500 7.53107694 0.00085223 -0.00299944 0.00002051
C 13.21561713 8.51821826 11.30810943 -0.00520243 -0.00185625 -0.00037082
C 16.31648396 5.18925075 12.44064344 0.00110671 -0.00136925 -0.00493959
C 13.31756100 8.20921758 15.96606110 0.00380727 -0.00054085 0.00645572
C 16.47097969 5.18139886 17.27370764 -0.00051504 0.00647897 0.00831716
C 13.18616584 8.36480002 20.62940670 -0.00461024 -0.00515111 0.00515291
C 16.16718668 5.28709218 21.90713933 0.00325211 -0.00173430 -0.00376425
C 12.46627351 14.81894283 1.67578491 -0.00666144 -0.00505335 0.00033646
C 15.62754713 11.76340472 2.98558885 0.00239504 -0.00538812 -0.00100879
C 12.81744094 14.89802234 6.56210418 0.00026373 -0.00288171 0.00158018
C 15.74622934 12.03620792 7.73129924 0.00144631 -0.00276719 0.00268037
C 12.43457845 15.06931784 11.10680352 -0.00446797 -0.00140893 -0.00016212
C 15.72884796 11.91142122 12.53418293 0.00094590 -0.01109532 0.00176617
C 12.44300615 15.15819285 15.91055657 0.00569312 -0.00605419 0.00074851
C 15.59771698 11.77932152 17.18845477 -0.00266268 -0.00526169 -0.00056383
C 12.45516163 14.88185328 20.59512535 -0.00039440 0.00526548 0.00013286
C 15.46132494 11.74820249 21.98470853 -0.00158343 0.00733407 -0.00280143
C 11.92609095 21.53254759 1.74339293 0.00191576 -0.00308959 -0.00273815
C 15.34417907 18.61148055 3.18206269 0.00177743 -0.00173362 -0.00081853
C 12.03829730 21.53102583 6.41772084 -0.00479781 -0.00287951 0.00697616
C 14.89749993 18.36252141 7.77077420 -0.00584824 0.00546869 -0.00360392
C 11.70475329 21.66498199 11.18093240 0.00159050 -0.00220059 -0.00245713
C 14.78903412 18.46930319 12.51356765 -0.00096004 0.00415963 0.00030040
C 11.88233304 21.69441434 15.95782032 -0.00272764 -0.00324451 0.00261885
C 14.85772707 18.58316385 17.30822193 -0.00250578 0.00057067 0.00035723
C 11.48885174 21.43028866 20.72005417 -0.00340101 -0.00561427 -0.00251252
C 14.95691600 18.53590916 22.18922199 -0.00462514 -0.00426705 -0.00292965
C 12.20089277 27.21052829 1.77426508 -0.00080102 0.00499916 0.00026786
C 15.44308412 24.13323199 3.18209038 0.00084810 0.00205404 -0.00115189
C 12.57780217 27.31835943 6.36904044 -0.00173165 0.00425834 -0.00235061
C 15.42741477 24.06573490 7.90629853 0.00492741 0.00065960 -0.00615417
C 12.33254966 27.53778406 11.14652246 0.00896423 -0.00388712 -0.00108849
C 15.35816165 24.22825087 12.57963086 -0.00180911 0.00595167 0.00745754
C 12.35431452 27.09838831 16.08163387 0.00334562 0.00098861 -0.00602378
C 15.26425027 23.99929558 17.35882192 0.00466587 0.00404509 0.00306149
C 12.46292149 26.99411329 20.76487287 0.00193325 0.00416759 -0.00635447
C 15.35758015 24.09621100 22.11387931 0.00252927 -0.00510689 -0.00233602
C 19.57653874 2.14917939 1.62186344 -0.00122907 0.00019005 0.00103802
C 22.35206193 29.26170710 3.01180219 -0.00138339 -0.00240449 -0.00344782
C 19.19484034 2.34153395 6.26646827 -0.00176963 -0.00385769 -0.00213040
C 22.53070044 29.44853051 7.81119141 0.00016179 0.00233217 0.00433633
C 19.60178244 2.43019864 10.95062679 -0.00060358 -0.00024549 0.00109978
C 22.44800533 29.04036937 12.68594338 -0.00370591 -0.00176994 0.00357072
C 19.37676814 2.44521251 15.80407429 0.00396658 0.00379731 0.01003189
C 22.33912452 29.10422029 17.30273836 -0.00139938 -0.00346684 0.00356023
C 19.53227783 2.24852056 20.75054852 -0.00895868 0.00191171 0.00123105
C 22.40599588 29.21619694 21.93944579 -0.00239342 0.00892166 0.00262145
C 18.63026602 8.85226640 1.57815915 0.00649929 0.00430925 0.00123451
C 21.78921470 6.10490311 3.06206158 0.00697095 -0.00371674 -0.00006286
C 18.82649176 8.93552072 6.44796398 -0.00074974 0.00324883 -0.00088069
C 21.96984390 5.91801959 7.70663766 0.00163573 -0.00363994 -0.00284188
C 18.81992698 8.83432059 11.12226589 -0.00038593 0.00282045 0.00170492
C 21.83105789 5.96418406 12.44022049 0.00139475 0.00196925 -0.00302166
C 18.66463128 8.98991469 15.96908745 -0.00343799 -0.00383184 0.00209034
C 21.88599679 5.76474351 17.25421105 -0.00039976 -0.00116650 0.00019332
C 18.88188051 8.92020671 20.50779109 -0.00743704 -0.00508083 -0.00147988
C 21.94024093 5.90142393 21.91995392 0.00050994 -0.00144187 0.00098928
C 18.13924275 15.51247323 1.76209155 -0.00345621 0.00449201 -0.00289692
C 21.18912751 12.71190412 2.95301634 0.00819678 0.00130176 -0.00056640
C 18.04320176 15.29914880 6.37426260 0.00066444 0.00281042 -0.00506229
C 21.19950457 12.92587051 7.86923064 -0.00136457 0.00413989 0.00754067
C 18.31401928 15.63524005 11.06924673 -0.00248872 -0.00230455 -0.00326042
C 21.04964391 12.46735061 12.56858865 -0.00177884 -0.00335120 -0.00840221
C 17.94981517 15.47656023 15.94634497 -0.01078578 -0.00234853 -0.00299785
C 21.36684984 12.75036920 17.31128232 0.00561027 -0.00996070 0.00562760
C 17.89949130 15.51861800 20.75141261 0.00021796 0.00250491 0.00256636
C 21.03026640 12.48679272 21.84701641 0.00201468 0.00351329 -0.00536441
C 18.60967025 21.04193903 1.75438892 -0.00294207 0.00013336 0.00642345
C 21.75187660 17.93719963 2.99608959 0.00106704 -0.00122675 -0.00190365
C 18.47653676 21.30785332 6.51877079 0.00183191 -0.01075183 0.00180490
C 21.59988236 18.25509357 7.94835791 -0.00265136 -0.00325773 -0.00291529
C 18.40231404 21.24067448 11.48132408 -0.01037369 -0.00121155 0.00152878
C 21.61639595 18.17902262 12.54478302 -0.00078944 0.00014318 -0.00122085
C 18.60703495 20.86720133 16.09290247 0.00924737 0.00512781 -0.00539416
C 21.64311977 18.01749014 17.16931767 -0.00207160 -0.00397403 0.00130520
C 18.63322202 20.84720420 20.71885292 0.00293711 0.00503167 0.00274771
C 21.63082833 17.93854522 21.94983957 0.00136422 0.00059670 0.00271360
C 18.99386131 26.49455690 1.75673998 0.00792526 0.00378771 -0.00198544
C 22.11046171 23.82348111 2.97464783 -0.00061397 -0.00110196 0.00219211
C 18.96413070 26.70277708 6.40037273 -0.00460271 -0.00072575 0.00258596
C 22.16371866 23.78083879 7.83726548 0.00117395 0.00457495 0.00130575
C 18.85378042 26.70361079 11.20836350 -0.00026429 -0.00787462 0.00420291
C 22.15359772 23.77648440 12.62045855 0.01441362 -0.00156381 -0.00171344
C 18.90279990 26.64401377 15.96248663 -0.00135952 -0.00267543 -0.00243894
C 22.12193467 23.63819021 17.37303018 -0.00155747 -0.00691598 0.00029053
C 18.79743809 26.31755205 20.68824967 0.00229066 0.00404556 0.00409332
C 22.06703533 23.49197511 22.05141612 0.00422405 -0.00669989 0.00161590
C 24.93892060 2.99694013 1.77132705 -0.00344673 -0.00021868 0.00236700
C 28.07181087 29.78636786 3.04596741 -0.00272940 0.00308530 -0.00540514
C 24.78497672 2.98685091 6.59477882 0.00113375 0.00205665 -0.00401501
C 27.94783883 29.86025563 7.88195097 0.00142736 -0.00761120 0.00059214
C 25.15895725 2.86787822 11.26313500 0.00066407 0.00048440 0.00086055
C 28.30444823 0.07276305 12.55928536 -0.00907316 -0.00564785 -0.00675220
C 24.94557952 2.78481764 16.03115523 -0.00140709 -0.00370213 -0.00816655
C 28.26466314 0.20984289 17.17402478 0.00003125 0.00452371 -0.00952719
C 25.09374195 2.65009270 20.74865327 0.00288074 0.00412411 0.00488213
C 28.09970561 0.07243706 22.07422969 0.01040871 0.00460792 -0.00100438
C 24.38572714 9.62565729 1.68456526 -0.00154443 -0.00982128 -0.00276830
C 27.45243420 6.36259417 3.05473407 -0.01005567 0.00015282 -0.00543147
C 23.98999526 9.65106779 6.46705725 0.00120007 0.00669989 -0.00175777
C 27.43250862 6.55843602 7.67903689 0.00111775 0.00060759 -0.00529094
C 24.24232981 9.50022282 11.25815207 0.00239927 0.00258297 0.00578398
C 27.53261843 6.32245130 12.28150402 0.00134449 0.00161040 -0.00374494
C 24.48289933 9.56543184 15.85537326 0.00411724 -0.00460383 -0.00294528
C 27.46963801 6.55698766 17.17533985 0.00243629 0.00197372 0.00891651
C 24.48888630 9.48640831 20.75541675 -0.00048733 -0.00179608 0.00545916
C 27.53568490 6.75487642 22.11985424 0.00058397 0.00029834 0.00718454
C 24.76021710 15.10985698 1.61351141 -0.00078309 -0.00097749 0.00262820
C 27.78012770 12.22668355 3.08146232 -0.00298171 -0.00724161 -0.00555828
C 24.68827131 15.35144997 6.36771877 0.00581306 -0.00592112 0.00123392
C 27.88646939 11.91819180 7.82989978 -0.00561149 -0.00573815 0.00482092
C 24.67773282 15.26632483 11.20117681 -0.00521025 0.00861672 0.00111319
C 27.93474235 12.05599888 12.40363875 -0.00774745 -0.00380481 0.00147975
C 24.75543141 15.21220438 15.96024009 -0.00479305 -0.00017711 0.00149151
C 27.95115244 12.17395348 17.27485335 0.00078601 -0.00747452 -0.00822480
C 24.70358091 15.36760849 20.65359650 -0.00530274 0.00418844 0.00560739
C 27.77348776 12.05432297 21.97730067 0.00447568 0.00172411 0.00569077
C 25.08575485 20.80049777 1.90025415 -0.00640261 0.00161989 -0.00658729
C 28.21930720 17.68362734 3.03143184 -0.00047265 -0.00086581 0.00677448
C 25.23717803 20.71009264 6.45165911 0.00170992 0.00405142 0.00835664
C 28.32039388 18.00212918 7.75369866 -0.00381873 -0.00304662 0.00216788
C 25.26828361 20.66363230 11.38130776 0.00023210 0.00728923 0.00371554
C 28.30394102 17.74880247 12.48049771 -0.00265049 0.00103612 0.00151498
C 25.16840440 20.93830413 15.94741176 0.00256532 0.00324230 0.00508646
C 28.35672701 17.69372145 17.13453838 0.00048436 0.00035276 -0.00341794
C 25.13470311 20.80284793 20.61297769 0.00622609 0.01114614 -0.00213640
C 28.21802436 18.02036773 22.06526281 0.00180913 -0.00046342 -0.00095396
C 25.72012175 26.35867825 1.78120773 0.00061717 0.00148434 -0.00276801
C 28.53726141 23.51236119 3.07646190 -0.00190068 0.00011041 -0.00627856
C 25.52684602 26.40167853 6.47018586 0.00384550 0.00293448 0.00150644
C 28.75234392 23.44507928 7.96372857 0.00124361 -0.00739667 0.00488660
C 25.59721630 26.05390321 11.35607030 -0.00151999 0.00191538 0.00327133
C 28.82690719 23.20827233 12.52828401 -0.00058738 0.00194385 -0.00207496
C 25.92158704 26.26841662 15.98937374 -0.00117740 -0.00306469 0.00416504
C 28.87701251 23.47499180 17.26024909 0.00607655 -0.00300485 -0.00017978
C 25.75918741 26.24854723 20.71562672 0.00237095 -0.00212730 0.00620624
C 28.73436225 23.37646748 21.98822171 -0.00881410 -0.00084987 0.00007196
N 0.22771326 4.48104288 0.85642514 0.00564076 0.00218833 -0.00330163
N 3.44127272 5.19939045 3.73781740 0.00714837 0.00221470 -0.00537206
N 5.44885250 2.29087311 0.89761312 0.00245721 -0.00127261 -0.00206409
N 1.71755894 1.39135199 3.49182813 0.00353655 -0.00180844 0.00118058
N 0.24724040 4.53363896 5.73249356 0.00316756 -0.00024042 -0.00060282
N 3.30725572 5.32769791 8.68193247 -0.00549870 -0.00354653 0.00317711
N 5.46914591 2.33441379 5.71467291 -0.00172855 0.00045603 -0.00533462
N 1.62945588 1.28389008 8.29119076 0.00607908 -0.00188951 -0.01043441
N 31.25145155 4.41517681 10.32226389 -0.00125021 0.00181744 -0.00238377
N 3.68753087 5.06379561 13.18208970 0.00352567 -0.00310309 0.00670640
N 5.52981859 2.48914502 10.57552364 0.00432041 -0.00722025 0.00223639
N 1.75719981 1.45644018 13.20723660 -0.00362676 -0.00296913 -0.00208763
N 0.14244744 4.60337800 15.03218640 0.00063197 0.00669947 -0.00278404
N 3.51081327 5.21836070 17.90938153 -0.00098558 -0.00306806 -0.00461118
N 5.45737754 2.17366249 15.29116902 -0.00466842 -0.00451161 0.00489259
N 1.73956463 1.71440809 18.07267884 0.00848626 -0.00000104 0.00629466
N 31.00665316 4.75287965 19.74891613 -0.00147595 0.00110841 0.00243097
N 3.39864242 5.22388263 22.66150037 -0.00107052 0.00570292 0.00184576
N 5.24530476 2.61965259 19.93425241 -0.00304733 0.00201942 0.00135366
N 1.73425262 1.26360635 22.77533793 -0.00318176 -0.00092585 0.00040728
N 0.44532027 9.98037359 1.21642289 0.00330312 0.00023935 0.00168631
N 3.91657316 10.79772353 3.84267250 -0.00239734 0.00283241 0.00317363
N 5.63224681 8.02081237 0.95692361 -0.00406695 0.00026952 0.00067582
N 2.30030119 7.17050569 3.63036303 -0.00199796 0.00670515 0.00107681
N 0.46763154 10.13898003 5.73804246 -0.00302414 -0.00099373 0.00149437
N 4.11000487 10.77197874 8.33754910 0.00341736 -0.00050316 -0.00146468
N 5.84799687 8.00094372 5.48967893 -0.00152461 -0.00451993 -0.00198932
N 2.12169030 7.29850971 8.48571801 -0.00113522 -0.00344227 0.00272296
N 0.65971975 9.82502784 10.38874709 -0.00217351 -0.00204698 0.00296590
N 3.85863679 10.57286765 13.07773287 -0.00134647 0.00190633 0.00336793
N 5.78089309 7.84571644 10.19067968 0.00093936 -0.00164816 0.00312877
N 2.54565238 7.17760488 13.12579204 0.00392441 -0.00184379 0.00592226
N 0.50254833 10.30393198 15.12795529 -0.00177200 -0.00674164 0.00384487
N 3.65214835 10.93245171 17.97290315 0.00159847 -0.00164283 -0.00122216
N 5.72292721 7.64133610 15.12854014 -0.00554934 -0.00033307 0.00466513
N 2.34898235 7.25947680 17.85655068 -0.00473421 -0.00711430 -0.00695772
N 0.46506757 10.18535217 19.79285699 -0.00349554 -0.00301346 -0.00019637
N 3.74178126 10.62257205 22.79174362 0.00086075 -0.00456574 0.00852983
N 5.40447882 7.86642786 20.00619155 0.00092332 -0.00577458 -0.00005577
N 2.29650959 7.23949901 22.62607843 0.00041933 -0.00123228 0.00108273
N 1.12018731 15.42916521 0.89490770 0.00341306 0.00141664 -0.00138254
N 4.61683926 16.77095903 3.67969818 -0.00843323 -0.00094648 -0.00145362
N 6.18033613 13.37137632 0.89394703 0.00106957 -0.00538473 0.00548208
N 2.59248853 12.72994751 3.88124625 -0.00141559 0.00407689 -0.00116005
N 0.84475956 15.55730948 5.94549251 -0.00392900 0.00149204 0.00126949
N 4.17597371 16.53935107 8.12475363 -0.00274162 0.00382672 -0.00674107
N 6.05724480 13.61911028 5.82940844 -0.00447724 0.00305224 -0.00015280
N 2.79125142 12.61606985 8.53565018 -0.00020620 0.00462587 -0.00175334
N 1.00636748 15.67436415 10.41234077 0.00051315 0.00045561 -0.00483224
N 4.30678340 16.31521281 13.21487448 -0.00298557 -0.00014165 0.00184250
N 6.20651107 13.42015843 10.21549596 -0.00027297 0.01069581 0.00231935
N 2.67612809 12.53299710 13.12613450 -0.00238583 0.00085210 0.00429131
N 0.98176168 15.54412538 15.26540678 -0.00403763 0.00048612 0.00130929
N 4.42147654 16.58842632 18.05886842 -0.00056364 0.00009640 -0.00363168
N 6.19275538 13.40815407 15.11701204 0.00680009 -0.00111060 -0.00047005
N 2.57397612 12.95356149 17.91656929 0.00315256 0.00220457 0.00147210
N 0.94915871 15.58166697 19.87039357 0.00140533 -0.00509490 0.00716514
N 4.74495813 16.98262621 22.47546294 0.00148811 0.00503747 -0.00296283
N 5.94874060 13.57326724 19.99379727 -0.00498896 0.00009574 -0.00230031
N 2.74325446 12.76871017 22.85711179 -0.00155070 0.00047697 0.00941233
N 1.49180276 21.17526866 1.11173582 0.00098476 0.00352393 -0.00251837
N 4.20667135 23.15143003 3.86080973 -0.00835924 -0.00535406 -0.00329857
N 5.36853064 20.16434096 1.11691153 -0.00114008 -0.00498425 -0.00117404
N 2.66176928 17.99690125 3.58157693 -0.00711374 0.00099712 0.00297253
N 1.53082372 21.22990161 5.62090836 0.00223727 0.00260057 -0.00235654
N 4.17669210 23.15359827 8.72844665 0.00329005 -0.00707717 0.00429495
N 5.35548679 19.93823418 5.87593239 0.00500248 0.00251581 0.00240639
N 2.65704457 18.22479016 8.63313331 0.00130740 0.00267428 0.00100332
N 1.45002171 21.18701164 10.41345150 -0.00090626 0.00111344 -0.00464669
N 4.18823246 23.55204291 13.22745545 0.00680751 -0.00089422 -0.00170597
N 5.51854795 20.20521623 10.55920370 0.00617449 -0.00003380 0.00664391
N 3.06364802 18.20209122 13.23323720 0.00868760 -0.00157521 -0.00225060
N 1.62038500 21.24130998 15.21107945 0.00019900 0.00469441 0.00223282
N 3.94014406 23.38077396 18.13459569 0.00165599 0.00563148 -0.00277703
N 5.36880233 20.03711527 15.19913176 0.00104312 0.00078238 -0.00303125
N 2.95245525 18.31038569 17.68901565 -0.00285247 0.00420599 -0.00325369
N 1.52465031 20.90006796 20.02236594 0.00040889 -0.00043289 -0.00016040
N 4.02369808 23.19910860 22.71919607 -0.00199852 0.00345152 0.00190297
N 5.52636237 20.34528240 19.89484796 -0.00622688 0.00782663 0.00655026
N 2.70007288 18.11999920 22.80865596 -0.00596761 0.00643774 -0.00000611
N 0.97154559 27.50320397 0.95448936 0.00118316 -0.00043542 -0.00032552
N 3.48107653 29.83992780 3.62270338 0.00022958 0.00296681 0.00201124
N 4.83893951 26.65233185 0.79004093 -0.00431731 -0.00395467 0.00219816
N 2.38440616 24.47962775 3.78632371 0.00439527 -0.00187494 0.00134880
N 1.03666680 27.58251671 5.73446745 0.00461708 0.00641635 0.00128633
N 3.66058221 0.23409061 8.35309376 0.00307791 -0.00624697 0.00469605
N 5.03505717 26.61555893 5.58821030 -0.00066620 -0.00003296 -0.00286560
N 2.29392171 24.36548780 8.37674929 -0.00355467 0.00548300 -0.00720837
N 1.00217334 27.83186274 10.11156582 -0.00438152 -0.00132461 -0.01105453
N 3.56619112 0.10857281 13.38219852 -0.00141632 0.00753429 0.00195536
N 4.69828041 26.73388317 10.56056969 -0.00177023 0.00352107 -0.00203960
N 2.04330953 24.53252522 13.21756537 -0.00684973 -0.00151564 0.00104583
N 0.90605409 27.86214886 15.22957643 0.00883194 0.00686031 -0.00018476
N 3.58281246 0.37819758 17.98191324 0.00089637 0.00418332 -0.00394660
N 4.80132444 26.69666514 15.24444966 0.01034512 -0.00223581 0.00422226
N 2.08923028 24.57406990 18.12926218 0.00743129 0.00185789 0.00097946
N 0.87051023 27.88811332 19.78001766 0.00137595 -0.00458128 0.00374367
N 3.27388736 29.48890329 22.55972740 -0.00105969 0.00035112 0.00115000
N 4.97918564 26.74657682 19.87827758 0.00024908 -0.00105209 -0.00555746
N 2.07776948 24.38387780 22.80351538 -0.00314644 0.00032882 -0.00415112
N 6.88159287 4.15986324 0.95389609 -0.00552735 0.00338873 -0.00009476
N 10.25799333 5.11989259 3.63520682 -0.00446906 0.00006434 0.00455615
N 11.90009241 2.13918524 0.92274525 0.00151961 -0.00080519 -0.00121588
N 8.59224416 1.25401402 3.72065294 0.00492727 -0.00377031 0.00178468
N 6.83344478 4.20581428 5.84003985 -0.00206616 0.00015827 -0.00276763
N 10.56414037 4.98014611 8.65366477 0.00438952 -0.00357345 0.00003623
N 11.93148447 2.14408733 5.67670178 -0.00732319 0.00274816 -0.00085481
N 8.68423501 1.45298719 8.57385544 -0.00297725 0.00182286 0.00487343
N 6.92346157 4.22614243 10.51830150 -0.00423082 0.00090375 0.00072002
N 10.19353193 4.84445232 13.27937400 0.00260625 0.00075298 0.00596311
N 11.95483226 1.86199672 10.69800194 -0.00358543 0.00085665 -0.00424273
N 8.39105170 1.11588517 13.05850376 0.00099802 0.00027998 -0.00327890
N 6.80422500 4.07652023 15.28712799 -0.00388359 0.00130676 0.00265401
N 10.39759181 4.64143187 18.04156949 -0.00179939 0.00037244 -0.01106271
N 11.93795021 1.71851638 15.21716990 -0.00572116 0.00053734 0.00344083
N 8.63966619 1.00312034 17.98204092 -0.00361746 0.00052723 0.00058574
N 6.87605871 4.23520029 20.01410133 -0.00041389 -0.00016072 -0.00521805
N 10.50213125 4.93066997 22.76076137 -0.00195331 -0.00179531 0.00026461
N 12.04003820 1.90708691 19.93356224 0.00190328 0.00379803 0.00131968
N 8.66530184 1.09446741 22.58330182 0.00081960 0.00128529 0.00110096
N 7.52630043 9.43925268 0.99549061 -0.00256573 -0.00164027 0.00005905
N 10.78129809 10.70389988 3.85986226 0.00397156 -0.00214960 -0.00524454
N 12.23729420 7.48191176 0.82593482 0.00150115 0.00072935 -0.00522876
N 8.92946073 7.01456278 3.81265525 -0.00006653 0.00511334 -0.00212033
N 7.37564129 9.69674713 5.57321332 -0.00669372 -0.00202751 0.00455020
N 11.26208927 10.71310264 8.37374583 0.00782694 -0.00412604 -0.00152984
N 12.41437199 7.44984771 5.89869119 -0.00240608 0.00091811 0.00287916
N 9.14732157 6.81053191 8.57717648 0.00135384 -0.00570500 0.00240145
N 7.40558573 9.50637057 10.25585616 0.00811651 -0.00181592 -0.00094583
N 11.11896872 10.63317397 13.37863486 0.00244035 -0.00274362 0.00315580
N 12.32678721 7.66384607 10.74862576 0.00625488 0.00324858 -0.00335202
N 9.07403018 6.90547684 13.29012255 -0.00487545 0.00427643 -0.00353991
N 7.13988181 9.47197201 15.11543073 -0.00230594 0.00388393 0.00420650
N 10.73293621 10.60291059 17.93099235 0.00639888 0.00199630 -0.00236241
N 12.34888440 7.54995509 15.20552817 -0.00167444 0.00697650 -0.00054255
N 9.27477247 6.67560813 17.82189670 0.00057100 -0.00413812 0.00347265
N 7.02640951 9.49203268 19.85529496 0.00089534 0.00028146 0.00042161
N 10.72617239 10.56116585 22.69351317 -0.00623028 0.00295943 -0.00300351
N 12.41357803 7.47584617 20.00361118 0.00337706 -0.00354692 0.00085858
N 9.18886267 6.89571309 22.58326859 0.00080409 -0.00302504 -0.00372745
N 7.62254225 15.13459552 0.84532555 0.00225614 0.00318427 0.00004562
N 10.49837304 17.45282218 3.73239784 -0.00069469 0.00357212 -0.00299773
N 11.55188446 14.14816654 0.95004835 -0.00354174 -0.00120204 -0.00184565
N 9.25804085 12.41023970 3.79123702 0.00729655 -0.00216055 0.00352715
N 7.72627186 15.12692923 5.47096474 -0.00248505 0.00238367 0.00215021
N 10.35620773 17.59753618 8.57190158 0.00516196 -0.00045444 0.00906135
N 11.84134771 14.18335759 5.91364694 -0.00657323 0.00194339 -0.00072183
N 9.27622323 11.84131511 8.73443635 0.00490643 -0.00400314 -0.00185465
N 7.71899282 15.11640024 10.37696602 0.00340302 0.00184808 0.00153896
N 10.64509817 17.36926149 13.40069614 -0.00450386 0.00294317 0.00203232
N 11.72300205 14.29530312 10.27322109 -0.00199914 0.00983266 0.00421027
N 9.22826835 11.91241114 13.26667082 0.00028225 0.00214754 0.00150178
N 7.68527703 15.17225646 15.11249046 -0.00120931 0.00255755 -0.01047844
N 10.17751928 17.46216446 18.04219277 0.00506099 0.00022272 0.00273789
N 11.75390335 14.21417842 15.24757975 0.00235745 -0.00719472 0.00419510
N 8.93717476 11.96931767 18.00348011 0.00454279 -0.00244416 0.00342904
N 7.86855270 14.95523275 19.84030509 0.00061038 -0.00340623 -0.00204461
N 10.35690227 17.42463385 22.77000669 0.00621862 -0.00418287 0.00000925
N 11.54540360 14.31501989 19.80971484 0.00161068 -0.00496057 0.00352063
N 8.91384292 12.04119154 22.61367242 -0.00488191 -0.00069135 -0.00360176
N 6.89268033 21.98926359 1.02719156 -0.00672206 -0.00040378 0.00731577
N 9.55878738 23.74599736 3.63164522 0.00011729 0.00393505 -0.00104879
N 11.20909434 20.65464909 1.00770217 -0.00658399 0.00124671 -0.00292640
N 8.36605359 18.44134124 3.95299802 -0.00184277 0.00169069 -0.00603473
N 7.06332107 21.47272114 5.74949179 -0.00143362 -0.00066093 -0.00247697