2000
Time=58000.00000005 pbc="T T T" Lattice="31.08774096 0.00000000 0.00000000 0.00000000 29.97952869 0.00000000 0.00000000 0.00000000 23.70888758" energy=-12044.92140293 virial="-45.33446732 -32.59938817 7.87352422 -32.59938817 -47.86256999 -24.98799658 7.87352422 -24.98799658 -94.31044372" stress="0.00017115 -0.00152515 0.00032174 -0.00152515 -0.00014312 -0.00122106 0.00032174 -0.00122106 -0.00157165" Properties=species:S:1:pos:R:3:vel:R:3
C 30.59550055 3.78430261 1.39979012 0.00096777 0.00022033 -0.00794471
C 2.45544174 0.64247496 3.15171998 -0.00204782 -0.00787209 -0.00329174
C 30.62820311 3.65455811 6.30594361 0.00615864 -0.00433151 -0.00338100
C 2.46558147 0.57445874 7.65919840 -0.00277309 0.00164084 0.00159529
C 30.19764711 3.65367454 11.00901993 0.00653323 -0.00787530 -0.00207325
C 2.48916325 0.36287959 12.49903816 0.00252587 -0.00177413 -0.00077083
C 30.47730419 3.53793453 15.92278389 -0.00146672 0.00573907 -0.00175642
C 2.57170258 0.44579392 17.29021330 0.00687725 -0.00136286 0.00844058
C 30.40503085 3.32260412 20.59324305 0.00843002 0.00647422 -0.00109827
C 2.66317186 0.39280373 21.93102272 0.00446747 0.00146752 -0.00124698
C 31.02633891 9.26751711 1.76066612 -0.00001186 0.00003137 0.00225166
C 2.92129692 6.47916404 2.91646370 0.00173627 -0.00374803 -0.00190484
C 30.72088196 9.28534372 6.59830752 0.00096901 0.00232185 -0.00049065
C 2.95347199 6.34363796 7.60097264 -0.00725841 0.00027778 0.00017658
C 30.93232506 9.05924373 11.32833000 0.00790929 0.00078909 0.00190161
C 2.98771818 6.30684435 12.52933852 -0.00528583 0.00181377 -0.00419903
C 30.81918239 9.30002864 15.86699340 -0.00775441 0.00166364 -0.00064129
C 3.01650766 6.21516741 17.15821197 0.00032481 0.00155913 -0.00915375
C 30.79183510 9.18894938 20.70212161 -0.00552637 0.00336942 0.00115434
C 2.86996119 6.19586686 21.82912158 -0.00326745 -0.00158314 0.00127691
C 0.12552974 14.78379452 1.76139536 0.00786904 0.00335310 0.00619116
C 3.19384366 11.74909871 3.15090064 -0.00408555 0.00038622 -0.00716726
C 0.00962407 14.98147356 6.63545266 0.00163559 0.00191507 -0.00240271
C 3.37771311 12.07644667 7.71588647 0.00666647 -0.00033082 0.00037911
C 0.12318069 14.77510646 11.27392534 0.00344685 -0.00488145 -0.00680626
C 3.38392151 11.70034520 12.46420467 -0.00649156 -0.00241349 -0.00351086
C 31.05304630 14.48216199 15.98257077 0.00432426 0.00470118 0.00290483
C 3.20332783 11.97721420 17.16206358 0.00181907 0.00911388 -0.00393441
C 0.07516297 14.72286559 20.74862369 0.00475069 0.01012878 0.00045971
C 3.46550119 12.01331076 22.06710689 -0.00057463 -0.00163353 -0.00512495
C 0.67880062 20.49022424 1.55367563 0.00105509 0.00248267 0.00817448
C 3.38703569 17.47334518 2.85143864 -0.00237997 -0.00015188 -0.00780227
C 0.51875785 20.33255202 6.38116013 -0.00888662 -0.00006715 0.00485668
C 3.79130796 17.19703070 7.71534341 0.00743598 0.00096778 -0.00829628
C 0.47294828 20.23039310 11.03546226 0.00480842 -0.00219491 0.00074258
C 3.77396265 17.46132789 12.42766450 -0.00523918 0.00497914 0.00150871
C 0.54913687 20.39172849 15.82211198 0.00734730 -0.00792177 0.00613662
C 3.63557754 17.38462554 17.06574232 -0.00265442 0.00070734 0.00002622
C 0.63179477 20.35379618 20.63973111 -0.00069508 0.00702446 -0.00140177
C 3.72524107 17.46050011 21.83744306 -0.00033358 -0.00235135 0.00321306
C 0.16349828 27.06599718 1.75693883 0.00268763 -0.00198259 -0.00076768
C 3.11938328 23.86241120 2.88105832 -0.00295732 0.00222777 0.00176855
C 31.08396233 26.98831837 6.46672695 -0.00166114 0.00121642 -0.00196766
C 2.99078385 23.93006699 7.55953724 0.00112224 0.00316307 0.00026116
C 0.01164688 26.97038055 11.33812988 -0.00139275 -0.00438755 -0.00055950
C 3.08844129 23.83749305 12.34694955 0.00550159 0.00336274 -0.00620117
C 30.95138090 26.84689945 15.98346184 -0.00805580 0.00545184 0.00160364
C 2.94666450 23.86833739 17.15036862 -0.00201898 0.00489965 -0.00064818
C 30.99378928 26.80454946 20.87261448 0.00301125 -0.00207472 -0.00063883
C 3.05237494 23.88830905 21.80673131 0.00255434 -0.00601070 -0.00519991
C 6.15363809 3.25316717 1.62163792 -0.00094023 0.00135897 -0.00369691
C 9.01746906 29.94363761 2.94276981 -0.00226416 0.00408487 0.00108906
C 5.63094596 3.37182068 6.20102258 -0.00629211 0.00252280 -0.00407281
C 8.91973160 0.20576810 7.65422591 0.00423119 0.00156981 -0.00149934
C 5.89176280 3.01479463 11.06815769 -0.00116138 0.00239198 -0.00160341
C 8.75145786 0.12093088 12.41584766 0.00993785 0.00209315 0.00101110
C 5.86099684 3.28268267 15.85210318 -0.00035867 0.00004814 0.01077525
C 8.95582503 0.13078325 17.13449835 0.00314322 0.00543033 -0.00092893
C 6.07628139 3.33417618 20.59531291 0.00068626 -0.00196814 0.00179225
C 9.02292147 0.36882448 21.89830094 -0.00900307 -0.00162717 -0.00504087
C 6.52348135 8.87823528 1.71112702 0.00010000 0.00295186 -0.00091267
C 9.55534488 5.76625365 3.19897423 -0.00324135 -0.00289500 -0.00211498
C 6.31492841 9.12641953 6.32096330 0.00043551 0.00604551 0.00027008
C 9.47995278 5.74706985 7.66213962 -0.00865046 0.00055911 0.00229382
C 6.63100630 8.68092264 11.00938242 0.00344433 0.00112596 0.00552244
C 9.46218423 5.91701581 12.55615295 -0.00131334 0.00039250 0.00012932
C 6.58500051 8.82666148 16.13590000 -0.00457898 -0.00658229 0.00162653
C 9.60908690 5.94275860 17.25576269 0.00577066 -0.00510839 -0.00356281
C 6.36426136 8.75083534 20.89276494 0.00109398 0.00292631 -0.00157966
C 9.42959080 5.87898943 22.28471542 0.00466242 -0.00332997 -0.00219499
C 7.24087598 14.48806289 1.50577390 -0.00366507 0.00374401 0.00059731
C 10.15022645 11.24702456 3.04212523 -0.00019466 0.01105588 -0.00054560
C 7.07532842 14.34663711 6.08046322 0.00293533 -0.00017987 0.00115831
C 10.26723548 11.49182877 7.64310024 -0.00233102 -0.00710328 -0.00278144
C 7.16008554 14.34274700 11.11196993 0.00317112 -0.00283337 -0.00243227
C 9.92587315 11.25496210 12.54065852 0.00386053 0.00162078 -0.00115300
C 6.94517047 14.40336579 15.89352526 -0.00816291 0.00284091 0.00003743
C 10.08568655 11.41439378 17.26743511 -0.00162681 0.00251329 -0.00113313
C 7.09424523 14.24274725 20.64667164 0.00108713 -0.00087965 0.00202420
C 10.01765460 11.39723421 21.99362522 -0.00097865 0.00079674 0.00028750
C 6.18034899 20.80294762 1.64547168 -0.00532052 -0.01086601 -0.00317371
C 9.67596062 18.17533735 3.05179144 0.00176267 0.01351743 0.00345779
C 6.15292818 20.94202782 6.51542621 0.00349109 -0.00125589 -0.00070425
C 9.33558658 18.09801338 7.79925934 0.00146112 0.00428251 0.00029996
C 6.01632966 20.84193661 11.16445320 -0.00242203 0.00246579 0.00154931
C 9.36819307 18.06889325 12.51279507 0.00546838 -0.00298624 0.00719549
C 6.33087295 21.09477291 16.01048519 -0.00123941 -0.00139109 0.00518286
C 9.50656174 18.14895948 17.27326123 -0.00070649 -0.00769087 0.00331744
C 6.02457257 20.74959392 20.68562089 -0.00178596 0.00969691 0.01397034
C 9.57826449 18.07772955 21.97352520 -0.00103524 -0.00542151 0.00074612
C 5.63383570 27.39587477 1.70741414 0.00744800 0.00011875 -0.00404982
C 8.62781149 24.49588508 3.12530975 -0.00392655 0.00165189 -0.00530676
C 5.39657741 27.60754219 6.40019605 -0.00116759 0.00335091 0.00030835
C 8.61207321 24.14282848 7.88549739 0.00235595 -0.00057393 -0.00403933
C 5.44509499 27.47234713 11.25000718 0.00017405 -0.00533515 -0.00425555
C 8.78972046 24.33708982 12.34988215 -0.00732029 -0.00723886 0.00692837
C 5.44357425 27.57641724 15.97566129 -0.00354723 0.00134447 0.00136731
C 8.69748813 24.70848884 17.10666228 -0.00508553 -0.00228593 -0.00257162
C 5.53891221 27.66507543 20.69242113 0.00177155 -0.00154387 0.00821470
C 8.57408763 24.21232094 21.97175508 0.00064862 -0.00052916 0.00503083
C 12.71736420 2.69576908 1.83122185 0.00206101 -0.00161636 -0.00116345
C 15.57123781 29.93729166 3.17047566 0.00518418 -0.00239531 -0.00114717
C 12.47327383 2.54403910 6.56113764 0.00399866 -0.00547992 0.00321558
C 15.70900447 29.92487992 7.93155531 0.00340637 0.00025886 0.00599698
C 12.68782640 2.64308126 11.43490700 -0.00161276 -0.00605389 0.00113265
C 15.90280649 29.82496356 12.49461722 -0.00440173 0.00401745 -0.00088794
C 12.41533142 2.71811521 16.15061752 -0.00015808 -0.00488256 -0.00554034
C 15.50458453 29.76097662 17.24274066 0.00103321 -0.00407254 0.00003524
C 12.65002066 2.55431766 20.72274363 -0.00052617 -0.00059901 0.00084014
C 15.73972238 29.75934857 22.17693205 0.00217568 -0.00350245 0.00637906
C 13.19174629 8.37189609 1.68740604 0.00690192 -0.00133065 0.00537750
C 16.26850140 5.08970087 2.99032570 0.00713422 -0.00179995 -0.00207382
C 13.11491059 8.23032885 6.45148334 -0.00100607 0.00026504 0.00677271
C 16.16183001 5.16745186 7.73642907 0.00041059 -0.00092922 -0.00186861
C 13.05046443 8.29002044 11.17775647 -0.00158765 0.00181016 -0.00447684
C 16.18665366 5.30291742 12.74308447 -0.00377480 -0.00138402 -0.00079263
C 13.13959106 8.42498591 16.02938362 -0.00373369 0.00144999 -0.00040983
C 15.96808801 5.42441157 17.38366811 0.00631510 -0.00077501 0.00053408
C 12.81535280 8.30676508 20.66827901 -0.00185557 -0.00229445 0.00207922
C 16.21926111 5.46584290 22.03208538 0.00116978 -0.00217502 -0.00052111
C 12.64437381 14.94724155 1.85210286 0.00077090 0.00432613 -0.00222512
C 15.65606290 11.70376301 3.04897115 -0.00738938 -0.00198316 0.00674134
C 12.33819448 14.76586965 6.44680977 -0.00528368 0.00076966 -0.00446352
C 15.48697787 11.87942820 7.91850964 0.00381001 -0.00036886 -0.00255872
C 12.47266753 15.10737635 11.24637430 -0.00222618 -0.00471958 -0.00072964
C 15.43880914 12.00262822 12.75937162 -0.00277669 -0.00625693 -0.00348238
C 12.57764074 15.09332066 16.06246359 0.00285765 -0.00035130 -0.00633778
C 15.61772954 12.18103016 17.53184933 -0.00162320 0.00335040 -0.00037566
C 12.62841786 15.09942542 20.91495954 0.00360054 -0.00099503 -0.00716166
C 15.80592231 12.00834534 22.21002144 -0.00975403 -0.00568054 -0.00308237
C 11.74575726 21.64599793 1.78850898 -0.00449413 0.00116144 0.00144704
C 14.99744198 18.88415753 3.00552368 0.00260006 -0.00401329 0.00313596
C 11.84360155 21.60996217 6.62650055 0.00212603 0.00167751 -0.00517258
C 14.89154317 18.65241936 7.64717063 -0.00098852 -0.00114719 -0.00124620
C 11.94285687 21.46281170 11.35058286 -0.00361633 0.00117714 -0.00075567
C 14.99567410 18.48529704 12.52794307 0.00383495 0.00028850 -0.00177420
C 11.81446455 21.59407752 15.96998963 0.00601296 -0.00438709 0.00306328
C 15.14650070 18.74019166 17.35303593 -0.00636908 0.00252562 -0.00589190
C 11.67865335 21.97810647 20.72135772 -0.00402681 -0.00194263 0.00037139
C 14.95684417 18.79722307 22.00996119 -0.01535647 0.00093420 -0.00197333
C 12.18683203 27.20007815 1.80830576 -0.00139069 0.00159488 -0.00217403
C 15.17186683 24.56018828 3.20275828 -0.00000988 0.00131313 -0.00021746
C 12.02629073 27.38027963 6.56147358 0.00336272 0.00474482 0.00021892
C 15.27353824 24.18307078 7.84489495 0.00187942 -0.00086967 0.00051980
C 12.33288170 27.08993204 11.17443614 -0.00467822 0.00431338 0.00159965
C 15.43446449 24.21680092 12.59966441 -0.00363446 0.00146485 0.00520970
C 11.99864418 27.10592935 15.87583192 0.00167456 -0.00783427 0.00425172
C 15.10631227 24.02952085 17.44550015 0.00227888 0.00628102 -0.00015043
C 11.91572181 27.22083361 20.64003582 0.00200276 -0.00348653 0.00056694
C 15.18248400 24.13895408 22.10948252 -0.00164414 -0.00041601 0.00112853
C 19.41044969 2.36422278 1.63295839 -0.00697106 -0.00067833 -0.00530394
C 22.76051670 29.48396235 2.89609442 0.00039821 0.00340835 -0.00465021
C 19.53065865 2.17754404 6.28560115 0.00486127 -0.00236851 0.00068997
C 22.55146526 29.25269172 7.84347306 0.00002578 -0.00677616 -0.00061927
C 19.48756451 2.40491438 11.11151543 -0.00366244 0.00515984 -0.00584088
C 22.31941866 29.36687425 12.51352830 -0.00347296 -0.00807790 0.00462890
C 19.35485155 2.23659307 15.95542955 -0.00630887 0.00076423 -0.00749355
C 22.60195164 29.52054128 17.26556329 -0.00459455 0.00048665 -0.00281199
C 18.99563489 2.32907497 20.78198581 0.00159357 -0.00638900 0.00202210
C 22.60899324 29.40478256 21.96501561 -0.00075097 -0.00165594 -0.00143115
C 18.98576020 8.84795439 1.79146426 -0.00761692 -0.00340970 0.00090582
C 21.89582526 5.92041959 3.04022908 0.00011897 -0.00699850 0.00367605
C 18.51670443 8.89248318 6.57646767 0.00027880 0.00342542 -0.00123857
C 22.22009023 6.00781252 7.99380244 -0.00582679 -0.00553212 0.00519593
C 18.59714977 8.80643746 11.25631359 -0.00286389 0.00330072 0.00081422
C 21.82674642 5.88210900 12.78477804 0.00160512 -0.00166779 -0.00022787
C 18.81045537 8.94973686 16.03298856 0.00166685 0.00749832 -0.00101387
C 21.68700840 5.98734589 17.31855483 0.00289549 -0.01133034 -0.00233633
C 18.60140529 9.04421744 20.76902708 -0.00032745 0.00373120 0.00159004
C 21.92909313 5.96502505 22.12440681 -0.00072566 -0.00577622 -0.00173298
C 17.84217028 15.84897043 1.63393092 -0.00003330 0.00197684 0.00027161
C 21.20028920 12.66208047 2.92105957 -0.00155857 0.00469846 0.00034307
C 17.94437010 15.57731890 6.42416054 0.00007064 0.00117472 0.01012251
C 21.00433242 12.77876255 7.63024925 0.00520104 -0.00346021 -0.00533401
C 17.81326398 15.53057141 11.13330401 0.00095163 -0.00396041 -0.00168694
C 21.07984722 12.75652254 12.49279355 -0.00407495 0.00009507 0.00219216
C 18.00986158 15.51340266 16.00992737 -0.00231697 0.00073671 -0.00041743
C 21.13261077 12.48287536 17.30861198 -0.00417262 0.00106167 0.00017049
C 18.40108582 15.70565337 20.77576572 -0.00010081 0.00480198 0.00474473
C 21.24326886 12.71078479 21.91021435 -0.00398683 0.00251463 -0.00469373
C 18.41543075 21.47810139 1.74923685 -0.00273081 -0.00467721 0.00548733
C 21.65109765 18.27540953 3.10671203 -0.00010642 0.00439843 -0.00465218
C 18.74979784 21.54036786 6.39930467 0.00344264 -0.00413130 0.00717336
C 21.32548977 18.15573623 7.89036643 -0.00774409 -0.00109435 -0.00285995
C 18.63018586 21.31928372 11.39649278 0.00273271 0.00033442 0.00380644
C 21.24023659 18.10136287 12.41966308 -0.00022344 0.00374927 0.00216016
C 18.40475953 21.24453638 16.08946637 0.00350581 0.00034660 -0.00229606
C 21.48568031 18.25293386 17.14301178 -0.00105475 0.00206025 0.00271722
C 18.29754277 21.12882804 20.89532586 -0.01413616 -0.00374262 0.00103415
C 21.29233787 18.32531190 22.04967942 0.00208167 0.00296101 0.00532755
C 18.68813941 26.89351682 1.76529481 -0.00210427 0.00408303 -0.00125145
C 22.16586769 24.17413409 2.81323958 -0.00487231 0.00046541 0.00216916
C 18.98115150 26.80168006 6.37284724 -0.00341278 0.00403919 0.00122034
C 22.16970974 23.73247746 7.67048598 -0.00629826 0.00195872 0.00164806
C 18.94071182 26.86558680 11.03113101 0.00242482 0.00518578 -0.00398621
C 21.83181741 24.00457517 12.50576912 0.00661973 0.00024479 -0.00501932
C 18.86988056 26.99607194 15.98000886 -0.00137466 -0.00180462 0.00923895
C 21.85442428 23.70771798 17.21303451 0.00135876 0.00328680 0.00400391
C 18.81345011 26.60660199 20.63385578 0.00150070 -0.00166562 -0.00674663
C 21.76626819 23.74835134 21.85509326 0.00021908 -0.00154523 -0.00092852
C 24.81386065 2.98964122 1.73189139 0.00410236 0.00427314 0.00146420
C 28.23405863 0.12896958 3.05186607 -0.00126707 -0.00535419 0.00137255
C 24.98771996 2.85400751 6.42708526 0.00291154 0.00208560 -0.00016239
C 28.13669256 0.14617339 7.80800819 0.00239615 -0.00458226 -0.00449219
C 24.86328073 3.06197873 11.24693266 -0.00369795 -0.00003843 -0.00031585
C 28.00670298 29.86884608 12.44390259 0.00874989 -0.00029030 -0.00207693
C 25.10290501 2.94935506 16.07911716 -0.00364565 0.01144729 -0.00643137
C 27.93629817 29.79829389 17.35611628 -0.00590288 0.00762942 0.00167912
C 25.01124716 3.04443306 20.69230080 0.00490963 0.00111764 0.00271186
C 27.79974385 29.69988712 21.94412960 0.00321034 -0.00348841 0.00425059
C 24.46658113 9.57594503 1.71360820 -0.00185231 -0.00570417 0.00161493
C 27.47385273 6.55358979 3.03922616 -0.00278329 0.00120192 -0.00169596
C 24.13414818 9.49450449 6.43815049 0.00471654 -0.00334362 0.00050806
C 27.40843055 6.73826311 7.59528403 -0.00105122 -0.00447387 -0.00423994
C 23.93682406 9.80175141 11.10652869 0.00112305 0.00391378 -0.00169134
C 27.37431859 6.65259455 12.51404191 0.00355322 -0.00311347 0.00576094
C 24.39348116 9.78849541 15.78906429 0.00504526 -0.00525993 0.00625349
C 27.52083612 6.34142147 17.14568063 -0.00628008 0.00001530 0.00359511
C 24.09546777 9.72007292 20.73240899 0.00249605 0.00163365 -0.00922038
C 27.42265686 6.61517570 22.04170258 0.00407113 -0.00380091 -0.00216668
C 24.62956217 15.24837327 1.62584636 0.00552036 0.00202783 -0.00198070
C 27.79067273 12.26850869 3.08869709 -0.00214358 0.00086978 0.00358267
C 24.92806286 15.20696782 6.40005188 0.00371170 0.01068375 -0.00235187
C 27.56579106 12.38833072 7.88422421 -0.00148860 0.00121161 -0.00280151
C 24.53236887 15.25539499 11.28643783 -0.00072884 0.00183651 -0.00556500
C 27.82590855 12.28295762 12.39721906 -0.00537266 0.00246990 0.00038506
C 24.58405890 15.33874718 15.99808266 0.00293482 0.00332211 0.00271558
C 27.38881126 11.78865353 17.18484201 0.00465916 0.00679629 0.00135387
C 24.78370784 15.45687547 20.59538459 0.00031042 0.00018241 0.00201604
C 27.76224121 12.13746385 22.04742305 0.00425176 -0.00214652 -0.00939788
C 25.09340763 20.74529649 1.58520073 0.00092346 -0.00081206 -0.00439717
C 28.21431193 17.96038821 3.17820310 0.00536424 0.00489522 0.00504224
C 25.29467475 20.92908980 6.41765690 0.00349093 0.00024472 -0.00060697
C 28.34047823 17.89874282 7.78049178 -0.00008779 -0.00109841 0.00183079
C 25.11374562 20.50169538 11.13367701 -0.00854351 0.01050541 0.00172137
C 28.32148444 18.08772086 12.53016889 0.00521834 0.00441548 -0.00655285
C 24.91659029 20.62375457 15.81523445 -0.00624889 0.00157079 -0.00592703
C 28.03980378 17.65337033 17.23535731 -0.00778849 0.00421899 0.00467901
C 24.84912207 20.72002234 20.51094706 -0.00718086 0.00833133 0.00460695
C 28.15891331 17.86139316 21.90323068 -0.00088279 -0.00127665 0.00122445
C 25.56281408 26.40708202 1.57257756 -0.00474765 0.00045342 -0.00424123
C 28.55876906 23.38422229 2.92436558 0.00365825 -0.00932954 0.00251512
C 25.62871267 26.49863522 6.47221652 -0.00214338 -0.00217788 0.01473087
C 28.36432781 22.91471931 7.82654424 0.00395921 -0.00150308 -0.00017215
C 25.59944193 26.28816094 11.28520517 0.00755358 -0.00466345 0.00444291
C 28.31232983 23.17699899 12.37321037 -0.00086300 -0.00857875 -0.00151000
C 25.48831030 26.38443453 15.91542489 -0.00989505 0.00082572 -0.00186891
C 28.67565448 23.19149274 17.33786819 0.00685075 -0.00134365 -0.00060759
C 25.42363308 26.43169799 20.46555693 -0.00064020 0.00579223 -0.00600566
C 28.55372030 23.40484232 22.04035966 0.00797141 -0.00319827 -0.00287604
N 0.18853458 4.69170236 0.55902973 -0.00158421 0.00427189 0.00007346
N 3.30640987 5.33727032 3.67489496 0.00627884 -0.00007979 -0.00062909
N 5.33129161 2.43338833 0.93781084 0.00518806 0.00348244 -0.00293882
N 1.43857311 1.21423982 3.84890717 0.00072831 0.00385925 -0.00437897
N 0.23802888 4.54492996 5.52373196 -0.00460178 0.00309231 -0.00219904
N 3.46561069 5.35862552 8.28770741 -0.00040615 0.00130751 0.00105760
N 4.84980372 2.52296749 5.56717146 0.00326455 0.00011663 0.00315940
N 1.73662441 1.50800545 8.39527372 -0.00570482 0.00021715 -0.00692623
N 0.05827797 4.42723214 10.40198528 0.00138254 -0.00109305 -0.00441574
N 3.36481945 5.17137602 13.24714593 -0.00155689 -0.00095879 0.00605284
N 5.21841684 2.19475753 10.21906087 -0.00383070 -0.00103977 0.00591603
N 1.68180856 1.07364296 13.30595372 -0.00755282 -0.00269127 0.00643285
N 0.13619606 4.33649636 15.20115232 -0.00780987 -0.00138554 0.00266543
N 3.88806159 5.42228194 17.87876010 -0.00548984 0.00491007 -0.00055161
N 5.19816521 2.31357243 15.10021262 -0.00621821 -0.00196150 0.00048717
N 1.66041779 1.09722385 18.01597221 -0.00083287 0.00017849 0.00580298
N 0.15824641 4.23591744 20.02413156 0.00300762 0.00370262 0.00256420
N 3.73147163 5.40951060 22.56458697 -0.00367010 -0.00475130 -0.00148363
N 5.22476493 2.39027565 20.06882995 -0.00605912 -0.00335406 0.00287644
N 1.78160163 1.20603292 22.46478899 -0.00320627 0.00403161 -0.00415364
N 0.87448692 9.91156611 0.98603522 -0.00048687 0.00163223 -0.00857764
N 4.04104561 10.99231642 3.98105030 0.00811218 0.00183852 -0.00626456
N 5.42130234 8.15789113 1.05699191 0.00726680 -0.00006649 0.00572681
N 2.44178119 7.54332925 3.61777061 -0.00626953 -0.00114201 0.00637218
N 0.29215855 10.14290230 5.84132871 0.00289984 0.00995853 0.00693660
N 3.93603241 11.01798824 8.24552452 -0.00630548 0.00748095 -0.00067949
N 5.58163697 8.29715655 5.53159282 -0.00086346 -0.00261754 0.00753418
N 2.22570326 7.18945315 8.36631661 0.00004553 -0.00446058 -0.00295728
N 0.55918448 9.97281581 10.61812960 -0.00029699 0.00779372 0.00355399
N 3.92402057 10.71390238 13.18861416 0.00242053 -0.00203878 -0.00581991
N 5.66165996 8.00185896 10.36304326 0.00036675 0.00240078 0.00041171
N 2.43956344 7.30644980 13.22022731 0.00542129 -0.00529929 0.00243340
N 0.57695768 10.06655461 15.17122041 -0.00499182 -0.00274595 0.00225261
N 3.75688555 11.09836192 18.01116113 0.00310604 0.00137072 -0.00051096
N 5.65723619 8.04086103 15.44660673 0.00197327 -0.00033124 -0.00316962
N 2.33834946 7.11586787 17.89847057 -0.00547651 0.00604205 0.00315692
N 0.34107535 10.14401632 19.90556996 0.00498121 0.00589881 -0.00565011
N 4.11973382 11.11804648 22.81259697 -0.00637768 0.00327715 -0.00962191
N 5.69087713 7.80288200 20.12114807 -0.00555524 -0.00193115 0.00119047
N 2.31507897 7.18944959 22.48402131 -0.00342178 0.00343371 -0.00180250
N 0.83864513 15.75502514 1.07813624 0.00506137 0.00362681 -0.00109649
N 4.34005760 16.57578549 3.42613342 -0.00281242 -0.00113956 -0.00267181
N 6.39756611 13.62955025 0.87878741 -0.00046379 -0.00364226 0.00910865
N 2.47406758 12.78104728 3.69900329 0.00015383 -0.00166955 -0.00048509
N 0.87547496 15.71310544 5.86360422 0.00023933 0.00458663 0.00742433
N 4.81387057 16.62956152 8.45659088 0.00072491 -0.00003174 0.00157570
N 6.21997324 13.64838384 5.37838428 -0.00148517 -0.00229004 0.00228813
N 2.79631934 12.92293592 8.57311166 -0.00242837 -0.00457476 0.00012200
N 0.76476721 15.81792621 10.68713815 -0.00193507 -0.00516680 0.00558570
N 4.78704331 16.92185373 13.11684334 0.00183126 0.00314605 -0.00043258
N 6.52340319 13.50834068 10.26595295 -0.00411372 -0.00410048 0.00120871
N 2.85814325 12.69172147 13.20418676 -0.00223114 -0.00287887 -0.00232442
N 0.85773742 15.36949421 15.44984939 0.00056935 0.00009631 -0.00166209
N 4.37295806 16.59742754 17.86099524 -0.00211358 0.00274688 0.00448821
N 6.20065219 13.51027406 15.17348352 -0.00214002 0.00743796 -0.00319289
N 2.48343576 13.02980158 17.72650887 0.00124808 0.00099383 0.00580737
N 0.81299765 15.52382000 19.93243319 -0.00358881 0.00079738 -0.00135385
N 4.57274220 16.71995069 22.60754222 0.00262695 0.00193904 -0.00049609
N 6.22469101 13.49774678 19.95537810 0.00608989 0.00029956 -0.00534297
N 2.65447057 12.93076650 22.70468751 -0.00096159 -0.00122822 -0.00272183
N 1.38727289 21.47972906 0.92590914 -0.00669414 0.00269046 0.00007551
N 4.05890125 23.46497361 3.80214564 -0.00309767 0.00596147 0.00112890
N 5.31233518 20.02005992 0.88065296 -0.00065949 0.00004175 0.00572993
N 2.75455004 18.25758971 3.71853578 0.00456817 0.00421211 -0.00645364
N 1.26746254 21.26462844 5.71884130 0.00224055 0.00119206 0.00363354
N 3.82382279 23.04780424 8.29529627 0.00340763 0.00025044 -0.00268811
N 5.62427265 19.90582947 5.78182901 -0.00461096 -0.00388411 -0.00825510
N 2.95066083 18.03219302 8.44437981 0.00223757 0.00004809 -0.00022968
N 1.28320554 21.10407484 10.38440598 -0.00329397 -0.00513904 0.00062535
N 4.17802563 23.30494486 13.03755448 -0.00289182 0.00552910 -0.00032896
N 5.26387872 20.06821664 10.31477249 -0.00355409 0.00800862 0.00126567
N 2.84837755 18.12562414 13.14108581 0.00028813 -0.00274059 -0.00311775
N 1.43302023 21.11798631 15.03983852 -0.00169124 0.00215535 -0.00065859
N 4.08166189 23.50409056 17.79220258 -0.00212274 0.00095656 0.00265884
N 5.47836707 20.36604243 15.27546108 -0.00319117 -0.00606781 0.00527283
N 2.65085989 18.11342462 17.71040724 -0.00204647 -0.00184352 0.00050227
N 1.37926157 20.99059156 19.68648977 0.00095692 0.00038413 0.00142196
N 4.16730339 23.33496829 22.40329544 -0.00255041 -0.00639286 0.00337762
N 5.36154386 19.92839734 19.74570104 -0.00003398 -0.00196933 0.00948074
N 3.08149861 18.40799915 22.54167166 -0.00117931 0.00035488 0.00292170
N 0.95366138 27.85755524 0.97715354 -0.00110496 0.00009770 -0.00143177
N 3.10925475 29.66858976 3.79821431 0.00733136 -0.00153647 0.00004197
N 4.60481989 26.87062376 1.11170878 0.00424991 0.00385712 -0.00822786
N 2.06477658 24.41700712 3.40683214 -0.00184484 -0.00266517 0.00452128
N 0.86936738 27.66417096 5.70940106 0.00408735 0.00316407 0.00705453
N 3.16348803 29.68585510 8.42378983 -0.00289864 -0.00419661 0.00749461
N 4.69475732 26.80625858 5.54723239 -0.00271872 -0.00234487 -0.00239175
N 2.21535213 24.73487482 8.38400049 0.00009901 -0.00257288 -0.00321111
N 0.69356240 27.78754572 10.48868404 -0.00204642 0.00619479 -0.00292664
N 3.42874483 29.54837248 13.15017635 0.00122773 0.00091904 0.00474623
N 4.54058642 26.66828053 10.64290010 0.00011449 0.00285103 -0.00252367
N 2.14621154 24.59754955 13.08395673 0.00698882 0.00072358 0.00111935
N 0.85476146 27.69268551 15.47900300 0.00137636 -0.00424898 0.00335586
N 3.54044279 29.63880805 17.95659620 -0.00983722 0.00224057 0.00198598
N 4.65588018 26.75095596 15.28684632 -0.00430026 0.00154420 -0.00295099
N 1.98395630 24.51275722 17.89294843 0.00011210 -0.00347548 -0.00371844
N 0.69919829 27.71728978 20.21503277 -0.00028023 0.00128195 0.00065348
N 3.57006845 29.86869157 22.87245607 -0.00087649 0.00245357 0.00535875
N 4.67083960 26.85716752 19.94661849 -0.00604677 0.00376766 0.00441348
N 2.16266872 24.46542779 22.65932380 -0.00002200 0.00522785 -0.00020054
N 6.74412256 4.27635600 0.99996680 -0.00345344 0.00254114 0.00430861
N 10.22504349 4.84620657 3.85251168 -0.00170056 0.00600781 0.00094650
N 11.87364574 1.83786018 1.23220226 -0.00542846 0.00254816 -0.00406135
N 8.34649362 1.07178923 3.41143389 0.00304629 -0.00024883 0.00308460
N 6.47003328 4.17140021 5.48107059 -0.00016621 0.00137125 -0.00099099
N 9.85771477 4.72570798 8.45720525 0.00150058 -0.00396360 0.00632893
N 11.55297237 1.73169643 5.85974964 0.00123513 0.00107152 0.00163429
N 8.35957557 1.18506353 8.39035822 -0.00726766 0.00365080 0.00706516
N 6.71778435 3.96904470 10.49725553 0.00521600 -0.00133102 -0.00299344
N 10.02766381 4.81583962 13.07358883 0.00172185 -0.00001689 -0.00186880
N 11.87385401 1.74560998 10.82798019 0.00322245 0.00564894 -0.00342871
N 8.39966193 1.16820091 13.27730311 -0.00871658 -0.00608890 0.00358728
N 6.54040996 4.22035785 15.14239529 0.00126230 -0.00253298 0.00124963
N 10.06813962 4.90835608 17.99634275 0.00086482 -0.00551678 -0.00214967
N 11.72464222 1.87916826 15.36784141 -0.00354864 -0.00589671 0.00529511
N 8.44430060 1.10751651 17.93327812 0.00327697 -0.00039352 0.00287843
N 6.71484366 4.15071300 19.76529752 0.00398838 -0.00273303 -0.00278674
N 10.01212330 4.79747273 22.88006537 0.00559937 -0.00060014 -0.00939032
N 11.68210022 1.97001239 19.98915517 0.00337045 0.00877616 -0.00510359
N 8.19479959 1.18021254 22.68123300 0.00903455 0.00140904 0.00592288
N 7.20195503 9.76855844 0.97435832 0.00452747 0.00416263 0.00342917
N 10.78340692 10.23641928 3.70345333 -0.00524154 0.00063026 0.00130491
N 12.34024465 7.59486306 0.92380578 0.00169907 0.00326637 -0.00299907
N 8.93269502 6.77974856 3.96643456 0.00216433 -0.00132433 -0.00233826
N 7.25718465 9.93191372 5.70841371 0.00357672 0.00271323 -0.00119271
N 11.16196428 10.74762190 8.36651264 0.00090254 0.00286759 -0.00508459
N 12.45144217 7.37087959 5.63685856 0.00134639 -0.00137124 -0.00318606
N 8.95800249 6.89502533 8.22493625 0.00005374 -0.00267202 -0.00088325
N 7.42340225 9.46978440 10.25143878 0.00046650 -0.00040899 0.00344074
N 10.64792420 10.40282222 13.26011942 -0.00587462 0.00185117 -0.00650381
N 12.26855576 7.56387329 10.39099459 0.00282007 -0.00267554 0.00495371
N 8.72186201 6.63868487 13.35269649 -0.00360875 -0.00136750 0.00926622
N 7.40631977 9.52800997 15.33555270 0.00021921 -0.00159978 -0.00087780
N 10.78347298 10.54148010 18.03848547 -0.00283712 0.00837830 -0.00348017
N 12.30827244 7.49570301 15.46202400 -0.00127915 -0.00272013 0.00537303
N 8.85052343 6.82463886 17.96912643 0.00045033 0.00190030 -0.00222630
N 7.35046241 9.41569213 20.28067688 -0.00031294 0.00168560 0.00280582
N 10.90639171 10.66823450 22.76581272 0.00838539 -0.00176025 -0.00373137
N 12.06279116 7.49430798 19.85318051 0.00356369 0.00129427 -0.00288367
N 9.00638359 6.92636632 23.04384823 0.00122451 0.00266174 0.00412696
N 7.98011165 15.33312043 0.72077996 -0.00466527 0.00305716 0.00342697
N 10.56746109 17.46726181 3.79074563 0.00374703 -0.00340798 0.00759038
N 12.01037339 14.00070146 1.10157857 -0.00267966 0.00427706 0.00078696
N 9.13286630 11.87007615 3.68697478 0.00755291 -0.00120079 0.00048714
N 7.83907804 15.22701680 5.44955358 -0.00305244 -0.00264204 0.00792436
N 10.24020828 17.41115386 8.51876507 -0.00092167 0.00067753 -0.00405798
N 11.46452626 14.04588566 5.70307647 -0.00136130 0.00251831 -0.00084948
N 9.45998953 12.19176186 8.47206462 -0.00666376 0.00028592 0.00038169
N 7.87591763 15.33794946 10.58359693 0.00490991 0.00413269 -0.00798527
N 10.13429484 17.31381220 13.33120285 0.00237499 -0.00024784 -0.00179422
N 11.58789533 14.12534095 10.84189025 -0.00002571 -0.00323007 -0.00182476
N 9.23716126 12.20795617 13.26729802 0.00279095 0.00563305 -0.00258254
N 7.57875604 15.21070820 15.06696496 -0.00348107 -0.00496923 -0.00196144
N 10.31253142 17.41230762 18.07493561 -0.00403065 -0.00294768 -0.00277160
N 11.65182281 14.41384873 15.33492393 0.00564950 0.00380774 0.00165122
N 9.36575375 12.27740456 18.01058982 0.00309821 -0.00043601 -0.00357531
N 7.90577814 14.99903130 19.90492530 -0.00293181 0.00351662 -0.00157800
N 10.41074792 17.40887871 22.87536013 -0.00555378 0.00176744 -0.00167026
N 11.74425987 14.36751433 20.21523240 -0.00374318 -0.00703832 -0.00303557
N 9.19857545 12.17580599 22.72880024 -0.00524430 0.00338552 -0.00199338
N 6.91701754 21.64416393 0.96709074 0.00332322 0.00049546 0.00042292
N 9.53308078 23.87339229 3.84891312 0.00320408 0.00322513 0.00217802
N 10.94358786 20.90114237 0.98402378 -0.00030598 -0.00320733 -0.00006153
N 8.82081057 18.98585443 3.78688908 0.00183532 0.00211433 0.00410845
N 6.88014944 21.74439129 5.72870368 -0.00286976 0.00335928 -0.00601050