2000
Time=17000.00000000 pbc="T T T" Lattice="31.15548825 0.00000000 0.00000000 0.00000000 29.98787748 0.00000000 0.00000000 0.00000000 23.56915231" energy=-12040.48208213 virial="-35.64944297 -31.80454381 -5.37093799 -31.80454381 -32.33633456 9.43754373 -5.37093799 9.43754373 -47.63779105" stress="0.00036989 -0.00133715 -0.00023842 -0.00133715 0.00060391 0.00037062 -0.00023842 0.00037062 0.00093302" Properties=species:S:1:pos:R:3:vel:R:3
C 30.32555897 3.78190827 1.71340800 0.00146631 0.00410981 -0.00223305
C 2.49616542 0.65669189 2.95249506 0.00110789 0.01271246 -0.00226296
C 30.43092403 3.51217568 6.47677820 0.00427093 0.00313247 -0.00089733
C 2.43533745 0.69020180 7.71663935 0.00111207 -0.00552418 0.00259321
C 30.56213863 3.63788426 11.16881339 -0.00059080 0.00051783 -0.00147493
C 2.59556063 0.57175344 12.56484746 0.00914317 -0.00423070 -0.00454252
C 30.62703633 3.49139434 16.04092668 -0.00693848 -0.00023534 0.00371880
C 2.35487484 0.69181527 17.26027997 -0.00174123 -0.00071963 -0.00365996
C 30.44852211 3.48829032 20.60924713 0.00385710 -0.00443870 0.00242361
C 2.25064748 0.58527270 21.79479885 0.00829937 -0.00471976 -0.00983412
C 30.85602483 9.32993388 1.84587444 -0.00594392 0.00161289 -0.00317996
C 2.81498038 6.29199796 2.98457170 -0.00174135 0.00496256 -0.00520952
C 30.99841012 9.20938416 6.40395612 -0.00126059 -0.00411031 0.00631332
C 2.81507353 6.16631215 7.74996623 0.00010210 0.00003430 0.00217287
C 31.00529128 9.18675328 11.13878189 -0.00394682 -0.00437650 -0.00505473
C 2.85545792 6.28766476 12.45128036 -0.00018408 0.00038422 0.00750457
C 30.93380653 9.25766988 15.94185375 0.00144511 0.00134198 0.00277892
C 2.89238779 6.09010886 17.25797451 0.00049729 -0.00115611 -0.00316548
C 30.84782074 9.44766909 20.54213472 0.00479031 -0.00345886 0.00095292
C 2.77687804 6.37030632 21.89307089 0.00716504 0.00442943 0.00553817
C 31.13374938 14.86464746 1.59362599 0.00507112 -0.00226425 -0.00471247
C 3.46188512 11.85568133 2.95233971 -0.00397129 -0.00148211 -0.00453692
C 0.37881854 14.73403921 6.28765726 0.00079909 0.00367405 -0.00129831
C 3.33371188 11.82713143 7.64203454 -0.00370935 0.00430455 -0.00207972
C 0.17111632 14.78726257 10.98417641 -0.00304234 -0.00352815 0.00778025
C 3.41380352 11.90908724 12.33539908 -0.00378118 -0.00095503 0.00288686
C 0.00559393 14.58871976 15.79404517 0.00063108 0.00345473 -0.00036562
C 3.32472328 11.79118562 17.12922192 0.00186097 -0.00231018 -0.00495507
C 0.30192884 14.74084247 20.50283651 0.00118798 -0.00252596 0.00402882
C 3.43877323 11.78692815 21.89967397 -0.00270808 -0.00099842 -0.00060665
C 0.72338539 20.25389763 1.62113493 -0.00336149 0.00286954 0.00110148
C 3.86767515 17.35031581 3.13655489 0.01045447 -0.00481498 0.00131531
C 0.68609764 20.39955146 6.42129740 -0.00373658 -0.00005792 -0.00192155
C 3.84400488 17.43366409 7.66680110 0.00163356 0.00043170 -0.00110265
C 0.45677708 20.45958246 11.15316712 0.00201445 0.00241288 0.00594366
C 3.37964590 17.27751377 12.57364876 0.00511516 0.00339093 0.00465492
C 0.67470318 20.18250809 15.77375448 0.00700447 -0.00136306 0.00182126
C 3.98259188 17.32547838 17.15771496 -0.00102291 0.00572281 0.00496975
C 0.67789744 20.40772866 20.63112187 0.00651859 -0.00036096 -0.00274635
C 3.87195259 17.28435418 21.89836425 -0.00645788 -0.00254309 0.00465710
C 0.14294307 26.93784819 1.77581619 -0.00154449 -0.00334524 -0.00734562
C 3.13860138 23.86156268 2.91743091 -0.00203918 -0.00585016 -0.00315442
C 0.10370476 26.83387142 6.46368173 0.00366199 -0.00195467 -0.00696438
C 2.96500054 23.76880702 7.58953968 -0.00028054 0.00071949 0.00354464
C 31.14017616 27.03945760 11.11311353 0.00355860 0.00567891 0.00124696
C 2.85873910 23.87013461 12.40296651 -0.00272482 0.00591236 0.00302826
C 31.03783496 26.92616447 15.77732665 0.00228582 0.00333693 -0.00304498
C 3.05387053 23.83311018 17.11044346 -0.00144423 0.00141089 0.00745104
C 0.06631991 26.80479665 20.78580717 0.00931086 -0.00270733 0.00443638
C 3.23458913 23.95009795 21.79127103 -0.00400987 0.00205897 0.00720539
C 6.05937244 3.03379367 1.50523836 -0.00151900 -0.00191436 -0.00183763
C 9.20070491 0.24552424 3.02913471 0.00071941 -0.00164713 0.00363687
C 6.03063992 3.15496557 6.38428967 0.00095778 -0.00538649 -0.00288812
C 8.79045805 0.12894778 7.64327768 0.00163475 0.00448833 0.00355975
C 5.82321917 3.30726291 11.14245118 0.00125525 -0.00636145 0.00148071
C 9.00804821 29.93761575 12.32134512 -0.00158151 0.00136224 0.00629157
C 6.10253881 3.09365927 15.85055528 -0.00302636 -0.00142107 -0.00507210
C 9.22665418 0.25972425 16.99780130 -0.00486942 -0.00122228 -0.00127308
C 5.96494585 3.39506027 20.53751742 -0.00231694 0.00516809 0.00609141
C 8.91753933 0.11550705 21.83214985 -0.00483572 -0.00082981 -0.00327992
C 6.46875968 8.77890328 1.72987430 0.00977668 -0.00010468 -0.00328769
C 9.51543954 5.82674192 3.03932912 0.00373019 -0.00555999 -0.00419234
C 6.49563789 8.73470973 6.42518514 0.00051358 0.00322964 0.00492097
C 9.61054425 5.74391568 7.69422812 -0.00499221 0.00401445 -0.00956244
C 6.43002026 8.75769777 11.08768128 -0.00321881 -0.00179876 0.00228559
C 9.92631838 5.93742531 12.26252576 0.00189988 -0.00039482 -0.00589979
C 6.48096739 8.83174325 15.64229772 0.00696783 -0.00286031 -0.00148015
C 9.68850933 5.97439883 17.12669269 -0.00224662 -0.00194352 -0.00550617
C 6.48648015 8.85427901 20.64980506 -0.00207540 -0.00699737 -0.00031910
C 9.68124893 6.05688505 21.98621002 -0.00151908 0.00015946 0.00469652
C 6.84987619 14.50134232 1.77727255 0.00016971 -0.00038784 0.00085851
C 10.01371021 11.44592693 2.93358584 -0.00257826 0.00174154 -0.00074570
C 6.93606247 14.26714360 6.44674707 0.00036192 0.00804187 -0.00904199
C 9.69100550 11.42539780 7.75269954 -0.00612139 0.01294740 -0.00204591
C 6.97818212 14.38609416 11.20630979 -0.00055682 0.00077478 -0.00048665
C 10.02126111 11.47376284 12.48634589 -0.00023318 -0.00579655 0.00249275
C 6.97201138 14.60989628 15.81868056 -0.00405844 0.00974943 -0.00120127
C 9.91836657 11.64465213 17.07354238 0.00270213 0.00593556 -0.00105978
C 7.07292525 14.32464189 20.52108170 -0.00663099 -0.00712225 -0.00796449
C 9.86652241 11.56074502 22.03303916 -0.00426621 0.00476657 -0.00010618
C 6.29703136 21.07457394 1.72495813 -0.00286311 -0.00752067 0.00445095
C 9.40799009 18.29925859 3.18014769 -0.00434211 -0.01335468 -0.00046162
C 6.31844280 21.19367995 6.50044767 -0.00128266 -0.00068526 -0.00271859
C 9.21869285 17.97260113 7.80377713 -0.00503507 -0.00003631 -0.00101395
C 5.99916348 20.88294157 11.22899402 -0.00122720 0.00074711 -0.00371879
C 9.24845215 18.04125857 12.42404019 -0.00143157 0.00712670 0.00054683
C 6.37145259 21.17202870 15.88858327 -0.00656976 -0.00186748 -0.00674219
C 9.31152457 17.97089303 17.24954781 -0.00227677 0.00110989 -0.00818042
C 6.61020240 21.02756089 20.65000770 -0.00101104 -0.00104855 0.00941850
C 9.54123502 18.09137503 22.06761675 -0.00592492 0.00425634 -0.00531941
C 5.43849658 27.71640287 1.69300702 -0.00069496 0.00315539 0.00535114
C 8.68167503 24.82306808 2.94351219 0.00270043 0.00157035 0.00307810
C 5.40801142 27.56672898 6.39921604 0.00000997 -0.00626811 0.00292875
C 8.77172896 24.55384107 7.77348223 0.00528060 -0.00114029 0.00398175
C 5.39946076 27.68347044 10.97861994 0.00228339 -0.00291681 -0.00767280
C 8.91540389 24.69418838 12.31255425 -0.00095679 0.00655511 0.00235527
C 5.54369799 27.64502274 15.80609606 -0.00156456 -0.00118805 -0.01081175
C 8.87599611 24.67340506 16.89737982 -0.00230934 0.00460541 0.00241856
C 5.34402090 27.50020108 20.54505372 0.00049838 0.00138318 -0.00060890
C 8.53504919 24.74433742 21.72376107 0.00411639 0.00206642 -0.00027607
C 12.80377695 2.71005044 1.67291822 0.00488273 0.00435410 0.00169000
C 16.01392574 29.74921050 2.88495911 -0.00050261 -0.00115940 -0.00495666
C 12.68573474 2.62319228 6.32639580 -0.00033321 0.00567502 0.00051808
C 15.81556135 29.74785805 7.77506569 0.00098247 0.00429046 0.00262526
C 12.68400098 2.41712302 11.03387356 -0.00756002 -0.00649516 -0.00006965
C 15.72101582 29.86178744 12.63139485 0.00698612 -0.00186233 -0.00379167
C 12.54228682 2.71712608 15.88294636 0.00296870 0.00416056 -0.00408885
C 15.89957628 29.76845102 17.26309129 -0.00075169 -0.00159093 0.00068760
C 12.48869770 2.76432088 20.41855347 0.00166130 -0.00067027 -0.00211455
C 15.95703316 29.78895058 21.81408545 0.00028087 -0.00268813 0.00169699
C 13.12852412 8.25752726 1.80614658 0.00218955 -0.00009595 -0.00483613
C 16.13752993 5.26986097 2.89463554 -0.00170125 0.00451222 -0.00470750
C 13.17590406 8.32094373 6.47482204 -0.00003306 0.00017229 0.00099037
C 16.30503327 5.38577012 7.45690998 0.00144511 -0.00131136 0.00307114
C 13.10292889 8.28737276 11.26385565 0.00445056 -0.00562937 0.00056817
C 15.85768372 5.28696712 12.46499108 -0.00095403 -0.00122086 -0.00368644
C 13.26740264 8.66410697 15.93950757 0.00615404 -0.00351953 0.00732419
C 16.19618245 5.48265134 17.19811412 -0.00509854 0.00083081 -0.00125294
C 13.33870221 8.25794488 20.64548683 0.00085148 0.00494886 0.00338962
C 16.11505802 5.34544887 21.85521398 -0.00383482 0.00174534 -0.00211836
C 12.43887827 14.92366255 1.74013080 -0.00137439 0.00832357 -0.00142964
C 15.74584562 11.96345560 3.03637539 0.00435976 -0.00411708 0.00055602
C 12.46905863 15.28788189 6.54862734 0.00119521 -0.00383325 -0.00129925
C 15.57432476 11.94084710 7.88650110 -0.00195725 -0.00842523 0.00057314
C 12.49198173 15.15629614 10.99813025 -0.00173684 -0.00129295 0.00250243
C 15.37921241 12.00846910 12.36713923 0.00217101 -0.00447789 -0.00299794
C 12.43941756 15.17645583 15.94312175 -0.00511566 0.00357343 0.00021721
C 15.48628224 11.92744981 17.15936305 -0.00126783 -0.00630592 -0.00161263
C 12.44457702 15.16092729 20.66247178 0.00598357 -0.00254590 -0.00245384
C 15.40099233 11.94193293 21.87026569 -0.00266391 -0.00245542 -0.00699099
C 11.86731076 21.82280105 1.72508996 0.00399593 -0.00006831 0.00113448
C 14.99147936 18.74798195 3.02973218 0.00305336 0.00144642 -0.00695261
C 11.81233794 21.80198679 6.41127667 0.00562604 0.00083950 -0.00185171
C 15.08379825 18.98590544 7.77391449 0.00246406 0.00390776 0.00172675
C 12.01170905 21.75690493 11.09680153 0.00282305 0.00134847 -0.00502199
C 15.02346465 18.58365629 12.31165326 0.00335133 0.00334657 -0.00018558
C 11.89157168 21.61174117 15.82645960 0.00224388 0.00188317 -0.00064633
C 15.02834499 18.73109394 17.10531057 0.00365843 -0.00036192 -0.00452312
C 11.81208195 21.74547672 20.55502688 0.00695922 -0.00071096 0.00120043
C 15.30196577 18.84937716 21.93834437 0.00604313 0.00218942 -0.00189990
C 12.45430564 27.23426325 1.74960529 0.00345858 -0.00043100 -0.00231732
C 15.16693197 24.39990562 3.11149374 0.00146680 -0.00541369 0.00334769
C 12.38271470 27.42481470 6.42973912 -0.00230650 -0.00017954 0.00058758
C 15.63271084 24.31141873 7.67459892 -0.00307896 0.00549131 -0.00033266
C 12.17423533 27.27794316 11.19968577 -0.00087910 0.00131294 0.00217939
C 15.39016709 24.22068934 12.43731926 -0.00216462 -0.00375864 0.00356237
C 12.32179960 27.20123860 15.98338822 -0.00243152 -0.00477977 0.00314771
C 15.42214414 24.26656818 17.26908929 -0.00604168 0.00396444 -0.00416416
C 11.96149585 27.01669710 20.59501004 -0.00088027 -0.00004636 -0.00459220
C 15.33273438 24.29545302 21.97838877 0.00011390 0.00235729 0.00574643
C 19.54696816 2.49248534 1.66389323 0.00038970 0.00188197 -0.00182181
C 22.58524539 29.12582337 2.82764142 0.00273765 -0.00083309 0.00501852
C 19.40203638 2.29963959 6.42422893 0.00108643 -0.00692724 0.00601779
C 22.42874104 29.45662746 7.59107925 -0.00260186 0.00226613 0.00193425
C 19.31636725 2.21018384 11.08536434 -0.00334067 -0.00158168 0.00701995
C 22.42644995 29.41426525 12.55655318 0.00504425 -0.00008695 0.00062742
C 19.35700735 2.26663563 15.83790113 0.00622777 -0.00315589 -0.00125495
C 22.52637143 29.31989051 17.24562514 0.00484798 -0.00703723 -0.00340272
C 19.33062248 2.36254560 20.52670642 0.00141738 -0.00077617 -0.00018048
C 22.64512078 29.35785122 21.77766160 -0.00224173 0.00700614 -0.00464220
C 18.64497417 9.15078305 1.68876891 -0.00147907 -0.00627921 0.00404452
C 21.91385532 5.84201441 2.95831869 0.00423862 0.00081302 -0.00076209
C 18.82663496 8.91060695 6.34592033 0.00166185 0.00508046 0.00308470
C 22.09837955 5.80672411 7.59260440 0.00426941 -0.00119088 0.00523500
C 18.50275248 8.75565696 11.37636853 -0.00118321 -0.00139244 0.00471068
C 21.26262693 5.77902352 12.58125938 0.00210948 -0.00195546 0.00507714
C 18.60881192 8.94089467 16.04638686 -0.00152393 -0.00668850 -0.00393401
C 21.68300564 6.01085603 17.21561400 -0.00394449 -0.00491234 -0.00144035
C 18.69080108 9.07138676 20.70413088 0.00203458 -0.00006997 0.00450334
C 21.98311486 6.11483948 21.91167320 -0.00031451 -0.00024155 -0.00333877
C 17.77697736 15.74632617 1.73633576 -0.00052022 -0.00043724 0.00291573
C 21.24001665 12.56271389 2.84993892 -0.00374356 -0.00906675 -0.00255234
C 18.04205562 15.55759449 6.27638646 -0.00482517 -0.00051128 0.00104811
C 21.28972124 12.59100625 7.74240627 0.00359661 0.00310314 -0.00237978
C 17.95031351 15.78180448 11.04620634 0.00401523 0.00764570 -0.01319154
C 21.25386872 12.57576053 12.53628670 -0.00588051 0.00637209 -0.00336339
C 18.04588278 15.67870594 15.81113514 -0.00158495 -0.00401470 0.00069424
C 20.96724779 12.73046624 17.04233332 0.00109922 0.00038527 -0.00510057
C 17.92854359 15.62973008 20.62620852 0.00238806 0.00448227 0.00109391
C 21.03804753 12.56221014 21.80628981 0.00238702 0.00056209 -0.00382661
C 18.37195399 21.48443433 1.72032453 -0.00234998 0.00372178 -0.00279332
C 21.42166077 18.14456271 3.06446358 0.00268907 -0.00474740 -0.00084540
C 18.33721035 21.13486797 6.42639375 -0.00727553 0.00321933 0.00249611
C 21.63086982 18.40100130 7.80887703 -0.00248511 -0.00200040 -0.00250248
C 18.59158298 21.23221281 11.13833613 0.00282157 -0.00053294 0.00598051
C 21.46797326 18.40901759 12.53041961 0.00638797 0.00193760 0.00563798
C 18.57599826 21.22521599 15.90621205 0.00017169 0.00737096 0.00292399
C 21.77196399 18.06667517 17.28354879 -0.00531927 -0.00414726 0.00115272
C 18.62777679 21.20746998 20.58336523 -0.00305012 -0.00534846 0.00658115
C 21.38239858 18.05189865 21.83637410 0.00042711 -0.00011434 -0.00163492
C 18.92379730 26.65918785 1.70833192 0.00538310 -0.00889901 0.00028851
C 22.09481825 23.81561149 2.97651281 -0.00179744 0.00867678 -0.00250479
C 19.14684861 26.76993671 6.34239471 0.00916014 0.00279641 -0.00133209
C 22.05524112 23.88127222 7.83982115 -0.00142618 -0.00003942 0.00000005
C 18.87114818 26.64051971 11.29794014 -0.00060363 0.00497117 -0.00283768
C 22.21342078 24.01366031 12.63127617 0.00176989 0.00435030 0.00369875
C 18.82645049 26.71610719 15.88393792 -0.00031639 -0.00273787 0.00508062
C 22.05139836 23.67633979 17.19602390 0.00235153 -0.00075645 -0.00125148
C 19.07225590 26.59998758 20.61400180 -0.00127334 -0.00060455 -0.00350744
C 22.23988323 23.84685585 21.86765925 -0.00447170 -0.00733197 -0.00274040
C 25.04014358 2.82140777 1.61202962 -0.00049263 0.00007216 0.00465964
C 28.22532473 29.93141465 3.11765823 0.00107085 0.00026486 -0.00500777
C 25.03404853 3.15166249 6.29863547 0.00332048 -0.00782727 0.00007486
C 28.09647387 29.91557220 7.70260016 0.00233490 -0.00642576 0.00412383
C 25.03022656 2.85040508 11.11302388 -0.00087226 0.00017699 -0.00027201
C 28.46263269 0.15995362 12.36259992 0.00908183 0.00251242 0.00125408
C 24.71207488 3.04100476 15.85983126 0.00494802 0.00225401 0.00483431
C 28.01368787 29.91171333 17.13208759 0.00247105 0.00378330 -0.00071166
C 24.84064563 2.72489372 20.39573626 -0.00722363 -0.00313451 0.00049688
C 28.13536618 29.95409232 21.88546322 0.00717325 0.00207198 0.00037043
C 24.32141103 9.55724014 1.64105989 -0.00273752 -0.00919378 0.00105071
C 27.35638980 6.56904938 2.96991235 -0.00356607 0.00222383 0.00003817
C 24.11958437 9.47356828 6.45081557 -0.00735516 0.00868329 0.00364799
C 27.43291387 6.50757880 7.73326979 -0.00015042 0.00138782 -0.00506398
C 23.84408524 9.78539171 11.20494357 0.00074216 -0.00135460 -0.00388948
C 27.45634667 6.77532658 12.52685958 0.00362899 0.00509917 -0.00197437
C 24.04303849 9.40551712 15.90312930 0.00638213 0.00063771 -0.00137710
C 27.40023155 6.31711672 17.09637468 -0.00180389 -0.00477866 -0.00219258
C 24.09958896 9.71236309 20.68369508 -0.00104432 0.00259781 -0.00015963
C 27.44679899 6.73618298 21.67798379 0.00427883 -0.00074827 0.00188946
C 24.85293032 15.44775593 1.70541286 0.00419307 0.00154022 0.00288963
C 27.59969455 12.32719793 3.02373826 0.00124818 0.00145910 0.00172323
C 24.67051822 15.10278817 6.33148098 0.00145873 0.00006833 -0.00290715
C 27.81978490 12.14336520 7.69791632 -0.00219581 0.00097768 0.00531887
C 24.44772916 15.30939779 11.00496281 0.00001793 0.00272590 0.00193764
C 27.66967271 12.10911586 12.32756735 0.00260281 0.00868876 -0.00874883
C 24.78392934 15.47085551 15.79871577 -0.00064209 -0.00369655 0.00338307
C 27.63845386 11.99235343 17.07039232 -0.00203464 0.00695090 0.00340015
C 24.57753181 15.11928909 20.57166139 0.00397686 0.00488365 0.00234622
C 28.04849115 12.14288695 21.74680456 -0.00215861 -0.00738457 0.00298773
C 25.19616010 20.64992805 1.66411463 -0.00000930 -0.00406919 -0.00171360
C 28.29181613 17.86980988 3.02308188 -0.00191773 -0.00042708 0.00016649
C 24.94976198 20.66268563 6.31302616 0.00275739 0.00204117 0.00171194
C 28.10153163 17.64193995 7.76110777 0.00076070 -0.00502100 -0.00279676
C 24.94483561 20.70303532 11.06554714 -0.00315530 0.00232626 0.00172600
C 28.06280211 17.72663618 12.24997551 -0.00530121 -0.00934419 0.00505009
C 25.09233942 20.66279572 15.81781197 0.00386242 -0.00640716 -0.00015057
C 28.41995726 17.60813824 17.07475276 -0.00448531 0.00011527 -0.00282049
C 25.13849780 20.43898318 20.42576153 0.00165114 0.00501591 -0.00276187
C 28.06976839 17.73603296 21.80178571 -0.00206942 -0.00249013 -0.00075300
C 25.75024874 26.14216061 1.60433996 -0.00672133 0.00027732 -0.00456122
C 28.66118464 23.33724983 3.02978312 0.00610526 -0.00013965 0.00331466
C 25.68733017 26.31514758 6.42206790 -0.00384304 0.00746169 -0.00169664
C 28.71346911 23.21963848 7.82469183 0.00820672 0.00492371 -0.00311276
C 25.67713316 26.30338219 11.08444708 -0.01532009 -0.00101085 -0.00211377
C 28.40845718 23.39158345 12.47434851 0.00420657 -0.00048252 -0.00125195
C 25.63482000 26.49330182 15.84402833 -0.00337952 -0.00630488 -0.00069228
C 28.71340634 23.31481894 17.09704320 0.00226300 0.00209499 -0.00703169
C 25.71068520 26.36676501 20.50298027 0.00251979 0.00778507 0.00457853
C 28.62676234 23.40315048 21.89292698 0.00271056 0.00280531 -0.00351783
N 0.07653933 4.59453050 1.04715678 -0.00358571 -0.00885717 -0.00279833
N 3.57919147 5.37122605 3.62884779 -0.00377844 -0.00841829 -0.00170494
N 5.19240409 2.24743920 0.83770172 0.00217578 0.00498296 -0.00194957
N 1.99590879 1.66005608 3.64245231 -0.00037588 -0.00227302 0.00610681
N 31.14721035 4.51560986 5.85303401 -0.00330135 -0.00225776 -0.00085831
N 3.48043263 5.17247862 8.45837730 -0.00229475 0.00284969 -0.00080316
N 5.17187479 2.29620763 5.67494545 -0.00385989 0.00136486 0.00500173
N 1.73751794 1.53951694 8.44753245 -0.00247981 0.00269238 0.00329895
N 0.25329780 4.41082704 10.44455753 0.00073707 -0.00210243 0.00276436
N 3.57585570 5.28397936 13.08658339 -0.00055598 0.00263749 -0.00491490
N 5.10813111 2.32077599 10.48121169 -0.00237989 -0.00027067 -0.00353858
N 1.95249291 1.63179240 13.11093479 -0.00475754 -0.00516103 -0.00047776
N 0.31454515 4.39341412 15.41966573 -0.00009766 0.00623901 -0.00484069
N 3.45475714 5.13705879 18.04262785 0.00645758 -0.00329186 0.00677447
N 5.27471269 2.36719171 15.05484562 0.00043498 0.00063173 -0.00350876
N 1.74536232 1.66825503 17.97187603 0.00389821 -0.00226038 0.00227966
N 0.08159108 4.34615327 19.87668862 -0.00325273 0.00059044 -0.00167404
N 3.48495872 5.58660510 22.75549009 0.00066220 -0.00148093 -0.00226541
N 5.35850265 2.35409865 19.89744363 0.00153312 0.00337835 -0.00101959
N 1.73339039 1.44608900 22.66872028 -0.00196221 0.00074910 0.00430776
N 0.42200114 10.26016728 1.14775387 0.00503937 0.00468920 0.00094748
N 4.03032623 10.77637875 3.66740247 0.00101965 -0.00004989 -0.00330658
N 5.43571757 8.18796203 1.05485271 0.00094082 0.00141482 -0.00036486
N 2.23608285 7.23236992 3.79180955 -0.00342477 -0.00001998 0.00449012
N 0.53323272 10.04598666 5.64955934 0.00591255 -0.00309973 0.00469532
N 3.98541312 10.88349218 8.40626163 -0.00222597 0.00013346 0.00479143
N 5.89758551 7.84596581 5.56776642 0.00173234 -0.00061918 -0.00888293
N 2.15906581 7.08573934 8.49441761 -0.00092664 -0.01001686 0.00264505
N 0.60407969 9.85015439 10.24531917 0.00047087 0.00067761 -0.00078059
N 3.91789874 10.85010664 12.94654398 0.00038759 0.00240416 0.00069486
N 5.57913989 8.00304732 10.31778001 0.00404174 0.00095017 -0.00552057
N 2.19382020 7.10899946 13.21709741 -0.00111049 0.00541103 -0.00769277
N 0.49444276 10.13627999 15.24055323 -0.00039550 -0.00059373 -0.00056646
N 4.08461053 10.95424674 17.89297986 0.00498674 0.00154577 0.00516777
N 5.53834115 8.06230881 14.93611034 0.00148905 0.00308294 0.00214261
N 2.27764422 7.08340895 17.93732059 -0.00302173 0.00233586 -0.00177791
N 0.68983685 10.15773514 19.89528968 0.00267573 -0.00025133 -0.00135728
N 4.00812898 10.82164063 22.65845205 0.01002391 -0.00322007 0.00603435
N 5.66225199 8.09792387 19.80998500 0.00209535 0.00325508 0.00515630
N 1.88361667 7.20649796 22.46126068 -0.00118803 -0.00016646 -0.00206102
N 0.82637106 15.53965421 0.85033117 0.00421173 -0.00202697 0.00049501
N 4.83242412 16.84803628 3.93987925 -0.00487201 -0.00101079 0.00042820
N 6.12171966 13.78618065 0.90302230 0.00044041 0.00215644 0.00438922
N 2.99449221 12.85343884 3.76012462 0.00236347 -0.00286121 0.00468295
N 1.18366203 15.57405327 5.60280136 0.00059492 0.00076308 -0.00421129
N 4.60317517 16.57075746 8.41830711 0.00126730 0.00002704 0.00321277
N 6.07333049 13.49402296 5.80859676 -0.00029612 -0.00232419 0.00199058
N 2.72329678 12.73450683 8.37533450 0.00108475 0.00178532 -0.00116404
N 0.87607942 15.70946816 10.31949905 0.00315808 0.00525230 0.00416730
N 4.31019907 16.53688288 13.30116456 0.00276755 -0.00603099 -0.00371423
N 6.25014626 13.43910652 10.47555697 -0.00236484 0.00122044 0.00458855
N 2.71001839 12.69089466 13.18891917 -0.00267895 0.00453487 0.00005265
N 0.58119419 15.63422064 15.08927901 0.00257653 -0.00420765 0.00595475
N 4.92020835 16.78743563 17.93207358 0.00072427 -0.00217370 -0.00181117
N 6.13879948 13.79743648 15.09973101 0.00217876 -0.00306860 -0.00194885
N 2.81577181 12.95009439 17.70081000 -0.00222835 0.00372422 -0.00133750
N 1.06669624 15.72302147 19.85228907 0.00864852 0.00582959 -0.00170463
N 4.64163651 16.45080358 22.58623238 -0.00841189 0.00241826 -0.00256561
N 6.23865245 13.57036471 19.79321472 -0.00442579 -0.00041796 -0.00538567
N 2.90761890 12.77393705 22.57752927 -0.00376559 -0.00071937 0.00270782
N 1.39670649 21.22743522 0.99619110 -0.00504572 -0.00129497 0.00700091
N 4.28809131 23.46648838 3.52246274 0.00154423 -0.00208732 -0.00023610
N 5.46951325 20.20308720 1.10660253 0.00117587 -0.00048962 0.00614480
N 2.96873797 18.06872126 3.81207385 -0.00459106 -0.00241136 0.00791483
N 1.38079781 21.17070232 5.49273433 -0.00015532 -0.01001427 -0.00223515
N 3.88841569 23.09694244 8.33596591 0.00232008 -0.00124615 -0.00090740
N 5.59829823 20.26400639 5.80030839 0.00122878 -0.00152663 -0.00900344
N 3.02030151 18.22178782 8.39125647 -0.00143636 0.00028485 0.00195136
N 1.27106734 21.30433158 10.51426356 0.00340876 0.00138815 0.00847771
N 3.77077191 23.32934132 13.15069435 -0.00276802 0.00287742 -0.00379031
N 5.31414733 19.97082912 10.51928755 -0.00083717 -0.00366200 0.00335773
N 2.63589815 18.09011585 13.34189863 -0.00257169 0.00099283 0.00082562
N 1.42997570 21.11646518 15.09281141 -0.00222363 0.00036003 -0.00319054
N 4.19852038 23.43551554 17.70939355 0.00329284 0.00133694 0.00239898
N 5.52673355 20.27264847 15.25008138 -0.00025990 0.00221722 -0.00161787
N 3.06443355 18.05927138 17.80896618 -0.00509474 -0.00136518 0.00268005
N 1.37309805 21.12986463 19.78887440 -0.00423899 -0.00357820 0.00195154
N 4.19840796 23.12674931 22.37131210 -0.00082250 -0.00230366 0.00335408
N 5.60250238 20.25823564 20.17939748 -0.00164538 0.00162230 -0.00970031
N 3.17987223 18.25114383 22.65556368 0.00183221 -0.00135739 0.00034758
N 0.72245640 27.84268233 1.02639509 0.00484020 0.00010958 0.00018829
N 3.14724807 29.67368532 3.73756254 -0.00220254 -0.00805265 -0.00053038
N 4.64869866 26.83853907 1.02677849 0.00149847 0.00792568 0.00847996
N 2.11087311 24.34195297 3.65560204 -0.00317476 0.00502535 -0.00267930
N 0.90307150 27.73282204 5.87858755 -0.00106182 -0.00191710 -0.00389196
N 3.20463315 29.84181543 8.46127765 0.00462715 -0.00102778 0.00096899
N 4.75624145 26.54663001 5.74015566 -0.00481170 -0.00008060 0.00750003
N 2.00120819 24.34823933 8.37722098 0.00244489 -0.00384313 -0.00517397
N 0.73817911 27.78034226 10.32087227 0.00348960 -0.00041497 0.00247836
N 3.37181452 29.82666102 13.40343112 0.00035464 -0.00198147 0.00156014
N 4.72487137 26.66897618 10.33887389 -0.00406205 0.00094289 -0.00212511
N 1.83278528 24.52001635 12.99569779 -0.00040042 0.00057238 -0.00514787
N 0.78061217 27.79342283 15.22420077 0.00649650 0.00478413 0.00558900
N 3.02495877 29.73600364 17.99312640 -0.00354397 0.00031182 0.00416830
N 4.79617549 26.81902812 14.99927777 -0.00156240 0.00355302 0.00016246
N 2.08693105 24.34052910 17.92866347 -0.00362869 0.00259455 -0.00436136
N 0.77009799 27.62865128 19.91474410 0.00020494 0.00063129 0.00165707
N 3.17111606 29.82930636 22.44517396 -0.00164922 0.00446374 0.00102999
N 4.68852333 26.60405570 19.72492529 0.00198258 -0.00646548 0.00208543
N 2.33201568 24.60097231 22.58411365 -0.00292020 0.00452152 -0.00152699
N 6.51679958 4.14189379 0.84394032 -0.00759382 0.00104469 0.00037010
N 10.29269273 4.94919443 3.68413115 0.00019456 0.00214097 -0.00169287
N 12.13925854 1.77393915 0.95439681 0.00033038 -0.00448771 0.00156996
N 8.93189190 1.47421646 3.61855355 -0.00410094 -0.00288948 -0.00026776
N 6.90137798 3.91833469 5.61681878 -0.00513053 -0.00063743 -0.00346061
N 10.31416368 4.83568500 8.37042918 0.00395075 -0.00243598 0.00394319
N 11.82793468 1.81968455 5.65716457 -0.01170349 -0.00790534 0.00227723
N 8.29137641 1.21928561 8.36572190 -0.00016872 0.00200069 0.00170300
N 6.62570021 4.17579595 10.48471399 -0.00966824 -0.00373829 -0.00176581
N 10.50368230 4.84522226 12.88286438 -0.00382455 -0.00919900 0.00939773
N 11.77550125 1.73788236 10.27053118 -0.00038532 0.00163221 -0.00130524
N 8.53556248 0.91396209 13.12217289 -0.00351515 -0.00635707 0.00159380
N 6.89516207 4.04789314 15.28265523 -0.00190792 0.00364480 0.00082256
N 10.13416289 4.98068587 17.91245382 -0.00666356 0.00380994 -0.00403269
N 11.93983530 1.90227757 14.96788443 0.00743764 -0.00733162 0.00479246
N 8.50520001 1.12984747 17.75488549 -0.00418044 -0.00021016 -0.00253724
N 6.78413034 4.13337320 19.77985933 0.00498780 0.00270008 -0.00227551
N 10.25743108 4.98675581 22.51997242 0.00304415 0.00225606 0.00448767
N 11.92020897 1.81423714 19.63020698 -0.00120396 -0.00155276 -0.00244040
N 8.37449675 1.07612162 22.66083301 0.00348710 0.00294765 0.00137063
N 7.15200053 9.72035978 0.98291537 0.00410789 -0.00027782 -0.00185814
N 10.89576279 10.70651615 3.64553110 0.00678181 0.00074573 -0.00575884
N 12.39770658 7.51806743 0.92575928 0.00705377 0.00508073 -0.00290995
N 8.90288607 6.73887147 3.83994432 -0.00044258 -0.00157608 -0.00410462
N 7.20971870 9.70307742 5.85023605 -0.00569076 -0.00284503 -0.00227004
N 10.57899715 10.53174167 8.35048661 0.00477699 0.00114776 0.00223862
N 12.34910336 7.43724818 5.84140611 -0.00369525 -0.00541910 -0.00153980
N 8.99696561 6.72043120 8.42159931 -0.00564869 0.00100018 0.00201515
N 7.36766754 9.40771671 10.33486895 -0.00468726 0.00682208 -0.00331179
N 10.93247484 10.83492124 13.22817550 0.00138411 0.00021548 0.00426053
N 12.37593909 7.52506008 10.46084585 -0.00103098 -0.00332096 -0.00238887
N 9.21390291 6.75260524 13.09556201 -0.00602292 0.00282478 -0.00340434
N 7.24736859 9.72136836 14.90369591 -0.00224773 -0.00221547 0.00754322
N 10.94730763 10.89319364 17.50974341 0.00260061 0.00682188 -0.00428661
N 12.50555396 7.89576787 15.24529415 -0.00301443 -0.00101126 -0.00038264
N 9.24070280 7.07055239 17.84790288 -0.00282342 0.00360081 0.00316961
N 7.37284894 9.62092233 19.96597990 -0.00289909 0.00246831 0.00146188
N 10.78441186 10.78779934 22.69843106 0.00249711 -0.00175331 -0.00249853
N 12.42642226 7.51172771 19.85381052 -0.00468598 -0.00200520 -0.00609056
N 9.07700648 6.90337410 22.83881282 -0.00322929 0.00493781 -0.00217639
N 7.76420910 15.39021292 1.24075346 0.00460705 -0.00134515 0.00806609
N 10.35627961 17.56389109 3.78506782 0.00432502 -0.00523741 0.00438838
N 11.47454387 14.15094301 1.22004295 -0.00277214 -0.00079850 0.00084847
N 9.11743215 12.14197645 3.70715034 -0.00007950 0.00409511 0.00058314
N 7.69258107 15.17397252 5.77663819 0.00511586 -0.00614622 0.00214966
N 10.24102036 17.24555635 8.41052933 0.00140181 0.00050574 0.00367770
N 11.80706888 14.23377469 5.85335570 0.00526832 -0.00926120 -0.00236975
N 9.04222356 12.21141692 8.65635086 -0.00025030 -0.00421234 0.00468125
N 7.62296386 15.28974458 10.43316190 -0.00040628 0.00090315 -0.00182822
N 10.23657379 17.37443085 13.10093206 0.00167693 0.00205495 0.00433665
N 11.70573778 14.33537343 10.24088254 -0.00150128 0.00361805 -0.00298464
N 9.29781110 12.44211166 13.05621151 0.00198632 0.00388597 0.00013102
N 7.83862749 15.30250882 15.08601174 0.00302154 -0.00142488 -0.00448689
N 10.28344283 17.50547723 18.05877174 0.00452040 -0.00325794 0.00423871
N 11.79303798 14.22391466 15.21425527 0.00119441 -0.00005212 -0.00243609
N 9.01774887 12.00919673 18.06169413 0.00273312 -0.00277208 -0.00072959
N 7.92346467 15.18386615 19.87595660 0.00275391 -0.00521006 0.00181127
N 10.34800390 17.32266538 22.79144479 -0.00638958 0.00069506 0.00492431
N 11.67266354 14.30488514 19.98503005 -0.00101179 -0.00047175 -0.00520797
N 9.10950496 12.34961220 22.83569040 0.00494094 -0.00400101 0.00557277
N 6.99920603 21.93435974 0.95685711 0.00380574 -0.00156604 -0.00708252
N 9.62709258 24.00748130 3.53536787 0.00168724 0.00272336 -0.00280245
N 11.17859557 21.00302173 0.96157488 0.00151871 -0.00158658 -0.00302227
N 8.42053797 18.74326054 4.02482834 0.00052994 -0.00717826 0.00108289