2000
Time=8000.00000000 pbc="T T T" Lattice="31.22116447 0.00000000 0.00000000 0.00000000 30.08137024 0.00000000 0.00000000 0.00000000 23.54508263" energy=-12038.38797343 virial="-79.76909543 -32.05966526 0.34524171 -32.05966526 -77.59771753 -5.89971903 0.34524171 -5.89971903 -48.07437048" stress="-0.00171970 -0.00150558 -0.00000475 -0.00150558 -0.00150888 -0.00021054 -0.00000475 -0.00021054 0.00073244" Properties=species:S:1:pos:R:3:vel:R:3
C 30.57076026 3.57886855 1.56573253 -0.00016350 -0.00032379 0.00049183
C 2.40797469 0.92108260 2.88758570 -0.00270103 -0.00171088 0.00032736
C 30.47031968 3.82397740 6.43492172 -0.00277008 0.00050165 -0.00293797
C 2.43374207 0.90034283 7.40867255 -0.00731905 -0.00296521 0.00037713
C 30.66076617 3.71534745 11.16634578 -0.00234262 0.00186090 -0.00120102
C 2.53504010 0.96387303 12.25542094 0.00198067 -0.00298320 -0.00389017
C 30.42135413 3.86784048 15.96504846 0.00152974 -0.00298111 -0.00044975
C 2.44586399 0.65312249 17.03041036 0.00031445 -0.00183369 0.00204006
C 30.41996557 3.66592706 20.51365900 0.00122245 -0.00191169 -0.00125069
C 2.44626854 0.56010772 21.62194064 0.00049384 -0.00012911 -0.00302050
C 30.93747832 9.18136798 1.74211837 -0.00545664 0.00121221 0.00027150
C 2.85232370 6.04399899 2.96682895 0.00226899 0.00114365 0.00643469
C 30.90888587 9.28221176 6.54948968 0.00082381 -0.00417327 0.00541588
C 2.92423615 6.34383099 7.74556025 -0.00445231 0.00200624 -0.00116121
C 31.10198794 9.16696267 11.22750833 -0.00033372 0.00041180 0.00138555
C 2.86650595 6.11329952 12.43136410 0.00075563 -0.00240992 0.00320296
C 31.02110933 9.33369397 15.90890359 0.00013772 -0.00070033 -0.00640737
C 2.61749443 6.36428999 17.04803797 0.00115590 0.00330327 -0.00140697
C 31.06647134 9.23950230 20.74412408 -0.00178943 -0.00165982 -0.00417563
C 2.98861907 6.32235842 21.79687847 0.00685961 0.00553533 -0.00064494
C 0.18603918 14.53883330 1.60393955 0.00249441 0.00055640 0.00359908
C 3.34596434 11.71785197 3.20072038 0.00239128 0.00010149 -0.00564826
C 0.06849858 15.02170103 6.37089635 0.00464116 0.00187957 0.00756708
C 3.39080103 11.86817241 7.78985130 0.00158573 0.00193121 0.00095746
C 0.22455066 14.66934232 11.05557305 -0.00108229 -0.00242459 0.00342713
C 3.19626975 11.65344665 12.51983900 -0.00046380 0.00403662 -0.00298441
C 0.02532747 14.52596972 15.97688569 0.00406394 -0.00296353 -0.00049522
C 3.38243575 11.79664389 17.12338990 -0.00047785 0.00134437 -0.00352740
C 0.11248682 14.79002305 20.59447359 -0.00168792 -0.00068006 0.00098597
C 3.39827776 11.72962496 21.95117996 0.00596916 -0.00992231 0.00282766
C 0.64365949 20.24940060 1.51988317 0.00137567 -0.00410771 -0.00865338
C 3.91140665 17.37885741 3.01490953 0.00288391 0.00538784 0.00676461
C 0.68669065 20.34607574 6.38337896 0.00929422 0.00126342 0.00107626
C 3.73390987 17.31229755 7.69519184 0.00515898 0.00048919 0.00355283
C 0.72193820 20.29728446 10.98644715 0.00006224 0.00050888 0.00345952
C 3.69154495 17.26875604 12.32420903 -0.00552700 -0.00840619 -0.00119997
C 0.64345198 20.26091295 15.65952157 -0.00706360 0.00170483 0.00121527
C 3.62913083 17.32082856 17.08575974 -0.00564935 0.00378107 0.00112182
C 0.80485542 20.01896679 20.43503361 0.00378633 -0.00020896 -0.00623877
C 3.83560583 17.13576720 21.85077096 0.00532515 -0.00379376 0.00885292
C 0.05409361 27.11609826 1.52049322 -0.00437059 -0.00345654 0.00346103
C 2.99707585 24.23114747 3.20860873 -0.00071397 -0.00283863 -0.00403654
C 0.01145964 27.48808809 6.34104755 -0.00109507 0.00002689 0.00585832
C 2.86111612 23.95855413 7.69136692 0.00048390 -0.00270698 -0.00295605
C 0.03480681 27.08704412 11.05543888 -0.00573148 -0.00491933 -0.00482859
C 2.98257928 23.89262961 12.66408217 -0.00099515 -0.00655970 0.00527930
C 0.19195290 27.00785054 15.77667484 0.00114245 0.00185308 0.00279061
C 2.95641313 23.99824250 17.35817212 -0.00703487 0.00087049 0.00003019
C 31.13166760 27.15745900 20.47945879 0.00467074 -0.00451887 0.00203665
C 3.20833656 24.08941569 21.96843983 0.00059316 -0.00779771 -0.00054498
C 5.96210777 3.29842944 1.53551080 0.00260817 -0.00324154 -0.00276654
C 9.08576742 0.26443095 2.94420688 -0.00365923 -0.00472980 -0.00365276
C 6.19651495 3.24463198 6.29542216 0.00522878 -0.00053908 -0.00046808
C 9.27077245 0.32683112 7.67405311 0.00506007 -0.00175342 0.00209719
C 6.12658461 3.17664142 10.95026660 0.00292241 -0.00195803 -0.00903388
C 9.31649642 0.08705548 12.35812306 0.00148430 -0.00099601 0.00477768
C 6.08006601 3.30520232 15.70132659 0.00112424 0.00469600 0.00324960
C 9.04723081 0.24084844 16.98070358 0.00062699 -0.00372160 -0.00494256
C 6.15191009 3.06945435 20.41999110 -0.00191068 0.00778092 0.00005477
C 9.07371013 0.07088649 21.69792820 0.00324300 0.00188733 -0.00150736
C 6.65347004 8.78596351 1.76971575 0.00323791 -0.00011998 -0.00172270
C 9.54457880 6.06728734 3.10840860 0.00364124 -0.00398403 0.00088632
C 6.44322775 8.67474066 6.38036438 -0.00239212 -0.00608435 0.00977583
C 9.69503136 5.67783311 7.69171967 0.00348798 -0.00344551 -0.00123220
C 6.39206921 8.55567873 11.19705400 -0.00232596 0.00179348 -0.00128014
C 9.87159306 5.79330586 12.51678498 -0.00092350 -0.00116523 -0.00720814
C 6.41071605 8.66703526 15.78786416 0.00449073 0.00598030 -0.00365156
C 9.62908494 5.82504592 17.29331465 0.00051339 -0.00321351 -0.00288622
C 6.59436393 8.79879670 20.60271780 0.00162131 0.00523500 0.00224174
C 9.45800894 5.79298345 21.80831890 0.00380098 0.00135079 -0.00521687
C 6.94814019 14.28191639 1.67590411 0.00193816 0.00350157 -0.00635560
C 10.31239831 11.67022150 3.19591914 0.00090295 0.00758921 0.00663234
C 6.83788232 14.48561743 6.32845157 0.00021783 -0.00196665 -0.00245285
C 9.86479547 11.10065446 7.72834213 -0.00182570 0.00352658 0.00558882
C 7.05284884 14.12745885 11.02462412 -0.00285511 -0.00025659 -0.00263119
C 10.13851848 11.40329438 12.46196210 -0.00539540 0.00207962 0.00369661
C 7.01802954 14.11755081 15.74619265 0.00760332 -0.00372013 -0.00507010
C 9.92596274 11.19896968 17.04136543 0.00299769 -0.00075550 0.00282659
C 7.00793478 14.54633327 20.60974890 -0.00232704 -0.00193204 -0.00480081
C 10.05491551 11.32770281 21.81342698 -0.00842328 -0.00264750 0.00065835
C 6.21777955 21.00714813 1.72124992 -0.00124454 0.00670076 -0.00077589
C 9.50912665 18.35160205 2.95685261 -0.00161242 0.00396720 0.00003614
C 6.22142196 21.02155802 6.39655833 -0.00342815 0.00076161 0.00004259
C 9.51041062 18.14373661 7.69314148 0.00233240 -0.00244482 -0.00189652
C 6.22561970 21.02568788 10.97792790 -0.00198884 -0.00281197 0.00240130
C 9.26389945 17.86820306 12.47365201 0.00785741 -0.00265935 -0.00219856
C 6.10105336 21.04155067 15.63703232 -0.00105475 0.00296091 -0.00721520
C 9.45463325 18.15594471 17.27739138 -0.00507879 0.00493872 0.00169826
C 6.27179000 21.26107062 20.57002841 -0.00158139 -0.00464598 0.00296087
C 9.27516971 17.88310414 21.88851241 -0.00394771 -0.00144491 -0.00806363
C 5.50562668 27.82096347 1.72241569 0.00516837 -0.00024557 0.00388373
C 8.45052704 24.71836664 2.94171128 -0.00254046 0.00298425 -0.00445429
C 5.25525986 27.77257585 6.26942097 0.00781705 0.00440601 -0.00100617
C 8.62117953 24.62852439 7.65097824 0.00259532 0.00269074 0.00836992
C 5.55395078 27.68955075 11.02285153 -0.00113425 -0.00439210 0.00158160
C 8.89816458 24.78447285 12.29721946 0.00127316 0.00812077 0.00243222
C 5.53852041 27.75873264 15.64444528 0.00737225 -0.00032396 -0.00019893
C 8.68628315 24.49218402 17.07796962 0.00322120 0.00506571 -0.00288511
C 5.49916203 27.64196227 20.40207971 0.00627063 0.00091860 0.00249198
C 8.67350066 24.65059092 21.83796165 0.00534665 -0.00493850 -0.00301393
C 12.58790666 2.87511406 1.79129612 0.00440507 0.00204167 -0.00547026
C 15.73954728 29.85378363 2.99655405 0.00317267 -0.00482904 0.00501656
C 12.76996749 2.83524988 6.45791750 -0.00120068 -0.00297157 -0.00239004
C 15.72883385 29.79256533 7.86028888 -0.00538746 -0.00018196 0.00351542
C 12.83830226 2.87680734 11.13155189 0.00314886 -0.00549159 0.00181879
C 15.94750985 29.78443682 12.56262393 0.00162565 0.00078687 0.00711555
C 12.88591037 2.85718265 15.92132879 -0.00241564 -0.00412083 -0.00078493
C 15.89349042 29.99175649 17.08786674 0.00132982 0.00127476 -0.00072355
C 12.79815814 2.86026947 20.49019022 0.00465072 -0.00273971 0.00233674
C 15.63867805 30.04106112 21.73749879 -0.00071994 0.00204018 -0.00443435
C 13.28987388 8.49871291 1.86445982 0.00099274 0.00418506 -0.00108874
C 16.48152410 5.45623344 2.93732889 0.00072556 0.00342731 -0.00149770
C 13.09191110 8.46246424 6.44156508 0.00139992 -0.00154939 0.00577624
C 16.13372679 5.25056834 7.52904465 -0.00063948 0.00193341 -0.00329664
C 13.06082094 8.33127984 11.18854237 0.00048305 0.00641836 0.00247045
C 16.28428523 5.46870138 12.33340942 -0.00605289 0.00138328 -0.00065744
C 13.29680678 8.55563709 15.94194231 -0.00402444 0.00060908 0.00937079
C 16.20482169 5.42186843 17.12152017 0.00337582 0.00126098 0.00324675
C 13.05417303 8.52922127 20.69712470 -0.00204387 0.00493823 -0.00802785
C 16.09568533 5.48727312 21.86764574 -0.00762632 -0.01188698 0.00009898
C 12.58025538 14.85980414 1.90805121 0.00230002 0.00422140 -0.00325390
C 15.69093600 11.98539102 3.12737482 -0.00083919 0.00092763 -0.00319055
C 12.31808758 15.03603483 6.49376945 0.00186698 -0.00477569 -0.00230579
C 15.48474801 12.04075945 7.83947706 -0.00023283 -0.00013463 0.00235637
C 12.41397126 15.03262671 11.15981182 -0.00324107 -0.00544495 -0.00135143
C 15.72351008 12.09965034 12.48196688 0.00073562 -0.00276425 0.00278333
C 12.69765811 14.80683835 15.87618439 0.00499891 0.00028920 0.00076939
C 15.82060634 12.22052820 17.09493776 0.00128048 -0.00000982 -0.00309465
C 12.19299837 14.86097833 20.79056822 -0.00044038 0.00225250 -0.00314686
C 15.48163391 11.83139188 21.85433260 0.00579804 -0.00041839 0.00171263
C 11.74580836 21.58538022 1.70595142 -0.00161157 -0.00158624 0.00960350
C 15.01162273 18.61962080 3.16913545 -0.00209106 0.00046763 0.00332505
C 11.71139136 21.82692384 6.51449106 0.00050573 0.00455512 0.00162752
C 14.99695711 18.68514606 7.82020516 -0.00320934 0.00357036 0.00508988
C 11.73317688 21.83200379 11.18659949 -0.00444614 0.00642502 0.00110526
C 14.77063175 18.63840015 12.27550685 0.00325146 -0.00289362 -0.00141788
C 11.66505534 21.79599400 15.89779150 0.00395314 0.00371713 0.00044624
C 14.85479082 18.67114389 17.11771289 -0.00135936 0.00608433 0.01207163
C 11.62630952 21.60683933 20.50279862 -0.00193134 -0.00192145 -0.00427311
C 14.88779337 18.61584976 21.94818678 -0.00470663 0.00434395 0.00193694
C 12.19081686 27.40989485 1.64448749 0.00440547 0.00483259 0.00756931
C 15.18038178 24.23037965 3.05859885 -0.00555793 0.00436861 0.00711918
C 12.30547731 27.29728933 6.27938606 0.00430593 0.00372302 -0.00051363
C 15.35068343 24.05936016 7.76651924 0.00134443 -0.00635595 -0.00136526
C 12.31254272 27.35432957 11.02889268 0.00043942 -0.00436100 0.00306880
C 15.52032945 24.21344636 12.48959843 0.00154485 -0.00237037 -0.00877222
C 12.32309146 27.29228762 15.86521219 0.00234441 -0.00151042 -0.00501547
C 15.32486175 24.19364800 17.17804169 0.00105331 0.00250231 -0.00157795
C 12.25522493 27.36901836 20.39563520 -0.00195336 0.00278878 0.00505260
C 15.32813498 24.48948053 21.89515912 -0.00133567 0.00021878 0.00577207
C 19.42127894 2.16980055 1.74108765 0.00348926 0.00409442 -0.00033769
C 22.44606858 29.45212531 2.92112312 -0.00169123 0.00145382 -0.00741624
C 19.52417371 2.29438361 6.49459691 -0.00476878 -0.00129770 0.00143894
C 22.51997054 29.49309171 7.74383731 0.00070638 0.00010896 0.00553947
C 19.60523918 2.30500059 11.20927225 0.00320117 0.00678415 0.00382227
C 22.43563286 29.16227684 12.36774003 -0.00393494 -0.00086537 0.00467399
C 19.64553778 2.45382237 15.71336955 0.00522742 0.00648419 -0.00273380
C 22.53874086 29.45477533 17.02475338 0.00365190 0.00320409 -0.00321236
C 19.50548307 2.28851767 20.57433214 -0.00244417 0.00300511 -0.00078796
C 22.57376860 29.53947929 21.86775201 -0.00220897 -0.00419905 0.00057897
C 18.73356678 8.94375004 1.63039552 0.00509221 0.00551966 0.00378718
C 21.95172002 5.83392324 3.03918166 0.00254727 -0.00074080 0.00263066
C 18.89580229 9.08697331 6.41919633 0.00217489 -0.00164228 0.00306751
C 22.01438598 6.10365541 7.70015335 -0.00577343 -0.00205216 0.00229446
C 18.67488582 9.04048727 11.13012677 0.00230724 0.00116236 -0.00416668
C 21.93007167 5.97215193 12.38406477 -0.00468392 0.00197030 -0.00529699
C 18.64068812 9.13910003 15.70924167 -0.00367368 0.00491272 -0.00119700
C 21.80227545 5.95342638 17.19672262 -0.00248617 -0.00051434 0.00551343
C 18.70760600 9.08292095 20.50797633 -0.00239067 0.00467578 0.00183186
C 21.89746873 5.96753233 21.87954355 0.00007013 -0.00347510 0.00471314
C 18.17015489 15.70186777 1.74697439 0.00413237 -0.00044084 -0.00977563
C 21.40545064 12.88381481 2.95339407 0.00256947 -0.00355144 -0.00249359
C 18.04970021 15.62405771 6.41413161 -0.00648342 -0.00696997 0.00469938
C 21.11171513 12.67768842 7.80157872 0.00136775 0.00178735 0.00315932
C 17.89861761 15.84654699 11.12239616 0.00185815 0.00172460 -0.00412918
C 21.08844332 12.61766303 12.40707320 -0.00219683 -0.00397006 0.00042616
C 17.78791337 15.68354553 15.89691496 -0.00113173 0.00299696 0.00387817
C 21.06802423 12.64620258 17.02829886 0.00494377 -0.00062375 -0.00276966
C 18.11853535 15.87661306 20.60269245 0.00212513 -0.00109681 -0.00308101
C 21.20570597 12.72562191 21.68576495 0.00466452 -0.00281034 0.00395545
C 18.57977991 21.20037801 1.77253957 -0.00299945 0.00387398 0.00151181
C 21.78773075 18.22018081 3.06917530 -0.00286435 0.00469414 -0.00283886
C 18.49133704 21.27948457 6.45950879 -0.00436142 -0.00228121 0.00018761
C 21.85654351 18.39912650 7.78150968 -0.00003129 -0.00469342 0.00273334
C 18.41109405 21.40876628 11.06404722 -0.00051576 0.00050973 -0.00657714
C 21.34348098 18.24789860 12.51660367 0.00127630 -0.00117056 0.00968547
C 18.40961905 21.41548713 15.77135665 -0.00124214 0.00470572 -0.00018851
C 21.68317579 18.25852757 17.12357855 0.00184013 -0.00457096 0.00326496
C 18.48531297 21.32840305 20.53425991 0.00100452 -0.00098977 0.00292873
C 21.58890791 18.25259540 21.95660598 -0.00328916 -0.00503538 0.00274186
C 18.90722309 26.98830277 1.52818407 0.00441159 -0.00249109 0.00247704
C 22.22790471 23.95063108 2.99594095 -0.00408690 -0.00183858 0.00121089
C 18.60897991 26.84473000 6.37514494 0.00192959 0.00274674 0.00136141
C 22.29533878 23.75802753 7.81604465 0.00051495 -0.00601504 -0.00286971
C 18.98186338 26.93680046 11.21961890 -0.00265715 0.00155332 -0.00188881
C 22.09368242 23.80268427 12.55487484 -0.00076748 0.00300326 -0.00488299
C 18.87472457 26.83380460 15.86953054 0.00368105 0.00625808 0.00241328
C 22.02710827 23.90521344 17.14057057 0.00265073 0.00576599 -0.01060016
C 18.83476365 26.80632572 20.43062861 -0.00540561 -0.00388055 -0.00171706
C 22.11202568 23.63943873 21.80819908 -0.00398306 0.00168021 -0.00059497
C 25.04729770 3.11747147 1.70943747 0.01131302 0.00056742 -0.00217273
C 28.13719321 0.00698601 2.95400380 -0.00093483 0.00008853 0.00021566
C 25.01067674 2.98263938 6.41959632 0.00423207 0.00369575 -0.00745127
C 28.22403775 30.04019162 7.75406643 -0.00096185 0.00121758 0.00081299
C 24.89932274 3.01671350 11.00324058 0.01167584 -0.00020461 0.00214564
C 28.25743512 0.05513351 12.30900206 0.00914647 -0.00139638 -0.00332681
C 24.95733731 2.84080409 15.80565899 0.00142430 0.00249680 0.00062691
C 28.17586642 0.00526544 17.03763123 0.00206501 0.00246288 -0.00615767
C 25.00387796 2.65903394 20.43833941 0.00525435 -0.00410250 0.00747712
C 28.23021365 30.06842170 21.87531175 -0.00299863 -0.00294657 -0.00226727
C 24.41909584 9.61395548 1.72610787 -0.00141354 0.00156039 -0.00544151
C 27.31408203 6.48085112 2.94180874 -0.01003750 0.00365923 0.00055125
C 24.44618249 9.79310820 6.46203630 -0.00100044 -0.00531800 0.00948456
C 27.32582706 6.56179957 7.72229034 0.00558075 0.00476846 -0.00332377
C 24.11628834 9.97408820 11.08054568 -0.00262578 -0.00140350 0.00080298
C 27.48913604 6.59693042 12.38557810 0.00159565 0.00372976 -0.00361509
C 24.24273804 9.72664519 15.76950250 -0.00047757 -0.00068458 -0.00649445
C 27.29304708 6.68464294 17.10773605 0.00089237 0.00439329 0.00553472
C 24.34089822 9.78807939 20.63046293 0.00433370 0.00453721 0.00470615
C 27.45940267 6.66645328 21.75342517 -0.00047500 0.00597894 0.00209329
C 24.57564235 15.18488995 1.69221322 -0.00717710 -0.00199018 -0.00436432
C 28.04028578 12.23433383 3.14929959 0.00156671 0.00722272 0.00203523
C 24.71915959 15.52167893 6.46879750 -0.00142281 -0.00099692 -0.00766280
C 27.77747371 12.28660128 7.70005104 0.00382533 0.00473375 0.00040752
C 24.69094821 15.27560027 11.20931929 -0.00108644 0.00066896 0.00196856
C 27.76180246 12.13151819 12.40880868 -0.00138874 0.00269707 -0.00557149
C 24.58404822 15.34097718 15.95774296 0.00081324 0.00184338 0.00102473
C 27.80418529 12.34786675 17.08807880 0.00061511 0.00232427 0.00479848
C 24.95590374 15.20874640 20.78043365 -0.00322106 -0.01026808 0.00598338
C 27.86688114 12.16452130 21.88773461 0.00235575 0.00500016 -0.00170583
C 25.32447609 20.76819368 1.72904619 -0.00008521 -0.00696733 -0.00565313
C 28.26818132 17.99094358 3.14305054 0.00248193 0.00078728 0.00374375
C 25.27782054 20.99317502 6.53190940 -0.00034182 -0.00134098 -0.00618477
C 28.55633064 18.08115611 7.82191373 -0.00321945 -0.00124981 0.00170767
C 25.35447773 20.76868401 11.24325473 -0.00648906 0.00321322 0.00403201
C 28.30035556 17.59199243 12.37562622 -0.00270312 0.00484669 -0.00066039
C 25.28676289 20.74481870 15.88826983 -0.00534903 0.00547166 0.00102445
C 28.20617596 17.77984055 16.98642218 -0.00215946 -0.00102095 -0.00441480
C 25.48903712 20.92539788 20.56893761 0.00061093 -0.00382855 0.00152758
C 28.29075189 17.76457890 21.82856316 0.00104722 -0.00325616 -0.00046936
C 25.64220327 26.37568797 1.64138129 0.00538984 -0.00467694 0.00288760
C 28.80983120 23.41421755 3.05516672 -0.00090243 -0.00833421 0.00185501
C 25.86752309 26.61507122 6.27036438 -0.00475252 0.00395415 -0.00293044
C 28.84149509 23.72463749 7.56301972 0.00382069 0.00724728 0.00178204
C 25.65252116 26.44994713 11.07318365 -0.00750213 -0.00659345 0.00394410
C 28.70734195 23.44334752 12.35359785 0.00066242 0.00187630 0.00170069
C 25.77158239 26.38385792 16.03151817 -0.00712593 -0.00229569 0.00448106
C 28.77396096 23.63155963 17.15898085 0.00503425 -0.00062005 -0.00742862
C 25.57964180 26.52397296 20.55422444 0.00006109 0.00083831 0.00719813
C 28.67639828 23.48846901 21.86536622 -0.00004284 0.00656434 0.00263960
N 0.21776027 4.31961073 0.82685355 0.00246576 0.00271736 -0.00000982
N 3.49114233 5.19652618 3.80118171 -0.00216180 0.00371768 0.00904330
N 5.34535456 2.33403670 0.77415668 0.00363059 0.00193093 0.00140804
N 1.60823692 1.71935167 3.69176510 0.00394465 -0.00244387 0.00068819
N 0.02350949 4.62172310 5.65704276 -0.00181288 -0.00155816 -0.00535247
N 3.63778151 5.37128273 8.37325914 0.00107176 0.00466179 -0.00478833
N 5.47683434 2.31740412 5.60815150 -0.00412745 -0.00277155 -0.00214118
N 1.79125615 1.90756404 8.03505983 -0.00421592 0.00278264 -0.00741128
N 0.11396949 4.59503072 10.51648635 -0.00110925 -0.00098238 0.00091335
N 3.45558448 5.20025593 13.21634369 -0.00621093 0.00241446 -0.00776004
N 5.29163246 2.40626462 10.23834573 -0.00265021 0.00078013 0.00211599
N 1.66935017 1.61821558 13.06802637 0.00486644 0.00400783 0.00207635
N 31.17653370 4.69984656 15.15850793 -0.00539064 -0.00394104 0.00490048
N 3.30658451 5.39951238 17.58327004 0.00154070 -0.00467667 -0.00514421
N 5.30404624 2.48608239 15.01636108 0.00106654 -0.00538682 -0.00249266
N 1.88104491 1.59211284 17.78279706 -0.00170284 0.00545889 0.00403008
N 0.05702422 4.55688823 19.92420364 0.00228065 -0.00365385 0.00412402
N 3.61084746 5.26795906 22.37741214 -0.00202619 -0.00680766 -0.00165151
N 5.13875996 2.35257995 19.81103955 0.00058252 -0.00792510 -0.00412361
N 1.86641861 1.60225717 22.31379730 -0.00288672 0.00225781 0.00022864
N 0.36198197 10.09299409 0.98742853 0.00113992 0.00174918 0.00580064
N 3.83011327 10.66027609 3.97227280 -0.00192042 -0.00080786 -0.00036984
N 5.85657520 8.02122392 0.98701539 0.00496617 0.00362928 -0.00437474
N 2.31485392 7.11494945 3.57770411 0.00205332 0.00305504 -0.00204818
N 0.57109253 10.07848350 5.89521877 -0.00081081 0.00161203 -0.00081151
N 4.03318983 10.79480519 8.37320724 0.00411008 0.00033438 -0.00133853
N 5.80642946 7.73231310 5.64754398 -0.00122987 -0.00133998 0.00214057
N 2.25629730 7.09712635 8.57317225 0.00324034 0.00068767 -0.00033667
N 0.64128632 10.07549754 10.52941111 -0.00079548 -0.00099012 -0.00286252
N 3.82991552 10.73310555 13.24701804 -0.00639085 0.00529724 0.00177334
N 5.68889583 7.62932580 10.47035904 0.00186966 -0.00165810 0.00018299
N 2.24012826 7.11060958 13.09119702 0.00087645 -0.00581864 0.00276540
N 0.63510864 10.14248914 15.20144659 -0.00248246 -0.00531002 -0.00027810
N 4.01241704 10.85628640 17.88288424 -0.00197630 -0.00176677 0.00067432
N 5.73410440 7.74353927 15.05518592 0.00156682 -0.00489359 -0.00568565
N 2.05169337 7.25492742 17.87250331 0.00027538 0.00240017 -0.00389311
N 0.55886469 10.12893446 20.04263458 0.00308556 0.00015838 0.00170170
N 4.30367947 10.97758299 22.67322799 -0.00125251 0.00085936 0.00374936
N 5.89421839 7.70519256 19.97353069 -0.00645814 0.00109131 -0.00012392
N 2.30431076 7.15080790 22.59971436 -0.00198593 0.00337897 -0.00012122
N 0.96252344 15.41762822 0.88667404 -0.00388606 0.00353998 -0.00181004
N 4.82532944 16.68113347 3.72473003 0.00135697 0.00150336 0.00154119
N 6.11120619 13.47759792 0.90519153 0.00394063 -0.00145069 0.00064852
N 2.63965249 12.76990297 3.82498206 -0.00509011 0.00691266 0.00357756
N 0.82644542 15.82725970 5.56072791 0.00044981 -0.00065713 -0.00007883
N 4.73626318 16.70764340 8.37829070 -0.00736988 0.00035605 0.00599852
N 6.22582567 13.55881610 5.61740404 0.00216057 -0.00549346 -0.00026434
N 2.75201750 12.82006541 8.55297098 -0.00717538 0.00241647 0.00255514
N 0.92511238 15.52974744 10.31774246 0.00299592 0.01073373 0.00080614
N 4.62062479 16.58875893 12.99572613 -0.00468205 -0.00147200 0.00292666
N 6.17740847 13.44690167 10.26212991 0.00211010 -0.00266629 -0.00097242
N 2.63412816 12.65732390 13.27768715 0.00148442 -0.00189981 0.00214181
N 0.52552273 15.61798714 15.34284914 0.00336298 -0.00226522 0.00048794
N 4.44544883 16.67942198 17.91089101 0.00113929 -0.00001717 -0.00504768
N 6.21304189 13.38874999 14.95856954 0.00225339 -0.00060243 0.00454460
N 2.79794033 12.73649507 17.83458466 -0.00387933 0.00029212 0.00074009
N 0.99061911 15.46066156 19.85256885 0.00020706 0.00490174 -0.00150289
N 4.66349839 16.45908904 22.67411776 -0.00756860 -0.00047584 -0.00282867
N 6.15515914 13.72181919 19.94346894 0.00447811 0.00191437 0.00261460
N 2.68656555 12.61677105 22.65874689 0.00001454 0.00028104 0.00753972
N 1.34900556 21.17470573 0.86897557 0.00280387 -0.00701164 -0.00662500
N 3.93008739 23.63346566 3.94282252 0.00104994 0.00273816 0.00606772
N 5.29640137 20.16479755 1.03759290 -0.00110762 -0.00138880 -0.00051190
N 3.06862514 18.21749958 3.78229750 -0.00029728 -0.00407764 -0.00496155
N 1.32525539 21.31673444 5.71526846 -0.00403545 -0.00731363 -0.01000707
N 3.97425126 23.59127229 8.33532479 0.00445114 -0.00303369 -0.00531859
N 5.43897578 20.19520276 5.64184187 -0.00323653 -0.00066988 0.00060257
N 2.82577104 18.04185704 8.39990932 -0.00097793 -0.00442604 -0.00508669
N 1.54124213 21.17536012 10.35518407 -0.00038522 0.00175205 -0.00031500
N 4.12967476 23.37742573 13.20351868 -0.00357769 -0.00152317 0.00326845
N 5.51951390 20.21779836 10.12656365 0.00181095 -0.00050590 -0.00046773
N 2.76374308 17.92680399 13.08768284 0.00237352 0.00102638 -0.00266160
N 1.60974148 20.96955359 15.03908114 0.00021120 0.00093700 -0.00312475
N 4.02184766 23.55744852 18.03074044 0.00038661 0.00042375 -0.00240625
N 5.30447034 20.29149457 14.83269061 0.00188227 0.00268753 -0.00714582
N 2.76705389 18.19959078 17.76718450 0.00283961 -0.00463644 0.00286844
N 1.57808776 20.85477813 19.66956317 0.00052273 0.00008533 0.00600795
N 4.05965451 23.37469955 22.74832664 0.00024950 0.00235551 -0.00427854
N 5.45169703 20.51755696 19.81269986 -0.00167180 -0.00598826 0.00431199
N 2.93385717 17.90475831 22.57673737 -0.00616137 0.00246802 0.00436708
N 0.99760324 27.75772879 0.80813020 0.00473556 0.00021424 -0.00521403
N 3.27986878 0.12741843 3.58628127 -0.00087090 -0.00119941 0.00166950
N 4.77955952 26.86337238 1.05956024 0.00307469 0.00106133 0.00538439
N 1.97068387 24.78848851 3.87420196 0.00027361 0.00431409 0.00163228
N 0.84660966 28.30701832 5.64112707 0.00193669 0.00228008 0.00578511
N 3.13488086 0.10061807 8.31462968 0.00227811 0.00333721 -0.01081597
N 4.69754570 26.87173985 5.38810388 0.00438680 -0.00400359 0.00217248
N 1.90929288 24.53128265 8.44266926 0.00468067 -0.00567229 -0.00029379
N 0.89507607 27.98825132 10.51843780 -0.00080864 0.00008666 0.00494377
N 3.45080479 0.09235163 12.81898124 -0.00553693 -0.00425521 -0.00051734
N 4.58904676 27.06573370 10.31347303 -0.00546600 -0.00235256 -0.00269473
N 2.03606516 24.39649842 13.42437593 0.00189322 -0.00335318 -0.00628625
N 1.01462279 27.80646084 14.98458730 -0.00414193 -0.00898099 0.00109682
N 3.27571686 29.87325295 17.73945137 -0.00261011 0.00066769 0.00126699
N 4.70445565 26.98761576 14.92242647 0.00565788 0.00123130 -0.00035432
N 1.92586415 24.68076091 18.02190892 -0.00498598 -0.00396208 -0.00046013
N 0.74802530 27.97808546 19.79090586 0.00477206 -0.00316190 0.00499808
N 3.14920688 29.77725501 22.38605931 0.00561360 -0.00303025 0.00650852
N 4.65109753 26.96260992 19.59889470 -0.00462807 0.00599541 0.00331264
N 2.23372780 24.68276799 22.66900095 -0.00417040 0.00070824 -0.00071881
N 6.84817135 4.14185300 0.97885496 -0.00032524 0.00017685 0.00448711
N 10.23395621 5.07806428 3.71693970 0.00331354 -0.00311892 -0.00327791
N 11.89735299 2.00158665 1.07065288 -0.00222132 -0.00264368 0.00137592
N 8.30127607 1.24383676 3.51784105 0.00065199 0.00119817 -0.00080458
N 6.85601190 4.20229654 5.53326414 0.00097298 -0.00147583 0.00657139
N 10.52701065 4.83366866 8.33237104 -0.00078683 0.00069083 -0.00362520
N 11.89123804 2.01534181 5.79895718 -0.00361068 -0.00019364 -0.00400944
N 8.58994152 1.29648245 8.36774040 -0.00207596 0.00120737 -0.00251400
N 6.87391281 3.99823871 10.25657464 -0.00273173 -0.00038462 0.00260042
N 10.50758452 4.77565131 13.16594524 -0.00093627 -0.00049944 0.00402903
N 12.02136962 2.06865656 10.45190251 0.00317816 0.00008891 0.00336768
N 8.74239982 1.03558595 13.08687425 -0.00708889 0.00421991 -0.00695219
N 6.82884275 4.15677980 15.02101722 0.00363734 0.00702432 0.00066803
N 10.30302932 5.01734128 18.07913873 -0.00169999 0.00014414 0.00145759
N 12.21694695 1.84545684 15.31723614 -0.00159378 -0.00039931 0.00778937
N 8.58482304 1.27795021 17.77717431 0.00073262 0.00179570 -0.00064784
N 6.77816536 4.02996989 19.63503480 -0.00053180 -0.00160491 0.00491948
N 10.17088928 4.94637364 22.61310274 -0.00698208 0.00202956 0.00555726
N 12.00256382 2.00094289 19.82376871 0.00466473 -0.00013949 -0.00178072
N 8.55893695 0.96083566 22.53706704 0.00026528 0.00062505 -0.00074395
N 7.52241232 9.57890404 1.13385841 -0.00141274 0.00341379 0.00019938
N 11.13803846 10.84716538 3.93490888 0.00072386 -0.00320219 0.00098556
N 12.39062316 7.74549482 1.23680496 0.00657967 -0.00146443 -0.00099805
N 8.89238694 6.92935097 3.86727144 -0.00484921 0.00360625 0.00101049
N 7.16539889 9.57706803 5.62405927 0.00140914 0.00381338 -0.00577976
N 10.72058168 10.40822247 8.49330884 0.00078944 0.00073877 -0.00476590
N 12.22446522 7.73439357 5.60729920 -0.00426061 -0.00308073 0.00143181
N 9.11706294 6.67137035 8.47075831 0.00365760 -0.00495928 -0.00354549
N 7.07689528 9.54950650 10.57610169 0.00240733 0.00389093 -0.00104949
N 10.95182582 10.47448753 13.14779510 -0.00618549 0.00310458 0.00283463
N 12.36811842 7.46494170 10.37651619 0.00044602 -0.00490147 -0.00300926
N 9.11945544 6.61211472 13.32811145 0.00079421 -0.00337215 -0.00434604
N 7.19982442 9.52756965 15.06770402 -0.00131077 0.00101409 0.00177320
N 10.83151083 10.47150723 17.74743011 0.00285689 0.00366204 0.00226656
N 12.49828153 7.74956970 15.23409758 0.00170080 0.00566691 0.00295567
N 8.86607708 6.78878516 17.87511270 -0.00065117 0.00004585 0.00342006
N 7.18216566 9.66929803 19.79228728 -0.00677359 -0.00098932 0.00252075
N 10.88734120 10.64676321 22.64869275 -0.00397427 0.00030682 -0.00093193
N 12.39061494 7.62705096 19.99569737 0.00395889 -0.00452786 -0.00203225
N 9.01542571 6.94170723 22.38327678 0.00306368 -0.00042842 0.00368415
N 7.64681166 15.24682854 1.00595100 -0.00020543 -0.00171187 0.00215601
N 10.47153374 17.63036541 3.60610098 -0.00407898 -0.00007017 -0.00112434
N 11.68305386 14.14563635 1.27444867 0.00447614 0.00440216 -0.00482567
N 9.48704632 12.44153329 3.92266354 0.00663776 -0.00864417 -0.00052573
N 7.60380994 15.36852976 5.59704186 -0.00162720 -0.00035213 0.00517363
N 10.47055950 17.46875125 8.36059355 0.00088151 0.00242720 -0.00235262
N 11.63383317 14.25398583 5.64666116 -0.00213123 -0.00132525 0.00025434
N 9.03811815 11.97010289 8.36950650 -0.00167521 0.00210703 -0.00121013
N 7.86429163 15.05430554 10.35862831 0.00471501 -0.00168658 -0.00077110
N 10.42048679 17.59863244 13.17098649 0.00083810 -0.00007849 0.00371863
N 11.68477168 14.15749942 10.42566772 -0.00233300 -0.00344853 -0.00229746
N 9.28747450 12.22312159 13.19003657 0.00346718 -0.00366158 -0.00317492
N 7.83646023 15.01450808 15.10272027 -0.00225670 -0.00054556 0.00469297
N 10.46443449 17.71063574 18.01937135 -0.00082250 0.00370490 0.00068536
N 11.74332368 14.09465848 15.17981133 -0.00104147 -0.00330024 -0.00421297
N 9.05392282 12.04622442 17.68315362 0.00521916 0.00105921 -0.00285646
N 7.73605136 15.31582377 19.70324204 -0.00660027 0.00159955 0.00160594
N 10.32719373 17.46622218 22.61874138 0.00515679 0.00223063 0.00272903
N 11.68598078 13.95800381 19.90624762 -0.00334180 0.00048115 0.00036822
N 9.27818697 12.26186915 22.39685815 -0.00373598 0.00211430 0.00070098
N 7.03912539 21.81496733 1.03272145 0.00147300 0.00383015 -0.00673120
N 9.18141748 23.78774210 3.51500431 -0.00105521 -0.00313421 0.00268934
N 10.98090630 20.79522551 0.93129977 -0.00202942 0.00051283 -0.00297768
N 8.51337936 18.93818328 3.73801274 -0.00080163 0.00006978 0.00407611
N 6.98687487 21.92710427 5.68340449 0.00156355 -0.00076909 0.00124117