2000
Time=5000.00000000 pbc="T T T" Lattice="31.16092285 0.00000000 0.00000000 0.00000000 29.88256982 0.00000000 0.00000000 0.00000000 23.62412216" energy=-12039.09882790 virial="-10.68318615 -21.25041550 -8.49886254 -21.25041550 -3.17481258 17.50496784 -8.49886254 17.50496784 -67.68589930" stress="0.00151387 -0.00097532 -0.00042155 -0.00097532 0.00184409 0.00082552 -0.00042155 0.00082552 0.00009939" Properties=species:S:1:pos:R:3:vel:R:3
C 30.48958491 3.86799347 1.66612520 -0.00571168 0.00270289 -0.00286050
C 2.54075302 0.65630080 3.05417059 -0.00016783 0.00221809 0.00489639
C 30.46897939 3.63549464 6.47963354 0.00408915 0.00150606 -0.00006299
C 2.58254294 0.64044661 7.93190269 0.00228239 0.00061506 -0.00436223
C 30.58850207 3.41914330 11.21175492 0.00460292 0.00420669 0.00419692
C 2.32497575 0.64766629 12.55754203 -0.00319699 -0.00193480 -0.00038764
C 30.59369909 3.69227632 15.92972146 -0.00468944 0.00479298 -0.00553683
C 2.76236994 0.64350935 17.25647117 -0.00230030 0.00465741 -0.00164272
C 30.65511093 3.61523380 20.63150084 -0.00305475 -0.00553736 -0.00219196
C 2.41921541 0.73345884 21.91958108 0.00336383 -0.00488587 0.00113018
C 31.10838338 9.16699563 1.72641154 0.00097821 0.00216094 -0.00644690
C 2.98108325 6.18102741 2.98090309 0.00009714 -0.00479196 0.00093426
C 31.00000337 9.04077788 6.30711416 0.00052067 0.00335646 -0.00664872
C 2.91674556 5.94620947 7.76090700 0.00109631 0.00053269 -0.00914335
C 31.01029456 9.25191071 11.10741932 0.00162254 0.00047391 -0.00018014
C 2.94107446 6.11824835 12.46706104 -0.00265179 -0.00119658 0.00559949
C 31.03972448 9.13349783 15.73039877 -0.00005895 0.00012289 -0.00100832
C 2.89137148 6.20183541 17.17253975 -0.00125019 -0.00515306 -0.00704273
C 31.12684254 9.04946377 20.59714539 -0.00330219 -0.00043372 -0.00346691
C 2.93661748 6.24422813 21.92148123 -0.00294936 0.00037807 0.00243774
C 0.04542993 14.69983418 1.62209038 -0.00693592 -0.00011991 -0.00015213
C 3.32052412 11.79168007 3.04615203 -0.00165265 -0.00183051 0.00061751
C 0.25978468 14.71740810 6.37227372 -0.00243191 -0.00311932 -0.00216144
C 3.29435997 11.73065202 7.82707600 0.00184867 -0.00324506 0.00240320
C 0.21780432 14.59106244 11.05745193 0.00258761 -0.00208329 0.00667019
C 3.49385268 11.90489890 12.59973701 -0.00259107 0.00245770 -0.00438987
C 0.08849265 14.79767844 15.77402086 0.00079446 0.00284592 -0.00199901
C 3.29930131 11.78303891 17.23134566 0.00249629 -0.00072287 -0.00567283
C 0.15036408 14.74216434 20.44469581 0.00311903 -0.00432348 -0.00204220
C 3.45071563 11.89452833 21.97108262 0.00319596 0.00049208 0.00383118
C 0.56301698 20.29135121 1.79766357 0.00056787 0.00215366 -0.00142890
C 3.68880910 17.29058739 2.97773909 0.00202367 -0.00040613 0.00194647
C 0.59951333 20.44466258 6.31580497 -0.00011082 0.00216727 0.00053274
C 3.79790020 17.47159196 7.85454026 -0.00167070 -0.00362738 -0.00121664
C 0.57153543 20.36840389 11.15534144 -0.00718700 0.00345851 0.00514416
C 3.67779034 17.08867001 12.47243240 -0.00161153 0.00385028 0.00103400
C 0.61820644 20.30784364 15.83628983 0.00116678 0.00071551 -0.00022071
C 3.83938256 17.31517661 17.17501332 -0.00511943 0.00462972 0.00917011
C 0.56452823 20.29865916 20.54373918 -0.00625647 0.00319237 0.00207528
C 3.58705124 17.42491867 21.89945341 -0.00451718 -0.00310567 0.00256938
C 30.91375641 26.70518194 1.57533809 0.00045943 0.00520470 0.00270991
C 3.16318663 24.13071293 3.01067001 0.00484894 -0.00299834 0.00408265
C 31.09753013 26.79460662 6.33397789 -0.00026469 0.00577292 -0.00261573
C 3.11429908 23.76638377 7.60426570 0.00097498 -0.00092956 -0.00188388
C 31.11782397 26.91589666 11.14407985 -0.00054907 0.00178668 0.00241096
C 2.97299992 23.83175372 12.40911516 0.00342442 -0.00126185 -0.00057885
C 0.01355994 27.07393331 15.88178528 0.00364108 -0.00103114 0.00543292
C 3.04637946 23.98387117 17.26724970 0.00045270 0.00189346 -0.00285988
C 31.14807203 27.03988908 20.59175834 -0.00293423 -0.00443611 -0.00355629
C 2.93226379 23.80729021 22.00051936 0.00864641 0.00202434 0.00182871
C 5.91340498 3.23236066 1.71386063 0.00199178 0.00098349 -0.00964253
C 9.01359991 0.46003935 3.00716300 -0.00386775 -0.00300454 -0.00066020
C 5.87453661 3.11819592 6.41767631 0.00040008 -0.00507372 -0.00116487
C 9.12012547 0.24120734 7.68079050 -0.00194623 -0.00044927 0.00378282
C 6.19124832 3.12706203 11.09382927 0.00123572 0.00814275 0.00113583
C 9.08721059 0.03060208 12.52144961 -0.00504444 0.00243734 -0.00690680
C 6.03569680 3.19048412 16.00506926 -0.00417702 -0.00857820 -0.00380987
C 8.90812313 29.83238817 17.24289078 0.00431689 -0.00509868 -0.00184795
C 5.98989228 3.25627206 20.64167781 0.00575187 -0.00156345 0.00144741
C 8.85882600 0.11625924 21.99289237 -0.00171014 0.00142111 -0.00124912
C 6.55887960 8.66796837 1.77260940 -0.00788941 0.00259867 0.00291988
C 9.56812340 5.84418217 3.06620241 0.00209979 0.00048176 -0.00076752
C 6.37919149 8.72729416 6.35000867 0.00448771 0.00052770 0.00049512
C 9.48063911 5.68763956 7.83374587 -0.00943186 0.00347518 -0.00177754
C 6.27156958 8.73673585 11.24326095 0.00252188 -0.00298383 0.00420801
C 9.49183708 5.76571667 12.60868064 0.00127304 -0.00027979 -0.00797157
C 6.54477725 8.65934727 15.99190993 -0.00309523 -0.00160872 -0.00616983
C 9.46996996 5.83717277 17.26499847 -0.00635170 0.00256885 0.00492671
C 6.48753983 8.80425770 20.81548586 -0.00264915 -0.00255842 -0.00037850
C 9.50072401 5.76730703 21.88172896 -0.00389327 -0.00483363 0.00401720
C 6.85660957 14.42258937 1.78073621 -0.00031597 -0.00092556 0.00060217
C 9.86369424 11.23555705 3.09258034 -0.00371850 0.00318831 0.00912818
C 6.97569355 14.34484734 6.52136275 -0.00181839 0.00247540 -0.00187720
C 9.81870347 11.19212780 7.76603823 0.00273420 0.00195469 0.00340927
C 6.91083929 14.22382616 11.11946478 -0.00243961 -0.00061347 0.00052486
C 10.05364274 11.33353117 12.44669266 0.00301705 -0.00376836 -0.00361759
C 7.03994732 14.35890921 15.78759689 -0.00162856 0.00275562 0.00670404
C 9.84165275 11.04659203 17.08152629 0.00699911 0.00207416 -0.00444322
C 6.89197652 14.19440998 20.52798977 0.00486339 0.00456948 0.00108758
C 9.76464056 11.50371665 21.80925420 0.00175769 -0.00094598 0.00012776
C 6.26179000 21.02652399 1.68929689 -0.00265543 0.00155678 0.00158249
C 9.18131988 17.91059683 2.94949237 -0.00078636 -0.00284262 0.00421243
C 6.29385874 20.87464412 6.38783707 0.00110784 0.00371823 0.00219378
C 9.33770604 17.95897533 7.83703235 -0.00127894 -0.00269887 0.00029954
C 6.22100100 21.05609247 11.11181298 -0.00577341 0.00440299 0.00233800
C 9.41529464 17.65770075 12.46232095 0.00340735 -0.00417164 -0.00430544
C 6.20500000 20.98724934 15.81003233 -0.00108082 0.00091706 -0.00494540
C 9.34461056 17.82753437 17.23996715 0.00131871 0.00596747 0.00609344
C 6.18628669 20.86880954 20.60884961 0.00053511 0.00870080 -0.00603408
C 9.22025787 17.85731663 21.84428415 0.00353282 -0.00123142 -0.00076665
C 5.64305006 27.49699143 1.65949422 -0.00739253 0.00021321 -0.00537161
C 8.68658943 24.66477228 3.03161142 0.00904163 -0.01148644 -0.00623746
C 5.59249815 27.68234457 6.39210511 -0.00164633 -0.00343790 0.00008712
C 8.66763760 24.49041207 7.76314828 -0.00172087 -0.00424102 0.00386444
C 5.62391736 27.45305545 11.14011815 0.00057026 -0.00462759 -0.00942774
C 8.57112251 24.48581181 12.42060961 -0.00742164 0.00701154 0.00344809
C 5.65339695 27.38791916 15.81953742 -0.00118202 -0.00310291 -0.00189620
C 8.93930750 24.58131353 16.99194193 -0.00092429 0.00402600 0.00862087
C 5.32005511 27.42777568 20.60413188 0.00245206 0.00380093 0.00099814
C 8.60754687 24.42753784 21.85191201 0.00606337 -0.00186514 0.00181225
C 12.50308034 2.81791788 1.73816250 -0.00163735 -0.00669712 0.00425134
C 15.93413549 29.82398380 3.01120762 0.00366333 0.00218290 -0.00515030
C 12.72317208 2.63865621 6.51579075 -0.00022020 -0.00143084 0.00107065
C 15.88559682 29.66168086 7.83212235 -0.00594730 0.00139346 0.00421085
C 12.68014854 2.50949932 11.39717067 -0.00148587 0.00153298 0.00520157
C 15.91367450 29.58498540 12.50205479 0.00235836 0.00055862 -0.00225345
C 12.59629259 2.70884919 15.93695478 -0.00530002 0.00478642 -0.00065126
C 15.79468436 0.11061617 17.23165350 0.00460356 -0.00382072 0.00177650
C 12.62106176 2.60587494 20.75009550 -0.00144929 -0.00109379 -0.00286868
C 15.89691826 0.04971255 21.91217795 -0.00384605 -0.00349868 -0.00553366
C 13.26801594 8.35676125 1.60933626 0.00118199 0.00192934 0.00468347
C 16.14331679 5.48647781 3.14250024 0.00367832 0.00083856 0.00055344
C 12.79861136 8.33113516 6.52964542 -0.00252199 -0.00021331 0.00520486
C 16.06015978 5.32756744 7.96699911 0.00020883 0.00068797 0.00570696
C 13.13979006 8.24454701 11.15320466 -0.00689206 -0.00100827 -0.00313096
C 16.55837918 5.32040433 12.52554000 0.00769656 -0.00183876 -0.00106208
C 13.33005125 8.24472279 15.91217850 -0.00850026 0.00159138 0.00010149
C 16.27706603 5.27936651 17.29641363 0.00344486 -0.00095535 -0.00217128
C 13.03816838 8.31423050 20.62358942 0.00007834 -0.00026233 -0.00374790
C 16.17238987 5.55314864 21.94894597 0.00288433 -0.00114001 -0.00384110
C 12.49985600 14.88307081 1.78453700 0.00062110 0.00558193 0.00354285
C 15.56078357 11.82230183 2.92803644 -0.00234268 0.00252172 0.00591223
C 12.30995476 14.86544835 6.47418119 -0.00340847 -0.00040766 -0.00202266
C 15.46564517 12.01980175 7.66228809 -0.00388173 -0.00281056 0.00057384
C 12.54717212 14.83533516 11.31475555 0.00468743 0.00095295 0.00280918
C 15.56027475 11.94609841 12.35129963 0.00481786 0.00392333 -0.00129261
C 12.54916615 15.06305228 15.96098327 0.01285031 -0.00224140 0.00531466
C 15.49951279 11.94553523 17.13401532 0.00159853 0.00235081 0.00347329
C 12.51371553 14.97617370 20.61022024 -0.00370286 -0.00670778 0.00060849
C 15.51592111 12.09540676 21.82930126 0.00473464 -0.00270746 0.00160178
C 11.71831538 21.51965577 1.70148602 0.00111335 -0.00129136 0.00031940
C 14.99273039 18.58471858 3.10623306 -0.00092508 -0.00029557 0.00226889
C 11.67016225 21.62699008 6.29164592 -0.00085014 -0.00290614 0.00261469
C 14.98715291 18.63511748 7.82576843 -0.00183343 -0.00477199 0.00205908
C 11.72459573 21.82901398 11.13463851 0.00172107 0.00029748 0.01199683
C 14.95553101 18.56678621 12.42360622 0.00115949 0.00514186 -0.00015016
C 11.87961464 21.39731891 15.88275920 0.00661338 -0.00170892 -0.00203080
C 15.05078245 18.45759811 17.22902111 -0.00108532 -0.00882200 0.00193809
C 11.72129372 21.61106552 20.57383586 0.00171830 -0.00460032 0.00041063
C 14.77469065 18.58144838 22.04870146 -0.00619910 -0.00110745 -0.00647441
C 12.32299501 27.23719273 1.73466810 -0.00555683 -0.00569317 -0.00614594
C 15.29153213 24.15395543 2.94497326 -0.00241489 -0.00101717 -0.00138765
C 12.24877200 27.35526926 6.50432140 0.00015776 -0.00211758 -0.00275669
C 15.41155802 24.10899392 7.54771189 -0.00420914 -0.00000536 -0.00502916
C 12.37459905 27.00349325 11.29139161 -0.00419483 -0.00394457 -0.00162648
C 15.55181455 24.10178156 12.50725744 0.00039848 -0.00298312 0.00427446
C 12.23064202 27.13969701 16.07482159 -0.00124102 0.00279003 0.00424741
C 15.48064637 24.03244416 17.09315977 0.00068581 -0.00528780 0.00110237
C 12.27710826 27.13950571 20.62082824 0.00714448 0.00209556 -0.00345853
C 15.52692473 24.16778176 21.96762254 -0.00220213 0.00331375 -0.00041775
C 19.48274520 2.39439736 1.78083819 -0.00129285 0.00221594 0.00449771
C 22.45628940 29.33674248 3.05876132 0.00371327 0.00179311 0.00107991
C 19.57467229 2.21787849 6.42758330 0.00065739 0.00575197 -0.00168829
C 22.62190931 29.23101601 7.63368944 0.00469735 -0.00367231 -0.00023638
C 19.54037485 2.34351847 11.13676642 0.00500309 0.00322464 -0.00095912
C 22.44419195 29.23967759 12.39134920 0.00332444 -0.00373079 0.00171772
C 19.48723870 2.31507385 15.76931625 0.00270604 -0.00453071 0.00168867
C 22.47916347 29.44581827 17.13453848 0.00324636 -0.00300563 -0.00333860
C 19.44441466 2.34306184 20.64223270 -0.00399082 0.00509000 -0.00700661
C 22.38162407 29.39166031 21.88054556 0.00531769 0.00559018 -0.00217337
C 18.70384430 8.82032557 1.68618009 0.00028801 0.00232514 -0.00007459
C 21.81456443 6.05436816 3.08778374 -0.00244858 0.00014247 0.00140740
C 18.41934836 8.95749835 6.53777772 0.00048461 0.00058112 0.00212747
C 22.01248465 5.93342464 7.71332899 -0.00655839 0.00303685 -0.00192319
C 18.59025527 8.98809991 11.07455617 -0.00022658 -0.00210406 -0.00302667
C 21.94336188 5.77537795 12.49020306 0.00050023 -0.00625379 -0.00364338
C 18.90140660 8.97765187 15.90979210 0.00499508 -0.00294392 -0.00326661
C 21.79245681 6.08952753 17.10368436 -0.00562697 0.00558543 0.00350100
C 18.82986585 8.91419866 20.66646336 0.00021908 -0.00553859 -0.00403140
C 21.92158144 5.93130848 21.97482746 -0.00042853 -0.00127670 0.00221562
C 18.04023285 15.52240566 1.75399095 -0.00008367 -0.00480821 0.00168728
C 21.44492088 12.50421368 3.01493230 0.00124615 0.00406586 -0.00387441
C 18.03872732 15.46568739 6.28626389 0.00511117 0.00236121 -0.00194401
C 21.27676984 12.53065503 7.65670621 0.00118424 0.00240818 -0.00655281
C 17.99192829 15.56208493 11.22950381 0.00691726 0.00066395 0.00048206
C 20.98482171 12.52007312 12.31538896 0.00346577 -0.00386595 0.00001183
C 18.02660558 15.60438052 15.93954164 0.00239773 0.00325730 0.00460817
C 21.21266003 12.59425115 17.13940943 0.00151778 0.00108537 -0.00769800
C 18.17708191 15.54556091 20.69864904 0.00340606 -0.00014647 0.00021055
C 21.23156942 12.56132762 21.82026524 -0.00631353 0.00134570 -0.00470761
C 18.64956840 21.16710685 1.57042434 -0.00016063 0.00125159 -0.00419701
C 21.63283817 18.04769782 3.11476518 0.00382955 -0.00197248 0.00040662
C 18.62388055 21.20029058 6.41064282 -0.00269798 -0.00267833 -0.00132834
C 21.49965706 18.04765135 7.94798570 0.00565901 -0.00299979 -0.00198200
C 18.41791726 21.13963330 11.17621065 -0.00029000 0.00093009 -0.00486418
C 21.53624564 17.95747282 12.59356139 0.00155252 -0.00863891 -0.00110593
C 18.32712032 21.11004164 15.95096674 0.00714233 0.00063954 -0.00046735
C 21.62842980 17.90795323 17.28174162 0.00552367 0.00014684 -0.00107918
C 18.32997483 21.06512529 20.65223682 0.00069357 0.00017625 0.00455404
C 21.71102180 18.00715533 21.99315568 -0.00482493 -0.00403895 -0.00190599
C 18.68937906 26.72640115 1.66814803 0.00663126 -0.00463451 -0.00566631
C 22.07750815 23.68780839 2.94239504 -0.00123069 0.00329434 -0.00036066
C 18.84464222 26.57935127 6.29423526 0.00252582 -0.00113440 0.00331301
C 21.82122970 23.54314481 7.84030877 -0.00712136 -0.00113755 0.00526849
C 18.89208186 26.60196456 11.21419456 -0.00106905 -0.00179118 0.00219586
C 22.24211066 23.77206648 12.39200527 -0.00181073 0.00182813 -0.00366811
C 18.97145036 26.51548909 15.89771534 -0.00245825 -0.00071807 -0.00072784
C 21.83539256 23.81289816 17.21992196 -0.00268448 -0.00827390 0.00161267
C 18.98963037 26.75031480 20.61171565 0.00336525 -0.00483364 -0.00039826
C 21.97337815 23.85182202 21.92252226 -0.00005907 0.00129312 -0.00395638
C 25.00411142 2.90659154 1.66498189 0.00237717 -0.00264348 0.00225389
C 28.12006528 0.17290338 3.02226642 0.00048880 0.00192975 0.00217807
C 24.87707780 2.94886906 6.34037939 -0.00297695 -0.00637610 0.00054672
C 28.03004814 29.73088332 7.82762190 -0.00226869 -0.00117951 -0.00244751
C 25.05830236 3.05315299 11.08380267 -0.00050139 0.00137546 0.00280563
C 27.80328521 0.12960062 12.35612457 -0.00229623 0.00393153 0.00186171
C 25.04994064 3.02546998 15.92560895 0.00054275 -0.00487312 0.00095795
C 28.21291802 29.71944695 17.14069285 -0.00024985 -0.00771443 -0.00109463
C 25.08473784 2.94013525 20.55554728 -0.00332005 0.00480800 -0.00223125
C 28.34997823 0.25869059 21.93260066 0.00916608 0.00033473 0.00228775
C 24.19898241 9.79837998 1.68984251 0.00529548 -0.00490264 0.00416888
C 27.31952764 6.49832625 3.01300119 -0.00002547 0.00914210 0.00137955
C 24.49141940 9.64099640 6.46592069 -0.00017902 0.00212611 -0.00476806
C 27.53154276 6.63514097 7.71528923 0.00069044 -0.00886538 0.00381853
C 24.13029670 9.69172219 11.10589425 0.00407420 0.00145903 -0.00509210
C 27.45271904 6.43165971 12.34899302 0.00248803 -0.00019245 0.00116401
C 24.42305024 9.71341094 15.73766007 0.00236269 -0.00235791 0.00079506
C 27.68750029 6.64003948 17.19552038 0.00292463 -0.00009969 -0.00384838
C 24.31526781 9.59544750 20.61099992 -0.00201874 0.00550429 -0.00253388
C 27.35681221 6.67047255 21.74397089 -0.00177934 -0.00228604 -0.00080047
C 24.75014237 15.22977077 1.70371980 0.00402275 0.00012273 0.00279827
C 27.90211667 12.12269404 2.97718270 -0.00420187 -0.00117167 -0.00119617
C 24.78658245 14.91938791 6.52381460 -0.00794795 0.00399353 0.00273729
C 27.98664587 11.97480587 7.56758758 0.00346677 -0.00167777 0.00285427
C 24.71294434 15.14681356 11.03417131 0.00085851 -0.00179271 0.00365655
C 27.86172370 12.34608541 12.31592821 -0.00154532 0.00337224 -0.00534845
C 24.86380868 15.17350268 15.70692975 0.00417301 -0.00614298 0.00343967
C 27.86346966 12.12953389 17.06013938 -0.00334419 0.00424903 0.00647443
C 24.61827028 15.20066886 20.52186920 -0.00242981 0.00263422 -0.00316961
C 27.86123814 11.88525265 21.98561358 -0.00620821 -0.00846005 0.00320739
C 25.00384958 20.72020962 1.65027007 0.00309043 0.00552657 0.00522740
C 28.40225928 17.82828160 3.02102124 -0.00270617 -0.00272785 0.00248297
C 25.07569508 20.62865908 6.48595227 0.00210066 0.00331370 0.00087074
C 28.41769796 17.73014887 7.78473026 -0.00267202 0.00168001 -0.00238858
C 25.16675283 20.51869157 11.19628955 0.00351921 0.00023672 0.00140231
C 28.19786215 17.74214469 12.41244223 -0.00484255 -0.00231492 -0.00425604
C 25.30567577 20.51454381 15.96500459 0.00089902 -0.00699072 0.00007603
C 28.09485255 17.93776621 17.09603861 0.00419500 -0.00377079 0.00063397
C 25.04422384 20.72192801 20.52009933 -0.00192204 0.00210608 0.00309296
C 28.08861424 17.73316013 21.86657606 0.00374941 0.00335123 -0.00379242
C 25.61709672 26.34756882 1.65460655 -0.00233008 0.00341861 0.00224388
C 28.37567918 23.24305083 2.92609411 0.00369773 0.00085975 -0.00056167
C 25.60536768 26.52212665 6.43521853 -0.00702551 -0.00303773 -0.00187157
C 28.64104486 23.37186869 7.78200131 0.00724479 0.00088379 -0.00098539
C 25.77457007 26.15953585 11.14174864 -0.00052397 -0.00177330 -0.00539151
C 28.60406462 23.36463496 12.41054531 0.00111853 0.00028885 0.00466077
C 25.64164630 26.41641718 15.88996587 0.00002257 -0.00312125 0.00394436
C 28.43510901 23.42447113 17.09953023 -0.00349039 0.00604702 0.00168556
C 25.56796151 26.53417343 20.57645994 -0.00284909 0.00496781 0.00302248
C 28.54332831 23.39485409 21.78527075 -0.00272763 0.00164847 0.00352759
N 0.10953873 4.68624708 0.92956887 -0.00204883 0.00204015 -0.00180164
N 3.37955795 5.11420650 3.64951588 0.00032841 -0.00128508 -0.00342564
N 5.10370100 2.37750129 1.10860098 0.00646783 0.00150024 0.00132760
N 1.85342188 1.52692836 3.85319142 0.00260584 -0.00184386 -0.00366956
N 0.03957781 4.49722914 5.73513124 -0.00056257 0.00449438 -0.00558576
N 3.57786133 5.01337336 8.57089494 0.00225175 0.00084560 0.00389337
N 5.09238894 2.22926458 5.77476936 0.00093306 -0.00139761 0.00414549
N 1.63940729 1.38361673 8.56186518 0.00029679 0.00199315 0.00021188
N 0.03916874 4.43740190 10.55872613 0.00385839 0.00182086 0.00277178
N 3.51906239 5.18476241 13.25211937 0.00139429 0.00237215 -0.00592971
N 5.61718719 2.22449699 10.29968642 -0.00253437 -0.00453775 -0.00076259
N 1.55747654 1.35898543 13.39669995 0.00157310 0.00112386 -0.00193243
N 0.33751006 4.32947921 15.09980316 -0.00080080 0.00282187 -0.00152151
N 3.44333246 5.24406592 17.97135060 -0.00290318 -0.00487763 0.00693345
N 5.15603282 2.38988867 15.30575858 -0.00196869 -0.00039940 0.00142849
N 1.75695291 1.34423316 17.86451762 0.00287125 0.00239672 0.00857950
N 0.32428904 4.54325152 20.11957769 -0.00869685 -0.00103932 -0.00073319
N 3.49606385 5.36926186 22.73872249 -0.00332994 0.00193104 0.00415753
N 5.30186351 2.39094310 19.92562012 -0.00091932 0.00092809 0.00146508
N 1.63315660 1.44877893 22.71641256 -0.00273427 -0.00383522 -0.00202565
N 0.65706283 10.07850103 0.99317769 0.00456971 0.00170813 0.00998850
N 3.90316947 10.72282600 3.67064804 -0.00431890 -0.00571568 0.00040138
N 5.86322212 7.81133052 1.02507914 -0.00125255 -0.00103363 -0.00001230
N 2.47292654 7.16072600 3.72747996 0.00504657 0.00071854 0.00282518
N 0.52760018 9.92969547 5.51848541 -0.00053755 0.00336854 0.00154810
N 3.79292912 10.66929369 8.53539358 -0.00543965 0.00213134 -0.00372204
N 5.53633536 7.87428539 5.62064997 0.00087316 -0.00254716 -0.00096813
N 2.33465728 6.91853573 8.51361894 -0.00493360 -0.00339245 -0.00337201
N 0.70515501 9.93515720 10.35340786 -0.00275549 0.00387186 0.00420048
N 4.10715640 10.84284485 13.23419716 0.00180841 -0.00215749 0.00128367
N 5.55239194 7.76871318 10.59192943 -0.00910654 -0.00273133 -0.00281915
N 2.20571528 7.05275976 13.10318885 0.00132982 0.00466324 -0.00111655
N 0.62335886 10.00973940 15.05986690 -0.00093074 -0.00103155 -0.00042996
N 3.98539810 10.77161250 17.86084244 -0.00311098 0.00191965 0.00577275
N 5.64698088 7.80033239 15.36558019 -0.00016029 0.00010722 0.00391194
N 2.32836345 7.25527612 17.73382105 0.00235569 -0.00597085 0.00123646
N 0.64223629 9.98527372 19.87226142 0.00282680 0.00423500 0.00253483
N 4.09649484 10.99949763 22.73288872 -0.00196256 0.00374257 -0.00470891
N 5.65219933 7.92188716 20.22266579 0.00474079 0.00018682 -0.00145993
N 2.41664192 7.29999729 22.54018151 -0.00353214 0.00005388 -0.00372745
N 0.92488409 15.45898149 0.96262429 0.00578701 0.00325723 0.00066213
N 4.47675341 16.46250683 3.70052077 0.00001503 0.00328099 0.00061583
N 6.09487165 13.49274774 1.14388018 -0.00338909 -0.00050980 -0.00106583
N 2.83533435 12.75152889 3.78585320 -0.00116642 -0.00825651 -0.00033569
N 0.93926845 15.68656599 5.67973469 -0.00637979 -0.00003250 0.00049152
N 4.65802064 16.82397405 8.66915503 0.00055683 -0.00108800 0.00345151
N 6.12801472 13.54267585 5.86450341 0.00127528 0.00302671 0.00303714
N 2.71812113 12.72489122 8.55806495 -0.00586916 -0.00088664 -0.00137264
N 0.83858348 15.58003451 10.40174466 -0.00068215 0.00129033 -0.00558404
N 4.58346857 16.43950245 13.22157457 0.00355799 0.00754267 0.00226204
N 6.01297388 13.47855494 10.42093497 -0.00080701 0.00109037 0.00115024
N 2.89508133 12.86197186 13.36103361 0.00048987 0.00102600 0.00346790
N 0.90404914 15.63252732 15.06812701 -0.00097160 -0.00341825 0.00391163
N 4.40049303 16.30786568 17.89172723 -0.00300362 -0.00076345 -0.00322615
N 6.20642544 13.46701955 15.19063397 0.00142787 0.00720292 -0.00420859
N 2.82898101 12.73092159 18.02038551 -0.00113840 0.00480856 0.00573632
N 0.90602076 15.57066825 19.71180084 0.00059939 -0.00238679 -0.00018071
N 4.18203744 16.48031011 22.67850356 0.00162585 0.00428460 0.00239725
N 6.00200134 13.50618835 19.73875693 -0.00116839 0.00353364 -0.00350155
N 2.71925228 12.85827947 22.54218313 -0.00337619 0.00508046 0.00545584
N 1.27986170 21.21452018 1.07894974 -0.00136745 -0.00030863 -0.00126443
N 4.15632539 23.64954006 3.75591973 -0.00399026 0.00307647 0.00301096
N 5.46034287 20.16680124 1.02979587 0.00360969 0.00110003 0.00859064
N 2.93654993 18.17605509 3.66543694 0.00364330 0.00045285 0.00242920
N 1.46702844 21.10944495 5.56568590 0.00524895 0.00573886 0.00605601
N 4.05774867 23.23873708 8.39860199 -0.00175816 -0.00234902 0.00131312
N 5.39353249 20.09308465 5.71950113 -0.00252613 -0.00165730 -0.00053511
N 2.83447421 18.20859730 8.55275477 0.00035718 0.00231317 -0.00325331
N 1.48941724 21.05924858 10.37639841 -0.00316991 -0.00238492 -0.00145670
N 4.01149534 23.30998066 13.15278500 0.00139669 -0.00743544 0.00488425
N 5.34621065 20.19382366 10.57867700 -0.00274207 -0.00047215 -0.00090759
N 2.83580728 17.87032931 13.18054805 -0.00231153 -0.00086256 0.00072319
N 1.28886378 21.25215759 15.14513609 -0.00471554 -0.00121127 -0.00802243
N 3.93533305 23.24253003 17.88598430 0.00490033 0.00060853 0.00490621
N 5.30792552 20.26699496 15.00273911 0.00107788 -0.00559386 0.00074434
N 2.94597936 18.05884369 17.90469056 0.00366048 -0.00291566 -0.00387361
N 1.32467124 21.15458031 19.82814216 -0.00341015 0.00339874 -0.00451525
N 4.00740511 23.46400194 22.70136132 -0.00350300 0.00486157 -0.00381560
N 5.31702797 20.11386657 19.87493749 0.00890467 -0.00154344 -0.00269135
N 2.78007473 18.23834749 22.57701213 -0.00092871 0.00206027 0.00405025
N 0.69561791 27.41959013 0.93417787 -0.00371008 0.00026245 -0.00418914
N 3.29041833 29.63686292 3.69078640 0.00226568 -0.00067618 0.00269928
N 4.81502034 26.73773398 0.96250681 0.00416215 0.00005724 -0.00035434
N 2.09255901 24.53619354 3.76766067 0.00275270 -0.00111744 -0.00513848
N 0.69879098 27.69013027 5.65187252 0.00273160 -0.00090942 0.00425707
N 3.39034306 29.71517374 8.70239664 -0.00042741 -0.00074230 0.00211727
N 4.95881802 26.82592746 5.60587133 0.00412591 0.00377493 0.00616627
N 2.14112207 24.46016789 8.30182706 0.00508308 0.00121130 -0.00028074
N 0.87012593 27.61917431 10.46817367 -0.00465209 0.00059006 0.00116833
N 3.23880854 29.79683966 13.23128106 0.00102419 -0.00155813 -0.00033463
N 4.80493868 26.66588451 10.43627934 -0.00667352 -0.00512450 0.00085568
N 2.10131459 24.60114885 13.18439750 -0.00684131 0.00391090 -0.00801392
N 0.88076071 27.86860496 15.18897293 0.00264975 -0.00291208 -0.00457392
N 3.61138609 29.83983380 18.14846801 -0.00171801 -0.00305824 -0.00043043
N 4.74868844 26.70839270 15.04414141 0.00080684 -0.00035318 0.00187880
N 1.98463447 24.53011335 17.99682878 0.00079484 -0.00135447 0.00606178
N 0.82694125 27.87776286 19.95939351 0.00062655 0.00139752 -0.00429317
N 3.19820225 29.81119328 22.57935722 -0.00164348 -0.00731541 -0.00745492
N 4.76228848 26.51422678 19.79589404 0.00245032 -0.00304967 -0.00297510
N 1.91133166 24.28160323 22.74962430 -0.00921699 -0.00242509 -0.00365669
N 6.80442152 3.86740895 0.90183596 -0.00061828 -0.00602508 0.00032240
N 10.13594690 4.92961036 3.84612758 -0.00399364 0.00406057 -0.01183750
N 11.75378283 1.89023789 1.16584989 -0.00189105 -0.00297045 -0.00120135
N 8.42242573 1.41729142 3.73183086 0.00453458 -0.00210678 -0.00668609
N 6.59754376 3.96321975 5.66336929 0.00311591 -0.00151750 0.00433280
N 10.05523827 4.72768868 8.63512825 0.00197284 -0.00208515 -0.00517680
N 11.92366593 1.78282019 5.83862335 -0.00159358 -0.00385976 0.00398534
N 8.52164813 1.27143935 8.38671559 0.00293627 -0.00210212 0.00113902
N 6.91025081 4.11983364 10.52844622 -0.00202276 -0.00596135 0.00143739
N 10.06660108 4.75605948 13.25307630 -0.00095977 -0.00325661 -0.00506508
N 12.02652938 1.70948471 10.54220059 -0.00427282 -0.00394468 0.00233982
N 8.36900366 0.95226313 13.29424830 0.00768099 -0.00216477 -0.00303965
N 6.75411098 4.02025603 15.24651636 0.00175992 0.00399910 -0.00650862
N 10.19008981 4.88975167 17.90635839 0.00018956 -0.00206754 0.00020694
N 11.74783068 1.98338674 15.19866158 -0.00474664 0.00312939 -0.00072854
N 8.28985462 0.97917504 17.89565359 0.00551117 -0.00514309 -0.00351718
N 6.68128096 4.13079130 19.87583599 0.00124749 0.00231321 0.00977197
N 9.98509294 4.69334093 22.56960943 0.00223725 -0.00782670 0.00165482
N 11.93432334 1.75260111 19.90941728 0.00208143 0.00046149 -0.00149900
N 8.27343035 1.16363521 22.67235185 0.00334874 -0.00097457 -0.00143729
N 7.34359782 9.60648812 1.12369720 -0.00621301 -0.00298174 -0.00461120
N 10.73234980 10.58884634 3.85954341 0.00726935 0.00193564 0.00258469
N 12.48704771 7.52576274 0.91528064 -0.00033395 0.00119190 0.00226692
N 8.89885697 6.68579670 3.87223188 0.00085281 0.00355169 0.01234648
N 7.22681493 9.45886772 5.57987929 0.00277937 -0.00009754 -0.00784803
N 10.66360135 10.39049835 8.50183965 -0.00376396 -0.00059217 -0.00415857
N 12.11992809 7.43974887 5.81762864 0.00402872 -0.00348303 0.00460939
N 8.89123647 6.68182805 8.61439439 0.00176305 -0.00162265 0.00750216
N 7.12489520 9.48780908 10.45521455 -0.00104118 0.00623806 -0.00051117
N 10.86097959 10.55310249 13.22470259 -0.00297912 -0.00119642 -0.00021322
N 12.33707218 7.42006602 10.43640281 0.00186696 0.00208147 0.00488960
N 8.99573304 6.81325621 13.34545961 -0.00019307 0.00269076 -0.00372917
N 7.23176123 9.48377634 15.19617770 0.00751292 0.00516438 0.00217377
N 10.66483518 10.23907660 17.88524754 -0.00269483 0.00080192 0.00065497
N 12.48395534 7.47450968 15.21693811 -0.00626512 0.00506196 0.00198212
N 8.80813029 6.74940672 18.03690268 -0.00511528 0.00156298 -0.00427115
N 7.28083222 9.53210564 19.98856304 0.00115312 0.00527615 -0.00285249
N 10.71413017 10.89570982 22.59951688 -0.00163921 0.00218721 0.00249245
N 12.32688680 7.48088774 19.78963047 -0.00118001 0.00025216 -0.00179717
N 9.11740440 6.80348475 22.67225990 -0.00208234 0.00192390 0.00169160
N 7.69387609 15.13978251 1.02644226 0.00338992 -0.00056577 -0.00081981
N 10.25409116 17.29541441 3.55693342 0.00117007 -0.00075810 0.00624029
N 11.61985121 14.11239653 1.12316997 -0.00359279 -0.00051322 -0.00458483
N 9.11816093 12.16142703 3.70961752 0.00117218 0.00796291 -0.00301388
N 7.71874033 15.13933792 5.75425422 -0.00185544 -0.00174413 0.00219105
N 10.33137948 17.33825987 8.49499320 -0.00353299 0.00246363 -0.00266428
N 11.60738666 13.94991561 5.72988682 -0.00226105 0.00056887 0.00155439
N 9.16233444 12.04380377 8.59063528 0.00654883 -0.00526654 -0.00113246
N 7.78675009 15.00518546 10.42986134 -0.00340569 -0.00005253 0.00846313
N 10.49734138 17.37097037 13.24130591 -0.00077438 -0.00091779 -0.00457829
N 11.71795210 14.10186057 10.53016668 0.00233452 0.00398688 0.00421434
N 9.18783380 12.10633004 13.19808715 0.00274481 -0.00370467 -0.00002222
N 7.80904289 15.16542210 15.01717943 -0.00183176 0.00133187 0.00322838
N 10.21571839 17.21566929 18.08644704 0.00088599 -0.00281287 0.00596972
N 11.83045102 14.13254508 15.29349634 -0.00438702 0.00332658 0.00496442
N 8.95057025 11.78795394 17.71538044 0.00138747 -0.00190304 -0.00453368
N 7.67265709 15.06538238 19.80775881 0.00127495 0.01046053 0.00040060
N 10.22286677 17.36414963 22.58255005 -0.00306641 0.00309543 0.00112659
N 11.42407046 14.34894169 19.99577554 -0.00340613 -0.00292421 0.00518500
N 8.92179433 12.22906330 22.53981664 0.00441451 -0.00162118 -0.00028089
N 6.89860027 21.97207667 0.95945801 0.00308835 -0.00181595 0.00572831
N 9.53242066 23.78116755 3.70369316 -0.00226485 0.00428874 -0.00365956
N 10.84327111 20.75187921 0.99367139 -0.00404261 0.00313863 -0.00032898
N 8.23806732 18.34087232 3.80420214 0.00567499 -0.00163408 -0.00620322
N 7.11925102 21.71789770 5.73060782 -0.00079301 -0.00496023 -0.00365893