2000
Time=26000.00000000 pbc="T T T" Lattice="31.32252325 0.00000000 0.00000000 0.00000000 29.96921309 0.00000000 0.00000000 0.00000000 23.70995297" energy=-12039.56092775 virial="-48.09238248 -5.93934934 -12.59871800 -5.93934934 -49.60861282 17.66939093 -12.59871800 17.66939093 -103.16594129" stress="-0.00017767 -0.00022874 -0.00059251 -0.00022874 -0.00017463 0.00075332 -0.00059251 0.00075332 -0.00170982" Properties=species:S:1:pos:R:3:vel:R:3
C 30.61034374 3.84871078 1.62835165 -0.00102147 0.00969682 0.00040388
C 2.63630186 0.69713080 2.84421381 0.00459763 -0.00425567 -0.00312991
C 30.63490334 3.59461857 6.27919280 -0.00315996 -0.00118465 -0.00187472
C 2.70022904 0.55469957 7.80929304 -0.00164183 -0.00118257 -0.00268795
C 30.83189935 3.63210798 11.04117416 0.00825712 -0.00067820 -0.00711808
C 2.63807892 0.40417171 12.55754316 -0.00105653 -0.00119210 -0.00232846
C 30.76838223 3.56001159 15.77023279 -0.00187401 0.00403848 0.00657368
C 2.62977311 0.60713001 17.31408386 0.00654008 0.00526763 0.00309732
C 30.82463237 3.64286224 20.68190291 0.00061987 0.00299100 -0.00232272
C 2.53500896 0.71988459 21.99966215 -0.01124531 0.00087338 -0.00067006
C 31.03407252 9.36420453 1.53764984 0.00359039 -0.00568381 0.00358765
C 2.93770627 6.12301508 3.11160713 -0.00160573 -0.00618464 0.00782300
C 0.04247009 9.32515177 6.53488505 0.00179364 -0.00208394 0.00123675
C 2.95652127 5.88645129 7.81196694 0.00030402 -0.00392361 -0.00094992
C 0.08067743 9.03114573 11.17519540 0.00275353 -0.00091575 -0.00016247
C 3.16010032 5.97841676 12.46856842 0.00649424 0.00477605 0.00430056
C 31.23640618 9.26931179 15.75511292 0.00447496 -0.00330851 -0.00488134
C 2.88902879 6.02133828 17.07641659 0.00013773 0.00003982 0.00296282
C 31.30550132 9.21499881 20.59914723 -0.00134202 0.00009687 -0.00296469
C 3.05360433 6.22080077 21.97659897 0.00046898 -0.00108275 0.00191290
C 0.25342305 14.95114597 1.84608762 0.00180530 -0.00480844 0.00574839
C 3.18779557 11.91678688 3.33769923 0.00030106 0.00469472 -0.00394398
C 31.19206399 14.73576855 6.56657586 -0.00527258 -0.00131614 -0.00059036
C 3.37169891 11.71304432 7.83017466 -0.00047505 0.00006776 -0.00636211
C 0.26464725 14.72750292 11.24380328 -0.00012780 0.00077095 0.00517360
C 3.50171582 11.71189171 12.44594858 -0.00321462 0.00107611 0.00015466
C 0.30140039 14.57926100 16.05675356 -0.00005686 0.00199182 0.00484004
C 3.71442592 11.74109667 17.34295807 0.00544681 -0.00216476 -0.00089462
C 0.45614306 14.75562662 20.74925166 0.00117587 -0.00006919 0.00260219
C 3.34999078 11.77916421 22.01724030 -0.00828813 0.00695057 -0.00170333
C 0.58211876 20.30805487 1.69366493 -0.00315682 -0.00497851 -0.00179923
C 3.52289323 17.13265588 2.83779000 -0.00042201 -0.00591122 0.00059763
C 0.82474247 20.19455359 6.44077905 0.00031430 0.00257147 -0.00203725
C 3.67115915 17.29097806 7.64448545 0.00053161 -0.00111028 -0.00294196
C 0.76972403 20.23988999 11.21118543 0.00296362 0.00324641 -0.00220344
C 3.69938407 17.50172796 12.28243302 -0.00516397 -0.00408461 0.00336105
C 0.76652860 20.23033758 15.81147156 0.00010776 0.00139278 -0.00410188
C 3.72095010 17.49456009 17.10378377 0.00155141 0.00029200 -0.00161954
C 0.50276706 20.29018518 20.52681395 0.00109017 -0.00017361 0.00339234
C 3.78111728 17.31383366 21.93562248 -0.00178789 0.00174686 -0.00184477
C 31.26828016 26.99220026 1.78189007 -0.00403296 -0.00185034 0.01169523
C 3.12058408 23.91421695 3.27324393 -0.00235263 0.00016436 -0.00546302
C 31.19590610 27.21125127 6.57809727 -0.00405030 -0.00567550 -0.00030193
C 3.22114696 24.10430738 7.78788837 0.00074893 -0.00417833 0.00032915
C 31.26046839 26.76883295 11.10451399 -0.00133777 -0.01523554 -0.00231115
C 2.90202258 23.96265758 12.57395579 0.00433360 0.00326894 -0.00189912
C 31.13164545 26.75719969 15.87149258 0.00105306 -0.00083780 -0.00571381
C 3.00957683 23.90335770 17.25627746 -0.00170302 0.00229116 0.00314931
C 31.25329163 27.05743396 20.62776020 -0.00146625 -0.00361526 0.01239106
C 2.92702787 23.79557181 21.94268215 -0.00335055 -0.00201283 -0.00113244
C 6.09075151 3.30103074 1.75310003 0.00319774 -0.00193197 0.00357821
C 8.87773789 0.23374038 3.13928533 0.00345958 -0.00055642 0.00325157
C 6.07158230 3.04404214 6.44353903 -0.00245907 0.00022857 0.01013045
C 9.24513691 0.04495895 7.75608033 0.00360519 0.00299516 -0.00370978
C 6.41829804 3.01723964 11.19499131 0.00558479 0.00309098 0.00439719
C 9.46143837 0.05962522 12.35288603 -0.00324339 0.00552620 0.00616377
C 6.07580192 3.14741028 15.95096282 -0.00269667 -0.00002886 -0.00261295
C 9.34991396 0.03921033 17.29168397 -0.00118655 0.00182999 -0.00497922
C 6.24133044 3.10780590 20.83900600 0.00203132 0.00115838 -0.00331105
C 9.11746988 29.91612087 22.07092664 -0.00401697 0.00138062 -0.00562758
C 6.39390242 8.77988960 1.74931368 0.00033212 -0.00091491 -0.00426426
C 9.45710917 5.52800707 3.15816033 0.00078223 0.00364180 0.00099062
C 6.43773728 8.90646877 6.44416408 -0.00143579 -0.00290712 0.00410327
C 9.62510628 5.74138236 7.83659763 0.00111565 -0.00046299 0.00166964
C 6.71805904 8.76456153 11.10584011 -0.00570999 -0.00900038 0.00295880
C 9.58396321 5.73480625 12.52769910 0.00204889 0.00657895 0.00309124
C 6.58405173 8.63569690 15.98871862 -0.00481667 0.00201967 0.00117954
C 9.75237166 6.06329515 17.43812267 0.00208530 -0.00118482 0.00102182
C 6.48894346 8.82864555 20.75240888 0.00003617 -0.00471560 0.00055030
C 9.81934023 5.86691516 22.05031042 0.00181028 -0.00354994 0.00202164
C 6.63906474 14.25255864 1.77728317 0.00161202 -0.00607830 0.00016698
C 9.95602501 11.32675344 3.08539967 0.01059624 -0.00099067 -0.00038218
C 6.89484498 14.24199500 6.52086820 0.00280620 -0.00150397 0.00256050
C 10.04708263 11.52002509 7.83525491 0.00318918 0.00508974 0.00474487
C 7.10196399 14.50953698 11.27367075 -0.00038358 0.00329805 0.00211100
C 9.92994526 11.26391757 12.58638810 0.00033266 -0.00369418 -0.00110012
C 6.89408555 14.63290897 15.82206008 -0.00043714 -0.00441340 -0.00229559
C 10.02199018 11.62467904 17.21188194 0.00498080 0.00016312 -0.00297536
C 6.95951626 14.62476188 20.66304667 0.00024183 -0.00490443 -0.00191546
C 10.16313413 11.67845292 22.07643333 0.00774378 0.00005180 0.00495915
C 6.18005491 21.06732390 1.67876543 -0.00139440 -0.00524513 -0.00107273
C 9.29237292 18.25948048 2.82954960 0.00320687 -0.00325402 0.01281910
C 6.22343908 20.71788950 6.36077953 0.00196399 -0.01073800 0.00618940
C 9.23914820 18.15930736 7.76317556 0.00191565 0.00505829 0.00089627
C 6.24472305 20.92119048 11.22654882 -0.00186303 -0.00146208 0.00396060
C 9.54336524 18.11704074 12.55093077 0.01063428 -0.00368899 -0.00222363
C 6.46195107 20.89761046 15.91347602 -0.00563564 0.00602881 -0.00435831
C 9.46825217 18.12628924 17.11589330 0.00424337 -0.01057818 -0.00299443
C 6.17008106 20.75519624 20.67759819 0.00266075 -0.00004035 -0.00281471
C 9.28715471 18.09996283 21.92014152 0.00051164 -0.00072807 0.00376148
C 5.55915312 27.59107092 1.75629660 -0.00917013 -0.00267935 -0.00185461
C 8.60370169 24.43244406 3.08805816 0.00388210 -0.00255340 0.00134202
C 5.61185820 27.47386272 6.51737112 0.00216809 0.00011009 0.00121985
C 8.75624212 24.45759021 7.77195951 0.00601354 -0.00016466 0.00198969
C 5.68193790 27.61235333 11.16582252 -0.00261237 -0.00242404 0.01029531
C 8.73927990 24.54799750 12.53230396 0.00501532 -0.00344040 0.00261733
C 5.89998091 27.41825452 15.96024781 -0.00096375 0.00137884 -0.00422357
C 9.05628527 24.46376583 17.27736013 0.00220076 -0.00417646 -0.00259227
C 5.47755419 27.56940710 20.66507327 -0.00151637 -0.00116101 -0.00380664
C 8.45287333 24.64676365 22.02011054 0.00445130 -0.00639710 0.00517221
C 12.79568302 2.66944125 1.74956858 0.00338848 -0.00005502 -0.00344073
C 15.74233764 29.64695029 2.96308808 -0.00453819 0.00366932 -0.00732770
C 12.78255036 2.69291585 6.62981943 -0.00497626 -0.00325865 0.00506588
C 15.82666611 29.68739457 7.68447009 0.00144772 0.00247788 -0.00059136
C 12.70232189 2.66253368 11.17845240 0.00135491 0.00189368 -0.00467049
C 15.91074804 29.84922635 12.58081091 0.00312426 -0.00247419 0.00325023
C 12.54381066 2.75517312 16.01124331 -0.00024006 0.00603170 0.00624494
C 15.89647286 29.73260878 17.21563129 0.00018331 -0.00283232 0.00000095
C 12.65498602 2.57291467 20.78669514 0.00038673 0.00125637 0.00530553
C 16.09080082 29.88357105 22.08169803 -0.00075321 0.00014378 -0.00190867
C 13.09255551 8.48873602 1.74070071 0.00083748 0.00687551 -0.00175778
C 16.21836177 5.20660375 2.80276660 -0.00113674 0.01318853 -0.00114646
C 12.97117139 8.19672236 6.55855967 0.00401469 0.00186382 0.00455116
C 15.88332575 5.29047975 7.63855370 0.00133817 0.01068418 -0.00038201
C 13.26840951 8.15446154 11.10824335 -0.00156649 0.00050048 -0.00035823
C 16.31176215 5.32219899 12.37833734 0.00132023 0.00661608 -0.00999050
C 13.41025287 8.20361777 15.85222519 0.00627909 0.00218709 -0.00396294
C 16.10387668 5.22463052 17.21372845 0.00299266 0.00477571 -0.00374216
C 13.29805052 8.09583973 20.72981173 0.00139812 0.00097370 0.00185294
C 16.41524110 5.19676882 21.82914665 0.00981013 -0.00263188 -0.00030446
C 12.26315603 15.20366039 1.72875219 0.00067316 0.00218995 0.00150050
C 15.62051645 12.01151094 3.19820783 0.00256394 0.00422299 -0.00045432
C 12.44747223 15.08078781 6.40802010 -0.00085996 -0.00401365 0.00710621
C 15.42694680 11.94097895 7.78810213 0.00245864 0.00864345 -0.00200743
C 12.35292245 15.05775129 11.19398319 0.00725449 0.00158576 0.00337041
C 15.53202332 11.80225757 12.59962269 0.00124777 -0.00184837 0.00082608
C 12.83109654 14.95973361 15.94761609 0.00888194 0.00120687 -0.00107987
C 15.69291677 11.88123795 17.50375558 0.00012132 -0.00090783 -0.00371631
C 12.46962135 15.22006087 20.68684269 -0.00233861 0.00409720 0.00269242
C 15.50970398 11.96549456 22.22329512 0.00423300 -0.00700722 -0.00576925
C 11.74484947 21.70261068 1.64171455 0.00417747 0.00661960 0.00155463
C 14.84544764 18.65818435 3.15627039 -0.00290269 0.00366877 0.00634102
C 11.81758430 21.63994350 6.43597633 0.00002275 -0.00031795 -0.00448995
C 15.15187971 18.70621750 7.80136628 0.00283285 -0.00174343 -0.00533972
C 11.94339242 21.73862162 11.22399440 0.00208938 0.00151257 -0.00271665
C 15.38141716 18.67204744 12.43954861 0.00128183 0.00486014 0.00401365
C 12.24550116 21.58855382 15.84470973 -0.00033793 0.00091684 -0.00329571
C 15.13552755 18.42301929 17.30578991 0.00422614 -0.00074468 0.00414306
C 11.76041143 21.85173172 20.57167131 -0.00237358 -0.00574414 0.00030149
C 14.89860167 18.56627049 22.08375551 0.00003574 0.00664689 -0.00094402
C 12.32227033 27.37670466 1.88930387 0.00026771 0.00069515 0.00012188
C 15.49863972 23.99977397 3.20781419 0.00179721 0.00402556 -0.00048891
C 12.35378832 27.15478989 6.43119217 0.00296616 0.00667526 0.00063093
C 15.46640836 24.10667562 7.81201436 0.00167724 0.00362416 -0.00355621
C 12.47021099 27.12619101 11.19837835 -0.00252351 0.00446986 -0.00134418
C 15.51861185 24.04566841 12.65274392 -0.00010092 -0.00122557 -0.00233484
C 12.31625788 27.10466764 15.91188502 0.00092776 0.00511636 0.00711588
C 15.33429980 24.26173990 17.29318616 -0.00072423 -0.00208819 -0.01276668
C 12.75142484 27.42030728 20.77883076 0.00049470 0.00915771 -0.00678741
C 15.67393307 24.28001530 22.06364102 0.00280302 -0.00086958 -0.00000033
C 19.54368270 2.25973113 1.77257885 0.00242323 -0.00946799 0.00352814
C 22.71669359 29.53803877 2.98039606 -0.00469763 -0.00414667 0.00320235
C 19.31155068 2.15420311 6.54078909 0.00496703 -0.00277407 0.00236910
C 22.77990039 29.51136497 7.54512741 0.00216822 0.00067114 -0.00034662
C 19.24840221 2.32097953 11.22996293 -0.00548367 -0.00535025 -0.00915080
C 22.20748087 29.11157349 12.69286366 0.00203683 -0.00390543 0.00100524
C 19.49829981 2.56124472 15.89092875 -0.00361820 0.00128379 0.00313965
C 22.80773388 29.52134740 17.26275785 0.00230766 -0.00325583 0.00310225
C 19.42449175 2.37342080 20.53525609 -0.00336075 0.00125621 0.00668714
C 22.52074691 29.50970102 22.07120844 -0.00311040 0.00227662 0.00012770
C 18.73944463 8.93278004 1.59437515 -0.00157617 0.00209590 0.00003372
C 22.01531708 5.79495816 3.06092003 -0.00046839 0.00402133 -0.00009467
C 18.69885778 9.19123801 6.32188695 -0.00095200 -0.00644597 0.00247404
C 21.56953447 5.88869645 7.80432713 0.00047717 0.00053016 -0.00521017
C 18.81716079 8.81697443 11.17412404 -0.00454225 0.00470316 -0.00244041
C 21.91686126 6.30043644 12.43466467 -0.00363558 0.00017299 -0.00450029
C 18.86367308 8.90976937 15.91341747 0.00401241 0.00455455 0.00157258
C 22.03822312 6.07200221 17.30472951 0.00166699 -0.00189546 -0.00485768
C 18.61299697 9.11853268 20.47044410 0.00398282 -0.00231747 0.00738651
C 21.87779378 5.96695789 21.93001757 -0.00351122 0.00324531 -0.00011121
C 18.00288697 15.62093584 1.81980832 0.00010832 0.00117197 -0.00556960
C 21.30541597 12.76362431 3.14249833 0.00217034 -0.00033217 -0.00075827
C 18.16652610 15.47731617 6.60371117 -0.00431471 -0.00612578 -0.00145316
C 21.24432990 12.44656010 7.67925831 0.00556126 -0.00192287 -0.00125330
C 18.07755591 15.33418488 11.38627067 0.00310160 -0.00151704 0.00224570
C 21.13358198 12.51869225 12.37909624 -0.00431251 -0.00057048 0.00188636
C 17.94284242 15.48107144 15.98534079 -0.00020702 -0.00678596 0.00849638
C 21.19767773 12.68720702 17.26102636 -0.00605160 0.00187970 -0.00168429
C 18.06712147 15.51202707 20.76046401 -0.00360900 0.00392502 -0.00314305
C 21.11705841 12.66706390 22.04508669 -0.00357750 0.00182974 -0.00579975
C 18.49124336 21.15847776 1.82519146 -0.00115542 -0.00179223 -0.00290346
C 21.54006792 18.23275211 3.00427086 0.00439797 0.00010437 0.00611202
C 18.46382396 21.48981004 6.64945935 -0.00033099 0.00167110 0.00681873
C 21.63325758 18.31216909 7.78770666 0.01012023 0.00160514 -0.00469654
C 18.45129445 21.21435513 11.32218877 0.00518865 -0.00112366 0.00250851
C 21.39987781 18.06248863 12.42940434 -0.00156444 0.00304916 0.00527118
C 18.61127143 21.33153330 16.12199949 -0.00384072 -0.00092432 -0.00259433
C 21.81857291 18.20990651 17.31524229 0.00187517 -0.00445415 -0.00405714
C 18.33661163 21.27392870 20.79977897 0.00709875 0.00196016 0.00279007
C 21.70232130 18.28441397 22.17719046 0.00249256 -0.00448446 -0.00602472
C 19.08870146 26.75203141 1.86036402 -0.00159631 0.00079075 -0.00548152
C 22.20373864 23.86194162 2.99773792 0.00256377 0.00600372 -0.00180048
C 18.83326599 26.74227350 6.57053658 -0.00155528 0.00346579 -0.00034543
C 22.07378746 24.00800499 7.58894439 -0.00503558 -0.01149407 -0.00371887
C 18.98133804 26.57937783 11.09550239 -0.00515610 -0.00322136 -0.00057424
C 21.96819080 23.70503726 12.53684483 0.00251100 0.00501319 -0.00088429
C 18.76497096 26.76898985 15.90623726 0.00619814 -0.00179549 -0.00250868
C 22.13212063 24.11460605 17.25296049 0.00687021 -0.00686444 0.00020283
C 19.10864822 26.91692940 20.92143650 -0.00460922 -0.00483744 0.00130992
C 22.10677118 24.10021831 22.06350389 -0.00668819 -0.00052314 0.00364066
C 25.02601236 3.14706873 1.72839902 -0.00428046 0.00163439 -0.01007768
C 28.38578263 0.01091188 2.98552099 -0.00095467 -0.00339706 0.00185326
C 24.86186259 3.08796002 6.55684585 -0.00313220 -0.00584488 0.00073466
C 28.19575557 0.11524781 7.79796639 0.00304098 -0.00300314 0.00767131
C 24.97160288 3.09044953 11.09770075 -0.00473565 0.00270047 0.00060764
C 28.38497466 0.22653470 12.33543791 0.00039897 0.00126075 0.00375112
C 25.10905411 3.24324699 15.90665968 -0.00115346 0.00020563 0.00166922
C 28.34016933 0.28588132 17.24993073 0.00121601 0.00193993 0.00477398
C 25.02222620 3.18620619 20.73915092 -0.00057021 -0.00159294 0.00533598
C 28.22260493 0.22438784 21.98397489 -0.00092983 0.00831322 -0.00681390
C 24.35186786 9.47391628 1.69324177 0.00427476 -0.00363189 0.01240302
C 27.66219038 6.71705045 3.01049511 0.00150472 -0.00122264 -0.00236695
C 24.31526110 9.41749465 6.43820228 -0.00413426 0.00059418 0.00741532
C 27.49299437 6.39660146 7.69308542 0.00180001 -0.00073630 -0.00272993
C 24.25302358 9.64092270 11.10674550 -0.00346179 0.00140037 0.00421633
C 27.50144392 6.59905136 12.41341733 0.00128179 -0.00137869 -0.00770078
C 24.46192743 9.51883537 15.93652518 0.00126715 -0.00384944 0.00178750
C 27.81944717 6.69598675 17.18062955 0.00154363 0.00202222 0.00759211
C 24.29155886 9.57618407 20.69352235 -0.00489051 -0.00028188 0.00061119
C 27.56398076 6.76265002 22.03848228 -0.00033578 -0.00261713 0.00335471
C 24.84809879 15.21314456 1.61863267 -0.00262583 -0.00026147 0.00042859
C 27.82590665 12.24014280 2.93908450 -0.00308874 -0.00222742 0.00372844
C 24.68759601 15.38949279 6.54105060 0.00116011 -0.00009880 0.00124778
C 28.04878613 12.03985182 7.86544990 0.00075237 0.00074144 0.00321413
C 24.99920403 15.40275216 11.15643274 -0.00097771 0.01039809 0.00443279
C 28.12963025 12.09153686 12.41825666 0.00144968 0.00140027 -0.00108922
C 24.75833134 15.06137025 15.99863962 0.00013157 0.00625764 -0.00694077
C 28.00157137 12.08231518 17.13253524 0.00259981 0.00387709 0.00621498
C 24.90881347 14.95399678 20.64936461 0.00521525 0.00434514 -0.00691637
C 28.02144686 12.26477901 21.85995738 0.00081483 0.00666970 0.00314316
C 25.33262547 20.70944863 1.61207705 -0.00344125 0.00095279 -0.00235154
C 28.47924444 17.64129437 2.98831747 0.00698847 -0.00185626 0.00259321
C 25.39374149 20.81805289 6.45808437 -0.00146184 -0.00583390 -0.00233551
C 28.47309431 18.28963376 7.84239587 0.00446135 -0.00525733 0.00080550
C 25.03020639 20.92711733 11.14469629 -0.00250719 0.00269887 0.00012000
C 28.53303454 17.79729668 12.42254326 0.00237486 -0.00612444 0.00015802
C 25.08791493 20.68402321 15.94968735 0.00211014 -0.00828963 -0.00181035
C 28.36246034 17.89905926 17.28958975 0.00315740 -0.00333644 0.00142352
C 25.11256415 20.94244038 20.56617776 0.00317004 0.00488805 0.00560941
C 28.34996595 17.85712658 22.04219077 -0.00074411 0.00249834 0.00734820
C 25.83462432 26.36551382 1.66444449 0.00290856 0.00065530 -0.00333614
C 29.12208350 23.58535367 2.96692783 -0.00801574 -0.00459902 -0.00377297
C 25.89664722 26.39471703 6.28243047 -0.00330880 -0.00013348 0.00165739
C 29.09704165 23.53430213 7.71783515 -0.00759742 0.00112033 -0.00862918
C 25.55985449 26.52939555 10.98196566 -0.00194325 -0.00010056 0.00241623
C 28.55237887 23.08486995 12.43260972 0.00265124 -0.00295062 -0.00133726
C 25.78042531 26.04238774 15.66166272 -0.00036437 -0.00222828 -0.00837421
C 28.59164331 23.14210870 17.28156905 -0.00624932 -0.00450499 0.00177871
C 25.70467268 26.51817633 20.70474953 -0.00305562 -0.00368914 0.00419257
C 29.01122172 23.67245366 22.09617706 -0.00535468 0.00100676 0.00299994
N 0.19826368 4.51749098 0.88704075 -0.00399629 0.00033932 -0.00065382
N 3.48900014 5.15992408 3.88083618 -0.00377272 -0.00423164 0.00200706
N 5.38117847 2.47022037 0.88492477 -0.00108007 -0.00015950 -0.00204096
N 1.65991021 1.36014016 3.57398665 -0.00102704 0.00740801 0.00180771
N 0.31417113 4.00229312 5.46118471 -0.00146875 -0.00386872 0.00088809
N 3.53262830 5.01009083 8.59431600 -0.00489144 -0.00156099 0.00029314
N 5.42835570 2.24567399 5.60842836 -0.00549639 0.00126062 0.00012731
N 1.50006068 1.05621516 8.32865514 -0.00023128 0.00031213 0.00357369
N 0.40162486 4.37105264 10.30133743 -0.00047164 -0.00011414 0.00077591
N 3.90614128 5.05206503 13.11782264 -0.00867626 -0.00447077 -0.00155861
N 5.44475470 2.30591151 10.54199048 0.00036944 -0.00423780 0.00052680
N 1.83355901 1.23528815 13.23665502 -0.00146292 0.00193969 0.00588653
N 0.19833302 4.43316547 15.08534562 -0.00993805 -0.00403525 0.00268760
N 3.54001943 5.15889794 17.87303739 -0.00373521 -0.00278122 -0.00386674
N 5.22896981 2.41811117 15.15320257 0.00128931 0.00051186 -0.00110671
N 1.83485583 1.41368851 18.08285054 -0.00074742 -0.00039273 -0.00020236
N 0.25139751 4.55472124 20.02612559 0.00084525 -0.00421507 -0.00092401
N 3.68828497 5.34999382 22.76304028 0.00599655 -0.00185432 -0.00384961
N 5.29036072 2.35248444 20.20912969 -0.00458105 -0.00012462 -0.00149272
N 1.72262566 1.50553185 22.71968384 0.00510063 0.00283575 0.00097803
N 0.57239657 10.24425453 0.96022019 0.00511853 0.00224987 0.00728495
N 3.87414845 10.92501724 3.97199137 0.00235474 -0.00045118 -0.00139144
N 5.77701522 7.73374279 1.10912510 0.00176176 0.00121995 0.00395475
N 2.48390847 7.20288916 3.77738709 -0.00281663 -0.00676116 -0.00414604
N 0.70050118 10.20620026 5.71734092 0.00278481 0.00192506 0.00219281
N 3.95741676 10.66894720 8.48221331 -0.00324585 0.00101983 0.00356075
N 5.76650522 8.03224620 5.66499962 -0.00467899 0.00008138 0.00030632
N 2.80721403 7.13705565 8.32126312 -0.00526550 0.00363498 0.00357775
N 0.74710348 10.09975447 10.59221041 -0.00293690 0.00227162 0.00042044
N 4.16205399 10.73776044 13.20187723 -0.00201074 -0.00181204 -0.00056914
N 5.99899054 7.79006314 10.49765856 0.00084110 -0.00040493 0.00232740
N 2.57261062 6.98125165 13.16777616 0.00650103 -0.00729283 -0.00422037
N 0.89471667 9.94865877 15.15068818 -0.00439302 0.00563480 0.00716279
N 4.24353408 10.75581528 18.17646474 0.00104177 -0.00316894 -0.00268490
N 5.71622743 7.85240577 15.06477848 -0.00273458 -0.00071636 -0.00504622
N 2.40407605 7.06965927 17.83754986 0.00168114 0.00547658 0.00041583
N 0.97741404 9.89089545 20.03357525 -0.00429612 0.00032732 0.00360146
N 3.74592005 10.67902822 22.69852087 -0.00103265 -0.00620295 0.00148632
N 5.73136604 8.05512207 19.97509546 0.00093230 -0.00605621 -0.00591865
N 2.60722326 7.44275583 22.58099734 -0.00505267 0.00286138 0.00423454
N 1.07919395 15.66653616 1.09241041 0.00112279 -0.00202399 0.00168065
N 4.40295576 16.49572141 3.57728616 -0.00125854 -0.00315656 -0.00363678
N 6.02730772 13.20612132 1.15983918 -0.00386056 -0.00600780 -0.00941914
N 2.76126959 12.95620671 4.08974749 0.00317651 0.00036742 0.00188533
N 0.81041056 15.41633536 5.89514794 0.00631493 0.00168244 -0.00692060
N 4.33540385 16.38629447 8.45763933 0.00188224 0.00017298 0.00054895
N 6.02710536 13.35687325 5.83441777 0.00207919 -0.00340604 -0.00513911
N 2.94572254 12.76946307 8.59572877 -0.00564462 -0.00109675 0.00432192
N 0.95554160 15.59300563 10.47595325 0.00035933 -0.00431113 -0.00045539
N 4.68277947 16.84213612 12.89389719 -0.00197600 -0.00003053 -0.00302817
N 6.21811233 13.56436017 10.77152670 0.00225466 -0.00276607 0.00114183
N 3.05001874 12.75687359 13.17395454 -0.00273602 -0.00635123 -0.00158572
N 1.00329128 15.51630469 15.38719181 0.00087881 -0.00354573 -0.00588891
N 4.78337897 16.94763563 17.79078902 0.00414093 -0.00725822 0.00213184
N 6.08120330 13.81147515 15.06667658 0.00081390 -0.00376369 -0.00462830
N 3.03336231 12.74911234 17.93494131 0.00134366 0.00448473 0.00577542
N 1.31996538 15.60182232 19.92614585 -0.00551906 -0.00232154 0.00042153
N 4.61295675 16.53628477 22.63847878 0.00426212 -0.00715092 0.00077828
N 6.30821019 13.63881288 20.04393622 0.00216949 0.00190060 -0.00712484
N 2.74356261 12.73403473 22.80796520 0.00023916 0.00336759 -0.00610287
N 1.49754249 21.07093372 0.94011691 0.00167642 -0.00002692 -0.00364003
N 4.14743030 23.38302969 4.02128541 0.00150324 0.00036214 -0.00556509
N 5.40153880 20.14475513 1.06348919 0.00895390 0.00003615 -0.00250288
N 2.72546068 18.02720456 3.54657500 -0.00251871 -0.00412542 -0.00272512
N 1.52601297 20.97924372 5.65237467 -0.00101304 -0.00115584 0.00661749
N 4.08363333 23.42580640 8.48754741 -0.00111877 -0.00001155 -0.00453835
N 5.41161062 19.93414404 5.63998630 0.00011869 -0.00133431 -0.00435057
N 2.90430708 18.14231763 8.28996167 -0.00290409 -0.01280352 -0.00416011
N 1.74170899 21.02038486 10.51848955 -0.00229562 -0.00381785 0.00409650
N 3.90724678 23.45126567 13.31433199 -0.01057712 0.00438456 0.00324962
N 5.44017980 20.11142132 10.49273252 0.00163642 0.00394544 -0.00369143
N 2.83648349 18.16110100 13.10171723 -0.00466804 0.00857556 0.00292097
N 1.36356264 21.11104362 14.96956897 0.00467366 0.00046092 -0.00546901
N 4.00099711 23.39010795 18.10101878 -0.00137342 -0.00552247 -0.00277022
N 5.60864322 20.18309156 15.14043883 -0.00266067 0.00463435 0.00416498
N 2.80645141 18.15685466 17.85430906 0.00494983 0.00265224 -0.00094258
N 1.19366630 21.23114186 19.80800202 0.00408853 -0.00413920 0.00420132
N 4.00937551 23.22183619 22.55364496 -0.00120897 -0.00158205 -0.00350566
N 5.37431014 19.95632294 19.82851353 0.00208963 -0.00150787 0.00087131
N 2.94768811 17.97846004 22.67415493 -0.00210212 0.00596194 -0.00224399
N 0.89147092 27.49004911 0.93093574 -0.00235239 -0.00117467 0.00062250
N 3.36178972 29.80806850 3.61167276 -0.00316738 -0.00203808 0.00493609
N 4.61640629 26.84738586 1.18758732 -0.00427181 0.00089989 -0.00476911
N 2.11027155 24.52559085 3.89722641 -0.00247005 0.00044019 0.00221353
N 0.82027560 27.96577561 5.80239437 0.00483825 0.00543344 0.00226579
N 3.56582154 29.91709302 8.64759766 -0.00112653 -0.00463515 -0.00177461
N 4.65765118 26.73825312 5.79376749 -0.00179575 0.00309327 -0.00474841
N 2.29498609 24.81119514 8.54462276 -0.00216204 0.00171272 0.00438739
N 1.03196491 27.40766654 10.51640155 0.00601552 0.00775352 -0.00006831
N 3.31080035 29.47017302 13.27552029 0.00029451 0.00329014 0.00495694
N 4.92478744 26.75684888 10.45979153 0.00614533 -0.00028546 -0.00047803
N 1.91222175 24.54514089 13.25499248 -0.00109633 -0.00062394 0.00757325
N 0.56855962 27.70443240 15.21904362 -0.00585299 0.00211453 -0.00451664
N 3.53310302 29.80174117 18.04939872 0.00181102 0.00122839 0.00274711
N 5.08110318 26.59320308 15.27773598 -0.00449235 0.00056765 0.00290683
N 1.91897453 24.26938399 17.95414258 -0.00250646 -0.00060453 0.00118523
N 0.77775600 27.83550635 19.90403125 0.00102820 0.00162725 0.00001164
N 3.28164027 29.82782046 22.68184078 -0.00238126 -0.00228908 0.00193999
N 4.84316625 26.58612270 19.97633953 -0.00193804 0.00018766 0.00237577
N 1.97294605 24.36919020 22.72473288 0.00175987 -0.00385623 0.00072623
N 7.12215846 3.99558976 1.20222646 -0.00284969 -0.00535611 -0.00314299
N 10.08114755 4.49079784 3.82032140 0.00641476 -0.00546442 -0.00060642
N 12.00206475 1.96205909 0.89951994 0.00435230 -0.00460265 0.00226086
N 8.49375564 1.31490680 3.84821175 0.00560034 0.00306443 -0.00514562
N 6.83111913 4.06282254 5.92669600 0.00146414 0.00361743 -0.00207240
N 10.29721471 4.70706256 8.47500746 -0.00081366 -0.00524168 -0.00153553
N 11.99905860 1.66930324 6.23145699 0.00122792 -0.00064451 0.00173971
N 8.65563490 1.03353659 8.47978046 0.00383888 -0.00443368 -0.00461612
N 7.15724983 3.84286559 10.33940557 0.00092040 -0.00186409 0.00263065
N 10.32960129 4.68730832 12.98572145 -0.00406487 -0.00917464 -0.00507055
N 12.07081242 1.78471223 10.34529588 -0.00198283 -0.00358527 -0.00664727
N 8.89535359 1.09014310 13.06079526 0.00541760 0.00019309 0.00117076
N 7.06534082 3.77727025 15.25090881 -0.00410375 0.00084512 0.00005981
N 10.30871316 4.99120168 18.10343573 0.00181831 0.00553554 0.00443714
N 11.80299235 2.00072075 15.16892239 0.00227159 0.00160400 0.00072816
N 8.66189111 0.89211302 18.09266238 -0.00313270 -0.00591284 0.00291332
N 7.01440402 3.74019358 19.91025108 0.00040306 0.00559324 -0.00536924
N 10.49201985 4.89659216 22.77078888 -0.00002153 -0.00316598 0.00330435
N 11.87107425 1.75067474 19.99289591 -0.00668814 0.00194535 -0.00175088
N 8.68251834 0.99665563 22.81082367 0.00118185 0.00015963 -0.00190438
N 7.23716273 9.56749712 0.96257914 0.00939155 -0.00053305 0.00299399
N 10.48419310 10.31460691 3.87615271 0.00482062 0.00036264 0.00547536
N 12.40124809 7.61164316 0.88003792 0.00221891 0.00298329 -0.00656715
N 8.91988082 6.52141232 3.88015649 0.00229150 -0.00862757 -0.00022894
N 7.26096032 9.75672437 5.79430688 -0.00080177 -0.00327931 -0.00292884
N 10.56163741 10.55072860 8.62399822 0.00363392 -0.00551439 0.00338814
N 11.98563184 7.57775784 5.81219706 -0.00223168 0.00088389 -0.00034706
N 9.01608470 6.67159332 8.62042441 -0.00006300 -0.00277880 0.00002792
N 7.42593570 9.57892145 10.29710577 -0.00769455 -0.00120349 0.00280088
N 10.91508100 10.62921217 13.23128251 0.00261115 -0.00423450 0.01008128
N 12.30996048 7.41101868 10.47537142 0.00039660 -0.00399485 -0.00376436
N 9.13535135 6.64687126 13.39336271 -0.00055729 0.00013356 -0.00741383
N 7.33387705 9.52969448 15.30604662 0.00546952 0.00058276 -0.00199594
N 10.83402761 10.69403420 17.91001326 0.00177271 -0.00326159 0.00758169
N 12.72489573 7.44433060 15.03277421 -0.00044108 -0.00016939 0.00601759
N 9.10223121 6.93437769 18.21786886 0.00076925 0.00276899 0.00160783
N 7.17119744 9.86311276 20.14494832 0.00864321 0.00142834 0.00271835
N 11.03591096 10.92116902 22.81556053 0.00056443 -0.00266402 -0.00374562
N 12.50551188 7.38396053 19.89393814 -0.00517862 -0.00370870 -0.00046094
N 9.37336357 6.97426900 22.70043743 -0.00152570 0.00021831 -0.00317517
N 7.31143205 15.14060803 0.99331518 0.00022626 0.00307037 0.00031880
N 10.02118214 17.27528256 3.57737880 -0.00642992 -0.00067024 -0.00356269
N 11.38430188 14.38314536 1.00459309 -0.00255241 0.00546684 0.00008512
N 9.39845138 12.35346802 3.78125450 -0.00424800 -0.00417644 -0.00547410
N 7.63545788 15.07943960 5.71388600 0.00288358 0.00487537 -0.00134769
N 10.22261234 17.49401030 8.44395038 -0.00223775 0.00371423 0.00112231
N 11.54552100 14.28535899 5.82389537 -0.00416365 0.00600702 0.00143031
N 9.02028707 12.22995205 8.51925760 -0.00559617 0.00066189 0.00418684
N 7.64690875 15.41162652 10.40886365 0.00252426 -0.00363447 0.00098820
N 10.52227093 17.36605337 13.13254580 -0.00397202 -0.00423802 -0.00408632
N 11.50998850 14.29959721 10.53163621 0.00325191 -0.00610117 -0.00713675
N 9.10990531 12.06830571 13.37685190 -0.00271749 0.00344842 -0.00003231
N 7.74688444 15.50114659 15.11377261 0.00496434 0.00173954 0.00265521
N 10.36005944 17.49338183 17.90874402 0.00038965 0.00353334 0.00147429
N 11.84086084 14.32376556 15.31154825 -0.00107602 -0.00162978 0.00103486
N 9.30150879 12.45129697 17.97084103 -0.00295494 0.00071564 0.00434083
N 7.74095411 15.45972351 19.91681690 0.00186959 0.00046811 -0.00035406
N 10.36907698 17.71298594 22.69366241 -0.00507633 -0.00418500 0.00198904
N 11.64762486 14.57208003 19.78693684 -0.00288053 -0.00397243 0.00276308
N 9.21182417 12.25408306 22.81099806 -0.00084019 0.00060097 0.00319531
N 6.99936824 21.77937642 0.84520972 -0.00634607 -0.00198423 0.00287475
N 9.45944368 23.78273243 3.88222764 -0.00059289 -0.00011663 0.00024996
N 10.78208931 21.06344844 0.84608570 0.00616351 0.00330247 -0.00183960
N 8.30587324 18.91560014 3.52543415 -0.00177107 0.00785203 -0.00706587
N 7.14450994 21.56578518 5.70891363 -0.00196924 0.00225560 0.00333935