2000
Time=67000.00000006 pbc="T T T" Lattice="31.05201859 0.00000000 0.00000000 0.00000000 30.08265713 0.00000000 0.00000000 0.00000000 23.73989465" energy=-12044.01324928 virial="-73.15203533 -19.71853134 -14.74722240 -19.71853134 -76.38177877 -13.02012250 -14.74722240 -13.02012250 -178.63721798" stress="-0.00111136 -0.00087797 -0.00060792 -0.00087797 -0.00122800 -0.00058343 -0.00060792 -0.00058343 -0.00528325" Properties=species:S:1:pos:R:3:vel:R:3
C 30.19936391 3.60552857 1.67338314 -0.00349983 0.01107817 -0.00340717
C 2.59073532 0.54308097 2.96239729 0.00168228 0.00041498 -0.00666326
C 30.42030578 3.54754548 6.37500656 0.00433940 -0.00256564 -0.00163177
C 2.16207592 0.52317313 7.75272062 -0.00546519 0.00264937 -0.00154875
C 30.38724754 3.59614583 11.17677940 0.00160472 -0.00060998 0.00713676
C 2.56060950 0.69002384 12.63379539 0.00731449 0.00141324 -0.00206637
C 30.35573996 3.69398050 15.96581612 -0.00179760 -0.00107578 0.00174253
C 2.50654229 0.67991586 17.23461984 -0.00090039 0.00425453 -0.00261868
C 30.26000865 3.63655391 20.75090114 0.00667121 -0.00005693 0.00042656
C 2.37720929 0.44783133 21.92409598 0.00809128 0.00267150 -0.00002609
C 30.66093212 9.42195949 1.76746050 -0.00181894 -0.00447488 -0.00299219
C 2.98821506 6.37372176 3.25921362 -0.00233292 0.00511472 -0.00383816
C 30.80105006 9.30146388 6.75593557 0.00082336 -0.00526105 -0.00742732
C 2.76637147 6.34759764 8.04859855 -0.00173017 -0.00567988 0.00051358
C 30.80365754 9.41491259 11.47827677 -0.00038864 0.00603107 0.00642420
C 2.83331317 6.29571375 12.69509319 -0.00440486 -0.00899799 -0.00176688
C 30.76516565 9.31404430 15.99867606 -0.00220358 -0.00540934 -0.00370716
C 2.77407742 6.25086911 17.34920754 0.00161638 0.00481596 0.00523510
C 30.97845840 9.22358915 20.58438216 0.00713631 0.00046892 -0.00155098
C 2.79805370 6.15075855 22.04226852 -0.00064123 0.00037314 0.00456125
C 0.14736386 14.88010735 1.72244992 0.00641902 -0.00028730 -0.00548147
C 3.27078878 11.83771209 3.12748671 -0.00223368 -0.00089654 -0.00186998
C 0.16115889 14.97793934 6.39709238 0.00498744 0.00646547 -0.00652945
C 3.37020950 12.24183686 7.75256613 0.00443170 -0.00358812 -0.00050249
C 30.89216251 14.67017683 11.20848256 -0.00489844 0.00677136 0.00124520
C 3.41494365 11.86508693 12.49922216 -0.00165568 -0.00137265 -0.00228926
C 0.43612990 14.83393855 15.97513247 0.00651706 0.00210240 0.00410636
C 3.40179857 11.74976316 17.20344770 0.00380819 0.00205481 -0.00440058
C 0.32187395 14.75481591 20.65674375 0.00109144 0.00144526 -0.00529542
C 3.29116889 12.08075020 21.97343175 -0.01571468 -0.00954266 0.00653195
C 0.54087450 20.46834043 1.39784645 0.00192608 0.00247094 0.00073219
C 3.44955093 17.64334647 2.85359155 -0.00187007 -0.00036593 -0.00246105
C 0.52265075 20.63796694 6.28002450 -0.00317147 0.00466140 0.00007575
C 3.42803179 17.52839603 7.76697537 0.00036150 0.00068643 0.00491096
C 0.47409379 20.40695547 11.25610176 -0.00473339 -0.00139567 -0.00294592
C 3.81216922 17.56718406 12.38882569 0.00681453 -0.00118493 -0.00540508
C 0.80702975 20.25751387 15.89178107 0.00465566 -0.00616841 0.00162514
C 3.73634079 17.18651828 17.25681438 -0.00286918 0.00208905 -0.00581746
C 0.92132339 20.26083589 20.51761614 0.00045826 0.00060104 -0.00004244
C 3.75629661 17.30786297 22.12148963 -0.00173669 -0.00264867 0.00927177
C 0.00699529 27.27464769 1.42488151 -0.00567129 0.00371178 0.00767789
C 3.05162674 23.97644361 2.81240150 0.00431522 0.00163452 -0.00043377
C 0.00123558 27.03695422 6.22245512 -0.00277214 0.00411637 0.00352617
C 2.89620334 23.86119614 7.56298246 0.00322409 -0.00260334 0.00570366
C 0.05760361 27.07925798 11.17080322 -0.00436316 -0.00029619 0.00338585
C 2.96354409 23.90459087 12.44486926 -0.00125221 -0.00481842 0.00252846
C 0.15064823 27.11532720 15.92322125 0.00071756 0.00931771 0.00814431
C 2.92058794 23.98825493 17.17655784 -0.00050532 -0.00172457 0.00535607
C 30.96616695 27.16037918 20.57397097 -0.01055535 0.00054145 -0.00351400
C 3.31063915 23.85034466 21.84659243 0.00233870 -0.00102272 -0.00018186
C 6.04211220 3.15871827 1.71274131 0.00021994 0.00053053 -0.00267777
C 9.11113743 29.86356008 3.10192461 0.01048911 -0.00030229 0.00442345
C 5.82680139 3.43480586 6.36625944 0.00172216 0.00477843 -0.00362535
C 9.10406653 0.11180611 7.66296062 0.00387491 -0.00119402 0.00067267
C 5.82228386 3.11909054 11.30063663 -0.00038423 -0.00782012 -0.00004087
C 9.04194291 30.03426633 12.53043147 -0.00374226 0.00747062 -0.00015840
C 6.05029664 3.41052725 15.97968121 -0.00341236 -0.00104607 -0.00090205
C 9.06277668 0.22136680 17.26893305 0.00093134 -0.00578941 0.00094248
C 6.05041678 3.28442721 20.74837444 0.00020301 -0.00435611 -0.00605491
C 9.10770628 0.11170174 22.13963543 0.00495296 -0.00658389 -0.00459516
C 6.56049798 8.87462075 1.84461086 -0.00349059 0.00343398 0.00984708
C 9.48544421 5.68361539 3.06003557 -0.00401003 0.00556896 -0.00142507
C 6.45396020 9.07020439 6.45183851 -0.00197036 0.00887301 0.00048120
C 9.70118839 5.89144383 7.86136863 -0.01033386 0.00143912 0.00769691
C 6.49482951 8.91127269 11.13426877 -0.00230468 0.00148330 -0.00003673
C 9.61304291 5.65008702 12.53732031 0.00003194 0.00152194 0.00280861
C 6.57805222 9.01592232 15.86650656 -0.00194233 -0.00289098 0.00197236
C 9.59489477 6.01698540 17.42292385 0.00231032 -0.00103198 -0.00241952
C 6.49015885 8.78379509 20.76895761 0.00033817 0.00538634 -0.00289872
C 9.79264451 5.83603124 22.30319155 -0.00982306 -0.00229782 -0.00179168
C 6.92732519 14.38338261 1.65824524 0.00139981 0.00592655 -0.00620036
C 9.86621081 11.53992832 3.08672739 -0.00446807 -0.00121778 0.00355076
C 6.90878564 14.63391958 6.37096872 0.00202955 -0.00390800 0.00450303
C 10.06832389 11.63109959 7.81753456 0.00517766 -0.00243582 0.00569662
C 6.72283813 14.40069866 11.11489022 -0.00661733 0.00619436 -0.00146846
C 9.83591102 11.46285986 12.43125529 -0.00193678 0.00333751 -0.00494874
C 7.02053985 14.52686428 15.77072910 -0.00022602 0.00346561 0.00538832
C 10.11482327 11.62192982 17.15642474 0.00283102 0.00554726 -0.00418256
C 6.95925017 14.27889627 20.70412469 -0.00087088 0.00094836 -0.00170480
C 9.90631250 11.77321078 22.07543205 -0.00559423 -0.00949712 0.00028775
C 6.25131346 20.98533971 1.59172358 -0.00163860 -0.00358998 -0.00715424
C 9.42307794 18.17893592 3.01164212 -0.00493344 -0.00270279 0.00337688
C 5.98474176 20.73211717 6.33356025 0.00041668 0.00011355 0.00230693
C 9.24381961 18.09916869 7.76004809 -0.00393666 0.00353621 -0.00087849
C 6.13818857 20.99559344 10.98961476 0.00545023 0.00110824 0.00062446
C 9.15876682 18.30262699 12.49307858 0.00078186 -0.00138038 0.00496711
C 6.00338843 21.13236755 15.64627580 0.00054990 0.00761160 0.00390926
C 9.37301462 17.83193630 17.37473802 -0.00094056 -0.00569876 0.00000980
C 6.14125408 20.91085262 20.57415208 0.00588957 -0.00488609 0.00875424
C 9.31899930 17.89369068 22.20302020 -0.00411189 0.00195902 -0.00525441
C 5.65676331 27.59076320 1.74323141 -0.00071741 0.00141441 -0.00186118
C 8.69058110 24.43070210 3.04309276 -0.00372640 -0.00597623 -0.00668636
C 5.18379096 27.58091308 6.38591857 0.00153940 0.00006219 0.00353927
C 8.76159737 24.51227523 7.65934574 0.00086905 -0.00333892 -0.00275654
C 5.57307417 27.34943392 11.24517547 0.00010538 0.00056950 0.00436491
C 8.67388760 24.38799544 12.46805255 0.00261794 0.00882484 -0.00286793
C 5.56801293 27.73460387 16.19199129 0.00657254 -0.00322939 0.00842931
C 8.84633351 24.75047082 17.10324053 -0.00558350 0.00528708 0.00269866
C 5.44240645 27.78442466 20.82922266 -0.00150797 0.00332390 -0.00113481
C 8.83483154 24.43477264 21.85598448 0.00023026 0.00018318 0.00101105
C 12.89965842 2.68359405 1.74049950 0.00067035 0.00277423 -0.00137351
C 15.85551641 29.85568547 3.17766083 -0.00418906 -0.00147988 -0.00003131
C 12.76319529 2.58805536 6.71314995 0.00584889 -0.00877734 0.00879215
C 15.52291048 29.95117240 7.99817663 0.00392488 -0.00063069 -0.00202790
C 12.37142990 2.85892212 11.29647244 0.01018400 0.00178955 0.00620670
C 15.94459307 0.02331904 12.65761867 0.00084165 0.00050244 -0.00439269
C 12.53767244 2.92324809 16.24905124 -0.00723965 0.00138784 -0.00021686
C 15.40101813 29.67435546 17.36079542 0.00110704 0.00510487 -0.00137025
C 12.48605915 2.67314804 20.85905178 -0.00164647 0.00354269 0.00278923
C 15.67221534 29.96130994 22.00512822 -0.00982741 0.00077477 0.00771275
C 13.15775686 8.45114162 1.92449690 -0.01185471 0.00043406 -0.00912659
C 15.97441851 5.34637245 3.35327981 0.00317752 0.01041316 -0.00207004
C 13.12728322 8.38221011 6.42946261 0.00325641 0.00565591 0.00255060
C 16.23359790 5.54046768 7.91010604 0.00286286 0.00566970 0.00324081
C 13.06318881 8.58420452 11.29800714 -0.00187560 -0.00114884 0.00764063
C 15.93013191 5.51356836 12.72070223 0.00498042 0.00253268 -0.00551433
C 12.86628572 8.49182841 16.05718783 -0.00549379 -0.00283146 -0.00513620
C 15.84425706 5.19040894 17.31723930 0.00165445 -0.00142327 -0.00982374
C 12.96908108 8.50170000 20.80309239 0.00218660 0.00187075 -0.00427524
C 16.00465464 5.46086846 22.30653115 0.00232394 -0.00412019 -0.00289029
C 12.52195644 15.06792735 1.75073127 -0.00173462 -0.00657860 0.00455270
C 15.63835403 12.08235828 3.13922003 -0.00203294 -0.00274969 0.00294286
C 12.33158272 15.42806750 6.54203148 -0.00141770 -0.00315504 0.00253994
C 15.73593793 11.95376474 7.84217501 -0.00406728 -0.00482971 -0.00131158
C 12.59660988 14.99707642 11.21490942 0.00180668 -0.00120153 0.00349540
C 15.44225846 12.28329300 12.72064381 -0.00270850 -0.00120086 -0.00747283
C 12.43480457 15.07114300 15.87291818 0.00163371 -0.00043024 -0.00648770
C 15.62135435 11.86314510 17.48325041 0.00052327 0.00011324 -0.00015104
C 12.48277221 14.89819967 20.83309278 0.00475972 0.00389915 0.00387504
C 15.66101461 12.03060788 22.23243550 0.00024771 0.00454974 0.00882449
C 11.94802788 21.66438598 1.59296386 -0.00022419 -0.00304857 0.00987829
C 15.15688495 18.70677796 2.96860024 -0.00037998 -0.00305960 -0.00240926
C 11.82058061 21.51866322 6.31784812 0.00256882 -0.00101258 0.01056400
C 15.01913642 18.56987329 7.79194172 -0.00426698 0.00541235 -0.00145773
C 11.67485004 21.68221130 11.09307295 -0.00855663 -0.00170032 -0.00185918
C 15.11185931 18.69439197 12.37106645 -0.00610422 0.00415325 -0.00303181
C 11.89284227 21.66023687 15.87601035 -0.00480397 0.00237086 -0.00213712
C 14.80910641 18.59135320 17.34393092 0.00410112 0.00806648 -0.00803247
C 11.86867434 21.43593390 20.69151069 0.00029846 -0.00538849 0.00338103
C 14.97836852 18.45301800 21.96363408 -0.00623246 -0.00459155 -0.00498305
C 12.19414846 27.06421109 1.62594141 0.00687841 0.00500050 0.00279360
C 15.41670782 24.19789032 2.97447630 -0.00482148 -0.00940392 -0.00021723
C 12.29183105 27.13845422 6.45711973 -0.00004145 0.00233028 0.00440578
C 15.09980805 24.01727564 7.57934133 -0.00051585 0.00663582 -0.00600649
C 12.07725600 27.29723949 11.11656840 -0.00705531 0.00372227 -0.00373842
C 15.49198489 24.16782136 12.37488432 0.00336934 0.00236323 -0.00347593
C 12.26596304 27.03107255 15.81288150 -0.00069429 0.00062198 0.00517381
C 15.34718177 23.99052223 17.04011750 -0.00107379 -0.00155703 0.00357614
C 11.96311519 27.20181907 20.74168354 0.00268309 -0.00426002 -0.00584610
C 15.21943547 24.07122816 21.96667047 -0.00123442 -0.00237369 0.00155246
C 19.29704443 2.61224919 1.70173662 0.00236027 0.00008977 0.00207395
C 22.35703880 29.40441767 3.03080293 0.00093381 -0.00633963 -0.00236010
C 19.37818807 2.36606549 6.41140097 0.00250673 -0.00218700 0.00427110
C 22.53268645 29.42627878 7.71244413 -0.00685595 0.00198978 -0.00214737
C 19.40510053 2.39685677 11.16450078 0.00252436 -0.00001532 -0.00589195
C 22.37101102 29.60164532 12.38023585 -0.01070039 -0.00007968 -0.00016017
C 19.26384658 2.34592182 16.01975857 0.00576310 0.01092780 -0.00139520
C 22.47526499 29.60297982 17.20100933 -0.00538433 -0.00880596 -0.00860738
C 19.14286958 2.31652286 20.72871531 0.00019227 0.00131037 0.00350576
C 22.46089458 29.75272476 21.90977515 0.00284056 0.00485782 -0.00473732
C 18.47189585 9.02549451 1.97681643 0.00463023 -0.01109120 0.00174826
C 21.97276718 6.20915029 3.17992368 -0.00146359 0.00450648 -0.00060908
C 18.68298484 8.85659449 6.68643917 0.00275863 0.00795423 -0.00012994
C 21.87477434 6.16725009 7.84822260 0.00040675 0.00126287 -0.00441981
C 18.57572413 9.11844733 11.37458293 -0.00275465 -0.00362181 0.00359528
C 21.88712070 6.19657566 12.67437310 0.00470830 0.00035901 -0.00052560
C 18.75398950 9.04262401 16.15353829 0.00196983 0.00175392 0.00727331
C 21.67324846 5.86331181 17.39654039 -0.00588424 0.00622512 -0.00513339
C 18.40827763 9.07497894 20.85348275 -0.00682084 0.00820641 -0.00342351
C 21.64526372 6.14313380 22.21881549 -0.00603332 -0.00674078 -0.00215101
C 18.05690864 15.93454370 1.99645403 -0.00054748 -0.00334199 -0.00460132
C 20.96274747 12.40161833 3.18494788 0.00095099 -0.00133148 0.00312205
C 18.01201183 15.42920216 6.62766443 0.00208038 -0.00054973 -0.00574930
C 21.20268413 12.82460377 7.96826162 -0.00525475 -0.00544834 -0.00332824
C 18.01663590 15.59125822 11.30589194 -0.00168545 0.00990025 0.00116894
C 21.23162831 12.69751090 12.58304983 -0.00029423 0.00145391 -0.00316826
C 17.84070088 15.55148223 16.00564759 0.00522583 0.00227147 0.00639815
C 20.89132897 12.72235754 17.27377339 0.00829530 0.00274726 -0.00915732
C 18.29117534 15.64363484 20.68589107 0.00218448 -0.00491500 0.00116400
C 21.25965459 12.72788396 22.27300375 0.00219934 0.00229880 -0.00498047
C 18.38407148 21.28532134 1.68059807 0.00169499 0.00675371 0.00295722
C 21.69912223 18.14612660 3.07100651 -0.00286082 0.00027305 0.00491172
C 18.84569731 21.25374673 6.41905364 0.00059836 0.00124926 0.00951419
C 21.65099577 18.27125473 7.75429619 -0.00305306 -0.00266071 -0.00221021
C 18.47907939 21.20612128 11.12124062 0.00060347 -0.00467036 -0.00057619
C 21.48489502 18.28946611 12.51256946 -0.00015893 0.00576185 -0.00025980
C 18.36445837 21.04988012 16.07276696 0.00181566 -0.00088320 0.00686545
C 21.57939709 18.32707021 17.05771126 -0.00131099 -0.01038552 0.00404063
C 18.34828372 21.24121752 20.58463969 0.00673671 -0.00183557 0.00385711
C 21.28619776 18.12232027 21.82531014 -0.00343572 -0.00322117 -0.00544912
C 19.01489478 27.03961537 1.59195833 0.00731729 0.00192703 0.00577662
C 21.95076359 24.02032746 2.90933808 0.00260603 -0.00061823 -0.00796795
C 19.03688667 26.96455244 6.43929385 -0.00045646 0.00332071 -0.00327964
C 21.75654515 24.23006663 7.59445376 -0.00514138 -0.00570451 -0.00636639
C 18.96839288 26.92466853 11.18444297 0.00456686 0.00070598 0.00878497
C 21.76800099 24.08099294 12.41527614 0.00227813 -0.00354659 0.01145079
C 18.66741528 26.60616318 16.00036641 -0.00160095 0.00262970 0.00425826
C 22.07787241 23.86188769 16.99791048 -0.00006136 0.00196966 -0.00741535
C 19.23647494 26.80418040 20.66162074 0.00149779 -0.00299997 0.00004505
C 22.14174234 23.80579457 21.83281437 0.00308645 0.00379468 -0.00343364
C 24.64486712 3.09104280 1.67456541 0.00373423 0.00197246 0.00020419
C 27.91097706 29.78622705 3.07679289 0.00109557 0.00131003 -0.00344129
C 24.88793459 3.12814014 6.53746454 -0.00149048 -0.00224874 -0.00024008
C 28.01444750 29.87177521 7.93736788 0.00008927 -0.00125403 -0.00577651
C 24.92948318 2.91654523 11.18539552 -0.00763224 -0.00329871 0.00327365
C 27.93983079 0.09184481 12.47615039 0.00263209 -0.00630322 -0.00550491
C 24.67326006 2.98461291 15.96785144 0.00029734 -0.00609283 -0.00415309
C 27.83243033 0.05366537 17.16242205 -0.00302690 0.00079515 0.00452388
C 24.73120138 3.26518623 20.63914535 -0.00344993 0.00453322 -0.00625121
C 27.84289645 0.01733564 21.95893389 0.00107276 -0.00093975 -0.00008354
C 24.36292030 9.75489524 1.73511864 -0.00023403 0.00575726 0.00108268
C 27.44218417 6.50311891 3.10854688 -0.00183230 0.00051642 0.00235222
C 24.26271527 9.82812765 6.49443497 -0.00002555 -0.00347788 0.00001389
C 27.48828924 6.37636791 7.70339531 -0.00279447 0.00498009 -0.00806338
C 24.49309169 9.77187015 11.29250451 0.00057250 0.00033447 0.00064723
C 27.19047084 6.47578023 12.57220611 0.00457898 0.00371992 -0.00633541
C 24.09582896 9.62357829 16.04956688 0.00658456 0.00079998 -0.00745291
C 27.32239890 6.48896450 17.42957212 -0.00327389 0.00957189 0.00304353
C 24.22525785 9.63565233 20.73013273 -0.00047499 -0.00015516 -0.00199174
C 27.19120510 6.36059027 22.22429800 0.00083595 -0.00132605 -0.00026308
C 24.45309456 15.23543389 1.65296128 -0.00004287 -0.00344689 -0.00500672
C 27.63319142 12.25002195 3.26083595 0.00022961 0.01051612 -0.00202822
C 24.60814450 15.36869707 6.54057351 -0.00096782 0.00688724 0.00614421
C 27.85365694 12.26920390 7.86724295 0.00314777 -0.00105469 0.00449184
C 24.70849661 15.58658062 11.22313110 -0.00113636 -0.00259098 0.00021045
C 27.65129815 12.42211281 12.85604920 -0.00130532 0.00373835 0.00288520
C 25.06077766 15.37549284 15.72458767 0.00379322 0.00398019 0.00146344
C 27.45701151 12.25277127 17.36391446 0.00051796 -0.00149151 0.00035576
C 24.50321983 15.13901848 20.78080563 0.00264983 -0.00545901 -0.00127255
C 27.65176181 12.47337341 22.13480146 -0.00835245 -0.00144071 0.00121840
C 24.98548375 21.01096302 1.46915346 -0.00042018 0.00049751 -0.00516718
C 28.13222020 17.76643775 2.80172507 0.00114421 -0.00329312 -0.00741823
C 25.15190698 20.78901942 6.52477244 0.00309139 0.00527343 -0.00233722
C 28.34423413 17.79964842 7.83063363 0.00553499 0.00672130 -0.00130655
C 24.70669785 20.89160688 11.28926556 -0.00151372 0.00647550 -0.00007866
C 28.25392805 17.77521632 12.45185591 0.00423374 0.00656540 -0.00001252
C 25.28091091 20.76179649 15.81517998 -0.00101657 -0.00056084 -0.00132485
C 28.33665211 17.86992149 17.08799352 0.00463119 -0.00696422 0.00418596
C 24.92143249 20.68548566 20.65024599 -0.00414998 0.00255337 0.00503473
C 28.13260927 17.89986090 21.93937440 -0.00018427 -0.00017137 -0.00544567
C 25.45642747 26.50090169 1.58309738 0.00743488 -0.00000177 -0.00394080
C 28.29188740 23.69176888 3.02650921 0.00029606 -0.00324340 0.00527768
C 25.29473574 26.42420525 6.46282239 -0.00528207 -0.00737462 -0.00026409
C 28.41551126 23.20824305 7.67238200 -0.01552861 -0.00576187 -0.00137125
C 25.51776254 26.22286415 11.20442341 -0.00336570 -0.00428203 -0.00112114
C 28.64936600 23.43349995 12.40377131 -0.00436297 0.00233030 -0.00108368
C 25.47951841 26.28422247 15.80146678 0.00148880 0.00232937 -0.00771049
C 28.58861377 23.65349002 17.24511173 0.00034482 -0.00015520 -0.00050653
C 25.45274599 26.41740853 20.58624903 -0.00063892 -0.00435617 0.00504231
C 28.47538886 23.44852078 22.07600883 -0.00030193 -0.00060869 -0.00611675
N 0.13600834 4.32772994 1.04722655 0.00065952 0.00611966 0.00090008
N 3.39213709 5.34418412 4.01202337 0.00106659 0.00106034 -0.00454329
N 5.22233257 2.31279115 0.99715852 0.00012692 -0.00483544 0.00102499
N 1.63251614 1.34782663 3.53342222 -0.00526996 0.00074458 0.00284349
N 0.18477308 4.40052826 5.70060108 -0.00087415 0.00142713 -0.00105239
N 3.48684184 5.32976225 8.70690226 0.00100225 -0.00285982 -0.00589083
N 5.20992845 2.52278977 5.61543555 -0.00511191 -0.00291278 -0.00165006
N 1.34056784 1.21831125 8.60113520 -0.00003468 -0.00006311 0.00737348
N 0.27167149 4.30439694 10.48809197 0.00862388 0.00027415 0.00623416
N 3.47697410 5.24254576 13.28539593 -0.00367156 -0.00139893 -0.00058852
N 5.21388058 2.17991451 10.45310728 -0.00121763 -0.00016519 0.00236814
N 1.83618114 1.49491717 13.46896110 0.00435972 -0.00418818 -0.00578213
N 0.18985568 4.47080466 15.30413380 0.00314302 -0.00040385 0.00624660
N 3.34523512 5.30919802 18.15373664 0.00064021 -0.00411727 -0.00409004
N 5.38905905 2.47427879 15.29450689 -0.00483569 0.00065482 0.00006475
N 1.69745699 1.38563573 18.04477056 -0.00332280 -0.00414984 -0.00245276
N 0.10801300 4.36962857 20.06744565 0.00284376 0.00095532 0.00232090
N 3.36856537 5.09462672 22.67647524 -0.00098934 0.00325666 0.00553988
N 5.28416879 2.38320594 20.13438778 -0.00403137 0.00083790 -0.00627665
N 1.54587562 1.25629174 22.58948425 -0.00179704 0.00622313 -0.00094232
N 0.40650940 10.17763575 1.05731305 0.00053347 0.00255479 -0.00159225
N 4.08467349 11.06132635 3.91150059 -0.00423489 0.00564634 -0.00178617
N 5.76279866 8.13056066 1.04293157 -0.00169624 0.00201129 -0.00599154
N 2.38825021 7.34652023 3.96181854 0.00375379 -0.00474326 -0.00058322
N 0.43752515 10.24752820 6.11068248 0.00593305 0.00217672 0.00446332
N 4.08212605 11.26427359 8.30217392 -0.00696292 -0.00027461 0.00401190
N 6.03067958 7.99905568 5.82178296 0.00123119 -0.00063631 -0.00091640
N 2.18264779 7.24830664 8.80535966 0.00194965 -0.00218785 -0.00152925
N 0.64032143 10.01377820 10.63529027 -0.00282910 -0.00646343 -0.00666469
N 4.09551810 10.88964036 13.09381045 0.00180384 -0.00398578 0.00201329
N 5.45012341 8.22824687 10.57443747 0.00547451 -0.00419950 0.00297601
N 2.29475656 7.19889037 13.53714981 0.00055354 0.00361279 0.00075901
N 0.53899119 10.17950125 15.27201622 -0.00698199 -0.00344224 -0.00381399
N 3.83744376 10.76116164 18.02686994 -0.00003995 0.00213344 -0.00269097
N 5.76429769 8.19869184 15.19328639 -0.00218714 -0.00161422 0.00533051
N 2.24565396 7.27983473 17.98146605 0.00599109 -0.00188424 0.00267863
N 0.55215598 10.11508584 19.86933568 -0.00396036 -0.01015779 -0.00501929
N 3.87050963 11.18107330 22.76683629 0.00240925 0.00088544 0.00377563
N 5.73189703 7.87640354 20.10635341 0.00262284 0.00212798 -0.00281965
N 2.29994306 7.16482301 22.83389044 -0.00127963 -0.00099321 -0.00764920
N 0.85664808 15.80995636 1.12836788 -0.00547217 0.00019423 -0.00081290
N 4.42902610 16.87831696 3.48218806 -0.00263383 -0.00048441 -0.00455967
N 6.12472033 13.47024669 1.06226918 0.00037556 0.00068224 -0.00117801
N 2.68915247 12.86734831 3.72157390 -0.00617278 -0.00012541 0.00223184
N 0.84057411 15.80954058 5.66393617 -0.00446610 0.00236886 0.00594303
N 4.31922211 16.79828142 8.47454982 -0.00470786 0.00063951 0.00214098
N 5.88833324 13.97195196 5.73652663 0.00088947 0.00421703 -0.00286990
N 2.63997518 13.04823374 8.64015857 0.00249202 0.00557056 0.00019020
N 0.72741258 15.54318302 10.61852266 0.00383226 -0.00270348 0.00005702
N 4.70401756 16.70854708 12.95854866 -0.00376255 -0.00896572 -0.00514297
N 5.93086776 13.53815272 10.41006023 -0.00301354 0.00031588 0.00573050
N 2.74462454 12.80587504 13.22118926 -0.00141447 0.00303808 -0.00400200
N 1.00906682 15.68423884 15.05975151 0.00017097 -0.00038365 -0.00749688
N 4.53963277 16.41047832 17.99692161 -0.00282034 -0.00122111 0.00455988
N 6.15504322 13.78828738 14.97471138 -0.00118551 0.00435671 -0.00346045
N 2.92832541 12.85110084 17.79615267 -0.00251644 0.00155244 -0.00206813
N 1.28491592 15.43374918 19.94765327 -0.00476892 -0.00385306 0.00135102
N 4.81477555 16.81351550 22.83671208 0.00589327 0.00209235 -0.00359949
N 6.08271039 13.52766866 20.07034484 -0.00092827 -0.00492118 0.00204199
N 2.82701374 13.20341829 22.55472323 0.00408748 -0.00538095 -0.00251704
N 1.48520738 21.16247962 0.61935252 -0.00675979 0.00266133 0.00375263
N 4.01525835 23.38982776 3.59830483 0.00328443 0.00299763 0.00064521
N 5.37533740 20.25900783 0.78730281 0.00079855 -0.00322849 0.00153051
N 2.50321690 18.20035510 3.68059018 0.00274074 -0.00009115 0.00173845
N 1.26223052 21.48169886 5.54768624 -0.00529113 0.00090741 -0.00116650
N 3.82540186 23.27002838 8.33090258 0.00078587 -0.00579010 -0.00327381
N 5.24960010 19.80944071 5.62077585 0.00426250 -0.00257047 -0.01068106
N 2.59594239 18.31545456 8.53688294 -0.00447257 -0.00395545 0.00235389
N 1.07075064 21.39879728 10.50244666 -0.00591870 -0.00183324 -0.01073989
N 4.08503124 23.39553910 13.03696522 -0.00314492 -0.00127845 0.00464702
N 5.19952088 20.17886213 10.48781721 0.00253857 -0.00287668 -0.00221609
N 2.94034235 18.18478498 13.27521352 -0.00028480 0.00329746 -0.00249374
N 1.73934367 21.03619164 15.13796001 0.00266405 0.00488787 -0.00219578
N 3.98971541 23.48194425 17.82571090 -0.00036610 0.00077670 -0.00362115
N 5.45213803 20.18277523 14.84023521 0.00034415 0.00400859 0.00228859
N 3.02633215 18.16007872 17.91409791 0.00450729 -0.00305160 -0.00309083
N 1.57254040 21.10118483 19.70634169 -0.00140784 -0.00047311 -0.00224301
N 4.22604937 23.27920278 22.73670053 0.00853401 0.00562852 -0.00450631
N 5.18495330 20.19756333 19.93543274 0.00307165 -0.00222961 -0.00792754
N 2.74033733 17.92554202 22.84415470 0.00116957 -0.00154283 0.00472391
N 0.73872780 28.21710473 0.70485060 -0.00138327 -0.00431122 0.00191931
N 3.56114111 0.02128992 3.72666272 -0.00244361 0.00600803 0.00000691
N 4.74041707 26.88286388 0.99978838 -0.00021383 0.00327764 -0.00394205
N 1.99989456 24.49592026 3.45632367 -0.00421481 0.00414364 0.00173852
N 0.92054720 27.74295568 5.47158329 -0.00515197 0.00420560 -0.00672028
N 2.94015076 29.72085872 8.42193464 -0.00260116 0.00268254 -0.00313285
N 4.50735490 26.73474814 5.57320090 0.00937475 -0.00709181 0.00470959
N 1.91813087 24.53724536 8.22960254 -0.00492387 0.00566069 0.00253024
N 0.76612665 27.72435862 10.23306274 0.00151866 0.00342280 -0.00339371
N 3.41157381 29.86191135 13.23122500 0.00256533 0.00022964 -0.00175257
N 4.63087356 26.65261108 10.55312320 0.00191757 -0.00892369 0.00078086
N 2.01690702 24.42174577 13.25750389 0.00338805 0.00461166 -0.00276562
N 0.74633448 28.06360134 15.19114207 -0.00232854 0.00575046 0.00544682
N 3.48633841 0.02731044 17.91300625 0.00288249 -0.00864600 0.00180629
N 4.92114482 26.85741737 15.41144259 0.00413616 -0.00330692 0.00176659
N 1.95111361 24.59984836 17.93235777 0.00456419 0.00288596 -0.00069254
N 0.46080442 28.18317918 19.88275888 -0.00862605 -0.00205273 -0.00026253
N 3.28912323 29.86964549 22.66151364 0.00527311 -0.00442425 0.00125010
N 4.62629005 26.94649118 20.12553632 -0.00256546 -0.00393197 -0.00013659
N 2.26409872 24.39697364 22.48700664 -0.00042945 0.00493944 0.00482331
N 6.85592200 3.90521688 0.94651714 0.00549334 -0.00178052 0.00363127
N 10.09087633 4.69512687 3.69717631 0.00567206 -0.00219442 -0.00344517
N 12.26754130 1.59732272 1.26853733 0.00371035 0.00270215 0.00204063
N 8.56353016 0.83910670 3.85547246 -0.00002203 -0.00414379 -0.00337602
N 6.71971798 4.23851252 5.62822841 -0.00287373 0.00247797 -0.00132697
N 10.28216454 4.96514110 8.57563959 0.00433308 -0.00399667 0.00355546
N 11.92446544 1.92476215 5.94030485 -0.00542106 0.00647240 0.00417051
N 8.32265377 0.99989555 8.33992550 -0.00393089 0.00413659 -0.00383497
N 6.52593046 4.08442491 10.62974615 -0.00447500 -0.00721599 0.00148305
N 10.35215708 5.12583697 13.52574451 0.00087028 -0.00176149 -0.00292611
N 11.67084487 2.02585787 10.49315082 -0.00425275 0.00445826 -0.00037367
N 8.29548648 0.81899248 13.26689958 -0.00494329 0.00122441 -0.00087001
N 6.66908011 4.43578420 15.30394714 0.00176567 0.00098381 0.00294598
N 10.34885196 5.15850930 18.18885587 -0.00264917 -0.00066586 0.00330531
N 11.93420663 1.90818874 15.62792668 0.00565801 0.00161639 -0.00662340
N 9.08894188 1.33634799 18.09975395 -0.00026528 -0.00563307 0.00237669
N 6.69486137 4.20679958 19.95591964 -0.00229624 -0.00370682 -0.00080431
N 10.40899001 4.90398452 23.00277755 -0.00329515 -0.00636735 -0.00372773
N 11.83299818 1.74679200 20.21086602 0.00745585 -0.00221419 0.00858984
N 8.53164444 1.12421430 22.89413980 -0.01121042 -0.00115372 -0.00269885
N 7.50419685 9.69334647 1.27041746 -0.00061603 0.00109021 0.00241266
N 10.81109510 10.62423474 3.58010462 0.00523600 0.00050784 -0.00232877
N 12.18299721 7.71348538 1.33281652 0.00826775 -0.00044947 -0.00792915
N 8.97483236 6.64717254 3.87291826 0.00257963 0.00263730 -0.00160953
N 7.10417025 10.06118800 5.71611543 -0.00565403 -0.00154170 0.00061938
N 10.84204536 10.84072899 8.57247350 0.00034758 -0.00108337 0.00429539
N 12.35702316 7.58816564 5.66106427 -0.00130750 0.00518832 0.00184656
N 9.26046048 7.01536240 8.49572827 -0.00312612 -0.00265923 0.00121776
N 7.27994805 9.57563507 10.27924243 0.00000631 0.00131943 0.00228855
N 10.83041531 10.87711605 13.14125395 -0.00244215 -0.00530515 0.00512629
N 12.30165390 7.80894862 10.46841977 0.00351443 0.00072062 -0.00568753
N 8.63980586 6.50437961 13.01167964 0.00093342 0.00129199 -0.00379904
N 7.33022976 9.85517860 15.15561875 -0.00030525 0.00148053 0.00373436
N 11.22306455 11.13733257 17.76865758 0.00080998 -0.00065439 0.00466067
N 11.91690089 7.63681692 15.57862620 0.00007495 -0.00561039 0.00139785
N 8.90813605 6.93589411 18.13057554 0.00350447 -0.00168214 -0.00418417
N 7.05131115 9.71257959 20.04371533 0.00268346 -0.00263388 0.00029625
N 10.59645776 10.78842783 22.64119041 0.00109817 -0.00207504 0.00245230
N 12.06775770 7.70527131 20.10173992 -0.00068582 -0.00344016 0.00349297
N 9.13310096 6.76925495 23.01014516 -0.00521391 0.00220805 0.00172042
N 7.68282941 15.17065669 0.87554510 0.00406448 0.00318564 0.00468930
N 10.24194493 17.55217534 3.91531968 -0.00084159 0.00287404 0.00824222
N 11.53926212 14.45164464 1.03266714 0.00192401 -0.00139474 0.00494103
N 9.17704773 12.27150801 3.96286549 0.00386821 -0.00116941 -0.00640818
N 7.70685489 15.44268138 5.62163235 -0.00129853 0.00469515 0.00131845
N 10.38337646 17.72949027 8.50681054 0.00449565 0.00224874 -0.00081967
N 11.85496060 14.42900637 5.68660289 0.00317779 0.00092494 0.00107382
N 9.12227594 12.31621512 8.44305417 -0.00272276 0.00801428 -0.00232747
N 7.54391896 15.17175872 10.37830829 -0.00144906 -0.00302080 0.00527819
N 10.30532870 17.96557729 13.24082651 -0.00175923 0.00325499 -0.00592061
N 11.72057246 14.21146786 10.52658351 0.00187389 0.00120114 -0.00015614
N 9.01445287 12.30658886 13.14613618 -0.00054166 0.00145029 -0.00096781
N 7.81154575 15.39351949 15.08235634 0.00028223 0.00309383 -0.01223094
N 10.45719064 17.70467477 18.13293517 -0.00287933 -0.00325517 0.00435132
N 11.53465450 14.28283975 15.09864393 0.00326438 0.00744918 0.00184852
N 9.05860771 11.86382608 17.97966734 -0.00275539 -0.00906350 -0.00281707
N 7.67311015 15.16385922 20.02450972 0.00164893 0.00390477 0.00036679
N 10.38733482 17.57186514 22.95334962 -0.00224362 -0.00305480 -0.00464817
N 11.53971131 14.27831294 20.05323298 0.00813511 0.00058720 -0.00382640
N 9.41046085 12.78670709 22.90306607 0.00108484 -0.01251047 -0.00016293
N 7.09916252 21.74064589 0.87867705 0.00128330 -0.00683473 -0.00352629
N 9.60282431 23.80291165 3.80646740 0.00650814 -0.00010903 0.00081063
N 11.17467521 20.68962891 0.91633210 0.00397308 0.00233993 0.00840320
N 8.34644990 18.71365070 3.59188525 -0.00574735 0.00351055 0.00676215