2000
Time=51000.00000004 pbc="T T T" Lattice="31.36698244 0.00000000 0.00000000 0.00000000 30.02996328 0.00000000 0.00000000 0.00000000 23.64082405" energy=-12043.92035162 virial="-99.11323081 -41.74223568 7.10138846 -41.74223568 -86.22016489 -2.71692210 7.10138846 -2.71692210 -29.72562149" stress="-0.00226219 -0.00191108 0.00030485 -0.00191108 -0.00164917 -0.00013631 0.00030485 -0.00013631 0.00139357" Properties=species:S:1:pos:R:3:vel:R:3
C 30.83488291 3.69838341 1.45042210 0.00240067 0.00315123 0.00564176
C 2.52163359 0.64790671 3.03230204 -0.00258270 0.00357761 -0.01067490
C 30.77027273 3.63644637 6.23412417 -0.00386186 0.00734222 -0.00280804
C 2.35278182 0.71953919 7.64179613 0.00777320 -0.00219926 -0.00448354
C 30.65768515 3.54808619 11.05147578 0.00399601 0.00624267 -0.00219006
C 2.50298016 0.68978802 12.32521208 -0.00072067 0.00089568 -0.00505406
C 30.57268733 3.86342599 15.80850347 0.00285572 0.00064523 0.00310318
C 2.59864581 0.64880641 17.19270664 0.00229987 0.00485584 0.00832825
C 30.71535461 3.57114875 20.49832111 -0.00111060 0.00488977 0.00439783
C 2.58221652 0.60930498 21.88610914 -0.00421782 0.00487693 -0.00261966
C 31.07664795 9.33638170 1.74932842 -0.00239449 0.00451964 -0.00239814
C 2.77635207 6.05271897 3.08530530 -0.00817330 0.00093497 0.00361803
C 31.22348877 9.09490769 6.61645523 -0.00412303 0.00415358 -0.00215614
C 3.01424464 6.27574373 7.89778588 0.00234200 0.00943933 -0.00020170
C 31.25549995 9.17228184 11.18579848 0.00135845 0.00455954 -0.00359511
C 3.03313664 6.26165547 12.67166457 0.00773033 -0.00728231 0.00219734
C 31.14042806 9.10174152 15.68958288 0.00039057 0.00158491 -0.00518207
C 2.96623136 6.12853092 17.24941446 -0.00219268 -0.00289663 -0.00315977
C 31.25104144 9.29234100 20.71539065 0.00429251 0.00055470 0.00676984
C 2.91904029 6.17494889 21.85918593 0.00167485 -0.00531840 0.00280991
C 0.37748078 14.72979699 1.75265471 0.00319916 -0.00116328 0.00312749
C 3.45301728 11.50234047 3.09526520 0.00105876 -0.00807027 0.00014513
C 0.13945741 14.62870217 6.29779575 0.00380841 -0.00140130 0.00128224
C 3.38843861 11.85295891 7.86939307 0.00811555 -0.00176928 -0.00240534
C 0.04709475 14.70451518 11.23843851 0.00016515 -0.00090818 -0.00820188
C 3.26446985 11.84619731 12.41811978 0.00361242 0.00119573 -0.00350376
C 31.33503647 14.89745797 15.92245654 0.00065235 0.01002551 -0.00315588
C 3.29869051 11.94401411 17.21091961 0.00747915 0.00228668 -0.00072973
C 0.31777496 14.53069035 20.69166955 0.00022816 0.00198843 -0.00757878
C 3.37343007 11.84839063 22.00527641 0.00316564 -0.00811307 -0.00296893
C 0.79084721 20.31467969 1.63112458 -0.00080091 -0.00992940 0.00263077
C 3.64464375 17.27280801 3.11054972 0.00262058 0.00252298 0.00106673
C 0.64686178 20.30852622 6.15524273 -0.00039815 -0.00201298 -0.00341882
C 3.61479322 17.14744605 7.81859880 -0.00383402 0.00072103 0.00031944
C 0.60128074 20.31959902 11.29107433 -0.00378000 0.00150356 -0.00879288
C 3.72095989 17.27808666 12.58464096 -0.00271594 -0.00571263 0.00226962
C 0.80150038 20.25049480 15.89846224 -0.00312523 -0.00139502 0.00046641
C 3.94745690 17.67936679 17.23917476 -0.00096499 -0.00261648 -0.00102101
C 0.53134482 20.49887465 20.43869710 0.00472172 0.00240352 -0.00035353
C 3.91058647 17.51459518 21.87190474 -0.00195789 -0.00589134 0.00912092
C 0.14972612 27.00774469 1.83652885 0.00053416 0.00758017 0.00162353
C 3.32564855 24.13722625 3.08359069 -0.00037303 -0.00091744 -0.00531493
C 0.06019110 27.27948728 6.50446675 -0.00105032 -0.00396110 -0.00036805
C 3.12620598 23.89065298 7.55007028 0.00391378 -0.00258345 0.00519016
C 31.34671742 27.27572117 11.18623174 -0.00992318 -0.00460079 -0.00564983
C 3.26344211 24.06845737 12.55067649 0.00449642 -0.00036864 -0.00419417
C 31.35791329 27.30670440 15.76220447 -0.00355255 -0.00469951 -0.00083124
C 3.22432154 23.93698204 17.27957345 0.00869597 -0.00006573 -0.00104693
C 0.18996120 27.05911505 20.55601504 -0.00382653 0.00414205 0.00407392
C 3.01751037 24.13685238 21.84922512 0.00626264 -0.00515340 0.00057220
C 6.31210374 3.27361083 1.75412427 -0.00077232 -0.00707941 0.00101177
C 9.07629146 0.18582667 3.24659797 -0.00192650 -0.00212943 0.00153127
C 5.89637727 3.22180026 6.50603990 -0.00209407 -0.00471012 -0.00467329
C 9.15017315 0.24986052 7.80666410 0.00253622 0.00347115 0.00004703
C 5.91392952 3.14569787 11.20560568 0.00248068 -0.00297774 -0.00744576
C 9.20544559 0.39069985 12.52108534 0.00257864 0.00204387 -0.00037535
C 6.20124209 3.17433845 15.98502870 0.00263496 0.00714229 -0.00625053
C 9.24819156 0.39969974 17.24645784 -0.00192739 0.00685057 0.00215692
C 6.19748790 3.29574468 20.71300045 0.00353213 0.00513441 -0.00518200
C 9.30220426 0.17223046 21.92841727 0.00101902 -0.00397166 -0.00648466
C 6.48378450 8.68039063 1.75966571 0.00453785 -0.00460813 0.00217063
C 9.58202788 5.76791303 3.13718779 0.00278392 0.00529619 0.00044621
C 6.48717374 8.69042589 6.60990217 -0.00157988 0.00892136 -0.00284617
C 9.86912306 5.82332291 7.93245854 0.00043179 0.00146101 -0.00764331
C 6.52774820 8.75075020 11.14920314 -0.00333783 0.00168462 0.00418158
C 9.56534914 5.93985158 12.54323804 -0.00103875 -0.00008762 -0.00881143
C 6.59682603 8.97229293 16.01816609 0.00019482 -0.00242703 0.00757609
C 9.55708100 5.69571145 17.19907323 -0.00138941 -0.00480738 0.00092263
C 6.27908444 8.89547679 20.64066260 0.00873880 0.00221622 0.00671792
C 9.76809268 5.92881339 21.85243028 -0.00401227 -0.00055789 -0.00431101
C 6.90185361 14.19948756 1.79105046 -0.01207627 -0.00754392 0.00487305
C 10.11417818 11.46448959 2.85707823 0.00160016 -0.00062347 0.00271278
C 6.96430610 14.39095162 6.52698378 -0.00017497 -0.00039767 -0.00046263
C 10.06447455 11.10033563 7.62286705 0.00072088 -0.00086064 -0.00129305
C 7.13084214 14.48821934 11.07709322 -0.00103009 0.00425699 -0.00043988
C 10.04025962 11.31787533 12.39661626 0.00372463 -0.00499036 -0.00564523
C 7.14034764 14.51878748 15.94891128 -0.00108447 0.00472880 -0.00317437
C 10.29240391 11.48476356 17.14804998 -0.00519948 -0.00035365 -0.00609587
C 6.56551195 14.37732681 20.78468415 -0.00927939 0.00159058 -0.00160589
C 10.05781715 11.73072819 21.79396911 -0.00415547 0.00133278 -0.00715676
C 6.15595445 21.06859264 1.64301435 0.00423890 -0.00050149 -0.00372816
C 9.38607264 17.82247903 3.07811449 -0.00130838 0.00171559 0.00075324
C 6.32337513 21.11368314 6.31635805 -0.00413043 0.00093838 -0.00192082
C 9.62143848 18.29429814 7.66312762 -0.00392183 0.00150796 -0.00045817
C 6.38409283 20.73386935 11.12927390 0.00441715 -0.00097857 0.00296248
C 9.44339514 18.05048042 12.43067055 -0.01082354 -0.00093248 0.00352049
C 6.34218446 21.05390041 15.91248092 0.00360304 0.00111552 0.00879527
C 9.18569007 18.06895318 17.11678936 0.00074233 -0.00328606 0.00010247
C 6.39108267 20.95834330 20.55303873 0.00019817 -0.00408704 0.00864988
C 9.43720886 17.87236509 22.06683207 -0.00119204 0.00085230 0.00436700
C 5.70027411 27.69960989 1.73566653 0.00169922 -0.00322899 -0.00404527
C 8.97598946 24.79571148 2.85318985 -0.00058945 -0.00466560 -0.00064832
C 5.65115186 27.48300106 6.28192270 0.01129639 -0.00916088 0.00142246
C 8.58750094 24.47774191 7.61403687 0.00255995 0.00178241 -0.00026158
C 5.29042655 27.60857655 11.09058979 -0.00601397 -0.00189781 -0.00331681
C 8.99702321 24.54854099 12.24971836 0.00033673 0.00101877 0.00211448
C 5.77781813 27.63491411 15.78078843 0.00201392 -0.00698252 0.00163524
C 8.82227355 24.87791865 17.02848178 0.00110375 0.00469739 -0.00231582
C 5.50652045 27.74227969 20.71197729 -0.00437773 0.00096163 -0.00471502
C 8.87272995 24.36840581 21.77059084 -0.00044976 0.00250396 -0.00037540
C 12.84475297 2.83861762 1.83618658 0.00135403 0.00333718 0.00448610
C 15.64448109 29.70921635 3.07288964 0.00275881 -0.00130032 0.00403542
C 12.41713643 2.97215658 6.57321155 -0.00319606 0.00170961 0.00743228
C 15.81372196 29.93778232 7.78822729 -0.00075766 0.01200004 -0.00221375
C 12.72397354 2.78356047 11.33259493 -0.00169348 0.00859435 -0.00192807
C 15.95379165 29.96980647 12.32705237 -0.00120741 -0.00760645 -0.00335999
C 12.72801939 2.95887901 16.06716820 -0.00024991 -0.00261157 -0.00024858
C 15.88428709 29.85586131 17.05189597 -0.00689900 0.00228731 0.00199340
C 12.96692941 2.72455900 20.61348625 -0.00060656 -0.00319593 -0.00860548
C 16.42387547 0.19866101 21.99738109 -0.00085584 0.00435321 -0.00032147
C 13.11157194 8.27999779 1.63845798 0.00580365 0.00753178 -0.00409617
C 16.16524427 5.58944237 2.93433733 0.00082173 0.00296589 0.00648607
C 13.09026607 8.35157420 6.46415915 0.00208131 0.00082100 -0.00111978
C 15.93237857 5.35473656 7.79440221 0.00238888 -0.00490456 -0.00413743
C 13.22923588 8.52543351 11.41452794 -0.00177584 0.00539081 0.00592704
C 16.16326181 5.53820691 12.44089022 -0.00179924 0.00156026 -0.00624319
C 13.17097098 8.27218122 15.98091473 0.00389789 -0.00240586 -0.00065058
C 16.26098500 5.23883721 17.09834454 -0.00090098 -0.00269247 -0.00398514
C 13.10283091 8.34269639 20.62877187 -0.00444312 -0.00678064 0.00469075
C 16.22110583 5.53141048 22.03802527 0.00257845 -0.00101829 0.00561493
C 12.73736696 15.04382036 1.91843518 0.00580655 -0.00004491 -0.00210636
C 15.50661455 11.94190047 2.99241634 0.00427880 0.00084972 0.00453081
C 12.45071966 15.20534134 6.55223299 0.00617355 0.00451884 0.00260928
C 15.91465865 12.03163787 7.84716222 0.00509739 0.00834242 -0.00209141
C 12.52795876 15.12205984 11.24682615 -0.00126210 -0.00679881 0.00645269
C 15.66885347 12.11403536 12.55236404 0.00008522 0.00289717 -0.00309871
C 12.73710846 14.87624837 15.89768633 0.00144247 0.00662865 0.00340785
C 15.81975872 11.77154198 17.35210299 -0.00278696 0.00051221 0.00271013
C 12.45044565 15.16891783 20.55805544 0.00016687 0.00861985 -0.00413726
C 15.58361049 11.97531554 22.01335546 0.00801213 -0.00148667 -0.00440358
C 12.20575379 21.66608877 1.67349026 -0.00069021 -0.00256073 0.00341245
C 15.30376165 18.77831715 3.16892125 0.00202872 0.00208724 -0.00504255
C 12.03137620 21.80320450 6.27170920 0.00495338 0.00636306 0.00078028
C 15.03654288 18.63042807 7.80806963 -0.00572618 -0.00158792 -0.00234741
C 11.91072340 21.69217731 11.03433999 -0.00043749 -0.00636553 0.00544461
C 15.30212251 18.70518042 12.54953918 0.00129288 -0.00608714 0.00249533
C 11.68999711 21.60448294 15.98491649 -0.00941302 -0.00221814 0.00394601
C 15.19770267 18.78046033 17.22423914 0.00506748 -0.00415166 -0.00576878
C 11.84396610 21.65693381 20.55469644 0.00634037 -0.00362400 -0.00005022
C 15.09310817 18.51171949 22.05056664 0.00086637 0.00394713 -0.00727816
C 12.42300453 27.38455264 1.45937298 -0.00248528 -0.00287954 -0.00072545
C 15.57346132 24.32665133 2.96035651 0.00561930 -0.00098134 -0.00085929
C 12.38882397 27.25005010 6.24260772 0.00361826 -0.01161644 0.00506013
C 15.28264170 24.30201078 7.74837709 -0.00476365 -0.00430291 -0.00327155
C 12.18196460 27.21903939 11.05393714 0.00915453 -0.00421377 -0.00396975
C 15.48691587 24.29147512 12.38496212 0.00213593 0.00161274 -0.00226562
C 12.25491272 27.32793840 15.75391405 0.00019729 -0.00304089 0.00601401
C 15.35347732 24.08784497 17.14779793 0.00546403 0.00227903 0.00050377
C 12.37859870 27.31189694 20.40974534 -0.00287371 0.00656923 0.00492888
C 15.62956599 24.34119664 21.88274312 -0.00193478 0.00282395 -0.00511295
C 19.43817793 2.64240515 1.63396421 -0.00238929 -0.00372627 -0.00175390
C 22.71455434 29.48299609 2.88394659 0.00088251 0.00111920 0.00047940
C 19.42001785 2.42770952 6.23650091 -0.00697660 0.00217195 -0.00078926
C 22.46329873 29.31875991 7.57496007 0.00693299 -0.00145709 -0.00345985
C 19.34268391 2.37301502 11.09879463 -0.00510074 -0.00212735 -0.00196985
C 22.60493490 29.48063971 12.45564970 -0.00249078 0.00966896 0.00053268
C 19.23239816 2.10226903 15.90870101 0.01177834 0.00374217 0.00281157
C 22.62329164 29.19470458 17.11168417 -0.00005421 -0.00115494 -0.00435273
C 19.81961700 2.16647529 20.50434746 -0.00144481 0.00142012 -0.00404563
C 22.61337565 29.29812555 21.88537977 -0.00284234 -0.00265558 0.00005699
C 18.80929783 9.17815118 1.98666312 -0.00424451 -0.00291410 -0.00021974
C 21.80848499 6.04484601 2.99839528 -0.00355249 -0.00032061 0.00929047
C 18.76306152 9.05606453 6.74456950 0.00375899 0.00562145 -0.00357964
C 21.81436026 6.14779735 7.58926974 0.00514372 0.00679141 -0.00208413
C 18.60907008 8.78426994 11.28366394 0.00643604 -0.00058961 0.00371680
C 21.94080806 5.95710348 12.36287773 -0.00718644 0.00129085 0.00473699
C 18.94075429 8.81119206 15.97498548 0.00579119 0.00870311 0.00024482
C 21.68412202 5.88162149 17.08760637 -0.00643148 -0.00725683 -0.00639476
C 18.95884662 8.97215214 20.83249245 -0.00017170 -0.00436607 -0.00416832
C 21.85136299 5.90371658 21.74861709 -0.00056318 0.00605280 0.00835018
C 18.16810208 15.41844878 1.82096762 -0.00458724 0.00080835 -0.00222015
C 21.27543620 12.60393687 3.01171647 0.00624904 -0.00004701 0.00017721
C 18.25060216 15.59809694 6.56308518 0.00560487 0.00385092 -0.00726131
C 21.44461515 12.63827129 7.80737093 -0.00790030 0.00500472 -0.00476278
C 18.12250299 15.87599619 11.21154983 0.00406145 -0.00877582 0.00841137
C 21.27296131 12.74201738 12.51676535 -0.00202092 -0.00268994 -0.00255964
C 18.12889935 15.71923953 15.95032426 -0.00707856 -0.00487378 0.00799712
C 21.01978395 12.70810981 17.16835478 -0.00542108 0.00071609 -0.00332466
C 17.94501943 15.45022161 20.75608827 0.00053224 -0.00931460 -0.00233157
C 21.38666058 12.57247924 21.84010675 0.00234065 0.00082957 0.00095181
C 18.62903457 21.21414801 1.77814873 0.00258366 0.00139980 -0.00588349
C 21.87049783 18.39678195 2.97603468 -0.00227263 0.00397741 -0.00931522
C 18.78477631 21.45225358 6.50670833 -0.00444355 0.00330931 0.00459725
C 21.90317264 18.50223112 7.81147979 0.00465214 -0.00490000 -0.00188162
C 18.84975741 21.28168238 11.03989602 0.00639197 -0.00178558 0.00629851
C 21.67765709 18.20617099 12.47903050 0.00309844 -0.00271157 -0.00027514
C 18.85379813 21.25788031 15.96959527 -0.00206470 -0.00108552 -0.00010136
C 21.79861712 17.92205472 17.30676345 -0.00375702 -0.00092672 0.00401240
C 18.72061223 21.29736462 20.69949081 -0.00241165 -0.00148376 0.00627071
C 21.44838731 18.16447303 22.05703421 0.00265374 -0.00153256 -0.00402868
C 18.93955817 27.01538729 1.61877862 0.00246416 0.00463814 0.00909243
C 22.26996754 23.83340304 2.92246206 -0.00004909 0.00387760 -0.00149620
C 19.02417580 26.91994535 6.22537844 -0.00353865 0.00234016 0.00193711
C 22.03707743 24.29686925 7.84038741 0.00120771 -0.00120670 -0.00154957
C 18.79386774 26.96852783 11.10149610 0.00014783 -0.00005700 -0.00110729
C 22.06714527 23.69218150 12.48869854 -0.00775698 -0.00142026 0.00929939
C 18.93842060 26.80338925 15.86825221 0.00042128 0.00176171 0.00415951
C 22.20617181 23.67579367 17.15411420 0.00722124 0.00031058 -0.00284167
C 18.89136104 26.70899997 20.60198452 -0.00283427 0.00308204 0.00378035
C 22.19361751 23.88534708 21.96970465 -0.00587064 0.00097017 -0.00486012
C 25.21425810 3.06257011 1.75107648 0.00074783 -0.00260606 0.00617181
C 28.22501573 0.09476141 3.09177696 -0.00160556 -0.00664208 -0.00228564
C 25.12019137 3.14431962 6.33767132 -0.00501020 -0.00123632 0.01182927
C 28.12674712 0.20889150 7.75216946 0.00174624 -0.00100471 0.00395106
C 24.80019500 2.94759848 11.19504810 -0.00484010 -0.00117294 -0.00065383
C 28.15531976 29.97685241 12.40108556 -0.00231488 0.01069407 -0.00271393
C 25.18516346 2.75243234 15.99346606 0.00042290 0.01193418 -0.00084045
C 28.42281492 29.90890651 17.12097894 -0.00011810 -0.00901506 0.00170424
C 25.42622726 2.53656471 20.63063153 0.01282030 -0.00151817 0.00277560
C 28.47982432 29.70978840 21.92380458 -0.00225877 -0.00276085 -0.00064171
C 24.48871226 9.45576850 1.60950295 0.00405485 -0.00133907 0.00282790
C 27.66487432 6.67248406 2.98864868 0.00104987 -0.00434004 -0.00145441
C 24.52433422 9.57481281 6.48554330 -0.00122833 -0.00714158 -0.00161108
C 27.58047015 6.44181098 7.69273573 -0.00076506 0.00931187 0.00109784
C 24.00334886 9.55016715 11.04818234 0.00636119 -0.00457964 0.00705958
C 27.38168491 6.40406474 12.40557129 0.00046880 0.00080301 -0.00383753
C 24.29079958 9.59549095 16.06665563 -0.00279818 0.00428253 -0.00002024
C 27.56439506 6.60805587 17.15445761 0.01168473 -0.00339818 0.00260621
C 24.17020596 9.53094853 20.67862360 0.00144114 0.00520424 0.00497653
C 27.51099737 6.28156691 21.77251452 -0.00160431 -0.00460187 -0.00384393
C 24.57346294 15.26823073 1.60051003 0.00035770 0.00327135 0.00526523
C 28.02966690 12.13981548 3.07341879 -0.00079918 -0.00224384 -0.00045570
C 24.96950186 15.35185924 6.51102774 -0.00518940 -0.00236261 -0.00140958
C 27.96161159 12.20761206 7.80581518 -0.00438172 0.00520910 -0.00482446
C 24.79731897 15.14821902 11.36369400 0.00123491 0.00852130 -0.00625961
C 27.98901825 12.07949050 12.43711369 -0.00291465 0.00985937 0.00641521
C 24.96934260 15.19532290 16.12277690 0.00218274 0.00428485 0.00460757
C 28.16998867 12.13845460 17.18069225 -0.00146482 -0.00332166 -0.00141780
C 24.82728625 15.20206586 20.59719318 0.01011390 0.00111088 0.00417692
C 27.92456599 12.17147534 21.91953990 0.00434349 -0.00660875 0.00505931
C 25.33508435 20.82782601 1.78745598 0.00718077 -0.00435862 -0.00100073
C 28.28737856 17.84925711 2.86127526 0.00092752 0.00282873 -0.00547282
C 25.25222962 20.73445321 6.34889020 -0.00023666 0.00355927 -0.00257401
C 28.10485189 18.08056486 7.60117839 0.00181055 0.00785694 -0.00258011
C 25.30279158 20.73561626 11.27528190 -0.00416896 -0.00254925 0.00934010
C 28.47072179 17.94531255 12.52393038 0.00029757 -0.00190285 -0.00058762
C 25.14480728 20.63682811 16.06195537 -0.00548428 0.00039107 -0.00043695
C 28.90657369 17.58244393 17.12224228 0.00211051 -0.00840829 -0.00278376
C 25.36152509 20.58085238 20.59432113 -0.00062657 -0.00304392 0.00286623
C 28.48262715 17.75725464 21.85874245 0.00707283 0.00763053 -0.00368214
C 25.77452998 26.20813931 1.77937011 -0.00717555 -0.00343380 0.00121054
C 28.86201889 23.22812580 3.09214137 0.00383843 0.01164392 -0.00383118
C 25.70269655 26.54595797 6.51907025 0.00306291 0.00168308 0.00042652
C 29.10448469 23.51685414 7.73701893 -0.00545235 -0.00062223 -0.01015323
C 25.97678147 26.54132691 11.18132488 0.00083938 0.00172248 0.00535319
C 28.78533246 23.38973492 12.57904473 0.00276000 0.00322290 -0.00471027
C 25.76234187 26.46987822 16.05454036 0.00056594 -0.00008548 -0.00635770
C 29.02806771 23.51345874 17.27731091 0.00162039 0.00178886 -0.00306234
C 25.60287794 26.18383436 20.72629001 0.00932690 -0.00065313 -0.00927950
C 28.96629694 23.32683262 21.88194628 -0.00269780 0.00378600 -0.00095483
N 0.26518436 4.59686029 0.72522852 0.00366477 0.00049769 -0.00119929
N 3.48766690 5.23676953 3.87396142 0.00277292 0.00036229 0.00096387
N 5.59003597 2.28990285 1.02896308 0.00270030 -0.00097600 0.00407128
N 1.50108493 1.07057561 3.73229921 -0.00665488 0.00316610 0.00574550
N 0.31042173 4.38665366 5.56030412 0.00577966 0.00138930 0.00120503
N 3.32624344 5.26193791 8.74567390 -0.00487521 -0.00378360 0.00038845
N 4.99500487 2.51181798 5.80084971 0.00313245 0.00296190 -0.01135112
N 1.45951065 1.38386541 8.36613658 -0.00047252 -0.00261299 -0.00270102
N 0.07600483 4.41522151 10.42985735 -0.00056946 0.00007593 -0.00611826
N 3.68885241 5.28601076 13.37090172 -0.00152049 0.00098994 0.00578925
N 5.16646005 2.30672538 10.54662654 0.00268427 0.00180339 -0.00788101
N 1.68710142 1.56289272 13.09553343 -0.00550053 -0.00049553 0.00541592
N 0.07105293 4.47581048 14.94333441 -0.00257479 0.00407929 0.00268387
N 3.58549364 5.24897326 18.06331639 0.00524375 0.00279106 0.00786180
N 5.58193821 2.17653294 15.33892159 0.00262605 0.00175369 0.00036120
N 1.63835988 1.34136749 17.80097796 -0.00524152 -0.00317405 -0.00176684
N 31.13339472 4.70061090 19.88512319 0.00082507 0.00274261 -0.00351685
N 3.39872100 5.10086238 22.50107652 -0.00081571 -0.00044862 0.00046361
N 5.42499585 2.43435124 19.89617890 -0.00421318 0.00134294 -0.00149570
N 1.60333153 1.20738655 22.63732835 -0.00279947 0.00238903 0.00290111
N 0.66294684 10.04648516 0.98241882 -0.00463190 0.00356375 -0.00541741
N 4.06600661 10.60305299 3.90633908 0.00329292 0.00095732 0.00436923
N 5.74203242 7.80061846 1.07631906 -0.00477038 0.00236884 0.00078329
N 1.98757589 6.93994490 3.76502590 -0.00343338 -0.00205700 0.00481392
N 0.63616316 9.94265766 5.90156295 -0.00168697 -0.00345149 0.00362820
N 4.03537803 11.02858109 8.70745269 0.00227337 0.00134316 0.00354449
N 5.55263072 7.89640522 5.99415265 -0.00324557 0.00385163 0.00119331
N 2.30674774 7.32420532 8.40920932 -0.00139459 0.00526974 -0.00146651
N 0.48603763 10.10112733 10.41471964 0.00020475 0.00362738 0.00365202
N 3.96120833 10.95864516 13.18798139 -0.00387823 0.00009600 -0.00043797
N 5.77548513 7.79576191 10.50546909 -0.00174387 -0.00383127 0.00287217
N 2.30547821 7.15996827 13.33579699 0.00163728 0.00040409 -0.00174609
N 0.65608092 9.86457544 15.04269000 -0.00425374 -0.00121000 -0.00256345
N 3.76771214 10.88515063 17.82162280 0.00057142 -0.00092888 -0.00032904
N 5.81038621 8.04089116 15.43746139 -0.00053804 0.00309148 0.00338504
N 2.17938576 7.15570203 17.81815041 0.00143620 -0.00180496 -0.00363712
N 0.78804864 9.87920956 19.93692207 -0.00869808 -0.00344759 0.00102219
N 3.82941361 10.68919214 22.61564428 -0.00391109 0.00074082 0.00449168
N 5.41128967 8.11104796 19.92635869 -0.00741433 0.00280411 -0.00406944
N 2.42947326 7.14375928 22.60720004 0.00408486 0.00346619 0.00131700
N 1.05981693 15.61056127 0.99884495 -0.00740809 -0.00550981 0.00026034
N 4.51398754 16.57966918 3.85093795 -0.00108242 -0.00611144 -0.00203577
N 6.11042424 13.36378474 0.99878672 0.00472280 -0.00133844 -0.00461471
N 2.87289501 12.58936464 3.67938378 0.00261274 -0.00389064 0.00006219
N 0.85343586 15.56644699 5.64191761 0.00354571 -0.00241504 -0.00330400
N 4.44046856 16.32967406 8.47966203 0.00093363 -0.00352264 0.00256721
N 5.99088271 13.62750689 5.85491288 0.00386635 0.00629716 0.00416015
N 2.72519944 12.87081108 8.39512373 0.00150844 0.00066653 -0.00327815
N 0.66501591 15.72192570 10.54236285 0.00490143 0.00583751 -0.00334882
N 4.69617495 16.67600830 13.29440328 0.00196074 -0.00004223 -0.00428182
N 6.29675385 13.59198229 10.54476677 -0.00078585 0.00185821 0.00766079
N 2.70888011 12.92222220 13.02696564 0.00477451 -0.00262303 -0.00220769
N 0.57491257 15.82859524 15.02509328 0.00318306 -0.00133358 -0.00327748
N 4.63409833 16.72127202 17.94494639 0.00056070 -0.00555821 -0.00030547
N 6.17485539 13.68267618 15.39363390 -0.00149855 -0.00226934 -0.00180076
N 2.89652158 12.89574086 18.10000727 0.00964642 -0.00053602 0.00003900
N 1.08822514 15.57674341 20.21613349 0.00135222 0.00023873 0.00313940
N 4.55551944 16.70075437 22.71485614 -0.00398279 0.00521076 0.00720749
N 5.94253116 13.50213836 19.94208824 -0.00197534 -0.00427949 0.00314877
N 2.99078506 12.86353224 22.77689930 0.00482538 0.00141141 0.00437018
N 1.71653297 21.14312167 1.12709806 0.00007658 -0.00241262 -0.00152363
N 4.28729276 23.42088683 3.73396317 -0.00093311 -0.00154482 -0.00026206
N 5.43582170 20.38685932 0.76008308 -0.00234140 -0.00163303 0.00144579
N 2.89086987 18.17588715 3.83943712 -0.00676461 -0.00154881 -0.00141456
N 1.60870552 20.98650562 5.48190737 -0.00331481 -0.00229381 -0.00265428
N 4.09383230 23.48743391 8.37419813 0.00467915 -0.00581145 -0.00297836
N 5.65829448 20.08730563 5.75106496 0.00654150 -0.00163374 -0.00087440
N 2.90536182 18.12312144 8.48922663 0.00465304 0.00106627 0.00018363
N 1.44603110 21.13767494 10.51826191 -0.00474975 -0.00026812 0.00515102
N 4.31720996 23.41631223 13.10328781 -0.00051900 -0.00268661 -0.00637440
N 5.38771595 20.09713319 10.50055924 -0.00668676 -0.00168599 0.00269120
N 2.80698718 17.90101769 13.37311477 -0.00594293 0.00133488 -0.00352755
N 1.72268527 20.99326941 15.23287231 -0.00166170 -0.00220735 -0.00351907
N 4.15756250 23.44187833 18.13795656 0.00277994 -0.00287173 -0.00391464
N 5.55080854 20.17237020 15.26156514 0.00078100 0.00383888 0.00334222
N 3.12539331 18.44846760 17.96831261 0.00009844 0.00187751 0.00082771
N 1.41236941 21.21414866 19.63278838 0.00023228 -0.00380250 -0.00154415
N 4.15637123 23.52953289 22.34060717 0.00475352 -0.00261787 -0.00477295
N 5.43077140 20.36169301 19.85308754 0.00273139 0.00445261 -0.00385995
N 2.97532795 18.36876982 22.41031377 0.00279536 -0.00259692 0.00210422
N 0.99885298 27.66926867 1.06530968 -0.00307145 0.00153276 -0.00836221
N 3.45972385 29.92627201 3.71226995 -0.00043212 -0.00260038 -0.00274540
N 4.87190931 26.89100226 1.04153963 -0.00224084 0.00002148 0.00151737
N 2.16820747 24.41498933 3.73665344 0.00570165 0.00254281 -0.00729735
N 0.97732491 27.98984249 5.73562195 -0.00771960 0.00410420 -0.00465529
N 3.18422363 29.96738889 8.31129943 0.00127253 0.00397665 0.00720047
N 4.95944144 26.48221796 5.63931396 -0.01104547 -0.00762992 0.00379519
N 2.04642761 24.38937222 8.19931803 -0.00511791 -0.00516888 0.00430583
N 0.55305545 28.23117723 10.44603385 -0.00143111 -0.00773968 -0.00031005
N 3.43554811 0.15622426 13.16777395 -0.00118015 0.00277162 -0.00360494
N 4.72708313 26.68090248 10.29382041 -0.00271397 -0.00245876 -0.00651817
N 2.23767259 24.50515693 13.37105164 -0.00421658 0.00376585 0.00192901
N 0.72028750 28.23579335 15.13510777 -0.00157235 -0.00200698 0.00143488
N 3.43070574 29.98295105 18.03224211 -0.00652666 0.00224520 -0.00012578
N 4.92831355 26.91632617 15.01056911 0.00582719 0.00052125 -0.00050267
N 2.17134760 24.60501108 17.87636725 -0.00020757 -0.00400317 -0.00315020
N 1.06281400 27.94753475 19.85522613 -0.00337109 -0.00508018 -0.00472561
N 3.45944767 29.92059985 22.66563995 0.00225295 -0.00239913 0.00290411
N 4.58551004 26.97180052 19.98722975 -0.00060304 -0.00014700 0.00536486
N 2.20520992 24.56912634 22.82606672 -0.00635983 -0.00502151 0.00147720
N 6.95986088 4.24918254 1.07848797 0.00436082 -0.00202384 -0.00000616
N 9.98883678 4.60771736 3.73170571 -0.00033668 0.00572544 -0.00226776
N 12.21100766 1.90037761 1.01739788 -0.00470455 -0.00554195 -0.00683321
N 8.30992288 1.09976980 3.92967533 0.00084273 -0.00291606 -0.00021683
N 6.63801103 4.16090002 5.86163500 -0.00157978 0.00608303 -0.00159505
N 10.45937390 4.87702597 8.66881505 0.00095450 -0.00224791 0.00151700
N 11.69377289 2.03492432 5.89253320 -0.00822485 -0.00549382 0.00540631
N 8.40234402 1.06395911 8.57350466 0.00613820 -0.00105826 0.00559186
N 6.64724236 4.02959006 10.42886990 0.00894181 -0.00890857 0.00601439
N 10.08689653 4.82082142 13.18438801 0.00779369 -0.00682587 0.00031722
N 11.82491511 1.84804752 10.78952801 0.00393040 -0.00258919 -0.00435513
N 8.51974250 1.36961822 13.13405107 0.00184048 -0.00079023 0.00622457
N 6.75949576 4.14422731 15.13042484 -0.00288696 0.00172485 0.00149861
N 10.33288342 4.83129184 17.92597712 0.00635484 -0.00183046 0.00249371
N 11.87147239 2.23040948 15.27712091 0.00220619 -0.00724539 0.00258703
N 8.76020535 1.36423578 18.09274777 0.00600019 0.00395638 -0.00125616
N 6.87355031 4.28557185 20.10927772 0.00144235 -0.00213584 -0.00219915
N 10.38950875 4.97814298 22.57577262 -0.00124853 0.00222118 -0.00075632
N 12.04024285 2.00202308 19.98034138 -0.00041530 -0.00531669 0.00204021
N 8.83475131 1.17598126 22.70674882 0.00173508 0.00108714 0.00361961
N 7.30009038 9.45833800 0.95951721 0.00035301 0.00464669 -0.00397377
N 10.82747645 10.53008388 3.54613791 0.00687280 0.00278552 0.00463444
N 12.32443530 7.43618422 0.84767484 -0.00571848 -0.00408580 0.00224345
N 8.93481448 6.69503024 3.88506707 0.00611548 -0.00640027 0.00074202
N 7.30610075 9.40273125 5.86631501 -0.00097441 -0.00268391 -0.00200747
N 11.05627809 10.53941819 8.34932923 0.00734609 -0.00227891 0.00261106
N 12.22556590 7.45062325 5.84608630 -0.00579095 0.00154984 -0.00503669
N 9.19038211 6.77199395 8.60079198 -0.00667067 -0.00128525 -0.00329296
N 7.29550724 9.54400774 10.36402278 0.00634641 0.00166832 -0.00161726
N 11.02274732 10.57643856 12.98922303 -0.00088260 0.00234968 0.00295226
N 12.58651077 7.55625441 10.75949650 -0.00273326 0.00200489 -0.00573536
N 8.93935978 6.81727621 13.32439337 0.00568965 0.00925226 -0.01112185
N 7.16051654 9.83364007 15.15132162 -0.00302996 -0.00105451 0.00243361
N 11.11905212 10.76303488 17.86328375 0.00383247 0.00217878 -0.00001268
N 12.37217419 7.58071365 15.17708384 -0.00330872 -0.00131299 -0.00096904
N 9.01225302 6.74862080 17.82503574 0.00023949 0.00453411 0.00004512
N 7.08686776 9.73391009 19.92981767 -0.00060866 0.00310178 0.00260431
N 10.73609512 10.87419765 22.60668313 0.00547427 -0.00592031 -0.00289014
N 12.52219948 7.33319455 19.93836582 -0.00148470 -0.00798425 -0.00260154
N 9.04092453 6.89897522 22.55927686 0.00696140 0.00298464 -0.00649075
N 7.55589969 15.09300507 1.05529015 0.00077657 -0.00384792 -0.00373636
N 10.44397214 17.44061251 3.84539887 0.00068488 0.00072236 -0.00372271
N 11.89635292 14.17922562 1.19409403 -0.00335284 -0.00303021 -0.00007065
N 9.13984830 12.08300598 3.64142419 -0.00758239 0.00088038 -0.00255882
N 7.87081203 15.10516618 5.81280835 -0.00561111 -0.00161015 -0.00193868
N 10.51550738 17.44042213 8.20778055 0.00238578 0.00380683 -0.00147373
N 11.70593815 14.31012097 5.87831158 -0.00328480 -0.00396715 0.00054196
N 9.32432059 12.07313740 8.33763249 -0.00169794 -0.00269944 0.00441371
N 7.84741917 15.24581580 10.26469108 0.00088032 0.00040305 0.00295119
N 10.38666045 17.29958225 13.18227048 -0.00169176 0.00437401 0.00151510
N 11.71121248 14.37156559 10.45779158 0.00393408 0.00527918 0.00667652
N 9.31770882 12.07610505 13.23888180 0.00305574 0.00483652 0.00635116
N 7.89292645 15.15360645 15.04033231 0.00326797 0.00440827 0.00499314
N 10.24705579 17.59285244 17.87690417 -0.00002534 -0.00636808 -0.00348877
N 12.02648407 14.07071229 15.04610369 0.00266485 0.00050159 0.00353777
N 9.46527856 12.34279167 17.83554960 -0.01089365 0.00605894 0.00237632
N 7.37759661 15.27304884 20.15019993 -0.00156130 0.00067918 -0.00196553
N 10.46724615 17.54756120 22.91522621 0.00467787 -0.00362579 0.00199469
N 11.68843868 14.41272784 19.70691995 -0.00141105 -0.00441639 0.00130903
N 9.21652330 12.60415027 22.42158481 0.00019431 -0.00305938 -0.00196546
N 7.17330103 21.84825428 1.16286905 0.00034094 -0.00043756 0.00379491
N 9.90936156 24.16246946 3.62333805 0.00098194 -0.00519969 -0.00147172
N 11.27674168 20.82871485 1.09535696 -0.00038342 0.00830877 -0.00945142
N 8.31198261 18.40703917 3.77586306 -0.00024035 0.00156654 0.00154148