2000
Time=97999.99999997 pbc="T T T" Lattice="31.16293786 0.00000000 0.00000000 0.00000000 30.04663762 0.00000000 0.00000000 0.00000000 23.66657467" energy=-12041.45902371 virial="-45.27687137 -7.64840836 3.99562326 -7.64840836 -52.77394196 -3.89325806 3.99562326 -3.89325806 -49.28616504" stress="0.00009041 -0.00037944 0.00025774 -0.00037944 -0.00023208 -0.00014752 0.00025774 -0.00014752 0.00050742" Properties=species:S:1:pos:R:3:vel:R:3
C 30.45408395 3.55126524 1.96262243 -0.00141605 0.00126062 0.00502155
C 2.66236098 0.39871391 3.19763771 -0.00478644 0.00446907 -0.00478218
C 30.57088777 3.70538933 6.52999661 -0.00153841 -0.00381605 0.00207716
C 2.32519843 0.43163605 7.89257654 -0.00434929 -0.00445359 0.00059606
C 30.61410061 3.79498990 11.12243714 0.00007128 -0.00073382 0.00215035
C 2.36217726 0.41736634 12.73384937 -0.00269395 0.00706825 0.00060671
C 30.45769458 3.70288199 15.95965517 -0.00042138 0.00170468 0.00182054
C 2.47652705 0.41958915 17.20016632 0.00275520 -0.00111914 0.00222533
C 30.62587520 3.69932069 20.84700563 -0.00047835 -0.00037437 0.00210178
C 2.55028118 0.65666039 22.02491263 -0.00588292 -0.00303604 -0.00062829
C 30.90264043 9.27818548 1.65478841 0.00278728 -0.00286832 -0.00284712
C 2.66334463 5.84746034 3.07833566 0.00027433 0.00089868 0.00205061
C 30.99820857 9.29803075 6.40683331 0.00282172 -0.00306657 -0.00295834
C 3.12751919 6.25444499 7.88202775 0.00410376 0.00257505 -0.00036776
C 31.04847739 9.19516635 11.07950195 0.00062925 -0.00460808 0.00405195
C 2.89344193 5.86125635 12.62647414 0.00400067 -0.00391416 -0.00215815
C 30.92938660 9.19225190 15.90321156 0.00394008 0.00037349 -0.00146190
C 2.66326669 6.07746239 17.24201357 -0.00039156 0.00433028 0.00017599
C 31.06226723 9.39193686 20.59846757 -0.00062653 0.00291177 0.00451406
C 2.74726125 6.32677517 22.10098068 -0.00168578 -0.00216457 -0.00736728
C 0.05839673 14.82045318 1.72577032 -0.00695330 -0.00186433 -0.00326633
C 3.24081590 11.76024717 2.99571997 -0.01003681 -0.00054843 -0.00205559
C 0.00860797 15.06140088 6.19694230 -0.00153972 0.00107199 -0.00066680
C 3.54268918 12.04439752 7.70778469 -0.00043781 -0.00093080 -0.00722083
C 0.36891027 14.88874867 11.13880302 -0.00130815 0.00301682 -0.00358068
C 3.61436549 11.82109962 12.42104657 0.00116614 -0.00486118 0.00153542
C 0.37064333 14.99003261 15.86363181 -0.00376029 0.00568358 -0.00176891
C 3.51900088 11.79444015 17.12221871 -0.00579665 0.00588041 0.00449263
C 0.29818710 14.46498431 20.47194841 -0.00096543 -0.00193761 0.00187705
C 3.20953007 12.13955273 21.90655588 -0.00041708 -0.00427047 0.00388924
C 0.48676121 20.38065523 1.85231097 0.00106544 -0.00694722 -0.00365928
C 3.74942035 17.63807119 3.18208749 -0.00250223 0.00162304 -0.00689705
C 0.59981808 20.40929782 6.71054310 0.00248926 0.00253089 0.00279643
C 3.71804966 17.64551062 7.76251048 0.00650106 -0.01129443 -0.00293563
C 0.46969077 20.34972400 11.43759497 0.00081503 -0.00036295 -0.00108454
C 3.91141698 17.82149821 12.48800619 -0.00262496 0.00534978 -0.00769215
C 0.56273126 20.32122425 15.87030159 -0.00179288 -0.00469223 0.00329298
C 3.57821378 17.36868901 17.13669024 0.00372075 -0.01015819 0.00485501
C 0.63984719 20.32494796 20.61171843 -0.00214409 -0.00275382 0.00120777
C 3.53471632 17.33251969 22.19371055 0.00243613 0.00145032 -0.00674759
C 0.15811098 26.98160014 1.87897316 0.00538275 0.00270343 -0.00238256
C 3.35378135 24.19733379 3.26695794 -0.00239165 0.00740519 -0.00184374
C 0.25878349 26.98272961 6.46972811 -0.00249302 0.00334494 -0.00093597
C 3.10961402 23.81701625 7.90161995 -0.00010926 -0.00430154 0.00138499
C 0.00715723 26.92015728 11.14376242 -0.00107468 0.00043121 -0.00243368
C 3.20102414 24.12131244 12.65124136 0.00061274 0.00383153 0.00052110
C 30.91231940 26.94654011 15.89577630 -0.00152244 -0.00098864 -0.00048351
C 3.02958605 24.03060825 17.43566772 -0.00567697 0.00321764 0.00205375
C 30.71299097 27.08684385 20.84640398 0.00144060 0.00441982 0.00320708
C 3.02046935 23.95166260 22.07148298 0.00127498 -0.01058364 -0.00061046
C 5.98936480 3.17258654 1.91032257 -0.00312208 0.00616112 0.00197660
C 9.06886202 0.09869649 3.04333688 -0.00224680 0.00412761 0.00252455
C 6.01878570 3.55251302 6.68283607 0.00036931 -0.00320117 -0.00008594
C 8.97765586 0.40213400 7.84429438 -0.00033553 0.00174005 0.00397550
C 5.99530866 3.31979486 11.32855170 -0.00307090 -0.00065527 -0.00356733
C 8.98707626 0.17061622 12.47933408 0.00220758 -0.00116758 -0.00964823
C 6.10732599 2.92258335 15.99806845 -0.00169226 0.00570955 0.00477044
C 9.29169564 29.93925959 17.33658756 0.00036029 0.00257071 -0.00360603
C 5.81795691 3.16397923 20.56420295 -0.00715080 -0.00473579 -0.00982301
C 9.31773266 0.11841131 22.11235944 0.00844634 -0.00538424 0.00116899
C 5.91298271 8.45512559 1.76684284 0.00072217 0.00763697 -0.00136676
C 9.40166394 5.77434258 2.93362546 0.00450990 -0.00131794 0.00359480
C 6.18133544 8.93338228 6.42621243 -0.00023519 0.00004319 0.00579389
C 9.50439471 6.14110292 7.83447520 -0.00036633 -0.00027763 0.00022917
C 6.56721894 8.85513476 11.10782495 0.00308704 0.00585195 0.00766843
C 9.56152916 5.94574985 12.50428178 0.00293549 0.00071044 -0.00278674
C 6.54584229 8.58372375 16.01666632 0.00219817 -0.00887458 0.01010222
C 9.58168333 5.63216973 17.02884683 -0.00536259 0.00168151 0.00677168
C 6.38525593 8.65471578 20.73409101 -0.00010546 -0.00263017 -0.00148186
C 9.58136104 6.03314365 21.88016435 0.00129075 -0.00124243 0.00124283
C 6.67155406 14.44150380 1.89422716 0.00108668 0.00839630 -0.00474580
C 10.00994869 11.35770664 2.98578470 0.00190453 -0.00488937 -0.00407348
C 6.79966172 14.58341023 6.43442531 0.00293504 -0.01008822 -0.00140321
C 10.19326888 11.75239556 7.77663028 -0.00550487 0.00191199 0.00428430
C 6.91644699 14.53768673 11.06915840 0.00101705 0.00455413 -0.00128837
C 10.06068327 11.55985324 12.44615889 -0.00402209 -0.00597873 -0.00386115
C 6.85046263 14.40868592 15.86708654 -0.00038290 0.00154765 0.00144162
C 9.82036239 11.33590460 17.17051235 -0.00045938 0.00506328 0.00348749
C 6.98393156 14.45247557 20.73772312 -0.00381432 0.00967986 -0.00687094
C 9.73932812 11.53846683 22.04402069 0.00364402 -0.00258814 -0.00495627
C 6.35830438 20.99124315 1.68153669 -0.00374522 0.00683329 -0.00637913
C 9.38687319 17.94627500 3.39204294 0.00277873 0.00187382 -0.00049353
C 6.36168579 20.93471535 6.49723296 0.00321604 -0.00274063 0.00534579
C 9.48246609 18.26931971 7.96141021 0.01330156 0.00170014 -0.00870919
C 6.34268655 21.23194847 11.33797777 0.00124386 0.00278653 0.00760492
C 9.11697048 18.02727605 12.62074814 -0.00413915 0.00316812 0.00058976
C 6.09991579 20.81604414 16.17327522 0.00078630 -0.00216232 -0.00406558
C 9.18401074 17.90473078 17.29168928 -0.00046319 0.00400872 0.00207513
C 6.28474352 21.03339065 20.57936096 -0.00462515 -0.00358833 -0.00481176
C 9.27459954 17.83066647 22.25634447 -0.00632317 -0.00564642 0.00304531
C 5.67053475 27.55564586 1.81493209 0.00210395 -0.00251241 0.01208059
C 8.90417363 24.82996814 3.01877608 0.00215965 -0.00976484 0.00099878
C 5.56167851 27.72227887 6.57391264 0.00507258 -0.00098366 -0.00003790
C 8.75100719 24.72096753 7.77174977 -0.00175476 -0.00317429 -0.00032972
C 5.44062557 27.43253972 11.21490495 -0.00029139 0.00114263 0.00006220
C 8.69445536 24.77160062 12.68046973 0.00695939 -0.00361583 0.00157875
C 5.52449809 27.59745171 16.10409153 0.00187600 -0.00509606 0.00071009
C 9.11677971 24.63040880 17.34604684 -0.00096296 -0.00330706 0.00251035
C 5.50821430 27.73884902 20.67774030 -0.00300041 0.00219879 -0.00905993
C 8.63536091 24.26490669 22.09691624 -0.00041862 0.00382301 -0.00203462
C 12.72478039 2.84781338 1.53471243 0.00082218 0.00636334 0.00110705
C 15.74766113 29.75067884 3.09586151 0.00400673 0.00596496 -0.00663129
C 12.60231009 2.62284385 6.19498598 -0.00432967 -0.00506636 0.00504142
C 15.68576333 29.77281134 7.72196999 -0.00359631 -0.00029064 0.00103835
C 12.51302214 2.82764339 11.22575334 0.00555240 0.00348757 0.00397895
C 15.89942586 29.88420378 12.55830734 -0.00380912 -0.00183354 -0.00249142
C 12.54689334 2.73139313 15.88382579 -0.00654453 0.00249010 0.00199636
C 16.04364089 29.84913370 17.20617338 0.00024761 -0.00243241 0.00416238
C 12.90565998 2.87785194 20.53698934 -0.00720809 0.00507050 0.00297068
C 15.88327524 29.92204126 21.80197247 -0.00761714 0.00583291 0.00463752
C 13.00704829 8.31480337 1.61526382 0.01131979 0.00297922 -0.00113387
C 16.14007988 5.31842448 2.87679799 -0.00656343 -0.00066997 0.00174150
C 13.28615548 8.09482668 6.63851588 -0.00532776 -0.00616870 -0.00007898
C 16.29029118 5.38852320 7.71727913 -0.00450558 0.00223918 -0.00101619
C 13.13645526 8.39070406 11.18031367 -0.00231280 0.00149113 0.00134849
C 16.28766903 5.37444950 12.28571433 0.00205113 -0.00081637 -0.00354918
C 13.19715847 8.15601809 15.74330980 0.00222355 0.00111178 0.00546980
C 16.37596548 5.29871605 16.93613785 -0.00563319 -0.00144852 -0.00029380
C 13.08521976 8.40354941 20.32915234 -0.00028356 -0.00973821 0.00251555
C 15.87983739 5.56161959 21.69838264 0.00110957 -0.00180352 -0.00047347
C 12.60766321 14.87362279 1.76892468 -0.00428413 -0.00486515 0.00219258
C 15.50067059 11.70653432 3.13108638 -0.00329380 -0.00082663 -0.00146146
C 12.81681225 15.02222231 6.40415793 -0.00252493 0.00306744 0.00437503
C 15.40961385 12.12568197 7.74072577 -0.00227812 -0.00370938 0.00835266
C 12.35165437 15.12060219 11.18136348 0.00129368 0.00376517 0.00668837
C 15.53353066 12.18908215 12.33484059 0.00212147 -0.00021329 -0.00038337
C 12.65904553 14.98334965 15.80431154 -0.00271790 0.00724390 -0.00319413
C 15.56823399 12.06729817 17.19266046 0.00148263 -0.00218467 -0.00432068
C 12.80822742 14.88854837 20.70989502 0.00773135 0.00023672 0.00751315
C 15.60768114 11.96699365 22.13008340 0.00042817 -0.00912310 -0.00493678
C 11.93644377 21.53083467 1.63800416 0.00151287 0.00066650 -0.00375531
C 15.02973428 18.52638514 2.92865530 -0.00309233 0.00233394 0.00037074
C 12.06847240 21.56179949 6.31197896 -0.00198635 0.00109775 0.00246071
C 14.74104759 18.77125278 7.83219884 0.00466505 0.00715178 -0.00224809
C 11.81842472 21.63459286 11.12032667 -0.00130118 0.00465032 0.00459408
C 14.98549713 18.51776540 12.33033178 0.00489377 -0.00297415 0.00298236
C 11.93861662 21.84151910 15.91236008 -0.00171300 0.00504277 0.00298164
C 15.20479761 18.65336214 17.11012364 -0.00033863 0.00038999 -0.00162876
C 11.86106144 21.28631253 20.61839045 -0.00170570 0.00066539 0.00000070
C 15.03032112 18.31986662 22.04814517 -0.00321286 0.00064816 -0.00273307
C 12.12837437 27.20327584 1.74002976 -0.00233843 0.00093270 0.00096398
C 15.32463548 24.28913994 3.10048911 -0.00226912 0.00455507 0.00113307
C 12.22692824 27.62802823 6.44076138 0.00177314 -0.00055918 0.00111151
C 15.26293522 24.23984301 7.76545169 0.00258709 -0.00179672 0.00521397
C 12.37569890 27.41028567 11.22940671 -0.00112562 -0.00596508 -0.00683656
C 15.37887577 24.23216182 12.45589077 0.00003353 -0.00368896 -0.00147633
C 12.46968084 27.36240498 16.12102598 -0.00322300 0.00634835 -0.00192273
C 15.59408279 24.19619704 17.01084805 -0.00178354 -0.00152166 -0.00188916
C 12.68073538 27.11561860 20.70824010 -0.00244858 -0.00072776 0.00634624
C 15.32524369 24.23990006 22.09282562 0.00059241 -0.00027302 -0.00566299
C 19.30939645 2.42532653 1.36634006 -0.00407629 -0.00858094 -0.00451705
C 22.36001615 29.22327873 2.98485039 -0.00243453 0.00687581 -0.00579931
C 19.39351119 2.40247155 6.26376660 -0.00546814 -0.00110153 0.00094405
C 22.31724024 29.58008097 7.69778158 0.00560531 -0.00584382 -0.00173324
C 19.28005088 2.41454240 11.00397872 0.00147558 -0.00717541 0.00071368
C 22.57664560 29.66297333 12.47896986 0.00082885 0.00406917 -0.00593440
C 19.49085661 2.58933678 15.75397702 0.00837226 0.00418979 0.00555019
C 22.35654375 29.47853758 17.07847619 0.00043240 0.00318985 -0.00169225
C 19.26402268 2.38709339 20.68852566 -0.00126089 -0.00559026 0.00364856
C 22.58900961 29.12801819 21.98132024 0.00703871 -0.00338102 0.00493570
C 18.67378661 9.08714924 1.43891956 -0.00203290 -0.00615431 0.00175945
C 21.87933067 6.16995166 3.01632287 -0.00792771 0.00050992 -0.00413675
C 18.33642658 9.08610625 6.18458242 0.00406218 0.00575379 0.00804197
C 21.81189924 6.20829301 7.55894781 0.00835006 0.00594382 -0.00203879
C 18.92281891 9.11137621 11.11638389 0.00230445 0.00601885 0.00573962
C 21.77100969 6.11622708 12.35015367 0.00783080 0.00100290 0.00656603
C 18.73045584 9.03374892 15.71802784 -0.00972932 0.00100377 -0.00116663
C 21.70702405 6.04486539 17.14392930 0.00720356 0.00116888 0.00589386
C 18.62893480 8.88624358 20.55332721 0.00088515 -0.00122459 0.00372330
C 21.93824559 6.14903823 21.71653934 -0.00333825 -0.00169757 -0.00172701
C 17.99282154 15.61850641 1.64317833 -0.00055266 0.00337176 0.00831436
C 21.33040897 12.59636577 2.91110654 0.00164902 -0.00140208 0.00461458
C 18.11164556 15.39165541 6.18602578 -0.00368650 0.00254705 -0.00512572
C 20.98002623 12.51907356 7.70097939 -0.00695418 -0.00618529 -0.00200037
C 17.95348158 15.65430243 11.05018771 0.00168166 -0.00088227 0.00618709
C 21.24921783 12.78943621 12.48992427 -0.00078571 0.00369317 -0.00146128
C 18.14805397 15.62016825 15.86170363 -0.00087934 -0.00177151 -0.00400204
C 21.28330105 12.66572905 17.28747283 -0.00321714 0.00093060 -0.00030907
C 18.33790193 15.89124840 20.56434061 -0.00664034 -0.00057765 -0.00293429
C 21.05583620 12.51744379 21.91215864 -0.00286219 -0.01033868 -0.00424818
C 18.45897391 21.23983916 1.80958779 0.00067166 -0.00065252 -0.00044524
C 21.57746534 18.26440304 3.05934582 0.00217965 0.00342172 -0.00277480
C 18.72225688 21.13461743 6.36233294 0.00124132 0.00176203 -0.00295968
C 21.49136856 18.00693780 7.80713465 -0.00692642 0.00018331 0.00124444
C 18.33938809 21.46985966 11.15826213 -0.00144665 0.00177303 -0.00194653
C 21.34536246 18.00351986 12.59873790 -0.00067746 0.00312031 -0.00218222
C 18.59082841 21.17027464 15.82746412 -0.00151746 -0.00502624 -0.00097287
C 21.75983828 18.32535929 17.17283953 0.00573699 -0.00069138 -0.00411755
C 18.67637332 21.15882976 20.65709890 -0.00387632 -0.00168570 -0.00623235
C 21.69482090 18.05975279 21.91746401 0.00251854 -0.00636049 0.00974649
C 18.84818004 26.94870727 1.71026231 -0.00529699 0.00197608 -0.00079881
C 21.91807439 23.66329932 2.86372207 -0.00579189 0.00333229 -0.00516469
C 18.58398760 26.84664275 6.39735459 0.00837112 0.00133409 0.00265152
C 21.78058564 23.84695574 7.49767032 0.00009147 0.00608375 0.00040518
C 18.79871522 26.82963271 10.98459056 -0.00247807 -0.00419173 -0.00125006
C 22.01645174 23.78645377 12.12603480 0.00486555 0.00283370 -0.01084235
C 19.06934787 26.75761204 15.81860874 -0.00142340 0.00431996 -0.00407403
C 22.09311465 24.01198117 16.92890893 -0.00247285 0.00280929 -0.00821031
C 18.99026670 26.73111419 20.62872491 -0.00516561 0.00239947 -0.00712400
C 22.15472939 23.67474027 21.84242532 0.00565427 0.00509311 0.00763135
C 24.83002694 3.19410523 1.68158031 0.00097771 0.00699738 -0.00188611
C 27.96740501 0.00973869 3.12609295 0.00156493 0.00118773 0.00159348
C 24.90012898 2.84032566 6.45601877 0.00024487 -0.00542414 0.00456706
C 28.05809050 0.17611744 7.95439021 0.00302350 -0.00233237 -0.00441698
C 25.02727565 3.10375709 11.17923139 0.00217824 0.00540872 0.00534124
C 28.06441527 0.07547805 12.49504905 -0.00135927 -0.01163494 -0.01078982
C 24.89833144 3.20724060 16.05014888 -0.00363172 0.00166102 0.00227703
C 28.08598075 0.15273081 17.42650690 0.00084551 0.00318104 -0.00218450
C 24.82866421 2.81090692 20.68486233 -0.00625576 -0.00519174 0.00126109
C 28.37802610 30.03220721 22.17203178 0.00042421 -0.00337464 -0.00480372
C 24.18857548 9.73557827 1.55439098 -0.00247613 -0.00033888 0.00080063
C 27.72072470 6.72359705 2.93285297 0.00436681 0.00291800 -0.00395958
C 24.29802927 9.72242785 6.36582895 0.00023218 0.00133740 0.00621366
C 27.35945503 6.21097737 7.63833014 -0.00504165 -0.00438204 -0.00441936
C 24.19121550 9.75077741 10.99058950 0.00018653 -0.00226518 -0.00236771
C 27.59702881 6.69664686 12.39473439 0.00494914 -0.00435527 -0.00487952
C 24.57973378 9.73870569 15.77240403 -0.00010834 -0.00060093 -0.00458585
C 27.62638351 6.38339878 17.09036783 0.00680052 -0.00105841 -0.00089689
C 24.38713786 9.81343491 20.49658374 0.00362792 0.00094776 0.00975037
C 27.35030009 6.45255524 21.90835087 0.00466905 0.00153899 -0.00437953
C 24.81620730 15.28100247 1.84566426 0.00162023 0.00052032 0.00369132
C 27.79905750 11.93373694 3.18621600 0.00579114 0.00164275 -0.00304889
C 24.69859798 15.05420782 6.43177871 0.00149214 -0.00432490 -0.00067944
C 27.82567791 12.45716501 7.82811253 0.00007999 0.00109129 0.00390842
C 24.90293134 15.31716321 11.22991670 0.00026837 -0.00159564 -0.00036917
C 28.15670423 12.29056835 12.48628525 0.00284533 0.00060580 0.00385485
C 24.60764524 15.13375172 16.08779147 -0.00501968 0.00034010 -0.00465820
C 27.55028421 12.11828028 17.30060539 0.00941236 0.00488471 -0.00098045
C 24.73629353 15.56909635 20.83622826 -0.00575914 -0.00390127 -0.00460139
C 27.45174643 12.10623276 22.10122513 -0.00360010 0.00125149 0.00275101
C 25.26313892 20.75590419 1.89095932 0.00066820 -0.00276820 -0.00277383
C 28.09152805 17.98744117 3.17924387 0.00345166 -0.00269337 0.01620801
C 24.99771791 20.95160591 6.43065580 0.00537142 0.00285929 0.00239351
C 27.99135392 17.98458623 7.81847308 0.00521005 -0.00950277 -0.00813080
C 25.00855323 20.87267637 11.07285374 -0.00295133 0.00578969 0.00341887
C 28.08854874 17.82568820 12.51279611 -0.00120467 -0.00101583 0.00364424
C 25.02579203 21.03888878 15.78895700 -0.00028205 -0.00248587 -0.00170566
C 28.14694885 17.62463788 17.29154446 -0.00153391 -0.00053458 -0.00222730
C 25.25315918 20.90617768 20.57516774 -0.00830826 0.00269601 0.00282956
C 28.11237383 17.72873592 22.13562635 0.00255354 -0.00481404 -0.00630408
C 25.63572464 26.35319527 1.61564512 0.00143848 0.00165450 0.00520916
C 28.78642906 23.37941051 2.97963858 0.00126691 -0.00978929 0.00055273
C 25.58861365 26.35368774 6.41690711 0.00092238 -0.00466294 0.00366048
C 28.49346161 23.62421897 7.64885291 0.00349390 0.00437026 -0.00446195
C 25.39882561 26.47002585 11.19001690 0.00567389 0.00004715 -0.00112025
C 28.54363982 23.34411727 12.43819207 -0.00164965 -0.00618913 -0.00296148
C 25.63272569 26.72730249 15.84192797 -0.00140701 -0.00050406 -0.00334816
C 28.80448746 23.23870246 17.29792758 -0.00106034 0.00464144 -0.00332216
C 25.62091180 26.50286085 20.54893613 -0.00258293 0.00115794 -0.00221928
C 28.50602758 23.53701700 21.90384062 0.00229169 -0.00447193 -0.00362339
N 0.04534077 4.48546369 1.28398783 -0.00121573 0.00218446 0.00191675
N 3.36982530 5.02318860 3.87562659 0.00357994 0.00180650 -0.00396226
N 5.20802449 2.34560899 1.13667664 0.00379474 0.00079695 0.00242974
N 1.70042999 1.02457881 3.97071059 -0.00415666 0.00472790 0.00387628
N 0.19419076 4.43076058 5.72830322 0.00579441 -0.00315261 0.00053940
N 3.82821639 5.40648091 8.63418235 -0.00242282 0.00151628 0.00500130
N 5.22079049 2.68164775 6.05032448 -0.00777103 -0.00234760 0.00466686
N 1.42141878 1.12965024 8.49777857 -0.00074142 0.00135598 -0.00037694
N 0.35183512 4.47766629 10.39181230 0.00393840 -0.00549707 0.00468393
N 3.45447845 4.93459158 13.40483687 0.00379917 -0.00192034 -0.00160387
N 5.42569237 2.36986512 10.57565182 0.00083750 0.00060333 0.00791614
N 2.01389075 1.48196260 13.44093932 -0.00706446 -0.00323589 -0.00058901
N 0.10454219 4.55572619 15.21638515 0.00020852 -0.00137741 0.00368157
N 3.18325994 5.03698359 18.01553382 -0.00405750 -0.00014930 -0.00221950
N 5.21622898 2.11968529 15.35053710 0.00390429 0.00594676 0.00152656
N 1.72219210 1.18442400 18.03298147 0.00056885 -0.00224214 -0.00147696
N 0.20619226 4.66764828 20.17293112 0.00126977 0.00579191 0.00202033
N 3.44783474 5.30284815 22.64912845 -0.00198072 0.00382561 -0.00213914
N 5.16939899 2.14097718 19.88052888 0.00310752 0.00207434 -0.00088523
N 1.70495339 1.50182646 22.68112706 -0.00007333 0.00206632 -0.00104288
N 0.50718018 10.08462954 0.89257597 0.00289796 0.00103974 0.00033154
N 3.66611430 10.89406852 3.87022512 -0.00330891 -0.00053303 -0.00283371
N 5.09387961 7.73640345 0.97487276 0.00041754 -0.00296492 0.00821203
N 2.09454172 6.90728904 3.68830189 -0.00358217 -0.00510111 -0.00472371
N 0.72435042 10.02741064 5.66909734 0.00250061 -0.00114944 0.00444632
N 4.11432070 11.04453925 8.45722220 -0.00286381 -0.00478676 -0.00300132
N 5.53786703 7.94999186 5.75660766 -0.00692010 0.00615606 0.00455604
N 2.26237024 7.22128302 8.45344793 -0.00919575 0.00492515 0.00322693
N 0.90669872 9.89014252 10.39658720 -0.00145964 0.00509959 0.00127584
N 4.13113815 10.81603786 13.19083699 0.00621173 0.00554842 0.00334032
N 6.00778044 7.80973056 10.40184024 0.00070938 -0.00375617 0.00470524
N 2.30066911 6.92606649 13.22656512 0.00390004 -0.00408327 -0.00200297
N 0.56221122 10.14435684 15.19784887 -0.00003090 0.00121818 0.00063373
N 3.90280780 10.69966647 17.80113783 0.00161043 -0.00677435 0.00269237
N 5.75317820 7.74288585 15.35225273 -0.00085987 -0.00077437 -0.00160153
N 1.98747993 7.10758449 17.93391854 0.00245401 0.00268456 0.00199561
N 0.64182179 10.20575804 19.76872415 -0.00336357 0.00189057 -0.00226843
N 4.07175368 11.17696659 22.38136615 0.00371343 -0.00631752 0.00411590
N 5.68162428 7.62974801 20.06569069 0.00538551 -0.00265743 -0.00310762
N 2.02503749 7.11413477 22.94614587 0.00846438 0.00616498 -0.00086494
N 0.68682124 15.82901156 1.01292670 -0.00506987 -0.00440710 0.00405652
N 4.69403552 17.01402485 3.95268653 0.00386216 0.00112240 0.00635001
N 5.81145024 13.65705746 1.10508147 0.00011250 0.00154797 0.00331080
N 2.63560648 12.88174436 3.58073484 0.00483210 -0.00147265 -0.00314417
N 0.88382038 15.75152790 5.47516226 -0.00646580 -0.00011266 -0.00066899
N 4.76630736 17.07377548 8.38419156 -0.00125944 -0.00013268 -0.00338510
N 5.71111644 14.03704534 5.78432420 0.00139592 0.00302964 -0.00288049
N 3.03510422 13.07196523 8.38827445 -0.00064445 0.00290623 -0.00314669
N 0.90641544 15.99196331 10.50125470 0.00439065 0.00181722 0.00512804
N 4.46234439 16.76189448 13.17572136 -0.00516622 -0.00320744 -0.00479283
N 6.11614403 13.65952875 10.39977359 -0.00093374 0.00289300 -0.00471293
N 3.00386047 12.81630893 13.12820459 0.00302933 0.00117371 -0.00267692
N 1.02331158 15.66806299 14.88548088 0.00049789 0.00320995 -0.00130313
N 4.38499280 16.55424605 17.84595743 -0.00741637 0.00763999 0.00649983
N 5.97403019 13.72187080 15.03208931 0.00260412 -0.00295662 0.00149246
N 3.03283039 12.84242313 17.82030252 -0.00483492 0.00369796 -0.00838578
N 0.83927358 15.44001665 19.80954275 -0.00222202 0.00020951 0.00880872
N 4.37484651 16.54130885 22.99716260 0.00319753 -0.00112060 -0.00234270
N 6.07817260 13.64052638 20.07736196 -0.00408838 -0.00322209 -0.00050728
N 2.59584057 12.96290362 22.80842575 0.00259731 -0.00201123 -0.00369289
N 1.24856147 21.25004791 1.12080399 0.00269513 0.00023897 -0.00409290
N 4.29804833 23.50456128 3.90736245 -0.00025485 0.00156678 0.00065763
N 5.68257391 20.09151381 0.85428275 0.00457431 0.00567005 -0.00224356
N 2.70193016 18.21330366 3.86216541 -0.00430703 -0.00156173 -0.00057740
N 1.50836697 21.05802828 5.91721714 0.01059140 -0.00044250 0.00146605
N 4.10001917 23.29296825 8.72250374 0.00298231 0.00607183 -0.00351686
N 5.56473173 20.18102573 5.72105075 0.00329958 -0.00290262 -0.00241118
N 2.89266803 18.37934735 8.53336719 -0.00072043 -0.00008085 0.00378483
N 1.28353253 21.32267351 10.90155789 -0.00001156 0.00267640 0.00007775
N 4.20551209 23.46579876 13.33808387 -0.00146373 0.00518552 -0.00246405
N 5.45606769 20.39889120 10.72082780 -0.00169221 0.00251312 0.00076483
N 3.10199096 18.64787402 13.19085071 0.00662623 0.00760472 0.00279040
N 1.12312127 21.34478741 15.09917311 0.00215619 0.00008143 -0.00067214
N 4.11368657 23.60106713 18.11217429 0.00670996 0.00409237 0.00502218
N 5.06761859 20.15854353 15.52211979 -0.00495282 -0.00114864 0.00246446
N 2.76614169 18.17798485 17.89204902 -0.00154177 -0.00017515 0.00645337
N 1.34704125 21.16244931 19.82150186 -0.00286041 0.00143956 0.00189363
N 4.03379295 23.42731474 22.84994095 -0.00067703 0.00199215 -0.00043497
N 5.48841660 20.13465383 19.99798387 0.00031665 -0.00060113 -0.00085997
N 2.83402705 18.22927673 22.88418357 0.00088169 -0.00252156 0.00473392
N 0.97354239 27.62553658 0.97206249 0.00887893 0.00033850 -0.01199385
N 3.56174759 29.69725113 3.89388087 0.00059791 -0.00232196 0.00336692
N 4.80877772 26.84355177 1.03619771 0.00367312 0.00176676 0.00396993
N 2.26054112 24.69873237 3.95609044 0.00380334 0.00040730 0.00475091
N 1.08960592 27.76728505 5.70074694 0.00156657 -0.00080711 -0.00739274
N 3.12640546 29.86332067 8.75871687 -0.00238525 0.00155732 -0.00369786
N 4.84455492 26.84324284 5.89220029 0.00374279 0.00085859 -0.00164957
N 1.98204476 24.35386038 8.49749928 0.00090885 0.00084176 -0.00095966
N 0.62058316 27.98624514 10.44666042 0.00417102 0.00021810 -0.00016020
N 3.08991827 29.49857488 13.32561385 -0.00065897 -0.00395767 0.00095217
N 4.86011081 26.54094205 10.37909064 -0.00425552 0.00460609 0.00669195
N 2.31764218 24.84966000 13.39067080 0.00593948 0.00334810 -0.00487256
N 0.58558212 27.81731330 15.28986873 0.00345089 -0.00361964 -0.00054594
N 3.31298517 29.60960811 17.91527231 -0.00538579 0.00271927 -0.00393387
N 4.77112159 26.79275350 15.31660000 0.00062450 0.00106716 0.00213616
N 2.09040286 24.58654754 18.23508697 0.00470146 0.00477859 -0.00203877
N 0.44617583 28.07030936 20.29284861 -0.00030764 -0.00118670 -0.00037710
N 3.45327959 0.00785206 22.85516265 0.00207558 -0.00065052 0.00204859
N 4.92529791 26.74970284 19.91016353 0.00048253 -0.00261050 -0.00050619
N 2.04894496 24.60208197 22.69973184 0.00643306 0.00282104 -0.00386229
N 6.68651246 4.03789268 1.18725128 -0.00427783 -0.00816786 0.00271839
N 10.26480564 4.94376391 3.54277041 -0.00470744 0.00132993 0.00034798
N 12.05239802 1.90561748 0.79928858 0.00300887 -0.00235387 -0.00040505
N 8.47327215 1.01816796 3.78632087 -0.00010330 0.00068328 0.00652599
N 6.92544102 4.26601625 5.94194044 -0.00519829 0.00612655 0.00482134
N 10.18137934 5.14593807 8.46073492 0.00007963 -0.00049889 0.00098319
N 11.88108572 1.71745544 5.40806865 -0.00745820 0.00190341 0.00697305
N 8.51469143 1.45979856 8.67552413 0.00548586 -0.00044655 -0.00243798
N 6.84523680 4.12331860 10.68975225 -0.00202527 -0.00645573 -0.00212507
N 9.93994016 4.87618334 13.21386264 0.00039810 -0.00370077 0.00011622
N 11.76025622 1.91158228 10.57279498 -0.00166289 -0.00169707 -0.00453492
N 8.63831300 1.27628045 13.24294559 0.00022124 0.00153771 0.00063608
N 6.76791994 3.79492381 15.23893730 0.00351903 0.00651038 -0.00403956
N 9.98811738 4.46714890 17.70059826 -0.00373053 -0.00397752 -0.00718667
N 11.84898444 1.77661541 15.18156131 0.00277985 0.00606701 0.00351685
N 8.70392154 0.92585518 18.04200791 -0.00113738 -0.00759639 -0.00141230
N 6.65630834 3.98532780 19.93076546 0.00914837 -0.00247264 0.00203865
N 10.37513488 4.92785479 22.37291416 0.00271937 0.00277477 -0.00056412
N 12.15253558 1.83202163 20.04641415 -0.00258166 0.00460926 0.00668048
N 8.59200767 1.03930864 22.77579619 -0.00397189 0.00102456 0.00441574
N 6.54313172 9.50895397 1.17077234 0.00509004 -0.00079691 0.00082832
N 10.86754312 10.52664096 3.61183151 0.00486960 0.00325935 -0.00118904
N 12.19604881 7.50465146 0.93476288 0.00724365 -0.00486256 -0.00071208
N 8.99176466 6.81835030 3.72056671 -0.00123889 0.00577294 0.00250310
N 6.77319467 9.91626247 5.66773520 -0.00135391 0.00078060 -0.00278443
N 11.00365240 10.86077970 8.46456461 -0.00330505 0.00234805 -0.00347376
N 12.36039083 7.44228148 5.80917550 -0.00734238 0.00145714 0.00291185
N 8.92934936 7.08230238 8.63879706 -0.00149058 -0.00241062 0.00355639
N 7.13680682 9.81333950 10.43357549 -0.00060875 -0.00229628 0.00446731
N 10.57966140 10.53248163 13.18078497 0.00084103 0.00403064 0.00071197
N 12.43548652 7.46478147 10.43924320 -0.00556275 0.00421336 0.00345671
N 8.85095302 6.88876286 13.23241547 -0.00085703 0.00005496 0.00685407
N 7.18596081 9.49998809 15.22813069 -0.00377165 0.00683107 -0.00316808
N 10.63694937 10.38610053 17.73181794 -0.00462386 0.00196172 0.00663147
N 12.40192796 7.51503717 14.86323440 -0.00068143 0.00142881 -0.00261695
N 8.89546869 6.53344423 17.73668980 -0.00263267 0.00411737 -0.00292886
N 7.13985323 9.48012028 19.95324391 0.00087851 -0.00362506 0.00435732
N 10.64156435 10.67303810 22.64632168 -0.00219289 -0.00524821 0.00223544
N 12.28876798 7.58528997 19.62271606 0.00327833 -0.00149209 0.00905276
N 9.09690405 6.99014910 22.75902154 0.00359087 -0.00207566 -0.00426683
N 7.58900133 15.18697220 1.27068975 -0.00329505 0.00128171 0.00973990
N 10.51333705 17.28822123 3.84804653 -0.00669109 0.00113525 -0.00574162
N 11.78703845 14.02462817 1.00722577 0.00331386 0.00368840 0.00115022
N 9.48955410 12.35616097 3.81849722 0.00106920 -0.00280756 -0.00307452
N 7.57110590 15.42362135 5.76328893 -0.00033458 0.00148295 0.00276657
N 10.20736465 17.51440640 8.88623848 0.00457712 0.00102899 0.00336355
N 11.86633161 14.42566255 5.68540213 -0.00124600 0.00013827 -0.00388665
N 9.28232116 12.33118421 8.55872107 0.00003257 -0.00267271 -0.00901857
N 7.91333489 15.16204469 10.29251732 0.00468877 0.00001646 0.00327763
N 10.17365840 17.38465467 13.28054355 0.00169317 0.00276812 0.00091013
N 11.63328640 14.28736884 10.39204843 -0.00112968 0.00759232 -0.00404462
N 9.19005051 12.40945042 13.13068509 0.00013423 0.00504719 0.00528284
N 7.57105808 15.35633967 15.31134965 0.00108175 -0.00273377 -0.00400942
N 10.30499215 17.52584600 17.93003794 -0.00393445 0.00099964 -0.00453574
N 11.71048093 14.23130014 15.12545994 -0.00449962 -0.00362952 0.00464411
N 9.03742469 12.15522951 17.97941968 0.00791395 -0.00412841 0.00322118
N 7.82314303 15.24246573 19.99057992 -0.00314070 0.00503899 -0.00475409
N 10.20622507 17.20606800 23.03153542 -0.00226334 -0.00143512 0.00314666
N 11.81008978 14.11460611 20.11611063 -0.00195655 0.00230046 0.00169974
N 8.90775354 12.24217596 22.84718706 -0.00360527 -0.00550934 -0.00017499
N 7.26335056 21.76760006 1.06188298 -0.00439881 0.00249465 -0.00169628
N 9.92975808 24.21052845 3.63146655 -0.00224549 -0.00025523 0.00023735
N 11.12957971 20.62099793 1.04685398 -0.00292759 -0.00381194 0.00055367
N 8.55049972 18.53370403 4.33062970 0.00122870 -0.00044817 -0.00473190
N 7.15657948 21.77352517 5.78850725 -0.00261278 0.00354269 -0.00366355