2000
Time=77000.00000008 pbc="T T T" Lattice="31.23265728 0.00000000 0.00000000 0.00000000 30.00076273 0.00000000 0.00000000 0.00000000 23.67895087" energy=-12040.62793756 virial="-52.04422096 -8.96137429 -17.16476860 -8.96137429 -62.89932760 -25.88938710 -17.16476860 -25.88938710 -75.72347460" stress="-0.00021965 -0.00042199 -0.00081085 -0.00042199 -0.00065100 -0.00116292 -0.00081085 -0.00116292 -0.00076551" Properties=species:S:1:pos:R:3:vel:R:3
C 30.33290456 3.54074462 1.65396738 -0.00201967 -0.00264932 -0.00411685
C 2.52936592 0.57679985 3.11015290 0.00382891 0.00474832 0.00105529
C 30.55471041 3.52162948 6.43048793 0.00402046 -0.00097246 -0.00614202
C 2.69876885 0.64572244 7.74896279 -0.00167086 -0.00007134 -0.00182915
C 30.77832853 3.86699274 11.03498026 0.00727428 0.00574082 0.00487381
C 2.45204381 0.70381946 12.34689307 -0.00042775 0.00173697 -0.00422796
C 30.32177450 3.72629910 15.95389238 -0.00502052 0.00058249 -0.00025990
C 2.79105618 0.72373915 17.14331232 -0.00344890 -0.00402071 -0.00737208
C 30.68963134 3.56558809 20.64825245 -0.00291474 0.00150540 0.00360317
C 2.65929859 0.50348877 22.00003427 -0.00426765 -0.00476316 -0.00076087
C 31.05300987 9.03751583 1.58207847 0.00056388 -0.00005027 -0.00419275
C 2.94836077 5.99314590 3.07542936 0.00459089 0.00191553 -0.00090921
C 31.04817089 9.38062178 6.56568582 -0.00376157 0.00218576 0.00443755
C 3.01119393 6.09130423 7.84845376 -0.00076825 0.00139649 -0.00083404
C 31.12993389 9.34512096 11.19519711 0.00606395 -0.00482416 -0.00024924
C 2.70016395 6.11954172 12.63260618 -0.00170135 -0.00390325 0.00168746
C 31.06891747 9.40755767 15.86641087 -0.00325701 -0.00110754 -0.00057874
C 3.04682659 6.11107018 17.32200309 0.00346310 0.00114252 -0.00540018
C 31.08382725 9.01259323 20.60458999 0.00016518 0.00568550 0.00346248
C 2.86682663 5.95305360 21.92951989 -0.00221205 0.00104245 -0.00471336
C 0.32885343 14.56667605 1.75302726 -0.00399634 0.00094091 0.00465663
C 3.50191142 11.57987548 3.08239377 -0.00468518 0.00173538 0.00037513
C 0.35537387 14.79885285 6.44612095 0.00369688 0.00332120 0.00171704
C 3.52352189 11.67782204 7.75030552 -0.00171278 -0.00331898 0.00494304
C 0.26515469 14.81718850 11.04014042 0.00334219 -0.00122987 0.01350848
C 3.37181638 11.79441899 12.40698018 0.00271669 -0.00012209 -0.00005000
C 0.10320638 14.80192283 15.54188389 0.00592997 0.00106008 -0.00220839
C 3.22744295 11.86192333 17.24670059 0.00154728 0.00217646 0.00209950
C 0.11920137 14.49772564 20.55382674 0.00530714 0.00559381 -0.01088893
C 3.15320003 11.70702450 22.03909648 -0.00443215 0.00074573 0.00051176
C 0.59965784 20.21399152 1.87036113 -0.00700681 -0.00105398 0.00368850
C 4.05101036 16.92909197 2.74827182 -0.00216786 -0.00399346 0.00756657
C 0.59095112 20.28265916 6.49817781 -0.00502448 -0.00082821 -0.00675362
C 3.87552449 17.45307464 7.57893284 0.00331727 -0.00446860 0.00483035
C 0.63439050 20.63288278 11.21737148 -0.00002467 -0.00361124 0.00151649
C 3.64956010 17.44339263 12.38176418 -0.00226795 -0.00089699 0.00021534
C 0.58913365 20.30726001 15.83648235 0.00192524 -0.00027462 -0.01223898
C 3.62687428 17.40555396 17.09626115 0.00510736 0.00045426 0.00353495
C 0.75298175 20.20061037 20.54594609 0.00003469 -0.00068464 -0.00730410
C 3.55147240 17.36015317 21.65682584 0.00302431 -0.00061960 -0.00710853
C 31.16857812 26.90715923 1.59369479 0.00240044 0.00016327 -0.00500762
C 3.36470846 24.01748232 3.24112994 0.01170080 -0.00640654 0.00003338
C 0.06637321 26.78418298 6.58223325 0.00423996 0.00104915 0.00005516
C 3.25748160 23.98374696 7.85325699 -0.00502881 -0.00064086 -0.00386651
C 0.07691744 27.29318145 11.23057779 -0.00449967 -0.00568004 -0.00325716
C 3.13842206 24.11228865 12.61775184 0.00117113 0.00833523 -0.00378270
C 0.28531953 27.05861480 15.76269329 -0.00553937 -0.00351167 0.00051656
C 3.11779809 24.01108767 17.28854230 0.00222135 -0.00107884 -0.00384783
C 0.25643617 26.96678282 20.51068978 0.00483786 0.00056509 0.00322916
C 3.19793122 23.88825908 21.78903248 -0.00747684 -0.00061848 0.00064854
C 5.90757871 3.20952918 1.84298912 0.00291747 -0.00008312 -0.00057274
C 9.00284222 0.17349128 2.90185907 -0.00835029 0.00393714 0.00429843
C 5.97241478 2.99930764 6.58229245 -0.00270825 0.00647559 0.00063025
C 9.00162462 0.22825579 7.81341491 -0.00415822 0.00207165 0.00758556
C 6.04193170 3.47551348 11.42970946 0.00263743 -0.00579980 0.00148149
C 8.90529348 0.57782543 12.49152821 -0.00405892 -0.00210668 0.00129851
C 5.85472616 3.11541848 15.97414598 -0.00211500 -0.00054865 0.00218756
C 9.04960874 0.25688665 17.36425324 0.00090122 0.00551827 0.00287891
C 6.06751148 3.30164860 20.60861478 0.00088949 -0.00000773 -0.00108290
C 8.94036870 0.01127084 22.10216961 0.00364042 -0.00229654 -0.00163070
C 6.17308738 8.75233063 1.64276682 -0.00621498 -0.00014044 -0.00222707
C 9.51043407 5.88318681 3.20851948 -0.00175071 0.00192241 -0.00201823
C 6.57320193 8.73655756 6.44134328 0.00486037 0.00351652 0.00109785
C 9.36445109 5.64849858 7.90917543 0.00554050 0.00061634 0.00008351
C 6.37915691 8.94618583 11.18213026 -0.00454373 0.00573329 -0.00050496
C 9.33938652 6.08970959 12.58494056 0.00716078 -0.00696072 0.00317913
C 6.17533491 8.91767145 15.98514474 0.00018749 -0.00102649 0.00397875
C 9.68844521 5.68809163 17.24288055 0.00394355 -0.00445723 -0.00568112
C 6.34522148 8.75283883 20.64557907 -0.00025437 -0.00238395 -0.00640602
C 9.62181122 5.73015530 22.06197275 -0.00199329 -0.00112940 0.00208102
C 6.91401779 14.25896282 1.58600794 -0.00185389 0.00148888 0.00350886
C 10.05621639 11.28620763 3.06391908 0.00067194 -0.00240140 0.00312903
C 7.00707272 14.22914104 6.32829918 -0.00025970 0.00153950 0.00182098
C 9.81658102 11.63704497 7.79290741 -0.00292125 0.00475128 0.00583820
C 6.90310407 14.38375894 11.20521751 0.00542332 0.00076097 0.00226311
C 9.94960413 11.48584503 12.63211862 -0.00035182 -0.00074188 0.00293186
C 6.90117016 14.41462059 15.78156066 -0.00133334 0.00439133 -0.00134158
C 9.74179543 11.29247642 17.36037065 0.01132449 -0.00125328 -0.00441608
C 6.91619126 14.30871156 20.62742274 0.00438408 0.00447739 0.00100778
C 10.00032783 11.30626784 21.94713317 -0.00093440 0.00173814 0.00388199
C 6.24556125 20.87332678 1.67461091 -0.00545922 -0.00101629 0.00272044
C 9.63387962 18.01896197 3.20881927 -0.00535106 -0.00319901 -0.00639921
C 6.37830102 20.70531443 6.21413208 -0.00332888 0.00383458 0.00230194
C 9.31713471 17.74396919 7.84675819 0.00867706 -0.00384039 0.00420725
C 5.98715144 21.15418304 10.93077210 0.00070789 -0.00234307 0.00180952
C 9.25238565 18.12708326 12.56672037 -0.00189341 -0.00255829 0.00621047
C 6.29449969 21.02525205 15.62248756 0.00575389 -0.00385949 -0.00077735
C 9.34956273 17.91089641 17.21095095 0.00999350 0.00222591 -0.00034615
C 6.21407511 20.80261336 20.49763685 0.00163727 -0.00209250 0.00399090
C 9.53383244 17.73809296 22.18835461 -0.00398001 -0.00504319 0.00003241
C 5.57439755 27.59352073 1.71733063 0.00266342 -0.00127710 0.00398365
C 8.77982686 24.34960738 3.10077588 0.00157911 0.00939965 -0.00133996
C 5.89199995 27.86400775 6.48824905 -0.00165577 0.00216538 0.00759913
C 8.68962838 24.80436718 7.87071239 -0.00544557 0.00643925 -0.00633156
C 5.45686590 27.90238999 11.00844980 0.00261059 -0.00104281 0.00246132
C 8.75752898 24.71664926 12.39671093 -0.00140970 0.00650177 0.00467137
C 5.60372324 27.84054273 15.69441765 -0.00692542 -0.00035043 -0.00536021
C 8.66881305 24.45833465 17.26482376 0.00053358 -0.00041465 -0.00210128
C 5.45221070 27.48671811 20.59583187 -0.00763053 -0.00189267 0.01157882
C 8.83768799 24.83480250 22.11991581 0.00157467 -0.00799860 0.00536071
C 12.59817065 2.67373613 1.75407427 0.00029881 0.00304943 0.00187045
C 15.95696473 29.82758758 3.22708667 -0.00314401 -0.00778802 0.00339338
C 12.61707517 2.75357387 6.51056038 -0.00455542 0.00148332 -0.00664670
C 15.75103203 29.66654779 7.84909808 -0.00271525 -0.00317709 -0.00655361
C 12.56447406 2.93169715 11.15313223 0.00193537 0.00088991 -0.00294374
C 15.56858268 29.59092454 12.47970084 0.00055287 -0.00279271 -0.00386903
C 12.62175271 2.79175659 15.86297174 0.00349985 -0.00046801 -0.00484187
C 15.72392281 29.67990202 17.39034196 0.00262266 0.00089889 -0.00095211
C 12.63763131 2.72141388 20.72621620 0.00451303 0.00302869 -0.00056889
C 15.89619694 29.93954470 22.08200873 0.00169898 0.00619493 -0.00065589
C 13.33954822 8.42798603 1.70506892 0.00017043 -0.00075023 -0.00706935
C 16.30676557 5.44868366 3.14506730 -0.00159053 0.00592317 -0.00265601
C 13.02671839 8.46192300 6.29551922 -0.00526829 0.00156287 -0.00293852
C 16.19294852 5.26891440 7.83968522 0.00514079 -0.00531544 -0.00240064
C 13.12682159 8.65007774 11.04558133 0.00165450 -0.00052192 -0.00876255
C 16.38721300 5.41335500 12.41236199 -0.00240023 -0.01482274 0.00606533
C 13.26481642 8.29970390 15.90589576 -0.00354600 0.00220732 -0.00640478
C 16.12271536 5.27106555 17.20627040 -0.00753462 -0.00127091 -0.00332128
C 13.07833918 8.35752886 20.63860913 -0.00093384 -0.00483931 -0.00900387
C 16.40395398 5.45738404 22.17176357 0.00060777 -0.00485884 -0.00246284
C 12.74084752 14.83167359 1.89709452 0.00141199 -0.00152850 0.00131297
C 15.73074695 11.80528776 3.07132507 -0.00772015 0.00846553 0.00782003
C 12.55072695 15.03312641 6.64933526 -0.00420208 -0.00232826 -0.00397340
C 15.88051221 12.41716436 7.78846674 0.00558565 0.00879597 -0.00079578
C 12.68724229 15.24012168 11.42184207 -0.00305243 0.00236805 0.00498670
C 15.92572378 12.13328940 12.51205765 0.00184373 0.00175080 0.00524228
C 12.48041405 14.84383943 15.99512132 -0.00564271 -0.00385533 0.00108574
C 15.53679942 12.03698533 17.25779479 -0.00056548 -0.01462624 -0.00145643
C 12.48558384 14.94547149 20.87349836 -0.00214696 -0.00194200 -0.00309944
C 15.55309543 11.90193138 21.95618039 0.00366179 0.00114848 0.00301240
C 12.07308468 21.66473193 1.55181530 0.00732618 -0.00289005 -0.00097559
C 15.11444869 18.72672558 2.80752844 0.00578515 0.00806369 -0.00724427
C 11.80713578 21.81305167 6.47926940 0.00369562 -0.00108504 -0.00483972
C 14.97826304 18.46618220 7.59676906 -0.00496433 0.00039180 -0.00560928
C 11.90341994 21.49110177 11.22763609 0.00238150 0.00285500 0.00113436
C 15.28329999 18.52486584 12.39773305 0.00392627 -0.00181684 0.00831807
C 11.98196725 21.33095916 16.03987799 0.00350255 0.00139400 -0.00328500
C 14.99872234 18.44217129 17.24126536 0.00283301 -0.00391039 0.00472718
C 11.63519159 21.79628393 20.71934823 0.00397759 -0.00394245 -0.00611570
C 15.09709330 18.50861825 21.96490501 0.00787722 0.00026353 -0.00026057
C 12.56445437 27.32388118 1.94968490 -0.00041579 -0.00144392 -0.00239923
C 15.47590525 24.46365559 2.92068838 0.00174826 0.00469195 0.00139497
C 12.06546445 27.37272665 6.50016544 0.00013779 -0.00638940 -0.00435789
C 15.19657249 23.91606187 7.71143812 -0.00516383 0.00088149 -0.00830680
C 12.17756889 27.11662040 11.35179126 0.00029604 -0.00345055 -0.00276640
C 15.10794009 24.12935133 12.53843978 0.00041634 0.00036246 0.00008298
C 12.12333427 27.52478135 16.03314026 0.00001131 0.00406225 -0.00077948
C 15.40152972 24.27081604 17.26531513 -0.00514706 0.00329667 0.00746988
C 12.31075495 27.46051417 20.69413935 -0.00169250 0.00021317 -0.00170496
C 15.38034852 24.31036707 21.84401272 -0.00233881 0.00214905 0.00731022
C 19.44074903 2.20466303 1.80136335 0.00180194 -0.00033630 0.00013319
C 22.57602197 29.47434020 2.97045663 0.00416197 -0.00105611 0.00183175
C 19.47206816 2.73098175 6.51061620 0.00217129 0.00357721 -0.00844903
C 22.63270708 29.38842685 7.78023082 -0.00023346 0.00295914 0.00049014
C 19.35916705 2.23356032 11.00413299 -0.00246364 -0.00087909 0.00129588
C 22.36858675 29.56651845 12.53445030 -0.00448235 -0.00347158 -0.00114677
C 19.26569192 2.38193448 15.84332727 -0.00232767 0.00344039 -0.00251071
C 22.32166317 29.51897380 17.12485518 -0.00115148 0.00249669 -0.00421465
C 19.34016129 2.33164358 20.42782995 0.00537439 0.00550923 0.00549802
C 22.63860933 29.35385466 21.83408229 -0.00222406 0.00341986 -0.00040538
C 18.89238995 8.74452361 1.74362578 -0.00312099 0.00293368 0.00081090
C 21.68500588 5.66266457 3.01860194 -0.00038577 0.00463175 0.00353866
C 18.78976145 9.16484629 6.51809820 -0.01060561 -0.00900035 -0.00455556
C 22.23926218 6.09193006 7.91134182 -0.00639641 -0.00496477 -0.00446842
C 18.71162302 8.85143966 11.32123189 -0.00158777 0.00247625 0.00246466
C 21.89162118 5.81210961 12.58350788 0.00190070 0.00041618 0.00154354
C 18.67429199 8.90854681 15.91008963 0.00498316 0.00315905 -0.00555594
C 21.97602724 6.23307375 17.17608288 -0.00288993 0.00260568 0.00365206
C 18.45493755 8.86401064 20.65777822 0.00208530 0.00015726 0.00022267
C 21.89881925 6.00814640 21.97637471 0.00323558 -0.00058680 -0.00156946
C 18.19880248 15.69809038 1.58377395 0.00507880 -0.00132888 -0.00250615
C 21.29492153 12.93580451 3.05092735 -0.00232915 0.00453621 0.00627487
C 17.94934148 15.79861025 6.38132086 -0.00265916 -0.00167811 -0.00123327
C 21.20803823 12.63190588 7.77315246 -0.00302383 0.00323838 0.00017226
C 18.21267397 15.98773755 11.21149745 0.00590447 0.00404866 -0.00267218
C 21.23860309 12.78945698 12.42880090 0.00617231 -0.00292679 0.00395224
C 17.93141532 15.46165949 15.94249413 -0.00513020 0.00223427 0.00600887
C 21.02099134 12.44175559 17.11095456 -0.00242713 0.00014603 0.00276008
C 18.38653973 15.47817769 20.73549305 -0.00584152 -0.00007701 0.00543732
C 21.15561511 12.60221653 22.01340650 0.00282331 0.00208660 0.00375382
C 18.77394714 21.30199447 1.61045851 0.00456127 0.00641480 0.01111461
C 21.84782730 18.57048036 2.91241033 -0.00187066 -0.00073929 0.00504734
C 18.34808807 21.22588317 6.30671645 -0.00449247 -0.00155288 0.00205973
C 21.66341548 18.15155237 7.73888020 0.00815204 0.00490674 -0.00717928
C 18.39401248 21.05494537 11.14957942 0.00099633 -0.00105504 -0.00115414
C 21.56213479 18.13748915 12.52592510 -0.00661768 -0.00043752 -0.00080127
C 18.52613964 21.09044034 15.84095701 -0.00326505 0.00333326 -0.00489049
C 21.78377678 18.24792345 17.17056208 0.00531359 0.00261274 -0.00019329
C 18.55409526 20.95802578 20.62176236 0.00372973 0.00353227 0.00158606
C 21.70115536 18.24493226 21.66312599 0.00418064 0.00196582 -0.00383974
C 19.32899080 27.00605669 1.72602531 -0.00260751 -0.00430155 0.00044995
C 22.04208227 23.86321013 3.01443435 0.00108607 0.00002898 -0.00382375
C 19.17354495 26.97458283 6.43515545 0.00380218 -0.00083404 -0.00791276
C 22.10338970 23.88134515 7.72392886 0.00538784 -0.00807956 0.00022093
C 18.80726498 26.64656327 11.33184965 0.00077400 0.00033037 0.00055856
C 21.96097411 23.82087838 12.56028626 -0.00827128 -0.00107200 -0.00828682
C 18.92426263 26.92655860 16.03158554 -0.01014084 0.00281844 -0.00281811
C 21.68600122 23.96955507 17.31101830 0.00426092 -0.00023101 -0.00495293
C 19.00284221 27.05142884 20.68415325 0.00522898 0.00038703 -0.00260967
C 22.35568072 24.01875853 22.06521631 -0.00141165 -0.00293144 0.00142719
C 24.92628156 2.97001146 2.01016423 -0.00665966 -0.00230555 0.00317715
C 28.05514870 29.34273214 2.94418466 0.00488454 0.00157227 0.00035391
C 25.05504288 2.93043472 6.54906219 0.00729286 0.00278445 -0.00135581
C 27.96605440 0.08956873 7.64579021 -0.00775005 -0.00142157 0.00223929
C 25.09992165 2.83175968 11.25964489 -0.00302358 -0.00187576 0.00695516
C 27.88321804 0.17030033 12.57233001 0.00105960 0.00115997 0.00023418
C 24.89431867 3.23031101 15.94999996 -0.00394508 0.00255501 -0.00220599
C 28.07902034 29.98179249 17.32851199 -0.00527732 0.00043316 -0.00161165
C 24.80900092 3.18222104 20.70519279 -0.00492400 0.00519556 -0.00435342
C 28.09696660 0.02603369 21.75986562 -0.00244968 0.00115996 0.00407289
C 24.33451920 9.70773693 1.68668758 0.00022556 -0.00327390 -0.00036628
C 27.45340278 6.55578552 2.83039142 0.00102446 -0.00695611 0.00038605
C 24.45335970 9.34915268 6.33600705 -0.00196634 -0.00222106 0.00578832
C 27.64182034 6.55782657 7.80240762 0.00121798 0.00104409 -0.00332811
C 24.31297977 9.64443537 11.04501645 -0.00104243 -0.00391671 -0.00596528
C 27.59952298 6.70978336 12.38724032 0.00034403 0.00294705 -0.00072652
C 24.50946984 9.63725716 15.70858241 -0.00571860 0.00030288 0.00075671
C 27.50017254 6.95913561 17.36749128 0.00213304 0.00767128 0.00380063
C 24.25058266 9.60423694 20.67815733 0.00287426 -0.00276601 -0.00055368
C 27.26332435 6.59992084 21.97800949 0.00462889 0.00544275 0.00058512
C 24.72509607 15.49786410 1.77721012 -0.00409807 -0.00124853 0.00004499
C 28.06294530 12.26138661 3.11679435 0.00189967 0.00393187 0.00046518
C 24.81773173 15.35224263 6.28005809 0.00027666 -0.00114771 0.00577778
C 27.74407936 12.00731713 7.90207725 0.00715833 -0.00435541 -0.00376910
C 24.90645970 14.98699256 11.13395120 -0.00218402 0.00056429 -0.00164590
C 27.96644188 12.37728019 12.51548398 0.00577851 0.00424892 0.00477385
C 24.48807817 14.95068285 15.88813301 -0.00341200 0.00307656 0.00557729
C 28.02075714 12.09550482 17.19962033 0.00925573 -0.00357236 -0.00308131
C 24.81978006 15.22537586 20.69670122 0.00527242 -0.00296932 0.00441566
C 27.79685163 12.21568623 22.02477433 -0.00768728 0.00311007 0.00675695
C 25.19023807 20.73039040 1.74192935 -0.00511344 -0.00173687 -0.00000745
C 28.49906881 17.81524403 3.06708285 0.00056816 -0.00109025 0.00322899
C 25.30779570 20.77528312 6.67047338 -0.00360376 -0.00154497 0.00153705
C 28.33649782 17.91036353 7.87699340 -0.00083579 0.00077779 0.00830847
C 25.02170636 20.78484114 11.23084353 0.00009356 0.00177259 0.00297494
C 28.46844802 18.06363828 12.51457910 0.00375080 0.00074588 -0.00134924
C 25.44875396 20.49857640 15.73613753 0.00978547 -0.00310718 0.00353048
C 28.08278551 17.61967581 17.08717292 -0.00462262 -0.00460740 0.00233593
C 24.99939781 20.73643775 20.57222540 0.00732999 0.00419745 -0.00395886
C 28.44937582 17.64286706 21.91126412 0.00364134 0.00708567 0.01290208
C 25.75657275 26.36316792 1.36864517 0.00085854 -0.00355390 0.00886872
C 28.82443716 23.47990870 3.11089249 -0.00127247 0.00251877 0.00109181
C 25.66918277 26.27344470 6.53504633 -0.00194254 -0.00428626 -0.00007271
C 28.75541953 23.48006193 8.08136758 -0.00121651 0.00436754 -0.00344239
C 25.47416178 26.49139528 11.29515604 0.00413707 -0.00245010 0.00810338
C 28.58110010 23.50242680 12.57059942 -0.00584941 -0.00356826 0.00543041
C 25.61676489 26.18730998 15.80518615 -0.00083596 0.00435271 -0.00195106
C 28.89422483 23.67423681 17.19067518 0.00510226 0.00292077 -0.00889416
C 25.65797044 26.58136976 20.46429040 0.00014116 0.00222598 0.00099185
C 28.79855788 23.47503024 21.96644184 -0.00218893 0.00306153 -0.00546391
N 0.01447588 4.30690568 0.97518747 -0.00150908 0.00540211 -0.00037514
N 3.63389053 5.12013242 3.86565731 -0.00152698 -0.00190635 -0.00123054
N 5.00095506 2.40080360 1.13915894 -0.00124270 -0.00047760 -0.00409493
N 1.52749384 1.14747639 3.79502887 -0.00065800 0.00738783 -0.00545994
N 0.06573208 4.48891329 5.81707787 -0.00565952 -0.00198163 0.00707016
N 3.56798770 5.17600562 8.67641320 0.00089211 -0.00060796 -0.00125404
N 5.20696889 2.04975270 6.02718675 -0.00658745 0.00152328 -0.00451645
N 2.03030903 1.59326568 8.48054090 0.00101704 -0.00172455 -0.00262327
N 0.12928770 4.74888448 10.17073215 0.00632964 0.00079386 0.00041054
N 3.46297233 5.31116587 13.29384679 0.00310740 -0.00302243 -0.00084179
N 5.18321306 2.77434977 10.60894401 -0.00166241 0.00182302 -0.00299615
N 1.64322008 1.38046121 13.18064086 -0.00305065 -0.00364962 0.00083813
N 31.12087572 4.58105223 15.22452763 0.00794987 -0.00340700 -0.01458582
N 3.28989596 4.90635570 17.89570999 -0.00332772 -0.00250500 -0.00393724
N 5.19497888 2.22265498 15.15635725 -0.00443743 -0.00298182 0.00219532
N 1.95194558 1.61985288 17.67137202 0.00198210 -0.00287675 -0.00256078
N 0.18680166 4.34348736 19.85222084 0.00264207 0.00824192 -0.00138712
N 3.43907076 5.09125661 22.77767597 -0.00080977 -0.00074442 0.00176867
N 5.28721236 2.39032163 19.92122938 -0.00038552 0.00274760 0.00146009
N 1.59956997 0.84612529 22.70797399 0.00329274 0.00530653 0.00476047
N 0.47961697 10.07028290 0.97237340 -0.00139126 -0.00395768 -0.00067913
N 3.96003952 10.61461118 3.93365136 -0.00215407 0.00234987 -0.00257013
N 5.29963887 7.92089818 0.95938146 -0.00339452 0.00157132 0.00399810
N 2.29537255 6.97387619 3.75174066 -0.00347333 -0.00699115 0.00035001
N 0.65861528 10.08967082 5.78904533 -0.00012208 -0.00527601 -0.00597818
N 4.03416474 10.71891741 8.56717798 0.00227340 0.00003552 0.00319449
N 5.90858599 7.80515540 5.69484752 -0.00446720 0.00001322 0.00717466
N 2.57678770 7.24174945 8.36936257 0.00004327 0.00179342 0.00162037
N 0.70430171 10.11220866 10.35330499 0.00007373 -0.00211038 0.00163258
N 3.89377904 10.74576251 13.18074974 0.00676198 -0.00387275 -0.00189161
N 5.41151878 8.11959507 10.55699585 -0.00604753 0.00717333 -0.00138002
N 1.94847827 7.03389712 13.44571573 -0.00615426 -0.00239798 0.00433420
N 0.68391065 10.27157890 15.15438326 0.00116695 0.00628804 0.00368027
N 3.66518329 10.87588133 18.07399572 -0.00127714 -0.00857582 0.00267617
N 5.38137479 8.12539379 15.24293976 -0.00725134 -0.00305805 -0.00106071
N 2.47535014 7.14385663 18.06036255 -0.00450532 -0.00526387 -0.00191946
N 0.65722520 9.89963327 20.04687839 0.00451459 -0.00575298 -0.00422937
N 4.09566464 10.85566915 22.64671271 -0.00186869 0.00072628 0.00212675
N 5.59910768 7.87462157 19.93111302 0.00296863 -0.00071550 0.00358572
N 2.11306870 6.94785932 22.46776861 0.00384082 0.00205369 -0.00201972
N 1.05602606 15.46219731 1.02256469 -0.00154161 -0.00060015 -0.00234675
N 4.95820766 16.24081797 3.45556919 -0.00281273 0.00643732 -0.00270311
N 5.98147092 13.50421312 0.99760494 -0.00012116 -0.01032124 -0.00156634
N 2.92365286 12.62874581 3.70956107 0.00234787 -0.00044408 0.00309409
N 1.21631552 15.40282802 5.61208789 0.00228854 -0.00521288 -0.00725883
N 4.57456877 16.50764886 8.36174355 -0.00018320 0.00479596 0.00362908
N 6.17447167 13.35038531 5.73498296 0.00342643 -0.00323857 0.00594956
N 2.98628846 12.74605785 8.38391305 0.00328721 0.00030889 0.00300423
N 0.92605417 15.59985577 10.21999947 -0.00053273 -0.00707484 -0.00085483
N 4.66589666 16.88423669 13.09843130 0.00158150 0.00403521 -0.00214164
N 6.07284697 13.56313272 10.50340572 0.00366707 0.00027886 0.00790055
N 2.75801372 12.74871920 13.12604712 -0.00147333 0.00881549 -0.00009008
N 0.89658522 15.81859995 15.01706507 -0.00213266 -0.00153969 0.00197229
N 4.41654669 16.57232971 17.86971583 -0.00403053 -0.00113746 -0.00263113
N 5.97843325 13.68234399 15.09532541 -0.00324770 -0.00532700 -0.00473435
N 2.68378134 12.91418440 17.90206943 -0.00111240 0.00385138 0.00129378
N 0.82395016 15.42455345 19.81208821 -0.00150472 -0.00326101 0.00617084
N 4.12912420 16.37429011 22.38014099 0.00394118 0.00211300 0.00003372
N 5.91791405 13.68655852 19.92890928 -0.00473952 0.00021772 -0.00162507
N 2.55330907 12.64843017 22.81765983 0.00182168 -0.00401975 -0.00094967
N 1.17193346 21.18562030 1.11939571 -0.00090954 0.00325608 -0.00262409
N 4.25918419 23.44644440 4.02881085 -0.00442881 -0.00067817 0.00199286
N 5.36948800 20.00488453 1.02434821 0.00601819 -0.00276976 0.00477877
N 3.05537952 17.56514025 3.48563056 -0.00937550 0.00346175 -0.00248723
N 1.45056806 21.01513881 5.77132285 0.00251400 -0.00098314 0.00245618
N 4.36820978 23.41625781 8.41526313 -0.00377873 -0.00330417 -0.00490248
N 5.51594071 19.96237285 5.48768633 0.00682389 -0.00271406 0.00595180
N 2.97149916 18.17651843 8.19192321 -0.00787943 -0.00618726 0.00420025
N 1.48223218 21.29806699 10.37194863 0.00599879 -0.00391847 -0.00660592
N 4.16155108 23.71703937 13.38650495 0.00112616 -0.00086791 0.00512697
N 5.44675466 20.18310123 10.14430356 -0.00038562 -0.00126534 -0.00787719
N 2.82287991 18.22673554 13.16359479 -0.00138918 0.00190888 0.00445775
N 1.47164473 21.11248821 15.25192496 0.00219542 0.00122317 0.00345685
N 4.02743408 23.17646081 17.96295431 0.00347426 0.00654545 -0.00335397
N 5.37758421 20.24260627 14.91992185 -0.00015987 -0.00209366 0.00394960
N 2.79128509 18.20712922 17.77927826 0.00111727 0.00306733 0.00264727
N 1.52960864 20.95375565 19.78644098 -0.00470646 0.00007660 0.00498336
N 4.28322134 23.48926707 22.43103623 0.00351380 -0.00162224 -0.00533391
N 5.37543302 20.13877423 19.68309818 0.00196717 -0.00405529 -0.00238064
N 2.83639756 18.29585232 22.38777669 -0.00586461 -0.00839144 0.00505917
N 0.83879900 27.61224414 0.82391828 0.00005887 -0.00332252 0.00097808
N 3.61391666 29.96549044 3.79825194 0.00287993 -0.00390736 -0.00528380
N 4.78656847 26.75412734 0.97814850 -0.00162920 0.00024180 -0.00491699
N 2.21193557 24.57944807 3.82634444 -0.00229466 -0.00523603 0.00210220
N 0.88336957 27.70830255 5.85394770 -0.00213257 0.00444281 0.00460174
N 3.52143626 29.80830630 8.46071858 -0.00134870 0.00276507 0.00057707
N 4.86075806 27.01964774 6.08058051 0.00255554 -0.00168785 -0.00132642
N 2.26040860 24.34151330 8.70955139 0.00103207 -0.00008893 -0.00342229
N 0.68145138 28.09431631 10.34387220 -0.00124586 -0.00080631 0.00572077
N 3.39257791 29.92071150 12.95716378 -0.00001621 0.00255518 0.00433759
N 4.59023737 27.21290483 10.18595550 -0.00490183 -0.00328056 0.00715466
N 2.08221384 24.64032386 13.21295266 -0.00877202 0.00532509 0.00180174
N 1.03541922 27.98144169 15.00896830 0.00029184 -0.00002769 0.00090345
N 3.68844597 0.21313019 18.02083516 0.00085981 0.00065448 0.00109313
N 4.88214497 26.93459672 14.97673627 0.00377160 -0.00430024 -0.00303317
N 2.03245921 24.45843246 17.95661480 -0.00634092 0.00460697 0.00103102
N 0.96044247 27.82566010 19.74902936 0.00167002 0.00569598 0.00165485
N 3.56374148 29.66544659 22.65131883 -0.00407691 -0.00228633 -0.00081827
N 4.63786966 26.77737477 19.78530174 -0.00007529 0.00036122 -0.00431289
N 2.19916683 24.26815116 22.64514656 0.00280506 0.00796989 0.00699561
N 6.70019263 4.03807329 1.07890900 -0.00469796 0.00067031 -0.00083996
N 10.08875605 4.77655930 3.73081640 -0.00494174 0.00026231 0.00750266
N 11.74416622 1.76381775 1.14400761 0.00033068 -0.00952656 0.00184170
N 8.31082420 1.04664374 3.65638388 0.00465930 0.00402462 -0.00318601
N 6.55755952 3.89073206 5.77596286 0.00197354 -0.00005820 -0.00002157
N 10.24747372 4.83024146 8.66080087 -0.00266330 -0.00036275 -0.00594269
N 11.95274832 1.78119774 5.87575781 0.00076156 0.00153617 0.00161393
N 8.30394640 1.11977531 8.57057402 -0.00637446 0.00101594 0.00443418
N 7.01092447 4.27668435 10.90840443 -0.00252590 0.00378360 -0.00467170
N 10.12989942 5.21138883 13.16587615 0.00650316 0.00395623 0.00484536
N 11.93252514 1.83627515 10.60202108 0.00095982 -0.00531582 -0.00108496
N 8.19896272 1.28884086 13.43440820 0.00265837 0.00476865 0.00123932
N 6.57739205 4.12944980 15.37904226 0.00660779 -0.00412832 0.00369734
N 10.44248393 4.78484089 18.01107515 -0.00195581 0.00502216 0.00087563
N 11.82312988 1.94916767 15.13572467 -0.00197900 -0.00058430 0.00088415
N 8.45022758 1.11958827 18.22894435 -0.00525804 -0.00519075 0.00011461
N 6.82676887 4.11613167 19.83940421 0.00283163 -0.00046507 -0.00124437
N 9.98549361 4.65240658 22.75853782 0.00431408 -0.00700985 0.00366730
N 11.91685539 1.87416745 20.00294028 0.00272710 0.00279910 0.00170057
N 8.32489416 1.02308257 22.75702399 -0.00680528 -0.00223778 0.00031335
N 7.01449667 9.42256186 0.86652081 -0.00001933 0.00811254 -0.00372023
N 10.82257868 10.56158489 3.89025890 -0.00039653 -0.00064103 0.00202687
N 12.65053177 7.38200747 1.19080221 -0.00070365 -0.00168502 -0.00233212
N 9.00590374 6.79543404 4.11081598 -0.00212378 0.00162838 0.00536780
N 7.30658258 9.64053107 5.75919743 0.00105021 0.00570441 0.00537510
N 10.81852912 10.91150999 8.39519936 -0.00065372 0.00519471 0.00112790
N 12.24443930 7.58180163 5.59336871 -0.00401508 0.00123804 -0.00442082
N 8.81588928 6.66050613 8.65155476 0.00299498 0.00349772 -0.00174471
N 7.17449918 9.66916089 10.41645701 -0.00138875 0.00025740 0.00255181
N 10.69328740 10.67131572 13.39954065 -0.00345917 0.00017864 -0.00553783
N 12.61292335 7.61177088 10.27495396 -0.00364628 0.00306915 0.00078132
N 8.75921190 7.00339847 13.39311343 0.00036433 -0.00193303 0.00127122
N 6.96646341 9.74920434 15.25808363 0.00107891 -0.00205551 0.00300059
N 10.67075103 10.64101658 18.05253662 -0.00736878 0.00549203 0.00094061
N 12.39275637 7.58282609 15.06814070 -0.00325631 0.00218665 0.00307395
N 9.12353186 6.70228034 17.98583156 -0.00349999 0.00204954 0.00191145
N 7.03550495 9.68021263 19.87698966 -0.00442122 -0.00319559 0.00139578
N 10.84306508 10.64859609 22.82019141 -0.00574635 -0.00046568 0.00778398
N 12.48417023 7.40488443 19.88745586 0.00584646 0.00481023 0.00058149
N 9.07129510 6.73993180 22.69986945 -0.00022198 0.00032445 0.00016581
N 7.55906220 15.14418358 0.81493511 0.00132705 0.00242280 0.00298473
N 10.58606951 17.30063426 3.92091031 0.00312428 0.00008815 0.00220697
N 11.75084273 14.06301679 1.34884675 0.00403083 0.00262747 -0.00075704
N 9.18592815 12.12934973 3.73867738 0.00095406 0.00202664 -0.00505937
N 7.87600653 14.89550321 5.55015220 0.00537339 -0.00666575 0.00279458
N 10.37813288 17.16762911 8.50711250 0.00385026 0.00431912 -0.00019999
N 11.73636296 14.17437736 5.98883206 0.00388613 0.00313019 -0.00056874
N 9.06725545 12.26328575 8.69476270 0.00521453 0.00366848 0.00295836
N 7.64831513 15.27157100 10.48230815 0.00376730 -0.00096039 0.00499710
N 10.30006059 17.49488759 13.13714575 0.00398810 0.00288855 -0.00262861
N 12.05449884 14.25831044 10.70416892 -0.00202575 -0.00069664 0.00155372
N 9.01204209 12.17527559 13.29273971 0.00297998 -0.00259198 -0.00209241
N 7.78627534 15.16974335 15.05105430 0.00040131 -0.00149264 -0.00018655
N 10.22307557 17.29105828 18.11661791 0.00044755 0.00036710 -0.00539525
N 11.76164322 13.93855831 15.29284631 0.00242324 -0.00301886 0.00367384
N 9.01779850 12.31914953 18.03355960 0.00108913 0.00322548 0.00293554
N 7.73263455 15.05465882 19.85953542 -0.00080129 0.00557206 -0.00607515
N 10.59567062 17.18588122 22.87131568 -0.00617560 0.00458683 0.00256357
N 11.58117945 14.30053976 20.10137647 -0.00540742 -0.00143008 0.00514092
N 9.01294205 12.10441970 22.58411283 -0.00029031 -0.01046857 -0.00383701
N 7.28202815 21.49420630 1.02091015 -0.00486762 -0.00505382 -0.00365183
N 9.70176854 23.77953737 3.88899678 -0.00357219 -0.00039743 -0.00187570
N 11.13897987 20.90616791 0.96059167 -0.00334092 0.00503049 0.00169599
N 8.60006866 18.50797297 3.93345256 0.00137083 0.00509988 -0.00112391
N 7.15028742 21.58767952 5.55924381 -0.00083360 0.00246492 -0.00380443