2000
Time=94000.00000000 pbc="T T T" Lattice="31.28414399 0.00000000 0.00000000 0.00000000 30.10231807 0.00000000 0.00000000 0.00000000 23.65484919" energy=-12042.76647282 virial="-37.07767382 4.03936491 5.53983800 4.03936491 -80.85636115 7.70917048 5.53983800 7.70917048 -45.02548257" stress="0.00046569 0.00011984 0.00031404 0.00011984 -0.00140338 0.00043620 0.00031404 0.00043620 0.00073365" Properties=species:S:1:pos:R:3:vel:R:3
C 30.39630667 3.62402825 1.81449650 0.00470330 -0.00309949 0.00458982
C 2.50876059 0.58483593 3.09702166 0.00555962 -0.00655095 0.00022011
C 30.57561449 3.51853479 6.55075472 0.00035532 -0.00081957 -0.00001724
C 2.19748580 0.40107137 8.01740166 -0.00284392 -0.00423269 0.00625897
C 30.46389501 3.56662984 11.20364408 0.00565753 -0.00387333 -0.00301491
C 2.51244046 0.73186556 12.72130181 -0.00794109 -0.00581977 -0.00076890
C 30.64729939 3.76336255 16.12545153 -0.00000881 -0.00001831 0.00099073
C 2.40590636 0.48368541 17.37438692 -0.00246052 0.00086341 -0.00646458
C 30.69296460 3.58963439 20.61180198 0.00452329 -0.00029937 -0.00468824
C 2.64147927 0.66507073 22.05190684 0.00590216 -0.00220505 0.00200607
C 30.98201134 9.25995170 1.58530715 0.00192809 -0.01011866 -0.00765248
C 2.70485227 6.03100918 3.16940745 -0.00180751 -0.00110234 -0.00663762
C 31.04144791 9.32590028 6.50239120 0.00065841 0.00680743 -0.00069800
C 2.83664957 6.14970431 7.89023728 -0.00387755 0.00413689 0.00230299
C 31.07677279 9.34485894 11.29924725 0.00168089 0.00329584 0.00380091
C 2.91547482 6.05070089 12.56460579 0.00502963 0.00478491 -0.00042635
C 0.01805042 9.53438930 15.86217368 -0.00159356 -0.00464426 -0.00490190
C 2.87877447 6.24583935 17.12043511 -0.00238545 0.00154545 0.00395241
C 31.16258709 9.13057291 20.70980412 0.00140043 -0.00073521 0.00159960
C 2.85284562 6.13302659 22.07278882 0.00159894 0.00444923 0.00383715
C 0.02342402 14.99421606 1.73196912 -0.00530165 0.00106941 0.00303333
C 3.20969868 11.84354505 3.10046124 0.00376475 -0.00178040 0.00343558
C 0.14220291 14.94580125 6.45120150 0.00241019 -0.00317329 -0.00115851
C 3.28831293 11.78757876 7.88225302 0.00378666 0.00335295 -0.00373717
C 0.23763298 15.03222826 11.22356556 -0.00342563 0.00317940 -0.00029484
C 3.40663628 11.73715653 12.61160394 -0.00060712 -0.00401744 -0.00458917
C 0.21659895 14.78927785 15.95450164 -0.00551991 -0.00577851 -0.00208751
C 3.51625794 11.77979490 17.38306664 0.00481642 0.00135278 -0.00063842
C 0.18527224 14.74353032 20.53574713 0.00018918 0.00329435 0.00612197
C 2.96729869 12.01877777 22.10692852 0.00427830 -0.00182367 -0.00047657
C 0.65059834 20.52658135 1.57738380 0.00432148 0.00004928 -0.00088080
C 3.76217677 17.68306773 3.03474058 -0.00191432 0.00851744 -0.00119536
C 0.63458278 20.65620208 6.42665756 0.00528193 -0.00119286 -0.00783566
C 3.88711231 17.47286078 7.51002145 0.00128058 -0.00005427 0.00042419
C 0.65398411 20.54841137 11.15716534 0.00062344 -0.00379834 -0.00494562
C 4.00725136 17.53423031 12.43314162 -0.00050331 -0.00409455 0.00764956
C 0.57189235 20.44927146 15.81598365 -0.00104733 0.00089384 -0.00765910
C 3.50701782 17.44347781 17.15782665 0.00264932 -0.00295974 -0.01163781
C 0.79901779 20.50978074 20.62798285 -0.00669980 -0.00174771 -0.00041625
C 3.76488471 17.42870689 21.86317461 -0.00640354 -0.00153267 0.00734648
C 0.18112090 26.94315754 1.86624151 -0.00846156 -0.00487126 0.00666820
C 3.23365578 23.94858462 3.06873225 0.00132844 0.00586787 -0.00187896
C 0.09214914 26.96156096 6.50865896 0.00246406 -0.00276723 -0.00165596
C 3.31398966 24.01555271 7.98978087 0.00055293 -0.01105955 -0.00374683
C 31.21672125 27.10780141 11.35072046 0.00131222 -0.00262666 0.00364033
C 3.09804862 24.12902106 12.58708752 -0.00134832 -0.00338507 -0.00250877
C 31.15093956 26.97278416 16.00259091 0.00361867 0.00144633 0.00587512
C 3.26024626 24.25487712 17.31982432 0.00535194 0.00210640 0.00489580
C 0.01388060 27.25464494 20.64327455 0.00062983 -0.00499407 0.00660712
C 3.32492382 24.11210303 21.99332074 -0.00324514 0.00086125 -0.00308742
C 6.20010722 3.21810418 1.90750640 -0.00530317 0.00043358 -0.00087778
C 9.19794424 0.35278938 3.17349503 0.00118883 -0.00111920 -0.00401008
C 5.97010101 3.39615320 6.54221273 0.00604342 0.00052447 0.00168984
C 9.30661825 0.32279353 7.75834871 -0.00120202 -0.00309411 0.00551236
C 6.22534391 3.26263272 11.33660631 -0.00262569 0.00681183 0.00692775
C 9.20791784 0.16225976 12.65307302 0.00124244 0.00013394 0.00309278
C 5.99150127 3.22525594 15.88622147 -0.00390359 0.00943545 0.00450534
C 9.06451913 0.08538928 17.30182576 -0.00020623 -0.00029019 0.00742360
C 6.30761657 3.27704698 20.61489739 -0.00058993 0.00134004 0.00267260
C 9.22722459 29.92729665 21.97694929 0.00644033 0.00674294 -0.00038916
C 6.48084828 8.91417739 1.84844592 -0.00391630 0.00073841 0.00261054
C 9.42844569 5.62556875 3.06281814 -0.00414518 0.00026807 -0.01071504
C 6.37460762 8.84999881 6.43569957 -0.00364042 0.00305003 0.00205686
C 9.59136549 6.03176420 7.76636263 0.00174755 0.00196810 -0.00622364
C 6.53863413 8.93164518 11.14313971 0.00168912 0.00258781 0.00429836
C 9.73107389 5.67395024 12.49687887 0.00018964 0.00426968 0.00657903
C 6.50615738 8.63965811 15.78671143 0.00597951 0.00022402 -0.00392130
C 9.70800239 5.62992352 17.12501047 -0.00930525 0.00412979 0.00288418
C 6.38533467 8.92866457 20.54323895 -0.00054671 -0.00478336 0.00283939
C 9.70817037 5.67104423 22.00904202 -0.00172253 0.00804671 0.00337545
C 6.80775323 14.57934353 1.67056046 -0.00366649 0.00671076 -0.00758748
C 9.88836690 11.31134685 2.90334949 0.00119824 -0.00034614 0.00014010
C 6.79092378 14.27036580 6.43311821 -0.00033393 -0.00045581 0.00555470
C 9.96624187 11.57413396 7.87450998 0.00177553 0.00147671 0.00478834
C 6.98694014 14.26498098 11.10853273 -0.01016512 0.00290393 -0.00096314
C 10.22499961 11.36014315 12.57544671 -0.00228437 0.00031488 0.00038427
C 6.87423607 14.58609033 15.87696952 -0.00353713 0.00175044 0.00170485
C 10.03439172 11.53909891 17.11355820 -0.00444221 0.00066758 0.00964342
C 6.95809915 14.35546530 20.55396078 -0.00038668 0.00834233 0.00253124
C 9.88863316 11.40584705 21.89698250 -0.00107356 0.00347618 0.00749973
C 6.36939049 21.01073235 1.83362420 -0.00326679 0.00386250 0.00627439
C 9.12151501 18.02350957 3.19888857 0.00869433 0.00145711 0.00555941
C 6.40563849 21.30389249 6.57418311 -0.00322238 -0.00361219 -0.00317952
C 9.37048334 17.65792114 7.91859786 0.00165022 0.00175227 0.00110487
C 6.34085869 21.40395832 11.43078589 0.00662280 0.00126735 0.00644221
C 9.37913507 18.01958009 12.52645262 0.00501024 0.00059142 -0.00214243
C 6.36842611 21.15897093 16.23660421 0.00719563 0.00018435 0.00136169
C 9.82321961 18.20121972 17.28862631 0.00208991 -0.00145817 -0.00416033
C 6.44656579 21.25780311 20.75856853 0.00564746 -0.00732642 -0.00146387
C 9.16329418 18.02130436 21.97928222 -0.00203029 -0.00412051 0.00437523
C 5.45107715 27.91259380 1.83307473 -0.00535277 -0.00748299 0.00029084
C 8.88029487 24.87344117 3.07490222 -0.00017613 -0.00586069 0.00072593
C 5.41689353 27.63435784 6.65997165 -0.00508072 0.00075126 -0.00170745
C 8.96546784 24.68742944 7.79549786 -0.00273956 -0.00027996 0.00163162
C 5.55989930 27.82497950 11.19324487 0.00117689 0.00092969 0.00033301
C 8.89866876 24.69026903 12.41177068 -0.00182561 -0.00077747 0.00166096
C 5.77990539 27.99430229 15.67567413 0.00213871 -0.00028981 0.00139902
C 8.72418578 24.77131846 17.24208666 -0.00103464 0.00251745 0.00494427
C 5.76073588 27.90789468 20.69139237 0.00164723 -0.00018864 -0.00353237
C 8.50491158 24.83860802 22.04884437 -0.00011083 -0.00508128 -0.00029385
C 12.71549737 2.65394189 1.71983792 -0.00252955 0.00069616 0.00071406
C 15.95566993 30.07107432 3.05752577 0.00119600 -0.00037599 -0.00244770
C 12.76157971 2.79061005 6.57845501 0.00189708 -0.00254373 0.00250329
C 15.83487119 30.05216196 7.81388489 0.00157936 0.00791455 -0.00587194
C 12.53488326 2.74537210 11.21781491 -0.00369239 -0.00457951 0.00263594
C 15.78219307 29.86518748 12.44680636 0.00174293 0.00558373 0.00297868
C 12.83980333 2.68700024 16.12373693 0.00456072 0.00207921 0.00837166
C 16.07314134 29.93992578 17.13459100 0.00540452 0.00117288 0.00591402
C 12.62638711 2.69899202 20.63644994 -0.01019664 0.00860822 -0.00502015
C 15.80467585 30.07728766 22.06773789 -0.00218727 -0.00821132 0.00151270
C 12.99916292 8.13217760 1.69872097 -0.00065676 0.00136602 -0.00019916
C 16.15119962 5.17872338 3.05412868 0.00234610 0.00068944 0.00099852
C 13.04275260 8.32751817 6.29675458 -0.00548117 -0.00219754 0.00420823
C 16.45392285 5.24381535 7.87256395 -0.00092206 0.00440937 -0.00538691
C 13.27062469 8.46293333 11.16900914 0.00648751 -0.00526956 0.00249250
C 16.46010169 5.55332229 12.19540645 -0.00048708 -0.00023189 -0.00151892
C 13.52487430 8.40100257 15.90598539 -0.00024345 0.00277772 0.00051378
C 16.45807924 5.37769371 17.28674173 0.00441624 -0.00082819 0.00822916
C 13.28877520 8.22417493 20.58994824 0.00384313 -0.00017549 0.00258524
C 16.17853994 5.09773519 22.12268382 0.00110804 0.00480213 -0.00029573
C 12.51748357 15.23337829 1.59016750 -0.00550584 0.00620861 0.00710988
C 15.31248634 11.80387021 3.03166278 0.00124792 -0.00265893 0.01014214
C 12.41703235 14.89448299 6.42574455 0.00778783 0.00351349 -0.00787535
C 15.53268200 11.99652317 7.75851808 -0.00728330 -0.00129336 0.00005673
C 12.63089003 15.11339909 11.12026776 -0.00434891 -0.00839340 0.00251352
C 15.94875653 12.12428808 12.45826477 0.00339071 0.00490278 0.00254108
C 12.54565975 14.81062452 15.68651436 0.00238480 0.00028797 -0.00593084
C 15.70785611 12.03935448 17.15808151 0.00281867 -0.00261295 -0.00653833
C 12.50394035 15.04491173 20.56158558 0.00315490 0.00612624 0.00172897
C 15.54638842 12.07409745 22.04539126 0.00200170 -0.00651230 0.00064548
C 12.02183241 21.58475340 1.69918833 0.00136822 -0.00401902 -0.00154213
C 15.11709296 18.90125493 2.82336909 -0.00350228 0.00002075 0.00024086
C 11.87123283 21.49534255 6.53427740 0.01025116 -0.00332619 0.00373605
C 14.86709871 18.73688243 7.54534584 -0.00216639 -0.00132214 -0.00949346
C 11.94253458 21.43705465 11.00276787 0.00327203 -0.00090775 0.00590641
C 15.06405176 18.72272551 12.29704511 -0.00543017 -0.00816093 -0.00475525
C 11.69960711 21.84476509 15.96758564 -0.00039843 -0.00258254 0.00280695
C 15.05444336 18.92409462 17.00912516 -0.00127828 -0.00378279 -0.00820957
C 11.80589266 21.97557019 20.67802616 0.00440931 -0.00181072 0.00444139
C 14.90939255 18.71999839 21.71134602 -0.00428414 0.00186233 -0.00296713
C 12.43835154 27.08002538 1.77605461 0.00441879 0.00006796 -0.00369027
C 15.47709701 24.00501822 3.25181201 -0.00060646 -0.00511591 0.00274272
C 12.39633608 27.16435554 6.48918385 0.00369170 0.00027511 0.00153284
C 15.18049651 24.31089347 7.76428431 0.00409838 -0.00584657 -0.00456111
C 12.34504235 27.31321329 11.17396352 -0.00205000 -0.00009176 -0.00236737
C 15.27151730 24.06813777 12.45751199 0.00706535 -0.01059737 0.00094958
C 12.54733511 27.25010529 15.81295608 0.00437505 0.00213412 0.00437471
C 15.69493501 24.27364239 17.23970775 -0.00575826 0.00360564 0.00261091
C 12.29260241 27.28933143 20.63966864 -0.00344849 0.00537049 -0.00385717
C 15.52435800 24.30939461 22.14929570 -0.00230131 -0.00270338 -0.00608647
C 19.40171065 2.17631026 1.90976743 -0.00533672 0.00046681 -0.00644000
C 22.35495015 29.28538374 2.97904974 0.00072425 0.00485176 0.00543515
C 19.37388503 2.12155426 6.46912882 0.00157728 -0.00577915 -0.00551959
C 22.47824278 29.66952353 7.74848334 0.00919964 0.00353449 0.00172526
C 19.63498542 2.55891140 11.36852044 0.00207580 0.00201298 0.00396298
C 22.75487689 29.26057306 12.40234393 -0.00250506 0.00339798 -0.00246643
C 19.59005572 2.36717302 15.84851331 -0.00241208 -0.00387250 0.00079843
C 22.61089818 29.56180134 17.23356368 0.00236471 -0.00456933 0.00153375
C 19.45663406 2.36185340 20.69496312 0.00399474 0.00263379 -0.00007920
C 22.87159252 29.82314765 22.00068513 -0.00034345 0.00053011 -0.00265347
C 18.79721203 8.94900465 1.64603384 -0.00156509 0.00280076 0.00311951
C 21.79860999 5.94254386 2.85643619 0.00370650 0.00293665 0.00193813
C 19.09928294 9.32482334 6.42211362 0.00508970 0.00669010 -0.00239664
C 22.10926076 6.12045406 7.58008308 0.00781578 0.00000122 0.00210393
C 18.80781186 9.14793618 11.05811855 -0.00262108 0.00035361 -0.00440793
C 21.96442345 6.15670253 12.52573820 0.00384657 -0.00462471 -0.00298908
C 18.87910243 9.22921525 15.84375656 0.00274152 -0.00322836 0.00468700
C 21.96503985 6.25440860 17.15922804 0.00310171 0.00480557 -0.00016721
C 18.74146237 9.02701784 20.61192456 -0.00302376 0.00380537 0.00795533
C 21.81063912 6.09830490 21.90211218 0.00260688 -0.00233330 -0.00216455
C 17.90090742 15.72995281 1.55664439 0.00536703 -0.00086671 0.00322504
C 21.23454724 12.61810072 2.72200568 -0.00157743 -0.00071183 -0.00188596
C 18.03266956 15.71873834 6.11657673 0.00601951 0.00080351 0.00917173
C 21.36931679 12.70445629 7.69267175 -0.00341815 -0.00359421 -0.00146105
C 18.18064427 15.85788842 11.00377878 -0.00369337 0.00268428 0.00148680
C 21.13457321 12.63537019 12.26489383 -0.00569034 -0.00140285 -0.00035045
C 18.11541614 15.75130520 15.62016893 0.00075325 -0.00054252 0.00794786
C 21.09631645 12.73780722 17.07898209 -0.00520101 -0.00737438 0.00616035
C 18.20503813 16.00071461 20.48140765 -0.00568577 0.00386112 0.01081308
C 21.24461546 12.60669379 21.81144393 0.00109075 0.00093607 0.00317291
C 18.54638137 21.19321025 1.67165935 0.00090961 0.00360043 0.00479886
C 21.56040439 17.98514715 2.93789739 0.00885074 0.00239939 0.00236064
C 18.56009943 21.18790547 6.41277688 -0.00114638 0.00512820 0.00257906
C 21.63530534 18.35124367 7.66174059 -0.00353206 -0.00565871 -0.00242205
C 18.31122438 21.29552497 11.05302083 -0.00107155 -0.00608469 -0.00316935
C 21.42222563 18.46408472 12.20206654 0.00006247 -0.00165831 0.00190974
C 18.72852819 21.27964122 15.98236843 -0.00322399 0.00279768 0.00520825
C 21.77115239 18.12735169 16.93306336 -0.00032802 -0.00425466 0.00010153
C 18.54411310 21.26535421 20.67284201 -0.00205299 -0.01040984 0.00035461
C 21.72523993 18.34635908 21.93895187 0.00126941 0.00489137 0.00866155
C 18.81518515 26.83943410 1.69915940 0.00687309 -0.00462414 0.00406081
C 21.98920699 23.65703739 3.06855611 -0.00204174 -0.00992772 -0.00426645
C 18.71478371 26.90086196 6.26956978 0.00084223 0.00475728 -0.00206665
C 22.08973570 24.07227547 7.74557672 -0.00737589 -0.00034101 -0.00165746
C 18.83896654 26.78579501 11.14561329 0.00502918 -0.00303769 -0.00062899
C 22.20990483 23.77625892 12.47047326 -0.00400447 -0.00450702 0.00016466
C 19.12197745 26.70238208 15.90963023 -0.00657129 -0.00476247 0.00622386
C 22.11488201 23.67814990 17.19836487 0.00187530 -0.00445690 0.00511971
C 19.03197940 27.03408290 20.72254442 -0.00193370 0.00372508 -0.00172400
C 22.19488222 23.92105984 22.13294263 -0.00280898 0.00431684 0.00846468
C 25.00611314 2.90868829 1.64636773 -0.00159182 -0.00437959 0.00534920
C 28.20086430 0.12303569 3.10860973 0.00423433 -0.00340759 0.00086696
C 24.91301143 2.94071921 6.39427005 0.01018027 -0.00069739 -0.00444188
C 27.79227294 30.00136785 7.98752591 0.00228177 -0.00059547 -0.00393503
C 25.01831787 3.19875684 11.14080352 0.00598922 0.00258613 -0.00335181
C 28.00779339 0.17940682 12.74159503 0.00103555 0.00167429 -0.00271049
C 25.01348545 3.02355337 15.98871234 0.00356544 -0.00192927 -0.00272758
C 27.84683677 30.07431316 17.32362389 -0.00662363 -0.00120743 -0.00268649
C 25.16812506 3.25102946 20.64845044 -0.00130055 0.00206901 -0.00121745
C 28.24550445 0.05920493 21.96799932 -0.00044723 -0.00532363 -0.00305429
C 24.33330505 9.72390728 1.65779832 0.00148602 0.00464019 -0.00143249
C 27.30753996 6.74192906 3.11445135 0.00097083 0.00449187 -0.00419839
C 24.43323167 9.65798488 6.36918773 0.00060390 -0.00577799 -0.00535655
C 27.64103172 6.64643396 7.99103162 -0.00735340 0.00220800 -0.00132047
C 24.42816163 9.47834662 11.20879485 -0.00773974 0.00950764 0.00310941
C 27.55308190 6.75539395 12.68224683 -0.00525445 0.00026842 0.00524230
C 24.50388824 9.62811512 15.85027120 0.00185303 -0.00030356 0.00076133
C 27.60964683 6.76796529 17.24972096 -0.00396084 0.00289972 0.00021308
C 24.46575689 9.60957524 20.49932363 0.00006297 0.00276789 -0.00027597
C 27.31675090 6.28218321 21.93378747 0.00792261 0.00269563 -0.00541373
C 24.77306493 15.31605550 1.50204639 -0.00098443 0.00337066 -0.00825067
C 27.80872811 11.91206550 2.89716747 -0.01111671 0.00562191 -0.00679166
C 25.07632591 15.32486790 6.36549300 0.00029273 0.00106301 0.00481227
C 27.78895083 12.23507497 7.64593081 -0.00309593 0.00342288 -0.00109942
C 24.90741596 15.49786244 11.03678277 0.00533331 0.00426845 0.00339839
C 28.18564200 12.30307633 12.44729997 -0.00834053 0.00615428 0.00392573
C 24.68031438 15.22688152 15.72777669 -0.00355556 0.00303261 0.00154444
C 28.04236877 12.12100393 17.03494967 0.00249214 -0.00586557 0.00419765
C 24.83260236 15.10926177 20.49226919 -0.00282919 -0.00563015 -0.00437910
C 27.74901021 12.12669456 21.83735767 -0.00203893 -0.00100765 -0.00185865
C 25.40110953 20.65460266 1.71373437 -0.00531213 0.00122589 0.00378691
C 28.30141868 18.12861895 2.88545598 0.00108760 0.00251547 -0.00278493
C 25.18213231 21.03288926 6.25279786 0.00241197 -0.00417233 0.00753420
C 28.53850028 17.80869486 7.62608967 -0.00265945 0.00575165 0.00256406
C 25.33750408 20.80291621 11.03814257 0.00338296 -0.00351242 0.00170380
C 28.29646897 17.95811066 12.54837264 -0.00154795 -0.00149488 0.00248738
C 25.31318074 20.62909132 15.87348508 -0.00509153 0.00222318 0.00026817
C 28.50164667 17.95998014 17.29915218 -0.00468407 0.00228766 0.00280776
C 25.04141031 20.84995643 20.61045941 0.00224158 0.00411315 -0.00776415
C 28.26820618 17.78817916 21.87335158 0.00574261 -0.00058307 0.00053833
C 25.78344621 26.45378187 1.56209970 0.00206461 -0.00194646 0.00085741
C 28.88141630 23.64675227 2.96676539 0.00492241 0.01198755 0.00314831
C 25.55249066 26.41313911 6.33050005 0.00592725 -0.00261980 -0.00473793
C 28.54645232 23.23938768 7.74873717 -0.00882333 -0.00258410 -0.00559808
C 25.67826738 26.26931766 11.20111170 0.00331218 -0.00456409 0.00051056
C 28.65450020 23.34230516 12.42740686 0.00209140 -0.00346428 -0.00735918
C 25.71245006 26.36984887 15.74308450 0.00331538 0.00800016 -0.00231644
C 28.58250720 23.21890792 17.13603810 0.00356698 0.00718003 0.00033113
C 25.65309926 26.48514135 20.47354644 0.00285270 -0.00559236 0.00010306
C 28.81899608 23.59766243 21.95150487 -0.00481218 -0.00253338 -0.00439955
N 31.20089192 4.35408585 0.99187374 -0.00566644 0.00004487 0.00069248
N 3.42180859 5.15819335 3.93370616 -0.00373198 0.00072366 0.00749904
N 5.35951136 2.45030404 1.20032716 -0.00562173 0.00325903 -0.00215263
N 1.39882373 1.18011092 3.64950384 -0.00225394 0.00245167 -0.00314733
N 0.04517906 4.24750100 5.70199031 0.00278473 -0.00523221 -0.00267280
N 3.67819127 5.26247394 8.59346743 0.00009569 -0.00174927 -0.00224846
N 5.37973190 2.39906401 5.82605127 -0.00382785 0.00072295 -0.00402033
N 1.22976890 1.02559814 8.69526209 0.00340908 0.00531861 0.00112290
N 0.04227809 4.35900832 10.54924318 -0.00182268 -0.00343714 0.00593906
N 3.78561566 5.16490433 13.07470022 0.00120014 -0.00322798 -0.00498481
N 5.53573640 2.50025580 10.51035678 0.00202252 -0.00802591 -0.00249841
N 1.83663100 1.58512711 13.55591840 0.00613867 0.00062039 0.00208242
N 0.25579428 4.51532228 15.45056203 -0.00213582 0.00036601 0.00967098
N 3.29601091 5.08467174 17.75144913 -0.00090539 0.00094560 -0.00763939
N 5.25005626 2.33086502 15.28226201 -0.00548026 -0.00005779 0.00052181
N 1.53435186 1.28843171 18.11443153 -0.00718869 -0.00046361 0.00083274
N 0.31663957 4.29892394 19.84244759 -0.00171623 -0.00205923 0.00504800
N 3.61284625 5.22735482 22.63367869 0.00782037 -0.00564917 -0.00079722
N 5.44431015 2.49135989 19.94139852 0.00011571 0.00849981 0.00096898
N 1.55601189 1.24954119 22.57543635 -0.00084704 0.00165253 0.00106108
N 0.58965199 10.00039925 0.94816167 0.00230769 -0.00146557 -0.00345478
N 4.01851008 10.91743665 3.64137974 -0.00755128 0.00334323 -0.00008635
N 5.67875360 7.99511439 1.21783120 0.00032663 -0.00000462 0.00165868
N 2.03351960 7.05395567 3.77582727 0.00186510 0.00009438 -0.00260266
N 0.37063726 10.26035361 5.61895096 -0.00111863 -0.00099301 -0.00287496
N 3.99062161 10.82001614 8.62300510 0.00678740 -0.00505844 -0.00209191
N 5.51985696 8.01488562 5.72201685 0.00067065 0.00120826 -0.00308524
N 2.13493676 7.12895130 8.54947994 0.00071058 -0.00227589 0.00465970
N 0.74045470 10.05548421 10.56711912 0.00009341 0.00538083 0.00484300
N 3.99777793 10.74524391 13.34763952 0.00225744 0.00093151 0.00042411
N 5.62822624 8.20205044 10.46193667 0.00431398 0.00043900 -0.00485372
N 2.65128949 7.14046952 13.28622884 0.00163178 0.00515153 -0.00505416
N 0.68525401 10.35000014 15.08009893 0.00245521 -0.00144712 0.00105185
N 4.18306771 10.83517374 18.16270314 -0.00163513 0.00011038 0.00685945
N 5.60483409 7.88066591 15.17582480 -0.00194836 -0.00527605 0.00171212
N 2.37207793 7.18311815 17.97235699 -0.00105171 -0.00351089 0.00334377
N 0.54050774 10.10676572 20.01386211 0.00766002 -0.00118498 -0.00070913
N 3.75205209 11.12209240 22.75735145 -0.00621034 0.00358714 0.00227622
N 5.62405192 7.89067399 19.96961894 -0.00540420 -0.00187931 -0.00493031
N 2.31435499 7.09785731 22.89190037 0.00259087 0.00369593 0.00024490
N 0.58442977 15.81481145 0.85482811 0.00278350 0.00039924 -0.00372233
N 4.38574494 16.72665184 3.77151581 0.00021480 -0.00133277 0.00451804
N 5.99512387 13.70675636 0.99847213 -0.00030515 0.00017226 -0.00084823
N 2.78226571 12.80824354 3.89369588 -0.00174814 -0.00383378 -0.00407062
N 0.92118019 15.86399501 5.78029064 -0.00056205 -0.00175489 -0.00191461
N 4.58438252 16.47693248 8.13983573 0.00422162 0.00645086 0.00134322
N 5.88204214 13.49818694 5.78771515 -0.00244524 -0.00760687 -0.00392276
N 2.81911857 12.86536499 8.63535954 0.00667390 -0.00229244 0.00299481
N 1.19139302 15.70228563 10.49975316 -0.00425444 0.00193004 0.00209865
N 4.75608928 16.69532179 13.18121198 -0.00178048 -0.00036272 0.00011931
N 6.17517062 13.50521755 10.33445345 -0.00783565 0.00448055 -0.00279238
N 2.88206909 12.81603233 13.29062669 -0.00600860 -0.00051170 -0.00127936
N 1.02876988 15.56512405 15.20550646 0.00194398 -0.00570930 -0.00404643
N 4.37195658 16.72475013 17.92507699 -0.00052703 -0.00162730 -0.00406382
N 6.14070697 13.66158781 15.19997853 0.00276595 -0.00578004 0.00185559
N 2.80548227 12.77291904 18.02943635 0.00006313 0.00443210 -0.00342717
N 0.99616144 15.56403397 19.86849684 -0.00302435 -0.00514069 -0.00353844
N 4.42339851 16.65496251 22.67687242 0.00307844 0.00527466 0.00775693
N 6.31627563 13.48014691 19.74404729 -0.00074915 -0.00204415 -0.00626273
N 2.42487124 13.03090110 22.90065675 -0.00068165 0.00681818 -0.00587578
N 1.76871803 21.10999218 1.00657596 0.00224160 0.00106401 0.00230460
N 4.31115362 23.42199013 3.63633450 -0.00081140 0.00038141 0.00131314
N 5.51256820 20.30397155 1.08782234 -0.00154741 -0.00223593 -0.00037256
N 2.92024174 18.57167451 3.67717870 -0.00122189 0.00043979 -0.00264483
N 1.45277297 21.54839699 5.86253299 0.00724354 -0.00252526 -0.00423454
N 4.27738377 23.66397477 8.79876517 -0.00282492 -0.00299262 -0.00293917
N 5.58436926 20.31152894 6.14352087 0.00075593 0.00350136 0.00321950
N 2.99043463 18.18832487 8.34108542 0.00334785 0.00740268 -0.00120881
N 1.37035534 21.52771622 10.50264900 0.00033172 0.00564121 0.00621428
N 3.94418373 23.41251290 13.38672615 -0.00232922 -0.00118522 0.00566913
N 5.54322017 20.52976483 10.70676109 -0.00116937 0.00236184 -0.00059353
N 3.08023521 18.31280403 13.08055061 -0.00885334 -0.00014170 -0.00110718
N 1.34015667 21.31125139 15.09048701 0.00843666 0.00183810 -0.00106275
N 4.24418495 23.66092858 18.05650640 -0.00734410 0.00358894 0.00257341
N 5.51269502 20.40224695 15.56640368 -0.00520347 -0.00121108 -0.00094933
N 2.73514429 18.46356009 17.74595149 -0.00297765 -0.00381178 0.01118883
N 1.65000153 21.20585642 19.89105006 0.00034262 -0.00449741 0.00780981
N 4.32161317 23.56898552 22.67347121 -0.00244418 -0.00475631 0.00063184
N 5.85311517 20.32588528 20.06564600 0.00035532 -0.00257724 0.00207413
N 3.12905838 18.51569036 22.54108096 -0.00361581 0.00114074 -0.00326262
N 0.83563005 27.93103925 1.19464003 -0.00167115 0.00461836 -0.00450732
N 3.38771660 30.07264180 3.92434541 -0.00166207 0.00220498 0.00257920
N 4.60152030 27.04057658 1.32706749 0.00383039 -0.00143828 0.00241126
N 2.22815527 24.34260607 3.91673434 -0.00000435 -0.00073780 0.00075789
N 0.89829674 27.73041602 5.80519938 -0.00515053 0.00336175 -0.00392773
N 3.32256162 0.06254727 8.72727501 -0.00501325 0.01078184 0.00191228
N 4.90526713 26.77647752 5.76145471 0.00414467 -0.00465930 0.00434578
N 2.32740831 24.77786384 8.60516406 -0.00314345 -0.00009666 -0.00111461
N 0.81593835 27.92799918 10.67006519 -0.00016370 0.00799120 0.00215927
N 3.50201979 0.00890763 13.36010159 -0.00460944 0.00046522 -0.00063453
N 4.56063563 27.07381032 10.52689060 -0.00346315 0.00148228 -0.00261695
N 2.26234890 24.93599042 13.30840703 0.00169425 0.00721332 -0.00646602
N 0.75108089 27.75180468 15.37150395 0.00074703 0.00272865 -0.00773228
N 3.42878740 30.03249820 18.05280429 0.00929375 -0.00101443 0.00492962
N 4.96947913 27.07158256 15.13268407 0.00434270 0.00205270 0.00358797
N 2.14738652 24.56854563 17.98936547 -0.00355722 0.00071320 0.00021635
N 0.87897428 27.86414391 19.83124704 -0.00446806 0.00177920 -0.00789782
N 3.42590145 30.01697129 22.89030441 -0.00215197 -0.00070688 -0.00327537
N 4.85726524 27.04651116 20.15478708 -0.00146697 0.00093887 -0.00522634
N 2.35269324 24.58901210 22.77205980 -0.00265919 -0.00187782 -0.00272891
N 7.03482060 3.96992251 1.15524522 0.00339638 0.00408890 -0.00219367
N 10.00476857 4.60006364 3.74795462 0.00229159 0.00182028 0.00753352
N 11.99142545 1.83224943 0.89462313 0.00303265 0.00621712 0.00209922
N 8.48191528 1.06877544 4.05356065 -0.00523371 0.00193852 -0.00483807
N 6.79501959 4.21881776 5.90855338 0.00305925 -0.00014860 0.00214404
N 10.31991374 5.11842588 8.42274028 -0.00379752 0.00016163 0.00223514
N 11.96525213 1.81228513 6.00080914 -0.00135466 0.00041254 0.00213865
N 8.56475479 1.15916092 8.48387809 -0.00216851 -0.00416161 -0.00195362
N 6.93760854 4.22453313 10.71218294 -0.00093122 -0.00665433 -0.00516979
N 10.35040185 4.70272440 13.17944555 0.00224515 0.00119955 -0.00724118
N 11.83084049 1.96668006 10.38592259 -0.00074864 -0.00208210 0.00223254
N 8.48886076 1.13414420 13.33372018 0.00343928 0.00260572 -0.00004254
N 6.79719410 4.05956870 15.15254153 0.00243714 0.00017036 0.00198060
N 10.31495987 4.76032256 17.96639127 -0.00182498 -0.00096246 0.00422889
N 12.07533050 1.88129643 15.28135691 0.00003998 -0.00642188 0.00287308
N 8.19334843 0.96764916 17.83440300 -0.00613273 -0.00672042 0.00189939
N 6.91140657 4.23342855 19.86253347 -0.00160820 -0.00037160 0.00088633
N 10.14186804 4.57545246 22.67764055 -0.00205227 0.00494585 -0.00888038
N 11.65456702 1.95795258 19.93391981 -0.00428636 -0.00595596 0.00420920
N 8.69360425 0.79212691 22.76660339 -0.00414936 -0.00451012 0.00053834
N 7.07563082 9.76630928 1.00596045 0.00346805 -0.00087014 -0.00282922
N 10.37715044 10.39471189 3.81447280 -0.00269834 -0.00224045 0.00013544
N 12.12207830 7.36870740 0.98499499 -0.00114483 0.00257833 -0.00205698
N 8.86960271 6.66852981 3.74986587 0.00248071 -0.00493126 0.00273786
N 7.14540299 9.74511273 5.73733203 0.00295840 0.00334901 -0.00110830
N 10.83528075 10.70602313 8.41223855 0.00316449 -0.00227668 0.00311096
N 12.39007160 7.38681990 5.50168916 0.00137082 -0.00304990 -0.00269970
N 8.93777172 6.96121751 8.49585133 -0.00000150 -0.00021967 -0.00340493
N 7.29757176 9.77981353 10.42233217 0.00342725 -0.00079019 0.00006515
N 10.95099426 10.45993662 13.27072937 -0.00281581 -0.00281726 -0.00093154
N 12.16225184 7.91174184 10.58088763 0.00365311 -0.00572564 0.00015951
N 9.13289720 6.71202122 13.16594123 0.00113046 -0.00366969 -0.00096163
N 7.30813498 9.38659653 15.00087139 0.00053824 -0.00824720 0.00286102
N 10.51018467 10.54486968 17.87093555 -0.00099315 0.00297074 0.00625236
N 12.71099758 7.46430325 15.22130426 0.00456825 0.00442921 -0.00985241
N 9.16711966 6.72064460 17.73418372 0.00650611 0.00426368 0.00044731
N 7.13651464 9.61069611 19.65906565 -0.00094006 0.00601870 0.00119764
N 10.38821662 10.42364016 22.61999153 -0.00456046 0.00265083 0.00198084
N 12.49475346 7.52075086 19.83275406 0.00131954 -0.00201869 -0.00674768
N 9.00194151 6.65256423 22.63199513 -0.00773006 -0.00317739 -0.00705857
N 7.60538157 15.26798918 0.87134301 -0.00626728 0.00129077 0.00356195
N 10.12727604 17.44754340 3.96616805 0.00229829 -0.00048569 0.00540215
N 11.52879317 14.54033516 0.96838027 0.00273636 0.00066352 -0.00234882
N 8.95821618 12.20149809 3.40781878 -0.00095676 0.00422138 0.00139541
N 7.72474179 14.86801758 5.66241330 0.00154335 0.00467550 -0.00300936
N 10.45070768 17.23446612 8.64996837 0.00219307 -0.00356747 -0.00108815
N 11.39556949 14.20374367 5.82544305 -0.00042724 0.00488696 0.00648425
N 9.16322018 12.27166419 8.67202700 -0.00012711 0.00044422 -0.00120994
N 7.76776459 15.17178054 10.44585013 -0.00651503 -0.00381675 -0.00104718
N 10.22688397 17.06363427 13.18439685 -0.00025935 0.00224245 0.00785318
N 11.83733322 14.16524083 10.54154833 -0.00458646 0.00067182 -0.00453884
N 9.34287157 12.16695383 13.30012342 0.00065160 -0.00042762 -0.00305938
N 7.68005482 15.37542219 15.12162723 0.00570735 0.00629885 -0.00660230
N 10.73149155 17.54419615 18.05597687 0.00090794 0.00095076 -0.00220542
N 11.82371079 13.90239268 14.99991492 0.00052550 0.00002589 0.00325590
N 9.13148449 12.38782821 17.79285704 0.00125415 -0.00072481 -0.00143024
N 7.77711875 15.21639481 19.86540271 0.00043139 0.00838855 0.00149856
N 10.21583495 17.61421170 22.73539624 0.00870227 -0.00182734 0.00512204
N 11.68397494 14.19230971 19.77643990 0.00544697 -0.00339238 0.00128146
N 9.22373546 12.37197216 22.65627877 0.00362326 -0.00569317 0.00107474
N 7.25963488 21.76393989 1.12830530 -0.00190579 -0.00230122 -0.00643123
N 9.64202725 23.96665188 3.75908432 -0.00077871 0.00066555 -0.00422476
N 11.07343843 20.79945998 1.05057665 0.00232863 -0.00010201 -0.00661954
N 8.01184884 18.49732408 3.84994182 -0.00475209 0.00171995 0.00375382
N 7.26949613 21.90584269 5.70091695 0.00254757 0.00308492 0.00100611