2000
Time=10000.00000000 pbc="T T T" Lattice="31.02342230 0.00000000 0.00000000 0.00000000 29.86961447 0.00000000 0.00000000 0.00000000 23.72435870" energy=-12042.88701153 virial="-43.45700338 -33.93777607 7.40080796 -33.93777607 -36.40307521 -23.37707956 7.40080796 -23.37707956 -83.27588884" stress="0.00001053 -0.00152880 0.00034776 -0.00152880 0.00041367 -0.00104875 0.00034776 -0.00104875 -0.00069824" Properties=species:S:1:pos:R:3:vel:R:3
C 30.09617290 3.70602821 1.80991789 0.00005806 0.00504145 -0.00222649
C 2.52018517 0.65496663 2.86544564 0.00673916 -0.00304333 0.00359868
C 30.32812335 3.34125125 6.48182137 0.00106400 0.00159848 0.00049612
C 2.70162041 0.78554735 7.81399878 0.00040967 0.00050014 0.00349514
C 30.33319681 3.58250875 11.26751520 0.00503722 0.00004377 -0.00156172
C 2.60026572 0.58171529 12.39864586 0.00258556 -0.00212394 0.00932179
C 30.41040246 3.56964772 15.98771800 0.00469207 0.00505244 0.00346844
C 2.43230552 0.62945735 17.15738826 -0.00049705 -0.00608209 -0.00491540
C 30.49399649 3.61779107 20.69519665 0.00112808 -0.00271305 0.00820027
C 2.43744642 0.73158986 21.96772293 0.00334194 -0.00341018 -0.00159360
C 30.72194562 9.19639480 1.81205782 -0.00094035 0.00546602 -0.00662895
C 2.74247564 6.23125846 3.10842238 0.00138838 0.00058637 0.00165946
C 30.95058994 9.39466980 6.49309621 -0.00209877 0.00278190 -0.00114026
C 2.78638448 6.21042353 7.83269964 -0.00433669 0.00111853 -0.00218964
C 31.00462997 9.22399599 11.13885698 -0.00641304 0.00100012 -0.00581960
C 2.93855770 6.03131002 12.45631674 -0.00162914 0.00114471 -0.00598368
C 30.91296704 9.15798131 15.89668773 -0.00063411 0.00125423 -0.00134325
C 2.85179785 6.05301910 17.19736459 -0.00058742 0.00256064 -0.00279215
C 30.93000639 9.24815365 20.61595331 -0.00104055 0.00249144 0.00339600
C 2.70067459 6.01199777 22.07915437 -0.00437622 -0.00132247 0.00118127
C 0.17595477 14.55327937 1.85570399 -0.00118537 0.00139088 0.00113610
C 3.34005324 11.51753776 3.02716447 -0.00592936 -0.00253647 -0.00557905
C 0.40337638 14.79987176 6.41637565 -0.00361395 0.00325568 -0.00158676
C 3.52869196 11.77029639 7.91925085 -0.00043482 -0.00258197 0.00566177
C 0.14765127 14.60844154 11.09323910 -0.00080533 0.00086525 0.00389593
C 3.47967424 11.69964730 12.62244826 -0.00296378 -0.00028703 0.00362300
C 0.28538616 14.80656169 15.97137937 0.00097313 0.00192846 0.00018627
C 3.40266687 11.83570165 17.28364635 -0.00390009 0.00402624 -0.00663455
C 0.20651357 14.71384874 20.63163222 0.00167569 -0.00031483 -0.00123794
C 3.50320393 11.81906532 21.97131961 0.00265504 0.00074890 -0.00550044
C 0.48817521 20.16751707 1.64609995 -0.00114053 -0.00167769 0.00024027
C 3.75018199 17.17184709 3.12254270 -0.00125602 -0.00571528 -0.00020634
C 0.55058752 20.15741380 6.44440075 -0.00029852 -0.00455957 -0.00188990
C 3.63464492 17.26233735 7.86601982 0.00091755 -0.00583536 0.00035567
C 0.72215110 20.36917691 11.26497497 0.00109032 -0.00374824 -0.00616392
C 3.85108899 17.28154176 12.51921203 0.00147310 -0.00224969 -0.00142629
C 0.80227840 20.17502644 15.93719931 -0.00097117 0.00170794 -0.00201980
C 3.72955843 17.15264965 17.33731661 -0.00321751 0.00300854 0.00460969
C 0.62089672 20.41371823 20.66496124 0.00069338 0.00281890 -0.00601753
C 3.57674971 17.31279697 22.08543872 0.00200032 -0.01033912 -0.00303816
C 0.01826361 26.87496731 1.68045340 0.00111475 -0.00349564 0.00127464
C 3.07438540 23.81159523 3.05025452 -0.00492044 0.00661417 0.00122628
C 0.21351254 26.78146112 6.57907688 -0.00214647 0.00080743 0.00016063
C 3.28603773 23.66042287 8.03651893 -0.00122158 0.00013362 -0.00157491
C 0.08719441 26.92927614 11.35523913 0.00271571 -0.00492120 0.00700103
C 3.02829184 23.85041110 12.61528884 -0.00689010 0.00151326 -0.00289613
C 0.02062005 26.89144157 15.90972861 -0.00286553 -0.00718818 -0.00132427
C 3.13556194 23.98242420 17.26596678 0.00067929 0.00938393 -0.00026371
C 0.05139606 27.02354786 20.59229047 0.00202871 0.00088914 0.00572025
C 3.05137766 23.86982528 22.05322386 0.00246652 -0.00170713 0.00118824
C 6.05488789 3.18322616 1.76555998 -0.00347139 0.00119976 -0.00290385
C 9.21888749 0.20351205 2.93161935 0.00538040 -0.00150825 0.00355080
C 5.98203418 3.16877905 6.46388510 0.00051440 0.00567607 -0.00030306
C 9.00654083 0.06829800 7.75241015 -0.00107710 -0.00894808 -0.00262682
C 5.98467538 3.18547875 11.29392891 -0.01032646 -0.00562179 0.00403072
C 9.08622985 0.03355198 12.54691125 -0.00155824 -0.00157367 -0.00081688
C 6.05506816 3.21196189 15.94276973 0.00029230 0.00328199 0.00195491
C 9.02305697 0.11202538 17.36463045 0.00061073 0.00306654 -0.00581024
C 5.88411504 3.14189647 20.66843362 -0.00117019 0.00122215 -0.00708377
C 9.29768891 0.02681205 22.01939131 -0.00597103 0.00169598 0.00322284
C 6.35717126 8.50613728 1.81018972 -0.00806200 -0.00403941 -0.00328860
C 9.66250430 5.86596938 3.00026857 0.00015982 -0.00657386 -0.00510137
C 6.30126660 8.69726225 6.47441080 -0.00285474 -0.00024741 0.00315673
C 9.46654068 5.97110194 7.82705516 -0.00119052 -0.00637139 0.00046269
C 6.12564832 8.96603476 11.12512528 0.00343466 -0.01006363 -0.00932430
C 9.49000532 5.83899466 12.40901715 0.00437614 0.00197607 0.00046131
C 6.36441797 8.72537460 15.91616627 0.00661861 0.00589443 0.00213239
C 9.51905145 5.77190971 17.14983241 -0.00310150 -0.00226138 -0.00321119
C 6.27452791 8.58455099 20.70905151 0.00268592 -0.00066410 0.00316906
C 9.73055585 5.81223751 22.04965511 0.00182105 0.00194094 0.00462637
C 6.85722072 14.05126190 1.83696713 0.00141674 -0.00868833 -0.00618139
C 10.18933442 11.37951304 3.10300309 0.00189520 0.00107651 0.00044199
C 6.93487089 14.09029242 6.48107721 -0.00062052 -0.00172929 0.00153543
C 9.92711714 11.46301353 7.89964982 0.00060719 0.00034612 0.00119223
C 7.11468361 14.41587006 11.14389197 -0.00409390 -0.00032526 0.00575891
C 10.04035656 11.44731911 12.49314915 0.00045686 -0.00591313 -0.00193557
C 7.06802792 14.43261467 16.01041542 -0.00276854 -0.00669611 0.00193064
C 9.91237910 11.24844384 17.14131767 -0.00730598 0.00021776 0.00068773
C 6.98928910 14.22125084 20.79070592 0.00458563 -0.00555262 0.00136351
C 9.86129516 11.08161169 21.94619519 0.00075929 -0.00226848 0.00011120
C 6.16150013 20.78707361 1.79241795 0.00077214 -0.00358790 -0.00407596
C 9.07824032 17.62364008 2.97297324 -0.00255460 -0.00082691 -0.00253633
C 6.09439710 20.87197235 6.53222210 0.00198788 0.00304705 -0.00065395
C 9.18721298 17.90943005 7.71559264 -0.00055850 0.00434061 -0.00773321
C 6.39621151 20.69086912 11.30515406 -0.00237430 0.00181288 0.00177639
C 9.52371436 17.87304645 12.37420828 0.00099165 -0.00198060 -0.00060968
C 6.14817266 20.85410740 15.87975787 -0.00226298 -0.00046614 -0.00163925
C 9.67543558 17.93392736 17.19518974 0.00035048 -0.00348965 -0.00741544
C 6.27957721 20.93663769 20.63855895 -0.00278888 0.00249520 0.00543036
C 9.36846182 18.11739055 21.89167817 0.00625462 0.00413422 -0.00052185
C 5.63440185 27.66092822 1.56641786 -0.00006229 0.00035738 -0.00021806
C 8.81007509 24.75279822 3.11250579 0.00193666 0.00265719 0.00200979
C 5.60714293 27.47454648 6.49077052 0.00340769 -0.00497035 0.00228005
C 8.58980924 24.46668147 7.82916952 -0.00218404 0.00591558 0.00139945
C 5.54512535 27.39390408 11.20554804 0.00607469 -0.00280172 0.00173184
C 8.82493911 24.41120273 12.56442421 0.00254608 0.00269398 -0.00011402
C 5.48807782 27.60254677 15.96731116 0.00023404 -0.00204032 0.00418239
C 8.64132577 24.42853973 17.25750272 0.00015482 0.00513284 0.00076038
C 5.44771654 27.55703722 20.77584852 0.00357036 -0.00162410 0.00187168
C 8.56285884 24.46614379 22.01702924 0.00540970 -0.00020421 0.00205710
C 12.76231430 2.80586679 1.93780074 -0.00102920 0.00634357 0.00272180
C 15.73039798 29.53422539 3.18594931 0.00125642 -0.00158636 -0.00213874
C 12.49083498 2.73377342 6.66684453 -0.00478559 -0.00528953 0.00002867
C 15.57237945 29.68668981 7.83022798 -0.00360485 0.00739304 0.00102991
C 12.55956390 2.68836439 11.19943073 0.00540085 -0.00155876 0.00377489
C 15.48949850 0.03752259 12.45197581 -0.00459889 -0.00004940 0.00142470
C 12.59551486 2.61143030 16.11041255 0.00754762 0.00026377 0.00508258
C 15.49285345 29.63926235 17.21026204 0.00731200 -0.00299231 0.00275784
C 12.68626922 2.82676114 20.75016930 0.00468717 -0.00315320 -0.00021358
C 15.82013860 29.69066483 22.11900329 0.00497956 0.00289302 0.00395430
C 13.14395002 8.45952353 1.69977690 -0.00376565 -0.00079986 0.00380131
C 16.06745753 5.41396936 3.03027457 -0.00429734 -0.00119092 0.00131576
C 13.14401694 8.53110326 6.40450420 0.00229676 -0.00201905 0.00365214
C 16.04947516 5.44603373 7.62344503 -0.00021691 0.00547929 -0.00070057
C 12.98112344 8.29035191 11.23030146 0.00778984 0.00072057 -0.00411565
C 16.18231384 5.54186820 12.49535207 -0.00295182 0.00533537 0.00221921
C 13.01419609 8.32322263 15.94272629 -0.00011594 -0.00857907 0.00124662
C 16.13813465 5.33040474 17.22439740 0.00189886 -0.00272928 -0.00077490
C 13.06275157 8.41314721 20.77398963 -0.00148156 -0.00079661 -0.00199936
C 16.17053213 5.27794369 21.96686632 0.00048095 -0.00093026 -0.00026238
C 12.23237841 14.87943066 1.74651112 0.00301389 0.00631890 -0.00724038
C 15.51546324 12.03508285 2.89266560 -0.00031689 -0.00205440 0.00081000
C 12.39295524 14.96982491 6.31844648 0.00164456 -0.00372064 -0.00250357
C 15.57000653 11.95421312 7.49896068 0.00115446 0.00278731 -0.00286173
C 12.62591572 14.76029267 10.95601125 -0.00028414 -0.00377453 0.00057135
C 15.66408209 11.88682265 12.39454224 0.00410738 -0.00510216 0.00069176
C 12.41555333 14.74338067 15.99508025 -0.00107630 -0.00417923 -0.00212877
C 15.53227635 11.69563349 17.01466008 0.00365793 0.00216647 -0.00469448
C 12.72929465 14.61206963 20.67373160 -0.00235104 -0.00265276 -0.00037697
C 15.51286486 11.99326677 21.95380367 -0.00329751 -0.00885865 0.00389560
C 11.82482394 21.45064123 1.58604438 0.00363631 -0.00032192 -0.00578908
C 14.69257939 18.56101572 2.96198160 0.00032733 0.00274308 -0.00552219
C 11.74797437 21.48733582 6.46347885 0.00085274 0.00550659 0.00143576
C 14.74129135 18.44503196 7.79568695 -0.00295633 -0.00692923 -0.00390658
C 11.80060137 21.45456540 11.31973406 0.00335931 0.00374633 -0.00217108
C 15.08364841 18.56017862 12.62337344 0.00583008 0.00273841 -0.00257671
C 11.76635959 21.46464186 16.01242516 0.00058724 -0.00510310 -0.00516219
C 14.84020244 18.41241152 17.15591886 -0.00262211 0.00713206 -0.00439538
C 11.76284457 21.46503593 20.72771642 0.00049604 0.00027944 -0.00112992
C 14.76574738 18.41127972 21.93908393 -0.00248578 -0.00682230 0.00828634
C 12.29961983 27.05519076 1.69040909 -0.00470816 -0.00193619 -0.00543138
C 15.22208765 23.98498432 2.98834913 -0.00227341 0.00327731 0.00268587
C 12.06100878 27.11025329 6.52202992 0.00256498 0.00073388 -0.00244221
C 15.25836563 24.01885405 7.88779640 0.00228131 0.00278407 -0.00049757
C 12.09533322 27.17759286 11.24900427 0.00367859 -0.00582710 -0.00134670
C 15.31297166 24.00152448 12.53652633 -0.00085582 -0.00203518 -0.00122367
C 12.34061882 26.96136939 15.95027413 0.00121291 0.00455049 0.00143992
C 15.22962350 24.13893975 17.29586822 -0.00558215 0.00063079 0.00238912
C 12.25563574 27.13033821 20.79605747 -0.00102767 0.00130654 -0.00068609
C 15.18290918 23.96196909 21.86110534 0.00006519 -0.00400402 0.00380638
C 19.33941424 2.42641545 1.74311906 -0.00742806 0.00075976 -0.00350012
C 22.31919314 29.32792878 3.09587136 -0.00419439 -0.00515781 -0.00816240
C 19.32928804 2.29096512 6.44976017 0.00135817 0.00257483 0.00332853
C 22.30722700 29.16822699 7.73971855 -0.00073152 -0.00137916 -0.00573181
C 19.12835453 2.36565126 11.28432515 0.00125368 0.00329673 0.00307160
C 22.25079163 29.44585135 12.54291885 -0.00182265 0.00332724 -0.00596978
C 19.11180656 2.40986716 15.92199388 -0.00252822 -0.00078923 -0.00656228
C 22.43043332 29.43932746 17.26534738 -0.00198432 0.00228686 0.00179647
C 19.36288715 2.31702366 20.69632185 0.00004530 0.00349175 0.00377135
C 22.32145960 29.33069793 22.00787576 -0.00019710 0.00243162 0.00105549
C 18.49107070 8.85568443 1.78149156 0.00531784 0.00477587 -0.00229593
C 21.72352493 6.14607827 3.16188224 0.00019197 0.00327950 0.00196760
C 18.54518817 9.12094002 6.40978554 0.00839624 -0.00368177 0.00058571
C 21.96500896 5.82721386 7.92451839 0.00252508 -0.00097295 0.00448477
C 18.62801338 8.84618656 11.10752925 -0.00408126 0.00270471 -0.00195008
C 21.82447386 6.12596993 12.49820235 0.00228444 0.00289303 0.00667039
C 18.64113345 8.93155899 16.15235674 0.00194426 0.00183917 0.00734371
C 21.63972166 6.08284562 17.27425738 -0.00000151 -0.00267569 0.00038492
C 18.48973394 8.86078321 20.76732827 -0.00071718 -0.00029889 -0.00119532
C 21.81343724 6.14475305 22.02358877 0.00316048 0.00329334 -0.01003255
C 17.83233819 15.66309406 1.63601117 0.00457905 0.00095663 -0.00003445
C 20.83358745 12.60639586 2.89111060 0.00449167 -0.00183425 0.00839503
C 17.67287949 15.62411477 6.32878828 -0.00383007 0.00064999 -0.00004662
C 20.96191283 12.52802997 7.66059515 0.00256741 -0.00169018 0.00603432
C 17.66642907 15.49705830 11.06213493 0.00023105 0.00235344 0.00123767
C 20.98477352 12.45577689 12.51265318 -0.00457019 0.00034991 0.00464624
C 17.94762338 15.61565768 15.80754651 0.00030653 -0.00237682 0.00517872
C 21.16412844 12.62883163 17.40011096 0.00293458 0.00185803 -0.00202851
C 17.98264201 15.40599108 20.48716218 0.00044749 -0.00020751 -0.00135053
C 20.97142821 12.51333328 21.99865305 0.00150481 -0.00148368 -0.00611735
C 18.37761612 21.19226148 1.66730704 -0.00284789 -0.00221133 -0.00702930
C 21.43371883 18.12189951 2.92598354 -0.00373086 0.00446437 -0.00093509
C 18.33727126 21.09687301 6.46112511 0.00308496 -0.00171664 0.00133552
C 21.26953035 17.93395362 7.75242325 0.00090041 -0.00025908 -0.00194869
C 18.50239745 20.99131385 11.21476210 -0.00036749 0.00417379 0.00035881
C 21.27259132 18.13626726 12.60866866 0.00350061 -0.00330359 0.00056225
C 18.51199681 21.13334547 16.08976302 0.00519584 -0.00123719 -0.00206854
C 21.66444364 18.36448826 17.34032837 0.00340745 -0.00578657 -0.00158685
C 18.27156981 21.22141988 20.69191889 0.00160120 -0.00320889 -0.00130544
C 21.63330922 18.01837186 22.02682993 -0.00331136 -0.00291667 -0.00101136
C 18.80305248 26.84964575 1.68902039 0.00307978 -0.00095471 0.00242824
C 22.11092547 23.37823317 3.04050948 -0.00258529 0.00271087 -0.00268173
C 18.71691482 26.72810077 6.41858545 0.00249580 -0.00185170 -0.00094428
C 21.87699180 23.67462911 7.77432231 0.00209832 0.00404308 -0.00367474
C 18.70724198 26.54093619 11.18318625 -0.00157451 0.00522075 -0.00195339
C 22.12771658 23.95385530 12.56105525 -0.00026440 -0.00389088 -0.00598670
C 18.78011244 26.61349602 15.82439071 0.00735687 0.00677896 0.00221893
C 21.80222322 23.70197319 17.21571900 -0.00891579 -0.00043058 -0.00364334
C 18.74709556 26.88793932 20.64306477 -0.00060021 -0.00413574 -0.00027152
C 21.94914122 23.83703359 21.96337046 0.00799601 -0.00000087 0.01185059
C 24.73497135 3.15119951 1.68592949 -0.00152050 -0.01117250 0.00388928
C 27.98036482 29.76664581 3.25242655 -0.00491546 0.00435171 -0.00495560
C 24.87506531 2.86604508 6.48281305 0.00276069 0.00197444 0.00638951
C 27.92678926 29.80575668 7.95777801 0.00222762 -0.00207655 -0.00165683
C 24.60803328 2.83895838 11.19480530 0.00035929 0.00293807 0.00680860
C 27.94710574 29.75956307 12.60023324 -0.00300786 -0.00751490 -0.00425587
C 24.71066657 2.88911841 15.87014066 -0.00719784 -0.00132374 0.00371772
C 27.92614249 29.83928984 17.25703639 -0.00211204 0.00422284 0.00557980
C 24.78652784 3.14611636 20.64127543 0.00000149 -0.00466068 -0.00215422
C 27.75191080 0.00642180 22.03352025 0.00180349 0.00320827 0.00265391
C 24.23201863 9.77549729 1.71716468 0.00882028 -0.00405507 0.00024712
C 27.21178322 6.50070069 3.13744228 -0.00614101 -0.00142282 0.00876838
C 24.28664684 9.78667249 6.30302960 0.00506042 -0.00327489 0.00028081
C 27.26969066 6.81827900 7.84158817 0.00040576 0.00160150 -0.01002950
C 24.13170550 9.56318856 11.10316758 0.00057109 0.00199555 0.00112854
C 27.50624945 6.75243385 12.61424822 -0.00763230 -0.00157029 -0.00261143
C 24.26146410 9.78675883 15.98090598 -0.00791354 -0.00462514 0.00724153
C 27.44217518 6.66239945 17.22311585 0.00167125 0.00063884 -0.00803299
C 24.16584501 9.76175946 20.59984951 -0.00146946 0.00607010 0.00985804
C 27.47208504 6.47798564 21.89615808 0.00376204 -0.00399511 -0.00139557
C 24.54546573 14.99085496 1.81003339 -0.00499572 0.00429505 -0.00433410
C 27.78661917 11.99564411 2.99217380 -0.00300116 -0.00193016 -0.00173161
C 24.51327662 15.13307609 6.62064062 -0.00911628 0.00596673 -0.00041714
C 27.72208653 12.30820741 7.64213271 0.00038735 -0.00249961 0.00789802
C 24.61568083 15.19451809 11.24763608 -0.00402975 0.00107424 0.00558458
C 27.65419203 12.32129029 12.44238065 -0.00389259 -0.00365003 -0.01019121
C 24.55880519 15.30198382 15.99108359 -0.00363263 0.00015381 -0.00443988
C 27.65765743 12.35496123 17.28819035 0.00198236 -0.00368593 -0.00183701
C 24.72996813 15.42782690 20.73039842 -0.00245780 0.00045969 0.00185655
C 27.70191840 12.25598191 21.98422821 0.00624392 -0.00386514 0.00662519
C 24.95449617 20.59050359 1.70147092 0.00304700 -0.00086564 -0.00048474
C 27.99887662 17.80955159 2.88670171 -0.00110276 -0.00144042 -0.00310495
C 24.94946314 20.68438170 6.47757588 -0.00121432 -0.00273080 0.00336445
C 28.12732938 17.85753015 7.88821153 0.00480496 -0.00503838 -0.00225961
C 24.96507303 20.66452922 11.03970403 0.00652221 -0.00191918 0.00432709
C 28.09467460 17.79223025 12.51647380 0.00022500 0.00098850 -0.00307819
C 24.97859529 20.88395314 15.99192662 0.00058113 -0.00217924 0.00509756
C 28.17292943 17.91815910 17.11338131 -0.00052289 -0.00510333 -0.00504645
C 25.14104857 20.73546992 20.62712549 0.00614068 -0.00581136 -0.00112602
C 27.83914874 17.72619297 22.00193611 0.00455351 -0.00377124 -0.00236219
C 25.36850030 26.24065916 1.86856981 0.00496121 0.00245569 -0.00800532
C 28.69695019 23.54119554 3.16488011 -0.00142910 0.00209090 -0.00386088
C 25.27441891 26.16979988 6.64335794 0.00144540 -0.00566736 -0.00380011
C 28.40847830 23.32066358 7.69357877 -0.00266980 0.00352748 -0.00259288
C 25.55709458 26.22630259 11.31032611 -0.00489324 -0.00061095 0.00528465
C 28.52241156 23.20756732 12.55762898 0.00072373 -0.00443096 -0.00303969
C 25.39859683 26.30133853 16.07706393 0.00094968 0.00285180 0.00214102
C 28.49008377 23.52602070 17.15424697 0.00360454 -0.01165382 0.00200108
C 25.42290797 26.40391424 20.68841430 0.00819115 -0.00890842 -0.00613299
C 28.61896270 23.32787858 21.95737182 -0.00142296 0.00617997 0.00756298
N 30.88703593 4.57505475 1.12589399 -0.00018139 0.00087332 -0.00529210
N 3.33619775 5.20482510 3.80363277 0.00409317 -0.00071245 -0.00713197
N 5.23342519 2.27364581 1.20700991 -0.00206224 0.00517508 0.00710031
N 1.76247235 1.36593041 3.69478958 -0.00071332 -0.00342530 0.00031908
N 0.04847404 4.21276008 5.69035865 0.00402576 0.00020000 -0.00027177
N 3.26826450 5.09898431 8.41956928 0.00015853 0.00061414 0.00097342
N 5.24877418 2.31879649 5.74016141 -0.00285797 -0.00774251 -0.00237318
N 1.74879542 1.47894140 8.50933409 0.00214589 0.00461394 0.00130042
N 0.10148280 4.48884875 10.63066184 0.00359996 0.00698140 -0.00736064
N 3.62507922 5.11165368 13.24332248 0.00166282 0.00171927 -0.00817530
N 5.18040989 2.54824941 10.33864339 0.00497925 0.00179629 -0.00169339
N 1.85143560 1.41654383 13.16704766 -0.00179748 -0.00080826 0.00606131
N 0.14399166 4.52944120 15.38581810 0.00091479 -0.00063197 -0.00039552
N 3.38249054 5.17743389 18.03975286 -0.00218077 -0.00285116 0.00056014
N 5.20697170 2.46269092 15.21630549 0.00298669 -0.00180924 -0.00696751
N 1.68795195 1.37370536 17.98191312 0.00175814 0.00352426 0.00170569
N 0.26747542 4.50747262 20.03450286 0.00160082 -0.00001165 -0.00530768
N 3.33139453 5.11414630 22.78866089 -0.00096856 0.00200221 0.00507826
N 5.16384998 2.24817168 19.96340897 0.00930709 0.00402292 -0.00437613
N 1.58907993 1.42645917 22.73238940 0.00779157 0.00134792 -0.00074274
N 0.42451515 10.05172259 0.98752101 0.00349376 -0.00391812 0.00231566
N 3.99705019 10.58736657 3.80377825 -0.00006621 0.00095851 0.00146863
N 5.45258050 7.77294315 1.12758258 0.00503441 0.00403580 -0.00402438
N 2.01836383 7.08103665 3.85166558 -0.00118602 -0.00060351 -0.00079086
N 0.60331825 10.25245074 5.69049445 -0.00068486 -0.00253502 0.00618936
N 3.96653305 10.70718029 8.67940011 0.00470832 0.00476998 0.00331499
N 5.55393815 7.97699435 5.61250249 0.00338906 0.00007102 0.00031624
N 2.25613392 7.10208543 8.70601585 0.00151758 -0.00497650 0.00212877
N 0.71945796 10.03536044 10.34625689 -0.00082278 -0.00202548 -0.00125912
N 4.07370716 10.83272123 13.43619410 0.00107525 -0.00256050 0.00110966
N 5.62330246 7.87632931 10.52474461 -0.00486335 0.00146913 0.00080779
N 2.36249154 7.09329381 13.10836144 -0.00450340 -0.00032067 0.00459443
N 0.77059531 9.97254952 15.26495557 -0.00046784 0.00743367 -0.00334274
N 3.78783121 10.75146340 17.99380125 0.00043271 0.00139465 -0.00106576
N 5.61094815 7.91750979 15.13730236 -0.00016395 0.00243793 -0.00415333
N 2.23925542 7.15367552 17.81450419 -0.00142622 0.00350298 -0.00402335
N 0.68590431 10.03896909 19.83635158 0.00139396 -0.00148442 -0.00430059
N 3.67182816 10.62944618 22.64216209 -0.00272760 0.00332539 0.00094842
N 5.57943193 7.69980212 19.98133044 0.00589192 0.00177771 0.00287201
N 2.09524788 7.02592343 22.79488801 0.00131106 0.00041002 0.00002491
N 1.04097381 15.36410816 1.21763962 0.00151334 -0.00107037 0.00408967
N 4.54059858 16.34018934 3.85282955 -0.00232944 -0.00067705 0.01119305
N 6.08173556 13.10780709 1.16736153 -0.00605127 0.00215257 -0.00119675
N 2.87192232 12.60564997 3.69009315 0.00586965 0.00303873 -0.00440800
N 1.24379055 15.46657715 5.53955524 0.00222104 0.00016916 -0.00302306
N 4.58699028 16.51094820 8.44516303 0.00093764 0.00097297 0.00234349
N 6.16040920 13.23966046 5.80179075 0.00067046 -0.00094254 -0.00327935
N 2.85404359 12.73646060 8.62156906 -0.00014445 0.00017080 0.00140984
N 0.88634514 15.47572249 10.35526784 0.00159080 -0.00234533 -0.00429151
N 4.59728419 16.47322921 13.33077384 0.00016795 0.00713802 -0.00267416
N 6.15048717 13.66868048 10.49344366 0.00083858 0.00389565 -0.00652372
N 2.66475027 12.61892385 13.20727458 0.00289330 0.00079926 0.00387595
N 1.23216286 15.50132567 15.30128138 0.00215343 0.00259653 0.00502258
N 4.56714702 16.35423569 18.01848587 -0.00009872 0.00066954 0.00174695
N 6.26032594 13.65101901 15.26957369 0.00078088 0.00458201 0.00358299
N 2.98017695 12.91712399 17.98903415 0.00240843 -0.00752493 0.00489342
N 0.98009745 15.54762193 19.90746720 0.00013930 0.00048470 0.00007252
N 4.32251234 16.55486475 22.92365968 -0.00064284 0.00115217 0.00377428
N 6.24684720 13.34730787 20.01713412 0.00534458 0.00282982 0.00223075
N 2.89928494 12.76325984 22.72151160 0.00390850 -0.00188646 -0.00304745
N 1.42166860 20.88955845 0.95376902 -0.00543884 -0.00031909 0.00614045
N 3.96328177 23.06649678 3.73598158 0.00064236 -0.00267220 -0.00092215
N 5.44818171 20.02561463 0.93025759 0.00296593 0.00079583 0.00384044
N 3.00088164 18.12474635 3.78402268 0.00405737 -0.00319322 -0.00423135
N 1.32664176 21.02246366 5.75005064 0.00420179 -0.00641184 0.01012448
N 4.32246489 23.24085555 8.79008622 -0.00038605 0.00342465 -0.00354592
N 5.27493042 20.03870114 5.85692629 0.00125325 0.00544199 -0.00673449
N 2.79489871 17.90251390 8.72594498 -0.00168512 -0.00416900 -0.00044048
N 1.64381071 21.12100330 10.58026033 -0.00042324 0.00245203 -0.00165542
N 3.98167356 23.13843518 13.27246473 0.00201637 0.00245061 -0.00936398
N 5.47923139 19.94582615 10.59317829 0.00393120 -0.00201671 0.00316367
N 2.93023658 18.10244793 13.13361470 -0.00216184 -0.00166944 0.00333573
N 1.35285055 21.07328911 15.09132056 -0.00384541 0.00180078 0.00236745
N 4.13890766 23.38304836 18.00421004 -0.00279428 -0.00010851 -0.00410698
N 5.29535933 20.02278936 15.25877010 -0.00003492 0.00451542 -0.00158660
N 3.04178069 18.04655300 18.11575058 -0.00187536 -0.00485379 -0.00450834
N 1.50772725 21.13466250 19.94873294 0.00002690 -0.00103155 0.00378989
N 4.08440156 23.24858191 22.68038934 -0.00286595 0.00224160 0.00499274
N 5.67641912 20.02248530 19.85215864 0.00323153 -0.00008798 0.00021240
N 2.60552921 18.10764671 22.74433210 -0.00364998 0.00496574 0.00437240
N 0.76465424 27.72129102 0.97233143 -0.00063671 -0.00046634 -0.00529108
N 3.45871323 29.68171325 3.46533772 -0.00537487 -0.00560592 -0.00370252
N 4.77675068 26.85060885 0.93908415 0.00042029 0.00402044 0.00084764
N 2.04279695 24.39812969 3.71814872 -0.00128669 0.00232845 -0.00293508
N 0.90877108 27.67996404 5.84858730 -0.00140093 -0.00410533 -0.00194109
N 3.55746525 0.03742373 8.55952456 0.00369603 -0.00270980 -0.00210705
N 4.71210297 26.66415516 5.83995487 0.00301937 -0.00195201 0.00066290
N 2.23040418 24.21643091 8.65672429 0.00137962 0.00243704 0.00034842
N 1.04164427 27.65637100 10.68179648 -0.00095134 -0.00300069 0.00367333
N 3.46618034 29.69200908 13.12661139 -0.00422534 0.00712809 -0.01001130
N 4.68772011 26.68087275 10.40753608 0.00152228 -0.00066530 -0.00355556
N 2.00137170 24.32171051 13.38291500 -0.00016408 0.00754868 -0.00241296
N 0.81203913 27.69172981 15.13806349 -0.00175767 -0.00422547 0.00208052
N 3.40977637 29.81143409 17.82263420 0.00474055 -0.00337725 -0.00257439
N 4.86543080 26.61528720 15.30503324 -0.00069003 -0.00141659 -0.00306185
N 2.11509312 24.48226618 18.00549637 0.00123276 0.00321004 0.00475774
N 0.82339886 27.71831098 19.72651229 0.00221800 0.00288712 -0.00463877
N 3.24837312 29.77260462 22.66908260 0.00274451 -0.00229641 0.00188071
N 4.66894563 26.64460390 20.11316501 -0.00151524 0.00817678 -0.00224929
N 2.08892583 24.32955494 22.83805458 0.00148410 0.00112496 -0.00176429
N 6.70327797 3.98210045 0.93873042 -0.00122918 -0.00638527 -0.00265509
N 10.39096585 4.90785080 3.73072085 0.00581548 -0.00489333 0.00203989
N 11.94292094 2.01589418 1.24399585 -0.00203278 0.00120676 -0.00781709
N 8.51931247 1.16906125 3.59091849 0.00220360 0.00148760 0.00110596
N 6.84602173 4.02651591 5.82312995 0.00533519 0.00200671 0.00129319
N 10.11778013 5.01013161 8.61443960 0.00268272 0.00563604 0.00261190
N 11.66847782 1.95863534 5.93743329 0.00346914 -0.00507416 -0.00056462
N 8.34553136 1.04785057 8.48587902 -0.00397606 -0.00270570 0.00248365
N 6.73536888 4.05707637 10.66185485 0.00842728 0.00295291 -0.00270171
N 10.10146229 4.72033006 12.99291059 -0.00409933 0.01067713 -0.00497223
N 11.70449210 1.91015336 10.50191047 0.00162464 0.00335454 -0.00440801
N 8.44196088 0.99366304 13.26368331 -0.00348922 0.00253319 -0.00097713
N 6.84222232 3.99552200 15.14117388 0.00467431 0.00030655 0.00097732
N 9.91474240 4.71762718 17.85719407 -0.00347913 -0.00145758 -0.00316601
N 11.70727461 1.82128856 15.39059342 0.00484048 -0.00204030 -0.00801168
N 8.49713045 1.15424569 18.02675488 -0.00332398 -0.00562864 -0.00367930
N 6.63626769 4.01544497 19.91876027 0.00182968 0.00024101 -0.00144832
N 10.15874790 4.85847370 22.95787594 0.00484070 0.00127238 -0.00398476
N 12.07781199 1.82254455 20.06052007 -0.00956668 -0.00079850 0.00123332
N 8.42688778 0.88517742 22.57755093 -0.00278160 -0.00104260 -0.00621775
N 6.99501532 9.41769849 1.05847060 0.00264321 -0.00436356 -0.00060387
N 11.04448297 10.58988132 3.79289567 -0.00153136 0.00452576 -0.00032244
N 12.41832808 7.60231447 0.96922145 -0.00110105 0.00491472 -0.00674910
N 9.25012816 6.90909112 3.75036198 -0.00229099 0.00416166 -0.00374209
N 7.24754571 9.42743904 5.84319007 0.00227966 0.00369438 0.00002742
N 10.85658218 10.71029385 8.52457057 -0.00011774 -0.00058756 -0.00102862
N 12.27106961 7.77467571 5.68729653 0.00236442 -0.00148654 0.00001309
N 8.75760478 7.00395697 8.45196551 0.00603005 -0.00003395 -0.00471486
N 6.89926701 9.82714921 10.29603043 0.00165366 -0.00272578 0.00780421
N 10.62529754 10.38589234 13.10138924 -0.00037622 -0.00551754 0.00388682
N 12.17582359 7.51372719 10.46202520 -0.00089335 -0.00141550 0.00049192
N 8.96695031 6.71957446 13.26891026 0.00004945 -0.00254011 0.00688092
N 7.27364372 9.52711836 15.22608196 -0.00288557 -0.00017391 -0.00281858
N 10.83162885 10.46520229 17.73611556 -0.00328655 -0.00063006 -0.00023079
N 12.17657795 7.53421167 15.23062897 0.00484450 -0.00642820 0.00311861
N 9.04934785 6.82146082 17.89447064 -0.00059259 -0.00042066 -0.00019385
N 7.10661512 9.39914375 19.99485923 -0.00496311 0.00331236 -0.00370825
N 10.80776276 10.45352679 22.65388925 0.00191070 -0.00169976 0.00095203
N 12.29099755 7.61078180 20.04442124 0.00030051 -0.00283418 0.00286363
N 9.09068035 6.83352040 22.65355075 -0.00700303 -0.00071019 -0.00470917
N 7.42206655 14.97741800 1.03688374 -0.00151235 -0.00260470 0.00330907
N 10.09812298 16.84177995 3.62297925 0.00083152 0.00036058 -0.00122049
N 11.47587885 14.08384625 0.96405107 0.00714151 -0.00505722 0.00070384
N 9.27489737 12.01532324 3.89181104 -0.00377436 -0.00202973 0.00561855
N 7.79249454 14.92691598 5.72639013 -0.00070818 0.00180488 -0.00356067
N 10.17436914 17.25178725 8.38728931 0.00095136 0.00104623 -0.00101186
N 11.63376309 14.05102491 5.71307708 -0.00537392 -0.00106359 -0.00550976
N 9.15415682 12.19399629 8.73866072 0.00551306 0.00094088 -0.00256817
N 7.84473369 15.27261170 10.35057152 -0.00486952 -0.00166074 -0.00506251
N 10.73920668 17.59284702 12.94455010 0.00102794 -0.00622593 -0.00738101
N 11.64171123 14.05242689 10.24441813 0.00280674 -0.00169755 -0.00556932
N 9.16453802 12.28009354 13.18481842 0.00085275 -0.00599169 -0.00293316
N 7.68588693 15.42222860 15.31309392 -0.00569885 -0.00559056 -0.00213175
N 10.61849521 17.35879968 17.98642538 0.00056674 -0.00145618 0.00473658
N 11.79045165 13.82984939 15.18605705 -0.00266720 -0.00037579 0.00068160
N 9.09146393 11.89566367 17.99358378 -0.00262547 0.00299273 0.00497058
N 7.82462669 15.04945779 20.04910887 -0.00001769 -0.00404613 -0.00488173
N 10.32513037 17.37931345 22.61635804 -0.00067312 -0.00166097 0.00412493
N 11.84167036 13.79310382 20.16701314 0.00358419 -0.00051927 0.00443548
N 8.96707120 11.76780323 22.67350126 -0.00071940 -0.00172895 -0.00038965
N 6.94373931 21.68301129 1.11613520 -0.00315965 0.00454126 0.00429732
N 9.43616767 23.74605860 3.75799339 0.00158618 0.00113067 0.00059405
N 11.05535552 20.56581121 0.90123017 -0.00266815 0.00082538 -0.00362820
N 8.11917095 18.24771476 3.66612002 0.00016632 0.00391430 0.00469673
N 6.88759769 21.73971499 5.81142074 -0.00048648 0.00099358 0.00604300