2000
Time=73000.00000007 pbc="T T T" Lattice="30.95101224 0.00000000 0.00000000 0.00000000 30.18502477 0.00000000 0.00000000 0.00000000 23.67718735" energy=-12039.66600227 virial="-50.65546754 -9.99077359 5.37676692 -9.99077359 -51.79008286 -9.85829532 5.37676692 -9.85829532 -73.63781749" stress="-0.00008027 -0.00032488 0.00029433 -0.00032488 -0.00016263 -0.00050773 0.00029433 -0.00050773 -0.00060658" Properties=species:S:1:pos:R:3:vel:R:3
C 30.41314789 3.50741811 1.74877430 0.00142173 0.00537349 0.00051249
C 2.28758264 0.58198274 3.05536745 0.00373245 -0.00004320 -0.00272686
C 30.47945464 3.63217265 6.39579443 0.00133391 -0.00507123 0.00392539
C 2.51292586 0.37858601 7.72039454 -0.00090952 0.00066790 -0.01030125
C 30.16166541 3.32796167 11.09147185 -0.00650866 -0.00121371 -0.00708046
C 2.37280464 0.44075953 12.53359261 0.00223278 0.00040041 -0.00255507
C 30.27644296 3.68379574 15.69886910 -0.00399467 -0.00871056 0.01187786
C 2.47683166 0.64297039 17.03548084 0.00424315 0.00465864 0.00483366
C 30.34079388 3.51230257 20.50747140 0.00388248 0.00079277 0.00097941
C 2.23769159 0.30190277 22.13836848 0.00317414 -0.00177853 -0.01294256
C 30.71735125 9.28361205 1.57099430 -0.00204310 0.00034210 0.00762670
C 2.68576913 6.20339276 2.94275170 -0.00143679 0.00083928 -0.00879225
C 30.77214886 9.06361875 6.37805876 -0.00729828 0.00037419 -0.00244183
C 2.71506195 6.26788274 7.67427797 0.00325511 0.00298429 0.00053421
C 30.83502860 9.46799085 11.19506754 0.00032772 -0.00707431 -0.00575576
C 2.97595515 6.23907611 12.47973484 0.00260543 -0.00104403 0.00463438
C 30.92579137 9.25458111 15.85404925 0.00132269 -0.00489177 0.00859947
C 2.76380877 6.10699897 17.16317513 0.00069245 -0.00098734 0.00263187
C 30.81694529 9.27861324 20.47570351 0.00115651 0.00880942 0.00002132
C 2.85464251 6.16777836 21.79265104 -0.00233984 -0.00214669 0.00209252
C 30.86058373 15.00049451 1.71883989 0.00337723 0.00420092 -0.00610035
C 3.38278130 12.01107379 2.96997130 -0.00475381 0.00471158 0.00058444
C 0.36658321 14.96204849 6.42431756 0.00861056 0.00275150 0.00638767
C 3.46888354 11.98711826 7.51291207 -0.00027736 0.00597955 0.00059012
C 0.42398489 15.01741618 11.14524676 0.00793453 -0.00440792 0.00018438
C 3.43342805 12.01573577 12.25218897 -0.00073913 0.00271355 -0.00675492
C 0.27916663 14.71667090 15.73188716 -0.00522172 0.00743931 0.00424956
C 3.29840512 11.94336993 17.34150298 0.00231365 -0.00161369 -0.00023592
C 0.07460875 15.03219488 20.46535887 -0.00111182 -0.00284445 -0.00084743
C 3.30346033 12.02647737 21.93742178 -0.00254652 -0.00475726 0.00144636
C 0.58118655 20.46755224 1.77083421 -0.00062063 0.00044708 0.00178200
C 3.88067762 17.63862311 2.97023205 -0.00028745 0.00430264 0.00075464
C 0.26288303 20.51752155 6.50899896 -0.00570677 0.00445090 -0.00591063
C 3.62911133 17.71187915 7.71207593 -0.00406272 -0.00280787 -0.00258529
C 0.72642382 20.42846833 11.25267044 -0.00034100 -0.00085141 -0.00123189
C 3.83578695 17.69827767 12.44470911 0.00222289 0.00400899 0.00140958
C 0.57212188 20.57186596 16.01095220 -0.00253356 -0.00627775 -0.00221183
C 3.46779825 17.42633418 17.18139319 0.00063742 -0.01134754 0.00082051
C 0.48184954 20.94044648 20.63389951 -0.00111087 -0.00042929 -0.00270033
C 3.40219714 17.60458099 22.05884529 0.00855985 -0.00413345 0.00209159
C 0.02638124 27.11198346 2.00565771 -0.01472783 0.00391837 -0.00093247
C 3.26186238 24.37097867 2.97251118 0.00275580 0.00587457 -0.00115165
C 0.21074919 26.91545539 6.44123182 0.00251094 0.00544242 -0.00001814
C 3.33915302 23.82109859 7.74139706 -0.00269946 0.00167088 -0.00014445
C 30.61979531 27.02573734 11.09353039 0.00033178 -0.00775839 0.00011410
C 3.26590238 24.12165067 12.54499712 0.00234009 0.00235157 -0.00833698
C 30.85215084 27.31213176 15.97856706 -0.00219599 -0.00274508 0.00398592
C 2.99363105 24.28915297 17.30153600 0.00289976 -0.00163792 0.00292671
C 0.24921734 27.27400953 20.76486028 0.00582011 0.00607416 0.00345518
C 2.94302993 24.35081915 21.88846704 -0.00002957 0.00386188 0.00019885
C 5.81837006 3.37551506 1.69653270 -0.00011342 0.00549599 0.00420017
C 8.88206349 0.42666148 3.00179651 0.00163387 0.00165372 -0.00200672
C 6.03708351 3.34537204 6.65254253 0.00169407 0.00072824 0.00052342
C 8.88714868 0.10338815 7.76401105 0.00513655 -0.00185329 0.00150631
C 5.76017742 3.19370505 11.18841691 -0.00228414 -0.00287098 -0.00480424
C 8.93233620 0.17877044 12.40890214 -0.00090845 -0.00391687 -0.00289851
C 6.11549027 3.20912768 15.87992743 0.00058456 0.00225482 0.00077512
C 9.33669936 0.08647027 17.22901952 -0.00623484 -0.00369594 0.00023677
C 6.12813564 3.19597856 20.80936301 0.00434815 -0.00002881 0.00748192
C 8.85171364 0.06438086 22.11910156 -0.00091521 0.00079438 0.00576915
C 6.31411002 8.58651695 1.74514503 0.00083223 -0.00402737 -0.00170513
C 9.41073343 5.68195112 3.00653027 -0.00582828 0.00719695 0.00231474
C 6.39605489 8.83828218 6.25511459 -0.00369932 -0.00878857 -0.00130487
C 9.75140674 5.93882341 7.71149531 -0.00518245 -0.00161755 -0.00479238
C 6.34932735 8.97614044 11.20877495 -0.00593859 -0.00493185 -0.00256520
C 9.57570971 6.13209117 12.38109273 0.00419862 0.00635487 -0.00061146
C 6.27083446 9.05442357 15.92750953 -0.00542518 0.00513528 -0.00232348
C 9.52163214 5.81729855 17.06839976 0.00349118 0.00972771 0.00166352
C 6.57228494 8.94297041 20.60236365 -0.00377950 0.00185286 0.00477745
C 9.30038769 5.92893237 21.90109371 0.00054513 0.00326205 -0.00029061
C 6.70030411 14.43220287 1.61078355 -0.00278682 -0.00260318 0.00229159
C 9.78761194 11.37420895 3.16545030 -0.00140544 -0.00944707 -0.00267218
C 7.13639359 14.51701686 6.41294106 0.00161256 0.00292305 0.00263932
C 9.91697738 11.49033829 7.85556913 0.00205083 -0.00186080 0.00806303
C 6.75923308 14.75902939 11.19281168 0.00029874 -0.00000804 -0.00519330
C 9.87643580 11.67184915 12.65324987 -0.00297349 -0.00079337 -0.00362498
C 6.83816853 14.58850406 15.94078579 -0.00622278 -0.00340193 0.00303371
C 9.92670124 11.60405434 17.17721296 -0.00389738 0.00262144 -0.00110234
C 6.69763988 14.65180902 20.70939858 -0.00194452 0.00445520 -0.00089365
C 9.78546485 11.54127691 21.94925290 -0.00740957 -0.00215783 -0.00533858
C 6.29718977 20.95675697 1.78892912 -0.00212587 0.00737943 0.00273288
C 9.55595502 18.24361722 2.99654153 0.00349402 -0.00117161 -0.00428261
C 6.37730127 20.79392379 6.40316343 0.00142451 -0.00293356 0.00202016
C 9.60087091 17.99553011 7.80622818 -0.00267656 -0.00102933 -0.00386431
C 6.47426864 21.07321052 11.33216987 0.00056039 0.00343801 0.00259038
C 9.45857662 18.18958731 12.58412086 0.00203207 -0.00098421 0.00630770
C 6.09767799 20.98583755 16.07930403 -0.00115183 -0.00399444 0.00065383
C 9.20628479 18.03158379 17.30572330 -0.00232167 -0.00305457 -0.00214781
C 6.06870136 21.06882894 20.68245618 -0.00505963 -0.00403008 -0.00409444
C 9.17761776 17.87308611 21.97593458 -0.00031222 -0.00064790 -0.00696138
C 5.34732859 27.87866278 1.93497555 0.00078058 0.00549168 -0.00164007
C 8.71027897 24.74767148 3.11294730 -0.00012512 -0.00536087 -0.00265590
C 5.52535437 27.85983317 6.73339389 0.00213765 0.00142950 -0.00063808
C 8.63595948 24.89611245 7.90238176 -0.01225043 -0.00408522 -0.00176053
C 5.64433707 27.73318865 11.46324920 0.00258948 0.00447099 -0.00383098
C 8.69289722 24.69599765 12.54890983 -0.00863316 0.00308868 -0.00252341
C 5.49997249 27.81334306 16.14821943 0.00090318 -0.00245196 0.00562147
C 8.43119701 24.56771762 17.25793912 0.00399472 -0.00550943 -0.00226651
C 5.65102928 27.71019918 20.80777507 0.00114462 0.00064672 0.00544739
C 8.47171137 24.64859088 22.16435628 -0.00057653 -0.00507764 0.00394904
C 12.45997466 2.95643299 1.79406473 -0.00960966 -0.00059226 0.00019201
C 15.26222160 29.76883488 3.00892887 -0.00321786 -0.00159569 0.00224871
C 12.68002882 2.79440255 6.36539362 -0.00651555 -0.00325748 -0.00242979
C 15.82710917 29.77847191 7.71255604 0.00473124 -0.00065383 -0.00359886
C 12.41843841 2.78921789 10.99065168 -0.00086590 0.00153853 0.00184672
C 15.77504415 30.02201169 12.52739414 0.00332011 0.00150050 0.00374005
C 12.71531112 3.03573855 15.82164910 -0.00316903 0.00348463 -0.00467259
C 15.76345838 30.09276901 17.33520495 -0.00115376 -0.00033461 0.00200050
C 12.53813782 2.89093460 20.55707497 -0.00112695 -0.00249346 0.00164419
C 15.67897994 0.03415736 22.11548524 -0.00076196 0.00187355 -0.00190905
C 12.77025030 8.20039100 1.79213866 -0.00182644 0.00387671 -0.00136666
C 16.08193074 5.27902875 2.83720026 -0.00488379 -0.00522448 0.00292497
C 13.18416919 8.28374644 6.27436577 -0.00140971 0.00528054 0.00143373
C 16.07248441 5.28834897 7.62792967 -0.00035488 -0.01080420 0.00694513
C 13.05698483 8.63766580 11.14728200 0.00442123 -0.00518957 0.00415637
C 15.77946279 5.47447121 12.39925391 -0.00101374 -0.00407135 0.00165614
C 12.95620293 8.54351800 15.95301890 -0.00316724 -0.00027895 0.00049646
C 16.20248353 5.46079457 17.04202282 -0.00164696 -0.00348077 0.00100684
C 12.94054534 8.15546051 20.63929676 0.00316264 0.00363321 -0.00645217
C 16.34245862 5.52604878 21.85128314 -0.00080018 0.00241566 0.00748762
C 12.60704098 15.06408851 1.87921456 0.00125446 -0.00571180 0.00082943
C 15.31793543 11.82386173 3.02305354 -0.00029710 0.00559974 -0.00051225
C 12.46026114 15.40756092 6.61541674 -0.00860002 0.00025006 0.00470935
C 15.26348364 12.06263261 7.88066956 0.00286502 0.00487963 0.00465561
C 12.20892916 15.10906585 11.08084192 -0.00395034 -0.00365104 0.00182590
C 15.74402523 12.11961370 12.53835470 0.00005169 0.00158170 0.00323661
C 12.38635202 15.00914221 15.97824620 -0.00080102 -0.00163185 -0.00208143
C 15.42392855 12.09818756 17.22598836 -0.00248788 -0.00049750 -0.00703286
C 12.44342819 15.09201348 20.81321397 0.00144873 0.00214419 0.00097902
C 15.26751381 11.95001586 21.84045262 -0.00694282 -0.00428461 -0.00595899
C 11.79020322 21.80301135 1.71450256 -0.00306659 -0.00265161 -0.00257366
C 14.91435795 18.57846967 2.86011005 0.00044809 -0.00408535 0.00204985
C 11.77870909 21.85165400 6.48892096 -0.00384267 -0.00213057 0.00051126
C 15.15846635 18.63155918 7.70949424 -0.00278000 -0.00554653 0.00294554
C 11.86275436 21.79954588 11.22516809 0.00139802 0.00081592 0.00349103
C 14.93252108 18.80688130 12.38939285 -0.00240602 0.00360083 0.00296769
C 11.70169743 21.94253664 16.01875258 0.00480364 -0.00567538 -0.00552564
C 14.87576458 18.91347729 17.22924313 0.00150654 0.00049296 -0.00588451
C 11.77297298 21.61115786 20.73945837 -0.00431877 -0.00018415 0.00717775
C 14.72752252 18.66614420 21.97319797 -0.00261485 0.00262221 0.00448199
C 11.86191016 27.40124047 1.72511164 -0.00217956 0.00212237 -0.00115715
C 14.95109575 24.15638984 3.02382030 0.00378903 0.00363830 0.00180792
C 12.18720867 27.19684106 6.64376294 0.01012017 0.00089244 0.00147870
C 15.22187480 24.32770965 7.87854488 0.00180672 -0.00460523 -0.00175671
C 12.12625662 27.61190850 11.17143404 0.00066021 0.00558563 -0.00422797
C 15.45589570 24.11279264 12.63532203 0.00378820 0.00211759 0.01110814
C 12.20049768 27.55173243 16.06120910 -0.00257196 -0.00536360 -0.00522070
C 14.87784698 24.32351861 17.25653758 0.00450662 0.00208868 -0.00094624
C 12.16977224 27.29925661 20.74372060 -0.00573876 0.00716514 -0.00552244
C 15.21020312 24.19489174 21.97207188 -0.00117164 0.00015829 0.00192058
C 19.24063853 2.14525119 1.77933764 0.00537240 0.00195513 -0.00003839
C 22.31140377 29.43689931 3.01681341 0.00036949 -0.00154578 0.00281128
C 19.21283365 2.25640119 6.47916098 -0.00586257 -0.00650968 0.00100570
C 21.98130083 29.29308884 7.81677309 -0.00639897 -0.00345537 -0.00113805
C 19.26409503 2.37677717 11.23284914 0.00176307 0.00305619 0.00591606
C 21.93362078 29.65033725 12.59489872 -0.00214451 -0.00109866 -0.00005200
C 19.08720206 2.53514681 15.99516819 0.00002346 -0.00189607 0.00158249
C 22.05255061 29.67114382 17.32083699 0.00095260 0.00379304 -0.00755343
C 19.25971184 2.40525637 20.84486442 -0.00192546 -0.00226441 0.00162272
C 22.26955083 29.56590685 22.08974099 0.00040934 0.00152353 0.00617589
C 18.77074592 8.79058706 1.67616467 -0.00316132 -0.00108127 0.00608398
C 21.57055135 5.85658117 2.95397701 -0.00141455 0.00436977 0.00383236
C 18.06327097 8.68878431 6.36433316 -0.00395100 0.00313412 0.00054235
C 21.69265701 5.92944781 7.70985003 0.00189413 -0.00724585 0.00199448
C 18.90392993 8.94987162 10.93504961 -0.00158902 0.00663228 -0.00484551
C 21.70769586 5.90710056 12.54400468 -0.00415517 0.00162515 -0.00246340
C 18.89325643 8.97568596 15.56169300 0.00336375 0.00279228 0.00151236
C 21.68137640 6.26502160 17.28917486 0.00164268 0.00141180 -0.00556956
C 18.59854766 9.03269517 20.43863958 -0.00335167 -0.00311698 0.00137799
C 21.82250818 6.15156209 21.90839378 -0.00261893 0.00066065 -0.00656019
C 18.00445170 15.57271636 1.67112226 -0.00091600 -0.00076424 0.00350762
C 21.13599372 12.60577572 3.06910762 -0.00116890 -0.00230597 -0.00048181
C 17.82179163 15.86391971 6.44895952 -0.00073914 -0.00476758 0.00257422
C 21.18556311 12.81530777 7.68230984 -0.00125417 -0.00352904 -0.00374221
C 18.33112846 15.75720295 11.19061821 0.00104742 -0.00519138 -0.00307136
C 21.23406931 12.52092351 12.25898114 -0.00202565 -0.00119308 -0.00229733
C 17.70447143 15.74635189 15.83604621 -0.00423959 -0.00713996 -0.00873920
C 20.98830323 12.81719509 17.00974129 0.00561660 -0.00251610 0.00118299
C 17.79533661 15.86569537 20.60307819 0.00845296 0.00233849 0.00088950
C 21.29904445 12.65948676 21.82267855 -0.01016948 -0.00214738 0.00226839
C 18.47982358 21.32565260 1.45072659 0.00134460 0.00691989 0.00140370
C 21.49900882 18.22180905 3.03891458 -0.00104855 -0.00521821 0.00016101
C 18.39548318 21.53511452 6.34854648 -0.00125610 0.00055743 -0.00192566
C 21.68762666 18.53875932 7.68480602 -0.00102289 -0.00716970 -0.00041686
C 18.45954225 21.43421998 11.16565132 0.00712665 -0.01100447 0.00525739
C 21.44394106 18.44955913 12.61936360 -0.00473440 0.00520689 -0.00524875
C 18.35862655 21.61428786 15.79239066 -0.00251550 0.00196952 -0.00713162
C 21.39447886 18.36555419 17.29809305 0.00113180 -0.00487946 0.00418989
C 18.54286142 21.68609523 20.46159550 0.00130239 -0.00355953 -0.00008975
C 21.53825831 18.10657441 22.02900753 0.00196439 0.00318648 0.00096371
C 18.71844543 26.85960829 1.79139295 -0.00000763 -0.00067479 0.00921119
C 21.93561126 24.06422650 3.00565294 -0.00546734 0.00602179 -0.00294914
C 18.71957278 26.83173969 6.66832118 0.00823085 -0.00045206 -0.00175327
C 21.92099922 23.74656889 7.57341208 -0.00250241 0.00609146 -0.00017972
C 18.80827002 26.83282432 11.37635163 -0.00433190 -0.00023316 -0.00340218
C 22.00656788 23.93552517 12.57334287 0.00731674 -0.00332667 -0.00919385
C 18.71280971 26.82153619 16.16022611 -0.01282292 0.00390946 0.00528455
C 21.84779710 23.86613221 17.30763434 0.00426746 0.00667653 0.01000940
C 18.68837513 26.78606271 20.81198917 0.00957400 -0.00032788 -0.00144548
C 22.07373031 24.03789924 22.08098180 0.00140451 0.00001693 -0.00080194
C 24.82533880 2.98147797 1.80498328 -0.00324518 0.00177622 -0.00201276
C 27.91418588 29.95362299 3.20212453 -0.00994604 -0.00133682 -0.00461064
C 24.90210915 2.78241730 6.63437128 0.00649026 -0.00367053 0.00373031
C 27.66530772 0.17924115 7.72204432 -0.00491586 -0.00242535 -0.00184553
C 24.42379675 2.80577980 11.39430932 0.00326231 -0.00341684 0.00196755
C 27.59334055 29.98025724 12.62189766 -0.00587748 -0.00084621 -0.00504048
C 24.94886704 3.29796610 16.05210862 -0.00076662 -0.00166047 -0.00186576
C 27.85459921 0.19226743 17.24786392 0.00501913 -0.00456006 0.00283465
C 24.85112783 3.01127449 20.75487739 0.00249395 -0.00130743 -0.00718685
C 27.82159794 30.07523320 21.98033297 0.00613589 -0.00376794 0.00780283
C 24.10993138 9.48278848 1.44166242 -0.00174198 -0.00262156 -0.00272244
C 27.34840297 6.56910178 2.84668794 -0.00203689 -0.00574900 -0.00526896
C 23.94994802 9.60607766 6.21883279 0.00103311 0.00203559 -0.00401668
C 27.55669372 6.74636963 7.58710110 -0.00208970 -0.00434090 0.00131770
C 24.33010070 9.70941904 10.93673211 0.00078584 0.00194783 -0.00333585
C 27.09763138 6.40640187 12.42139578 0.00397802 -0.00082698 -0.00268548
C 24.29462750 9.66597489 15.75744057 0.00180661 0.00090030 -0.00103795
C 27.65966948 6.75569368 17.19003506 -0.00427253 0.00154314 -0.00094810
C 24.10329416 9.84678024 20.52341688 0.00351562 0.00162868 -0.00164326
C 27.42884088 6.66080803 21.83497234 0.00657797 -0.00513188 0.00144800
C 24.40876737 15.30501153 1.78633690 -0.00211863 0.00656216 0.00314426
C 27.45166074 12.03221397 2.87646974 0.00135321 -0.00426543 0.00085943
C 24.63882680 15.47918525 6.48826953 -0.00806266 0.00218082 -0.00540710
C 27.80919635 12.35492862 7.78457296 0.00085343 -0.00503351 -0.00588430
C 24.50439673 15.41608925 11.25361259 -0.00028510 0.01116810 0.00051879
C 27.72586037 12.32967513 12.47694274 0.00339028 0.00144245 -0.00631280
C 24.60343263 15.39935206 15.79212645 -0.00299882 0.00267202 -0.00340273
C 27.72342415 12.42949682 17.12815969 0.00322222 -0.00055217 -0.00104886
C 24.62402641 15.13944916 20.70986450 0.00108049 -0.00090755 0.00654202
C 27.64672488 12.01293056 21.95795464 0.00313559 0.00376478 0.00368183
C 25.08062463 20.75337755 1.70811235 0.00150164 0.00229441 0.00376966
C 27.94060769 17.78641167 3.06638723 -0.00739450 -0.00854482 -0.00369346
C 24.91950578 20.69202281 6.53693882 0.00745967 -0.00104831 -0.00552731
C 27.96923124 17.79031392 7.82742918 -0.00161647 -0.00618261 0.00226698
C 24.90588488 21.20541353 11.28601630 -0.00049038 0.00276882 -0.00940078
C 28.19572699 18.29437867 12.41640993 -0.00029509 0.00468058 0.00131934
C 25.06587825 21.03368625 15.99785379 -0.00350980 -0.01137116 0.00065433
C 28.21674518 18.14096963 17.28452237 -0.00312091 -0.00245172 0.00380914
C 25.11664820 20.72775951 20.68314687 -0.00364707 -0.00473458 -0.00075086
C 27.96460068 17.88276951 21.88560226 -0.00183320 0.00545666 -0.00006877
C 25.52480846 26.44661440 1.64593232 0.00324339 -0.00291324 0.00331912
C 28.19861787 23.56367876 2.80635392 0.00258598 -0.00070123 -0.00382215
C 25.31803352 26.57755671 6.57324442 -0.00031888 0.01107972 0.00138247
C 28.24197366 23.53881205 7.77828421 -0.00445798 0.00340695 -0.00111869
C 25.51002441 26.49257297 11.28865434 -0.00407094 0.00323283 -0.00284088
C 28.35977765 23.63182502 12.72602085 0.00240769 -0.00038068 -0.00344286
C 25.53417090 26.62940718 15.96048873 -0.00431814 -0.00241150 -0.00358288
C 28.43883687 23.75608937 17.28532192 0.00347228 -0.00399728 -0.00487304
C 25.26020978 26.64565443 20.63605834 0.00676340 0.00773315 0.00631742
C 28.49522285 24.02717447 21.85395014 -0.00746666 -0.00344509 -0.00460200
N 0.20755320 4.42700858 1.07033180 -0.00346576 0.00349336 0.00733565
N 3.58851638 5.31420896 3.51394827 -0.00132701 -0.00146495 0.00478870
N 5.06637756 2.42899792 1.00856391 -0.00325815 0.00448463 0.00027523
N 1.50751277 1.38520502 3.73938418 -0.00038431 -0.00217782 0.00031024
N 0.52998789 4.01059158 5.57104014 -0.00811371 -0.00366108 -0.00546500
N 3.38361283 5.30236918 8.36219704 0.00266112 0.00183670 -0.00447893
N 5.16940821 2.49526651 6.07007635 -0.00674643 0.00370938 0.00506463
N 1.59807489 1.10369723 8.38667715 0.00141778 0.00842821 0.00457326
N 0.03970921 4.18456303 10.44135720 0.00775964 0.00908621 0.00556870
N 3.56155942 5.34285755 13.34481061 0.00098339 -0.00117362 0.00118242
N 5.00447035 2.48733596 10.34591446 0.00478852 -0.00241389 0.00200012
N 1.28420809 0.95926636 13.21831280 0.00156663 -0.00193615 -0.00626808
N 0.09322941 4.56144129 15.01003297 -0.00037781 -0.00496154 -0.00382095
N 3.52235422 5.20373772 17.87819792 0.00131039 0.00007176 0.00061791
N 5.32308483 2.33407450 15.17632037 0.00023716 -0.00172545 0.00386595
N 1.64606831 1.38446281 17.80361489 0.00115528 -0.00255558 0.00293096
N 30.91377123 4.48262495 19.75926357 0.00145635 0.00070511 0.00275713
N 3.55933944 5.29671711 22.55142645 0.00437536 0.00803391 0.00446452
N 5.43246228 2.25199309 20.02848893 0.00476042 0.00315775 -0.00403402
N 1.30696580 0.94308915 22.93245870 0.00437513 0.00676381 -0.00034427
N 0.53665054 10.07185431 0.86048702 0.00426637 0.00536011 -0.00030434
N 3.74730096 10.88533523 3.61057956 0.00414961 0.00006340 0.00574608
N 5.39893152 7.96795451 0.92659525 0.00279140 0.00343137 0.00630287
N 2.13686194 7.18657865 3.77275199 0.00023918 0.00749600 0.00426471
N 0.49549075 10.06680636 5.71324263 0.00601437 -0.00224904 0.00224797
N 4.12341694 10.94314724 8.24750285 -0.00287530 -0.00329393 -0.00101458
N 5.44327622 8.12172170 5.52765272 0.00236751 -0.00727687 0.00383511
N 2.28253525 7.36832470 8.40173160 0.00159807 -0.00408416 0.00195518
N 0.55577484 10.35908917 10.41397589 0.00104307 -0.00050490 0.00391737
N 3.88667974 10.90073473 12.85807579 0.00575646 -0.00291269 -0.00603483
N 5.56198269 8.09895615 10.54100798 -0.00031298 0.00025247 -0.00397960
N 2.31812311 7.22070105 13.07488863 -0.00069764 0.00443338 -0.00353857
N 0.65259119 10.18000260 15.19509652 -0.00804416 0.00046963 0.00041857
N 3.90870079 10.99758216 18.05479102 0.00385431 0.00197907 0.00831909
N 5.37864980 8.22867422 15.24620058 -0.00370020 -0.00173786 0.00629048
N 2.18381586 7.08091927 17.91676074 0.00188627 -0.00314071 0.00441147
N 0.53445365 10.14640134 19.70020567 0.00109296 0.00358631 0.00445525
N 3.90952551 10.94761010 22.56279156 -0.00295423 0.00357500 0.00196202
N 5.78190601 8.07640351 19.95822554 -0.00144283 0.00364699 0.00281193
N 2.26237371 7.13388883 22.53648888 -0.00297101 0.00092722 0.00372494
N 0.68478135 15.86543328 0.96710929 0.00109209 0.00183161 0.00584096
N 4.57136448 16.72472812 3.66175531 0.00125806 0.00528321 0.00039803
N 5.79519432 13.66715185 0.92483243 0.00124720 0.00256397 0.00137309
N 3.04640258 13.06852416 3.71236475 0.00376810 0.00749455 -0.00297199
N 1.04215771 15.80737978 5.66087874 -0.00120043 -0.00011235 -0.00528634
N 4.74697232 17.09132685 8.22730335 0.01058449 0.00420012 -0.00527473
N 6.28328351 13.64492793 5.83668196 0.00010998 -0.00487600 -0.00490001
N 3.08311172 13.02771559 8.24040423 0.00718393 -0.00615015 -0.00019523
N 1.09625729 15.84237527 10.29802228 -0.00294650 0.00344019 -0.00016665
N 4.68817080 16.97907002 13.24543803 -0.00027069 -0.00645455 -0.00059852
N 6.05034026 13.85038606 10.42406727 0.00019726 -0.00103471 -0.00172203
N 2.66707023 12.86584619 12.98647048 -0.00288331 -0.00547465 0.00478978
N 1.10154544 15.65909021 15.11992152 0.00055743 -0.00491245 -0.00636738
N 4.40080248 16.85641723 17.93452781 -0.00701811 -0.00307584 -0.00426244
N 5.99673576 13.86729751 15.13326542 -0.00187428 -0.00269667 0.00133168
N 2.77955817 13.04206118 17.90245481 0.00593423 0.00583470 -0.00475339
N 0.71370653 16.02694537 19.78134082 -0.00104277 -0.00906872 0.00123922
N 4.17449268 16.63363949 22.71387928 0.00516775 -0.00182836 0.00115420
N 5.94416411 13.82531599 19.99221116 0.00139001 0.00110843 -0.00152296
N 2.45138262 12.89114708 22.65969661 0.00201797 0.00318564 -0.00055557
N 1.14986943 21.41584342 1.03212988 0.00120053 0.00773695 0.00600292
N 4.13405607 23.51937148 3.66786195 0.01313460 -0.00388065 -0.00494111
N 5.20965303 20.36474865 1.16030699 0.00474613 0.00548525 -0.00289282
N 3.00593724 18.37402964 3.68187257 -0.00189321 0.00103340 -0.00290320
N 1.22163075 21.24307598 5.89817368 -0.00134292 -0.00152518 0.00203408
N 4.43912661 23.39842568 8.41453810 -0.00121002 -0.00722895 -0.00630384
N 5.43908205 20.17013205 5.63402192 0.00172344 -0.00463725 -0.00122170
N 2.84546101 18.44009006 8.52193348 0.00204267 0.00376338 0.00888314
N 1.55132384 21.26023637 10.49150190 -0.00306658 -0.00196279 0.00794049
N 4.17906731 23.38300489 13.32074075 0.00150334 -0.00004080 -0.00676309
N 5.65947234 20.48655378 10.44996755 0.00356955 -0.00062948 0.00208336
N 2.84900718 18.32356446 13.13776121 0.00064922 -0.00299143 -0.00272043
N 1.45496246 21.43068877 15.44689568 -0.00161858 -0.00480898 0.00495205
N 3.91324989 23.74575625 18.11465015 -0.00180646 0.00080153 -0.00462473
N 5.45730900 20.01705568 15.39257663 0.00010594 -0.00285327 0.00591705
N 2.51727639 18.25486426 17.82716179 0.00368772 -0.00308963 -0.00213841
N 1.32681567 21.76807031 19.95961456 -0.00475872 -0.00350371 0.00138461
N 3.99106395 23.63164145 22.33584930 -0.00057579 -0.00353676 -0.00565649
N 5.17051438 20.38455309 19.91151276 0.00286387 0.00299985 -0.00262212
N 2.81534687 18.52586072 22.88548064 -0.00030201 0.00441630 0.00935855
N 0.83942740 27.96759733 1.25362415 0.00247436 -0.00453698 -0.00037720
N 3.15546786 30.06415180 3.78614495 0.00634127 -0.00813367 -0.00548210
N 4.88025021 26.96384545 1.06340247 -0.00122379 0.00047746 0.00195795
N 2.35768381 25.03337153 3.66280752 0.00136488 -0.00804731 -0.00328017
N 1.02900876 27.76075861 5.74937730 0.00199144 -0.00447642 -0.00803875
N 3.45046863 29.86815442 8.48210743 0.00167629 0.00424910 -0.00609645
N 4.74339796 27.03839841 5.97426912 -0.00618804 -0.00123345 0.00283306
N 2.30680395 24.34377956 8.43037157 -0.00074796 -0.00172099 0.00297042
N 0.47951532 27.99587865 10.44140128 -0.00277194 -0.00436837 -0.00202382
N 3.26618369 30.00485697 13.33448722 0.00644013 -0.00147510 -0.00327907
N 4.82537218 26.89998136 10.71626525 -0.00325448 -0.00023110 0.00405977
N 2.18262284 24.55294996 13.16955928 -0.00613652 0.00468254 0.00060833
N 0.83903486 27.86315825 15.22110489 0.00311998 -0.00066961 -0.00634647
N 3.49611552 0.06432906 17.83069279 -0.00442043 -0.00013421 -0.00313974
N 4.68323391 26.97526663 15.51057215 0.00310393 -0.00037155 -0.00551190
N 2.08611886 25.07921807 17.92094627 -0.00329838 -0.00257025 -0.00462780
N 0.91709007 28.26959476 20.08771776 0.00139447 0.00094607 0.00026545
N 3.03388332 29.61041537 22.75097278 -0.00186221 -0.00053443 0.00144349
N 4.80747222 26.94631880 20.04971388 0.00523470 -0.00257456 0.00186848
N 2.21881747 25.05023420 22.85124104 0.00069995 0.00424659 -0.00727498
N 6.70293265 4.07752197 0.96171868 -0.00104655 0.00058005 0.00453947
N 10.07938816 4.88093159 3.79012741 0.00200406 -0.00236430 -0.00673845
N 11.69408919 2.22488630 0.93811655 -0.00036098 -0.00633655 -0.00314748
N 8.16977227 1.20815143 3.91360249 0.00361463 0.00234681 -0.00037832
N 6.83945557 4.04587076 5.85352032 -0.00430966 -0.00217609 -0.00168849
N 10.15301427 4.89305492 8.35584766 0.00469247 -0.00595312 0.00182868
N 11.74725689 2.00059568 5.71052586 0.00163514 0.00504617 0.00139158
N 8.23293876 1.12669704 8.43561983 0.00161698 0.00330509 0.00588830
N 6.62892095 4.11675890 10.66656974 0.00294552 -0.00053950 0.00298755
N 10.31482023 5.17659035 13.06657854 0.00196289 0.00007613 -0.00196494
N 11.73145303 1.80378465 10.35990577 0.00811097 -0.00124265 -0.00096848
N 8.33115427 1.24162359 13.00863440 0.00368331 -0.00037284 -0.00002337
N 6.81513098 4.16447381 15.23510089 0.00500422 0.00334978 -0.00539093
N 9.98008750 4.88633043 17.92311450 -0.00309085 -0.00549232 0.00671629
N 11.89837848 2.27420448 15.02359818 0.00279241 -0.00101972 -0.00349001
N 8.56751070 1.06127340 17.82681168 -0.00056441 -0.00034068 -0.00050540
N 6.77228243 4.18758332 20.11002519 0.00125536 -0.00724055 0.00325652
N 10.04928514 5.06691823 22.65124453 -0.00197215 -0.00659735 0.00134374
N 11.69917967 1.99481079 19.98099777 -0.00371013 0.00912382 -0.00028881
N 8.47729248 1.17670845 22.75762395 -0.00294336 0.00560539 -0.00399938
N 7.05766494 9.59174849 1.14261819 0.00611218 0.00216095 0.00331965
N 10.64283212 10.68623384 4.03634668 -0.00510617 -0.00738071 0.00231183
N 11.89295095 7.61972930 0.93549725 -0.00391160 -0.00094266 0.00022117
N 8.77463989 6.73850235 3.64515788 -0.00367433 0.00002213 0.00334155
N 7.29782938 9.60808187 5.56560395 -0.00212780 0.00167756 0.00228470
N 10.76210404 10.58387353 8.49399244 -0.00493951 -0.00256657 -0.00158627
N 12.26531217 7.44980474 5.71346623 -0.00226968 0.00350191 -0.00366219
N 9.15189700 6.87926323 8.44366104 -0.00935722 -0.00438646 -0.00202840
N 7.27035424 9.54319870 10.44749185 0.00146877 -0.00114455 0.00190645
N 10.73000854 10.82170446 13.29633671 -0.00338718 -0.00387527 -0.00211082
N 12.25334178 7.75685102 10.49068599 0.00692733 0.00409464 -0.00836247
N 8.84226482 7.01489721 13.15623084 -0.00400601 0.00226127 -0.00706508
N 6.97949033 9.91026565 15.17881831 -0.00168309 -0.00090754 -0.00185398
N 10.65000195 10.76927926 17.95570151 0.00263662 0.00231317 -0.00351914
N 12.13110980 7.82247666 15.16315928 0.00674955 0.00076799 -0.00144109
N 8.55815247 6.66169589 17.70016326 0.00931948 -0.00319986 0.00693412
N 7.37979372 9.80626532 19.90434204 0.00381013 0.00572119 -0.00258285
N 10.65792410 10.95619503 22.80851809 0.01150685 0.00686683 0.00279239
N 11.91175299 7.54349029 20.02756906 0.00041279 0.00443867 -0.00216245
N 8.69083500 6.88911039 22.64062341 0.00031534 0.00350340 -0.00293382
N 7.56711480 15.19697846 0.90004625 0.00606294 -0.00074157 -0.00512612
N 10.58192424 17.62865452 3.66103891 -0.00317947 -0.00184072 -0.00601404
N 11.77920499 14.11272453 1.28393622 -0.00381101 -0.00721571 0.00403601
N 8.95878939 12.30706777 3.82069193 0.00025892 0.00079264 0.00291472
N 7.80150484 15.41825161 5.68304921 -0.00000660 -0.00592854 0.00323843
N 10.44993338 17.41209027 8.71545523 -0.00204803 0.00206845 0.00286900
N 11.78498872 14.49072602 5.89569594 0.00439466 0.00111865 -0.00037974
N 9.11971638 12.26520234 8.64619696 0.00428523 0.00333057 0.00535766
N 7.62004822 15.59323257 10.48042995 -0.00809591 0.01084573 -0.00314620
N 10.46847463 17.55219671 13.25279345 -0.00471341 0.00113688 -0.00333956
N 11.67695983 14.12934390 10.24092384 -0.00351583 0.00566544 -0.00131053
N 9.16409745 12.53900100 13.45636297 0.00336251 -0.00043885 -0.00563788
N 7.76666111 15.41738582 15.37321823 -0.00389524 -0.00540255 0.00468621
N 10.39830497 17.76933923 17.94265109 -0.00461122 -0.00047142 0.00138111
N 11.52633060 14.33566025 15.18004525 0.00366642 -0.00027989 -0.00714823
N 8.99828042 12.37803283 17.87600826 0.00817802 0.00100393 0.00214797
N 7.54364150 15.41031179 19.97813384 0.00274973 0.00330972 -0.00550874
N 10.20638585 17.35053642 22.61845124 0.00303711 -0.00081076 0.00309769
N 11.64624635 14.27978417 20.15166528 -0.00309736 0.00349431 -0.00272786
N 8.80978349 12.31754136 22.60188575 0.00057134 -0.00287216 0.00011451
N 7.14552804 21.59633158 0.88215599 0.00214008 -0.00267239 0.00173424
N 9.38850602 23.89530841 3.94956594 -0.00580107 -0.00266797 0.00845660
N 11.00941690 20.94317496 1.04134251 -0.00169032 0.00039964 -0.00082813
N 8.50024156 18.71504270 3.76707560 -0.01121960 0.00345553 -0.00297249