2000
Time=50000.00000004 pbc="T T T" Lattice="31.31315828 0.00000000 0.00000000 0.00000000 29.99138589 0.00000000 0.00000000 0.00000000 23.64537122" energy=-12039.46420276 virial="-76.88759072 -6.99656575 -3.67345663 -6.99656575 -91.76396256 -12.68350851 -3.67345663 -12.68350851 -51.59948732" stress="-0.00138148 -0.00031916 -0.00013073 -0.00031916 -0.00206489 -0.00059142 -0.00013073 -0.00059142 0.00018401" Properties=species:S:1:pos:R:3:vel:R:3
C 30.55612114 3.54843796 1.80220354 -0.00015162 0.00151586 0.00112995
C 2.82429009 0.47754318 3.01459566 -0.00900455 -0.00851656 0.00136316
C 30.55568054 3.58421134 6.42817002 0.00159218 -0.00290860 0.00286988
C 2.55221057 0.73550367 7.59901404 0.00775140 -0.00670659 0.00210314
C 30.63778948 3.37011043 11.14246627 -0.00058793 -0.00073271 0.00046438
C 2.50161781 0.47172537 12.48543933 0.00420188 -0.00070484 -0.00374211
C 30.75797221 3.64067634 16.03944805 0.00080932 -0.00467734 0.00001072
C 2.68169187 0.50794184 17.11623551 0.01018238 -0.00186456 0.00449421
C 30.65216380 3.48772099 20.79217709 0.00211061 -0.00073701 -0.00983824
C 2.68111092 0.40655411 22.00027256 -0.00065923 -0.00669576 -0.00362747
C 31.06728374 9.24422209 1.67813861 -0.00078070 -0.00306543 -0.00177843
C 2.91343010 6.41092874 3.05426254 -0.00295894 -0.00426391 -0.00161496
C 31.12823502 8.98261424 6.41367313 -0.00318630 0.00079694 0.00143955
C 2.80966541 6.36868992 7.85765433 0.00271973 -0.00099603 0.00329827
C 30.92898021 9.48496550 11.04596525 -0.00192476 0.00136770 0.00226017
C 2.90235373 6.30126660 12.62593751 -0.00383545 0.00497785 -0.00409845
C 31.25853667 9.13482712 15.91500292 0.00754909 -0.00080079 -0.00411308
C 2.93376008 5.95360257 17.36917883 -0.00021202 -0.00444797 -0.00238087
C 0.08137455 9.21909483 20.52555973 0.00648406 0.00225306 0.00172736
C 3.04163344 6.21002141 22.08910515 -0.00458455 0.00147062 0.00255313
C 0.36542133 14.75553362 1.59159448 0.00164534 -0.00332418 -0.00376330
C 3.50854041 11.79295406 2.96417603 -0.00383218 -0.00277863 -0.00745607
C 0.19336571 14.80451691 6.37629173 -0.00167199 -0.00050489 -0.00352728
C 3.31146777 11.69135198 7.63433061 0.00473396 0.00383029 0.00531055
C 0.05970739 14.73225367 11.01768522 0.00019632 0.00665324 0.00194421
C 3.44479022 11.92995664 12.34944763 0.00040686 0.00499081 -0.00401144
C 0.09230965 14.90326157 15.79029718 0.00048879 -0.00554866 0.00368081
C 3.45403919 11.66931679 17.21984931 -0.00213153 -0.00008428 -0.00279847
C 31.15568698 14.49117700 20.51029669 -0.00450222 -0.00234439 -0.00019817
C 3.54975681 11.96817796 21.95305090 0.00361523 -0.00462455 0.00345630
C 0.47746338 20.22049470 1.74883193 0.00561729 -0.00512902 -0.00354599
C 3.94628775 17.48036661 3.01846414 0.00000592 0.00201682 0.00453026
C 0.43289315 20.49140569 6.25226725 -0.00080347 0.00356963 0.00689735
C 3.79069302 17.31864282 7.70383938 0.00366232 0.00051416 -0.00448541
C 0.55717488 20.30746193 11.14158872 -0.00151692 0.00489404 0.00463080
C 3.59588371 17.16152057 12.35190644 0.00033580 -0.00212730 0.00269680
C 0.63301113 20.25405758 15.79182714 0.00481538 0.00290419 -0.00066750
C 3.57884216 17.18099635 17.17440522 0.00208924 0.00081951 -0.00325528
C 0.67049463 20.03645486 20.61159918 -0.00441501 0.00607617 0.00010844
C 3.99710789 17.41871738 21.71813921 -0.00714994 0.00139330 0.00661196
C 31.23160681 26.78897544 1.52946720 0.01093956 0.01098427 -0.00189363
C 3.30996254 23.90012975 2.90155398 -0.00481208 -0.00302838 0.00614870
C 0.05559184 26.96246592 6.35891729 0.00186406 -0.00029003 0.00528819
C 3.22324473 23.94047981 7.59255853 0.00144532 -0.00651283 0.00041915
C 0.07756158 26.88133623 11.15920852 -0.00072522 -0.00244485 0.00301296
C 2.90265177 24.00942977 12.40404170 -0.00152499 -0.00416190 -0.01037381
C 0.06473766 27.24776694 15.88562108 0.00272134 0.00418470 -0.00399472
C 2.94202736 23.83899308 17.18361363 0.00296263 -0.00183212 0.00232904
C 0.09497912 26.74841958 20.41034704 0.00551220 0.00167229 0.00158247
C 3.05626162 23.73248648 21.93237843 -0.00212465 -0.00143322 -0.00365314
C 6.15090674 3.36984511 1.57889505 0.00104818 0.00085258 -0.00653321
C 8.92046452 0.05242594 2.96276931 -0.00192978 -0.00238905 -0.00108072
C 6.20066309 3.30837441 6.45910196 0.00406273 0.00075898 -0.00274474
C 8.98103898 29.98688473 7.67275783 0.00091966 -0.00033175 -0.00352088
C 6.14170124 3.21240765 11.23427743 -0.00222641 -0.00462195 0.00280794
C 8.87087753 0.02906738 12.53475623 0.00471004 -0.00168253 0.00265471
C 6.25696043 3.04552158 15.78472145 -0.00364648 -0.00408096 -0.00080912
C 8.82201978 0.16258888 17.26021780 -0.00374901 0.00340076 -0.00500111
C 5.96236547 3.06479055 20.73446201 0.00075909 0.00133461 -0.00941173
C 9.15560852 0.12835849 21.91654886 -0.00841900 -0.00839208 0.00561951
C 6.47847363 8.57440659 1.89649571 -0.00255935 0.00347132 -0.00513945
C 9.32800093 5.99977140 3.03655482 -0.00318425 0.00302965 0.00163280
C 6.37324126 8.83357763 6.67926603 -0.00073213 0.00324524 0.00174140
C 9.70223079 6.00358091 7.88015732 0.00302725 0.00198697 0.00051549
C 6.48928067 8.80186352 11.38045477 -0.00301158 0.00375015 -0.00081695
C 9.46403632 5.82420769 12.55904702 0.00314235 -0.00471174 -0.00243009
C 6.49510496 8.76797884 16.06567846 0.00195721 0.00548705 0.00483803
C 9.49757207 5.70168635 17.34482964 0.00211595 0.00271610 -0.00030939
C 6.39144282 8.49983691 20.79847477 -0.00814895 -0.00179680 0.00388172
C 9.81795177 5.66300735 22.04798609 -0.00184619 -0.00386688 0.00089523
C 7.07437281 14.64124308 1.53766350 0.00297554 -0.00932833 0.00026110
C 10.01145337 11.41094984 3.20748468 -0.00379450 0.00442686 0.00342502
C 6.84450579 14.49457811 6.38105764 0.00776114 -0.00405196 -0.00231457
C 9.95771854 11.32098320 7.79000065 0.00028055 0.00500951 0.00295036
C 7.06331633 14.49633752 11.03619692 -0.00225431 -0.00174313 -0.00691889
C 9.92627196 11.42362738 12.60434147 -0.00268905 0.00155860 -0.00726143
C 6.89621110 14.61161196 15.75441367 -0.00229287 0.00787263 -0.00366572
C 10.15153213 11.34342659 17.45556227 -0.00312823 0.00612705 0.00451303
C 7.05274961 14.33575891 20.50464936 0.00284982 0.00339557 -0.00539601
C 10.11437541 11.54166496 22.15095068 0.00684592 -0.00633935 -0.00356982
C 6.28854610 20.95856367 1.49814950 -0.00799521 -0.00362547 0.00294685
C 9.66193430 18.24287054 2.91276958 0.00616651 0.00160983 -0.00240305
C 6.34470352 21.12548915 6.14201035 -0.00785113 -0.00446774 0.01121469
C 9.34828936 17.99973086 7.64299233 -0.00218370 0.00426186 -0.00418385
C 6.26872515 20.97731200 11.03228147 -0.00110284 -0.00233403 -0.00315125
C 9.44153542 18.25787008 12.25921271 -0.00645865 0.00466908 0.00044667
C 6.25163258 21.06256343 15.81773594 -0.00383571 -0.00546652 -0.00519106
C 9.56941769 18.17795973 17.01022348 -0.00447806 0.00778421 0.00174613
C 6.43348613 20.92170768 20.59295645 -0.01061678 0.00158800 0.00192973
C 9.71520475 17.89297593 21.76679794 -0.00189783 -0.00285545 -0.00050707
C 5.62420758 27.35600117 1.66291334 0.00270505 -0.00118422 0.00259683
C 8.59685775 24.66916358 2.94407227 -0.00141855 0.00107399 -0.00400077
C 5.74130739 27.44513148 6.49994391 0.00038334 -0.00145287 -0.00081965
C 8.89250438 24.55007178 7.58437539 0.00053384 0.00833016 -0.00220332
C 5.62267290 27.54290711 11.11736795 0.00064118 0.00430476 0.00231695
C 8.48798851 24.65706391 12.36069530 -0.00034957 0.00187695 0.00337667
C 5.62453591 27.45585006 15.96207509 0.00431776 0.00416615 0.00044406
C 8.61950193 24.71769076 17.24001302 -0.00395114 -0.00029963 -0.00439301
C 5.42988975 27.43616781 20.60382746 0.00248988 -0.00075046 0.00141170
C 8.99989156 24.49929168 21.80575142 0.00159597 -0.00481105 -0.00384142
C 12.56050905 2.57225188 1.90197314 0.00561966 0.00626924 0.00117867
C 15.76911697 29.77189270 3.32800388 -0.00148493 0.00725047 -0.00596944
C 12.27154088 3.03317501 6.37205968 0.00617647 -0.00050067 0.00531392
C 15.90722845 29.95226598 8.01122251 -0.00095209 -0.00667595 -0.00188564
C 12.55256956 2.75399176 11.02103420 0.00307470 0.00266739 0.00259633
C 15.60100701 29.88656885 12.66970966 0.00219368 0.00409769 0.00266840
C 12.37960930 3.02106794 15.84873798 0.00168154 -0.00042790 -0.00210613
C 16.11359634 29.85329838 17.23867603 0.00413913 0.00395338 0.00837517
C 12.75775682 2.77348054 20.54920141 -0.00177569 -0.00363302 -0.00544921
C 16.06011099 29.82340293 22.05548491 -0.00375245 -0.00173329 0.00153126
C 13.03556100 8.30218004 1.72642981 0.00539599 -0.00173110 -0.00015142
C 16.47086757 5.69217922 3.11919269 0.00137790 -0.00271542 -0.00738964
C 13.20697160 8.69628182 6.42079006 -0.00178186 0.00352164 -0.00130411
C 16.34965840 5.63407132 7.80819318 -0.00539573 -0.00203109 -0.00287774
C 13.29220465 8.54199259 11.21022159 -0.00060690 0.00851117 -0.00266592
C 16.03891849 5.23548309 12.70284559 -0.00193729 0.00182720 -0.00510830
C 13.11037379 8.34352814 15.99315533 -0.00162655 0.00166636 -0.00101575
C 16.18748318 5.44860448 17.15265324 0.00801798 0.00190496 -0.00205934
C 13.07784660 8.49030126 20.68801738 0.00079473 0.00302619 0.00347027
C 15.99643623 5.17937305 22.12654047 0.00403635 -0.00189851 0.00396896
C 12.33564562 15.00894458 1.69395144 -0.00407301 0.00134564 -0.00250577
C 15.47960291 11.97119373 3.22989802 0.00131122 0.01091472 0.00482169
C 12.64092892 14.90829370 6.43444737 -0.00666450 -0.00382265 -0.00176063
C 15.78316738 12.08091262 7.89854085 -0.00132945 -0.00237680 0.00708850
C 12.30210048 15.00088860 11.32123241 -0.00621475 -0.00438386 0.00436464
C 15.68710647 12.01060367 12.61735959 0.00217917 0.00022238 0.00031922
C 12.59300658 14.84817253 15.94101365 -0.00122525 -0.00102767 0.00131294
C 15.70873189 11.84488748 17.32237601 -0.00542227 -0.00671356 -0.00516150
C 12.68764513 14.98824977 20.65949110 0.00302638 -0.00201065 0.00601180
C 15.91619006 11.87308434 22.15430887 -0.00087173 0.00194379 -0.00095115
C 12.00691702 21.94095615 1.54312566 -0.00105679 0.00786942 0.00260843
C 14.91301576 18.84930520 3.07564521 -0.00029616 0.00152770 0.00206962
C 11.86617432 21.80574211 6.22975089 -0.00281038 -0.00168236 -0.00036957
C 14.86778543 18.65291805 7.81903078 0.00585485 0.00458953 0.00563807
C 11.71206174 21.62151730 11.08207330 0.00846099 -0.00008513 -0.00085318
C 15.29833158 18.74196251 12.48203337 -0.00095417 -0.00403772 -0.00170400
C 11.79412170 21.67448547 15.80424068 0.00087336 0.00141181 -0.00233095
C 15.07158711 18.50949209 17.16517119 0.00233845 0.00120785 0.00509027
C 12.01852658 21.65106982 20.68351104 -0.00336492 0.00274059 -0.00502581
C 15.11820391 18.54019631 21.86855239 0.00354222 -0.00306314 0.00681687
C 12.59007615 27.18721703 1.66859644 0.00646637 0.00169095 -0.00133718
C 15.54972186 24.19351594 2.95519164 -0.00164398 0.00450232 -0.00207710
C 12.40324758 27.33923820 6.39622129 0.00329665 0.00322977 -0.00416685
C 15.46606336 24.31890548 7.66490852 -0.00213576 -0.00807488 -0.00303793
C 12.22408145 26.99928331 11.32946936 0.00715727 -0.00621353 0.00377224
C 15.38661348 24.31505197 12.55838539 -0.00387151 0.00031392 -0.00499920
C 12.08227876 27.36401111 16.04742302 -0.00225108 -0.00429516 -0.00194658
C 15.30119934 24.14429075 17.25879344 -0.00081434 0.00256527 -0.00033842
C 12.47624643 27.17879720 20.56453763 -0.00452712 -0.00618788 0.00711434
C 15.61671366 24.24592631 21.88086664 -0.00164656 -0.00539984 0.00393553
C 19.30813864 2.24122392 1.75561431 0.00346122 -0.00630756 -0.00604178
C 22.53045733 29.42441994 2.83111441 -0.00181235 0.00203839 -0.00883480
C 19.39729570 2.38395887 6.57737235 0.00352805 0.00050237 -0.00576431
C 22.65210307 29.47820568 7.52930095 0.00392052 0.00255041 0.01044619
C 19.48241556 2.52391632 11.26547109 0.00054096 0.00449184 -0.00251462
C 22.52647778 29.36789503 12.48587646 -0.00876150 -0.00283599 0.00203767
C 19.20273222 2.26084378 16.02669103 0.00275880 -0.00404832 -0.01484345
C 22.46159792 29.32279535 17.20193329 -0.00687044 -0.00316154 -0.00745094
C 19.38903484 2.38635437 20.68741122 0.00230595 0.00307105 -0.00439459
C 22.23840718 29.45470081 21.82209394 0.00066429 -0.00339536 -0.00109244
C 18.83546343 9.15395416 1.85584523 0.00544842 0.00505307 -0.00347364
C 21.85135305 5.94969355 3.20593212 0.00149380 0.00410199 -0.00505539
C 18.76412794 9.06440521 6.71576298 -0.00063373 0.01063342 0.00440360
C 21.95467129 6.13376644 7.87370796 -0.00265252 0.00349989 0.00540770
C 18.90252565 8.86993339 11.21971178 0.00402882 -0.00246584 -0.00060464
C 21.85758331 5.49951713 12.61112376 -0.00201288 0.00217512 -0.00013987
C 18.71133431 9.20283048 15.77474813 0.00230771 0.00295110 0.00769278
C 21.53883683 5.85018290 17.21856906 -0.00380979 -0.00029107 -0.00395263
C 18.98185490 9.15871118 20.83710978 0.00639569 -0.00254642 -0.00574908
C 21.62590493 5.97726885 21.99181063 0.00647121 0.00145325 0.00437061
C 17.97961396 15.98574528 1.67575878 -0.00145417 -0.00203688 0.01043308
C 21.04546426 12.70912757 2.98547342 0.00449803 -0.00189435 -0.00926737
C 17.93163415 15.65362029 6.33597614 0.00436229 0.00036630 0.00096196
C 21.37637332 12.47837244 7.66718410 -0.00042006 -0.00240537 0.00007038
C 18.48542518 15.57952424 11.02002166 0.00111415 -0.00461094 0.01024133
C 21.33568705 12.87195752 12.43021724 0.00196984 -0.00622517 -0.00504468
C 18.41814545 15.53922977 15.80546863 0.00254769 -0.00294317 -0.00357315
C 21.45504584 12.58955084 17.25324029 -0.00608612 -0.00053694 0.00133815
C 18.28432181 15.59248359 20.51996528 0.00251442 -0.00146390 -0.00060485
C 21.35914010 12.64566336 21.77159624 0.00126396 0.00250187 -0.00438599
C 18.77541737 21.27073719 1.69533911 0.00523770 -0.00560417 -0.00024069
C 21.76043780 18.30250140 3.03798568 -0.00093260 -0.00172023 0.00095725
C 18.79901531 21.23454611 6.37075088 0.00291275 0.00484369 0.00022786
C 21.73355589 18.22009814 7.85871075 0.00568936 -0.00177187 -0.00870142
C 18.75094557 21.49268990 11.16347409 -0.00475577 -0.00114419 -0.00536511
C 21.91486608 18.49037304 12.61801566 0.00262642 -0.00389890 0.00066130
C 18.50685172 21.37929189 15.85908527 -0.00811372 0.00657536 -0.00074441
C 21.55449403 18.10056533 17.17889236 0.00357407 -0.00605879 -0.00279520
C 18.74322606 21.35791261 20.65107910 -0.00194567 0.00042700 -0.00280612
C 21.82721568 18.21534495 21.95167799 0.00597687 0.00390441 0.00583521
C 18.94839818 26.54633181 1.74234748 -0.00193324 -0.00277516 -0.00128873
C 22.40643241 23.71411042 3.01706643 0.00355867 0.00175239 0.00479768
C 19.01844901 26.77715971 6.47949464 0.00105896 0.00498710 0.00158417
C 22.25286458 23.79011197 7.76620560 -0.00554398 -0.00116622 0.00776672
C 19.08563559 26.83926818 10.93160714 0.00129550 0.00013736 -0.00358399
C 22.26356629 23.95695695 12.54478472 0.00017080 0.00865666 -0.00138979
C 18.96187755 26.63523199 15.80735552 0.00525364 -0.00641810 -0.00508594
C 22.30126174 23.79199744 17.26769386 0.00196671 -0.00085043 -0.00168285
C 19.08609186 26.60809341 20.63230626 0.00059080 -0.00328372 -0.00269695
C 22.40387863 23.98185363 22.02798786 -0.00030855 -0.00719956 0.00188365
C 25.25353891 2.98830551 1.73992610 -0.00041972 -0.00266337 -0.00455444
C 28.23942242 29.90278026 3.09178389 0.00580649 0.00064820 -0.00325980
C 25.06903588 3.00283439 6.30772833 0.00597008 -0.00467302 0.00386492
C 28.29349320 0.02637983 7.72577473 -0.00588316 0.00070870 0.00091437
C 24.91220187 2.79920204 11.32113541 -0.00370380 0.00218692 0.00017835
C 28.35987699 0.03527784 12.59754216 -0.00034035 -0.00133246 0.00076526
C 25.09801032 2.83423371 15.89424452 -0.00335501 -0.00517630 0.00733161
C 27.93960485 29.78254475 17.26506960 0.00439743 -0.00273008 -0.00420572
C 25.08689568 2.98210252 20.54206616 0.00205294 0.00657056 0.00404513
C 28.18991255 29.95965738 21.81140156 0.00112215 -0.00116810 0.00115718
C 24.47255004 9.42540802 1.59016026 -0.00245451 0.00236575 -0.00252394
C 27.43255070 6.53322827 2.96449000 -0.00202297 -0.00163021 0.00454838
C 24.20393282 9.68349273 6.18326016 0.00021527 0.00978955 -0.00137691
C 27.50939345 6.49686470 7.68385261 -0.00284473 0.00362039 0.00151712
C 24.49606079 9.67654760 11.08997771 0.00459021 -0.00431375 -0.00342623
C 27.58642474 6.67065389 12.62825696 0.00082622 0.00052363 -0.00131240
C 24.31643809 9.55539393 15.85776854 0.00052067 -0.00546809 -0.00098420
C 27.59528071 6.49559763 17.24294038 -0.00172436 -0.00342785 0.00156598
C 24.36452747 9.21757582 20.75261855 -0.00638004 -0.00799663 -0.00639773
C 27.72204817 6.42336380 21.97421674 -0.00141677 -0.00281915 0.00186401
C 24.64804556 15.17696224 1.85305759 -0.00624911 -0.00314591 0.00393283
C 27.89920709 12.42807008 2.99449918 -0.00255541 -0.00574821 0.00808972
C 24.77206463 15.47402069 6.67683090 -0.00024038 0.00000228 0.00321778
C 27.62859461 12.36111291 7.65282163 -0.00359524 0.00257261 -0.00043157
C 24.66990651 15.39170262 11.26975496 0.00686449 0.00055360 0.00440673
C 27.93466303 12.34247638 12.39889340 0.00213100 -0.00687793 -0.00634459
C 24.77816435 15.29460613 15.97618414 0.00471096 0.00385632 -0.00576549
C 27.84337995 12.24365049 17.29542707 -0.00095707 0.00116531 0.00218121
C 24.85362850 15.02662919 20.69744514 -0.00706512 0.00843593 -0.00218110
C 27.79064094 12.02245114 22.02517722 -0.00117005 0.00246743 -0.00258657
C 25.36161028 20.76618541 1.73806894 -0.00303002 0.00704092 -0.00363426
C 28.41204210 17.70652449 3.01481747 0.00524192 -0.00033772 0.00141568
C 25.41582900 20.78880009 6.50315965 -0.00318887 -0.00564772 0.00222794
C 28.39711569 17.84150178 7.79514280 -0.00817839 -0.00205302 0.00510588
C 25.25894904 20.82095895 11.16355329 0.00220638 0.00065454 0.00011951
C 28.19741523 17.80285351 12.51568867 0.00598955 0.00254904 -0.00403441
C 25.26675619 20.98609152 15.77125825 0.00063812 -0.00071201 -0.00204560
C 28.46085678 17.64388204 17.09181369 0.00003816 0.00355617 0.00149991
C 25.29661830 20.99440207 20.42325591 0.00028738 -0.00104525 -0.00425473
C 28.50459906 17.70926433 21.87912027 -0.00454982 0.00289586 -0.00008651
C 25.80314195 26.51216429 1.64192494 -0.00298871 -0.00448520 0.00117484
C 28.94738090 23.47936053 3.00835726 0.00080413 -0.00053980 0.00077147
C 25.47272817 26.36702693 6.33044438 -0.00559244 0.00928129 0.00051897
C 28.68750301 23.35841443 7.61702947 -0.00439425 0.00405745 0.00043725
C 25.98434226 26.47299391 11.07800014 -0.00075654 -0.00054077 -0.00257346
C 28.77361962 23.59314896 12.40270966 0.00250216 0.00021103 0.00929163
C 25.92032110 26.27482043 15.90823210 0.00108460 -0.00650696 0.00734995
C 28.83561796 23.39262392 17.21765184 0.00095738 0.00032596 -0.00239649
C 25.67102485 26.31321396 20.60358522 -0.00042545 -0.00338566 -0.00089301
C 28.71715352 23.24478883 21.90810722 -0.00040189 -0.00337012 -0.00184927
N 0.12353828 4.23396138 1.06439646 -0.00157527 0.00201571 -0.00181226
N 3.40859264 5.25746204 3.65479231 0.00146497 0.00007000 0.00521702
N 5.32002227 2.41203913 1.04472624 0.00062979 -0.00939334 0.00405948
N 1.97006118 1.20511543 3.73135376 0.00033896 0.00553172 -0.00103158
N 0.10645445 4.38097654 5.71454742 0.00198897 0.00133804 -0.00548988
N 3.48317471 5.37224323 8.47629618 0.00223648 -0.00219206 -0.00232524
N 5.42866128 2.51378372 5.69354222 -0.00484831 -0.00385576 -0.00599839
N 1.61232342 1.44575708 8.30954271 0.00126400 0.00156156 -0.00463355
N 0.00725797 4.35756596 10.47874578 0.00261806 0.00494502 0.00190124
N 3.64622278 5.39328720 13.37172344 0.00451358 0.00211327 0.00302830
N 5.32817789 2.34774051 10.54104246 0.00093532 -0.00215378 0.00205755
N 1.70449747 1.41374154 13.14973000 0.00663343 0.00449388 0.00409093
N 0.35444614 4.30663793 15.27457051 -0.00352346 -0.00091833 0.00083995
N 3.45221033 4.97898549 18.12334534 -0.00391344 -0.00670053 -0.00052250
N 5.40167008 2.26041926 15.12093185 0.00607798 -0.00152393 -0.00209851
N 1.66209826 0.94736285 17.89457021 0.00009130 0.00355092 0.00616707
N 0.17208594 4.38322639 20.21781336 -0.00144529 0.00053862 -0.00112881
N 3.61185419 5.21565074 22.81284595 -0.00133807 0.00081608 -0.00244899
N 5.22387049 2.12209800 20.17076658 0.00619257 0.00246265 -0.00001863
N 2.05238029 1.37445506 22.72187062 0.00481844 -0.00303789 0.00090213
N 0.56239241 9.97345751 0.89223267 0.00132893 0.00107325 -0.00286061
N 3.91303172 10.70956389 3.72405077 0.00080981 -0.00163555 0.00027647
N 5.75987369 7.68938162 1.11102307 0.00086066 0.00314178 0.00056407
N 2.35350789 7.26320312 3.91173653 0.00410392 0.00178484 0.00478215
N 0.34643979 10.00764491 5.62938560 0.00169654 -0.00067069 -0.00424765
N 3.99438741 10.81055983 8.36478408 -0.00584028 -0.00204141 -0.00364996
N 5.64927862 7.76974838 6.10018705 0.00171174 -0.00438575 -0.00103617
N 2.34327402 7.33187417 8.71181596 -0.00439748 -0.00462953 0.00573469
N 0.45137897 10.23478375 10.33664028 0.00007568 -0.00373114 0.00095094
N 4.14196293 10.99548067 13.03497049 0.00080024 -0.00507453 0.00086563
N 5.77334163 8.03261889 10.53394856 0.00325323 -0.00200838 -0.00003095
N 2.37070143 7.27840668 13.40802248 -0.00218873 0.00014457 -0.00049309
N 0.63197188 10.12543892 15.18958648 0.00433321 0.00158136 -0.00190860
N 4.29157548 10.84070217 17.87606884 0.00039916 -0.00607014 -0.00713707
N 5.86986959 7.72803307 15.38770550 0.00088827 -0.00142571 0.00185836
N 2.52350130 7.10264235 18.03475617 0.00117912 0.00065349 0.00068090
N 0.96529989 9.96931406 19.86294303 0.00306536 0.00194754 0.00482512
N 3.90621900 10.88187214 22.63296117 0.00206015 -0.00256604 0.00423532
N 5.65210899 7.72297408 19.89646248 0.00286261 0.00903879 0.00019711
N 2.38536466 7.13462974 22.76388909 0.00411665 -0.00376102 0.00155537
N 1.10359333 15.49005340 0.70838247 -0.01140315 0.00040142 -0.00112031
N 4.64674168 16.60775167 3.78199640 0.00093853 0.00694514 -0.00438663
N 6.31020115 13.71431913 0.81797151 -0.00111511 0.00245736 -0.00419904
N 2.92742754 12.83026735 3.67680759 0.00139612 -0.00483792 -0.00155338
N 0.86279799 15.75169182 5.65665648 0.00104199 -0.00008743 0.00134179
N 4.65907060 16.65401200 8.45692885 -0.00549390 0.00114458 -0.00426663
N 6.16618178 13.59757603 5.62131392 0.00011412 0.00707415 0.00477752
N 2.86615398 12.84284007 8.28766282 0.00192272 -0.00426722 -0.00284212
N 0.81304932 15.58123217 10.33958318 -0.00245749 0.00508068 0.00299109
N 4.20957202 16.18382490 13.01739057 0.00600507 0.00038837 0.00280456
N 6.26317961 13.52824209 10.47268250 -0.00177464 0.00119951 0.00430989
N 2.82929894 12.90886213 13.05202234 -0.00742957 0.00079115 -0.00724730
N 0.83190779 15.77993141 15.07845006 0.00302395 0.00476812 0.00145246
N 4.53128141 16.54076031 17.86428380 -0.00408791 0.00552310 0.00175910
N 6.08161287 13.69172261 15.13725830 0.00350368 0.00312241 -0.00358462
N 2.77248368 12.59690933 17.93412825 0.00285633 -0.00000410 0.00309753
N 0.54501145 15.40929868 19.83024715 0.00604301 0.00403503 0.00428649
N 4.92814610 16.78015490 22.42460789 0.00351394 -0.00441270 -0.00280380
N 6.08613725 13.68402357 19.80748671 0.00463273 -0.00060909 0.00303939
N 3.19519645 12.99554164 22.70903700 -0.00005331 0.00170380 -0.00421375
N 1.16304538 21.03325327 0.90668633 0.00175439 -0.00079925 0.00480522
N 4.25319583 23.24048626 3.60452141 0.00507227 -0.00390133 -0.00361107
N 5.50646195 20.11150231 0.78644163 0.00062249 -0.00155617 0.00179502
N 3.07544865 18.32954529 3.69929206 0.00110706 -0.00346143 0.00113374
N 1.26971111 21.22350441 5.54122797 0.00107762 -0.00020928 -0.00262487
N 4.18577330 23.25764810 8.28701415 -0.00796519 0.00190293 0.00203487
N 5.45826235 20.34768332 5.44143491 0.00669697 -0.00027025 -0.00092608
N 2.86005998 18.01999145 8.44501660 0.00463164 -0.00094825 -0.00081643
N 1.36678370 21.05384873 10.39909386 -0.00508554 0.00065981 0.00654414
N 3.81403925 23.21709950 13.03961334 -0.00812166 0.00682385 0.00090178
N 5.43134386 20.21554310 10.31136259 -0.00083337 0.00180652 0.00526833
N 2.95738990 18.11118516 13.13597242 0.00263612 -0.00313855 -0.00075550
N 1.42194325 21.15727006 15.13066881 0.00541022 -0.00146363 0.00190726
N 3.87407772 23.31518587 18.04146752 0.00627425 -0.00118234 -0.00040836
N 5.61504580 20.15400814 15.04090040 0.00312142 -0.00030239 0.00267257
N 2.70531426 17.93828216 17.94371092 -0.00159934 0.00688446 -0.00014605
N 1.49405618 20.93726129 19.96191169 0.00100183 -0.00201464 -0.00204851
N 4.14777422 23.34543675 22.65336923 -0.00634347 -0.00144566 -0.00022504
N 5.58372784 20.13441517 19.85980186 0.00249360 -0.00613990 0.00159412
N 3.08572132 18.03277944 22.52429298 -0.00596770 0.00384289 0.00707665
N 0.89472051 27.60725678 1.03856363 0.00400546 -0.00415324 -0.00192205
N 3.64942041 29.70501940 3.78350953 -0.00121677 0.00431769 -0.00486480
N 4.97948530 26.51080232 0.85387851 -0.00171744 -0.00118531 -0.00307895
N 2.23108474 24.30550348 3.63886123 0.00086562 0.00338570 -0.00515786
N 0.95056218 27.67627635 5.55079821 -0.00876693 0.00518722 -0.00651028
N 3.20581088 29.91499134 8.37725314 -0.00347642 0.00189342 0.00187397
N 4.72160498 26.71954179 5.86420479 -0.00130057 -0.00032896 -0.00148691
N 2.09072095 24.27918876 8.27610378 -0.00049115 -0.00152940 0.00735853
N 0.70440782 27.68360569 10.27925210 -0.00036375 0.00245686 0.00824344
N 3.50791650 29.95772647 13.22441654 -0.00230931 0.00367791 -0.00163442
N 4.99467272 26.49939982 10.38153725 0.00116953 0.00240027 -0.00261397
N 2.10791445 24.66725346 13.25093492 0.00044006 -0.00036468 0.00560671
N 0.81311041 28.09195005 15.09335913 -0.00345284 0.00298174 0.00071275
N 3.59539057 29.60613646 17.70704664 -0.00522010 -0.00351389 -0.00350780
N 4.62780453 26.61736210 15.48225433 0.00074562 -0.00370344 0.00266104
N 1.90601347 24.43093297 17.81116945 0.00828534 -0.00077497 -0.00580068
N 0.90538630 27.50270356 19.68114689 0.00159923 0.00058753 -0.00061203
N 3.41970099 29.52439400 22.74279140 -0.00375883 -0.00030082 0.00195882
N 4.63249121 26.60778639 19.86688024 0.00168637 0.00192143 -0.00351103
N 2.05937975 24.27461472 22.68137557 0.00608627 0.00103599 0.00268816
N 6.83884255 4.14190730 0.77100680 -0.00047105 -0.00284458 0.00495237
N 9.37916620 4.94684274 3.88982287 -0.00182296 0.00720766 -0.00031510
N 11.74638260 1.83300824 1.13015777 -0.00347333 0.00464313 0.00420797
N 8.12590335 1.00634480 3.57703039 0.00132796 0.00357249 -0.00503617
N 7.00772018 4.12897734 5.72338093 -0.00078747 -0.00585838 -0.00244312
N 10.04958521 4.85463774 8.56455841 -0.00088783 0.00176648 0.00139907
N 11.33335903 2.26942882 5.74229079 -0.00417727 -0.00539544 -0.01229048
N 8.29095424 1.02138721 8.29611783 -0.00381842 -0.00185047 -0.00609612
N 6.82325575 4.09431760 10.44803648 0.00020607 0.00503813 0.00045617
N 10.22949349 4.93075736 13.23367854 0.00281523 0.00227699 -0.00282206
N 11.81735725 1.91972097 10.33047220 0.00361756 -0.00040783 -0.00107946
N 8.29058366 1.02423939 13.25598565 -0.00046949 -0.00015440 -0.00379922
N 7.04295615 3.93922780 15.10292147 0.00421592 0.00446157 -0.00085908
N 10.10041602 4.86474154 18.19498100 0.00417262 0.00203846 -0.00072161
N 11.49334745 2.24936869 15.16732087 0.00865430 -0.00130828 0.00747031
N 8.48212657 1.32733613 17.90903228 -0.00527152 -0.00160553 -0.00233206
N 6.57718322 3.90698585 19.85595833 -0.00407540 0.00116175 0.00598262
N 10.62700139 4.81645116 22.79028359 -0.00127958 0.00179264 -0.00702854
N 11.79117969 2.06396118 19.87780833 -0.00240441 -0.00470474 -0.00168046
N 8.53198449 1.00069814 22.78852921 -0.00118475 -0.00278257 0.00043864
N 7.16056525 9.56545155 1.19778614 -0.00512624 0.00352103 0.00082087
N 10.88303735 10.63446618 3.85741051 0.00017068 -0.00622839 -0.00334861
N 12.09791270 7.59904444 1.00022244 -0.00632510 -0.00481189 -0.00458542
N 8.81485446 7.16790725 3.51585114 0.00436499 -0.00043113 -0.00118309
N 7.03134584 9.64707629 5.81227360 0.00676029 0.00065103 0.00499569
N 10.90607961 10.80100794 8.64848926 -0.00140019 -0.00139917 -0.00216675
N 12.35877327 7.79448317 5.92317017 -0.00047251 0.00171759 0.00126702
N 9.12475102 6.96345504 8.59230953 -0.00346594 -0.00191800 0.00130953
N 7.30526544 9.69138391 10.78244705 0.00027900 -0.00667235 -0.00487792
N 10.88291321 10.77971075 13.31509442 0.00206908 -0.00371457 0.00236517
N 12.42700383 7.81925116 10.46791015 0.00269916 -0.00281283 0.00153924
N 8.68190238 6.65511540 13.38277131 -0.00547169 0.00238676 -0.00741628
N 6.90682245 9.73438324 15.17300525 -0.00329326 0.00096718 -0.00123673
N 10.79405758 10.47000694 18.30450759 0.00665342 -0.00033321 -0.00891266
N 12.09940120 7.58218387 15.39346760 0.00020218 -0.00419017 -0.00709481
N 8.77399844 6.65008556 18.07553232 0.00079292 -0.00281792 -0.00216633
N 7.25320082 9.45329997 20.25522823 -0.00207336 0.00357509 0.00207577
N 11.08570051 10.84086817 22.81591467 0.00033856 0.00396174 0.00458874
N 12.26864795 7.61680161 20.04207067 -0.00190707 -0.00758541 0.00370466
N 9.02465299 6.40583658 22.81871792 0.00343104 0.00230925 0.00226009
N 7.79506555 15.46949313 0.81321703 -0.00303735 0.00690519 -0.00021628
N 10.53661335 17.56431014 3.64198619 -0.00071815 -0.00561233 0.00323140
N 11.46072685 14.39997057 0.83128744 -0.00088947 -0.00439711 -0.00403517
N 9.14050810 12.20892871 3.94412583 -0.00238279 -0.00655701 0.00489168
N 7.64105127 15.35801078 5.70511231 -0.00518500 -0.00605309 0.00206170
N 10.37287535 17.41539810 8.22736258 -0.00680636 -0.00360203 -0.00413195
N 11.67536459 14.19775606 5.87044377 0.00488369 -0.00667095 0.00211213
N 8.99324852 12.10547491 8.35907468 0.00446301 -0.00029618 -0.00273747
N 7.94117240 15.20443584 10.26029108 0.00492176 0.00158978 0.00118257
N 10.41237417 17.77500400 13.09231082 0.00782824 -0.00499369 -0.00095499
N 11.58463800 13.91615588 10.68531568 0.00808420 0.00072409 0.00280144
N 9.20464763 12.27911290 13.39061349 -0.00253390 0.00462042 -0.00221805
N 7.70371630 15.32812567 14.90531334 -0.00101706 -0.00497271 0.00006791
N 10.59313264 17.50476542 17.58973296 -0.00240758 -0.00046376 -0.00278376
N 11.72614403 14.08404744 15.17643465 -0.00004018 -0.00107177 0.00173214
N 9.25383801 12.21502332 18.04163758 -0.00321425 -0.00406318 -0.00013019
N 7.68593440 15.32734867 19.79777286 -0.00580394 -0.00153674 -0.00490927
N 10.63366491 17.22383933 22.56110684 -0.00047688 -0.00576999 0.00348342
N 11.72172063 14.39448933 19.89329016 0.00025999 -0.00122426 -0.00723971
N 9.34871400 12.31711123 22.97333452 -0.00149316 0.00107290 -0.00274653
N 7.00254020 21.84240012 0.78200673 0.00681688 0.00512281 0.00280534
N 9.53314788 23.97106523 3.64557982 0.00522171 0.00250166 -0.00482225
N 11.18154996 21.09962707 0.89704399 -0.00349765 0.00011671 0.00031140
N 8.55091867 18.73062348 3.50031751 0.00199977 0.00338247 -0.00311936