2000
Time=15000.00000000 pbc="T T T" Lattice="30.95631932 0.00000000 0.00000000 0.00000000 29.83078610 0.00000000 0.00000000 0.00000000 23.68859088" energy=-12039.62337685 virial="19.50177260 -18.75234513 -11.09783659 -18.75234513 -17.30372571 -1.76082250 -11.09783659 -1.76082250 -74.68121558" stress="0.00289286 -0.00081091 -0.00048402 -0.00081091 0.00119793 -0.00000374 -0.00048402 -0.00000374 -0.00032385" Properties=species:S:1:pos:R:3:vel:R:3
C 30.50842405 3.52466198 1.74584986 0.00170517 -0.00708978 0.00321694
C 2.55889564 0.50953690 2.99265591 0.00354484 -0.00931182 -0.00233331
C 30.16961345 3.61355368 6.51310351 -0.00310849 0.00819250 0.00129652
C 2.24470332 0.60334931 7.69727810 0.00299812 -0.00445809 -0.00252572
C 29.92606531 3.60934437 11.20886051 -0.00311541 -0.00058800 0.00164972
C 2.46927050 0.63339518 12.47520482 -0.00269757 0.00430361 -0.00129952
C 30.18628340 3.55715312 15.91842797 0.01060841 -0.00156426 0.00039133
C 2.54487220 0.63951708 17.25957710 0.00503881 -0.00356843 0.00166407
C 30.35810121 3.56345370 20.75326430 -0.00343948 -0.00429890 0.00649996
C 2.73143799 0.70638377 22.06906400 -0.00099897 -0.00267948 0.00339182
C 30.78011419 9.33803926 1.75520042 0.00021481 0.00345313 -0.00028943
C 2.99353796 6.22432757 3.06562033 0.00323419 0.00220955 0.00427637
C 30.67258114 8.98983222 6.52563268 0.00314856 0.00377710 0.00448990
C 2.92977012 6.10776818 7.80256892 0.00140061 -0.00222884 0.00597729
C 30.47969697 9.21607915 11.25675719 0.00093385 -0.00130132 0.00204202
C 2.48558049 6.24832496 12.55686994 -0.00380536 -0.00296636 -0.00402785
C 30.71218959 9.27148835 15.96962765 0.00274338 -0.00218769 -0.00279673
C 2.66602802 6.26019526 17.43895268 -0.00757864 -0.00681582 -0.00110157
C 30.82962476 9.05021026 20.74703775 -0.00058535 0.00306944 -0.00338818
C 2.85363910 5.98409570 22.13428935 -0.00665181 0.00123476 0.00298420
C 0.07752242 14.59688479 1.79857134 -0.00370775 0.00169133 0.00069965
C 3.50858260 11.72097743 2.87567470 -0.00443970 0.00616700 -0.00112733
C 0.25883445 14.60730096 6.47873938 -0.00312952 -0.00414581 -0.00566536
C 3.46823270 11.50691667 7.80704251 0.00359274 -0.00079864 -0.00164784
C 0.16053722 14.64985407 11.09680884 -0.00359515 -0.00593455 -0.00029570
C 3.29554672 11.86674668 12.39886938 0.00134564 0.00414901 0.00407203
C 0.31019382 14.73190985 15.89757100 -0.00117026 -0.00373418 -0.00046648
C 3.28991624 11.63586314 17.10931575 -0.00535949 -0.00237940 -0.00141411
C 0.19244612 14.59052059 20.67959974 0.00748209 -0.00154781 0.00352088
C 3.25080424 11.60709897 22.02475250 -0.00026371 -0.00101136 -0.00215385
C 0.64111264 20.34620610 1.57153132 -0.00440641 -0.00026448 -0.00373965
C 3.68767913 17.00369935 3.04580899 -0.00457009 0.00224330 -0.00071811
C 0.94611354 20.14734570 6.38668285 0.00209433 -0.00157858 0.00067727
C 3.71245899 17.15521036 7.77768759 0.00677479 -0.00130579 0.00497841
C 0.74132286 20.17137320 11.25309668 0.00425078 0.00179055 0.00078552
C 3.72335180 17.13996424 12.38001212 -0.00252273 -0.00024159 -0.00383326
C 0.77760557 20.33826089 16.06466596 -0.00154272 -0.00006354 -0.00143354
C 3.72174138 17.48096625 17.23209484 -0.00044976 0.00066038 0.00214178
C 0.51658751 20.34008139 20.70013465 0.00854228 0.00112501 0.00273357
C 3.53361889 17.20624499 21.91572248 -0.00438011 -0.00388825 -0.00241953
C 0.02785445 26.94844248 1.79246941 0.00423671 -0.00199669 -0.01100876
C 3.23402916 23.81125493 2.92997736 -0.00346914 -0.00014680 -0.00762215
C 30.93893435 26.65449442 6.49646378 -0.00170013 0.00008507 0.00336420
C 3.04720158 23.82404156 7.81731814 0.00048254 -0.00337824 0.00219225
C 0.13165554 26.90377121 11.25651960 0.00271972 -0.00194956 -0.00446501
C 2.99159435 24.00566492 12.51824771 -0.00271337 -0.00034685 -0.00714306
C 30.74621559 26.67272168 15.97683939 -0.00514123 -0.00197817 0.00408831
C 3.02353146 23.95235157 17.29187693 0.00560277 -0.00099609 -0.00433961
C 0.18148937 26.91051694 20.74696148 0.00170976 0.00332579 0.00302766
C 3.10594274 23.96326804 21.89589889 -0.00614326 -0.00099131 -0.00219165
C 6.18092963 3.15236469 1.61464689 0.00205179 -0.00470698 -0.00259688
C 9.06159847 0.33674589 2.98795652 0.00287587 -0.00246438 0.00401371
C 6.02022409 3.15066809 6.51071603 0.00184692 -0.00087740 -0.00405512
C 9.04129240 0.19388656 7.60508626 -0.00745088 0.00264409 0.00083541
C 5.85947561 3.11743317 11.05442701 0.00432976 -0.00027658 -0.00468082
C 8.80096147 0.43245599 12.43535869 -0.00142666 0.00526900 -0.00580879
C 5.77418664 3.29101593 15.92870179 0.00130367 -0.00384538 -0.00568958
C 8.98802504 0.24415304 17.08718169 0.00225593 0.00102126 0.00262214
C 6.12094350 3.26772919 20.63962982 0.00383739 0.00156678 0.00511286
C 9.14758606 0.06048746 22.06106047 0.00128920 0.00035496 -0.00135470
C 6.46709334 8.94056289 1.72422338 -0.00182252 0.00387266 0.00470202
C 9.63775399 5.86542744 3.07262445 0.00137406 -0.00059453 0.00482440
C 6.42910155 8.82936986 6.47187815 -0.00147147 0.00268213 -0.00176990
C 9.52369051 5.90932995 7.73176627 -0.00748913 0.00113020 -0.00827770
C 6.46907365 8.73446743 11.19941213 -0.00209003 -0.00319596 0.00273805
C 9.56277833 5.85446764 12.63318849 0.00033364 0.00357929 -0.00197680
C 6.29740747 8.77299638 16.01155288 0.00103495 0.00365776 0.00270757
C 9.66067656 5.90047696 17.24029686 0.00349419 0.00003609 -0.00103339
C 6.22980672 8.77542231 20.66438961 -0.00616212 -0.00051198 0.00162053
C 9.33441613 5.95064655 21.96052035 -0.00047811 0.00356774 -0.00033974
C 6.69765220 14.44609063 1.54095842 -0.00343658 -0.00394750 -0.00138807
C 9.89718259 11.34885726 3.02000772 0.00145787 0.00525742 0.00342901
C 6.97353943 14.18684886 6.33069996 -0.00283482 -0.00847310 0.00865116
C 10.02280979 11.36071087 7.80598654 -0.00511961 -0.00099749 0.00420086
C 6.72392130 14.23147530 11.10032949 0.00325808 0.00330050 0.00455977
C 9.62971219 11.29355479 12.64539838 -0.00107223 0.00497611 -0.00946189
C 6.59528899 14.18354951 15.90432000 0.00341621 -0.00129678 0.00334854
C 9.89455690 11.41448093 17.20718331 -0.00308757 0.00738870 0.00097391
C 6.62287333 14.09502549 20.62202432 0.00735079 0.00074379 0.00468028
C 9.74279460 11.33503433 21.79334954 0.00040264 0.00292388 -0.00191724
C 6.23812912 20.83711874 1.68406697 -0.00289498 -0.00048707 0.00466557
C 9.49449750 17.64770327 2.97473947 0.00198830 -0.00558191 -0.00229256
C 6.36208414 20.93177203 6.47249230 -0.00281740 0.00115950 0.00369903
C 9.54010983 18.00454212 7.66445316 0.00240843 0.00296247 0.00407096
C 6.34160637 20.73493104 11.23737389 -0.00432095 -0.00204339 -0.00008086
C 9.27522046 17.77105070 12.54780050 -0.00209054 0.00555655 -0.00153620
C 6.23439170 20.97976691 15.99653855 0.00212354 -0.00584442 0.00190674
C 9.02870477 17.92668898 17.37359574 -0.00227857 0.00229562 -0.00350754
C 6.01824339 21.01160863 20.71680428 -0.00088170 -0.00014239 0.00112261
C 9.17840340 17.70995872 22.04953147 -0.00258480 0.00140896 0.00750537
C 5.50320210 27.34783665 1.74812513 -0.00293928 -0.00166939 0.01224556
C 8.63263219 24.39251212 2.96492045 0.00174371 -0.00422181 0.00041626
C 5.53999762 27.61051102 6.37868796 0.00490508 0.00248121 0.00052271
C 8.86179525 24.55697977 7.54457989 -0.00335342 0.00482427 0.00037302
C 5.65076799 27.54251678 11.13862843 -0.00150510 -0.00078958 0.00699670
C 8.61858770 24.73105557 12.40801656 -0.00123142 -0.00342448 -0.00379220
C 5.43198411 27.56598939 15.95534817 -0.00008410 0.00092215 0.00441162
C 8.56603912 24.73983292 17.15779120 -0.00204086 -0.00198023 0.00004112
C 5.51624390 27.59314569 20.76246949 -0.00030827 0.00019547 0.00107208
C 8.56509107 24.48984489 21.80428889 0.00106003 -0.00168056 -0.00418218
C 12.63140122 2.94550275 1.56076745 0.00067791 -0.00602649 -0.00257213
C 15.52326015 29.60378351 2.97616972 -0.00151518 -0.00411626 -0.00008581
C 12.41199734 2.92301948 6.31810604 0.00407588 -0.00172592 -0.00556692
C 15.73130807 29.77116897 7.75984974 -0.00530622 -0.00311599 0.00389911
C 12.54558553 2.82393997 11.14924658 -0.00013147 -0.00566243 0.00143387
C 15.66249028 29.71049010 12.53911843 0.00065053 -0.00276210 -0.00132596
C 12.50146524 2.80086214 16.06921305 0.00187919 -0.00145386 -0.00374769
C 15.84737400 29.74475608 17.28210492 0.00220032 -0.00533786 -0.00180404
C 12.65435194 2.61117533 20.63616152 -0.00563667 -0.00664522 0.00341487
C 15.72288220 0.00079274 21.88621793 0.00058782 -0.00299062 -0.00644588
C 13.07728969 8.38578112 1.66914312 -0.00365577 -0.00104068 0.00320161
C 16.11047405 5.39859596 2.93831193 0.00026903 -0.00288228 0.00127615
C 12.85559924 8.30883958 6.50778863 0.00071563 -0.00032061 -0.00107696
C 16.25287821 5.52427521 7.80204854 -0.00442597 0.00461698 0.00329311
C 13.20397806 8.54902930 11.23609892 -0.00344346 0.00070245 -0.00401353
C 16.08806563 5.37015026 12.60591715 0.00155231 -0.00243214 -0.00063593
C 13.11475770 8.12551618 15.88911846 0.00487663 -0.00178878 -0.00063374
C 16.22083939 5.27385037 17.12219675 0.00746616 -0.00132709 0.00425243
C 13.19725532 8.58765336 20.57639495 0.00285999 -0.00085472 -0.00413037
C 16.21985584 5.32060698 21.95108076 -0.00112105 -0.00293634 -0.00251121
C 12.35430447 14.88237920 1.70658719 0.00488825 -0.00226100 -0.00219339
C 15.59426933 11.99739546 3.02070485 0.00069344 0.00366750 -0.00435270
C 12.27978442 14.89984899 6.51830348 -0.00685292 -0.00135134 0.00016242
C 15.49944073 11.84669854 7.77155241 0.00189302 0.00722767 0.00413324
C 12.45501364 14.89293025 11.19371686 0.00491255 -0.00286437 -0.00076201
C 15.69358721 12.04646476 12.53883486 0.00544657 -0.00372266 0.00002587
C 12.32594315 14.98623084 15.93201211 -0.00379541 -0.00728064 0.00237865
C 15.54898629 11.86215359 17.22555500 -0.00274020 0.00019917 0.00256471
C 12.25607235 14.72319262 20.68550140 0.00434199 0.00219612 -0.00715194
C 15.50115026 12.06292095 22.04219300 -0.00200164 -0.00543783 0.00144861
C 11.63333742 21.41745571 1.56817112 0.00165792 0.00084136 -0.00426248
C 14.94369359 18.39757268 2.93797269 -0.00293842 -0.00291907 -0.00100151
C 11.73572840 21.54252659 6.42777043 -0.00313333 -0.00011437 -0.00380702
C 15.04203904 18.67064049 7.72563082 0.00427932 0.00177630 -0.00118243
C 11.71693898 21.55007869 11.16435840 0.00118102 0.00660982 -0.00200516
C 14.82425037 18.68075624 12.46339928 -0.00142195 -0.00571395 -0.00389747
C 11.34731623 21.63765731 15.89201896 -0.00207824 0.00401210 -0.00153019
C 14.88199531 18.53385502 17.37572810 0.00247560 -0.00416092 0.00455508
C 11.69649554 21.39696407 20.63113031 0.00236614 -0.00568951 -0.00634427
C 14.55104834 18.46051571 21.99820284 0.00124144 -0.00154952 0.01056752
C 12.32000006 27.07247887 1.75040750 0.00052003 0.00376061 -0.00534849
C 15.36021367 23.91756719 3.03793614 -0.00005478 -0.00347357 -0.00089589
C 12.17433225 26.98099912 6.36456618 0.00454567 0.00205746 -0.00095666
C 15.45757687 24.13709255 7.81107291 0.00021898 0.00267768 -0.00673079
C 12.24268626 27.18557915 11.10384074 -0.00430792 0.00129679 -0.00363237
C 15.15506419 23.99414534 12.57549591 0.00383421 0.00245191 -0.00572633
C 12.13954066 27.29286580 15.93413016 -0.00525481 -0.00223099 -0.00228035
C 15.31080937 24.14096797 17.33473197 -0.00620555 0.00422775 -0.00012465
C 12.19163784 26.98532773 20.82546393 0.00037654 0.00337372 -0.00249777
C 15.34277316 23.95947884 22.12845855 0.00410745 -0.00212333 0.00231570
C 19.36592246 2.46166392 1.81606664 0.00233668 0.00322787 0.00638379
C 22.43464783 29.28250157 3.09562371 -0.00080961 -0.00356885 -0.00543958
C 19.03954517 2.52543215 6.37674885 -0.00107629 0.00783546 0.00220813
C 22.10902730 29.29321580 7.76936041 -0.00073773 -0.00415715 -0.00322147
C 19.19952890 2.28723751 11.04008329 -0.00326447 0.00045842 -0.00119024
C 22.40189587 29.13310185 12.46065338 0.00212576 0.00048971 -0.00499588
C 19.33396970 2.23442952 15.80230799 0.00341172 0.00444115 0.00513003
C 22.33838981 29.19724938 17.21559145 0.00023450 -0.00451251 -0.00458767
C 19.35835613 2.31865861 20.59176402 -0.00082573 0.00546288 -0.00073176
C 22.40778758 29.23767599 22.02020949 -0.00460283 -0.00374700 -0.00375052
C 18.65756091 9.02220845 1.91127702 0.00285244 0.00443074 -0.00852640
C 21.84572265 5.96496644 3.06391762 0.00061130 -0.00140366 0.00250517
C 18.47468555 9.02669506 6.47637758 -0.00186513 -0.00087767 0.00168161
C 21.65057949 5.82463156 7.84223248 0.00168303 0.00285975 0.00416224
C 18.69112990 8.87060857 11.27122630 -0.00537371 -0.00367808 -0.00483542
C 21.61973783 5.83269988 12.41621136 0.00093404 0.00197011 0.00239227
C 18.79619170 8.80566306 16.04876047 0.00561813 -0.00130379 -0.00578975
C 21.86471446 6.07921637 17.38662289 0.00053817 0.00124222 -0.00286585
C 18.74538565 8.91074186 20.81509920 0.00040871 0.00226084 0.00356572
C 21.60295058 5.96052068 22.06421348 0.00835674 -0.00060138 0.00220698
C 17.96809923 15.47616724 1.46039378 0.00095708 0.00626951 0.00073961
C 21.01414817 12.61722610 3.03897194 0.00649199 0.00303623 -0.00750641
C 18.05062795 15.67686287 6.62013982 -0.00253798 0.00676420 0.00075428
C 21.02711575 12.78781013 7.65064939 -0.00682380 0.00153559 -0.00045905
C 17.95485433 15.62078351 11.34578868 -0.00854090 0.00597352 -0.00033914
C 20.96090402 12.41654246 12.36939675 0.00670127 0.00084818 0.00108600
C 17.90309666 15.57861123 15.84845609 0.00131141 0.00555131 -0.00132996
C 21.16333560 12.53293884 17.28384969 -0.00335091 -0.00245418 -0.00026079
C 17.77180314 15.52749663 20.55618003 0.00940144 0.00289023 0.00016826
C 20.96994308 12.38718987 22.02137080 0.00041342 -0.00875831 0.00053354
C 18.42603665 21.20437491 1.74571040 -0.00462186 0.00410382 -0.00171535
C 21.51831299 18.09612215 2.99660864 -0.00476859 0.00076676 0.00191695
C 18.34123458 21.16552331 6.50655400 0.00187544 0.00101670 0.00244025
C 21.54848817 18.23607562 7.68078704 -0.00344828 -0.00274236 0.00292219
C 18.48278355 21.16168401 11.29467183 -0.00040310 -0.00361925 -0.00173413
C 21.53225771 18.00906184 12.48777781 0.00464557 0.00025450 0.00227624
C 18.28544271 21.11531492 15.94925126 -0.00249523 0.00250317 -0.00084498
C 21.47006231 18.07449311 17.16818063 0.00304257 0.00197512 0.00276967
C 18.53555469 21.03698230 20.62404084 -0.00880926 -0.00485910 0.00300185
C 21.44597502 18.18812611 22.07969965 0.00197616 -0.00240197 0.00008124
C 18.70343275 26.92079971 1.69571865 -0.00258756 -0.00287082 -0.00382308
C 21.78785184 23.73763888 3.13136358 0.00592346 -0.00150290 -0.00260350
C 18.83167043 26.53561604 6.55196874 -0.00150065 0.00076726 -0.00129348
C 21.79402788 23.67742402 7.79592101 -0.00042980 0.00798823 -0.00256122
C 18.93116040 26.71347959 11.27698815 0.00219252 0.00536142 -0.00235167
C 21.81946141 23.55353668 12.64855267 -0.00724282 0.00132240 -0.00104901
C 18.60039934 26.62694098 16.05703090 -0.00248546 -0.00449903 0.00341263
C 22.10994060 23.65308327 17.23094343 -0.00164806 0.00096581 -0.00416594
C 18.72423491 26.73937664 20.77498916 -0.00322468 0.00398750 0.00311647
C 22.02833601 23.74951116 22.15062015 0.00201263 0.00079460 0.01010872
C 24.95051045 2.82618073 1.83846543 0.00988429 -0.00750936 0.00064562
C 27.97359508 29.67138207 3.04246849 0.00360467 0.00749690 -0.00039380
C 24.74532556 2.90163750 6.37002688 0.00284903 0.00420160 -0.00225656
C 27.98320787 29.69566135 7.79576974 -0.00242148 0.00235953 0.00552438
C 24.81224556 2.91533272 11.18301217 -0.00307448 -0.00137830 -0.00282599
C 27.57336997 29.68595308 12.51188039 -0.00313260 0.00737177 0.00362412
C 24.62772342 2.93721960 15.76628332 0.00085588 0.00971504 -0.00149836
C 27.85429662 29.80525806 17.10715005 -0.00445728 -0.00089409 0.00179395
C 24.61063161 2.78215635 20.75392925 -0.00201947 0.00890352 0.00462245
C 27.86831949 29.75873799 21.95407271 -0.00076203 -0.00361672 -0.00419123
C 24.27247959 9.55842824 1.64092516 0.00040431 -0.00093288 0.00213391
C 27.35803790 6.38495581 2.99003313 0.00004021 -0.00089278 -0.00180808
C 23.94690950 9.64152593 6.41658052 -0.00659747 0.00235865 0.00361526
C 27.09043173 6.32974072 7.73431419 -0.00307146 -0.00253734 0.00724181
C 23.98744261 9.45145428 11.09455452 -0.00403339 -0.00275088 0.00216269
C 27.29597071 6.23336061 12.53613353 0.00017827 -0.00245326 -0.00372060
C 24.25304932 9.69625027 15.82101841 0.00021645 -0.00688433 0.00344133
C 27.30832470 6.63041770 17.18183874 0.00545175 -0.00219501 -0.00210312
C 24.60924613 9.47702240 20.58658330 0.00083822 -0.00377772 0.00597920
C 27.37357920 6.56701573 21.92073610 0.00117288 -0.00061198 -0.00167032
C 24.36421185 15.12922250 1.79363749 -0.00583905 0.00157051 0.00302127
C 27.46310551 12.19452549 3.07716446 -0.00136665 -0.00107832 -0.00101835
C 24.53057294 15.16863173 6.39577132 0.00235886 -0.00231061 0.00151723
C 27.58371538 12.09970512 7.61253495 -0.00492934 -0.00326074 0.00176872
C 24.66034457 15.04606633 11.13115689 -0.00171506 0.00350694 0.00494299
C 27.72031370 11.87058240 12.27670056 0.00035550 -0.00550106 -0.00599404
C 24.63793495 15.22974815 15.78919689 0.00765209 0.00322482 0.00339254
C 27.58531209 12.29002035 16.97525779 -0.00014997 -0.00233171 0.00202863
C 24.54402323 15.14630827 20.50463137 0.00202326 -0.00075835 -0.00222494
C 27.80516067 12.48138605 22.04900788 0.00543125 -0.00509307 -0.00406526
C 24.90147331 20.51217819 1.72136541 0.00423538 -0.00048886 -0.00730179
C 28.05764718 17.74131228 2.97213899 -0.00052243 -0.00083742 -0.00254784
C 25.13696024 20.54665011 6.31087921 0.00677623 -0.00193111 0.00149248
C 27.87152229 17.67619238 7.89580300 -0.00182888 -0.00093856 -0.00270183
C 24.85256463 20.56759594 11.09249634 0.00259849 0.00538018 0.00034870
C 28.02676222 17.74938821 12.56927466 -0.00074491 0.00301633 -0.00159703
C 24.97354446 20.58221736 15.86081232 0.00162387 -0.00287373 -0.00143771
C 27.89951382 17.62729781 17.31043901 -0.00828404 -0.00174351 0.00062465
C 25.02622477 20.51779528 20.77481443 0.00072418 -0.00017064 -0.00499149
C 28.08900761 17.83019622 21.96196697 0.00203095 -0.00453152 -0.00115185
C 25.46238395 26.33521107 1.83149274 0.00452753 -0.00502078 -0.00730626
C 28.48279746 22.97614896 3.04152008 0.00550114 -0.00397538 0.00237499
C 25.51543978 26.16076253 6.54510556 -0.00535935 -0.00890176 0.00266402
C 28.26143596 23.40679998 7.77429395 -0.00140665 -0.00306713 -0.00202911
C 25.19983259 26.23533196 11.26312401 0.00603300 -0.00349994 0.00270830
C 28.19968450 22.99403201 12.37219205 0.00513853 0.00239107 -0.00259261
C 25.54957781 26.02384460 15.93723700 0.00055329 0.00328816 -0.00291402
C 28.28881370 23.37921061 17.14714201 0.00212269 -0.00361739 -0.00033800
C 25.37934790 26.17451351 20.83854428 0.00599132 -0.00153365 0.00507450
C 28.53370781 23.41945699 22.04029645 -0.00433881 -0.00072724 -0.00453400
N 0.48650557 4.31581820 1.14209873 0.00041874 -0.00196825 -0.00818528
N 3.58518605 5.29714012 3.78218273 0.00712007 -0.00561258 0.00033613
N 5.55755787 2.15998743 0.90210689 -0.00360182 -0.00168688 -0.00000789
N 1.74153114 1.30330575 3.74083502 -0.00105222 0.00048163 -0.00102507
N 0.04161993 4.47419966 5.91084727 -0.00296971 0.00170476 -0.00094771
N 3.40970792 5.03485112 8.56690565 0.00579664 0.00022430 -0.00680679
N 5.27799110 2.24088564 5.81105730 0.00202124 -0.00415907 -0.00081492
N 1.39028680 1.27794404 8.46842249 -0.00010425 -0.00233657 -0.00185386
N 30.68420429 4.48428084 10.44774050 0.00209519 0.00777372 0.00611473
N 3.13780203 5.28738831 13.25020523 -0.00067599 0.00215023 0.00147633
N 4.97080133 2.36391704 10.24003790 0.00147769 -0.00256858 -0.00158905
N 1.35912287 1.12833331 13.03235099 0.01296580 -0.00385154 -0.00308044
N 0.26016407 4.18671816 15.24628992 0.00073178 0.00385792 -0.00185853
N 3.48783679 5.39273464 18.06419202 -0.00221294 -0.00479762 -0.00482612
N 5.03313273 2.31712373 15.23415512 0.00296712 0.00286452 -0.00836339
N 1.85921322 1.53406779 17.97277723 -0.00152880 0.00026096 -0.00238763
N 0.09096237 4.33918185 19.85171610 0.00153051 -0.00035598 0.00511565
N 3.57539023 5.14140237 22.92332851 -0.00332602 -0.00325237 0.00146759
N 5.20357263 2.51703823 19.93621157 -0.00191276 0.00237959 -0.00509617
N 1.77686384 1.49602740 22.72898096 -0.00798752 -0.00038855 0.00384846
N 0.51995798 10.14944590 0.97241780 0.00277277 -0.00070288 0.00251769
N 4.15425186 10.82820080 3.69305062 0.00005291 -0.00104276 -0.00554307
N 5.87157076 7.98204289 0.95321465 -0.00074646 -0.00946469 -0.00505188
N 2.29492762 7.13651285 3.78504959 -0.00209989 0.00756556 -0.00032493
N 0.50369485 9.83826763 5.87411765 -0.00585420 0.00065751 -0.00697843
N 4.01900635 10.49845123 8.47467576 -0.00334962 0.00037938 -0.00537262
N 5.57941898 7.97149691 5.82376832 0.00032812 0.00081597 0.00219986
N 2.29629492 7.06905818 8.52259397 0.00033148 -0.00479587 0.00425085
N 0.19061356 10.15592675 10.56922375 0.00284701 -0.00299464 -0.00679552
N 3.80558717 10.84663587 13.12781860 -0.00178167 0.00264270 -0.00346811
N 5.76870287 7.80179186 10.56457823 -0.00338647 0.00181658 0.00042954
N 2.07326485 7.35802184 13.22654387 0.00487066 -0.00234784 -0.00167087
N 0.52811377 9.94271796 15.08848534 0.00092943 0.00105057 0.00039786
N 3.74156231 10.69527117 17.97412952 -0.00304075 -0.00251413 0.00089942
N 5.41001064 8.01118146 15.28592535 0.00224686 0.00742742 0.00268218
N 1.92667634 7.06463752 18.30831987 0.00419513 -0.00397746 -0.00543703
N 0.28784762 10.20104047 20.12747066 0.00298676 0.00351799 0.00548032
N 3.79901583 10.62049020 22.66571960 0.00284082 -0.00122175 -0.00347455
N 5.44966811 7.91682210 19.98287838 0.00107266 -0.00345286 0.00113548
N 2.17830352 7.03611098 22.69851629 -0.00385680 0.00071909 0.00841922
N 0.95354896 15.31870687 1.07445245 0.00205886 0.00639571 0.00206048
N 4.66352750 16.35043491 3.69467765 0.00164085 0.00039204 -0.00051954
N 5.87763998 13.68933624 0.85170078 -0.00114178 -0.00077297 0.00212052
N 2.66600407 12.52642510 3.57576353 -0.00101064 -0.00498264 -0.00148419
N 1.20266594 15.34272990 5.82803898 -0.00268868 -0.00136413 0.00451084
N 4.27445657 16.09013755 8.45950035 0.00491205 0.00296655 0.00025828
N 6.25664725 13.34678271 5.62572948 0.00084275 0.00382498 0.00804527
N 2.61023175 12.25996011 8.53429807 0.00011949 0.00342055 -0.00024173
N 0.86335891 15.45787530 10.32971570 -0.00012477 -0.00004642 0.00519904
N 4.80081779 16.79742903 13.11152867 0.00204254 0.00267817 -0.00043866
N 5.82372929 13.43578088 10.45083745 -0.00314659 -0.00288560 -0.00387106
N 2.68204512 12.93467979 13.05854259 -0.00432910 0.00079040 -0.00101820
N 1.08699305 15.66914421 15.27342842 0.00104793 -0.00321616 0.00460822
N 4.54849458 16.74144086 18.03588163 -0.00034930 0.00150188 -0.00122469
N 5.84686218 13.25931844 15.29776442 -0.00744894 -0.00153800 -0.00335688
N 2.52725153 12.65806097 17.67515044 0.00336869 -0.00293425 0.00624603
N 0.68496564 15.67583912 20.02656732 0.00160783 -0.00207974 -0.00421365
N 4.43209704 16.55151168 22.66286588 0.00018211 -0.00227558 0.00148670
N 5.64427509 13.40864533 19.87623686 -0.00321851 0.00177655 0.00064476
N 2.61526575 12.58362494 22.77734307 -0.00245145 0.00497761 -0.00684269
N 1.36551650 21.32645280 0.98591633 0.00235932 0.00376492 0.01351707
N 4.19519118 23.17713816 3.66108893 0.00369437 -0.00728376 0.00275040
N 5.22316716 20.22507563 1.05596085 -0.00645605 -0.00354360 -0.00511117
N 3.02886862 17.94997441 3.73642966 -0.00254011 -0.00428383 -0.00366767
N 1.66121553 21.03138960 5.56460012 -0.00264185 0.00785637 -0.00716587
N 4.05819169 23.28084169 8.52506848 -0.00499254 0.00068748 -0.00081591
N 5.41850328 20.34738991 5.73165610 -0.00246276 0.00107312 0.00046752
N 3.02132138 18.01384791 8.54095821 -0.00085951 -0.00169066 0.00635309
N 1.44851294 21.08178580 10.56649176 0.00020988 0.00015696 0.00197110
N 3.96959852 23.38352211 13.14354159 -0.00265466 0.00079893 0.00559121
N 5.55919525 19.97531058 10.43212896 -0.00126448 -0.00498087 -0.00394171
N 2.77667503 17.92962364 12.95354966 -0.00169567 0.00177375 0.00176000
N 1.38956508 21.27384442 15.25571586 -0.00202732 0.00049759 -0.00268994
N 4.01363887 23.47704853 18.02657835 0.00410903 -0.00148173 0.00374088
N 5.44780107 19.98137130 15.34034924 -0.00449701 -0.00024114 -0.00211211
N 2.77662137 18.21543484 17.80999388 0.00273417 0.00293826 -0.00249995
N 1.35259722 21.13057869 19.99907226 0.00593374 -0.00419378 0.00345843
N 4.05783306 23.50619866 22.71596857 0.00165289 0.01136792 0.00168279
N 5.27211304 20.19475332 19.98660483 0.01094903 0.00559687 -0.00196499
N 2.67150770 18.06589443 22.55437608 -0.00508689 0.00211206 -0.00168208
N 0.79287858 27.69725633 0.98279112 0.00133946 0.00000930 0.00044491
N 3.32261253 29.48760474 3.81718717 -0.00185013 0.00037739 -0.00578468
N 4.60311423 26.70131185 0.92455471 -0.00166665 0.00455432 0.00251239
N 2.29513778 24.46070601 3.67821962 0.00809708 -0.00008474 0.00339092
N 0.72930767 27.59572056 5.84716283 0.00050783 -0.00079079 -0.00446810
N 3.19808229 29.72385352 8.39670321 0.00136742 -0.00114438 0.00696903
N 4.70397212 26.68691227 5.83163788 0.00322550 0.00077966 -0.00456570
N 2.07963129 24.33785945 8.60673057 -0.00346882 -0.00849945 -0.00383485
N 0.93803592 27.63664078 10.47685876 -0.00272449 -0.00199670 0.00007539
N 3.43146460 0.03509015 13.24814243 0.00229849 -0.00187462 0.00317037
N 4.70104246 26.71255854 10.51919205 -0.00005651 -0.00239990 -0.00290689
N 1.91860816 24.49406802 13.23264027 -0.00425178 -0.00362757 -0.00649602
N 0.59825774 27.55458420 15.31684478 0.00203610 -0.00618550 -0.00038092
N 3.30608938 29.63916943 18.02656923 0.00197785 -0.00456691 -0.00825858
N 4.51646109 26.93274533 15.20744722 0.00001111 -0.00022389 0.00515236
N 2.10975813 24.67010244 17.98769872 0.00411845 0.00030008 -0.00496062
N 0.80334377 27.79968139 19.92313050 -0.00123081 0.00479447 -0.00357443
N 3.29740971 29.55448294 22.87686457 0.00151097 0.01087531 -0.00200813
N 4.91964458 26.75159849 19.90263049 0.00221658 -0.00552771 -0.00296369
N 2.02488780 24.46097169 22.51880999 0.00070955 0.00062976 -0.00242543
N 6.87250721 4.05812461 0.90906656 -0.00006125 -0.00071159 -0.00114316
N 10.31490199 4.87496545 3.76636538 -0.00347148 -0.00107564 0.00365175
N 11.80533356 1.97773914 1.04905671 0.00285290 -0.00323175 -0.00195187
N 8.52123818 1.34426337 3.78152042 -0.00320471 -0.00097430 0.00003365
N 6.66197443 4.06800241 5.72729485 0.00637004 -0.00035107 0.00754131
N 10.38217477 5.06380688 8.48497756 -0.00006252 -0.00702636 -0.00273941
N 11.81850566 1.95139121 5.58893058 -0.00167546 0.00203263 -0.00065443
N 8.39458187 1.12630802 8.37788398 0.00782752 0.00063259 0.00350144
N 6.85125488 3.79484183 10.51740587 0.00554047 0.00090165 0.00046680
N 9.80254619 4.66804826 13.40276723 -0.00628056 0.01078771 0.00142305
N 11.64887686 2.01710236 10.55159073 0.00133081 0.00473724 0.00215887
N 8.21578818 1.29391933 13.31566523 0.00281343 0.00505327 0.00345632
N 6.50499165 4.11185557 15.12308136 0.00232477 0.00168018 -0.00013577
N 10.12987055 4.96302808 18.05167942 0.00180444 0.00146013 -0.00013487
N 11.64578662 2.04344389 15.29887386 -0.00554301 0.00111702 -0.00584590
N 8.27630291 1.20737832 17.69646748 0.00035440 0.00600346 -0.00095920
N 6.66044337 4.31326845 19.94408986 0.00350904 0.00058665 0.00328148
N 9.90030700 5.06505881 22.82735001 -0.00399281 -0.00128568 -0.00056751
N 11.71013997 1.94599201 19.89668808 0.00080895 0.00413977 0.00553367
N 8.68251023 1.13495400 22.74043538 0.00629468 0.00890165 -0.00356248
N 7.19685210 9.90372434 1.08173806 -0.00388682 -0.00316232 0.00100610
N 10.69571950 10.47742496 3.74444026 -0.00245886 0.00912662 -0.00208677
N 12.24955403 7.74855978 0.81946998 -0.00336149 0.00321047 0.00075919
N 8.71305929 6.51564329 3.81747994 -0.00110453 0.00050011 0.00087513
N 7.34695708 9.51646043 5.79209306 0.00113148 0.00446248 0.00048794
N 10.82371590 10.53370643 8.56607897 0.00097015 -0.00333022 -0.00602988
N 12.07228707 7.44998213 5.74389767 -0.00271627 0.00338267 0.00148295
N 8.83267854 6.78257924 8.48049174 -0.00476073 0.00168389 -0.00628638
N 7.25744391 9.58516300 10.44414891 0.00597872 0.00073931 0.00214456
N 10.50038437 10.60637176 13.35388056 0.00650585 0.00098655 -0.00237827
N 12.36217952 7.57933750 10.66380984 -0.00019937 0.00997117 -0.00262612
N 9.04195209 6.92757841 13.25133415 -0.00492187 0.00141678 0.00219933
N 7.05497233 9.54611783 15.23160984 -0.00042165 -0.00062363 -0.00062197
N 10.81791789 10.67021214 17.91577871 -0.00238473 -0.00095779 -0.00181349
N 12.30156546 7.30037271 15.19726010 -0.00397613 -0.00566255 -0.00460522
N 8.98713623 6.88894836 17.91049578 0.00080306 0.00066756 -0.00222608
N 6.98032767 9.61005659 19.91761366 -0.00598526 -0.00243985 0.00116647
N 10.80178886 10.77387095 22.37843399 0.00479772 0.00393119 -0.00066247
N 12.54036681 7.55624813 19.90395649 -0.00783394 -0.00282773 -0.00264009
N 9.11566894 7.18688240 22.49475518 -0.00010794 0.00054712 0.00290325
N 7.59356362 15.18370567 0.87909820 0.00315599 -0.00702982 -0.00401926
N 10.51276751 17.25364003 3.88052243 0.00188735 -0.00696804 0.00359978
N 11.46852498 14.06740891 1.00366900 -0.00211887 0.00542272 -0.00547335
N 8.94066748 12.02584583 3.66067886 -0.00153523 -0.00263188 0.00653877
N 7.56916814 15.14910137 5.60271295 0.00775115 0.00212818 -0.00147237
N 10.42977059 17.24499624 8.37618721 0.00052361 0.00078823 -0.00501215
N 11.52073065 14.10613415 5.72889249 0.00083107 -0.00222926 -0.00324113
N 9.34748601 12.20642832 8.52699770 0.00156218 0.00247534 0.00382511
N 7.41083486 15.06166225 10.29863194 0.00397140 -0.00759418 0.00330813
N 10.37344741 17.41093508 13.21131683 -0.00812474 0.00187381 0.00087627
N 11.57021297 14.11111839 10.54744880 0.00578107 -0.00164674 0.00007544
N 8.87382879 12.16708939 13.39958691 0.00192314 0.00154025 -0.00017626
N 7.35473547 14.95456810 15.16630272 -0.00531992 -0.00165444 -0.00071022
N 10.13551779 17.35270563 18.00378871 0.00583023 -0.00697236 -0.00440914
N 11.75237390 14.14235181 14.97947597 -0.00431719 0.00230427 -0.00005689
N 8.81592457 11.90062064 17.89132668 -0.00007163 0.00118203 0.00030810
N 7.40981813 14.94899629 19.96560449 -0.00519434 0.00227221 -0.00226570
N 10.14170798 17.03320200 22.69379923 -0.00187902 -0.00061381 0.00331488
N 11.43579302 13.99624826 19.91009967 0.00305662 -0.00544438 0.00467633
N 8.96064260 12.15215756 22.55969261 0.00205701 -0.00349098 0.00423338
N 7.11885213 21.55783776 0.87981056 0.00113989 0.00239418 0.00642640
N 9.46144559 23.54641934 3.61147362 -0.00025322 -0.00009712 -0.00417370
N 10.82301308 20.62548002 0.79656983 0.00146445 -0.00471818 0.00844912
N 8.40503682 18.09099081 3.59326800 -0.00303842 -0.00397603 0.00091868