2000
Time=96999.99999998 pbc="T T T" Lattice="31.06921750 0.00000000 0.00000000 0.00000000 30.10233563 0.00000000 0.00000000 0.00000000 23.62465963" energy=-12040.33065379 virial="-41.62154901 -6.54862955 11.31219581 -6.54862955 -65.27918647 29.55824575 11.31219581 29.55824575 -72.34310086" stress="0.00026758 -0.00040934 0.00047686 -0.00040934 -0.00070594 0.00131346 0.00047686 0.00131346 -0.00040270" Properties=species:S:1:pos:R:3:vel:R:3
C 30.49221372 3.65678760 1.77277148 -0.00176885 -0.00118924 -0.00228046
C 2.69847258 0.56686123 2.94250748 -0.00397456 0.00197112 -0.00295134
C 30.31970198 3.63253090 6.27043576 0.00247861 0.00520390 0.00404786
C 2.45898956 0.37754324 7.82285146 -0.00423784 0.00512316 0.00515019
C 30.75718357 3.62348511 11.35855468 0.00120640 0.00454625 0.00654120
C 2.58031076 0.72056132 12.59018902 0.00133737 0.00152653 0.00545874
C 30.49928711 3.59982901 15.94839224 0.00968263 -0.00349956 -0.00149057
C 2.46394098 0.65269970 17.19959233 -0.00596723 0.00577033 -0.00142940
C 30.50174805 3.60228918 20.58168933 -0.00397022 0.00314983 -0.00335152
C 2.46300000 0.59278298 21.95896477 -0.00388340 0.01443068 0.00207296
C 30.73822970 9.28027232 1.65102699 -0.00356903 0.00113692 0.00130894
C 2.81673599 6.15105902 3.01278643 -0.00209632 -0.00113402 -0.00142628
C 30.90084159 9.40229281 6.49193892 0.00728007 -0.00127424 -0.00131215
C 2.84630131 6.25255474 7.69940567 0.00653770 -0.00078376 0.00153241
C 30.93075217 9.29942167 11.24338534 0.00119148 0.00269281 -0.00681647
C 2.98227661 6.27484828 12.57212333 0.00566773 0.00811007 -0.00157823
C 30.82324396 9.08963922 15.99022068 -0.00235688 0.00056050 0.00317727
C 2.90461413 6.45314778 17.20387156 0.00397626 0.00398770 0.00381329
C 30.66792988 9.30162040 20.69174033 -0.00277818 -0.00312983 -0.00231984
C 2.64303726 6.07536195 22.07765492 -0.00960532 0.00152358 -0.00621280
C 31.05557127 14.71286143 1.74363855 0.00002686 -0.00269928 0.00244063
C 3.39101014 11.72719434 2.98700507 0.00649055 -0.00598916 -0.00329989
C 0.10687794 14.83746283 6.51409817 0.00624500 -0.00226969 0.00430250
C 3.31595488 12.02644540 7.68481875 -0.00047626 -0.00116844 0.00114922
C 0.35891551 14.56076176 11.07098144 -0.00024902 -0.00079680 -0.00247586
C 3.48657047 11.87881019 12.59663388 0.00030086 -0.00413163 0.00056802
C 0.24178647 15.02244152 16.02671543 -0.00221915 0.00585207 -0.00088282
C 3.38830431 11.99417285 17.27378513 -0.00373769 0.00099303 0.00068712
C 0.22779855 14.79239706 20.57662992 -0.00481314 0.00988107 0.00325643
C 3.21879233 11.82555389 21.84593904 -0.00586966 -0.00343760 0.00467805
C 0.44762696 20.63694154 1.51249306 -0.00012880 -0.00142529 -0.00675933
C 3.67626925 17.26090906 2.94352453 -0.00261730 -0.00242897 -0.00163751
C 0.29071290 20.35105964 6.41677208 -0.00201343 0.00005204 -0.00076435
C 3.51439741 17.41311427 7.61586082 0.00352385 0.00010253 -0.00480898
C 0.73502773 20.54977428 10.98245515 -0.00429420 0.00454591 0.00552801
C 3.39635554 17.31172698 12.25093500 -0.00214516 0.00076620 0.00451402
C 0.40610549 20.49959222 15.64996689 -0.00771176 -0.00658276 -0.00457198
C 3.57030212 17.38340650 17.00743080 0.01670895 0.00354108 0.00364023
C 0.94963989 20.42087178 20.35649114 0.00456227 0.00411629 0.00085564
C 3.67459220 17.54390399 21.84769134 0.00284581 -0.00205716 0.00145193
C 0.17345958 26.93211039 1.74445010 0.00256210 -0.00276877 -0.00759716
C 2.99148349 23.74948811 3.05399812 0.00132477 -0.00584887 0.00010125
C 30.98192671 27.25313676 6.29512447 -0.00498832 -0.00086729 -0.00332567
C 2.99836934 24.10188169 7.84521802 -0.00486632 0.00377666 0.00197096
C 30.93160289 27.14505011 11.23530723 -0.00594540 -0.00033203 -0.00359094
C 3.12606825 24.06388938 12.37959147 -0.00133602 0.00392101 0.00089035
C 0.09235007 27.22326952 15.86435167 -0.00287426 0.00134267 -0.00554535
C 3.21603986 24.06827786 17.09339909 0.00392809 -0.00260200 0.00494769
C 0.09772282 27.07110010 20.45747798 -0.00125360 0.00529394 -0.00438571
C 3.01159447 24.27828054 21.77924981 -0.00409054 -0.00087825 -0.00416292
C 6.01145178 3.29503008 1.88110804 0.00058114 0.00516203 0.00395036
C 9.07312809 0.13831040 3.20727209 -0.00263982 0.00029577 -0.00118896
C 5.85474258 3.31538406 6.66173186 0.00111844 -0.00387776 0.00199930
C 8.99504851 29.96414322 7.78359876 -0.00426640 -0.00399314 -0.00512137
C 5.98360828 3.28318561 11.22554240 0.00807727 -0.00250368 -0.00225715
C 9.13833221 0.09509035 12.48411920 0.00601358 0.00469602 0.00457548
C 5.96936103 3.31747217 15.93569857 0.00435024 0.00080567 -0.00586985
C 8.96093870 0.02414939 17.30188050 -0.00372698 -0.00497686 -0.00116492
C 6.21639003 3.16775791 20.49282492 0.00065233 -0.00799365 -0.00122927
C 8.93416706 0.12661928 22.17583989 0.00401641 -0.00010194 -0.00375067
C 6.92888803 8.69749433 1.69744631 -0.00185425 -0.00333414 0.00478146
C 9.52800123 5.78721340 3.42460646 0.00077701 -0.00415889 0.00066193
C 6.20330551 9.10222184 6.57243693 0.00546174 0.00032681 0.00485163
C 9.26113845 5.67180724 7.97334175 0.00046153 -0.00420421 -0.00127326
C 6.32183661 8.72715979 11.23123948 0.00109708 -0.00023716 -0.00289355
C 9.69364244 5.62439061 12.62929568 0.00541062 -0.00410948 0.00208817
C 6.51584192 8.95256758 16.08463725 -0.00227661 0.00281101 -0.00396084
C 9.45736774 5.92862241 17.38041022 0.00381132 0.00615354 0.00166731
C 6.36524909 8.90781916 20.79129846 -0.00033874 0.00207515 -0.00140754
C 9.90080867 5.57772929 22.12192723 0.00456739 0.01067224 -0.00246808
C 6.86887172 14.09235075 1.78992906 -0.00241710 -0.00212696 -0.00047392
C 9.85754717 11.38956821 2.98241321 0.00500467 -0.00020178 0.00027547
C 6.92026110 14.57898173 6.53281769 -0.00145340 0.00271417 0.01065506
C 10.23205425 11.63150797 7.87658695 0.00612473 0.00356143 -0.00081938
C 6.83713153 14.66361689 11.13902544 0.00166232 -0.00281515 0.00020106
C 9.69759905 11.44687487 12.36405152 -0.00254525 -0.00669223 -0.00217636
C 6.63674252 14.49943094 16.07823730 0.00191153 0.00361940 0.00055474
C 10.00677980 11.42617790 17.19495151 -0.00505773 0.00593191 -0.00004013
C 7.01968733 14.27076839 20.77160411 0.00231866 -0.00016251 0.00578563
C 10.02951632 11.50716359 21.98778822 0.00314193 0.00260028 -0.00033971
C 6.01434571 21.02207941 1.70968273 0.00242909 0.00234377 0.00497401
C 9.19242149 18.03165609 3.10030449 -0.00224391 -0.00423314 -0.00083948
C 6.23385494 21.28576100 6.46283125 -0.00180474 0.00182856 0.00372290
C 9.59864000 18.16102727 7.73518784 0.00120238 0.00352110 0.00463229
C 6.15142334 21.15804755 11.18561481 0.00397239 -0.00239818 -0.00223865
C 9.53059591 17.96341165 12.65262364 -0.00462832 0.00911588 0.00297839
C 6.25292437 20.72855643 16.01466592 -0.00189126 0.00574553 -0.00329992
C 9.16579899 18.02143012 17.10119614 -0.00441191 -0.00181261 0.00020322
C 6.42003379 21.09998027 20.79676469 -0.00005022 -0.00156958 0.00286727
C 9.35841213 18.04184188 22.05740227 0.00193906 0.00528289 -0.00339960
C 5.42186306 27.71560829 1.72737791 -0.00008839 -0.00353526 0.00346198
C 8.80912344 24.60152121 3.03091620 -0.00393520 0.00693675 -0.00407601
C 5.54149974 27.52468151 6.59643332 0.00574956 -0.00317984 -0.00190488
C 8.79840962 24.73394614 7.74280714 -0.00034978 0.00111688 0.00311762
C 5.55712230 27.84292903 11.25072927 0.00107609 -0.00205750 0.00651265
C 8.69861451 24.73741505 12.52738223 -0.00216114 0.00547404 0.00626196
C 5.74129499 27.78224226 15.90133460 0.00050449 -0.00052209 0.00350333
C 8.59498629 24.49200193 17.09145290 0.00252667 -0.00163960 -0.00142863
C 5.53980314 27.64280093 20.87141217 0.00223313 -0.00109094 -0.00284407
C 8.93652318 24.85539219 22.04647460 -0.00035476 0.00181677 0.00072973
C 12.67702578 2.81768016 1.91125452 -0.00416761 -0.00073831 0.01133008
C 15.78796422 30.01007834 2.95841566 0.00409760 0.00169819 -0.00390320
C 12.58426545 2.58057112 6.51775976 0.00198861 0.00268599 -0.00267271
C 15.59998039 29.95796710 7.55053913 -0.00064810 -0.00189371 0.00124721
C 12.36105830 2.99274705 11.16773843 -0.00229507 0.00144411 -0.00074772
C 15.76991926 29.95863403 12.43027977 0.00249212 0.00663099 -0.00650542
C 12.51817008 2.83639188 16.04570563 -0.00139984 0.00214771 -0.00557433
C 15.70433878 29.89352655 17.15358130 0.00039861 0.00329303 -0.00001540
C 12.62567706 2.76157922 20.78680924 0.00030525 -0.00347900 -0.00178962
C 15.69246107 29.50045809 21.78254438 0.00241404 -0.01098939 -0.00259906
C 13.07070000 8.41304243 1.85881918 -0.00464373 -0.00457273 -0.00290794
C 16.04707197 5.31227090 3.01451409 0.00103518 -0.00818889 -0.00100919
C 12.86176006 8.72222016 6.56816182 0.00085223 0.00699224 -0.00184416
C 15.80671604 5.46435957 7.67823421 0.00758525 0.00499620 -0.00235500
C 12.65117632 8.57090706 11.25480087 -0.00581261 0.00464660 -0.00076749
C 16.06910908 5.49170849 12.59136932 -0.00138682 0.00251329 0.00061505
C 12.98595816 8.46493910 15.82126957 0.00013962 -0.00802827 0.00292165
C 15.95479827 5.16543723 17.37722809 0.00149757 -0.00327216 0.00244953
C 13.36444783 8.48110041 20.75126291 0.00635392 -0.00867418 0.00102781
C 16.25696526 5.32460204 21.90230788 0.00009617 -0.00053453 0.00349144
C 12.49652824 15.00929287 1.66351454 0.00101457 0.00132020 0.00330138
C 15.91392632 12.00719636 3.11104309 0.00322820 -0.00312323 0.00735502
C 12.41230091 15.14102816 6.43261031 -0.00152498 -0.00090359 0.00087660
C 15.68046330 11.99066086 7.80372027 0.00543924 -0.00122250 -0.00787493
C 12.49900465 14.88045229 11.24397107 0.00500565 0.00203253 -0.00181767
C 15.50922735 12.23852092 12.49997098 -0.00080796 -0.00210180 0.00167724
C 12.42049424 15.03890140 15.88440200 0.01213067 -0.00389214 -0.00608013
C 15.56279111 12.02577119 17.16995742 0.00319885 -0.00075353 0.00210702
C 12.38532168 15.15405657 20.76876672 0.00229275 0.01050370 0.00425564
C 15.67593507 12.17932919 22.11964792 -0.00235333 0.00646053 0.00082642
C 11.73463809 21.77444091 1.65587135 -0.00214901 0.00265266 -0.00409701
C 14.75090879 18.42002868 2.91709400 0.00107256 -0.00356712 -0.00052570
C 11.78323406 21.85816730 6.50318948 0.00430188 -0.00041481 -0.00082290
C 14.96537853 18.67677946 7.78732184 -0.00728160 -0.00546310 0.00240495
C 12.00241786 21.83125025 11.21006912 0.00579654 0.00028667 -0.00649456
C 15.01927398 18.61052314 12.69706130 -0.00176206 0.00303250 -0.00293871
C 11.99521029 21.54596342 15.98267000 -0.00176128 -0.00013395 -0.00355811
C 15.02236155 18.51098514 17.22393496 0.00247405 0.00387665 -0.00227667
C 11.69831466 21.66273454 20.54583377 0.00177698 -0.00350607 0.00309632
C 15.09795354 18.54090630 21.73427130 0.00041097 -0.00123521 0.00552922
C 12.17412371 27.23260664 1.74768971 -0.00314063 -0.00057299 0.00125294
C 15.26470729 24.11998448 2.94244669 0.00594544 -0.00184710 -0.00298641
C 12.20465281 27.33626143 6.47824645 -0.00278122 0.00214688 -0.00069237
C 15.45559617 24.20155802 7.62460874 0.00119943 -0.00213472 -0.00115023
C 12.23982436 27.30905470 10.96536631 0.00682072 0.00146177 -0.00011522
C 15.67391254 24.49748441 12.64904675 0.00296724 0.00312620 0.00480708
C 12.13898040 27.32672234 15.82046045 -0.00273434 -0.00429279 -0.00185990
C 15.13585787 24.20522988 17.14722966 0.00184406 0.00089381 -0.00955588
C 12.04972552 27.06737003 20.59717705 -0.00593756 -0.00191724 -0.00564642
C 15.26959540 24.23190849 21.87379124 0.00075137 -0.00706799 -0.00086848
C 19.25256166 2.13478483 1.74086637 0.00260231 -0.00670849 -0.00091903
C 22.47758680 29.39960969 2.87770290 0.00325945 0.00380664 -0.00552817
C 19.18622057 2.26111892 6.33209848 -0.00362682 0.00179532 -0.00417369
C 22.23002034 29.83329314 7.67745976 -0.00455421 -0.00036179 0.00422125
C 19.20050817 2.39799600 10.95212318 -0.00056848 -0.00340054 -0.00546924
C 22.30523336 29.46252078 12.41115358 -0.00461886 -0.00368401 -0.00817419
C 19.41173447 2.29918917 15.77203242 -0.00172510 0.00481369 -0.00196105
C 22.50039599 29.71606601 17.13870206 -0.00306735 -0.00154132 0.00484476
C 19.29302056 2.17250533 20.53260449 -0.00206982 -0.00092299 0.00033950
C 22.44072642 29.53276970 21.79066184 0.00609659 -0.00898757 -0.00589423
C 18.52400796 8.96851987 1.81911203 0.00249279 -0.00139041 -0.00387910
C 21.54492158 5.86588548 3.03579917 -0.00154380 0.00382053 0.00285435
C 18.43016016 8.66885381 6.49117582 0.00592432 -0.00641603 -0.00526820
C 21.67363510 6.11193659 7.82385936 -0.00037683 -0.01076479 0.00367430
C 18.56706228 9.20757690 11.37613585 -0.00469611 0.00057408 -0.00294269
C 21.85743637 5.97468241 12.49685325 -0.00098942 0.00023439 0.00263039
C 18.59302365 9.34642383 16.13545504 0.00362485 -0.00349870 -0.00345587
C 21.67706911 6.16127449 17.17605594 0.00075268 -0.00226815 0.00044685
C 18.79788938 9.13255359 20.73888144 -0.00198979 -0.00321427 0.00795820
C 21.83555961 5.91393954 21.92932769 0.00159989 0.00268230 -0.00031398
C 17.99547138 15.53717763 1.59160568 0.00036112 0.00375003 0.00518558
C 20.95651317 12.86252914 2.83789676 0.00301110 0.00267966 0.00042477
C 17.96127294 15.65687124 6.40984947 -0.00105275 0.00144653 -0.00332521
C 21.14670087 12.25710403 7.73702076 0.00358394 0.00974411 0.00373138
C 18.15918620 15.95735945 11.17764192 0.00151250 -0.00194099 0.00457404
C 21.19903343 12.69327141 12.37291540 -0.00209206 -0.00430318 -0.00855580
C 17.99314583 15.74922769 15.88383319 -0.00265407 0.00111309 0.00176305
C 21.53515940 12.62939298 17.20662101 -0.00540817 0.01449001 0.01038355
C 18.18209664 15.53900152 20.54747126 0.00586607 -0.00671673 0.00086215
C 21.05722671 12.70690554 21.85434433 0.00262258 0.00072776 0.00296270
C 18.43328762 21.30472144 1.72370443 0.00186363 0.00181171 -0.00700800
C 21.63316419 18.39499044 2.82056728 0.00367632 0.00456289 -0.00295154
C 18.55694072 21.12720579 6.56467028 0.00015253 -0.00182795 -0.00146162
C 21.44722450 18.29129130 7.51056750 0.00718062 0.00095743 -0.00104774
C 18.44189704 21.54802445 11.24474761 0.00542174 -0.00664022 -0.00065007
C 21.57079649 18.41312599 12.37971905 -0.00105014 -0.00048508 0.00161974
C 18.62207302 21.24548421 15.94377417 -0.00040337 -0.00203053 0.00736487
C 21.47149883 18.19269655 17.06252418 0.00289705 -0.00700611 -0.00294708
C 18.55685475 21.49142941 20.51885457 0.00203130 0.00542899 -0.00358091
C 21.35691616 18.18484958 21.65136891 -0.00155905 0.00347218 -0.00089861
C 18.84376049 27.13365047 1.53461401 -0.00455864 0.00594765 0.00032622
C 21.99596227 24.03477882 2.97623464 0.00284494 0.00061674 0.00263891
C 18.94573918 26.84751367 6.28211452 -0.00143341 0.00448078 -0.00492227
C 21.95110137 23.92730583 7.75732838 0.00917255 -0.00449542 -0.00125595
C 18.82259971 26.99073511 11.04541444 -0.00014944 -0.00350543 -0.00369623
C 21.98242658 23.89688013 12.37023099 -0.00270913 -0.00750876 0.00480284
C 19.03986895 26.89963389 15.69640099 -0.00108185 0.00073231 0.00346410
C 22.10105593 23.98245704 17.10584471 0.00229494 0.00017389 -0.00412248
C 18.79972568 26.78478338 20.43073422 0.00363878 -0.00092325 0.00352506
C 21.96249950 23.75193889 21.85449376 0.00354478 0.00302391 0.00837132
C 24.76811505 3.07252912 1.71874810 0.00077390 -0.00360139 -0.00296085
C 28.18899688 30.09712394 3.06796004 -0.00346166 -0.00083082 -0.00458299
C 25.04971852 2.91978607 6.41516187 -0.00521410 -0.00103133 0.00582971
C 27.82900502 0.11285448 7.92446222 0.00077495 -0.00156106 0.00536798
C 24.80581055 3.17186062 11.12408140 0.00249144 0.00516104 -0.00338492
C 28.01630480 0.09824984 12.43198085 0.00016871 0.00440736 -0.00204334
C 24.82169667 3.09827089 15.64328767 0.00019674 0.00867722 -0.00647755
C 27.75100154 29.88876832 17.21538010 0.00835751 -0.00070741 0.00056034
C 24.84529366 2.77549114 20.45781332 -0.00044956 0.00363258 -0.00128125
C 28.11437539 30.08569356 21.82759731 0.00108922 -0.00401354 0.00458036
C 24.02137587 9.57100563 1.67458092 0.00467293 0.00806181 -0.00512670
C 27.40140267 6.59000729 3.05095739 -0.01013650 0.00209569 -0.00111992
C 24.12845364 9.40218752 6.37559852 -0.00516134 0.00422829 -0.00135858
C 27.63491035 6.57400587 7.78296525 -0.00432896 -0.00212682 0.00664512
C 24.20544076 9.53734373 11.19005769 -0.00414908 -0.00089596 0.00600625
C 27.33322911 6.57682406 12.42893860 -0.00549527 0.00270079 0.00424527
C 24.08634367 9.57721370 16.00483620 -0.00070245 0.00598122 -0.00208265
C 27.48703938 6.40110655 17.00719233 0.00727417 -0.00170421 -0.00434165
C 24.47065616 9.54100628 20.74658785 -0.00029918 0.00389486 -0.00184867
C 27.21254968 6.52263888 21.87948676 -0.00998375 0.00006271 0.00194559
C 24.47841643 15.56944740 1.58566406 0.00037221 0.00921345 0.00567545
C 27.73043364 12.26712068 2.93391668 -0.00064120 0.00001383 0.00650204
C 24.51564722 15.17779531 6.43313851 -0.00501062 0.00011018 -0.00781666
C 27.61821238 12.30320194 7.60499776 -0.00022043 0.00393751 -0.00145307
C 24.69355031 15.34311168 11.09155756 0.00357050 0.00489861 0.00031823
C 27.36902432 12.07117135 12.45725712 0.00033080 -0.00399733 0.00552905
C 24.74717326 15.27912635 15.79996636 -0.00200933 0.00175397 0.00468078
C 27.70439375 12.09450586 17.06038680 -0.00621143 0.00152475 -0.00135549
C 24.58529684 15.56408642 20.65650804 0.00023448 0.00350296 0.00370159
C 27.59895888 12.30695903 22.01644823 0.00100966 -0.00540678 0.00373079
C 24.91950705 20.91264680 1.65105989 0.00113222 -0.00092899 0.00376119
C 28.07864254 17.66405754 2.86738177 0.00321305 -0.00431199 0.00520323
C 24.90430989 20.86251843 6.36493444 0.00018836 0.00230310 0.00228703
C 28.04386896 18.02964316 7.60958069 -0.00230339 0.00163886 -0.00416251
C 25.03513841 20.75921554 10.92942640 -0.00069415 0.00461352 0.00696230
C 28.29935249 17.84336139 12.22148983 0.00827385 -0.00071350 -0.00271753
C 24.91228618 21.03042264 15.72396235 0.00553661 0.00214402 0.00661272
C 28.07098719 17.82270271 17.09138232 0.00268085 0.00126050 -0.00432166
C 25.15568976 21.08241805 20.41248226 0.00223820 -0.00513097 0.00912247
C 28.37882983 18.07455717 21.65482491 -0.00234370 0.00896133 -0.00612448
C 25.63703030 26.65157091 1.63982133 0.00094513 -0.00780090 0.00363592
C 28.47379199 23.70461497 2.91706543 0.00800796 -0.00297520 -0.00053323
C 25.45235710 26.50567732 6.39524094 0.00666456 0.00102004 0.00438009
C 28.51041277 23.52093043 7.56523614 -0.00663713 -0.00270667 -0.00798215
C 25.74066390 26.53639648 11.17965301 -0.00003244 -0.00357398 -0.00047753
C 28.49357062 23.59332440 12.27830764 -0.00085507 0.00464312 0.00004945
C 25.53558439 26.41666102 15.82201164 0.00000098 0.00122285 -0.00183962
C 28.79152803 23.56359937 17.19242045 0.00776198 -0.00410794 -0.00734354
C 25.53628938 26.41731065 20.53353375 -0.00182459 -0.00084942 -0.00130573
C 28.72195188 23.47366229 21.76667590 0.00287604 -0.00131477 -0.00438871
N 0.00457820 4.54298327 0.89019871 -0.00575454 -0.00036596 0.00364496
N 3.49651408 5.18698351 3.65109704 0.00082358 0.00239065 -0.00741790
N 5.37599516 2.52325873 0.96482950 0.00020680 -0.00117415 0.00371993
N 1.82921117 1.46830501 3.53260879 0.00326479 -0.00005106 -0.00231801
N 0.10495758 4.48576274 5.64679018 0.00413098 -0.00080539 0.00461657
N 3.45588561 5.26954507 8.34294622 -0.00621461 0.00049395 -0.00826232
N 4.97540626 2.40803226 6.06293417 -0.00266442 -0.00141907 0.00012096
N 1.71880555 1.23843894 8.55612454 0.00017184 0.00116220 -0.00351560
N 0.44924107 4.45723150 10.52981674 -0.00167638 0.00192119 0.00282805
N 3.82393181 5.50492744 13.35147544 -0.00920583 0.00133273 -0.00123276
N 5.42101728 2.33767507 10.39531500 0.00578138 0.00296567 0.00416948
N 1.69898814 1.48456209 13.31200417 -0.00678607 0.00082969 0.00611516
N 0.30868240 4.50431095 15.35243283 0.00261271 0.00231897 -0.00251576
N 3.50082651 5.48212649 18.00101500 0.00316385 -0.00219471 -0.00502048
N 5.13744482 2.46445949 15.28248745 -0.00185590 0.00195600 0.00071709
N 1.53237260 1.43845081 17.83186564 0.00311228 -0.00107598 -0.00584867
N 0.12337203 4.57262427 19.95750430 -0.00539863 -0.00160545 -0.00186716
N 3.16764632 5.02925707 22.80308153 -0.00276905 0.00256840 -0.00363889
N 5.48090997 2.23652121 19.80360013 0.00474361 -0.00346447 -0.00238711
N 1.48407090 1.28189484 22.57744921 0.00711402 -0.00318017 -0.00328339
N 0.46001822 10.00503750 0.86095380 0.00102304 -0.00056416 -0.00599364
N 4.05368377 10.87398054 3.90296790 -0.00308298 -0.00531930 0.00592582
N 6.13250506 7.77279278 1.03320276 0.00065787 0.00765304 0.00299013
N 2.38357346 7.21753038 3.74490373 -0.00442742 0.00270314 -0.00329776
N 0.42889993 10.18134024 5.56160934 -0.00296504 0.00322199 -0.00597355
N 4.20349711 11.34281853 8.49113215 -0.00326141 -0.00507091 0.00043297
N 5.58187749 8.13198602 5.85479920 0.00265553 -0.00188638 0.00293278
N 2.20236710 7.23070360 8.42113084 -0.00493218 0.00124835 0.00526069
N 0.97591092 9.74794817 10.55744928 -0.00239900 0.00271885 -0.00078378
N 4.22429991 11.02049626 13.40440805 -0.00052242 0.00355249 -0.00330273
N 5.59357034 7.98588194 10.39788134 -0.00030715 0.00336044 0.00243774
N 2.15031116 7.16616733 13.20637755 0.00322596 -0.00751255 -0.00440321
N 0.39855284 10.06480876 15.33080546 -0.00802775 0.00152379 -0.00185184
N 3.88549171 11.04365917 18.08781470 0.00203416 -0.00779191 0.00173535
N 5.71071576 8.22351004 15.31070537 0.00614415 -0.00348348 -0.00146815
N 2.10847093 7.29977389 17.93910481 0.01163645 -0.00026257 0.00408733
N 0.40171712 10.17061760 19.98956770 -0.00107565 0.00111144 -0.00302329
N 3.80988435 10.80598580 22.49434081 -0.00384991 0.00202200 0.00613505
N 5.66848207 7.99947132 20.07736548 0.00351099 -0.00794335 0.00250300
N 2.12820684 7.03111305 22.86204108 -0.00572720 0.00029291 0.00134798
N 0.55119707 15.73325034 1.03617458 -0.00241220 -0.00372363 -0.00510639
N 4.51667397 16.48545925 3.69476851 -0.00388359 -0.00728174 0.00951464
N 5.95106873 13.60343956 0.96982642 0.00205917 0.00434597 -0.00158403
N 2.67521304 12.74261020 3.57202534 -0.00327427 0.00489179 0.00266160
N 0.86339106 15.60424159 5.71805273 -0.00051813 0.00240681 0.00491438
N 4.48789086 16.71031918 8.34520002 0.00033410 -0.00250584 -0.00059838
N 6.22754809 13.76148574 5.67416244 0.00536913 0.00252018 -0.01492622
N 2.40386628 12.80504656 8.39132936 0.00283731 -0.00023134 -0.00723588
N 1.03596517 15.54161980 10.47954573 -0.00345943 0.00033281 -0.00119755
N 4.50052480 16.67338313 12.81945828 -0.00508064 0.00225438 0.00405190
N 6.14625029 13.84265230 10.32774212 -0.00085302 0.00899733 0.00261835
N 2.77802902 12.83020877 13.32692859 -0.00029752 0.00148807 0.00270460
N 1.00861053 15.84996242 15.22798156 0.00260191 -0.00377498 -0.00765293
N 4.50194925 16.42764111 17.55645033 -0.00312014 0.00161492 -0.00201476
N 5.55185439 13.82406949 15.46006251 -0.00132785 -0.00740467 0.00350012
N 2.70715132 12.99906010 17.96977579 0.00594519 -0.00596364 -0.00357853
N 1.02589192 15.53980563 19.78120098 -0.00208103 -0.00499208 -0.00492637
N 4.51617629 16.75346698 22.52805481 -0.00942607 0.00116791 -0.00567986
N 6.25967519 13.37171897 20.03454489 0.00087064 0.00691071 -0.00202261
N 2.76716960 12.90717644 22.63232370 -0.00319553 0.00768220 0.00034071
N 1.33922933 21.38151049 0.82489742 0.00059630 0.00067001 0.00117668
N 3.89315166 23.23225454 3.87896736 0.00111001 0.00378608 -0.01224850
N 5.25067528 20.13469246 1.03411962 -0.00041143 -0.00856867 -0.00459154
N 2.86211988 18.09896253 3.73861895 0.00404538 -0.00604554 0.00177327
N 1.19057501 21.09100583 5.76702926 -0.00538864 0.00307703 -0.00012788
N 3.97211568 23.57530388 8.65191145 0.00144923 0.00051545 0.00316798
N 5.31199581 20.55478708 5.78137357 0.00228801 0.00104492 -0.00535881
N 2.65794545 18.13824783 8.38119375 0.00073880 0.00406841 -0.00418444
N 1.60598783 21.25359393 10.17994249 0.00284381 -0.00040034 -0.00599201
N 3.92819908 23.15809116 13.01086205 -0.01025054 -0.00192862 -0.00078494
N 5.26114529 20.38648777 10.52308211 0.01037780 -0.00185307 0.00097057
N 2.61060383 18.13708497 13.06495065 -0.00266184 0.00391513 0.00064007
N 1.25915647 21.20728457 14.83813969 -0.00439073 -0.00254045 0.00084734
N 4.19443430 23.61766581 17.87990310 0.00049078 -0.00180606 0.00142221
N 5.52732991 19.81517628 15.29401195 -0.00296584 -0.00179903 0.00122654
N 2.93577123 18.17032652 17.83183636 0.00188986 -0.00251882 0.00188730
N 1.82201308 21.30046466 19.72683786 -0.00151566 0.00639308 0.00170112
N 4.02812460 23.70253821 22.41856671 -0.00089258 -0.00161287 -0.00563132
N 5.72098202 20.08082555 20.15449106 -0.00052598 0.00424486 0.00310753
N 2.83567506 18.37793807 22.58670840 0.00672572 0.00243304 0.00395590
N 0.90051678 27.67933272 0.86604576 -0.00240144 -0.00361304 0.00192904
N 3.51010524 29.98997714 3.79888374 0.00184325 0.00402626 -0.00194325
N 4.64374748 26.89824623 1.04804456 0.00228897 -0.00195219 0.00063069
N 1.97463382 24.34227880 3.68546107 0.00449943 0.00105185 0.00400957
N 0.96293311 27.91077727 5.67504049 -0.00349297 -0.00146954 0.00284647
N 3.42984491 29.82467884 8.49422519 0.00435381 0.00116268 -0.00258670
N 4.64883785 26.79096234 5.84367807 -0.00718987 0.00036252 0.00151910
N 1.86898093 24.57603208 8.40549115 0.00117265 -0.00041611 -0.00339982
N 0.83442214 27.80704948 10.46101692 -0.00270125 0.00155368 0.00261457
N 3.46064317 30.04600116 13.29767798 -0.00081194 -0.00232398 -0.00393132
N 4.77633367 26.94128539 10.57073135 0.00174043 -0.00020166 0.00094353
N 2.62232015 25.11013730 13.18551539 -0.00164089 0.00470364 -0.00390079
N 0.87602238 28.14499403 15.18833064 -0.00315616 -0.00663261 -0.00545065
N 3.21931542 0.03707689 18.11852613 0.00528300 -0.00026789 0.00172096
N 4.85418104 26.99157675 15.24696284 0.00150451 0.00392755 -0.00206253
N 2.17795128 24.82522818 17.66529039 -0.00359829 0.00575012 0.00460983
N 0.98621924 27.82151171 19.75097724 -0.00011838 -0.00279975 0.00264883
N 3.29968135 29.88075661 22.65018232 0.00290138 -0.00465352 -0.00124603
N 4.86848532 26.63478621 20.22924446 0.00096779 -0.00313273 0.00469550
N 1.99432990 24.74822500 22.54736717 0.00108772 -0.00853984 -0.00025506
N 6.77578815 4.26436789 1.28482041 -0.00203425 0.00797522 -0.00093454
N 10.24250391 4.82576071 4.02859046 -0.00524573 0.00050996 0.01162283
N 12.05899496 1.75319045 1.35991570 0.00162046 0.00072014 0.00043558
N 8.28744507 1.01316451 3.95279037 0.00305766 0.00605961 0.00690491
N 6.45362101 4.22925281 5.82839455 0.00103828 0.01402151 -0.00312094
N 9.99424850 4.78254961 8.68774941 -0.01148532 0.00096646 0.00270698
N 11.96230678 1.73270524 5.60672462 -0.00460869 -0.00577928 0.00177937
N 8.42970482 0.87728740 8.38110424 0.00470023 0.00182494 0.00234296
N 7.07629553 3.98655481 10.66460381 0.00728986 0.00156315 -0.00649755
N 10.29403365 4.61427756 13.31083917 0.00795617 -0.00468326 0.00656810
N 11.81238983 2.06293947 10.38294718 -0.00367644 0.00277766 0.00110133
N 8.51418962 0.96675421 13.29223382 0.00332864 0.00081392 0.00029764
N 6.84480970 4.10110458 15.16935422 -0.00348768 0.00435142 0.00090848
N 9.97540202 4.96567017 18.14740427 0.00397592 0.00013694 0.00265931
N 11.78417143 1.96814362 15.27857236 -0.00120410 0.00246023 -0.00197764
N 8.36987780 1.02441595 18.05347451 -0.00070913 -0.00028296 -0.00037159
N 6.99091064 3.99951045 19.72843319 -0.00241542 -0.00569373 -0.00352116
N 10.46619033 4.68512933 23.00370437 -0.00595267 -0.00276186 0.00513342
N 12.00284786 1.69781879 20.20578525 0.00859429 0.00235118 0.00324821
N 8.38832054 1.20758443 22.80750047 0.00076426 0.00082294 0.00718857
N 7.71294877 9.35957585 0.83222458 -0.00518152 0.00438476 0.00161416
N 10.74528867 10.77577627 3.90361507 0.00344983 0.00048448 0.00006351
N 12.40917019 7.40476195 1.24452461 -0.00337478 0.00039036 0.00370152
N 8.92000950 6.77181394 4.07161827 0.00307336 -0.00188433 -0.00314699
N 6.99920037 9.97163066 5.87194168 -0.00595115 0.00554618 -0.00445915
N 11.08663313 10.93611774 8.65639365 -0.00495519 0.00743126 0.00084555
N 12.12365473 7.74928147 5.95213147 0.00098831 0.00103104 -0.00149376
N 8.31688208 6.48817582 8.66834991 -0.00219053 -0.00554384 0.00235306
N 7.03360548 9.83862530 10.74845873 0.00170835 0.00420556 -0.00643489
N 10.53320336 10.63098502 13.01394995 0.00243033 -0.00111848 -0.00787672
N 12.00029416 7.70363339 10.50601857 0.00146085 0.00063647 -0.00155986
N 9.02655159 6.57402734 13.39663626 -0.00086153 -0.00493467 0.00317781
N 7.34933672 9.77454267 15.46273022 -0.00181129 -0.00910592 0.00001705
N 11.03593211 10.76586041 17.78958404 -0.00002849 0.00627858 -0.00014183
N 12.12525202 7.65278427 15.10171521 -0.00006374 0.00419176 0.00314173
N 8.95207899 7.01957484 18.03489966 -0.00603624 0.00499728 0.00697723
N 7.21356013 9.71888763 20.02108376 -0.00535676 0.00102271 0.00173471
N 10.67158324 10.49683114 22.60541505 0.00242534 0.00420531 -0.00525712
N 12.34539741 7.66819901 20.20650855 -0.00116881 -0.00367563 0.00379458
N 9.05747173 6.51308318 22.77199482 -0.00270635 0.00392632 -0.00830763
N 7.80691511 14.93419877 1.18004169 0.00000644 0.00340923 -0.00018478
N 10.32505876 17.58374745 3.66643887 0.00111218 -0.00750201 -0.00337449
N 11.68089678 14.17752625 0.96091896 0.00426978 0.00185944 -0.00246754
N 8.98899489 12.19130944 3.56427016 0.00320802 -0.00136741 0.00230955
N 7.72431914 15.54678456 5.86905557 -0.00639254 0.00151789 -0.00361732
N 10.50038133 17.62214123 8.59102312 0.00461740 -0.00776744 0.00354931
N 11.65369168 14.36455082 5.60369163 -0.00429607 0.00632648 -0.00612718
N 9.22531136 12.20318854 8.56956010 0.00625309 0.00057162 -0.00161419
N 7.67182174 15.62089866 10.53119068 -0.00300914 -0.00260013 0.00232770
N 10.50430943 17.41262413 13.42173235 0.00661500 -0.00284200 0.00411236
N 11.79227776 14.01550449 10.44462252 -0.00244607 0.00072360 0.00156499
N 8.96494137 12.27275487 13.14442511 0.00405398 0.00259373 0.00669123
N 7.35869850 15.28191810 15.21528675 -0.00239834 -0.00398587 -0.00152063
N 10.16474056 17.44194793 17.87695755 -0.00174307 0.00451518 -0.00190718
N 11.65052417 14.15489244 15.14661415 0.00347095 0.00349838 -0.00021990
N 9.18087700 12.08733513 18.03965980 0.00194313 -0.00227336 0.00234674
N 7.72770387 15.06187033 19.94453579 0.00016363 0.00021243 0.00540384
N 10.47193255 17.72615824 22.74334269 -0.00558069 0.00160955 -0.00125377
N 11.75679173 14.13503901 20.14607730 0.00495509 0.00035694 0.00526692
N 9.18483958 12.31919134 22.66162847 0.00001863 -0.00037690 -0.00483772
N 6.88639279 21.70947930 0.95480852 0.00365815 -0.00095543 -0.00555620
N 9.59223486 23.68991138 3.77175693 -0.00031458 -0.00222360 0.00377688
N 11.01350322 20.86420786 0.96427869 -0.00030278 -0.00245261 -0.00717751
N 8.23585334 18.60477411 3.93213525 0.00220330 -0.00164946 0.00008236
N 7.03541887 22.05791792 5.69172432 -0.00156365 0.00126803 -0.00133481