2000
Time=43000.00000003 pbc="T T T" Lattice="31.15951459 0.00000000 0.00000000 0.00000000 29.78101530 0.00000000 0.00000000 0.00000000 23.70305468" energy=-12040.60777903 virial="-12.30128996 2.78245689 27.20398568 2.78245689 19.05878414 -10.66799940 27.20398568 -10.66799940 17.44972119" stress="0.00165316 0.00028639 0.00115641 0.00028639 0.00299409 -0.00046020 0.00115641 -0.00046020 0.00361654" Properties=species:S:1:pos:R:3:vel:R:3
C 30.72795532 3.73050468 1.57812180 0.00203870 -0.00596620 0.00498177
C 2.29859715 0.59122106 2.99648195 0.00154615 0.00752067 0.00013787
C 30.45539207 3.67062143 6.37993384 0.00428033 0.00253177 0.00506187
C 2.51409717 0.49031491 7.59942964 0.00472173 -0.00398432 -0.00325766
C 30.30444058 3.42882382 11.03788364 0.00073414 -0.00793688 0.00329652
C 2.35735781 0.54639922 12.31885167 0.00589651 0.00326090 0.00063757
C 30.62529305 3.86213821 15.75709804 -0.00531210 -0.00758721 0.00207049
C 2.29044822 0.63099775 16.98107385 0.00187935 0.00215187 -0.00150811
C 30.65253233 3.47047840 20.63611268 0.00097364 -0.00188926 0.01008312
C 2.57828863 0.52823355 21.89709248 -0.00305740 -0.00064205 0.00409263
C 30.73204545 9.09114952 1.69869611 0.00049796 0.00098118 0.00392578
C 2.71595419 6.22980779 3.08572627 -0.00025070 0.00047131 0.00722748
C 31.07055551 9.28461344 6.39435529 -0.00172828 0.00104766 0.00023003
C 2.75641933 6.19242830 7.64499780 0.00367615 0.00441702 0.00363756
C 31.09230027 9.11432698 11.16260469 0.00045895 0.00739356 0.00162853
C 2.91396639 5.90424017 12.45951781 -0.00578414 0.00078811 0.00282953
C 30.97486785 9.26441138 15.86049575 0.00541329 0.01153873 0.00219600
C 2.73391539 6.22500635 17.18005813 0.00102791 0.00203258 -0.00541702
C 31.00839280 9.10930676 20.59699967 0.00007040 -0.00526199 -0.01178481
C 2.98491361 6.13503495 22.10717303 0.00415787 -0.00188438 0.00489110
C 0.16337158 14.54365187 1.68615555 -0.00812825 -0.00350767 -0.00331252
C 3.55263371 11.65474409 3.14287501 0.00118311 0.00296440 -0.00632816
C 0.16358952 14.67137971 6.46144188 0.00739868 -0.00240556 0.00126810
C 3.54448669 11.75702154 7.79708895 0.00013977 -0.00087580 0.00309080
C 0.17747572 14.77815232 11.26269500 -0.01054384 -0.00119480 -0.00234824
C 3.26354374 11.68831391 12.57139373 -0.00012987 0.00522892 -0.00432552
C 0.08575898 14.79481999 16.09587840 0.00015332 -0.00100091 0.00399252
C 3.35560908 11.81049356 17.33653428 -0.00025319 0.00656038 0.00282444
C 0.14940249 14.70107872 20.77946518 -0.00244148 -0.00357993 -0.00061477
C 3.43017325 11.72580399 22.13645845 0.00395743 -0.00076714 -0.00135776
C 0.76473197 20.53662255 1.71658113 -0.00149153 -0.00158549 -0.00345264
C 3.77025978 17.24376671 3.11405634 0.00214850 -0.00016744 0.00319801
C 0.70064812 20.19956240 6.53236951 -0.00567541 0.00001772 -0.00201089
C 3.69294779 17.20407278 7.85043452 0.00360965 -0.00241534 -0.00021012
C 0.64364796 20.21223766 11.40769102 0.00174388 0.00087835 0.00474967
C 3.78646804 17.64350522 12.64185967 -0.00498365 0.00081916 0.00411907
C 0.55665223 20.37676788 16.08947700 -0.00387996 -0.00457696 0.00061331
C 3.92156080 17.49750281 17.19848357 -0.00332204 0.00294849 -0.00481709
C 0.58618712 20.22184671 20.69637355 0.00277947 0.00197431 -0.00841040
C 3.59699402 17.38810598 22.12766949 -0.00327517 -0.00825394 -0.00248917
C 0.10796074 26.84913090 1.87430420 -0.01075181 0.00790087 0.00233547
C 3.03542425 23.99105333 3.04089714 -0.00352535 0.00283361 0.00259725
C 30.90098788 26.75979135 6.40439499 0.00241194 0.00185848 0.00305635
C 3.16161797 24.03967191 7.81858391 -0.00360070 0.00181292 0.00139428
C 0.02782748 26.67234778 11.32874485 0.00813640 0.00307148 0.00048916
C 3.32084208 23.55439772 12.59521976 -0.00441981 -0.00209247 -0.00518455
C 0.09673525 26.91477509 15.88235574 -0.00369108 0.00099748 -0.00716281
C 3.02413061 23.96049081 17.24809486 0.00565430 -0.00409632 -0.00205971
C 31.00606331 26.76579052 20.65265903 -0.00540451 -0.00761372 -0.00277439
C 3.14952237 24.14786794 22.09273633 0.00657828 0.00393931 0.00126370
C 5.78197072 3.24075217 1.66670500 0.00590899 -0.00345875 -0.00164569
C 9.28694156 0.24674000 3.01876749 0.00209178 -0.00408903 -0.00206761
C 5.96880190 3.32025026 6.34225408 -0.00708027 0.00159489 0.00513963
C 9.18322388 0.05392522 7.78354248 -0.00434358 -0.00464762 -0.00400189
C 5.88323021 3.09103913 11.14306229 -0.00490300 0.00027181 0.00165650
C 9.11675202 0.09848464 12.55201818 -0.00443326 0.00253275 0.00314024
C 5.97287750 3.20882506 15.73077211 -0.00621376 -0.00435324 -0.00022993
C 9.27879190 0.22062996 17.14950533 0.00348190 0.00349841 -0.00220345
C 5.93948967 2.97283508 20.69797771 -0.00576570 0.00414094 0.00556735
C 9.08428569 0.09721103 21.76925985 0.00091985 -0.00486854 -0.00631563
C 6.48615998 8.75499381 1.75779169 -0.00608731 0.00499867 -0.00538795
C 9.70591329 5.67435798 2.82586956 -0.00032764 -0.00148393 -0.00350784
C 6.76839145 8.56117513 6.45130837 0.00059906 0.00610087 0.00027760
C 9.53399215 5.79072574 7.70168479 -0.00666785 -0.00134488 0.00337601
C 6.23335234 8.65471479 11.31961593 0.00011523 0.00051198 -0.00027008
C 9.44289971 5.84776919 12.69672065 0.00247337 -0.00416055 0.00606657
C 6.14189691 8.65004910 16.05564366 0.00023326 -0.00256915 -0.00393579
C 9.57175562 5.93667902 17.29210999 -0.00848295 0.00822255 0.00281402
C 6.19095041 8.47501281 20.66612022 0.00146865 0.00240286 0.00145179
C 9.44923106 5.68285690 22.15477363 0.00439477 -0.00109037 -0.00086086
C 7.02912588 14.18865134 1.66522609 -0.00562097 -0.00100152 0.00147766
C 10.09195523 11.17551065 2.98117773 0.00291628 0.00418497 -0.00899040
C 6.77553548 14.00402197 6.30571892 0.00002046 0.00505922 0.00337803
C 9.92312075 11.30545171 7.83045477 -0.00088972 0.00090072 -0.00162038
C 6.70915852 14.39240694 11.24866884 -0.00234222 -0.00205294 -0.00591868
C 9.83366885 11.42150607 12.48593526 -0.00157957 0.00118765 0.00169346
C 6.75458997 14.33583086 15.91506453 0.00216214 -0.00270600 -0.00313513
C 9.80343917 11.44902892 17.39289353 -0.00434961 -0.00257764 -0.00420623
C 6.82148092 14.30205402 20.53608988 0.00514317 -0.00225939 0.00205012
C 9.89241644 11.03555672 21.97744400 0.00188107 -0.00270924 0.00219772
C 6.24457451 21.01774570 1.73198399 0.00036959 0.00332029 0.00221059
C 9.28181101 17.77499966 2.94418469 0.00179423 0.00211592 0.00317468
C 6.04870172 20.94420833 6.53415658 0.00029427 0.00112569 -0.00133344
C 9.34078686 17.65384998 7.75688119 0.00015023 -0.00493852 0.00304291
C 6.30073034 20.89358093 11.08342386 -0.00271358 0.00060894 0.00268022
C 9.35927344 17.65814581 12.54983136 0.00883197 -0.00099660 -0.00392205
C 6.66750571 20.91344912 15.79812854 0.00175851 -0.00792608 0.00558776
C 9.48406212 17.76388284 17.24735244 0.00449900 0.00294035 -0.01134870
C 5.97515826 21.01930692 20.64284358 0.00952517 -0.00189473 -0.00036936
C 9.42857845 17.89510639 21.86004048 0.00386067 0.00667657 -0.00074134
C 5.75212159 27.75996976 1.70676336 0.00172028 0.00109632 -0.00281025
C 8.46427590 24.43620465 2.93716188 0.00248762 -0.00439928 0.00032981
C 5.48100538 27.35302767 6.34446857 0.00320364 -0.00198082 0.00521349
C 8.84487720 24.39676424 7.72277346 -0.00109249 0.00022628 0.00602946
C 5.71400438 27.53973576 10.90752229 0.00245096 -0.00086435 0.00226999
C 8.56707922 24.31599748 12.49707750 -0.00244774 0.00623826 -0.00304446
C 5.56459638 27.54572043 15.92811400 -0.00287270 -0.00191816 0.00691048
C 8.67386875 24.49031879 17.20704929 -0.00475782 0.00156731 0.00475518
C 5.80599496 27.31362415 20.71187189 0.00202100 0.00412245 0.00456832
C 8.72217406 24.38449886 22.00830833 -0.00360258 0.00366430 -0.00725270
C 12.62862427 2.48639596 1.75077425 -0.00609715 -0.00333358 0.00582062
C 15.86798316 29.15862731 3.22025644 -0.00111561 -0.00426236 -0.00522439
C 12.59847718 2.69114936 6.48145054 -0.00356623 0.00269685 -0.00121658
C 15.89950306 29.68769685 7.94489931 0.00293013 -0.00213877 0.01229691
C 12.49594909 2.57465670 11.20414211 -0.00368930 -0.00764881 0.00251949
C 15.61748880 29.57801510 12.57116593 -0.00182109 0.00538159 -0.00398621
C 12.58244476 2.67498286 15.93258369 0.00024692 -0.00674588 -0.00051630
C 15.77946022 29.70902506 17.22226823 -0.00060291 0.00191333 -0.00149460
C 12.54252429 2.67739674 20.56734560 -0.00190835 0.00243561 -0.00099519
C 16.00999857 29.44840097 22.04639837 0.00691008 0.00077191 0.00163137
C 13.11634610 8.29008456 1.61289040 -0.00316304 -0.00560414 -0.00024342
C 16.14576928 5.60316195 3.06926339 -0.00444438 0.00292726 -0.00093773
C 13.04181695 8.23221866 6.49252539 -0.00221622 -0.00383281 -0.00080817
C 15.95405505 5.24824053 7.84484314 -0.00029031 0.00508548 0.00109317
C 12.95349231 8.29901642 11.21237351 -0.00017593 -0.00570027 -0.00173133
C 15.99980900 5.14654078 12.45960792 0.00293602 -0.00245988 -0.00021258
C 12.86666578 8.35027518 15.88250973 -0.00568959 -0.00362585 0.00056418
C 16.20617893 5.43175738 17.10099290 -0.00226809 0.00265994 0.00334038
C 13.08897119 8.42536126 20.70901498 0.00069076 -0.00344850 -0.00124092
C 16.10309959 5.31273322 21.89525902 -0.01051107 -0.00090945 0.00230883
C 12.37707215 14.73009346 1.61420443 0.00881999 -0.00680574 -0.00559365
C 15.47177111 11.86304669 3.18603156 -0.00116007 -0.00229216 -0.00137823
C 12.52359719 14.98807406 6.42417636 0.00047565 -0.00860400 -0.00403249
C 15.47870625 12.04616965 7.94452419 -0.00219783 -0.00507201 -0.00167929
C 12.25372842 14.88379571 11.35131706 0.00348977 0.00559205 0.00872084
C 15.45429108 12.06590654 12.54689902 -0.00279025 0.00203854 -0.00339651
C 12.51536233 14.84852877 16.10652526 0.00220511 -0.00095808 0.00164232
C 15.54188102 11.75026072 17.20223670 0.00194341 0.00210816 -0.00142052
C 12.55477752 14.79834075 20.67004052 -0.00024010 -0.00024093 0.00128447
C 15.61891973 11.83985955 22.14758281 -0.00272542 -0.00053721 -0.00340124
C 11.72477820 21.27730117 1.62868308 0.00355615 0.00497680 -0.00548459
C 14.93277936 18.46852141 2.95355909 0.00204579 -0.00501535 -0.00221100
C 12.15763166 21.53820754 6.45536945 0.00193925 0.00732063 0.00235672
C 15.01642947 18.55909849 7.75673081 -0.00386695 0.00168343 0.00230685
C 11.77655833 21.52125515 11.21201068 0.00605399 -0.00260320 0.00066684
C 14.98618651 18.43256318 12.54238121 -0.00042469 -0.00495478 0.00085434
C 11.78952012 21.56834530 16.10166210 0.00251157 -0.00688667 -0.00088202
C 15.14384064 18.58582839 17.32222876 0.00479204 0.00194609 0.00784239
C 11.97926486 21.61613543 20.77717373 -0.00438623 -0.00053942 -0.00042093
C 14.73821393 18.51196161 22.00540813 -0.00738982 -0.00056257 0.00549895
C 12.23768211 26.94798655 1.66161192 -0.00629791 0.00259374 -0.00255646
C 15.57111941 24.06825167 2.91523576 -0.01113033 0.00014994 0.00755888
C 12.11914110 27.05043646 6.38420177 -0.00560719 0.00113948 0.00106438
C 15.25222001 24.14401983 7.78868899 -0.00120655 0.00227984 0.00364156
C 12.33652513 27.00147432 11.24813425 -0.00180269 -0.00185197 0.00568948
C 15.47166945 23.82644549 12.54130150 -0.00062133 0.00257223 -0.00540968
C 12.31146276 27.05366172 15.94420358 0.00073671 0.00427657 0.00346800
C 15.42728728 23.82163854 17.22969070 -0.00032014 -0.00974228 -0.00278843
C 12.27106655 27.04101579 20.65822852 -0.00075043 0.00166455 -0.00338310
C 15.34370658 23.84910370 22.03049216 0.00037100 0.00066169 0.00201674
C 19.09823059 2.32278365 1.71903730 0.00482800 0.00354155 0.00639699
C 22.44216810 29.15004405 3.07078950 0.00629211 0.00042117 0.00346644
C 19.33211961 2.29110814 6.40508493 -0.00095500 0.00109066 -0.00562409
C 22.46444589 29.14521198 7.72019503 -0.00611135 0.00054120 0.00135437
C 19.15010609 2.33139423 11.04606641 0.00052249 -0.00242172 0.00298471
C 22.23554019 29.29039750 12.36888574 0.00632342 -0.00271092 0.00486298
C 19.22170412 2.29821655 15.87334842 0.00043044 -0.00342335 0.00106886
C 22.34583117 29.25701277 17.22491230 -0.00218326 0.00629733 0.00058893
C 19.34678453 2.17972218 20.72917842 0.00687882 0.00503282 0.00504172
C 22.31808400 29.36013216 22.09078765 -0.00342438 -0.00344583 -0.00531109
C 18.83677323 8.86640873 1.88932133 0.00091432 -0.00257792 0.00177410
C 21.99690547 5.85977253 2.88754954 -0.00325201 -0.00190061 0.00055545
C 18.59784446 9.00193756 6.54628996 -0.00085779 0.00303691 0.00230960
C 21.81424382 6.06018838 7.67402620 -0.00021098 0.00540668 0.00177216
C 18.60585908 9.06936118 11.25889072 -0.00036610 0.00414267 0.00694820
C 21.80071663 5.98882977 12.41797189 -0.00029828 -0.00308491 -0.00072102
C 18.82208785 8.62438627 16.05281416 0.00044660 -0.00331847 -0.00345518
C 22.15462377 5.58952430 17.34738822 -0.00154273 0.00661348 0.00236526
C 18.72045687 8.94427190 20.74835139 0.00776772 0.00491356 -0.00036194
C 21.73453148 5.75960960 22.05260216 -0.00320653 0.00261952 -0.00329743
C 18.06159152 15.44445537 1.76108205 0.00607491 -0.00677522 -0.00036267
C 21.28662270 12.30675983 3.01763140 -0.00001267 -0.00539520 0.00418797
C 18.19467310 15.50859970 6.50386293 -0.00632153 0.00128503 -0.00113423
C 21.52251158 12.41759575 7.90412815 0.00092823 0.00350310 0.00659162
C 18.18352841 15.69353644 11.11433119 0.00036244 -0.00322400 -0.00395521
C 21.27831271 12.74045514 12.62213484 -0.00514588 -0.00348539 -0.00244434
C 17.89368290 15.27438352 15.94196866 0.00043435 0.00859678 0.00267697
C 21.21783473 12.45821182 17.14357534 -0.00027168 -0.00331257 0.00162480
C 18.06041838 15.53960110 20.70317171 0.00520918 0.00534055 0.00054500
C 21.29536444 12.48774003 22.05401335 -0.00400647 0.00292478 -0.00680753
C 18.48267197 21.23256277 1.66668449 0.00092818 0.00108443 -0.00065443
C 21.53322964 18.20932467 3.14553603 -0.00142755 0.00641610 -0.00543327
C 18.53652563 21.30210027 6.21277306 0.00730999 -0.00696349 0.00239624
C 21.73929969 18.25259209 7.83708061 -0.00332655 0.00039442 -0.00783809
C 18.57676923 21.06482315 11.03112640 0.00016757 -0.00421386 -0.00026385
C 21.58353789 17.87659006 12.69446752 0.00212675 0.00446053 -0.00168646
C 18.70849212 20.86470210 15.99966246 0.00116104 -0.00163190 0.00084310
C 21.58640576 17.97497041 17.31104770 0.00547665 -0.00536036 -0.00221676
C 18.63642615 21.05919248 20.70807614 0.00118448 -0.00181860 0.00303680
C 21.49196846 17.94800975 21.92011915 0.00024137 0.00257052 -0.00333204
C 18.97355111 26.52899975 1.69374148 -0.00517919 -0.00396321 0.00542548
C 22.12772596 23.64313316 3.14709885 0.00057803 0.00565215 -0.00122156
C 18.78155152 26.49241476 6.48842040 0.00295556 -0.00184425 -0.00469067
C 21.94929396 23.81725804 7.91485931 -0.00179285 0.00424881 0.00116859
C 18.81762018 26.54382574 11.44963956 -0.00013266 0.00492273 0.00379019
C 22.10911821 23.68683622 12.70259115 0.00570988 -0.00180302 0.00285858
C 18.91816924 26.64894986 16.22981438 -0.00051672 0.00324178 -0.00141255
C 22.04482665 23.62410970 17.32675377 0.00275927 -0.00908134 -0.00235321
C 19.28621579 26.45325844 20.93847670 -0.00123482 0.00666833 0.00388781
C 22.11503467 23.45355755 22.07010745 -0.00067694 -0.00205441 -0.00220605
C 24.99160082 3.10194037 1.56477525 -0.00519086 0.00459696 0.00837377
C 28.08800222 29.67362667 3.18307400 -0.00275437 0.00365546 -0.00158859
C 24.89881664 3.11716621 6.13469286 0.00038381 -0.00771813 -0.00834821
C 27.93334021 29.74222761 7.75130982 -0.00112238 -0.00153959 0.00210403
C 24.55228023 3.07629837 10.68730246 0.00501298 0.00564952 0.00306537
C 28.03431636 0.17469763 12.47248803 -0.00609528 -0.00270236 0.00844400
C 25.11253270 2.95028676 15.76771477 -0.00392819 -0.00177462 -0.00524930
C 28.33406599 0.18406929 17.21396067 0.00634591 -0.00122477 -0.00294703
C 25.27763887 2.62154127 20.61177360 -0.01154053 -0.00181230 0.00205708
C 28.23431341 0.26166393 21.86283177 -0.00054255 0.00480636 0.00417956
C 24.31451096 9.41641679 1.68551824 -0.00124857 -0.00445885 0.00059192
C 27.35478564 6.53241199 2.68651866 0.00331140 0.00156214 0.00155357
C 24.40929564 9.45690375 6.50715942 -0.00221789 0.00553101 0.00272830
C 27.40885747 6.45221995 7.60252852 -0.00064962 0.00000159 -0.00119181
C 24.39980833 9.37900811 11.22311664 -0.00261700 0.00065906 0.00148253
C 27.61141507 6.78223837 12.55585278 0.00052460 -0.00311832 -0.00127453
C 24.36400350 9.48280103 16.04162339 0.00163337 0.00459838 0.00401616
C 27.44908039 6.47702375 17.16383984 -0.00350292 -0.00320977 -0.00010292
C 24.35446217 9.40231189 20.65966124 -0.00350663 -0.00074749 -0.00070778
C 27.52341750 6.65783510 21.85546053 -0.00141539 -0.00195713 -0.00617680
C 24.74098813 15.08870411 1.80241719 -0.00323592 0.00095259 -0.00226463
C 27.86750003 12.01336800 3.20951314 0.00850568 0.00531857 -0.00395335
C 24.59260640 15.08278125 6.53466494 -0.00040968 -0.00290296 -0.00868788
C 28.18698374 12.23734928 7.74169476 -0.00332400 -0.00318595 0.00043515
C 24.68040851 15.12277522 11.06070289 0.00372297 -0.00420133 -0.00454559
C 28.11189391 12.22421719 12.50514022 0.00605991 -0.00053647 -0.00510044
C 24.69060334 15.01622981 15.89278657 -0.00647892 0.00365957 -0.00052655
C 27.95288200 12.37140001 17.34227409 0.00026981 0.00138448 0.00068700
C 24.52325226 15.01806051 20.79980175 -0.00183337 -0.00081274 0.00236110
C 27.73430653 12.19060868 21.99392392 0.00962204 -0.00679654 0.00111744
C 25.29969441 20.68509421 1.43911213 -0.00223266 0.00019434 0.00273600
C 28.31404204 17.86389505 3.11192524 0.00101283 0.00233253 -0.00430563
C 25.14418384 20.69077761 6.46093589 0.00506887 0.00325080 0.00090874
C 28.24019042 17.81908361 7.76876912 -0.00124122 0.00353061 0.00514663
C 24.96418734 20.56376635 11.20381840 -0.00351113 0.00307886 -0.00117180
C 28.32008252 17.60530579 12.37854734 -0.00022898 -0.00380667 0.00359491
C 25.27300159 20.41198266 15.83177006 0.00218561 0.00008613 -0.00761401
C 27.96349981 17.46724450 17.38901014 -0.01278936 0.00365787 -0.00141405
C 25.07841625 20.43481751 20.40142565 -0.00467337 0.00368772 0.00181448
C 28.46848195 17.81378657 22.10057957 -0.00567008 -0.00537521 0.00292674
C 25.67049698 26.36739670 1.73148907 -0.00122892 -0.00286884 0.00595326
C 28.81216561 23.25701132 2.97710409 0.00380550 -0.00071960 -0.00316255
C 25.54431782 26.05072911 6.33897294 -0.00371720 0.00757954 -0.00010890
C 28.52352281 23.34119126 7.74305440 0.00179222 -0.00119821 -0.00024829
C 25.49635516 26.41812316 11.18691726 0.00550196 -0.00209874 -0.00435963
C 28.79061844 23.42983735 12.42539367 -0.00043807 0.00024191 0.00172247
C 25.56215585 26.55403654 15.95129214 -0.00082077 0.00385009 -0.00021474
C 28.65298876 23.26255697 17.18702749 -0.00036519 -0.00478923 -0.00137487
C 25.68343573 26.19078605 20.61859380 -0.00341003 0.00750094 0.00089766
C 28.69444405 23.55123256 21.75263949 0.00351668 -0.00394719 0.00088404
N 0.17430132 4.71774490 0.87134557 -0.00024077 -0.00258220 0.00911609
N 3.56837222 5.40512793 3.75691326 0.00404999 -0.00125412 0.00482315
N 5.07191646 2.38314788 0.97038927 0.00058436 0.00320847 -0.00269386
N 1.47873128 1.44169358 3.65313026 0.00410939 -0.00095227 0.00412333
N 0.20987723 4.44304721 5.78827418 -0.00053631 -0.00005593 0.00029263
N 3.32469992 5.14516434 8.31971689 0.00229749 0.00496703 0.00132070
N 5.25472968 2.40961000 5.61883583 -0.00000959 -0.00339492 -0.00257312
N 1.64617045 1.23746817 8.38606035 0.00086457 -0.00129848 -0.00260070
N 0.02562275 4.14996635 10.26638137 0.00865673 0.00559612 0.00681912
N 3.36485546 4.85177551 13.21114921 0.00363665 -0.00242106 0.00052217
N 5.32869513 2.20185621 10.23750197 -0.00128999 0.00237713 -0.00344059
N 1.63650313 1.45391282 12.98790431 0.00022488 -0.00418392 0.00188394
N 0.10181527 4.70740105 14.91721778 0.00395138 -0.00220935 -0.00369023
N 3.57327105 5.45750218 17.95494585 0.00100238 0.00765573 0.00606024
N 5.24764879 2.41031748 14.90473748 -0.00025374 0.00000976 -0.00145367
N 1.64249315 1.67092779 17.60327254 -0.00308450 -0.00563178 -0.00678391
N 0.29529405 4.42810485 20.08799204 0.00328551 0.00377206 0.00693724
N 3.53497822 5.17500898 22.88361067 0.00168527 -0.00141076 0.00522130
N 5.10536291 2.27169174 19.96531852 -0.00197014 0.01022273 0.00513706
N 1.71744249 1.32076829 22.58707046 -0.00307796 0.00290349 -0.00054791
N 0.33586164 10.00897082 1.11056038 0.00062631 0.00344483 0.00914503
N 4.14259857 10.61048668 3.73915526 0.00681446 0.00863236 -0.00411241
N 5.67149626 7.89294688 1.22298264 0.00485222 -0.00079669 -0.00492128
N 2.10130990 7.20342507 3.75868897 0.00026572 0.00921737 0.00008634
N 0.70188174 10.07615162 5.64164870 0.00624409 0.00254881 0.00841921
N 3.98018548 10.78944381 8.62285723 -0.00035941 -0.00184094 0.00328241
N 5.92843430 7.84180301 5.66010532 0.00175994 -0.00635952 -0.00725946
N 1.92826184 7.03518897 8.38713128 -0.00132839 0.00102376 0.00543418
N 0.90036729 9.80539043 10.47851438 -0.00262465 0.00233146 -0.00154205
N 3.86035980 10.70169391 13.28567327 0.00743937 0.00525055 -0.00204399
N 5.39192134 7.81716712 10.66756733 0.00109595 -0.00083999 0.00673212
N 2.43138017 6.99321317 13.06833685 -0.00175632 0.00411692 -0.00251445
N 0.70553391 9.98693522 15.17245441 0.00236714 -0.00397225 0.00121598
N 4.03038164 10.81526098 18.06425782 -0.00298714 -0.00088668 -0.00109395
N 5.40695872 7.74967037 15.38950942 -0.00516882 0.00401243 0.00195486
N 1.91706973 7.06807734 17.88517042 0.00127401 0.00479160 -0.00272236
N 0.72500804 9.98212330 20.07099544 -0.00160131 -0.00264275 0.00013436
N 3.95963163 10.90965093 23.07642358 -0.00513616 -0.00636309 -0.00685953
N 5.50843879 7.63330210 19.87205365 -0.00052232 0.00391722 0.00036343
N 2.47445826 7.24133666 22.70625872 0.00313231 -0.00167065 0.00079545
N 1.04319842 15.46909413 1.17588496 -0.00255381 -0.00956893 -0.00502840
N 4.45921382 16.43091975 3.91604787 -0.00284201 -0.00309813 0.00100651
N 6.19748319 13.37232577 1.06273348 0.00369818 0.00321876 -0.00416104
N 2.89279717 12.54710494 4.02689257 0.00804869 -0.00392422 -0.00808880
N 0.99971358 15.54046636 5.80394813 0.00044475 -0.00971388 -0.00716090
N 4.45126067 16.29279715 8.53500360 0.00063525 0.00148864 0.00215141
N 6.02434092 13.24027632 5.47744638 -0.00526171 -0.00170095 -0.00088328
N 2.90136478 12.79979632 8.29183312 0.00087098 -0.00176253 -0.00324583
N 0.91814671 15.63060439 10.53783736 -0.00230201 -0.00100430 -0.00243808
N 4.82854539 17.03006726 13.22110301 -0.00152616 0.00310881 -0.00251580
N 6.03220899 13.43962983 10.57542294 0.00587224 -0.00200228 -0.00984053
N 2.53628149 12.60697585 13.30742947 0.00275515 -0.00307965 -0.00998300
N 0.93533008 15.68136450 15.56696925 -0.00140774 0.00184238 0.00557582
N 4.43581629 16.48844211 17.98319387 0.00351327 0.00014722 -0.00085973
N 5.96468922 13.62057224 15.07388128 0.00506367 -0.00397146 -0.00114751
N 2.72096388 12.68904511 18.09826075 0.00017212 -0.00250041 -0.00512650
N 0.91495293 15.60347670 20.09850500 -0.00337551 0.00298766 0.00423334
N 4.48119888 16.57413253 22.75630784 0.00257836 -0.00640910 -0.00211516
N 5.92674452 13.65111909 19.79499916 -0.00142546 -0.00049071 -0.00342393
N 2.84788165 12.94938392 22.54299136 0.00308113 -0.00404074 0.00040617
N 1.42231342 21.40492819 0.97573100 -0.00058316 0.00262453 0.00562941
N 4.03525239 23.33757578 3.72108705 -0.00113394 -0.00240983 0.00076386
N 5.22727516 20.34449964 1.10053657 0.00488232 -0.00279829 -0.00781247
N 2.86617043 18.04055115 3.79134794 -0.00175395 -0.00057359 -0.00345806
N 1.39214392 21.03999275 5.69466143 -0.00220590 -0.00300572 0.00108386
N 4.10093008 23.56271091 8.65620915 0.00175648 0.00283499 -0.00376752
N 5.08626755 20.38145004 5.84060939 -0.00051034 0.01020037 0.00227135
N 2.89141092 18.03363377 8.58896075 -0.00516406 -0.00514495 -0.00082218
N 1.35044018 21.04532897 10.59386965 0.00105175 -0.00044695 -0.00634992
N 4.11286767 22.74795640 13.31078887 -0.00490724 0.00125516 -0.00172222
N 5.36263125 20.15056598 10.38552757 -0.00380718 -0.00128627 -0.00327821
N 3.09230571 18.48256102 13.45583937 -0.00134430 -0.00613313 0.00035641
N 1.45868188 21.28983466 15.43631327 0.00932040 0.00175189 0.00782683
N 3.99167146 23.31375521 17.94365270 -0.00933610 -0.00089612 -0.00032371
N 5.79583391 20.17487324 15.08495311 -0.00291488 0.00368971 0.00191589
N 2.89017353 18.12436428 17.77775990 0.00016064 -0.00418526 -0.00380557
N 1.25729823 21.17893422 19.96234837 0.00234100 0.00270761 0.00498899
N 4.18883727 23.47176667 22.67894217 0.00052064 -0.00120501 0.00151116
N 5.10773247 20.26642533 19.99746497 0.00216810 0.00033767 0.00156007
N 2.88263298 18.30695917 22.85969245 -0.00049679 0.00385141 -0.00054194
N 0.72873785 27.75808971 1.14028794 -0.00093408 -0.00502014 -0.00633672
N 3.29197349 29.73644248 3.70785832 -0.00834150 -0.00205048 -0.00467046
N 4.99652481 26.75556340 1.10645186 0.00569313 0.00202172 -0.00594325
N 1.92773620 24.50996057 3.71319658 0.00578797 0.00184837 -0.00404149
N 0.64101394 27.47414042 5.73906777 -0.00156601 -0.00477526 -0.00863847
N 3.21362025 29.38842633 8.33632927 0.00030679 0.00201956 0.00311674
N 4.58274447 26.56672551 5.66267518 0.00366469 0.00116218 -0.00429586
N 2.02743042 24.48266678 8.45855447 -0.00173921 -0.00358261 0.00408031
N 0.86460365 27.16245889 10.37057321 0.00721336 0.01059411 -0.00378503
N 3.28643799 29.67331034 13.07838214 0.00478966 -0.00731074 -0.00177550
N 4.80687485 26.68399484 10.32618213 0.00495560 0.00392410 -0.00219576
N 2.42153649 24.33886570 13.23482823 0.00484528 -0.00006817 -0.00707855
N 0.83082984 27.70676176 15.01141063 -0.00170907 0.00365741 0.00383467
N 3.07896150 29.70549834 17.77502357 0.00294982 0.00478661 0.00589348
N 4.77309519 26.75604950 15.13832574 -0.00126380 -0.00066382 -0.00390359
N 2.04199105 24.50174926 18.09446506 -0.00221694 0.00533089 -0.00219395
N 0.68898909 27.65298446 20.05281323 -0.00181316 0.00526116 -0.00185032
N 3.20020639 29.36642535 22.68304852 -0.00369749 -0.00144854 -0.00461000
N 4.91834552 26.47517835 20.06034026 0.00095422 0.00023284 -0.00631553
N 2.27207275 24.79695514 22.92035808 -0.00359184 0.00108670 -0.00014718
N 6.56657734 4.05850371 0.92084183 0.00184447 -0.00006526 -0.00428743
N 10.32717934 4.74871725 3.60034060 0.00203921 0.00048182 0.00340320
N 12.03201514 1.57526522 0.90083114 0.00434048 0.00719848 -0.00560065
N 8.55561326 1.08945374 3.73261133 0.00172852 0.00094199 0.00342939
N 6.91031828 4.00123256 5.61335647 -0.00387151 0.00325615 -0.00507478
N 10.14382533 4.68572289 8.32881053 0.00112208 -0.00022440 0.00258587
N 11.73885544 2.02100485 5.71344794 0.00540786 -0.00598959 -0.00046124
N 8.72064451 1.15132573 8.45599179 0.00184834 0.00986466 0.00059422
N 6.70502957 4.04990896 10.67514465 -0.00500167 0.00041186 -0.00260816
N 10.09519423 4.89883265 13.43400858 -0.00099328 0.00411455 0.00180901
N 11.69080885 1.75553862 10.45668124 -0.00360330 -0.00134830 0.00235386
N 8.44385403 1.03714594 13.28273144 -0.00306971 0.00306961 0.00005246
N 6.71923219 4.14627871 15.03586160 -0.00078574 0.00156791 -0.00195148
N 10.24447803 4.91100141 17.93530971 0.00241254 -0.00536087 -0.00437626
N 11.88679850 1.89675618 15.10797191 -0.00135845 0.00857311 -0.00805864
N 8.60896699 1.06864521 17.94411280 -0.00017616 0.00347037 0.00815317
N 6.78335729 3.82410256 19.92603692 -0.00616324 -0.00891855 0.00630138
N 10.18933228 4.70161233 22.71552669 -0.00100560 -0.00249030 0.00396430
N 11.79950328 1.77981522 19.79860212 0.00175343 0.00271181 0.00092721
N 8.52047051 1.04415270 22.55596260 -0.00081441 0.00374031 -0.00233799
N 7.26806145 9.43489720 0.91259036 -0.00373421 -0.00218683 0.00581647
N 11.02940572 10.50140977 3.65514834 -0.00006901 0.01457894 -0.00453457
N 12.35309936 7.44474067 0.93242396 0.00307804 0.00226007 -0.00501638
N 9.00968802 6.63209690 3.47387099 -0.00694278 0.00293322 0.00470557
N 7.68163483 9.27345366 5.77126430 0.00518263 -0.00557626 -0.00467698
N 10.83704384 10.60815592 8.50886090 -0.00108412 0.00434023 -0.00179103
N 12.38574418 7.40873443 5.66099617 -0.00078135 -0.00217043 -0.00693207
N 8.97583722 6.67762761 8.57492852 -0.00044164 0.00388568 -0.00367921
N 7.04495686 9.39673631 10.55663090 -0.00166764 0.00101843 0.00490115
N 10.63068800 10.64580482 13.23927459 0.00059861 -0.00550538 -0.00124068
N 12.20938926 7.45345311 10.46453805 0.00013420 -0.00188446 0.01031951
N 8.95896905 6.97374788 13.30509857 0.00329106 -0.00067517 0.00606224
N 6.60448490 9.62533425 15.26172352 0.00238620 0.00384609 -0.00107790
N 10.70816981 10.65369541 18.03644970 -0.00301772 0.00037944 0.00746660
N 12.06836926 7.61561669 15.10994926 -0.00932183 -0.00917219 0.00617154
N 9.01579129 6.91826847 18.08078956 0.00727531 0.00475394 -0.00204787
N 6.92185254 9.44141538 20.09126944 0.00622814 0.00010985 0.00089785
N 10.93498854 10.45485354 22.59390659 0.00059529 -0.00180059 0.00478132
N 12.18344682 7.70559517 19.92621752 -0.00304899 -0.00068655 0.00072040
N 8.68492084 6.48324456 22.97498284 -0.00210720 -0.00011144 -0.00119888
N 7.85174680 14.92567841 0.81309972 0.00180544 -0.00254375 -0.00485419
N 10.38417658 17.23293433 3.66241936 -0.00912250 -0.00386477 0.00436881
N 11.64305301 13.85805995 0.92042974 -0.00055040 -0.00112180 -0.00050757
N 9.20004596 11.96309150 3.71083350 -0.00231853 -0.00512982 -0.00658911
N 7.64247941 14.83240783 5.63299127 0.00363862 0.00563558 -0.00095534
N 10.25851845 16.98235450 8.41236225 0.00046352 0.00167453 -0.00128360
N 11.59826957 14.24521712 5.79694532 0.00770693 0.00229931 0.00011722
N 9.06540342 12.04301984 8.62159334 0.00112635 -0.00239772 -0.00247124
N 7.65100933 15.12311851 10.54036611 0.00777498 -0.00198932 0.00252787
N 10.48864992 17.13008472 13.19924445 -0.00165894 0.00115687 0.00179362
N 11.48300820 14.04375057 10.62731528 -0.00567429 -0.00433375 -0.00549242
N 8.95907142 12.14010651 13.23452782 -0.00377066 0.00098344 0.00105248
N 7.56040476 15.23083806 15.31546216 -0.00666861 -0.00170161 0.00393797
N 10.45762585 17.16825132 18.06661938 0.00402531 -0.00128812 -0.00098062
N 11.55415194 14.23721312 15.40142661 0.00496184 0.00366378 0.00598204
N 8.69761258 11.87896559 18.08349896 -0.00090838 0.00078463 0.00228177
N 7.62127202 15.24027253 19.88714963 -0.00058500 -0.00103877 -0.00091571
N 10.38211013 17.24048985 22.52218091 -0.00303047 0.00278765 0.00121768
N 11.47439084 14.30476612 20.04499077 -0.00121437 0.00319460 -0.00764216
N 9.08689375 11.73392249 22.83881417 0.00008888 0.00665983 -0.00293108
N 7.17656912 21.63954470 0.96765849 0.00436368 -0.00231596 -0.00589442
N 9.21066482 23.53105598 3.64006398 -0.00003677 -0.00211506 -0.00394704
N 10.90017755 20.51155091 0.77437731 0.00490344 -0.00035473 -0.00858905
N 8.51355936 18.45512646 3.81603563 -0.00709277 0.01113621 0.00581025
N 6.96572238 21.79963552 5.89422826 -0.00619579 0.00166637 -0.00068519