2000
Time=1000.00000000 pbc="T T T" Lattice="30.50991766 0.00000000 0.00000000 0.00000000 30.51984339 0.00000000 0.00000000 0.00000000 23.64330673" energy=-11955.84055787 virial="-73.54313576 11.65681811 -6.09136679 11.65681811 -108.39175984 -3.57161567 -6.09136679 -3.57161567 -41.37960442" stress="0.00062642 0.00044604 -0.00032923 0.00044604 -0.00107254 -0.00042175 -0.00032923 -0.00042175 0.00459693" Properties=species:S:1:pos:R:3:vel:R:3
C 29.69652509 3.58295582 1.84736684 -0.00431726 -0.00586164 -0.00878726
C 2.26129685 0.60308602 3.01280881 0.00634621 0.00609983 -0.00126819
C 29.97948346 3.76279002 6.38570731 -0.00391625 -0.00020533 -0.00317920
C 2.51332709 0.56549495 7.73378440 -0.00232981 -0.00108598 0.00403802
C 29.92114527 3.50475610 10.96218869 -0.00029517 -0.00010122 -0.01032558
C 2.47777943 0.51769574 12.46555026 0.00201482 -0.00135313 0.00174374
C 29.73016987 3.73042286 15.79338906 -0.00378808 0.00276091 0.00483090
C 2.22014877 0.28481902 17.39818396 -0.00371208 0.00948858 0.00451197
C 29.87252676 3.70645766 20.51532684 -0.00718708 0.00267469 -0.00182860
C 2.27620675 0.86163557 22.04066785 -0.00253414 -0.00297437 -0.00562282
C 30.44965572 9.48037576 1.64424575 -0.00069797 -0.00410348 -0.00422982
C 2.59789448 6.16644803 2.84805548 -0.00003065 0.00391735 -0.00129821
C 30.18286309 9.11698572 6.42187984 -0.00543678 0.00368350 0.00400636
C 2.65521550 6.17435843 7.51685980 -0.01067157 0.00030816 0.00100252
C 0.09700957 9.40344307 11.22366656 -0.00425338 -0.00100373 -0.00731835
C 2.84120217 6.26849862 12.27679135 -0.00178821 -0.00992508 0.00009501
C 0.05600585 9.25601985 15.81987892 0.00771278 0.00543309 -0.00773462
C 2.84235000 6.42819126 17.28686783 0.00353687 -0.00515176 0.00071747
C 30.44483342 9.51451876 20.48177198 0.00132960 0.00470865 0.00297486
C 2.72365176 6.39247014 21.98508291 0.00501397 -0.00235141 -0.00064055
C 0.62435502 15.02727626 1.63844112 0.00535171 -0.00191391 -0.00296757
C 3.25006332 11.84709802 3.10534173 0.00241028 -0.00140643 0.00185333
C 0.25506870 15.12701745 6.26321848 -0.00809068 -0.00282359 -0.00200898
C 3.43636608 11.97546826 7.79801819 0.00002322 0.00200097 0.00104878
C 0.33562371 14.98552209 11.08622036 0.00147348 -0.00251036 0.00522381
C 3.68302132 11.92662911 12.51421529 0.00240095 -0.00830961 -0.00427262
C 0.36081798 15.00870525 15.76895764 -0.00210276 -0.01181388 -0.00660777
C 3.46265639 12.03496544 17.31805559 -0.00210200 0.00576170 -0.00005984
C 0.48131137 15.15389900 20.62564041 -0.00725015 -0.00183639 -0.00433934
C 3.59965007 12.14495938 21.90197380 0.00210378 -0.00441792 0.00410879
C 0.54338990 20.51116140 1.76165043 0.00903003 -0.00236435 -0.00849548
C 3.54886780 17.63829470 2.86561695 -0.00243458 -0.00513757 -0.00286773
C 0.67103076 20.55957890 6.39690789 0.00065836 0.00662058 -0.00061964
C 3.73067688 17.61514046 7.69512081 0.00240778 -0.00156006 0.00040191
C 0.37774752 20.56094110 11.12823416 -0.00959191 -0.01241282 -0.00308799
C 3.82832782 17.76932849 12.25354227 0.01089687 -0.00137490 0.00682436
C 0.42851746 20.56827329 15.83844104 0.00370460 0.00110730 -0.00573958
C 3.75749775 17.91629972 16.97480859 0.00436688 0.00032618 0.00532273
C 0.42847909 20.70648103 20.64205127 -0.00069328 -0.00466528 0.00191909
C 3.63461168 18.25664176 21.95759055 -0.00418201 -0.00472904 -0.00151539
C 30.43535487 27.25388915 1.66264131 -0.00052538 -0.00255336 0.00242566
C 3.13854676 24.34702278 2.89160849 0.00445131 0.00512023 0.00711854
C 30.35575474 27.33850171 6.42663142 -0.00233152 0.00809803 0.00024646
C 3.20937392 24.32301006 7.80906023 -0.00054653 0.00444371 -0.00060104
C 0.23089843 27.41907296 11.07834195 0.00601638 0.00188163 -0.00322913
C 2.74244856 24.39442971 12.52649878 -0.00544810 0.00347482 -0.00183042
C 0.04979542 27.31515001 16.00052214 -0.00200095 0.00033362 0.00123818
C 2.87809099 24.70464823 17.23559560 0.00475180 -0.00094054 0.00713890
C 30.29234518 27.41988520 20.75668519 0.00676916 0.00188489 -0.00489172
C 3.12332554 24.62634287 21.91110847 -0.00396383 0.00463774 0.00224483
C 5.96033576 3.42974038 1.57033482 0.01296710 -0.00303365 -0.00609037
C 8.52137178 0.04638914 2.97040795 0.00241932 -0.00298420 -0.00310860
C 5.98247977 3.11989748 6.51182667 -0.00020746 0.00558974 -0.00352511
C 8.85711784 0.15269218 7.82670281 0.00004440 -0.00273241 0.01092652
C 5.89705810 3.30340078 11.02745236 0.00672103 0.00595999 -0.00440519
C 8.88155659 0.14269998 12.47798928 0.00934981 -0.00683399 -0.00524696
C 5.46372442 3.30403070 16.02462331 0.00466507 0.00386960 0.00395953
C 8.64783729 0.05408477 17.40898161 -0.00500123 0.00623629 0.00065717
C 5.36099264 3.21656356 20.58255273 -0.00065588 -0.00232644 -0.00370100
C 8.88034215 30.47765712 22.00176232 -0.00348856 0.00092256 -0.00343317
C 6.61174276 8.82417778 1.59965465 -0.00793544 -0.00374709 0.00127450
C 9.42120991 5.85212521 3.03679940 -0.00402293 0.01084102 -0.00178050
C 6.29861939 8.93567733 6.22253176 0.00430597 0.00197320 0.00094142
C 9.45416531 5.71363931 7.95890367 -0.00384963 0.00198350 0.00667508
C 6.21389727 8.68264943 11.08049490 0.00463721 -0.00391985 -0.00052680
C 9.29914740 5.55692247 12.63604203 0.00788819 0.00662976 -0.00267734
C 6.19363095 8.84475555 15.94898528 0.00067677 -0.00148289 0.00253540
C 9.27557627 5.75445858 17.44366790 0.00140112 0.00369486 -0.00371840
C 6.32626903 8.80254255 20.68387640 -0.01074027 -0.00803448 0.00400408
C 9.48554634 5.86848645 21.99555177 -0.00087649 0.00496597 0.00006623
C 6.85636107 14.90830089 1.73865225 0.00613321 -0.00972217 0.01411975
C 9.64994130 11.43255036 2.98422684 0.00152648 0.00321356 -0.00970475
C 6.80811489 14.77418715 6.52035374 0.00260961 0.00159126 -0.00093046
C 9.83771478 11.61928080 7.78370746 0.00221882 -0.00099985 0.00098842
C 6.97726289 14.69650178 11.33510715 -0.00097570 0.00318022 0.00242894
C 9.79542112 11.53845592 12.34076118 0.00421448 -0.00617785 -0.00775163
C 6.84765438 14.59200686 15.76746402 -0.00064517 -0.00323627 -0.00251373
C 9.74554464 11.27260898 17.06856857 -0.00317806 -0.00001784 0.00549077
C 6.76834165 15.03403979 20.63643421 0.00223740 0.00359173 -0.00114018
C 9.73739046 11.51952311 21.75987173 0.00710955 0.00245635 -0.00512330
C 6.40467751 21.36675616 1.55285883 0.00119028 -0.00324700 0.00583923
C 8.94409825 18.46359329 3.07471323 -0.00614767 -0.00081370 -0.00357767
C 6.07608173 21.43369060 6.33436083 -0.00499650 0.00172545 0.00283108
C 9.48044239 18.31080498 7.78039069 -0.00127705 -0.00327072 0.00435888
C 6.19307909 21.28225625 11.36980070 0.00556454 0.01027842 -0.00940276
C 9.65403640 18.26152266 12.53461584 -0.00230203 0.00136373 0.00320597
C 6.08600795 21.60273470 15.85876409 -0.00200532 0.00938731 0.00620640
C 9.46263062 18.52070287 17.13340794 0.00578575 0.00984643 0.00569716
C 6.10230893 21.60795078 20.38914151 -0.00020412 0.00560632 0.00408865
C 9.17970598 18.33171005 21.89855388 -0.00087232 -0.00203187 0.00505181
C 5.19815032 28.03801798 1.67289991 -0.00291914 0.00302918 -0.00308161
C 8.75688064 25.18213969 3.10161289 0.00150759 0.00517801 0.00588974
C 5.37936169 28.11533214 6.54528597 -0.00059365 -0.00064701 -0.01013489
C 8.48092819 25.18108466 7.70495053 -0.01132176 -0.00452687 -0.00216956
C 4.97136124 28.14847194 11.27352636 0.00221612 0.00404216 0.00278480
C 8.57963386 25.22813762 12.36104931 -0.00194442 0.00948949 -0.00609498
C 5.43380189 27.94203223 15.84497514 0.00492172 0.00523402 -0.00705130
C 8.64472118 25.36598533 17.13069994 0.00177136 0.00183338 -0.01036978
C 5.53458991 27.81514729 20.84521516 -0.00140616 0.00761440 0.00015644
C 8.80817022 25.25409276 22.04701343 0.00924710 -0.00526948 -0.00643365
C 12.31822711 2.56946257 1.91283552 -0.00119708 -0.00680575 0.00113026
C 15.58939269 30.44258247 3.16029177 -0.00099114 -0.00751612 -0.00435423
C 12.19181239 2.70903892 6.52180343 0.00827663 0.00031113 -0.00257149
C 15.59284272 0.00772758 7.95343294 0.00081068 0.00706915 -0.00051787
C 12.50688251 2.90353008 11.33567028 -0.00072082 -0.00650477 -0.00102673
C 15.55784723 30.45748772 12.73810663 0.00358651 0.00755199 0.00272104
C 12.38888100 2.93895397 16.02880325 -0.00025417 -0.00265787 0.00390928
C 15.41045629 0.10826810 17.48193967 0.00078557 -0.00511823 -0.00040759
C 12.47064050 2.72608501 20.69391239 0.00581103 -0.01228223 -0.00552324
C 15.62957188 30.39932787 22.08179186 -0.00204267 -0.00113443 -0.00123640
C 12.69813128 8.55968557 1.78919345 0.00136938 -0.00428032 -0.00912965
C 15.66978815 5.43951125 2.96056350 -0.00011924 0.00358957 0.00080138
C 12.61871666 8.37277686 6.69152248 0.00186494 -0.00075524 0.00234891
C 15.53997398 5.30672011 7.83505879 0.00428301 0.00048412 0.00080117
C 12.74232987 8.54547227 11.31044829 0.00332404 -0.00869674 -0.00726748
C 15.80591673 5.39726218 12.56083091 0.00341639 0.00671846 0.00027155
C 12.70951787 8.49930863 16.02937499 0.01001417 0.00472048 -0.00709835
C 16.03761969 5.52921167 17.17505978 0.00063663 0.01153489 0.01192292
C 12.81071130 8.41024059 20.56593427 -0.00644307 0.00043145 0.00040487
C 15.85461229 5.43914337 22.01933301 -0.00536785 -0.00839786 0.00642004
C 12.24216631 14.94546965 1.64204682 -0.00101213 0.00800682 -0.00215032
C 15.22419020 11.96900978 2.91211200 0.00734906 0.00072583 -0.00058549
C 12.19969310 15.36513800 6.17252697 -0.00723418 -0.00080258 -0.00113323
C 15.18945003 12.06113501 7.75675019 0.00176592 0.00404533 -0.00200462
C 12.23769040 15.17478517 11.19755652 -0.00111436 -0.00761404 -0.00447179
C 15.24938733 12.01373049 12.47525819 -0.00116445 0.00193330 0.00030854
C 12.23376734 15.28038365 15.86656163 -0.00078974 0.00140031 -0.00002324
C 14.99711018 12.14683192 17.16800248 -0.00073152 0.00297998 -0.00070401
C 12.08915155 15.28379842 20.59857552 -0.00064315 0.01380708 0.00524230
C 15.11994184 12.14963503 21.92188348 -0.00703120 -0.00166999 0.00827182
C 11.50697560 22.20297173 1.61673674 -0.00819264 0.00915294 -0.00925651
C 14.52253960 18.93431452 3.05395093 -0.00270590 -0.00425633 0.00120010
C 11.57400936 22.07683756 6.46889988 0.00138507 -0.00014989 -0.00336676
C 14.77281329 18.80783300 7.75804123 0.00057208 0.00880927 0.00325162
C 11.67246328 22.16338112 11.04878924 -0.00210202 0.00596550 0.00754461
C 14.77967356 19.34059100 12.25587872 -0.00487030 0.00731852 0.00005323
C 11.71625737 22.36362771 15.73634698 -0.00226811 0.00569356 0.01105377
C 14.45743716 18.93008991 17.17149748 0.00545000 0.00771111 -0.00186337
C 11.81877100 22.37857820 20.35462509 -0.00681777 -0.00195436 -0.00455243
C 14.16377542 18.73121789 21.89832404 -0.00837209 -0.00166241 -0.00262671
C 12.05905964 27.99094707 1.89991412 0.00933376 -0.00666125 0.00164232
C 15.07030563 24.39215272 3.16803271 0.00223797 0.01130993 0.00372218
C 12.05408907 27.64253610 6.47936852 0.00399930 -0.00179177 -0.00971218
C 15.09140036 24.85732509 7.74956257 0.00462110 0.00280611 0.00234675
C 12.08714865 27.73867805 11.25943616 -0.00098420 0.00133586 -0.00035367
C 15.06483281 24.95190542 12.52115897 0.00313302 0.00287218 -0.00614511
C 11.94262275 28.07721514 15.86841276 0.00868456 -0.00169511 -0.00761690
C 15.35851017 24.66192099 17.18770931 -0.00707695 -0.00047820 -0.00760114
C 12.40653962 27.82440362 20.74046381 -0.00398634 0.00293749 -0.00818891
C 15.19852555 24.51691309 21.86391860 0.00150149 0.00131612 -0.00605467
C 19.36135783 2.37936365 1.64497564 0.00616452 -0.00112653 -0.00257357
C 22.15239381 29.84031914 3.01540214 0.00358974 0.00518151 0.00292939
C 18.81862892 2.62537792 6.38162800 0.00088289 -0.00790906 0.00137649
C 22.10356027 30.05231956 7.65862052 -0.00242472 0.00477761 -0.00510477
C 19.05313838 2.54010144 11.36429708 0.00313531 -0.00649864 -0.00112395
C 22.25092624 30.00958752 12.63083018 0.00168575 -0.00729762 0.00644306
C 18.90272266 2.57422052 15.93594736 -0.00394098 -0.00938123 -0.00566351
C 22.18142308 29.93870123 17.09939223 0.00198779 -0.00694270 -0.00067334
C 19.03347888 2.56599634 20.65668008 0.00084104 -0.00291289 -0.00921353
C 21.91557047 29.93740344 21.89044716 -0.00369618 0.00110765 -0.00971962
C 18.44810623 9.10419384 1.70678727 -0.00316679 0.00047754 0.00323840
C 21.50356511 6.19427423 2.94032368 -0.00088571 0.00341751 -0.00300551
C 18.17483901 9.10686566 6.34503389 0.00587600 -0.00698751 -0.00396591
C 21.40656228 6.17682867 7.86304271 -0.00841338 0.00949596 -0.00685374
C 18.05520788 8.91447574 11.00445888 -0.00430539 -0.00250852 -0.00256163
C 21.71896462 6.18219921 12.60628361 0.00212483 0.00155606 0.00597323
C 18.16139856 9.08737061 15.71184803 0.00226522 -0.00447833 0.01314957
C 21.27388228 6.33594765 17.43704795 -0.00304058 -0.00635618 0.00004423
C 18.42081293 9.41005382 20.53307573 -0.00065325 -0.00328091 -0.00574777
C 21.39288508 6.24538321 22.05280392 -0.00023649 -0.01077273 -0.00365576
C 17.53581493 15.86666549 1.78380505 -0.00023612 -0.00734819 0.00241092
C 20.92083159 12.73187796 2.88991771 -0.00573308 0.00330720 -0.00492288
C 17.59043074 15.57801821 6.33765706 -0.00589488 -0.00602058 -0.00310488
C 20.48810319 12.53811350 7.53843995 -0.00841673 0.00141615 -0.00498706
C 17.59629572 15.76027706 11.09832082 -0.00288993 0.00706049 0.00336810
C 20.59563842 12.60820021 12.24373212 -0.00807989 -0.00008914 0.00565234
C 17.48781069 15.83382874 15.82331793 -0.00110407 0.00888743 -0.00525624
C 20.92865425 13.02553898 17.08974393 -0.00310777 -0.00084092 0.00291023
C 17.34239924 15.89953958 20.58436169 -0.00463012 0.00421030 0.00096714
C 20.55251221 12.51281872 21.77108761 0.00577993 0.00456584 0.00442325
C 18.04088133 21.41008113 1.71364081 0.00032533 0.00404391 0.00513723
C 20.96439489 18.53633985 3.19977585 -0.00308154 -0.00231899 0.00190185
C 17.88120784 21.82141345 6.50553635 -0.00256490 -0.00611486 -0.00543059
C 20.79406874 18.44007569 7.80807249 0.00231946 -0.00141487 -0.00002030
C 18.00773872 21.83528929 11.13585183 -0.01354993 -0.00029294 0.00656872
C 21.18161007 18.48819165 12.41973887 -0.00506805 -0.00878429 -0.00745349
C 18.25602260 21.32032314 15.90840887 0.00077872 0.00403904 -0.00737992
C 21.07826294 18.37098419 17.24952014 0.00024968 -0.00345749 -0.00374133
C 18.11761064 21.44477055 20.65313853 0.00183746 0.00291999 0.00887585
C 21.11357167 18.50138058 21.81613069 0.00192241 -0.00437971 0.00542241
C 18.56380796 27.01468880 1.83678609 0.00851457 -0.00591556 0.00166851
C 21.47540378 24.07158385 3.03646101 0.00045588 -0.00069205 0.00911168
C 18.89748233 27.12177704 6.58027029 0.00409654 0.00550482 -0.00174461
C 21.51398537 23.79553960 7.74507446 -0.01115120 -0.00953983 -0.00945969
C 18.72416518 27.36799203 11.36722662 -0.00227722 -0.00415517 -0.00152863
C 21.64780351 24.09197961 12.47577934 -0.00635697 0.00468033 -0.00652685
C 18.54892181 27.33309243 16.04029666 0.00098141 0.00543169 0.00984634
C 21.59336394 23.97230366 17.05104864 0.00831806 -0.00061985 -0.00051406
C 18.63339188 27.13865578 20.58273733 -0.00212266 -0.00577476 -0.00675521
C 21.06815452 24.28164072 21.97145694 0.00328666 0.00366249 -0.00297435
C 24.49861857 3.09225742 1.74010460 -0.00372727 0.00481877 -0.00342805
C 27.42466960 0.11919883 3.09275018 0.00518947 -0.00064996 -0.00191060
C 24.38688636 3.22962307 6.54010995 -0.00686367 -0.00467411 -0.00022542
C 27.72278769 30.37388700 7.84747626 -0.01079170 0.00161263 0.00325533
C 24.61415921 2.97530375 11.37375726 -0.00369295 0.00028391 0.00339950
C 27.68198007 30.43760774 12.53333965 -0.00499491 -0.00051035 0.00540504
C 24.23101171 3.20242151 16.22661090 -0.01167816 0.00114123 0.00130272
C 27.49713829 30.45903042 17.44044554 -0.00835902 0.00493461 0.00939580
C 24.48880396 3.42115108 20.83212659 0.00860719 0.00092862 -0.00509848
C 27.07904896 30.48950161 22.07031103 -0.00605038 0.00021764 0.00192291
C 23.86918152 9.85139763 1.62589302 0.00271356 -0.00384877 -0.00389078
C 26.86538570 6.66781132 2.95801833 0.00227783 -0.00386621 -0.00567515
C 23.86864328 9.84143144 6.18902407 -0.00110785 0.01293194 -0.00080596
C 26.68943216 7.05273842 7.73673696 0.00000227 0.00113804 -0.00570280
C 23.62458100 9.76950525 11.08225076 -0.00317410 0.00088926 -0.00267916
C 26.81154657 6.65816539 12.62052214 -0.00586167 0.00546135 0.00343470
C 23.68250471 10.25392698 15.85731086 -0.00557319 -0.00058991 -0.00651863
C 27.07448730 6.98847631 17.18865378 0.00225577 -0.00471376 0.00409457
C 24.10453600 10.01563757 20.60852266 0.00056044 0.00352698 -0.01176367
C 27.11834131 6.81837188 21.90457271 0.00563478 0.00585951 -0.00631265
C 24.23491681 15.60395034 1.70484599 0.00537464 0.00028833 0.00341907
C 27.38326888 12.47605469 2.90467095 0.00139956 0.00398161 0.00037396
C 24.02799404 15.62959309 6.40353312 -0.00157728 -0.00206839 -0.00671088
C 27.38183543 12.61225807 7.56433801 -0.00614276 -0.00798020 0.00522384
C 24.03756669 15.31364328 10.98716215 -0.00480583 0.00373040 -0.00162630
C 27.51660956 12.47749860 12.38749816 -0.00689829 0.00267775 0.00109950
C 24.22029152 15.58198450 15.77889064 0.00434817 -0.00590884 -0.00713271
C 27.28644403 12.33398638 17.05170773 -0.00200753 0.00429538 -0.00378440
C 24.37929867 15.63241986 20.64601763 -0.00278945 0.00273576 -0.00359585
C 27.67966056 12.42611331 21.96094471 0.00416390 -0.00590837 -0.00239254
C 24.43737541 21.05446742 1.65239591 -0.00281952 -0.00531058 -0.00218136
C 27.52535830 18.11343483 2.98149065 0.00297537 -0.00594335 -0.00537684
C 24.45550697 20.99646558 6.33876365 0.00184339 0.00463305 -0.00153395
C 27.72533160 17.98721012 7.83436357 -0.00426548 -0.00209900 -0.00647670
C 24.55674122 20.84222935 11.06346165 -0.00462932 0.00761488 -0.00191278
C 27.58824565 17.94293668 12.39326228 0.00321355 0.00275109 -0.00356494
C 24.43231093 21.14694440 15.83818229 0.01190677 -0.00741272 0.00329219
C 27.53053642 18.13204905 17.17659089 -0.00070699 0.00403120 0.00190037
C 24.54275831 21.12431559 20.53236771 0.00490424 -0.00799255 -0.00002380
C 27.60312249 18.36930923 21.83639469 -0.00380824 0.00400091 -0.00873570
C 25.07411684 26.76039834 1.80346570 0.00693841 -0.00498741 0.00587748
C 27.99706475 24.02084803 2.95393842 -0.00118554 -0.00841019 -0.00069747
C 24.94130059 26.73564608 6.54361559 0.00597633 -0.00386815 -0.00022235
C 28.02774321 23.67800103 7.75189647 0.00303935 -0.00089601 0.00447730
C 25.09643238 26.59030956 11.17699090 -0.00094643 -0.00859157 -0.00679030
C 28.02556607 23.65859893 12.48619513 0.00056933 -0.00435463 -0.00602719
C 24.94540283 26.90014288 15.97422455 -0.00154895 0.00272170 0.00069025
C 27.81287663 23.86551792 17.06916352 -0.00054908 0.00248047 0.00044900
C 24.79932230 26.66570858 20.56353882 -0.00427709 0.00128695 -0.00025071
C 27.82803138 24.00310522 21.84109030 0.00623616 -0.00351535 -0.00762182
N 0.12310701 4.37894423 1.28922153 0.00382752 -0.00089135 -0.00796771
N 3.03136019 5.02354486 3.52532324 -0.00867937 -0.00658588 0.00274299
N 5.10937593 2.61676674 0.94703620 0.00255344 0.00172855 -0.00310952
N 1.54846190 1.43346943 3.85603116 -0.01067008 -0.00062575 -0.00447583
N 0.07546153 4.62301120 5.53732841 -0.00329758 -0.00707926 -0.00222757
N 3.37542790 5.14578749 8.13190765 -0.00832861 0.00904313 0.00317563
N 5.06081183 2.52780983 5.72706104 0.00267884 -0.00110216 0.00131262
N 1.68129235 1.39443688 8.44304582 -0.00161637 0.00265884 -0.00777577
N 0.35827076 4.25839279 10.29947037 0.00533804 -0.00194297 0.00296259
N 3.16146346 5.13279611 12.95666096 0.00026699 0.00328739 0.00062251
N 5.09546242 2.46900948 10.32472473 -0.00792677 -0.00484591 0.00614186
N 1.75664985 1.54777956 13.13221018 -0.00393536 0.00835007 0.00220144
N 0.05622062 4.41812794 14.86904554 0.00196931 0.00618057 -0.00358356
N 3.30802920 5.34804752 18.00892267 -0.00893584 -0.00048018 -0.00189692
N 4.76238247 2.33519547 15.36498623 -0.00695209 -0.00887571 -0.00202177
N 1.44347653 1.11826289 18.11099375 -0.00363531 0.00135972 0.01599345
N 0.08804821 4.59290243 19.79478170 -0.00156314 -0.00012403 -0.00363966
N 3.29116654 5.32825296 22.66154550 -0.00147077 0.00957005 -0.00196640
N 4.77813853 2.32694307 19.79398722 0.00669281 -0.00081452 -0.00722563
N 1.16149955 1.28958139 22.68235887 -0.00267519 -0.00562690 0.00323640
N 0.92925379 10.23458563 0.96954013 0.00472123 0.00394913 -0.00117965
N 3.86299671 10.81207114 3.74990793 -0.00185844 0.00244452 0.00101967
N 5.62742147 8.11346792 0.98688904 -0.00311406 0.00478522 0.00292722
N 2.06862203 7.18055591 3.59636548 -0.00841409 -0.00276664 0.00011010
N 0.43826051 10.02072508 5.81011101 0.00595734 0.00179201 0.00302936
N 4.18214143 11.10509639 8.51301301 0.00221106 -0.00479821 0.00231813
N 5.41675985 8.19889462 5.47078141 0.00273092 0.00432748 -0.01014305
N 2.04010138 7.00288083 8.39337253 0.00490951 -0.00354336 -0.00461476
N 0.85652733 10.15586981 10.37431162 -0.00043741 -0.00167111 -0.00071458
N 4.29596680 10.87875736 13.18245357 -0.00573358 0.00002900 0.01278699
N 5.50608761 7.87960204 10.23124453 -0.00433766 0.00610305 -0.00156765
N 2.19096530 7.29812844 12.89095303 -0.00227175 -0.00863733 -0.00527015
N 0.82950486 10.07211867 15.12521128 0.00142608 -0.00196487 0.00316022
N 4.19987343 11.22805164 18.09030930 0.00016140 -0.00194131 0.00425286
N 5.40233119 7.82340166 15.40395840 0.00091436 -0.00359644 -0.00331132
N 2.33367564 7.53567124 17.96999327 0.00050936 0.00296485 0.00695537
N 0.86505327 10.18995343 19.75502079 0.00668457 -0.00532255 0.00220366
N 4.28831336 11.28652790 22.70637836 -0.00781607 -0.00131480 -0.00077604
N 5.42009246 8.19783431 19.90714014 0.00334408 0.00094599 -0.00251168
N 2.26155612 7.43861504 22.70968176 0.00238496 0.00353712 -0.00252029
N 1.20869106 15.97720498 0.86832447 0.00360091 -0.00201717 0.00844738
N 4.39294356 16.85479139 3.57901949 -0.00451781 -0.00263728 0.00703819
N 5.88031011 14.33052099 0.99368719 0.00044603 0.00411300 0.00150226
N 2.67928894 12.80358005 3.83678429 -0.00056217 -0.00563977 -0.00405645
N 1.03209233 15.88710678 5.47898135 -0.00113977 -0.00494351 -0.00825532
N 4.56878447 16.90768581 8.46213299 0.00274300 -0.00018331 -0.00144417
N 6.00191907 13.92528826 5.75037983 -0.00626837 -0.00667541 -0.01108517
N 2.88823637 12.90078524 8.58631402 -0.00900977 0.00744401 0.00308301
N 1.16047503 15.85334036 10.42342390 -0.00943518 0.00026800 -0.00928704
N 4.64468192 17.13483825 13.21929777 0.01163018 -0.00121120 0.00183450
N 6.45886918 13.72392607 10.55253793 0.00027051 -0.00192523 0.00093029
N 2.98706736 12.77951442 13.31639471 0.00427324 0.01194171 -0.00761594
N 1.03225052 15.92848787 15.04832047 0.00819577 0.00446343 0.00503540
N 4.78273654 17.26857970 17.65909493 -0.00231049 0.00267360 0.00051231
N 6.08548050 13.84551327 14.90336437 -0.00392676 -0.00116115 -0.00295779
N 2.58479251 12.91504090 17.96593924 0.01041111 -0.00082977 0.01132967
N 1.04745612 16.09530634 19.87963511 0.00082147 0.00358822 0.00424873
N 4.41479753 17.37063967 22.65574544 0.00164111 0.00023712 -0.00705584
N 6.19339811 14.10011251 19.90043170 0.00198456 -0.00191426 0.01029964
N 2.65583058 12.86906919 22.56884142 0.00471389 -0.00416136 -0.00580220
N 1.47343994 21.31176491 1.11823813 0.00277786 0.00406687 0.00645534
N 4.21044731 23.88896319 3.62477277 0.00553581 0.00173883 -0.00361341
N 5.44238230 20.85693292 0.74778703 -0.00473555 -0.00310671 -0.00124721
N 2.65404558 18.35878632 3.54556305 -0.00782408 0.00011959 0.00834061
N 1.47549119 21.40922846 5.71285178 0.00511949 0.00283961 -0.00217141
N 4.28217589 23.90103409 8.48774370 -0.00953370 0.00208928 0.01494134
N 5.29929919 20.46530509 5.70950315 0.00262294 -0.00891182 0.01012216
N 2.84427106 18.42789239 8.30695397 0.00445871 -0.00404657 -0.00317100
N 1.38356236 21.43519359 10.79329347 -0.00106916 -0.00502390 -0.00040113
N 3.60348386 23.43069018 13.08357183 0.00605153 -0.00556307 0.00276988
N 5.38800058 20.53305672 10.55080074 -0.00455570 -0.00357916 0.00202637
N 2.72058742 18.38610654 12.77252566 0.00072077 0.00340496 -0.00030525
N 1.12510774 21.40770725 15.06394382 0.01067186 -0.00063987 0.01171655
N 3.68382645 23.85258402 17.89933193 0.00203612 -0.00535705 -0.00771223
N 5.08400853 20.86857658 15.27675978 0.00674318 -0.00435915 0.00202500
N 2.93328299 18.68006649 17.71046568 -0.00287874 0.00203247 0.00191234
N 1.27108106 21.57383413 19.99907327 0.00304170 -0.00228264 -0.00303656
N 4.02660914 23.69953423 22.58390849 -0.00662450 -0.00685706 -0.00176406
N 5.27962729 20.76632767 19.67245145 -0.00129902 0.00498679 -0.00070709
N 2.68285634 18.89345069 22.68187053 -0.00241747 0.00207026 0.00435123
N 0.64109846 28.21421669 0.98599507 0.00245662 0.00032616 -0.00927648
N 3.20638330 30.40137014 3.63938436 0.00448073 -0.00760954 0.00661160
N 4.40643303 27.08381349 1.11389515 0.00387800 -0.00027766 0.00231301
N 2.14878349 24.91306240 3.63421136 0.00227652 -0.00322293 -0.00711934
N 0.46737021 28.32838152 5.77062338 0.00662509 0.00540546 0.00938254
N 3.32531142 30.31082691 8.55726167 -0.00345879 0.01191650 0.00466782
N 4.39905269 27.45740231 5.84294335 0.00237429 0.00158366 -0.00104638
N 2.16393802 24.62473385 8.56259788 0.00105333 -0.00828959 -0.00630081
N 1.00871538 28.15617823 10.30539731 0.00652506 -0.00023717 0.00248901
N 3.16927656 30.18922440 13.33365447 -0.00502651 0.00884157 -0.00365672
N 4.41177504 27.38475733 10.35883576 -0.00657236 0.00673139 -0.00100476
N 1.89017305 25.02392487 13.40589514 -0.00993040 0.00580292 0.00703477
N 0.72141840 28.19069171 15.17692098 0.00059120 -0.00348932 -0.00063152
N 3.24662439 30.17368910 18.13815818 -0.00420997 -0.00504336 0.00155375
N 4.63077556 27.06341268 15.19680748 0.00483370 -0.00010946 -0.00613730
N 1.83716371 25.18850560 17.93815252 -0.00882717 -0.00058143 -0.00145427
N 0.67764394 28.26530645 20.11237813 -0.00368708 0.00089674 0.00588869
N 3.22184011 0.15466359 22.68558222 -0.00708412 0.00415993 -0.00165284
N 4.74528787 27.06836324 20.08003997 -0.00159910 0.00450884 0.00270136
N 2.08602787 25.21930037 22.59549553 0.00371809 0.00115027 0.00018645
N 6.71974295 4.16420663 0.78122882 -0.00417816 -0.00295373 -0.00008496
N 10.10974315 4.82075006 3.73718718 -0.00072798 0.00374975 -0.00062186
N 11.62809803 1.87694661 1.00900835 0.00236828 -0.00126842 0.01006076
N 7.99454959 1.02398278 3.64101957 0.00623363 -0.00088120 0.00076400
N 6.74511146 4.05249238 5.82900195 0.00000045 0.01424399 -0.00116072
N 10.07782243 4.82488093 8.78152606 0.00045850 0.00135110 -0.00209971
N 11.72295032 1.55376252 5.99099071 0.00235054 0.00056923 0.00015294
N 8.17260439 1.01625932 8.59327212 -0.00217412 -0.00140241 0.00072115
N 6.67132185 4.16835222 10.28049722 -0.00441259 -0.00630456 0.00129302
N 9.88111992 4.70617629 13.52054144 -0.00350887 0.00550469 -0.00298951
N 11.61575061 2.06464613 10.74469273 -0.00267672 -0.00262209 -0.00589195
N 8.00534699 1.08955966 13.06806229 -0.00362767 0.00361824 0.00203843
N 6.40473383 3.93496673 15.33158633 0.00401027 0.00621666 0.00180745
N 9.88378229 4.78707978 18.28387483 -0.00078956 -0.00982712 -0.00715470
N 11.50752285 2.17642875 15.26322537 0.00368269 -0.00245454 -0.00317611
N 7.92436580 0.93037709 18.26732891 0.00046612 0.00161095 -0.00975076
N 6.17473175 4.29128791 20.11197096 -0.00218593 0.00015050 -0.00243828
N 10.19689392 4.86786430 22.66012462 -0.00047612 0.00274195 0.00174038
N 11.56995046 2.02560091 19.94371348 0.00060512 0.00361501 -0.00420926
N 8.32804976 0.91787465 22.75750414 -0.00135883 -0.00318023 -0.00677998
N 7.44501036 9.45995797 0.73951465 -0.00097131 -0.00002499 -0.00424839
N 10.42193061 10.49709993 3.62721962 0.00724392 -0.00155379 -0.00094077
N 11.97074776 7.68120385 1.04814802 -0.00622114 -0.01239445 0.00327413
N 8.87109867 6.84137601 3.73078472 0.00116852 0.00142163 0.00192847
N 6.96109997 9.89478633 5.60543107 -0.00010072 -0.00345717 0.00141527
N 10.48047322 10.66413643 8.46380777 0.00283619 0.00633357 0.00725491
N 11.92863193 7.54620836 5.79490632 0.00435762 -0.00134628 -0.00546002
N 8.77322945 6.68813956 8.62389759 0.00370489 -0.00535939 0.00235969
N 6.85539013 9.65951814 10.49244565 -0.00036208 -0.01122157 0.00552704
N 10.52428804 10.83252169 13.24492809 0.00519540 0.00041598 -0.00228458
N 12.04818622 7.57678272 10.60454443 0.00264130 0.00739046 -0.00613330
N 8.58634659 6.59413696 13.09682523 0.00061967 -0.00032429 0.00111275
N 6.90352955 9.67016245 15.12717023 -0.00005842 -0.00723434 -0.00144148
N 10.56826944 10.62102631 17.87676125 -0.00230857 0.00047732 -0.00664843
N 11.78243943 7.78380716 15.32850358 0.00491863 -0.00255357 -0.00318956
N 8.73158086 6.84264687 18.06506673 0.00283493 0.00194815 -0.00038968
N 7.10403102 9.70175943 20.03115663 0.00276455 -0.00060064 0.00200194
N 10.27546166 10.75267839 22.61032451 0.00238202 -0.00445672 -0.00306271
N 12.26620043 7.31405153 19.84106811 -0.00185438 0.00849491 -0.00349676
N 8.87230672 6.78846631 22.79769351 -0.00061753 0.00125340 0.00779516
N 7.67196108 15.70671421 0.91011415 0.00287524 0.00190210 -0.00051158
N 10.11597299 17.97934289 3.69087249 -0.00182454 -0.00396749 0.00425643
N 11.32732275 14.25354898 0.86314931 -0.00618790 0.00046762 0.00030579
N 8.91117159 12.25091631 3.76512816 0.00282387 -0.00315556 -0.00328319
N 7.50609897 15.68542580 5.81577201 -0.00186091 -0.00703644 -0.00070933
N 10.56233210 17.97985689 8.55470933 -0.01466024 0.00294262 0.01101706
N 11.33440265 14.67775676 5.50009281 -0.00067219 -0.00404659 -0.01391977
N 8.79550016 12.14611179 8.48573158 0.00814991 0.00216939 0.00078887
N 7.72124230 15.58303841 10.63465401 -0.00424486 -0.00236010 0.00306316
N 10.76589001 17.93179127 13.27081316 -0.00530941 0.00460026 0.00076971
N 11.35919156 14.47719125 10.38991906 0.00219601 0.00728485 0.00072618
N 8.87381905 12.39483529 12.84121378 0.00601830 -0.00269135 0.00378716
N 7.64178373 15.59102771 15.20747922 0.00602466 -0.00215725 -0.00167615
N 10.31153750 17.92271536 18.02735498 0.00190944 -0.00837145 -0.00081954
N 11.41472122 14.43133453 15.08051737 -0.00421992 -0.00842032 0.00453088
N 8.96151924 12.14130661 17.71120385 0.01144435 -0.00117417 0.01042090
N 7.55179033 15.88371577 19.83951827 0.00266216 -0.00163970 -0.00149249
N 10.12715145 17.65233566 22.55707348 0.00461373 -0.00092959 -0.00854141
N 11.22320848 14.53794496 19.91943319 -0.00230381 0.00384709 -0.01252893
N 8.90887568 12.51498080 22.28080383 0.00838832 -0.00378705 -0.00408251
N 7.33435749 22.11126375 0.87971275 -0.00129865 0.00455564 0.00247404
N 9.64688186 24.58903793 3.95527760 -0.00019484 0.00195856 -0.00298171
N 10.41676392 21.55482980 0.98700241 0.00269227 0.00344998 0.00312400
N 8.02235660 18.87647224 4.02488121 0.00369316 -0.00222449 0.00504204