2000
Time=28000.00000000 pbc="T T T" Lattice="31.08130727 0.00000000 0.00000000 0.00000000 29.95851895 0.00000000 0.00000000 0.00000000 23.67075960" energy=-12042.46287167 virial="-12.20810673 -17.10609013 -8.22330226 -17.10609013 -17.60026363 8.42850190 -8.22330226 8.42850190 -43.75953608" stress="0.00149641 -0.00079865 -0.00036834 -0.00079865 0.00137017 0.00038178 -0.00036834 0.00038178 0.00069112" Properties=species:S:1:pos:R:3:vel:R:3
C 30.57595020 3.46122022 1.72516390 0.00400750 -0.00351218 -0.00040805
C 2.77069825 0.74119373 3.17761213 -0.00413021 0.00244758 0.00655483
C 30.34640866 3.69750189 6.52158188 0.00097720 0.00003326 0.00174357
C 2.38349623 0.60307973 7.82106615 0.00230323 -0.00577267 -0.00472999
C 30.55272877 3.76820942 11.34832561 -0.00670836 0.00349307 -0.00109381
C 2.60156887 0.75369530 12.55468684 0.00023524 0.00101475 0.00669459
C 30.47560648 3.57837066 15.98621230 -0.00043826 -0.00176709 0.00462716
C 2.52624785 0.41806515 17.22412686 0.00385203 -0.00220408 -0.00010093
C 30.51711588 3.43280115 20.68794449 -0.00288205 -0.00066549 -0.00048347
C 2.60768849 0.36702068 21.94854350 0.00206412 -0.00736282 -0.00712448
C 30.87578402 9.38410846 1.59718929 0.00242220 -0.00081287 -0.00303782
C 3.05934903 6.18366866 3.06580893 -0.00335829 -0.00122923 -0.00225903
C 30.69749492 9.21146881 6.26234704 -0.00062575 0.00006766 0.00282767
C 2.93851105 6.30192315 7.73534459 0.00500274 0.00254510 0.00155767
C 30.90844084 9.35736012 11.16303419 0.00021555 0.00419617 -0.00173613
C 2.80943736 6.16930129 12.42248078 -0.00274259 0.00223710 0.00045028
C 30.60921003 9.13595356 15.94930587 0.00151211 -0.00151709 0.00349668
C 2.91011430 6.08614366 17.31777594 -0.00212192 -0.00352187 0.00032199
C 30.32383347 9.24345758 20.51523640 -0.00046338 -0.00012898 -0.00112050
C 2.75597273 6.32005781 22.11076362 -0.00109514 0.00137855 -0.00037894
C 0.16763787 14.85696998 1.81290421 0.00049476 0.00737917 0.00359804
C 3.12143932 11.82869262 3.07557420 0.00161816 -0.00094788 0.00304060
C 0.08296983 14.84253376 6.39107514 0.00489141 -0.00423166 -0.00266591
C 3.41123490 11.81281195 7.75673313 -0.00275968 0.00406366 0.00209037
C 0.32416583 14.77409293 10.99897708 0.00250164 -0.00283092 0.00248817
C 3.28013382 11.80909551 12.52639350 0.00290998 0.00508292 -0.00109886
C 0.20603188 14.90695105 15.99254193 -0.00684365 -0.00104424 -0.00406138
C 3.03727287 11.66911193 17.44758727 -0.00539775 0.00561951 -0.00123547
C 0.23314124 15.14187666 20.91635954 -0.00321247 0.00014435 0.00145249
C 3.15132740 11.97628929 22.14087417 0.00046429 -0.00368220 -0.00477489
C 0.37285667 20.23839552 1.78036089 -0.00044621 0.00021940 -0.00101147
C 3.33699283 17.60365000 3.09000895 0.00456279 0.00204368 -0.00318395
C 0.37746814 20.64793890 6.37080924 -0.00384113 -0.00379144 -0.00228986
C 3.65347386 17.28448499 7.63740744 -0.00495109 -0.00081855 -0.00584640
C 0.74659992 20.50246260 11.19446854 -0.00084915 0.00178297 -0.00198291
C 4.02746483 17.66076355 12.42054424 0.00620868 0.00051246 0.00277043
C 0.52882773 20.34874965 15.90090518 0.00462373 -0.00261918 0.00309923
C 3.60701053 17.34486051 17.30203303 0.00010748 0.00161737 -0.00447118
C 0.74358858 20.65324403 20.60759769 0.00161030 0.00535393 0.00046449
C 3.66180310 17.33751244 22.02464188 -0.00354425 -0.00278227 -0.00227752
C 0.04391928 26.75915032 1.72871502 -0.00229082 -0.00185842 0.00095553
C 3.03982193 23.75158171 3.19222981 -0.00124025 0.00239365 0.00503820
C 30.81653476 27.02438381 6.27788705 -0.00073028 -0.00189186 -0.00586109
C 3.08570983 23.97157731 7.77254010 0.00936660 0.00294229 -0.00636147
C 0.24877768 26.86692220 11.32536064 0.01122835 0.00095481 0.00247466
C 2.90257257 23.88728791 12.57303803 0.00094463 -0.00151640 0.00456853
C 30.83695288 27.04000665 15.98095283 0.00095878 -0.00492240 -0.00038424
C 3.10016738 24.20755252 17.19624643 -0.00267119 0.00459014 0.00484298
C 0.16015987 26.87075979 20.91353952 0.00719608 -0.00320996 0.00102202
C 3.19420757 23.72961648 21.93303314 -0.00098803 -0.00346373 0.00612029
C 5.93605474 3.40113391 1.59968649 0.00416246 0.00358095 -0.00207116
C 9.19374203 0.07210687 3.22198568 0.00085693 0.00336591 0.00074323
C 6.03680247 3.15257748 6.56164243 0.00490145 0.00144463 -0.00134132
C 9.30986827 0.15157234 7.74365675 0.00013157 -0.00257042 -0.00145796
C 6.06586454 3.29781965 11.21838649 0.00029411 -0.00172872 -0.00701317
C 9.19875751 29.95222604 12.52048138 0.00247440 -0.00773692 -0.00113388
C 6.06642649 3.34679929 16.00758664 0.00430884 -0.00277812 -0.00161576
C 9.24362731 0.15787770 17.17767664 -0.00131283 -0.00336299 -0.00824603
C 6.26049384 3.09814394 20.71863883 -0.00083538 0.00160059 -0.00057062
C 8.96585097 0.12395626 21.98840229 0.00055970 0.01005938 -0.00124758
C 6.38606578 8.68500310 1.74216844 0.00079465 -0.00178234 0.00136361
C 9.66200420 5.58707893 3.03688517 0.00340066 -0.00052485 0.00250326
C 6.19468634 8.86633267 6.38426721 0.00085885 0.00007410 0.00905639
C 9.53219849 5.97838544 7.78666289 -0.00219265 -0.00380688 -0.00236535
C 6.34326705 8.77805607 11.33758239 0.00144783 -0.00364628 0.00276604
C 9.60592152 5.89093916 12.44620680 0.00382265 -0.00564077 -0.00439545
C 6.36326706 8.66290413 16.02606229 -0.00059084 -0.00671552 0.00423620
C 9.25792547 6.13335864 17.33510425 -0.00264604 -0.00246343 0.00200212
C 6.07235523 8.91834826 20.73025644 -0.00465735 -0.01169124 0.00239073
C 9.45619373 6.15089500 21.99320563 0.00083948 0.00347607 0.00221520
C 6.54589071 14.42699852 1.76214609 -0.00759905 0.00257249 0.00083937
C 9.82259163 11.37891231 3.03761459 -0.00882529 0.00144927 0.00233581
C 6.76871540 14.68702404 6.41652480 0.00409163 -0.00204951 -0.00090486
C 9.70509931 11.58114117 7.85769923 -0.00295919 0.00130239 -0.00479016
C 6.55770858 14.17047923 11.26618291 -0.00271339 -0.00080937 -0.00027172
C 9.99740292 11.35849774 12.43898970 0.00263546 0.00648174 -0.00118903
C 6.74589888 14.34434974 15.92303521 0.00839623 -0.00347734 -0.00049489
C 9.84082427 11.41320560 17.14247450 0.00113901 0.00042768 0.00381287
C 6.76223206 14.27285559 20.58072499 -0.00053581 0.00076834 -0.00337195
C 9.65153927 11.54184938 22.00278297 -0.00525299 0.00173298 -0.00170362
C 6.22667255 20.88266301 1.79613562 -0.00824877 -0.00460255 0.00244177
C 9.31691245 17.84940731 2.83219269 0.00155103 0.00801585 0.00164136
C 6.24589198 21.09754463 6.22262053 -0.00321360 -0.00492245 -0.00676352
C 9.32798901 17.73505058 7.65097133 -0.00297127 -0.00684418 0.00069696
C 6.21043634 20.84833295 11.07812332 0.00174845 -0.00035359 0.00710236
C 9.30402937 17.84582464 12.37495554 0.00135700 0.00588349 0.01409785
C 6.36977026 21.00008274 15.73873516 -0.00426234 -0.00407035 0.00111759
C 9.26613588 17.83151366 17.04793405 0.00447095 0.00294225 0.00345981
C 6.21337434 20.68020656 20.77885084 0.00542752 -0.00257404 -0.00117790
C 9.33638316 18.18298043 21.94794678 -0.00478295 0.00072862 -0.00274229
C 5.54973982 27.55182668 1.93491073 0.00396273 0.00142439 -0.00237590
C 8.71409709 24.63215979 2.92644101 0.00255274 -0.00745495 -0.00221036
C 5.55888026 27.55564397 6.60277442 -0.00876593 -0.00123425 0.00152729
C 8.72963692 24.48964332 7.54074303 -0.00292894 -0.00569496 0.00124705
C 5.79683082 27.52120831 11.24265059 -0.00069166 0.00538812 0.00329373
C 8.95914219 24.48436338 12.36347907 -0.00225245 0.00254280 -0.00365829
C 5.66734294 27.47197004 15.82488822 0.00753631 0.00038935 -0.00513133
C 8.81281790 24.60212260 17.14381761 0.00110762 -0.00150103 0.00345147
C 5.65407941 27.57864607 20.77517971 0.00090081 -0.00004833 0.00369420
C 8.45849016 24.38860201 21.95965675 -0.00375386 -0.00337212 -0.00051173
C 12.45917449 2.67923103 1.61413028 0.00161476 0.00164336 0.00364212
C 15.72409954 29.82204081 2.89857946 -0.00058719 -0.00247337 -0.00081715
C 12.69226503 2.96831436 6.38596959 0.00203509 0.00768938 -0.00778093
C 15.90473681 0.06473881 7.71242987 0.00475996 0.00202760 0.00175632
C 12.64789851 2.97184721 11.14383804 0.00120764 -0.00376112 0.00060902
C 15.90454563 29.84884188 12.41821302 0.00227118 -0.00571017 0.00795681
C 12.58044611 3.06637905 15.71950394 -0.00297012 -0.00016829 -0.00252303
C 15.76816845 0.15659586 17.32731149 -0.00467413 -0.00471101 -0.00002654
C 12.15547539 2.88626570 20.51222336 0.00691004 -0.00279657 -0.00674953
C 15.87828163 29.89481824 21.90641451 0.00515696 0.00167725 -0.00455856
C 12.95458279 8.42094977 1.65386753 -0.00341914 0.00385252 0.00402009
C 15.96631088 5.39732055 2.94194275 -0.01050619 -0.00472673 0.00217157
C 12.69399794 8.71490565 6.43407516 -0.00198361 -0.01118345 -0.00067484
C 16.36605266 5.56428199 7.61056176 0.00053520 -0.00094206 -0.00410705
C 13.11884712 8.51166020 11.09601588 0.00267576 -0.00136614 -0.00392707
C 16.51241518 5.55851784 12.62606979 0.00771591 0.00387434 0.00188817
C 13.13556599 8.13829491 15.76543996 -0.00677834 -0.00208618 -0.00083045
C 16.23818334 5.49449558 17.26643031 0.00218150 -0.00243834 -0.00098269
C 12.94405288 8.47353999 20.56831515 0.00100277 -0.00516310 -0.00681223
C 16.19653107 5.53761912 21.99820458 0.00450174 -0.00428302 -0.00838182
C 12.52567256 15.04024315 1.64175354 -0.00240642 0.00046024 -0.00137582
C 15.39328305 11.95807891 3.09821996 0.00008052 0.00494867 0.00553095
C 12.38091054 14.85626945 6.55730929 -0.00191832 -0.00441024 -0.00356176
C 15.78408447 12.14656041 7.70483197 0.01094511 0.00946462 -0.00603469
C 12.45049800 14.53352560 11.28003643 -0.00419778 -0.00209519 0.00333042
C 15.63913729 11.76410574 12.44253072 0.00529165 -0.00422846 -0.00346332
C 12.46525750 14.87902457 16.03145515 -0.00196903 0.00349963 0.00665771
C 15.83676579 11.83009853 17.22917564 -0.00584823 0.00327464 0.00100654
C 12.36822202 14.83835579 20.61185449 -0.00358925 -0.00205705 0.00315600
C 15.58869750 11.74109371 21.94671514 0.00150058 0.00466819 -0.00486922
C 11.71758884 21.66905211 1.64581143 0.00910041 -0.00123369 -0.00102501
C 14.97996025 18.41336448 3.05039577 -0.00422918 -0.00171037 -0.00033663
C 11.81241114 21.19493024 6.20523720 -0.00035917 -0.00003653 0.00069177
C 15.03488061 18.13066448 7.71586102 0.00032396 -0.01492439 -0.00064364
C 11.66871547 21.55039915 11.05628612 -0.00871193 0.00104817 0.00183000
C 15.13151705 18.63657858 12.29871390 0.00200220 0.00252855 -0.00091266
C 11.87638348 21.47624131 15.90691943 -0.00211938 0.00180387 -0.00369508
C 14.88624235 18.13970416 17.01465206 -0.00124262 0.00193966 -0.00696214
C 11.70221507 21.31931056 20.69846383 0.00274802 -0.00207227 -0.00180531
C 14.98372917 18.29052139 22.01865690 0.00871474 0.00328899 0.00035954
C 12.21264044 27.20434400 1.66768070 -0.00007240 0.00762114 -0.00867462
C 15.37651056 24.12470039 3.00470904 -0.00380306 0.00240011 0.00352021
C 12.43929697 27.14175223 6.30375409 0.00063360 0.00501241 -0.00286671
C 15.09329295 23.92472421 7.76944980 -0.00441244 -0.00484389 -0.00131102
C 12.23902206 27.22804910 11.16084160 0.00223975 -0.00140047 0.00073125
C 15.39103653 23.97214185 12.43852869 -0.00405616 0.00229446 -0.00041577
C 12.33401774 27.26850458 15.84750995 -0.00023726 0.00385105 -0.01186586
C 15.37567876 23.97749881 17.29397354 -0.00184734 -0.00193947 0.00113995
C 12.37238710 27.13113661 20.61111385 -0.00584452 -0.00246058 0.00067449
C 15.34163806 23.76403612 21.97328642 -0.00061290 0.00855388 0.00419224
C 19.12589462 2.44727866 1.64309249 -0.00093615 0.00086369 -0.00374823
C 22.19717585 29.49106655 2.85895825 -0.00013388 0.00064036 0.00067252
C 19.17360182 2.46536814 6.34185124 0.00112406 0.00365684 -0.00455008
C 22.42102600 29.28891550 7.73068889 0.00073852 -0.00351645 0.00024297
C 19.33005790 2.34611363 11.12973309 -0.00163433 -0.00005601 0.00018959
C 22.40420067 29.41446535 12.49245446 0.00111978 -0.00259032 -0.00342427
C 19.32144869 2.38969302 15.96225192 -0.00171935 -0.00028445 0.00318285
C 22.38900803 29.46313175 17.14674635 0.00085215 -0.00038775 -0.00018744
C 19.14658582 2.48128624 20.70728305 0.00266989 -0.00697538 0.00260502
C 22.23459029 29.44387465 21.88493034 0.00095455 0.00678961 -0.00167512
C 18.87927884 8.86416652 1.71808473 -0.00184499 0.00194026 0.00233596
C 22.09308283 5.95080916 3.10304556 -0.00169251 0.00575232 0.00278548
C 18.54916330 8.87309112 6.36051271 0.00146544 0.00000449 -0.00360582
C 22.02501690 5.99211239 7.62204443 0.00423424 -0.00395332 -0.00559429
C 18.80522472 9.03333695 10.97882712 -0.00119333 0.00157635 -0.00174770
C 21.91358517 5.92886607 12.39175592 -0.00640696 0.00046626 -0.00077586
C 18.57138469 9.00214733 15.90556758 0.00182976 0.00359521 -0.00331668
C 21.71068707 5.80384507 17.10860015 -0.00344318 0.00860669 -0.00139383
C 18.61211443 8.97484502 20.73169246 0.00800566 0.00001662 -0.00256703
C 21.74241775 6.03901728 21.93555545 -0.00057894 0.00680801 0.00047119
C 18.16415409 15.35537752 1.92163721 -0.00295532 0.00271132 -0.00114901
C 21.40978040 12.69019754 3.03731385 -0.00169109 -0.00121598 -0.00019715
C 18.04745482 15.76782294 6.55206023 0.00197782 -0.00033896 -0.00284619
C 21.36154431 12.78126610 7.75577301 -0.00030631 0.00331886 -0.00026081
C 17.93695772 15.47673486 11.09645222 0.00156325 0.00525021 0.00275430
C 21.20901491 12.51115321 12.45434165 0.00320022 -0.00554324 0.00290319
C 18.26142093 15.35646594 15.91555574 0.00283161 -0.00156011 0.00318653
C 21.30729993 12.30039073 17.18435161 0.00226982 0.00043885 -0.00442662
C 18.10940551 15.28922931 20.76303319 0.00460049 0.00019349 -0.00029990
C 21.40436926 12.54903437 21.97952498 0.00637503 0.00605410 -0.00616410
C 18.39096275 21.41164673 1.78566818 0.00377064 -0.00207450 -0.00339429
C 21.42291028 18.19563011 2.98735038 -0.00100207 0.00092121 0.00153443
C 18.56119013 21.07822156 6.60481365 -0.00926834 -0.01163574 0.00242265
C 21.54498969 18.12649942 7.73413807 0.00379197 -0.00264377 0.00220480
C 18.20114939 20.80814753 11.23614711 -0.00175163 -0.00703305 -0.00462114
C 21.68896757 18.14339852 12.33470772 -0.00129660 0.00074433 -0.00377420
C 18.68455504 21.32044026 15.93639628 0.00316238 -0.00180555 -0.00051113
C 21.51333844 18.24477701 17.18793519 0.00272574 -0.00029350 0.00036768
C 18.28109622 20.92131135 20.67816940 0.00286592 -0.00121889 -0.00550704
C 21.71008645 18.33093166 21.93052593 -0.00453318 0.00286051 0.00324267
C 18.73722143 26.68611047 1.63916665 0.00029227 0.00100433 0.00955330
C 21.92540098 23.77971767 2.97647769 -0.00565320 -0.00448721 -0.00023014
C 19.01399186 26.71544905 6.28783458 0.00682418 -0.00734816 0.00313311
C 22.10144553 23.76834476 7.92591200 -0.00142432 0.00279761 0.00022254
C 18.86617765 26.50290998 11.07724498 0.00111523 -0.00394743 0.00357604
C 22.05558943 23.73906537 12.53692959 -0.00641052 0.00052292 -0.00459466
C 18.74500463 26.79399312 16.09312423 0.00098824 0.00358088 -0.00466955
C 22.07100918 23.68055117 17.24712784 -0.00108910 -0.00121226 0.00055520
C 18.85229941 26.66106387 20.64582358 0.00093518 0.00232454 -0.00045022
C 21.80513847 23.92723690 21.94423393 0.00907727 -0.00116368 0.00623669
C 25.09915712 3.03964627 1.83914288 0.01346301 -0.00061748 0.00277716
C 27.98445715 29.82650070 3.21571282 0.00121469 -0.00702875 0.00398066
C 24.93895720 2.85036801 6.60978170 0.00096629 -0.00467163 0.00194374
C 28.03634730 29.64925205 7.88941682 0.00261758 0.00757827 0.00933806
C 25.08281475 3.11244490 11.22116272 -0.00920613 0.00473086 -0.00259735
C 28.18279662 0.20495018 12.44863192 -0.00060962 0.00347311 -0.00209632
C 25.00973372 3.12540688 16.12157975 -0.00206009 0.00315042 0.00199102
C 27.95831988 0.15760067 17.19244475 -0.00702018 -0.00361087 0.00194991
C 24.77220969 3.05519631 20.71183831 -0.00130512 0.00159028 -0.00331020
C 27.83625367 0.18353217 22.12222738 0.00097033 0.00748734 -0.00180131
C 24.26164992 9.71154461 1.70273503 0.00064829 -0.00036975 0.00714854
C 27.64841828 6.75148256 3.21135113 0.00115632 -0.00357220 0.00092557
C 24.18624598 9.46842332 6.39008676 -0.00255987 -0.00513646 -0.00088725
C 27.33265627 6.36037396 7.80856011 0.00546046 0.00859667 0.00316279
C 24.45033995 9.69046836 11.05347114 0.00498318 0.00220469 -0.00624277
C 27.40942476 6.29887855 12.59203935 0.00370715 -0.00055347 0.00402888
C 24.24319504 9.49807576 15.90876205 -0.00007852 0.00187746 -0.00271081
C 27.32121990 6.61553450 17.39642854 -0.00070138 0.00347976 -0.00726286
C 24.31318775 9.45519814 20.64592796 0.00052657 0.00006434 0.00581460
C 27.35148928 6.52144146 21.99054863 -0.00591261 -0.00414534 -0.01112890
C 24.65739835 15.31623107 1.83187279 -0.00082545 -0.00103712 0.00414322
C 27.55404087 12.14898993 2.93515249 0.00314178 -0.00135553 -0.00206305
C 24.50359188 15.20811411 6.38194014 -0.00197488 -0.00150628 -0.00262238
C 27.81056537 12.34640491 7.74267421 -0.00247726 0.00574296 -0.00162588
C 24.75545959 15.20046044 11.21042983 0.00365864 0.00025458 0.00144179
C 27.76574355 12.14986098 12.43152151 0.00283690 0.00200643 -0.00282991
C 24.61957245 15.17765621 15.97234332 0.00329828 -0.00382792 0.00264005
C 27.82561344 12.21343322 17.21271078 -0.00272004 -0.00320302 -0.00353092
C 24.61862480 15.30127194 20.64080375 -0.00306692 0.00008668 -0.00172721
C 27.62005372 12.19537648 21.95317816 -0.00175423 -0.00279126 -0.00102296
C 25.08540393 20.71068092 1.66156266 -0.00246975 -0.00468353 -0.00183059
C 28.04053079 17.83725287 3.12007683 0.00250959 -0.00268103 -0.00052515
C 25.11187723 20.80179874 6.36518877 -0.00399769 -0.00560027 0.00084143
C 27.92796435 17.85403731 7.81706810 -0.00990932 0.00069429 0.00612889
C 25.02995080 20.83462047 11.17995032 0.00714323 0.00564541 0.00093798
C 28.14205584 17.75842117 12.49455677 0.00224383 0.00480535 -0.00331940
C 25.29130090 20.89091398 15.78692662 0.00616653 0.00587865 -0.00957477
C 28.24011435 17.87831426 17.22873967 -0.00052940 0.00487789 0.00689830
C 25.05342775 20.96321140 20.48647846 0.00492300 0.00148282 -0.00075047
C 28.26120328 18.21665302 21.89441430 0.00341043 0.00199459 -0.00649420
C 25.23237309 26.47410669 1.78374364 0.00739829 -0.00117938 -0.00079244
C 28.31671139 23.42075126 2.94251222 0.00057968 0.00048153 -0.00387355
C 25.39174623 26.31699032 6.30910146 0.00414966 -0.00621014 -0.00278942
C 28.51089142 23.29041697 7.72049022 0.00368202 -0.00172500 0.00396220
C 25.45364149 26.55012783 11.06425358 -0.00255524 0.00132541 -0.00024369
C 28.62485563 23.34869246 12.48897366 -0.00475536 0.00717417 0.00395638
C 25.59918437 26.45077390 15.75078570 0.00070571 -0.00627180 -0.00613232
C 28.76335984 23.66508163 17.39143879 0.00425595 0.00557886 -0.00449756
C 25.68217928 26.50453198 20.52976909 -0.00107781 0.00937356 0.00196911
C 28.65922267 23.32833109 22.04732733 -0.00274820 0.00475197 0.00306698
N 0.31485545 4.27190218 1.01802908 0.00702636 -0.00303393 0.00845222
N 3.50013953 5.14702488 3.87493728 0.00087007 -0.00063678 0.00603742
N 5.14119693 2.49423619 0.90718768 0.00002005 -0.00414312 -0.00502051
N 1.85032470 1.38365904 3.84845401 -0.00241480 0.00269010 0.00812290
N 30.95869745 4.58010153 5.70085327 -0.00271046 0.00063883 0.00055853
N 3.52040691 5.41646841 8.50675174 0.00361474 0.00577895 -0.00244909
N 5.11634168 2.34435747 5.95250755 0.00146954 -0.00129903 0.00428040
N 1.82035085 1.48733844 8.65113029 0.01100953 -0.00291928 -0.00092694
N 0.13732359 4.56114115 10.47700912 0.00202044 0.00504526 -0.00209517
N 3.64639413 5.32630673 13.17334947 0.00392019 -0.00629241 0.00290435
N 5.31707465 2.43000309 10.49304543 -0.00483090 -0.00253756 0.00142384
N 1.76770646 1.55856098 13.30785006 0.00336521 -0.00566107 -0.00074861
N 0.23589468 4.34538470 15.27125753 0.00140652 -0.00075629 0.00039232
N 3.60737609 5.12173285 18.04026979 0.00011501 0.00541492 -0.00101759
N 5.31995412 2.47292346 15.28466086 -0.00303761 0.00102428 0.00618371
N 1.40094131 0.95889579 17.70980641 -0.00020028 -0.00240202 -0.00211041
N 0.38729388 4.07346965 19.92926887 -0.00146441 0.00170202 0.00230241
N 3.41452088 5.36302346 22.79354941 -0.00609667 -0.00523627 0.00390014
N 5.47731744 2.12947518 20.13177190 0.00255174 -0.00117185 -0.00428438
N 1.90420353 1.29701958 22.66803538 -0.00175525 0.00319128 -0.00865118
N 0.30019888 10.24569476 0.69610404 -0.00124807 0.00058893 0.00220477
N 3.89905166 10.94793909 3.62415808 0.00282263 -0.00517987 -0.00507609
N 5.56351997 7.86441217 1.05606354 -0.00208778 -0.00116966 -0.00199967
N 2.15758849 7.00894220 3.63294709 0.00163553 0.00298545 -0.00188563
N 0.14733730 10.19109005 5.51625649 0.00205279 -0.00353639 -0.00574265
N 4.05572906 10.84919067 8.48088192 -0.00614525 0.00135000 -0.00249614
N 5.44842187 8.01570832 5.63843795 -0.00511831 0.00368893 -0.00534590
N 2.29934352 7.32957172 8.31140180 0.00211375 0.00559313 -0.00377716
N 0.59632085 10.25052569 10.44629936 -0.00043123 -0.00147471 -0.00521987
N 3.81283691 10.83334443 13.33239124 -0.00005943 0.00339691 -0.00315755
N 5.60316098 8.06707760 10.40199482 -0.00126642 -0.00292436 -0.00504324
N 2.27423808 7.16944675 13.11148452 -0.00221810 0.00015891 -0.00191617
N 0.33905498 10.06497753 15.33456415 0.00124040 0.00381419 0.00419537
N 3.55518191 10.68560081 18.21123090 0.00659432 -0.00487561 0.00003779
N 5.60199837 7.78123225 15.34885004 0.00032663 0.00143076 -0.00261713
N 2.12116574 6.84992741 18.05185164 -0.00027969 -0.00535000 0.00054583
N 0.04465034 10.05486316 19.80707729 0.00274099 0.00716546 0.00539402
N 3.59674892 10.90909119 22.90638628 -0.00674230 0.00628455 -0.00554236
N 5.38278335 7.99788518 19.87448508 -0.00158894 0.00034269 -0.00505344
N 2.10164421 7.23529823 22.89873721 0.00124484 0.00741559 0.00003783
N 0.94299737 15.75326429 1.21480285 -0.00518336 0.00620433 0.00116458
N 4.26885869 16.77406932 3.69731036 0.00104209 -0.00346491 -0.00543103
N 5.75716316 13.65705961 0.93278186 -0.00181195 -0.00054239 0.00280045
N 2.39125785 12.65553009 3.90074013 -0.00334688 0.00418864 0.00482707
N 0.96954766 15.55977445 5.62248973 0.00001134 -0.00041886 -0.00132501
N 4.45700795 16.62153708 8.50128756 -0.00354048 -0.00330711 0.00058330
N 6.01565032 13.72220076 5.90357444 -0.00008936 -0.00108741 -0.00404180
N 2.65661190 12.66401067 8.55226043 0.00130960 -0.00377572 -0.00518028
N 1.08362233 15.71526489 10.38966553 0.00338448 -0.00345904 -0.00404900
N 4.77128381 16.76876464 13.15886771 -0.00160366 -0.00267974 0.00207161
N 5.76345158 13.49979746 10.43822879 0.00202558 0.00027086 0.00672782
N 2.69105992 12.87454693 13.16634370 0.00283921 -0.00167288 0.00706983
N 0.98082393 15.66835763 15.15859775 0.00048882 0.00571056 -0.00371992
N 4.32374224 16.50497688 18.15526054 0.00101971 0.00300007 0.00295700
N 5.73195203 13.61566722 15.40959475 -0.00729499 -0.00248091 0.00720916
N 2.35779362 12.71529742 18.04242733 0.00104436 -0.00272077 -0.00374763
N 0.97881232 15.74019822 20.01547926 0.00249837 -0.00035861 0.00420712
N 4.36733996 16.58100044 22.84909192 0.00110888 0.00337706 0.00279662
N 6.01408270 13.45411475 19.81852181 -0.00233285 -0.00587179 0.00507417
N 2.74500980 13.07726393 22.79772499 0.00445350 0.00511040 -0.00029880
N 1.33700752 20.84605443 1.02240781 0.00128788 -0.00020520 -0.00217870
N 4.15170636 23.34707544 3.88300108 0.00478231 0.00150187 0.00753526
N 5.47414968 20.01924471 1.06375712 0.00035949 0.00293685 -0.00056254
N 2.36716674 18.19038881 3.85653261 -0.00209519 0.00048413 0.00233932
N 1.20003321 21.53685867 5.74912914 -0.00045989 -0.00774110 -0.00120263
N 3.99564037 23.27228663 8.55874924 0.00164507 0.00367683 0.00343392
N 5.37390876 20.22307997 5.65825116 -0.00584621 -0.00131465 0.00319356
N 2.80006152 18.12812282 8.29379726 -0.00426711 0.00041429 0.00419059
N 1.44284303 21.27684621 10.30028239 -0.00190676 -0.00611897 0.00201952
N 3.91198300 23.21610931 13.14535228 0.00647047 0.00487661 -0.00146796
N 5.54031023 20.16737983 10.10329318 0.00303676 0.01008434 0.00231281
N 3.14542445 18.42285458 13.14269440 -0.00216198 0.00270916 0.00175567
N 1.17418709 21.34098615 15.21309608 -0.00891871 -0.00422928 0.00090016
N 3.97788567 23.37344238 17.82067785 -0.00231844 -0.00237177 -0.00631624
N 5.46764138 20.37722238 14.93990774 -0.00877624 -0.00264740 -0.00211691
N 2.68359324 18.16550388 17.98004781 -0.00019676 0.00022956 0.00264839
N 1.71303275 21.26484431 19.87455361 -0.00149829 -0.00280239 -0.00770450
N 4.09760641 23.05398390 22.71296221 0.00839664 0.00455550 -0.00545498
N 5.38591097 19.99088230 19.97802070 0.00246483 -0.00441552 0.00747493
N 2.77114808 18.15593089 22.71411981 -0.00420693 0.00466286 -0.00029336
N 0.84138831 27.66063854 1.06509203 -0.00151217 -0.00743853 -0.00270004
N 3.50305196 29.81944077 3.88440443 0.00027912 0.00025280 0.00372994
N 4.93538400 26.59564817 1.29005719 0.00247085 -0.00193459 0.00477294
N 2.12333231 24.45985789 3.86820165 -0.00371383 -0.00220374 -0.00183105
N 0.61129331 27.92352263 5.64429348 0.00093944 0.00314135 -0.00017401
N 3.26971394 29.64802019 8.41559480 0.00010445 0.00344123 0.00059184
N 4.79817924 26.85071491 5.80065414 -0.00265266 0.00298668 0.00609840
N 2.11456223 24.52221305 8.46170903 0.00570315 -0.00104741 -0.00054217
N 0.99989204 27.71064807 10.50584933 -0.00163543 0.00710548 -0.00344584
N 3.31585994 29.87057018 13.26609240 -0.00358858 -0.00009879 -0.00115453
N 4.95532245 26.55564784 10.65678415 0.00581143 -0.00480629 0.00133136
N 2.04665937 24.60918708 13.36408913 0.00442234 0.00442910 0.00044815
N 0.69425521 27.76303326 15.34054351 -0.00763482 0.00718168 0.00211099
N 3.26757592 29.74715531 18.12167413 0.00483472 0.00067157 0.00089451
N 4.76518415 26.66321141 15.12642950 0.00319370 0.00065297 -0.00364726
N 2.17710563 24.77903165 18.06728708 0.00592475 -0.00400334 0.00303820
N 0.95956914 27.79483797 20.23742921 0.00050087 0.00385182 -0.00327787
N 3.46980513 29.60807855 22.68101914 0.00040565 0.00001065 0.00180010
N 4.95595628 26.66950822 20.08609634 -0.00329272 -0.00334927 -0.00041955
N 2.10511796 24.20510840 22.64248024 0.00482878 0.00051677 -0.00137059
N 6.82919545 4.12801644 0.89482958 -0.00600729 -0.00227479 -0.00042097
N 10.01094158 4.51315151 3.74449168 -0.00128193 0.00352113 -0.00104468
N 11.70334238 1.81162124 0.86333859 -0.00084968 0.00101351 0.00305149
N 8.54715106 1.07142746 3.85854977 0.00302962 -0.00206439 0.00046277
N 6.58996392 4.22103487 5.91426832 0.00067013 0.00502171 -0.00205280
N 10.02223372 4.93851240 8.50194912 0.00080683 0.00109164 0.00614303
N 12.04965474 1.94962936 5.70503841 0.00170364 0.00479567 -0.00083041
N 8.72279787 1.07743851 8.51413712 0.00487832 -0.00467447 0.00341154
N 6.80697540 4.08834590 10.40449320 0.00169255 -0.00013710 -0.00363199
N 10.17334273 4.91772258 13.09851974 -0.00247918 -0.00102030 -0.00319126
N 11.85006589 2.10478758 10.44296473 0.00138435 -0.00351151 0.00200155
N 8.46000825 1.04402019 13.02353961 0.00004542 -0.01074321 -0.00000975
N 6.78462595 4.17089178 15.27883707 0.00205789 -0.00238257 0.00139489
N 9.99535660 5.07540941 17.83398040 -0.00266403 -0.00341513 0.00441367
N 11.82656248 2.25321585 14.97565382 0.00093187 0.00453542 -0.00586618
N 8.34897358 0.93659032 17.90625404 -0.00090492 0.00334526 -0.00444655
N 6.90839436 3.95861929 19.88163550 0.00358361 0.00069384 -0.00451340
N 9.95565844 5.15982805 22.67155673 0.00737253 -0.00054651 -0.00193284
N 11.59907000 1.87032976 19.78020301 0.00289262 0.00292414 0.00168293
N 8.34744947 1.03408673 22.79775539 0.00165942 0.00271526 -0.00290743
N 7.08036707 9.58217157 1.05070662 0.00355147 0.00271518 0.00237543
N 10.67215335 10.73655915 3.85752115 0.00015546 0.00419989 -0.00602461
N 12.11940295 7.57168487 0.97715867 -0.00028779 -0.00121693 -0.00221542
N 8.98963529 6.57532473 3.75117740 0.00160587 -0.00517224 -0.00094911
N 7.08035246 9.63479596 5.72157932 -0.00223820 -0.00039433 0.00055291
N 10.34122913 10.58381669 8.55838876 0.00070616 -0.00072112 -0.00490745
N 11.98170601 7.67600206 5.78522588 0.00467589 -0.00192753 -0.00227222
N 8.98727136 6.97259212 8.49583384 -0.00183928 -0.00072804 -0.00419863
N 7.16069962 9.67172553 10.72948862 0.00119228 0.00861240 0.00066707
N 10.75462974 10.52723045 13.17134688 0.00075164 -0.00023324 -0.00207873
N 12.28048480 7.66589063 10.50368811 0.00424800 0.00478946 0.00132049
N 8.94185949 6.82258859 13.30692978 0.00219605 -0.00615442 0.00087744
N 7.08957019 9.52257967 15.32501284 -0.00035131 0.00629541 -0.00001951
N 10.90852613 10.74151001 17.74672640 0.00093692 -0.00376288 0.00020113
N 12.21414420 7.33081328 15.11386732 0.00711538 0.00062671 0.00489787
N 8.74055766 6.97060296 18.27632127 -0.00504295 0.00322005 -0.00505363
N 6.84866948 9.79962322 20.06549566 -0.00253937 -0.00207512 0.00095880
N 10.46639572 10.80695632 22.70561986 -0.00220854 -0.00028939 0.00290925
N 12.10146463 7.51673556 19.98394221 -0.00375408 -0.00245739 -0.00204246
N 8.77440611 7.08420575 22.65910500 -0.00272950 -0.00409948 0.00437327
N 7.38187584 15.35618864 1.15114327 -0.00289623 -0.00125720 -0.00940767
N 10.49314211 17.53301907 3.46739926 0.00171343 -0.00067352 -0.00252135
N 11.63089935 14.31227546 0.90091006 0.00297954 0.00022183 0.00714324
N 9.01255392 12.29179259 3.63474150 -0.00346978 -0.00486154 -0.00071822
N 7.46114944 15.42552876 5.52240474 -0.00467816 -0.00625517 0.00526014
N 10.23238868 16.96281871 8.30825562 0.00166361 0.00459583 0.00089891
N 11.57370696 13.96642093 5.83376369 -0.00023208 -0.00316980 0.00417793
N 8.98400117 12.48207853 8.63779963 0.00162964 0.00415023 0.00419013
N 7.37585955 15.07254777 10.63177146 0.00021034 -0.00496353 -0.00553849
N 10.27465101 17.51676134 13.19452079 -0.00352971 0.00384300 -0.00661212
N 11.58273624 13.89381948 10.35807911 -0.00032835 0.00091226 -0.00091662
N 9.05477011 12.03114735 13.18538941 -0.00448528 0.00003523 0.00994020
N 7.53233133 14.99984954 15.05752454 0.00121613 -0.00114305 -0.00552247
N 10.31437784 17.26631347 17.76681489 0.00152449 0.00201086 -0.00588857
N 11.57160594 14.02308682 15.35086562 0.00616499 -0.00072118 0.00378337
N 8.92888140 11.89793044 17.97043337 -0.00470900 0.00468821 0.00334174
N 7.58977442 15.13560250 19.89915832 -0.00357233 0.00346301 -0.00268780
N 10.28983632 17.48631007 22.60242443 0.00012282 0.00453458 -0.00120072
N 11.66870271 13.84408353 20.00774352 -0.00532301 -0.00391237 0.00232467
N 8.68928228 12.19512535 22.63390753 0.00063814 -0.00781058 -0.00820094
N 7.01851841 21.72453347 1.00874431 0.00061713 0.00663383 -0.00253310
N 9.51517531 23.76149417 3.65160438 0.00058711 -0.00205656 0.00129136
N 10.95450629 20.74905033 0.99752592 -0.00159225 -0.00071682 -0.00327352
N 8.39222978 18.35916608 3.65128887 0.00313083 -0.00191906 0.00386878
N 7.23993957 21.61664310 5.52016474 -0.00355832 -0.00164774 0.00818626