2000
Time=48000.00000003 pbc="T T T" Lattice="31.18654984 0.00000000 0.00000000 0.00000000 29.91642332 0.00000000 0.00000000 0.00000000 23.72729252" energy=-12042.76107860 virial="-76.39354833 11.66729746 27.25381378 11.66729746 -58.84655334 2.46520341 27.25381378 2.46520341 -13.76894899" stress="-0.00132537 0.00055831 0.00119023 0.00055831 -0.00054493 0.00008568 0.00119023 0.00008568 0.00202889" Properties=species:S:1:pos:R:3:vel:R:3
C 30.52528578 3.33981480 1.71905015 0.00298973 -0.00067776 -0.00292752
C 2.51850218 0.36202937 3.17200287 -0.00775480 -0.00295801 -0.00775167
C 30.30247596 3.44625223 6.47252217 0.00134151 0.00013909 0.00216475
C 2.55025578 0.50268491 7.69071830 0.00908031 -0.00385914 0.00250377
C 30.42496063 3.61766334 11.18351717 -0.00907067 -0.00216767 0.00113245
C 2.58798854 0.40877830 12.52016800 0.00259940 0.00225654 0.00143061
C 30.45926822 3.52733314 15.87668746 0.00005347 0.00483576 -0.00107429
C 2.66727084 0.47615954 17.36472412 -0.00555257 0.00364627 -0.00494954
C 30.72189644 3.27702661 20.65820004 -0.00337702 0.00255681 -0.00158371
C 2.59654174 0.46889127 22.00711246 -0.00138612 -0.00137064 0.00457418
C 30.70343428 9.31670707 1.63112555 -0.00099920 -0.00199175 -0.00313859
C 2.72839315 5.90085425 3.06004839 -0.00154944 -0.00180582 0.00196730
C 31.08175837 9.13741844 6.33843452 0.00422429 0.00684830 0.00144496
C 2.70874254 6.19044351 7.74210711 -0.00189906 0.00045195 0.00453497
C 31.03743446 9.15275373 11.37010524 -0.00334213 0.00224229 0.00574063
C 2.81116391 6.02683592 12.56190516 -0.00663230 -0.00232856 -0.00646859
C 0.04239068 9.14598443 16.04705267 0.00407747 -0.00548305 0.00221161
C 2.97981649 6.32051097 17.24219758 0.00026551 0.00316265 0.00070120
C 31.04120604 8.86491013 20.68475468 -0.00130533 0.00067383 -0.00435036
C 2.92139693 5.95258541 22.12650530 -0.00227340 -0.00025061 -0.00025329
C 0.16469501 14.78109444 1.80133058 0.00059043 -0.00641506 0.00211272
C 3.50385639 11.81074883 3.20562794 0.00402964 -0.00236353 0.00043621
C 0.26253392 14.87230122 6.40244804 0.00586387 -0.00289975 -0.00636949
C 3.31665416 11.89323418 7.90457302 0.00488521 0.00382886 -0.00137605
C 0.25031296 14.76872796 11.23050090 -0.00540205 -0.00252019 0.00106324
C 3.44932175 11.62454582 12.50364708 -0.00569535 0.00121276 -0.00286423
C 0.36687512 14.89629838 16.04120653 -0.00093881 0.00719286 -0.00207830
C 3.27696740 11.64476650 17.32748660 -0.01147215 -0.01121272 -0.00391920
C 0.12108952 14.76453864 20.81132189 -0.00244034 -0.00635341 -0.00397910
C 3.38743233 11.85848270 22.11703624 -0.00065343 0.00364746 0.00066211
C 0.80342389 20.40044849 1.70452371 -0.00386128 0.00529171 -0.00192730
C 3.75920874 17.39710432 3.05528347 -0.00050072 0.00099118 -0.00098226
C 0.68208426 20.47506797 6.43302064 0.00117820 0.00341956 0.00888273
C 3.68171849 17.55936940 7.80394908 0.00383497 0.00464908 -0.00127083
C 0.55537337 20.58162789 11.17055461 0.00114953 -0.00308216 -0.00830383
C 3.67150945 17.47696270 12.41668599 -0.00765280 -0.00291596 -0.00641600
C 0.67950511 20.46407297 16.14053436 0.00637974 -0.00292127 0.00126686
C 3.84201000 17.53194180 17.36518724 -0.00000590 0.00288816 0.00287663
C 0.77992660 20.21230432 20.63494236 0.00047851 -0.00018077 -0.00021988
C 3.64925259 17.40233475 22.02361079 -0.00311014 0.00663445 -0.00098628
C 0.01459737 26.56450549 1.79601682 -0.00656046 -0.00506344 -0.00185671
C 2.88190262 24.08386573 3.06905402 0.00931711 0.00190887 0.00426747
C 0.14712926 27.06033392 6.81761857 -0.00735272 -0.00177519 0.01032474
C 3.34279731 24.24953180 7.85027735 0.00237422 -0.00183039 0.00259440
C 0.06476778 26.94634195 11.29238119 -0.00409637 0.00223543 0.00394632
C 3.09221428 23.75924892 12.52044075 0.00314931 -0.00711419 -0.00172242
C 0.06484245 26.59021618 16.07483770 -0.00409265 -0.00910863 0.00015179
C 3.00991974 23.97541574 17.17656490 0.00564390 -0.00510546 -0.00312698
C 0.01401412 26.75490986 20.76841173 0.01012186 0.00324458 -0.00007939
C 3.23932247 23.84540889 22.11602610 -0.00432114 0.00040859 -0.00036001
C 6.03042020 3.15763636 1.74361054 -0.00825112 0.00145941 0.00214311
C 9.10690734 0.42405992 2.98847390 0.00778276 0.00336923 -0.00141285
C 5.95671375 3.39292649 6.60216276 0.00729931 0.00370742 0.00291686
C 9.13477700 0.14599390 7.56261296 0.00278858 0.00322591 -0.00485158
C 6.33887448 3.12928737 11.15110817 0.00392540 0.00038009 -0.00248351
C 9.32343578 0.38852446 12.64568692 -0.00213290 -0.00457777 -0.00252044
C 6.01122964 3.25344228 15.92250337 0.00390882 -0.00320352 0.00864375
C 9.16345720 0.15686419 17.25581650 0.00532914 -0.00916429 -0.00237030
C 5.90262734 3.27017967 20.62506410 -0.00499147 -0.00609626 0.00637892
C 8.98208699 0.17361683 21.93106052 0.00414279 0.00541787 -0.00068914
C 6.51234944 8.55456353 1.84165787 0.00191429 -0.00645324 -0.00275408
C 9.89049891 5.67391732 2.94678141 0.00134385 -0.00441298 -0.00239178
C 6.32871685 8.58551952 6.57939959 0.00408798 -0.00024784 -0.00306505
C 9.58711571 5.91389800 7.73473542 -0.00582482 -0.00066438 0.00609481
C 6.09313059 8.54368521 11.22364290 0.00033330 0.00038972 -0.00080705
C 9.58520334 5.74051210 12.42710830 -0.00041665 0.00038892 0.00334378
C 6.52019555 8.76916464 16.04133054 -0.00287308 0.00034754 -0.00555002
C 9.57053051 5.81731877 17.25455887 -0.00494805 0.00050478 0.00056965
C 6.42916187 8.84737949 20.87949996 0.00927245 0.00393954 -0.00141224
C 9.59388753 5.79431134 21.96579250 -0.00164363 -0.00144033 -0.00021958
C 6.84835579 14.11202582 1.79971984 -0.00331935 0.00098253 0.00062041
C 9.62826013 11.26125737 3.11012770 0.00079847 0.00127832 0.00335852
C 6.87650096 14.31681680 6.77616786 -0.00231587 -0.00466266 -0.00025280
C 9.84200116 11.34015448 7.71109038 -0.00670577 0.00452324 0.00120955
C 6.92428592 14.54275305 11.29695286 0.00376159 -0.00359595 -0.00231219
C 9.88575918 11.36917190 12.49416129 0.00236475 -0.00106504 0.00412966
C 6.90387421 14.44985914 15.99764884 0.00167680 -0.00385294 -0.00314439
C 9.80314287 11.36640153 17.15922107 0.00505852 -0.00311975 0.00911564
C 6.67032478 14.51678972 20.61933692 -0.00148530 -0.00929329 -0.00436886
C 9.82188743 11.26947444 21.98214662 0.00173517 0.00666913 0.00457571
C 6.31108811 20.76880357 1.62834309 0.00332428 0.00750536 -0.00156611
C 9.17045697 17.82506279 2.95440396 0.00018829 0.00168677 -0.00376481
C 6.13683291 21.19979699 6.35148140 0.00110714 0.00395588 -0.00475742
C 9.48635568 17.84641888 7.67799182 -0.00354037 0.00311194 -0.00594410
C 6.18310688 21.12799043 11.23868819 -0.00360772 -0.00047247 0.00128695
C 9.31539994 17.96884201 12.35460218 -0.00334134 -0.00155100 -0.00098855
C 6.26347330 20.92230026 15.90700607 0.00503940 -0.00667873 0.00181749
C 9.48748981 18.09419076 17.35961227 -0.00058601 -0.00615794 0.00016702
C 6.15313465 20.82884043 20.65701442 0.00886688 -0.00456859 0.00402415
C 9.26708926 17.85830390 21.97255162 -0.00082821 -0.00081953 0.00751530
C 5.61196436 27.76087407 2.00830280 0.00411857 0.00496926 -0.00294654
C 8.85001247 24.60222776 2.81706246 0.00037141 0.00100294 -0.00229268
C 5.53226613 27.67388911 6.48875694 0.00562112 -0.00032276 0.00001508
C 8.66395117 24.64753195 7.68068118 -0.00346504 0.00262851 0.00008293
C 5.69133581 27.64992137 11.29403554 0.00358694 -0.00676367 -0.00519245
C 8.86296561 24.56890466 12.48337312 -0.00365897 0.00132555 0.00106117
C 5.62770608 27.59219288 16.10083288 -0.00060669 -0.00571188 0.00004350
C 8.99944293 24.54820129 17.16470231 -0.00322490 -0.00675079 0.00191394
C 5.63910184 27.47668576 20.72971929 0.00436579 -0.00345622 0.00447553
C 8.58002009 24.55690829 21.87946501 -0.00377901 0.00015303 0.00073446
C 12.65164396 2.88560288 1.55762464 0.00541557 -0.00396066 -0.00000721
C 15.91429969 29.86010209 3.05598405 0.00281832 -0.00055149 -0.00129341
C 12.78511747 2.50402999 6.36962894 -0.00420323 -0.00077028 0.00054754
C 15.91631203 0.00590572 7.73006763 0.00718881 0.00464635 0.00317505
C 12.75354651 2.79681613 11.29539838 0.00148994 0.00611805 -0.00269563
C 16.14620663 29.65588394 12.41037803 -0.00151323 0.00067111 -0.00185172
C 12.86590087 2.77726348 16.04457042 0.00481324 0.00267320 0.00148166
C 16.36120671 29.72526546 17.32512507 -0.00097430 -0.00387355 -0.00006268
C 12.80457999 2.67491875 20.68382878 -0.00165755 -0.00078736 0.00273365
C 15.82574639 29.62233953 22.09339444 -0.00084111 0.00271971 0.00657365
C 13.09411536 8.51470144 1.72876315 0.00179807 -0.00343247 -0.00093398
C 16.25632678 5.65677266 2.95156618 0.00341612 0.00528182 0.00078949
C 13.08375437 8.41180752 6.53792365 0.00347645 -0.00591064 0.00952972
C 16.12847684 5.48343459 7.67748391 -0.00064305 -0.00791104 0.00021975
C 12.90801730 8.67878913 11.25787640 0.00089158 0.00099941 -0.00341690
C 16.41478907 5.71463560 12.42078065 -0.00586242 -0.00002296 0.00408351
C 13.09113884 8.45335067 15.85925564 -0.00469318 0.00783006 -0.00481186
C 16.16356205 5.30505658 17.12639378 -0.00497439 0.00450782 0.00631505
C 13.22153701 8.64675136 20.71382832 0.00465767 0.00081664 0.00270099
C 16.08526634 5.66295655 21.86091295 0.00142202 -0.00039019 0.00396785
C 12.30889646 14.64353486 1.60142413 -0.00161830 -0.00039557 -0.00403203
C 15.74623377 11.98577860 3.00149968 0.00268779 0.00627493 -0.01002341
C 12.17758069 15.04644307 6.36439788 0.00230730 -0.00049560 -0.00333376
C 15.55171717 11.87826891 7.75635179 0.00387906 -0.00171364 -0.00087062
C 12.49056833 14.88779359 11.26456269 0.00203933 0.00938606 0.00398783
C 15.71619351 12.10194777 12.46808704 -0.00055727 0.00271907 -0.00029851
C 12.65016198 14.93544486 16.03353794 -0.00425069 0.00467990 0.00529294
C 15.59693677 11.85777925 17.28999915 -0.00377439 0.00209882 -0.00299531
C 12.52489773 14.80837017 20.57410843 -0.00328368 -0.00190180 0.00663244
C 15.57926350 11.99637297 22.12909235 -0.00385400 0.00235100 0.00153613
C 11.63803055 21.40357297 1.77016553 0.00657777 -0.00548561 0.00586589
C 14.78191982 18.39966297 2.92233730 -0.00417382 -0.00006746 0.00417021
C 11.87738501 21.46661137 6.52333262 -0.00558633 0.00156921 -0.00533580
C 14.92150313 18.22485184 7.74563293 -0.00704414 -0.00452129 0.00443952
C 11.59395514 21.51008325 11.14460838 -0.00844546 0.00152055 0.00120058
C 15.03256809 18.87029754 12.49961223 -0.00544126 -0.00155219 0.00711945
C 11.87446347 21.53060373 16.09380176 -0.00158267 -0.00107264 -0.00404484
C 15.02247835 18.56379858 17.28224980 0.00115227 -0.00219977 -0.00378397
C 11.74687831 21.55168278 20.75944307 0.00180188 -0.00276125 0.00047276
C 14.84179348 18.34728131 21.99703874 0.00175742 -0.00920640 0.00078772
C 12.28750196 26.98356777 1.65310211 0.00331552 0.00332373 -0.00544060
C 15.35400014 24.14779490 3.11992763 -0.00049628 -0.00379349 -0.00755966
C 12.20509116 27.33019714 6.36879103 -0.00007733 -0.00117807 -0.00704844
C 15.15127618 24.46034498 7.87123453 -0.00145755 -0.00322180 -0.00190318
C 12.31379345 27.22943562 11.30159801 0.00111645 -0.00550075 0.00180064
C 15.44610289 24.38269146 12.58489112 -0.00665746 0.00264108 0.00101757
C 12.33374553 27.22910116 15.93104659 -0.00027529 0.00382285 -0.00362787
C 15.39532826 23.94807978 17.12966489 0.00032435 0.00372016 -0.00755048
C 12.33000616 27.21937050 20.78265292 -0.00155932 -0.00541156 -0.00443996
C 15.32083181 23.99301647 22.01706685 0.00027141 -0.00312488 -0.00780191
C 19.25045214 2.48135493 1.54443542 0.00139553 0.00547105 -0.00887803
C 22.28841162 29.33421943 3.16592397 -0.00002321 -0.00532664 -0.00328103
C 19.16168192 2.54956828 6.29979430 -0.00119652 0.00923573 0.00249967
C 22.28962696 29.64790716 7.61948229 0.00070141 0.00512123 0.00276634
C 19.22207761 2.50378829 11.04944127 0.00379213 -0.00268926 -0.00062354
C 22.18864037 29.71179420 12.29561428 0.00376799 0.00094226 0.00015691
C 19.24307630 2.47884550 15.89996511 0.00101423 -0.00490854 -0.00306114
C 22.45829930 29.31672329 17.02427714 -0.00506617 -0.00128179 0.00098975
C 19.38343623 2.29695662 20.66836546 0.00156587 -0.00587966 -0.00101948
C 22.51427771 29.36255619 22.02110406 0.00460063 -0.00090663 0.00895520
C 18.96571756 9.01773184 1.62051470 -0.00294649 -0.00346884 0.00010382
C 21.92660775 6.05045871 3.01678039 -0.00239230 -0.00224435 0.00104853
C 18.82822223 8.99538311 6.31824156 0.00783997 -0.00626917 -0.00489104
C 21.96636022 6.35151422 7.67912574 0.00467691 0.00271044 -0.00076846
C 18.61388654 9.10236982 11.24361046 -0.00450672 -0.00490295 -0.00812620
C 21.88197680 6.39343650 12.56353491 -0.00537234 -0.00125474 -0.00192994
C 18.79137633 8.97575870 16.02314499 0.00807407 -0.00356656 0.00012375
C 22.04156189 6.17772769 17.14104759 -0.00356401 0.00219963 0.00139105
C 18.66199153 8.90001400 20.81917008 -0.00180068 0.00635824 0.00183274
C 21.98174353 6.21981214 21.91232701 -0.00584324 0.00212979 0.00309516
C 17.98785603 15.69510605 1.57056341 0.00651628 0.00417797 0.00422799
C 21.31795715 12.74055650 2.87455603 0.00047829 -0.00676022 0.00301558
C 18.24324510 15.41225413 6.46469823 0.00557776 0.00274072 -0.00155771
C 21.28248743 12.62474200 7.49592362 0.01579036 -0.00470075 0.00300516
C 18.04209444 15.69667004 11.24665491 -0.00440647 -0.00398736 0.00318552
C 21.41157187 12.67767334 12.36789461 -0.00463507 -0.00002588 0.00284608
C 17.97666000 15.74164096 16.00644292 0.00229653 0.00197806 0.00175044
C 21.28791351 12.23936743 17.12584091 0.00164635 0.00403735 -0.00313092
C 18.31310662 15.30238806 20.50189875 0.00284053 0.00132158 -0.00811613
C 21.20173956 12.44388427 21.94677369 0.00431722 -0.00428839 -0.00101399
C 18.38071803 21.17391026 1.84739007 -0.00133540 -0.00248267 0.00158397
C 21.81889035 18.10981433 3.05295470 0.00463156 -0.00395665 -0.00076281
C 18.50182661 21.03171738 6.58968739 0.00321850 0.00028480 0.01004688
C 21.53781912 18.09766773 7.79631813 -0.00168798 0.00639969 0.01320461
C 18.37210941 21.41808461 11.20104972 -0.00114569 -0.00062538 -0.00150653
C 21.55027844 18.08812782 12.60893671 -0.00138752 0.00260644 -0.00404316
C 18.65618224 21.00952781 15.81015439 -0.00123292 -0.00209900 -0.00389352
C 21.39997489 18.27275104 17.29925535 -0.00384618 0.00386914 -0.00075956
C 18.38927955 21.09388427 20.69612404 -0.00120945 0.00129709 0.00060577
C 21.66224848 18.02299798 21.98142326 0.00637085 -0.00180870 0.00751719
C 18.79788513 26.68102565 1.85579921 -0.00234015 0.00762929 0.00277739
C 21.94446781 23.58856402 3.12319150 -0.00701871 -0.00182671 -0.00150232
C 18.76537413 26.66239540 6.61665728 -0.00223760 -0.00075831 -0.00373849
C 22.05184407 23.57462556 7.82964468 -0.00040826 -0.00202242 0.00092850
C 18.91044131 26.77992322 11.33586792 0.00106353 0.00392128 -0.00590425
C 21.83459928 23.81738238 12.62804264 -0.01289246 0.00116048 0.00911308
C 19.07869337 26.46261265 16.03963527 -0.00102775 0.00308844 -0.00359331
C 22.22456854 23.48993709 17.34275804 0.00190309 0.01250465 -0.00433743
C 19.03678662 26.44168946 20.84482376 0.00601982 0.00037568 0.00342027
C 22.05700615 23.66638270 22.02929481 0.00432126 -0.00429663 0.00152069
C 25.00792714 3.11928961 1.62773062 -0.00091002 -0.00487247 0.00168021
C 27.85050465 29.57303127 2.89276438 -0.00076581 0.00339671 -0.01081755
C 25.05461884 2.85715901 6.51370473 0.00579802 -0.00429052 -0.00385495
C 27.93203996 29.87406394 7.68389173 -0.00433161 -0.00426106 0.00883499
C 24.85938347 2.92837502 11.19008114 0.00531734 0.00150776 0.00309016
C 27.87210290 0.14001323 12.37347117 0.00012562 -0.00111862 -0.00178458
C 24.66676315 3.02955936 15.74798032 0.00450442 0.00033464 -0.00645705
C 28.29088485 29.86961601 17.19444124 -0.00188528 0.00242580 0.00395464
C 25.01745913 2.64583612 20.45062008 0.00188287 -0.00265508 0.00421780
C 28.17316248 29.52735456 21.96272918 -0.00613662 -0.00727075 -0.00195726
C 24.41074010 9.76465622 1.52814729 -0.00189276 -0.00085111 0.00263210
C 27.55742082 6.26845020 2.93547475 -0.00249877 -0.00247926 0.00352712
C 24.53389448 9.67759446 6.35436465 0.00361408 -0.00982614 0.00608251
C 27.65162053 6.61437806 7.67577876 0.00111452 0.00107082 -0.00090733
C 24.24275315 9.66545334 11.11829284 -0.00048682 0.00074835 0.00660133
C 27.61873081 6.70486282 12.34917328 -0.00001217 -0.00228533 0.00271724
C 24.32284975 9.55508103 15.71804237 0.00005979 -0.00567030 0.00121134
C 27.57738445 6.44938552 17.16156562 0.00201210 -0.00373786 -0.00457783
C 24.51516690 9.57986607 20.33802728 0.00718712 -0.00073006 -0.00175543
C 27.28977652 6.39612420 21.83322818 -0.00999956 -0.00237241 0.00231205
C 24.83593501 15.44985046 1.71473177 -0.00344884 0.00503410 0.00579271
C 27.84177846 12.38677783 2.95685371 0.00209064 -0.00350108 -0.00310723
C 24.61049973 15.21831227 6.43919833 0.00596724 -0.00237754 -0.00614026
C 27.80525241 12.06356914 7.73993698 -0.00328520 0.00057284 0.00437162
C 24.80560505 15.31939584 11.15971569 0.00271747 -0.00173053 -0.00117679
C 27.63557200 12.03355348 12.51572258 0.00352685 0.00577796 0.00280556
C 24.81108930 15.06848009 16.02455658 -0.00557659 -0.00613903 0.00426128
C 27.89009041 12.05873209 17.35860175 0.00104380 -0.00195845 -0.00066187
C 24.83092731 15.07674630 20.80038652 0.00369525 -0.00068027 0.00936632
C 27.95830804 12.06868067 21.97723469 0.00153245 0.00312597 -0.00545202
C 24.98327452 20.90869628 1.75691147 0.00046212 -0.00150358 -0.00557317
C 28.36410013 17.82437205 2.94559331 -0.00029141 -0.00361630 0.00049313
C 25.01234712 20.50551855 6.61646224 0.00130763 0.00001157 0.00103598
C 28.25091667 17.83522012 7.72493130 0.00379171 0.00214210 0.00501456
C 25.02735039 20.66385099 11.38662917 -0.00355669 0.00125779 0.00034027
C 28.22132392 17.76389238 12.61414786 -0.00957765 0.00132336 -0.00603762
C 25.16040847 20.64582405 16.18311151 -0.00293427 0.00179171 -0.00716407
C 28.18751184 17.88456607 17.34845038 -0.00044961 0.00586578 -0.00151690
C 25.10608086 20.48512706 20.93797766 0.00151110 0.00154626 0.00158755
C 28.26740524 17.70557384 21.95357379 -0.00710590 0.00567956 -0.00685002
C 25.27472870 26.20864851 1.91952568 -0.00060308 -0.00288261 -0.00014405
C 28.63560897 23.19564883 3.28895064 -0.00122429 0.00273868 0.00166068
C 25.52720583 25.90526750 6.52018558 -0.00423715 -0.00529524 -0.00097059
C 28.59692397 23.47953191 7.90666186 0.00096413 0.00424216 0.00940535
C 25.39986197 26.37396507 11.14219097 -0.00441439 -0.00302900 -0.00406881
C 28.43484869 23.21523100 12.66362314 0.00312261 -0.00024873 -0.01280098
C 25.61617444 26.21567436 15.79397120 -0.00273104 0.00714002 -0.00051970
C 28.53829069 23.44522824 17.47371495 0.00083761 0.00068455 -0.00080785
C 25.66878032 26.20296578 20.70663910 0.00586800 0.00577884 -0.00268637
C 28.43198264 23.32765146 22.25078959 -0.00344425 0.00656758 0.00513582
N 31.18125782 4.16796516 0.87906019 -0.00013191 -0.00281804 -0.00398592
N 3.28035019 4.90495686 3.78458770 -0.00286129 -0.00010142 -0.00009775
N 5.18469062 2.29978816 1.21769576 0.00315164 0.00416643 -0.00125734
N 1.83128490 1.29546930 3.89132224 -0.00102759 -0.01107402 0.00170941
N 0.00990781 4.02556287 5.68915954 0.00013217 -0.00087096 0.00193826
N 3.13065987 5.12567631 8.49847017 -0.00162664 -0.00506300 0.00485868
N 5.26466889 2.42929770 5.87772170 -0.00682916 0.00442090 -0.00646398
N 1.84605449 1.56381818 8.28292508 0.00064685 0.00040693 -0.00364483
N 0.13349105 4.42399841 10.58370146 -0.00603953 0.00373373 0.00457364
N 3.50791836 5.09183892 13.25556360 0.00482381 -0.00276700 -0.00177264
N 5.55999819 2.34990938 10.49783101 0.00388018 0.00252293 0.00063105
N 1.90478108 1.41455390 13.12263671 -0.00200766 0.00975077 0.00299859
N 30.94469604 4.44840136 14.99797311 -0.00220448 0.00147305 -0.00240168
N 3.68837370 5.30422785 17.79043348 0.00359792 0.00264338 0.00054221
N 5.20839863 2.48497767 15.19148296 0.00388954 0.00724121 -0.00390659
N 1.94728024 1.37015614 18.11515977 0.00160578 0.00083276 0.00436541
N 0.19332455 4.11853198 19.86084344 -0.00577437 -0.00002793 -0.00524061
N 3.56853311 4.99536864 22.86333777 -0.00322636 0.00492495 -0.00458164
N 5.14118177 2.35523885 19.89037215 -0.00009995 -0.00232784 0.00044183
N 1.79996806 1.25291075 22.83343959 0.00500476 0.00290914 0.00268938
N 0.50717822 10.01103991 0.97477234 -0.00376876 -0.00185216 0.00054017
N 4.23909712 10.96063191 4.02611260 0.00092604 -0.00688668 -0.00481551
N 5.63211962 7.83137382 1.04054659 0.00850900 0.00012307 -0.00383380
N 2.31468609 6.98777785 3.82121038 -0.00690667 0.00395118 0.00287513
N 0.94605831 9.79448368 5.66008155 -0.00097524 -0.00245642 0.00500933
N 3.98836533 10.98622215 8.56738185 0.00279943 -0.00477900 -0.00136400
N 5.37214961 7.90807857 5.91376513 0.00305118 0.00302790 0.00048345
N 2.14930876 7.18544665 8.41928259 0.00108220 -0.00116401 0.00105719
N 0.50486938 10.03592619 10.57778920 -0.00179996 -0.00022899 -0.00079022
N 4.06213543 10.63959146 13.18829221 0.00867673 0.00375412 -0.00111841
N 5.30512752 7.75733378 10.42157857 0.00506847 -0.00258455 -0.00524087
N 2.12775783 6.89445471 13.32591069 0.00301565 -0.00198277 0.00141124
N 0.86118037 9.91110816 15.26130705 0.00218825 -0.00356637 0.00256711
N 4.06787927 10.79109811 18.02791024 0.00274605 -0.00559072 -0.00744975
N 5.75378205 7.82437541 15.38297537 0.00535920 -0.00169266 0.00132439
N 2.43504067 7.09686206 18.20420714 0.00296910 0.00059987 -0.00205320
N 0.42378230 9.99006238 20.10344614 -0.00049764 -0.00717115 -0.00488315
N 3.76316991 10.77025944 22.85592530 0.00005392 0.00322911 0.00209424
N 5.65605801 7.90792263 20.24155818 -0.00512264 0.00347645 0.00261922
N 2.15319213 6.80210784 22.87202290 -0.00205125 -0.00905969 0.00041211
N 0.82311422 15.76039713 1.11203518 -0.00585636 -0.00107168 0.00032843
N 4.60687206 16.73159407 3.90623184 0.00224517 -0.00774331 0.00462003
N 6.00190979 13.40052179 0.92952049 0.00423235 0.00717698 0.00628191
N 2.94517599 12.82816815 3.84340079 0.00500693 0.00053513 -0.01122384
N 1.02542325 15.78142797 5.74811325 0.00558195 0.00333299 0.00056322
N 4.56722415 16.83153034 8.48484584 0.00285546 -0.00147123 0.00401134
N 6.13540355 13.29631277 6.15867053 0.00610464 -0.00513059 0.00135341
N 2.69397826 12.78722335 8.70254431 0.00232059 -0.00155640 0.00262177
N 0.82825219 15.51281595 10.26906273 0.00441185 0.00141330 -0.00139337
N 4.46746688 16.51626322 13.02752061 -0.00539294 0.00130935 -0.00239348
N 6.14491707 13.63692445 10.65542300 -0.00253420 -0.00006867 -0.00259582
N 2.85607619 12.58902510 13.20663497 -0.00792059 -0.00074914 0.00616464
N 1.01848131 15.74430830 15.25561037 0.00315186 -0.00374713 -0.00047423
N 4.85085470 16.84960541 18.08105028 -0.00301668 0.00022688 0.00585081
N 6.15171317 13.46071024 15.37961846 -0.00049438 0.00126543 0.00082043
N 2.56478559 12.52261510 18.05718418 0.00224792 0.00086643 -0.00242547
N 0.79947689 15.62738364 20.03423866 0.00280770 0.00190343 0.00481979
N 4.64107942 16.71936316 22.62418529 -0.00714838 -0.00540341 -0.00395736
N 5.85699899 13.70022479 19.96866747 -0.00094671 0.00738682 -0.00799559
N 2.82070641 12.81562194 22.80547421 0.00160800 0.00597176 -0.00229154
N 1.62376191 21.22294393 1.01689870 -0.00021094 0.00349033 0.00263343
N 3.99074485 23.46348581 3.63902597 -0.00119694 -0.00174232 0.00296426
N 5.69297071 19.80220490 0.86409377 0.00126549 -0.00359543 0.00232164
N 3.07585811 18.40820353 3.68863070 -0.00359821 0.00131042 -0.00414725
N 1.49218345 21.33710681 5.83523693 -0.00141422 -0.00020216 0.00804357
N 4.48911330 23.84669550 8.51617053 0.00027479 -0.00321154 0.00497636
N 5.43434851 20.28272925 5.62432395 -0.00118250 -0.00409838 -0.00228854
N 2.72996334 18.14704263 8.61159807 0.00205513 0.00187909 0.00200939
N 1.08042219 21.43582869 10.29798432 -0.00027927 0.00087340 -0.00549016
N 4.05037556 23.25183592 13.29556765 -0.00171819 -0.00100125 -0.00097135
N 5.46630276 20.28747738 10.49025463 -0.00726954 -0.00447786 0.01010549
N 3.11859572 18.43530649 13.20247423 -0.00387075 0.00145031 0.00163867
N 1.50771825 21.21895631 15.43060438 0.00159685 -0.00943121 0.00218534
N 4.00876387 23.24764789 17.75756891 0.00071517 0.00359011 0.00009335
N 5.43254589 20.08236006 15.23106551 -0.00659639 -0.00033923 0.00147183
N 3.01159491 18.30406621 18.11934579 0.00193331 0.00522550 -0.00232034
N 1.66798017 21.04538656 20.00331517 -0.00203633 -0.00339047 -0.00487896
N 4.38166790 23.41093788 22.78824977 -0.00175816 -0.00424750 0.00495188
N 5.50840116 20.04855680 19.76734329 0.00220323 0.00163841 -0.00264508
N 2.82790310 18.19478127 22.77805834 -0.00115839 0.00202317 -0.00343180
N 0.66979792 27.49186229 1.03081286 0.00763348 -0.00384695 -0.00083828
N 3.49607790 29.50042312 3.88086906 0.00135378 0.00055376 0.00373796
N 4.77598242 26.98870479 1.28705767 -0.00048278 0.00544521 -0.00467588
N 1.82420401 24.41500462 3.84934405 0.00196766 0.00241957 -0.00729769
N 0.48560520 28.12145781 5.99908547 -0.00159496 0.00019142 -0.00860791
N 3.25424664 29.69083328 8.58507568 -0.00362209 0.00589518 -0.00629027
N 4.69976219 26.86237995 5.76083402 0.00736425 0.00412346 0.00901185
N 2.36798825 24.70808370 8.69545234 0.00607959 0.00170566 0.00786668
N 0.99245165 27.81656615 10.67491574 -0.00121042 -0.00459794 0.00432853
N 3.23520002 29.48937169 13.36840964 -0.00226144 0.00114670 -0.00192104
N 4.79008091 26.92759033 10.60644786 -0.00072313 0.00121935 -0.00495319
N 2.01479502 24.41638449 13.11439040 -0.00164877 0.00012868 0.00494588
N 0.91335644 27.35163122 15.35090287 0.00004995 0.00132995 -0.00366582
N 3.75221322 0.00605026 18.06530099 0.00469491 0.00086423 -0.00252582
N 5.07178381 26.69410446 15.29295380 -0.00330706 0.00127118 -0.00460523
N 2.06760440 24.48855524 18.04936686 -0.00292458 0.00853324 -0.00488786
N 0.88620986 27.55203761 20.12231692 0.00139459 -0.00263972 -0.00570489
N 3.34769763 29.50091547 22.71411209 -0.00171978 -0.00351387 -0.00562573
N 5.03470040 26.52835568 19.97541611 -0.00175947 -0.00027773 0.00209706
N 2.33417743 24.52586330 22.85336133 0.00192760 -0.00153398 -0.00876149
N 6.55611954 4.06052973 0.90986172 -0.00247821 0.00009234 -0.00034497
N 10.49241579 4.73881399 3.70059155 0.00014794 0.00470109 -0.00052716
N 11.79540035 2.16871887 0.80379272 0.00029351 0.00189376 0.00005681
N 8.45278190 1.29162479 3.82104182 0.00257793 0.00216295 0.00839442
N 6.98158467 4.10753009 5.91022370 -0.00128850 0.00183654 -0.00234910
N 10.27149715 4.92052006 8.31533723 0.00170691 -0.00033405 0.00162258
N 11.87936323 1.72163658 5.78254444 0.00153091 -0.00232828 0.00226931
N 8.56221234 1.17843254 8.26984333 -0.00293193 -0.00133545 0.00031017
N 7.02158109 4.05552737 10.40651743 0.00301791 -0.00337897 -0.00761844
N 10.18728351 4.79463246 13.20324866 0.00107794 -0.00213780 0.00372258
N 11.81047499 2.06601291 10.55787262 0.00183432 0.00410002 0.00636147
N 8.69913582 1.28772323 13.43073015 0.00448771 -0.00151806 0.00385296
N 6.65146075 4.20005612 15.14424821 -0.00197714 -0.00248627 -0.00055095
N 10.32345843 4.82028833 17.81338487 -0.00791994 -0.00249211 0.00212193
N 12.39238768 1.79960755 15.22357853 0.00210173 0.00161170 0.00620585
N 8.52693971 1.02503661 18.09651820 0.00259811 0.00361301 -0.00353541
N 6.65657807 4.16551828 19.96797193 0.00328734 -0.00326810 0.00258411
N 10.11897583 4.77173238 22.72543460 -0.00032305 -0.00005896 -0.00392756
N 12.01393323 1.87847868 19.95143610 0.00199001 0.00005011 -0.00251742
N 8.30379117 1.18243677 22.55849162 0.00142786 -0.00250649 -0.00133079
N 7.31865164 9.45346567 1.16183019 0.00515044 -0.00579949 0.00427090
N 10.54047101 10.46884985 3.74128122 0.00406526 -0.00447142 0.00041483
N 12.46244774 7.63680645 0.88943494 0.00246629 0.00052740 0.00158519
N 9.12707403 6.56449667 3.64636337 -0.00126662 0.00138468 -0.00130975
N 7.24097776 9.30616587 5.79141061 -0.00354602 -0.00191562 -0.00090829
N 10.44060115 10.32537959 8.39132482 -0.00467775 0.00314671 -0.00591712
N 12.31668631 7.55866967 5.73538695 0.00592883 0.00024214 0.00347297
N 8.94723228 6.70469796 8.61076678 0.00007989 0.00381824 0.00048805
N 7.04187612 9.28344564 10.65045796 -0.00391601 -0.00302272 0.00143070
N 10.60157439 10.49461328 13.16838509 -0.00152492 -0.00306832 0.00138557
N 12.33992080 7.58858021 10.62180898 -0.00063197 -0.00112630 0.00474481
N 8.90482211 6.73044027 13.14289209 -0.00115415 0.00557352 0.00563578
N 7.24101663 9.63276408 15.24182291 0.00271566 0.00266448 -0.00034631
N 10.56132392 10.45058454 17.87292681 0.00242461 0.00071607 0.00224593
N 12.19457727 7.59767355 15.25692459 -0.00192872 -0.00006117 -0.00017442
N 9.05671302 6.66304548 18.14411568 0.00255982 0.00112691 0.00234927
N 7.18784676 9.66140019 20.11737015 -0.00152452 -0.00445772 0.00447906
N 10.46870877 10.39703617 22.74767399 -0.00346842 -0.00053624 -0.00077426
N 12.43759213 7.58926164 20.29051132 -0.00077829 -0.00183665 0.00033212
N 8.92382726 6.69549790 22.70582430 0.00185817 0.00103183 0.00230615
N 7.63280961 14.99055698 1.19721894 0.00222479 0.00087953 0.00103989
N 10.18502444 17.14141802 3.57179691 0.00090837 0.00306799 -0.00251002
N 11.46743249 13.81033260 0.89786914 0.00101012 0.00307357 0.00364812
N 8.87358660 12.03133810 3.92337851 -0.00577435 -0.00600418 0.00136742
N 7.68057081 15.04867775 5.98998000 0.00033582 0.00437660 0.00005290
N 10.48498846 17.31972857 8.45437075 -0.00486554 0.00201218 -0.00254963
N 11.33875040 14.22443807 5.65676815 -0.00517939 -0.00287304 0.00131170
N 9.05059497 12.10418515 8.49360927 0.00180264 -0.00369718 0.00250412
N 7.66007808 15.45343847 10.51880517 0.00062977 -0.00358912 -0.00126221
N 10.14455316 17.43024662 13.21233395 -0.00652149 -0.00227507 -0.00094487
N 11.59314405 14.17680826 10.56236832 -0.00423460 0.00235537 0.00456036
N 9.23962639 12.28745120 13.30212495 -0.00079001 0.00773196 0.00239205
N 7.64461306 15.20294130 15.18800085 0.00261329 0.00106323 0.00620255
N 10.47681734 17.55355127 18.07730450 0.00906318 -0.00271903 0.00070159
N 11.77616515 14.36726214 15.11893637 0.00063124 -0.00326101 -0.00517883
N 9.15653582 12.32883224 17.88526816 -0.00014791 -0.00311672 -0.00164903
N 7.59986555 15.14542320 19.80640173 -0.00371844 0.00538183 -0.00492163
N 10.22115402 17.14399156 22.66202097 -0.00148828 -0.00033938 0.00210408
N 11.55464097 14.13137276 19.86807720 -0.00130512 0.00847086 0.00124482
N 8.95500790 12.16163567 22.59941812 0.00191061 0.00011998 -0.00187728
N 7.04272814 21.69163959 0.95408522 -0.00669694 -0.00198178 -0.00784069
N 9.62443910 23.78526941 3.61158120 -0.00273529 0.00119440 -0.00049220
N 10.85169621 20.69404281 1.00447950 0.00039429 0.00401614 -0.00652098
N 8.29536857 18.40730270 3.79453083 0.00122221 -0.00965864 -0.00303713
N 6.88490971 21.99864939 5.50443847 0.00204613 -0.00340946 0.00611171