2000
Time=99999.99999996 pbc="T T T" Lattice="31.13747553 0.00000000 0.00000000 0.00000000 30.03756648 0.00000000 0.00000000 0.00000000 23.66366956" energy=-12039.78740323 virial="-31.82610148 -31.87446871 -11.87034114 -31.87446871 -31.11530943 -13.34555487 -11.87034114 -13.34555487 -8.44590966" stress="0.00072554 -0.00146413 -0.00050797 -0.00146413 0.00079244 -0.00052446 -0.00050797 -0.00052446 0.00225849" Properties=species:S:1:pos:R:3:vel:R:3
C 30.42183135 3.68300163 1.47405742 -0.00069186 0.00126424 -0.00385441
C 2.26071509 0.60181998 3.08086223 -0.00140506 -0.00374525 0.00609457
C 30.50821935 3.38059693 6.33792522 0.00230418 -0.00505884 -0.00017398
C 2.50183833 0.84455991 7.80670870 -0.00884826 0.00251484 0.00386997
C 30.58814257 3.54042084 11.20147219 0.00525954 0.00355515 0.00257012
C 2.52573956 0.49683112 12.58213665 -0.00669552 -0.00930035 -0.00034601
C 30.63252073 3.78376233 15.92676933 -0.00446273 0.00753779 0.00614399
C 2.48771278 0.72330611 17.17820381 -0.00680742 0.00029892 -0.00041682
C 30.59999052 3.73537011 20.49583755 0.00086883 0.00577879 -0.00607144
C 2.56854147 0.65849582 21.97212580 0.00204346 -0.00371527 0.00045705
C 0.03216710 9.20751002 1.68510498 0.00038467 -0.00390424 0.00490599
C 2.86280939 6.21206631 2.88562764 -0.00197979 -0.00549409 -0.00133375
C 30.87237967 9.30668172 6.26492683 -0.00096228 0.00601595 -0.00014421
C 3.03505525 6.11099318 7.54937230 -0.00629022 -0.00033551 0.00233825
C 30.77309345 8.76387191 11.09211025 0.00078752 0.00410762 -0.00481091
C 2.76577297 6.15674467 12.12316250 0.00545853 0.00442929 -0.00094854
C 30.91215367 9.19810961 15.88827989 -0.00319578 0.00490702 -0.00362353
C 3.10294659 6.34946081 16.97896569 -0.00782190 -0.00093122 -0.00014794
C 0.09154995 9.39691008 20.57070068 -0.00140697 -0.00459778 -0.00624640
C 3.22566595 6.21443696 21.91951754 -0.00245309 0.00416728 -0.00015801
C 0.45826440 14.53654992 1.59101285 -0.00419967 -0.00193746 0.00042609
C 3.27361587 11.57845235 2.91508557 0.00283038 0.00738042 -0.00269125
C 0.14544389 14.89840233 6.32616903 -0.00274993 0.00321780 -0.00519061
C 3.34377430 11.79143736 7.72550446 0.00178461 0.00226083 0.00421202
C 0.09647482 14.79835755 11.04524154 -0.00034108 -0.00514882 0.00659137
C 3.11010675 11.73307798 12.39762386 0.00305898 0.00008529 0.00060891
C 0.37534835 14.79553566 15.87853580 0.00655765 -0.00116082 0.00543150
C 3.51186605 11.90018392 17.09800675 0.00290487 0.00397337 0.00387813
C 0.07618188 14.90308152 20.63102817 0.00532231 -0.00500774 0.00805262
C 3.71431638 12.18355603 21.98122560 0.00211221 -0.00170665 -0.00593387
C 0.60360423 20.36291031 1.70672320 -0.00366946 0.00334255 -0.00176444
C 3.61111052 16.96353411 2.77110941 0.00089999 -0.00340841 0.00252814
C 0.80444756 20.47224220 6.21009697 -0.00146617 0.00024113 0.00436900
C 3.65467045 17.41088056 7.39010353 -0.00032269 -0.00098836 -0.00241537
C 0.66704768 20.65236944 11.01285990 0.00358177 0.00321617 -0.00835296
C 3.82221182 17.53878959 12.19020470 -0.00335660 -0.00014823 -0.00290451
C 0.63045658 20.42840501 15.84755507 0.00130082 0.00505020 0.00099526
C 3.60446618 17.20229727 17.04603861 0.00090371 -0.00176085 -0.00098142
C 0.56453128 20.18913167 20.54863930 0.00059572 0.00418439 0.01006209
C 3.75102314 17.46333846 21.78389094 -0.00343118 -0.00495524 -0.00262917
C 30.93258946 27.10304476 1.64374181 0.00151331 -0.00134074 0.00143008
C 3.11941741 23.94674499 3.14676690 0.00372664 -0.00236216 0.00861394
C 31.05749277 27.11095917 6.47140621 0.00068446 0.00427856 0.00203638
C 3.13994919 24.58878823 7.78420157 0.00338717 0.00077757 0.00599587
C 30.95232900 27.03340431 11.31974046 -0.00603064 -0.00202067 -0.00307341
C 3.22175534 23.85617917 12.37609619 0.00542214 0.00610880 0.00236613
C 0.22173681 26.68431717 15.81422704 0.00796501 -0.00105753 -0.00751663
C 2.97873145 23.61042958 17.32551791 0.00357786 0.00189492 -0.00459909
C 0.13181793 27.00814647 20.61254586 0.00112203 -0.00027846 -0.00343348
C 3.20832427 23.93632273 21.99228029 -0.00031301 -0.00112425 0.00063885
C 6.11733403 3.34414226 1.75587968 -0.00623898 -0.00136832 -0.00271389
C 9.12928084 29.93780280 2.86150431 0.00201340 0.00025609 -0.00416259
C 6.22198296 3.34599813 6.44271640 -0.00587996 -0.00712364 -0.00098408
C 9.13815806 0.26168098 7.77949539 0.00394996 0.00172748 -0.00035860
C 6.29880564 3.28682435 11.23846891 -0.00236334 -0.00431428 0.00871941
C 9.31749986 0.33861924 12.49813534 -0.00008006 0.00698055 0.00172560
C 6.07649924 3.34010393 15.88947827 -0.00057457 0.00853969 -0.00734765
C 8.95368864 0.02380102 17.11163978 -0.00184777 -0.00209600 0.00422926
C 6.00849058 3.33249919 20.61762772 0.00249284 0.00691913 -0.00100088
C 9.36645306 0.19672029 21.78266835 0.00641945 -0.00012098 0.00361578
C 6.62118834 8.72147835 1.77667822 0.00450840 0.00180927 0.00225501
C 9.79480941 5.95872293 3.06184189 0.00479145 -0.00411896 -0.00398752
C 6.34335594 8.84628132 6.48753623 -0.00066726 -0.00570924 0.00105026
C 9.77088650 5.98183284 7.67798579 0.00219258 -0.00318599 0.00453076
C 6.49037342 8.67100825 11.14726656 -0.00018049 0.00500973 0.00436722
C 9.40202044 5.98535140 12.59198985 -0.00268508 -0.00294770 -0.00053331
C 6.31610097 8.83723953 15.75292483 -0.00642684 0.00672177 -0.00415910
C 9.55557193 5.86928151 17.26059217 0.00264680 0.00912262 -0.00336734
C 6.62120436 8.95938014 20.72552429 -0.00222581 -0.00132740 0.00500171
C 9.92470325 5.92095989 22.06192535 -0.00355995 -0.00758750 -0.00082287
C 6.88405597 14.54591784 1.60579815 -0.00076525 0.00152873 -0.00161762
C 9.94454713 11.65665410 3.04291991 0.00168921 -0.00095466 -0.00402487
C 6.75822946 14.30112587 6.35256799 -0.00371624 0.00379266 0.00577249
C 9.95353062 11.46470946 7.84346803 -0.00091550 -0.00708140 -0.00284312
C 6.98312626 14.27944515 11.09053204 0.00460952 0.00066911 -0.00248016
C 10.04689581 11.37077808 12.61140052 0.00865743 0.00600363 0.00070680
C 6.76711525 14.23972530 15.90310118 -0.00108528 -0.00298355 -0.00307716
C 9.99840600 11.31280341 17.02179175 -0.00051939 -0.00436720 0.00605550
C 6.97360237 14.27357679 20.50865101 0.00067235 -0.00176625 -0.00115418
C 9.99319968 11.48640982 21.76723167 0.00255227 -0.00049825 -0.00156660
C 5.93495324 20.92445064 1.54071214 -0.00123663 0.00145839 -0.00079746
C 9.21586553 18.19219608 2.98368912 0.00073001 -0.00183582 -0.00048668
C 6.09952526 21.08453709 6.24406645 -0.00452628 -0.00161642 -0.00363859
C 9.14010432 18.00284377 7.70215893 -0.00091009 0.00769664 -0.00531801
C 6.21279459 20.99339799 10.98559837 -0.00400793 -0.00191891 0.00055223
C 9.12198483 17.69404099 12.62807530 -0.00292928 -0.01104986 -0.00312931
C 6.43703387 20.91941334 15.84085115 0.00210752 -0.00134581 0.00262156
C 9.45132687 17.90440683 17.27106166 -0.00185020 0.00207826 0.00430739
C 6.31760754 21.01442818 20.57979111 0.00037439 -0.00520754 -0.00183212
C 9.17145280 18.02774263 22.03048041 0.00549332 -0.00308377 0.00122696
C 5.49431142 27.58609869 1.62098787 0.00038276 0.00035093 -0.00703256
C 8.75677736 24.67177927 2.87971692 -0.00491754 0.00095381 0.00188755
C 5.49793785 27.62317345 6.43213625 -0.00000731 0.00038974 0.00607264
C 8.59107528 24.56941694 7.59574699 0.00037174 0.00218989 -0.00376955
C 5.53912267 27.75642406 11.20156540 0.00175031 -0.00366279 0.00588662
C 8.67544124 24.51717695 12.37827737 0.00608672 -0.00338709 0.00270535
C 5.45591241 27.71598933 15.79617133 -0.00220035 -0.00324496 -0.00071163
C 8.79531679 24.68836581 17.17672274 -0.00277662 -0.00426524 -0.00285566
C 5.67174397 27.48547590 20.62906386 -0.00131306 0.00554587 0.00065088
C 8.99346780 24.47661044 21.70009125 0.00122117 -0.00547721 -0.00593510
C 12.47516118 2.62372102 1.66613325 0.00189628 -0.00572149 0.00186800
C 15.80343280 29.91750141 3.24100901 -0.00333567 -0.00466865 -0.00276035
C 12.78627537 2.53071313 6.45987558 0.00392199 0.00429481 -0.00638791
C 15.57411130 29.61571041 7.78746111 0.00793621 0.00157185 0.00227897
C 12.84405405 3.14132229 11.38792635 -0.00195593 -0.00225843 -0.00075229
C 15.72390030 29.99642464 12.61185181 0.00501248 0.00232187 -0.00341586
C 12.60994313 2.68876724 16.01877526 -0.00205070 0.00134689 0.00241467
C 15.59258500 29.92631160 17.25234224 0.00329952 -0.00391421 0.00381813
C 12.68858162 2.85078460 20.77708113 0.00478642 -0.00034259 -0.00175806
C 15.66412254 29.93847613 21.99076132 0.00475037 0.00326392 -0.00139170
C 13.15770506 8.69371885 1.71671291 -0.00123928 -0.00448654 -0.00726191
C 16.22613417 5.53783809 3.21186896 0.00144398 -0.00295235 -0.00067090
C 13.01207305 8.36505611 6.61207558 -0.01051187 0.00155903 -0.00627167
C 16.10761131 5.43703562 7.63621754 0.00187961 0.00566151 -0.00156497
C 13.07491846 8.63460096 11.19359269 0.00034638 0.00365307 -0.00240151
C 16.28325360 5.55328154 12.48651505 0.00471851 0.00109813 0.00531939
C 13.11402059 8.36216466 16.04143029 0.00111803 -0.00915457 -0.00389826
C 16.12580930 5.35393045 17.06953700 0.00425544 0.00088168 -0.00484978
C 13.22916010 8.46345318 20.68261263 0.00172470 -0.00219414 -0.00650226
C 16.31797062 5.37707401 21.84273569 0.00629141 0.00383868 0.00051593
C 12.53964974 15.06511488 1.77617675 0.00434291 -0.00171142 -0.00165800
C 15.70954644 12.18184588 3.28039957 0.00202862 -0.00091845 -0.00872722
C 12.43727946 15.21677332 6.35303993 0.00185237 0.00147473 -0.00038011
C 15.37881345 12.02285975 7.87951375 0.00251035 -0.00628902 0.00248965
C 12.42081275 15.04158559 11.15198866 0.00950369 0.00573175 0.00123837
C 15.55295866 11.80188347 12.41817399 0.00282477 0.00846984 0.00879852
C 12.36361238 15.07443380 15.81920083 0.00853472 -0.00707260 0.00001095
C 15.56002228 11.94849240 17.36682122 -0.00740963 -0.00432432 -0.00127983
C 12.58392838 15.15296796 20.78514999 0.00230543 0.00110369 0.00050625
C 15.65364059 12.16701189 22.11416944 -0.00555503 0.01014349 -0.00471122
C 11.90012561 21.65165894 1.82599776 0.00298476 -0.00029534 -0.00366075
C 14.93400204 18.57424518 2.96913695 -0.00181762 -0.00709410 0.00045554
C 11.59968181 21.74499796 6.36262612 0.00409704 -0.00674122 0.00213964
C 14.93894820 18.69438291 7.59485496 -0.00052013 0.00084699 0.00437244
C 11.83330808 21.56840986 11.14644966 -0.00192485 0.00623339 0.00250312
C 14.62306835 18.49821425 12.40468099 -0.00294346 -0.00201786 0.00485111
C 11.91901688 21.39813042 15.83762919 -0.00072578 0.00108881 0.00326311
C 15.12512485 18.54326211 17.14850171 -0.00011967 0.00022532 0.00407917
C 11.62698324 21.66422134 20.63416284 0.00472521 -0.00548546 0.00511820
C 14.69516819 18.57731248 21.93429685 0.00051998 -0.00820820 -0.00500931
C 12.46398178 27.19560898 1.76799515 -0.00224360 0.00010841 -0.00438350
C 15.34968119 24.01203434 3.06633217 0.00958583 -0.00547448 0.00175814
C 12.20957808 27.08565971 6.40981712 0.00043183 0.00296932 0.00035364
C 15.22976518 24.19099109 7.84003245 0.00048169 0.00891329 0.00266306
C 11.90264839 27.26779455 11.18774252 0.00211815 0.00501475 -0.00057663
C 15.29943821 24.21512297 12.57844959 0.00316344 0.00209469 0.00198571
C 12.33559296 27.17141095 15.91305286 -0.00173046 0.00090314 0.00100825
C 15.25720514 24.08392987 17.30260227 -0.00143382 0.00888286 0.00191778
C 12.46811989 27.17081556 20.64153931 -0.00720766 -0.00170598 0.00078286
C 15.33362157 24.04299812 22.05834134 -0.00047090 -0.00271981 -0.01182536
C 19.31533609 2.46263226 1.91241272 -0.00121770 -0.00047449 -0.00139440
C 22.10201135 29.28494831 3.20779511 0.00511044 0.00866247 0.00489134
C 19.22341197 2.52719814 6.50842714 -0.00211578 0.00196893 -0.00202336
C 22.49787685 29.62406189 7.87760373 0.00169235 -0.00061673 -0.00119061
C 19.10657769 2.55108305 11.03981805 -0.00474622 -0.00991951 -0.00058714
C 21.96759603 29.37545958 12.52464375 -0.00395380 0.00054494 -0.00367430
C 19.44461564 2.41911793 16.00594404 -0.00208641 -0.00140194 -0.00547265
C 22.21093598 29.08188434 17.30635797 0.00209756 0.00443601 -0.00107252
C 19.34938330 2.39374451 20.65562950 0.00093610 0.00443645 0.00267112
C 22.28032494 29.34558193 21.94202913 -0.00494987 0.00701157 0.00520609
C 18.64777806 8.88257704 1.98052754 0.00539944 0.00488754 -0.00137673
C 21.87069978 6.27885930 3.10483776 -0.00432120 0.00107272 0.00074561
C 18.68673294 9.35888598 6.63698856 -0.00298762 0.00991667 -0.00502654
C 21.63217595 5.98481785 7.71873346 0.00990142 -0.00317018 -0.00640907
C 18.68586153 9.11586623 11.24553437 -0.00283405 -0.00536387 0.00567886
C 21.86059332 5.89337797 12.43755810 0.00358384 0.00211557 -0.00410767
C 18.86350096 9.17981872 16.17948796 0.00589955 -0.00336718 -0.00500606
C 21.77804145 5.80196561 17.41069665 0.00614260 0.00671968 0.00109633
C 18.66895328 9.11036934 20.92974652 -0.00565832 0.00033600 0.00244293
C 21.87277869 6.00828661 22.01653614 -0.00647682 0.00789967 0.00199876
C 18.06863249 15.93199127 1.89801931 -0.00052097 0.00196606 -0.00141564
C 21.29364999 12.61839071 3.28453791 -0.00180582 0.00078405 0.00354708
C 18.03871197 15.70903821 6.76467018 0.00438839 0.00152969 -0.00043740
C 21.20593573 12.84909471 8.00512237 0.00205542 0.00165552 -0.00062358
C 17.94447483 15.55908486 11.24895925 0.00373656 0.00136199 -0.00127501
C 21.43979135 12.45935418 12.69451673 -0.00293977 0.00175910 -0.00349673
C 17.84207851 15.76775914 15.92613382 -0.00411984 0.00453626 0.00135014
C 21.34495975 12.55926093 17.24902321 0.00050751 -0.00431986 -0.00507736
C 18.01723051 15.59439875 20.80217693 -0.00303635 0.00358008 0.00288269
C 21.00644445 12.53524845 22.19212639 -0.00526792 -0.00591245 -0.00441680
C 18.78796900 21.49492354 1.75819280 0.00559442 0.00408921 -0.00133702
C 21.57357800 18.40117097 3.02104506 -0.00462558 -0.00462294 -0.00093119
C 18.74022669 21.39052668 6.44679245 -0.01185311 0.00615740 -0.00322509
C 21.57859324 18.40347625 7.84519819 -0.00645897 0.00018726 0.00432942
C 18.49799126 21.11642498 11.01520405 0.00099741 -0.00509950 0.00497031
C 21.47683607 18.07349084 12.55051160 -0.00373245 0.00643551 -0.00220274
C 18.22559786 21.15257592 15.73917214 -0.00710928 0.00526227 -0.00259114
C 21.58089364 18.24821290 17.13440159 -0.00233118 -0.00580347 0.00212130
C 18.73509051 21.33574639 20.69510854 0.00023400 0.00402044 0.00156054
C 21.62081445 18.01134711 21.97867154 -0.00572290 0.00744448 -0.00128910
C 18.93998943 26.63112311 1.58804267 -0.00325227 0.00159914 -0.00567681
C 22.08258073 23.90175007 2.86981949 0.00300726 -0.00583084 0.00290161
C 18.85510641 26.83626527 6.59915430 -0.00294727 0.00419172 -0.00353011
C 22.03603818 24.07063699 7.77846088 0.00273332 -0.00201738 -0.00179894
C 18.61306206 26.81036188 11.13752413 0.00525143 0.00604357 -0.00001804
C 21.78643198 23.75430964 12.45164079 -0.00746185 -0.00018924 0.00545056
C 18.65956593 26.76763893 15.86295886 0.00028521 -0.00556748 -0.00821349
C 22.14599873 23.70164023 16.99434763 -0.00097362 -0.00642495 0.01219666
C 18.87783976 26.54622274 20.57048561 0.00297603 -0.00154994 0.00179298
C 22.12827144 23.79966907 21.86861573 0.00339877 -0.00803701 0.00656050
C 24.85166787 3.18303231 1.70055665 -0.00102399 0.00308587 -0.00507861
C 27.84659941 29.93463691 3.08014514 -0.00013962 -0.00159006 0.00714258
C 24.84638515 2.99019832 6.56224102 0.00068748 0.00054238 0.00179709
C 28.02218464 0.07681690 7.83945214 -0.00113506 -0.00876214 -0.00245836
C 24.96563490 2.99505228 11.21649692 -0.00648192 -0.00442120 0.00874263
C 28.12720444 30.00536961 12.55136817 -0.00604057 0.00227584 -0.00444459
C 24.85402080 2.55586591 16.04728049 -0.00151427 0.00031109 -0.00294685
C 27.97295960 0.03245435 17.31747444 0.00345524 0.00171432 -0.00231730
C 24.89373937 2.67542494 20.55727689 0.00275888 -0.00225224 -0.00705771
C 27.89434430 29.96400867 22.01341227 -0.00400088 -0.00190212 -0.00002866
C 24.18491419 9.69958443 1.90745945 0.00392499 0.00535162 -0.00337281
C 27.61570329 6.62211748 3.00066995 -0.00102127 -0.00532624 -0.00410274
C 24.30026647 9.73231209 6.55767960 0.00179686 -0.00032272 0.00020207
C 27.39956739 6.47851041 7.74154722 0.00135796 0.00240056 0.00067837
C 24.37541376 9.59628278 11.25177709 -0.00087964 -0.00414181 -0.00695809
C 27.32998797 6.39564905 12.73572525 0.00419953 0.01208006 -0.00368877
C 24.18409351 9.57644734 15.97629056 0.00096445 -0.00494632 -0.00276029
C 27.47401496 6.58901315 17.42733060 -0.01050213 -0.00202441 0.00246131
C 24.33916348 9.53475824 20.68513029 0.00066054 -0.00497352 -0.01064970
C 27.55914840 6.73553301 22.00691908 -0.00167672 0.00040674 0.00298241
C 24.83044834 15.25218811 1.94890766 -0.00091552 -0.00555182 0.00779095
C 27.27771839 12.27685771 3.03715548 -0.00766919 0.00147493 0.00024974
C 24.65731972 15.51220894 6.58720910 -0.00105146 0.00130646 0.00587155
C 27.85064341 12.16678558 7.79423513 0.00543248 -0.00282430 0.00363618
C 25.01378724 15.35417074 11.37647723 0.00235459 -0.00414207 0.00169964
C 27.71144004 12.09905833 12.71601779 0.00174502 0.00314206 0.00474612
C 24.66538720 15.39228618 16.07710536 0.00076255 0.00008108 -0.00444116
C 27.64199073 12.26491967 17.29414392 -0.00192218 -0.00134894 0.00650122
C 24.67291206 14.98004128 20.83376284 0.00567594 -0.00172642 -0.00584356
C 27.68529841 11.94043733 22.03772801 0.00421359 0.00486710 0.00053386
C 25.06360291 20.89006487 1.71737984 -0.00659822 -0.00069917 0.00105061
C 28.18495247 18.05608578 3.10175924 0.01111221 0.01271130 0.00174251
C 25.21241848 20.85509124 6.33220060 0.01043475 0.00770687 -0.00755208
C 28.47905829 17.80168945 7.76320810 -0.00797726 0.00447682 -0.00042871
C 25.18272335 20.87516017 10.97933289 0.00436998 0.00216403 0.00208904
C 28.39789495 17.90243936 12.44181666 0.00118412 -0.00282953 0.00524987
C 25.29320776 20.90066604 15.51660626 -0.00425362 -0.00036815 -0.00104526
C 27.80348190 17.65045801 17.34162658 0.00238050 -0.00287833 0.00057376
C 24.88311038 20.71683322 20.63081368 -0.00253191 -0.00486677 -0.00374902
C 28.00515114 17.85926787 22.07348056 0.00089330 0.00184935 0.00369198
C 25.76293366 26.56506857 1.54438012 0.00258682 0.00136476 0.00659863
C 28.73969763 23.76495058 2.85042056 0.00040164 0.00014141 0.00228098
C 25.54381118 26.50414588 6.40038788 -0.01123340 -0.00086317 0.00082674
C 28.63900624 23.62503901 7.48819915 -0.00265665 0.00208033 0.00484818
C 25.51496839 26.59860986 11.16835173 0.00951138 -0.00115180 -0.00226140
C 28.70043273 23.43810611 12.08898475 -0.00454005 -0.00561600 -0.00111860
C 25.72998026 26.16008516 15.81373398 0.00160693 0.00116741 -0.00273982
C 28.52268257 23.39062403 17.10824086 -0.01059904 0.00516364 0.00507853
C 25.48255987 26.30157296 20.45927213 -0.00824759 -0.00114705 -0.00077458
C 28.50517750 23.25119326 21.87800466 0.00865348 0.00197678 0.00071041
N 0.16681357 4.51140545 0.84671185 -0.00097089 -0.00283281 -0.00853580
N 3.52248658 5.32521553 3.65126252 0.00248871 -0.00713166 -0.00286921
N 5.27108150 2.36959935 1.36071202 0.00203486 -0.00396912 0.00141469
N 1.51354132 1.33613944 3.97951167 -0.00624723 0.00620866 0.00171481
N 0.10196151 4.29530857 5.70355381 -0.00274941 -0.00181183 -0.00667379
N 3.48667020 5.15373214 8.32865647 0.00022873 -0.00420180 -0.00543046
N 5.39140702 2.59297457 5.63432806 0.00308198 -0.00066435 -0.00754567
N 1.71844462 1.54564629 8.70694628 0.00187185 0.00182776 0.00395466
N 0.38599078 4.19944721 10.47335983 0.00043595 -0.00181866 0.00969850
N 3.55157783 5.26888243 12.95188465 -0.00215506 0.00052751 -0.00155879
N 5.56860627 2.33778257 10.55087612 -0.00344497 -0.00688583 -0.00046572
N 1.69685877 1.32304475 13.25973132 -0.00017000 -0.00622118 -0.00050905
N 0.46948147 4.42784181 15.20038224 -0.00274572 -0.00337764 -0.00116323
N 3.58155010 5.42255506 17.85829744 -0.00027295 -0.00226250 -0.00491783
N 5.30072865 2.52186752 15.16530322 0.00297427 0.00050755 -0.00174965
N 1.66197423 1.47014337 17.95190678 0.00767042 0.00147999 -0.00130538
N 0.28759079 4.49167448 19.75834177 0.00188629 0.00828011 -0.00002785
N 3.60778683 5.13862388 22.70379148 -0.00404534 0.00193656 0.00296944
N 5.11099699 2.58202816 19.90853404 0.00711023 0.00293916 -0.00840802
N 1.92026072 1.56417022 22.72805261 -0.00312843 -0.00463135 -0.00082565
N 0.76546193 10.08744259 1.01429370 0.00665636 0.00276331 0.00318303
N 3.91530393 10.53986343 3.60761177 -0.00304521 0.00235885 0.00063703
N 5.84917980 8.02624088 0.86506931 -0.00255020 0.00842529 0.00347816
N 2.15909769 7.15655466 3.56011622 -0.00446485 -0.00288489 0.00328971
N 0.56737480 9.96171385 5.45476992 0.00103977 -0.00087529 -0.00620992
N 3.71627600 10.72004271 8.48759750 0.00090252 -0.00550629 0.00122251
N 5.49330944 7.98992640 5.83361080 0.00103885 -0.00207638 -0.00391243
N 2.21795783 6.99814915 8.08236327 0.00108584 0.00158438 0.00049735
N 0.40014525 9.81101449 10.50393932 -0.00410111 -0.00735402 0.00010271
N 3.91004186 10.86847480 13.07303468 0.00131427 -0.00100783 0.00433139
N 5.64926972 7.94569332 10.39719738 -0.00407626 0.00561245 -0.00238815
N 2.04312328 7.09058233 12.87348828 -0.00051458 -0.00459312 -0.00323748
N 0.65525386 10.01249903 15.20972582 -0.00535005 0.00524977 -0.00227789
N 4.45249335 11.06943200 17.76450845 -0.00478371 -0.00143636 -0.00135566
N 5.41281106 8.05652186 15.03295129 -0.00048976 -0.00926400 0.01153227
N 2.60647585 7.53400717 17.56997456 -0.00100091 0.00445164 0.00722376
N 0.75355262 10.28641000 19.79046418 0.00190875 -0.00112085 -0.00384994
N 4.36202013 11.21214220 22.62577561 -0.00497801 0.00708899 -0.00467750
N 5.76647825 8.16840132 19.98966397 0.00087258 0.00390503 0.00399234
N 2.80391518 7.36060743 22.59240035 0.00101083 -0.00199518 0.00239825
N 1.02262984 15.50348357 0.83466636 0.00505710 0.00253275 -0.00541671
N 4.11475295 16.08202329 3.65180182 -0.00054470 0.00385697 0.00231823
N 6.18134703 13.60390383 0.95757519 -0.00351927 -0.00200619 -0.00372873
N 2.66503567 12.45458782 3.64606284 -0.00552330 -0.00485761 -0.00341139
N 0.63843499 15.67831011 5.32408729 0.01317027 0.00013486 0.00388546
N 4.76323915 16.79629035 7.81876860 0.00076040 -0.00039440 -0.00065055
N 5.87263911 13.61852731 5.53482732 0.00006011 -0.00449082 -0.00107036
N 2.66582953 12.72670081 8.39237002 -0.00149088 0.00684497 -0.00435374
N 1.01542462 15.40923571 10.27978380 0.00124759 0.00440462 -0.00117375
N 4.50709597 16.72516499 13.01092615 -0.00298669 0.00280383 -0.00137312
N 6.27256940 13.45732747 10.23525148 0.00562844 -0.00110544 0.00104654
N 2.41151498 12.61362644 13.11774082 -0.00478876 -0.00419358 -0.00259794
N 0.97738961 15.60360123 14.98043124 0.00366437 -0.00291389 0.00600733
N 4.45604099 16.66502330 17.88193600 0.00220722 0.00009696 0.00542508
N 5.94085259 13.52516056 15.12418894 -0.00108346 0.00194654 -0.01288271
N 2.89106725 12.78811979 17.83918451 -0.00185846 0.00232233 -0.00260919
N 1.08810746 15.62080592 20.08695376 -0.00300770 0.00457834 -0.00248044
N 4.75494255 16.77345662 22.37990049 -0.00279972 0.00468845 0.00673732
N 6.08770408 13.57101298 19.84493368 0.00405207 0.00021977 -0.00301557
N 3.15261359 13.14966589 22.76788710 0.00244047 -0.00054338 -0.00501416
N 1.50451503 21.18050268 1.15918281 0.00064110 -0.00766807 0.00127115
N 4.17131215 23.48643201 3.89655631 -0.00031726 0.00441574 -0.00440957
N 5.28698423 20.00011444 0.71545609 -0.00142557 0.00211215 -0.00312130
N 2.93206148 18.02198565 3.39982897 -0.00082864 0.00127733 -0.00163383
N 1.53804042 21.35082965 5.42065487 -0.00207118 0.00372094 0.00472358
N 4.16579967 23.72189330 8.18677538 0.00101380 0.00104322 0.00599696
N 5.47368844 20.20932453 5.43241601 -0.00908786 -0.00185764 0.00104731
N 3.03360976 18.17191837 8.34469385 -0.00156623 0.00443789 0.00097481
N 1.64600855 21.32268853 10.31091923 0.00120312 0.00296201 -0.00099823
N 4.35762397 23.56064838 13.09787887 0.00509631 0.00568127 -0.00162116
N 5.55756897 20.13002466 10.18302683 -0.00606420 -0.00437567 -0.00294671
N 3.07091807 18.55187712 12.80510490 0.00089737 0.00277169 0.00168965
N 1.45939087 21.18908609 15.12997768 0.00445914 -0.00121086 -0.00720453
N 4.06532411 23.19371790 18.03804322 -0.00436231 -0.00942898 -0.00408058
N 5.46068835 20.11731615 15.30295753 0.00176036 0.00670691 0.00213717
N 2.65585343 18.02931070 17.55132184 0.00438888 0.00139907 0.00148574
N 1.32952701 21.05697457 19.92188722 0.00385110 0.00330283 -0.00477031
N 4.21125082 23.48551239 22.81096528 0.00295988 0.00249632 -0.00491725
N 5.54411498 20.17834457 19.80335122 -0.00400547 0.00030128 0.00066095
N 2.81549747 18.00829296 22.64218007 0.00005144 0.00287192 0.00776513
N 0.77020444 27.78633997 0.95363715 -0.00253289 0.00167828 -0.00144754
N 3.20310294 29.84217272 3.63812668 -0.00108703 -0.00296012 -0.00417145
N 4.68305453 26.77679352 0.86420014 -0.00200767 0.00314867 -0.00132776
N 2.10478556 24.50076633 3.80841903 -0.00324766 0.00212678 0.00412034
N 0.56843016 27.88442572 5.57344676 0.00554236 0.00135737 -0.00198598
N 3.36160687 0.04686818 8.46669369 -0.00171964 0.00357840 0.00826805
N 4.81778776 26.72419259 5.74270107 -0.00200697 -0.00233861 -0.00084244
N 2.18432754 25.00365496 8.64072975 -0.00609590 -0.00198752 0.00756301
N 0.65299245 27.95068718 10.76361066 0.00451392 0.00480380 0.00024654
N 3.30024615 29.79564577 13.39170720 0.00356767 0.00302154 0.00419382
N 4.75368232 26.87652125 10.59211600 0.00226928 -0.00108995 -0.00025270
N 2.13068698 24.22821868 13.05399716 0.00188265 0.00367670 -0.00281962
N 0.80081602 27.69053132 15.09120243 -0.00029571 0.00498313 0.00157612
N 3.23258170 29.76275240 17.81940050 -0.00109740 -0.00132581 -0.00122638
N 4.67467714 26.87665830 15.05545771 -0.00920994 -0.00333702 0.00052163
N 2.13431789 24.42997936 18.01542408 0.00050783 -0.00276829 0.00051518
N 0.85365654 27.54326367 19.63110067 0.00384360 0.00050619 0.00739925
N 3.25685846 29.77010084 22.67005512 -0.00239744 0.00585443 -0.00173517
N 4.72769375 26.77046466 19.95678173 0.00097770 0.00062983 -0.00137286
N 2.17625687 24.60777275 22.60682798 -0.00077602 -0.00262761 0.00036867
N 6.65121278 4.13853386 0.83741899 -0.01193541 0.00043287 -0.00259414
N 10.48696524 5.03210001 3.75554627 0.00171160 -0.00343859 -0.00043541
N 11.85556509 1.68866457 0.79557555 0.00287735 0.00256885 0.00664569
N 8.35592937 0.91772595 3.45219922 -0.00024291 0.00406874 0.00747792
N 7.17801941 4.09777832 5.77380172 0.00246393 0.00371282 -0.00008837
N 10.35232549 5.00701043 8.45892100 0.00119340 0.00371771 0.00487776
N 11.85601606 1.74679001 5.93221565 0.00289198 -0.00376823 -0.00273923
N 8.63539763 1.31483280 8.55569326 0.00213650 0.00045209 -0.00637478
N 6.93584558 4.18872867 10.34904230 -0.00548595 -0.00696617 0.00459992
N 10.03673711 5.04532239 13.31125820 -0.00236620 0.00095434 -0.00035607
N 11.92410329 2.32365665 10.69895120 0.00131245 -0.00096580 -0.00072104
N 8.60050446 1.30028444 13.16561581 -0.00521263 -0.00248489 -0.00040245
N 6.93498216 4.08575088 15.14120568 0.00209670 0.00281831 0.00148239
N 10.38527239 4.99119830 18.02236955 0.00131895 0.00602082 0.00191284
N 11.98317098 1.80491174 15.15098956 0.01041861 0.00135921 -0.00143241
N 8.62692815 1.11926661 17.80878623 -0.00456950 0.00186690 -0.00728982
N 6.80209197 4.02938602 19.84007025 0.00180001 -0.00213713 0.00343566
N 10.21293913 4.88259306 22.83160476 0.00802589 0.00190907 -0.00785082
N 11.68721511 1.95481653 20.23679450 -0.00288530 0.00218443 0.00288493
N 8.74976475 1.17501731 22.53088876 -0.00140953 0.00087900 -0.00287093
N 7.47245626 9.67171501 1.35105962 0.00118590 -0.00217492 -0.00170889
N 10.67105176 10.85947210 3.80087316 0.00209901 -0.00379217 -0.00354698
N 12.38368395 7.72843054 1.06526533 -0.00156414 0.00284897 -0.00351761
N 8.99026726 6.86633399 3.78048689 0.00401542 0.00080093 -0.00023959
N 7.20546369 9.49679637 5.67131872 -0.00670034 -0.00506157 0.00498015
N 10.87689702 10.71665772 8.59980487 -0.00262549 -0.00133811 -0.00927960
N 12.57737748 7.41424499 5.67234426 0.00392317 -0.00578610 -0.00261216
N 8.95771167 6.78329235 8.39337943 0.00032496 -0.00604849 -0.00090849
N 7.51231044 9.20999187 10.34450383 -0.00460328 0.00543414 0.00349993
N 10.71853971 10.55325128 13.36231237 -0.00004675 0.00547108 -0.00205049
N 12.32923316 7.57453163 10.66089881 0.00174472 0.00056633 -0.00096580
N 8.82802009 6.99310398 13.23403764 -0.00091089 -0.00340738 -0.00102171
N 7.08121764 9.70285553 15.06604397 0.00196395 0.00421196 0.00637863
N 10.93277070 10.68832429 17.75506723 -0.00030897 -0.00023228 -0.00095502
N 12.42155330 7.47579470 15.28670350 0.00306511 0.00080814 0.00350834
N 8.98820901 6.89920912 17.96894196 0.00383818 -0.00034439 -0.00002679
N 7.48800832 9.86440887 20.14457792 -0.00020763 -0.00196865 0.00262564
N 10.74949474 10.55593528 22.33782359 -0.01104379 0.00305714 0.00254890
N 12.65569217 7.40388561 20.07068247 -0.00424101 0.00379368 0.00954000
N 9.10620331 6.92386746 22.65990423 -0.00331940 -0.00024778 0.00690974
N 7.58588507 15.39534960 0.89532708 -0.00435882 -0.00026775 0.00354941
N 10.22029962 17.65083775 3.72407075 0.00265417 0.00045740 0.00198204
N 11.68951250 14.17329699 1.17132949 -0.00693000 -0.00291885 0.00275930
N 9.13539911 12.47336679 3.77572299 0.00644047 0.00699083 -0.00323857
N 7.43703499 15.30012351 5.77049304 -0.00415322 -0.00358883 -0.00124515
N 9.98847499 17.37597613 8.52498173 0.00520812 0.00608748 -0.00366094
N 11.63094027 14.35916141 5.67944233 0.00042244 -0.00151215 0.00995460
N 9.11680731 12.21450326 8.61211243 -0.00306397 -0.00666703 0.00194133
N 7.88895505 15.04493238 10.46134546 -0.00912670 -0.00019654 -0.00315063
N 9.98001960 17.13102310 13.46733668 -0.00047743 -0.00063889 0.00301067
N 11.68406291 14.13395078 10.47929189 -0.00059117 -0.00373641 -0.00375266
N 9.05349808 12.06841919 13.24125792 0.00189644 -0.00221585 -0.00405768
N 7.64568952 14.99930771 15.26379251 -0.00311654 -0.00110908 -0.00629206
N 10.37311732 17.29271427 18.13738170 -0.00144211 0.00029471 -0.00361838
N 11.49275183 14.25862942 15.20984409 -0.00424860 -0.00322620 -0.00493251
N 8.99929926 11.92997840 17.81289455 -0.00760854 -0.00268922 -0.00268658
N 7.67947293 15.12886202 19.69174070 -0.00032419 0.00214954 -0.00348599
N 10.26918623 17.50111327 22.65982445 0.00024339 -0.00635720 -0.00376532
N 11.63710379 14.33337228 20.24905293 0.00123678 0.00317318 0.00089271
N 9.05733842 12.04289533 22.59786195 0.00170118 0.00618271 -0.00249665
N 6.84453405 21.72262707 0.95004670 -0.00567952 0.00633664 0.00328481
N 9.60524830 23.86236113 3.58414334 -0.00006152 -0.00150545 0.00024196
N 11.18418465 20.72326978 1.16060961 -0.00496251 0.00073673 -0.00437634
N 8.18570074 18.85606578 3.62836720 0.00066200 -0.00060140 -0.00530874