2000
Time=79000.00000008 pbc="T T T" Lattice="30.95152608 0.00000000 0.00000000 0.00000000 30.14042935 0.00000000 0.00000000 0.00000000 23.65057770" energy=-12040.62982321 virial="-51.14490063 -4.61245868 5.25683860 -4.61245868 -67.86777299 -16.59549763 5.25683860 -16.59549763 -94.86547725" stress="-0.00018949 -0.00014757 0.00023245 -0.00014757 -0.00079019 -0.00079650 0.00023245 -0.00079650 -0.00149016" Properties=species:S:1:pos:R:3:vel:R:3
C 30.46380751 3.66743140 1.82705991 -0.00305278 -0.00020432 0.00083353
C 2.76615751 0.66139233 2.96309242 -0.00300092 0.00057213 -0.00033150
C 30.56144109 3.58705613 6.50345028 0.00036427 0.00266921 -0.00099115
C 2.54688900 0.83699507 7.68307813 0.00059662 -0.00340820 0.00578955
C 30.42090073 3.71963906 11.30203645 -0.00381428 0.00303760 0.00156694
C 2.31521178 0.84923807 12.47552386 0.00519683 -0.00004129 -0.00123547
C 29.70247236 3.34353439 15.84858317 -0.00143342 -0.00311655 -0.00169726
C 2.24910258 0.31652952 17.19273891 0.01020047 -0.00181284 -0.00158859
C 30.42819832 3.61748047 20.80987197 -0.00076816 -0.00198295 -0.00063337
C 2.66896324 0.44376873 21.89364891 -0.00240613 0.00344080 -0.00671617
C 30.71087058 9.25690257 1.71896764 -0.00299928 0.00368272 0.00165073
C 3.02269248 6.32087133 3.28667385 -0.00100184 0.00502704 0.00024668
C 30.76112532 9.32301439 6.61812800 0.00756765 -0.00034352 0.00288546
C 2.91381587 6.26679371 7.94175413 -0.00117175 0.00393774 0.00093685
C 30.57717077 9.45777256 11.18489513 -0.00299066 -0.00079326 -0.00506847
C 2.76678176 6.17402631 12.56853662 -0.00216291 0.00354507 -0.00131380
C 0.06662160 9.19039372 15.88398475 0.00168078 -0.00064675 0.00458606
C 2.76095379 5.93945118 17.26384002 -0.00722507 -0.00395981 -0.00294070
C 30.54280342 9.38193496 20.51344490 0.00192599 0.00317390 0.00175061
C 2.86865834 6.25712271 21.89637200 -0.00267420 -0.00257132 -0.00244811
C 0.23368864 14.61379809 1.87320366 0.00152300 -0.00324908 0.00220079
C 3.44067947 12.05555944 3.22041006 0.00555182 0.00199411 0.00010579
C 0.07003854 14.70452747 6.46647851 0.00639189 0.00266476 -0.01001825
C 3.33208351 11.70936120 7.86322618 -0.00508210 -0.00165989 -0.00652677
C 0.04636100 14.98575801 11.11885471 0.00055775 -0.00164257 -0.00124209
C 3.32508222 12.04318772 12.45536390 0.00333757 0.00783518 -0.00322528
C 0.16790413 14.80806649 15.91371476 -0.00411026 0.00845089 0.00050064
C 3.31770035 11.92747397 17.22256783 -0.00302818 0.00801475 0.00256984
C 0.18072869 14.76793231 20.51474614 -0.00131947 0.00037888 0.00208106
C 3.45010825 11.80455904 22.03117870 0.00120151 -0.00139342 -0.00135548
C 0.60336097 20.83128817 1.48993419 -0.00937769 -0.00274491 -0.00292652
C 3.54991737 17.55373576 2.90019548 -0.00611132 0.00668274 -0.00315039
C 0.72194882 20.65267153 6.37767667 0.00024839 0.00048735 0.00224922
C 3.67183847 17.53876669 7.85012063 -0.00110761 0.00150630 0.00141673
C 0.50648056 20.57583481 11.21859149 0.00271018 0.00763590 -0.00201371
C 3.36780389 17.44329325 12.67999209 0.00157651 -0.00186120 0.00115689
C 0.67566654 20.76207576 15.94330856 0.00190139 -0.00519360 -0.00703381
C 3.75653664 17.74812538 17.37815677 0.00226571 -0.01222999 0.00114308
C 0.46913239 20.64589253 20.48146371 0.00208189 -0.00134903 -0.00059250
C 3.50899035 17.10839701 21.95997011 0.00421874 0.00682265 0.00848184
C 0.28832173 27.24902963 1.87086443 -0.00222803 0.00207231 0.00304729
C 3.15445956 24.02117986 3.06467675 0.01045274 -0.00754487 -0.00439244
C 0.29560065 26.95904557 6.43300949 0.00565996 0.00309303 -0.00282189
C 3.20941900 24.20412432 7.75210574 0.00407951 0.00193857 -0.00499805
C 30.88632000 26.94221890 11.30588664 0.00333363 0.01010342 0.00381641
C 2.88631260 24.12566046 12.58206494 -0.00413920 -0.00724222 -0.00873320
C 30.82151191 27.00383887 16.10868396 0.00167959 0.00043895 -0.00099313
C 3.07929586 24.04307913 17.31513590 0.00407748 -0.00206406 -0.00364271
C 0.01455325 27.31576630 20.83873372 -0.00082220 0.00756617 0.00747767
C 3.18797588 24.40520690 21.92309498 0.00684592 -0.00055537 -0.00003032
C 5.98414617 3.36844007 1.90519397 0.00614357 0.00308245 0.00490361
C 9.12546989 0.05687149 3.00043314 -0.00308768 -0.00105677 -0.00348020
C 6.25641605 3.17390423 6.34322890 -0.00055943 -0.00280974 0.00100541
C 9.04436871 0.05916265 7.90208247 0.01307498 0.00217566 -0.00303991
C 6.07771298 3.04991314 11.09745266 -0.00666612 0.00800836 0.00242182
C 9.09459761 0.03929062 12.41280600 0.00535283 0.00128065 0.00521286
C 5.86062455 3.11089006 16.01531375 -0.00471518 -0.00181934 0.00787774
C 9.16003605 0.29828984 17.20637259 -0.00447679 0.00063474 0.00719073
C 5.85896438 3.32267374 20.64841802 0.00297254 -0.00327938 0.00143321
C 9.16352043 0.18920633 21.89051936 -0.00963789 -0.00743100 -0.00101955
C 6.55718198 8.86632213 1.50133209 -0.00209154 -0.00253487 0.00556501
C 9.36662550 5.94109019 2.82409294 0.00830586 -0.00108270 0.00031235
C 6.52829886 8.95142238 6.43318234 -0.00436955 -0.00022041 0.00746096
C 9.85206388 6.01346431 7.62568131 -0.00307167 0.00446027 -0.00652052
C 6.68345524 8.66755557 11.04015901 -0.00306247 0.00015841 -0.00149897
C 9.32026656 5.89740909 12.39028429 0.00707785 -0.00465191 -0.00043557
C 6.33899653 8.79770421 15.66147137 -0.00214065 -0.00362417 -0.00648631
C 9.58740030 5.89014472 17.10697952 -0.00046241 0.00314352 -0.00145644
C 6.57606001 8.92170248 20.45343315 0.00289197 0.00211655 -0.00275797
C 9.61470538 5.74504546 21.75767715 -0.00011250 -0.00084882 -0.00064287
C 6.90485810 14.57235773 1.86097723 0.00485521 -0.00322076 -0.00284098
C 10.17850456 11.65901268 3.00296965 0.00358995 0.00034275 -0.00320172
C 6.89110758 14.57046556 6.51604492 0.00090947 0.00402378 -0.00549690
C 10.09620156 11.47143966 7.72046461 -0.00345691 0.00297675 -0.00515001
C 6.85423277 14.61900587 11.20401735 0.00567101 -0.00078459 0.00421686
C 10.01405416 11.50750543 12.42357830 -0.00091473 0.00428001 0.00186959
C 6.90176818 14.32825640 15.90337892 0.00262546 0.00691864 0.00312849
C 9.72200908 11.60171646 17.03310734 0.00675483 -0.00439181 -0.00187448
C 6.97798047 14.29958882 20.68127751 0.00146172 -0.00542411 -0.00438454
C 10.10335994 11.46567674 21.92740139 0.00755320 -0.00471441 -0.00095177
C 6.14303942 21.05759602 1.72992899 -0.01234613 -0.00643794 -0.01458891
C 9.40486953 18.42830628 3.14297935 0.00033561 0.00458281 0.00187876
C 6.16372188 20.87122693 6.34452415 -0.00119217 -0.00616074 -0.00274643
C 9.28887606 18.06973386 7.84961704 -0.00329131 0.00575006 0.00555245
C 6.14717109 21.11533125 11.09550548 0.00702114 -0.00158160 -0.00650266
C 9.33478025 18.24028713 12.59117026 -0.00256129 -0.00115414 0.00057865
C 6.19636091 21.27310631 15.72204606 -0.00487866 0.00423064 0.00239518
C 9.45106841 18.25245572 17.44965130 0.01008920 -0.00172003 0.00395133
C 6.06570312 20.96317007 20.57271747 0.00238777 -0.00899106 0.00875550
C 8.86543662 18.04274730 21.96815441 -0.00404692 -0.00057794 0.00063918
C 5.64063847 27.95445597 1.76902018 0.00406824 -0.00517360 0.00057308
C 8.92227911 24.69359403 3.08961862 0.00073236 -0.00467883 0.00129403
C 5.76402819 27.61043936 6.38701971 0.00083591 -0.00060448 -0.01027982
C 8.66379730 24.71002711 7.74443689 -0.00413836 -0.00783962 0.01045341
C 5.25466941 27.59543564 11.12156540 -0.00192105 -0.00234889 0.00673920
C 8.66323633 24.77179035 12.38626359 0.00422134 0.00111474 -0.00735134
C 5.38075338 27.82457523 15.89060219 -0.00536689 0.00224756 0.00365939
C 8.49677380 24.71784044 17.26545224 0.00198503 0.00354879 0.01088219
C 5.61089086 27.69291251 20.57866048 -0.00362221 -0.00134089 -0.00283638
C 8.48869608 24.71392711 21.91827071 -0.00399991 -0.00284069 0.00349646
C 12.61268095 2.73063667 1.75324749 0.00504424 -0.00211318 0.00212262
C 15.65288154 29.89880666 3.12974008 0.00095404 0.00098698 0.00291490
C 12.64340698 2.65841317 6.62770774 0.00400428 0.00137639 0.00015984
C 15.56750911 29.87212109 7.77780399 -0.00044484 -0.00205995 0.00050007
C 12.44162613 2.45817294 11.09044343 0.00160477 0.00206174 0.00381891
C 15.86873308 30.02902888 12.44707933 -0.00255104 0.00205387 -0.00266008
C 12.73792129 2.81701190 15.80923633 0.00645907 -0.00163030 -0.00493472
C 15.74251362 29.93017814 17.25572880 0.00122829 0.00334027 0.00331010
C 12.46696725 2.79305712 20.40987543 -0.00090189 -0.00433272 0.00032294
C 15.58550526 29.99530825 21.86827377 -0.00347187 -0.00142906 -0.00307524
C 13.04684689 8.42779735 1.68217414 0.00209358 -0.00028322 0.00462796
C 16.09264181 5.62909579 2.95363692 0.00637396 0.00757073 0.00260444
C 13.24128628 8.65701418 6.32508026 -0.00102554 -0.00506226 0.00447324
C 15.98681605 5.76662620 7.76964482 0.00041064 -0.00234091 0.00015825
C 13.15687708 8.19587592 11.13610273 0.00515387 0.00281664 -0.00772167
C 16.25568006 5.58864276 12.34174606 0.00533171 0.01144512 0.00246571
C 12.86191301 8.71077681 15.77108378 0.00135336 0.00789562 0.00006524
C 16.28185947 5.58891616 17.10016996 0.00249335 0.00186375 0.00052584
C 13.06798823 8.34731450 20.61068748 -0.00552660 0.00366659 -0.00122504
C 16.03234244 5.25820548 21.82609240 0.00351283 -0.00091642 -0.00739023
C 12.29522903 15.32673943 1.70511900 0.00742746 -0.00269927 0.00073881
C 15.61841212 12.25376857 2.81790523 0.00183426 0.01349984 0.00393376
C 12.49438504 15.24936366 6.64162176 -0.00113623 0.00219954 0.00227299
C 15.70699949 11.92533045 7.84953629 0.00568557 -0.00254676 -0.00006773
C 12.21470047 15.22066341 11.35003964 0.00200641 0.00575357 0.00146863
C 15.30827425 12.06121506 12.48629714 0.00011001 -0.00092541 -0.01166958
C 12.30677751 15.30090736 15.97920820 0.00152948 0.00092575 0.00016084
C 15.26081151 12.01485166 17.20726850 0.00431033 -0.00624373 0.00707795
C 12.31622029 15.17691627 20.52333188 0.00061076 -0.00159283 0.00180367
C 15.08397280 12.31472941 21.81182212 -0.00691715 -0.00389015 0.00104017
C 11.96982088 21.62164303 1.72645548 -0.00443088 0.00103002 -0.00749257
C 14.93070010 18.81511840 3.10609613 0.00161572 -0.00588109 0.00424256
C 11.81977265 21.64103887 6.63150880 -0.00702797 -0.00077090 -0.00420344
C 14.82873181 18.57620720 7.81118767 0.00567101 -0.00521352 0.00152090
C 11.93119443 21.52145100 11.20075874 -0.00105319 0.00384315 -0.01251874
C 14.84438738 18.65794620 12.53298632 -0.00081036 0.00556873 0.00577329
C 11.65364139 21.79050202 15.94040445 0.00188668 0.00224630 -0.00454895
C 15.04649374 18.56555197 17.19103714 -0.00218206 -0.00055130 -0.00489159
C 11.65997870 21.70891112 20.48324367 0.00064128 0.00499200 0.00427514
C 14.81206517 18.75431363 21.73243377 -0.00346057 0.00258917 -0.00064186
C 12.23550004 27.29800272 1.67079901 0.00621344 0.00090751 0.00889231
C 15.24697756 24.12930429 3.03899799 0.00351429 -0.00042594 -0.00007084
C 12.45657220 27.45320293 6.42512223 -0.00827816 0.00005463 0.00057868
C 15.36427482 24.20167174 7.67899926 0.00622847 0.00098313 0.00449567
C 12.12709920 27.37247768 11.14228994 0.00341893 -0.00104774 0.00217018
C 15.44424960 24.26812208 12.53505382 -0.00450057 -0.00188827 0.00025053
C 12.14378546 27.36293757 15.96704673 -0.00250419 -0.00422119 0.00879047
C 15.31030598 24.19489383 17.00415917 -0.00215482 -0.00389146 -0.00441053
C 12.16901911 27.23780205 20.62169126 -0.00152876 -0.00189277 -0.00622367
C 15.37872580 24.01521059 21.98056887 -0.00515887 0.00037090 0.00185171
C 18.92918368 2.33530105 1.67173583 -0.00407256 0.00242223 0.00693120
C 22.15385455 29.33391229 2.84211126 -0.00404472 0.00156205 -0.00565657
C 19.22525605 2.56903388 6.32771648 0.00641106 -0.00059614 0.00386880
C 22.00184544 29.54084702 7.56841188 -0.00058732 0.00162630 -0.00099923
C 19.14148397 2.48151861 11.05996084 0.00693932 -0.00752243 0.00152977
C 22.03436319 29.59131676 12.46079607 0.00239776 0.00397504 0.00763654
C 19.10495348 2.48371912 15.84197004 -0.00451484 -0.00511430 0.00606082
C 22.15895004 29.21333470 17.26887840 -0.00023288 0.00743059 -0.00278159
C 19.14546302 2.31428755 20.58764756 -0.00486520 0.00245640 0.00482655
C 22.38137600 29.49813675 21.87893722 -0.00507814 -0.00114564 -0.00382714
C 18.43689814 9.24401220 1.64312242 0.00135139 -0.00714501 0.00430156
C 21.65247728 5.89410840 2.88718038 0.00457955 0.00235328 -0.00199960
C 18.68834510 9.07937479 6.47497727 0.00420375 0.00876563 0.00025008
C 21.64634979 5.84628948 7.71453672 0.00156113 0.00545091 0.00158676
C 18.57321408 9.14018273 11.20586318 0.00012517 -0.00457464 -0.00219656
C 21.69713956 6.01590721 12.60670886 0.00015423 -0.00761747 0.00266940
C 18.33084311 9.20187673 15.98080377 -0.00866273 0.00696568 -0.00535542
C 21.79172792 5.99821292 17.33616128 0.00604708 -0.00855768 0.00323079
C 18.60031196 8.92753668 20.70618455 0.00110834 0.00495070 -0.00397261
C 21.69855581 5.80905788 21.90670742 -0.00520883 -0.00573904 0.00467773
C 17.95869830 15.49993973 1.60718786 -0.00494168 -0.00049735 0.00713776
C 20.98424214 12.77409123 2.96242247 -0.00739991 -0.00194663 0.00359376
C 18.00039589 15.61340414 6.35352533 0.00006586 0.00073087 -0.00311544
C 21.27537740 12.61890315 7.69633231 0.00019042 0.00229355 -0.00431432
C 18.08245069 15.48640865 11.10970876 -0.00093056 0.00642946 0.00169454
C 21.02257873 12.55021642 12.50493047 -0.00203262 0.00293271 0.00467195
C 17.85340009 15.70829136 15.90808151 0.00439110 -0.00196480 -0.00466887
C 20.95053135 12.54676107 17.22859721 0.00226548 -0.00782200 -0.00056878
C 17.65740937 15.71088819 20.52990525 -0.00940217 0.00049955 -0.00743681
C 20.84551123 12.53623108 21.89700860 0.00356023 0.00209694 0.00222747
C 18.35685665 21.25146353 1.79782362 0.00024778 -0.00379582 0.00249635
C 21.72015134 18.30420590 2.81199041 0.00170161 -0.00065442 -0.00087184
C 18.51726148 21.31545799 6.39243680 0.00725467 -0.00300439 0.00512881
C 21.34227149 18.11853845 7.62334305 0.00551478 0.00558494 -0.00006968
C 18.36316888 20.90286138 11.10658997 -0.00196215 0.00822762 -0.00361491
C 21.56565329 18.45324883 12.43703716 0.00083830 -0.00315095 -0.00308315
C 18.33781709 21.30189327 15.91266845 -0.00359654 0.00167886 -0.00198437
C 21.25178610 18.25395995 17.11261523 -0.00508273 -0.00132907 0.00178315
C 18.54011445 21.26512875 20.70629876 0.00101917 0.00080115 0.00434873
C 21.54769856 18.15965556 21.80826225 -0.00378010 0.00034000 0.00374707
C 18.57871649 26.94385820 1.54660351 -0.00254791 0.00309161 0.00258429
C 21.92002309 24.13109256 2.98266848 0.00329602 0.00029609 0.00360892
C 18.97550919 26.82483022 6.43743172 0.00052992 -0.00207779 0.00134618
C 21.88681956 23.79622235 7.99923930 0.00027631 0.00405274 0.00167187
C 18.74988505 26.80942890 11.17237220 -0.00052057 0.00166812 0.00590044
C 21.67332215 23.88782915 12.54404273 0.00961736 -0.00078428 0.00114550
C 18.92582398 26.79190421 15.80773989 0.00138033 -0.00105921 0.00029713
C 21.76768210 23.65299966 17.31030961 0.00792858 -0.00271444 -0.00785244
C 18.85771420 26.78509841 20.45957567 0.00054130 0.00244003 -0.00058054
C 21.71920269 23.49724733 21.97526105 -0.00492147 0.00275252 -0.00048321
C 24.65639168 2.74599737 1.88866593 -0.00267551 0.00187061 -0.00114024
C 28.18313569 30.13841238 3.02862462 -0.00582383 -0.00331087 0.00153156
C 24.51073269 2.95002141 6.54075990 -0.00308110 0.00042867 -0.00141555
C 28.11054413 0.02485837 7.82511275 0.00028868 0.00161658 -0.01168958
C 24.56926110 3.05314282 11.17197781 0.00054733 -0.00015164 0.00121178
C 27.83321750 30.09056134 12.40937513 0.00346063 0.00219874 -0.00833346
C 24.52263740 3.01105853 15.88332795 -0.00185180 -0.01011464 -0.00493437
C 28.06979483 30.13667807 17.07210674 0.00363145 -0.00263406 0.00230801
C 24.72959314 2.79533741 20.92430833 -0.00666521 -0.00854741 0.00825450
C 27.91480739 30.07372274 22.10047774 -0.00484808 0.00204298 -0.00951388
C 24.02757885 9.32693537 1.87490708 -0.00290195 -0.00801663 0.00209962
C 27.27664853 6.56202281 3.12278303 -0.00197501 -0.00608122 0.00072851
C 24.13555803 9.59938815 6.52808974 0.00266604 -0.00052143 -0.00309645
C 27.19599807 6.62300726 7.91516817 -0.00036669 -0.00146069 -0.00020775
C 24.17487795 9.64415248 11.24896207 -0.00502103 0.00114347 0.00552953
C 27.08687291 6.59295574 12.70738042 -0.00140209 0.00062234 -0.00160921
C 24.22952239 9.82166240 15.95427990 -0.00597396 -0.00146251 0.00518953
C 27.16775087 6.41246115 17.38583975 0.00616382 0.00225184 -0.00575641
C 24.10992887 9.60553858 20.75019507 -0.00993031 -0.00049839 -0.00559080
C 27.28439045 6.44292430 21.98577141 -0.00117066 -0.00464295 0.00083476
C 24.76207082 15.30423205 1.62275410 -0.00368164 -0.00257894 0.00005623
C 27.32812006 11.92124336 2.85048223 -0.00049589 -0.00155981 -0.00084686
C 24.53852684 15.08120929 6.19950576 -0.00557832 -0.00167177 0.00515786
C 27.57432639 12.21622567 7.81748107 -0.00258520 -0.00403927 -0.00178044
C 24.61082940 15.46206703 11.12345285 0.00445957 0.00235164 -0.00551851
C 27.33623652 12.39614869 12.54622917 0.00550055 -0.00063427 0.00255287
C 24.57992520 15.24035371 16.02559936 -0.00311252 0.00044711 0.00356740
C 27.82107561 12.32455017 17.03805680 0.00264712 0.00177953 -0.00123621
C 24.81620587 15.34914996 20.61564654 -0.00380678 -0.00452054 -0.00299357
C 27.54574818 12.25033148 21.99257583 -0.00019700 -0.00415384 -0.00460366
C 24.78909960 20.94445191 1.82028970 0.00124497 -0.00072142 0.00186681
C 28.20047039 17.99503270 3.05011987 -0.00325616 -0.00896066 -0.00484938
C 24.95036909 21.08057328 6.46254205 0.00781794 0.00080617 0.00750965
C 28.14791965 18.27569759 7.79027372 0.00108016 0.00082724 -0.00104185
C 25.12147477 21.09773228 11.29764067 -0.00212232 -0.00011461 -0.00760167
C 28.20781569 18.16595364 12.29418365 -0.00440518 0.00310045 -0.00198077
C 24.84598772 20.87810237 16.20616189 0.00819016 0.00185572 -0.00056836
C 28.11275248 17.93734962 17.11175341 -0.00384590 -0.00469299 -0.00614754
C 25.02311536 20.86451672 20.74614982 -0.00785860 0.00545180 0.00315264
C 27.89506376 17.96110199 21.91179367 0.00299779 0.00427264 -0.00268901
C 25.31847150 26.34169541 1.70096022 0.00378099 0.00020934 -0.00082102
C 28.22388577 23.45132658 2.98089947 0.00505052 0.00629385 -0.00534008
C 25.60917046 26.60339254 6.34946423 0.00001123 0.00440583 -0.00427280
C 28.53559980 23.54276905 7.70831001 0.00181031 -0.00056108 0.00245031
C 25.35359766 26.77959774 11.16488721 -0.00312404 -0.00731075 0.00150132
C 28.30530535 23.48501373 12.37086287 0.00014735 0.00525906 -0.00580572
C 25.33110487 26.39940701 15.98520613 -0.01279617 -0.00393694 0.00043279
C 28.47208892 23.48478693 17.19527520 -0.00048018 0.00230015 0.00501152
C 25.39794892 26.34036589 20.68691868 0.00047156 -0.01008505 -0.00046588
C 28.14433802 23.77159937 21.97749186 0.00113466 -0.00243356 -0.00541126
N 0.13041364 4.58093293 1.08930892 -0.00167157 -0.00662279 0.00476325
N 3.63377617 5.24938946 3.92719618 0.00492974 -0.00018374 -0.00025977
N 5.39230057 2.34846474 1.24907073 -0.00006876 -0.00216283 0.00109592
N 1.88025392 1.40528415 3.69692183 0.00106590 -0.00090312 0.00376476
N 0.44254920 4.43064562 5.82090259 0.00134513 -0.00093244 -0.00365153
N 3.62495557 5.33723534 8.67656037 -0.00006664 -0.00548766 -0.00223004
N 5.47551617 2.32214222 5.68718811 0.01087950 0.00019355 -0.00053354
N 1.74040983 1.67490938 8.42927481 -0.00187160 -0.00404881 -0.00450060
N 0.24397923 4.70096028 10.58607872 0.00105818 -0.00354204 -0.00453610
N 3.15447501 5.11603963 13.24395756 0.00110131 -0.00848926 -0.00092634
N 5.16983031 2.24689137 10.43396808 0.00374117 0.00281361 -0.00091089
N 1.43024664 1.42060271 13.32291633 0.00133164 -0.00511837 0.00599730
N 30.51560681 4.29988362 15.36348235 0.00003250 0.00348739 -0.00046068
N 3.31798936 4.90444343 17.96331363 -0.00291694 -0.00293622 -0.00370038
N 5.06473941 2.25082179 15.28254704 -0.00025553 0.00260355 0.00410738
N 1.52909623 1.20576879 17.95030527 -0.00221213 0.00037176 0.00211468
N 0.10880843 4.43083413 19.91342441 -0.00086327 0.00104037 -0.00783229
N 3.55636051 5.25726075 22.42682778 0.00640120 0.00092217 -0.00584002
N 5.15844476 2.38823667 19.99788866 0.00041659 0.00505019 -0.00462391
N 1.86877717 1.40399986 22.48930525 -0.00592703 -0.00238759 -0.00369263
N 0.49819628 10.15524720 1.03197289 -0.00156597 -0.00270240 -0.00605272
N 3.80974862 10.85065948 3.76050776 0.00243079 -0.00061613 0.00683277
N 5.76992699 8.00124129 0.77918139 -0.00258310 0.00183885 -0.00074674
N 2.35819085 7.10795701 4.10485020 -0.00379873 0.00096357 -0.00658450
N 0.58706182 10.15906082 5.88137956 -0.00275512 -0.00389677 0.00031114
N 4.02512990 10.80365995 8.66342892 0.00152103 0.00211720 0.00493690
N 5.79735094 8.08726201 5.72153058 0.00151877 -0.00631948 0.00166178
N 2.19701226 7.24059467 8.66713701 -0.00265559 0.00147825 0.00042755
N 0.57219084 10.21909985 10.60578182 -0.00104462 -0.00286194 -0.00201336
N 3.86149358 11.01446618 13.12786993 -0.00190730 0.00214563 0.00545096
N 5.78566102 7.88730061 10.34440442 -0.00284421 -0.00457137 0.00358831
N 2.40089887 7.27015885 13.29692550 0.00067103 -0.00216261 -0.00574562
N 0.78357706 10.11804763 15.21244548 -0.00048633 0.00203199 0.00209125
N 3.79700211 10.82817787 17.92014053 -0.00215484 -0.00182959 0.00469927
N 5.56839085 7.83149322 15.04724757 0.00049915 -0.00113753 -0.00004761
N 2.42229778 7.04393703 17.95840947 -0.00543284 -0.00571619 0.00437033
N 0.41573113 10.16284322 19.74305017 0.00001413 0.00806479 -0.00091265
N 3.87409054 10.63944709 22.56691798 -0.00308301 0.00655940 0.00372563
N 5.77461555 8.00893853 19.94111716 -0.00335975 -0.00016417 -0.00079941
N 2.42646059 7.20998046 22.79768963 -0.00843574 -0.00216767 0.00235578
N 1.05173661 15.49338494 1.12524752 0.00365592 -0.00332733 0.00307883
N 4.44674454 16.78884557 3.47389468 -0.00559565 -0.00317415 0.00392173
N 6.07218146 13.78831080 1.08491420 0.00318026 -0.00198332 0.00382760
N 2.79547833 12.95204784 3.96736906 0.00671874 -0.00075797 0.00238433
N 0.87840529 15.56170953 5.82280668 -0.00081420 -0.00180020 0.00787650
N 4.42315556 16.64589483 8.54942422 -0.00000137 -0.00249444 -0.00155696
N 6.02590575 13.79197869 5.77646539 -0.00282463 0.00204881 0.00180999
N 2.65269918 12.69703088 8.53566681 -0.00432510 -0.00305390 0.00368190
N 1.04016486 15.64064499 10.41538497 -0.00011818 -0.00400641 -0.00862881
N 4.20946105 16.71405399 13.42550237 -0.00064312 0.00103619 -0.00218840
N 6.20391736 13.59260603 10.48973204 -0.00523280 0.00679920 -0.00399942
N 2.46226616 12.84397147 13.17028440 0.00322048 0.00360291 0.00548021
N 1.06055556 15.73016918 15.39423299 -0.00378986 -0.01067399 -0.00047779
N 4.47724081 16.72529645 17.87971717 0.00365142 -0.00042006 0.00403538
N 6.09347591 13.53733627 15.19126361 -0.00040209 0.00251754 0.00473182
N 2.82462287 12.93179496 18.01058454 -0.00002471 -0.00470110 -0.00343094
N 0.91773835 15.70176897 19.78329622 -0.00393389 -0.00508766 0.00030322
N 4.46227200 16.44590888 22.65912881 0.00303964 -0.00326277 -0.00269171
N 6.11444337 13.46248870 20.00604336 -0.00084152 -0.00017476 -0.00314379
N 3.08262292 12.79370153 22.91410170 -0.00312445 -0.00407531 -0.00132007
N 1.40948768 21.75272689 0.83711079 0.00557958 0.01078743 -0.00271734
N 4.04488518 23.28242652 3.71819182 -0.00063331 -0.00044608 0.00014232
N 5.07558070 20.30657214 1.26957751 0.00235732 0.00036127 -0.00593241
N 2.61594972 18.23990517 3.60978020 0.00565620 -0.00312297 0.00162391
N 1.34548413 21.60774766 5.68374400 -0.00341927 -0.00041411 0.00438699
N 4.18215249 23.66280435 8.55562930 -0.00219249 -0.00339636 0.00084482
N 5.28122411 20.36190492 5.46118993 -0.00181321 0.00892286 0.00397602
N 2.73036151 18.24808606 8.56361569 -0.00053336 0.00989671 -0.00229626
N 1.31888422 21.52118813 10.70724130 0.00473097 -0.00932089 0.00408085
N 3.96869651 23.76318294 13.35044048 -0.00175898 0.00450883 0.00536401
N 5.24075517 20.30637735 10.49836744 0.00309649 0.00094115 0.00274113
N 2.35381059 18.15269655 13.38027890 0.00002009 -0.00149779 -0.00748328
N 1.64278511 21.50694438 15.28896997 -0.00147743 0.00365092 0.00562267
N 4.17985741 23.57102274 18.03173836 0.00511094 0.00104512 -0.00587863
N 5.33043052 20.43120309 15.08425907 -0.00194730 -0.00324678 0.00254339
N 2.99525767 18.39870238 18.27733501 -0.00032518 0.00007426 0.00604946
N 1.24265828 21.51751796 19.77268694 -0.00242789 0.00241534 0.00335432
N 4.23381302 23.74769234 22.55949721 -0.00076153 0.00541252 0.00263990
N 5.14624994 20.27436224 19.85450200 0.00454714 -0.00532698 -0.00744730
N 2.62163795 17.93996333 22.65777080 0.00179276 0.00051918 0.00597236
N 0.96525587 28.10783473 1.06876270 -0.00171898 -0.00253041 -0.00248044
N 3.55189666 30.01901755 3.77979539 0.00087873 0.00417411 -0.00410584
N 4.96924566 26.93838706 1.15802468 0.00233465 -0.00213715 0.00201556
N 2.30168683 24.70546471 3.85581263 -0.00459078 -0.00034274 0.00366250
N 1.15040674 27.85075645 5.84394623 -0.00530288 0.00852984 0.00111483
N 3.42736553 0.10617441 8.53988476 0.00267370 -0.00101147 -0.00531606
N 4.92795138 26.93923529 5.59367635 0.00078101 0.00210751 -0.00602740
N 2.12720817 24.63220167 8.44227248 0.00548659 -0.00321960 -0.00223130
N 0.82936012 27.70700818 10.50725627 0.00002937 0.00442842 0.00400918
N 3.10435360 30.13480014 13.10747314 -0.00814733 0.00288030 0.00830309
N 4.55581836 26.73391665 10.36387131 0.00049712 0.00282126 0.00818364
N 1.84836308 24.65756438 13.22226411 -0.00161188 0.00318283 -0.00434003
N 0.68076818 27.82164760 15.35102458 -0.00095026 0.00375574 0.00190182
N 3.31741923 29.84221048 17.79432437 0.00141661 0.00388308 0.00102017
N 4.60121587 27.11275303 15.07759475 0.00161168 0.00589311 -0.00217768
N 2.18708596 24.78014951 18.03929470 0.00017369 0.00443917 0.00068353
N 0.87332579 28.04653854 20.05655779 -0.00219816 0.00135096 0.00107732
N 3.42251775 29.89165248 22.78478744 -0.00367444 -0.00576140 0.00507203
N 4.67662083 27.03687976 19.84723883 0.00007552 0.00840676 -0.00704094
N 2.31790209 25.15921358 22.71036384 0.00500179 -0.00111327 0.00379684
N 6.86422320 4.05105663 1.16756307 -0.00360899 -0.00627892 0.00573771
N 10.13159749 5.02492879 3.51292531 0.00025196 -0.00206404 0.00338287
N 11.80291204 1.91185969 1.06093823 0.00253955 0.00467205 -0.00166987
N 8.59643169 1.16817867 3.57356458 -0.00358105 0.00231584 0.00013084
N 7.10036981 3.97226546 5.61738009 0.00162939 -0.00025168 -0.00387425
N 10.11789392 4.83240366 8.27586776 -0.00025253 -0.00101158 0.00136716
N 11.80488319 1.96531125 5.81646683 0.00209361 0.00156314 -0.00065317
N 8.66156977 1.15217488 8.59259230 -0.00075290 -0.00119181 0.00214578
N 6.81158511 3.82886633 10.33033377 -0.00293676 -0.00046107 0.00060893
N 9.78553546 4.72341768 12.88599292 0.00105923 -0.00041268 0.00264974
N 11.80008407 1.47579486 10.42716839 0.00049896 -0.00008856 0.00086434
N 8.44078058 1.06117772 13.08687956 -0.00003596 -0.00701459 0.00374821
N 6.47022243 3.98870800 15.18179632 0.00409010 0.00333441 0.00442315
N 10.07245304 4.71865608 17.72308449 0.00023202 0.00084600 -0.00222448
N 12.00949250 1.98689086 15.09214974 0.00226221 -0.00739990 0.01004594
N 8.38001737 1.23068154 17.79792500 0.00258049 -0.00140780 -0.00549531
N 6.63436247 4.13741790 19.92030706 -0.00126686 0.00391687 0.00031854
N 10.13501402 4.83381008 22.61341151 0.00325009 -0.01036283 0.00851023
N 11.73706526 2.01310505 19.64373734 0.00412967 -0.00086007 0.00215464
N 8.53351013 1.18524092 22.60691846 -0.00161947 0.00351705 0.00425130
N 7.15733254 9.89801162 0.81082200 0.00645164 -0.00164740 0.00652675
N 11.15401305 10.98031623 3.70303557 0.00048880 0.00118656 -0.00992396
N 12.19191132 7.55138771 1.16084200 0.00834247 0.00417315 -0.00527838
N 8.76106687 6.88257525 3.61052943 0.00197446 0.00862540 0.00303148
N 7.31848257 9.77448237 5.69117746 -0.00389866 0.00125452 -0.00570492
N 11.01468654 10.75932471 8.38784753 0.00145720 -0.00307477 0.00247419
N 12.28922492 7.85364623 5.65861485 -0.00219182 0.00129720 0.00174222
N 9.26436717 6.99409058 8.35466063 0.00140864 -0.00665133 -0.00459536
N 7.40236826 9.63370321 10.39216327 -0.00571777 -0.00132408 0.00202215
N 10.77829598 10.71978615 13.19706933 0.00326028 -0.00066105 -0.00701133
N 12.42986288 7.34916451 10.42260791 -0.00331326 -0.00010154 -0.00082351
N 8.86048781 6.69923327 13.36474418 0.00452340 0.00651602 -0.00065915
N 7.10039342 9.69291295 14.92764480 0.00534790 -0.00164031 -0.00308762
N 10.71111120 10.83969794 17.66424742 -0.00283604 0.00600698 -0.00571262
N 12.41107422 7.67580119 15.01523291 0.00331692 0.00829499 -0.00403711
N 9.27112728 6.97357294 17.85551962 0.00610032 0.00008124 0.00769637
N 7.09761313 9.77678053 19.56151942 -0.00290089 -0.00862806 0.00095077
N 10.93675060 10.57201753 22.47006459 0.00414285 -0.00069656 0.00036728
N 12.25793835 7.56133248 19.85984156 -0.00103369 -0.00375135 -0.00215787
N 8.98274554 6.77784811 22.29879092 0.00049342 -0.00534356 -0.00282542
N 7.52153655 15.52131419 1.10469226 -0.00623292 -0.00036624 -0.00342412
N 10.36232133 17.62916772 3.68248876 -0.00221806 -0.00075885 0.00112054
N 11.19895836 14.71347027 1.17559390 0.00552050 0.00184671 0.00153759
N 9.26784997 12.21991040 3.74726520 -0.00397912 0.00466840 0.00374463
N 7.73405767 15.41387400 5.82832687 0.00316183 0.00048072 0.00409514
N 10.15392353 17.60281531 8.74254858 -0.00474311 -0.00223393 0.00284519
N 11.64227658 14.51380961 5.88941454 0.00087550 0.00419540 -0.01072471
N 9.22198873 12.19797577 8.44241360 0.00107749 -0.00030286 -0.00378236
N 7.70528815 15.32363275 10.38798402 -0.00010331 -0.00336264 -0.00099592
N 10.10120399 17.53664638 13.47780941 0.00499394 0.00018549 -0.00384359
N 11.25426426 14.49825033 10.57297979 0.00120806 0.00480264 -0.00326839
N 9.03433736 12.20389662 13.03854275 -0.00311980 -0.00109007 -0.00491766
N 7.69753568 15.16081091 15.18974075 0.00481874 -0.00645812 0.00235897
N 10.42023474 17.63994311 18.12427543 -0.00621271 0.00030555 0.00055622
N 11.59226186 14.32640807 15.26320533 0.00155011 -0.00201241 0.00486213
N 8.97660211 12.42306781 17.79858212 -0.00056149 -0.00222884 -0.00096680
N 7.44090655 15.30971351 19.87021204 -0.00469331 0.00012782 0.00306081
N 9.87538211 17.67849767 22.78705007 0.00006184 -0.00464053 -0.00321094
N 11.69486817 14.25429705 19.73332143 -0.00033989 0.00199039 0.00603162
N 9.37069232 12.26496307 22.69086231 -0.00256917 -0.00000123 0.00057267
N 6.83987934 21.71558429 0.83486894 0.00393644 -0.00386538 -0.00188350
N 9.65756544 23.81180392 3.86792813 -0.00158769 0.00456563 -0.00435303
N 11.02097591 20.79526144 1.17008752 0.00232896 0.00263141 -0.00140075
N 8.61507254 19.11259934 4.02959046 -0.00666279 -0.00480970 0.00001756
N 7.04294904 21.76020035 5.74118699 -0.00194978 -0.00338271 -0.00520900