2000
Time=69000.00000006 pbc="T T T" Lattice="31.28362303 0.00000000 0.00000000 0.00000000 29.94907119 0.00000000 0.00000000 0.00000000 23.74127555" energy=-12041.95594621 virial="-28.80342699 -0.39212399 -3.27232277 -0.39212399 -18.69958716 2.10190907 -3.27232277 2.10190907 -38.01535317" stress="0.00078871 -0.00003013 -0.00017484 -0.00003013 0.00116368 0.00009258 -0.00017484 0.00009258 0.00103972" Properties=species:S:1:pos:R:3:vel:R:3
C 30.88586069 3.62642931 1.58622422 0.00842379 -0.00034606 0.00601894
C 2.76251956 0.30346857 3.04315260 -0.00561372 -0.00399843 -0.00036132
C 30.45568429 3.68429311 6.33634192 0.00165443 -0.00096796 0.00610918
C 2.52303946 0.60972913 7.97339701 0.00086658 0.00672729 -0.00592806
C 30.63564523 3.53760791 10.98745918 -0.00225186 0.00203379 -0.00182356
C 2.45786629 0.60775846 12.64099799 -0.00489440 -0.00033469 0.00223382
C 30.67854602 3.51561291 15.97190028 -0.00082704 -0.00022839 -0.00006621
C 2.63127334 0.56727212 17.39314266 0.00291926 -0.00305520 -0.00005362
C 30.70852359 3.49560651 20.84479997 -0.00113785 0.00371596 -0.00056154
C 2.77598483 0.52996873 22.10281336 0.00091899 -0.00335393 -0.00504771
C 31.16389942 9.15109709 1.67748973 -0.01016892 0.00474294 0.01058556
C 2.92220909 6.04868278 3.07956734 0.00831173 -0.00372496 0.00169586
C 31.15985174 9.07309780 6.26473450 0.00165245 -0.00565615 -0.00263622
C 2.90673957 5.95559018 7.86447893 0.00025159 0.00255284 0.00588685
C 31.01262418 9.14352491 11.08935419 -0.00435447 -0.00108650 0.00853873
C 2.72465174 6.19802172 12.55190848 0.00103910 0.00727618 0.00402554
C 30.89190376 9.18749322 15.81464772 0.00757634 0.00164336 0.00186562
C 3.06999761 5.91830699 17.16861148 -0.00551170 0.00181172 -0.00302655
C 0.00555394 9.38484483 20.65203179 0.01109665 0.00203373 -0.00111313
C 2.97900750 6.03591044 21.86035623 -0.00388312 0.00145991 -0.00325089
C 0.13509972 14.75913624 1.87039890 0.00427571 -0.00066153 0.00179756
C 3.43187042 11.85977646 2.91347924 -0.00037516 0.00511582 -0.00267705
C 0.48582544 14.72643554 6.43096238 0.00468147 0.00051927 0.00320125
C 3.30289910 11.75227894 7.62943733 -0.00531855 -0.00416470 0.00858462
C 0.31044983 14.47249322 11.22154548 0.00234469 0.00187879 -0.00184008
C 3.26655815 11.95894172 12.52452401 0.00516026 0.00009403 0.00165998
C 31.22894317 14.71083175 15.90443060 -0.00765874 0.00002815 -0.00031555
C 3.09984071 11.63917287 17.16601384 0.00030104 0.00006960 0.00162163
C 0.27804910 14.63654955 20.75216884 -0.00790553 0.00171101 -0.00063977
C 3.55279917 11.89386518 21.85539520 -0.00083575 0.00789234 -0.00531652
C 0.92406610 20.33253990 1.89045514 0.00459287 0.00203148 -0.00432191
C 3.87919273 17.39144533 3.15281703 -0.00528540 0.00061413 -0.00071038
C 0.79095052 20.27292584 6.52915125 -0.00703665 -0.00730976 0.00152979
C 3.85748698 17.61579442 8.00253371 0.00174286 0.00581373 0.00092945
C 0.56383614 20.36801334 11.20144238 0.00797729 -0.00585321 0.00255734
C 3.63706356 17.41427970 12.70489950 0.00108012 -0.00047086 0.00375070
C 0.71121478 20.14231053 16.11356832 -0.00063577 -0.00044195 0.00552911
C 3.38415242 17.25604384 17.21923574 0.00155035 -0.00158230 -0.00440168
C 0.66861982 20.46263129 20.88335953 0.00158631 -0.00633305 0.00344556
C 3.54265393 17.44648259 22.25505909 -0.00262382 0.00511395 -0.00030405
C 31.07560522 27.06155313 1.92024357 -0.01080476 0.00820708 0.00343536
C 3.21071737 24.21426645 3.36977462 0.00229743 0.00009507 -0.00479371
C 0.07442556 27.12808104 6.55259310 -0.00460752 -0.00042169 -0.00222419
C 3.13215373 23.94981490 7.97938588 -0.00208487 0.00427220 0.00968473
C 31.25434723 27.02905466 11.14486386 0.00232118 -0.00012541 0.00147170
C 2.96281711 23.64126321 12.61112746 -0.00403056 0.00649044 0.00619128
C 31.09974464 27.01244418 16.22273623 0.00264962 0.00373879 0.00262966
C 3.04032182 24.19473553 17.47723554 0.00117666 -0.00550491 -0.00239273
C 31.27279233 26.94656019 20.86366109 0.00086241 -0.00607505 0.00116670
C 3.02850503 23.96030435 22.36007607 0.00546006 -0.00038624 0.00087669
C 5.86915407 3.38033527 2.02492446 -0.00198466 -0.00245668 0.00379419
C 9.44775430 29.91745871 2.94004034 0.00432034 0.00637538 -0.00249568
C 6.45251387 3.22049897 6.53850071 0.00420124 -0.00342040 -0.00710966
C 9.34111717 0.19201375 7.69401223 -0.00152729 0.00023086 -0.00498634
C 5.96273712 3.06591643 11.29154466 0.00356377 0.00901097 -0.00193111
C 9.08782464 0.06788308 12.38498631 -0.00509411 0.00709298 -0.00674898
C 6.06205802 3.27650612 16.00146964 -0.01054443 0.00310892 -0.00095985
C 9.08987291 0.19693952 17.29028946 -0.00492772 0.00084241 -0.00376082
C 6.08913164 3.18950932 20.91520533 -0.00449697 0.00040437 0.00292769
C 9.25628175 0.29535838 21.89339816 0.00294065 -0.00654939 0.00664222
C 6.33468845 8.79278644 1.69100085 -0.00316546 0.00262327 0.00545126
C 9.84080321 5.81512813 3.02567581 0.00458400 -0.00569145 0.00731534
C 6.28039489 8.72589670 6.50509450 0.00253952 0.00273309 0.00088642
C 9.80297791 5.83290616 7.83030129 0.00082585 0.00032395 -0.00279842
C 6.53658497 8.60895844 11.23814871 0.00225509 0.00412935 -0.00126412
C 9.41811690 5.61761218 12.58379740 -0.00382533 0.00180866 -0.00394333
C 6.31863843 8.71215946 15.80329279 -0.00211452 -0.00010839 0.00042856
C 9.66270412 5.96668300 17.11214118 0.00530549 -0.00097970 -0.00172172
C 6.32507319 8.82787289 20.36171733 0.00667938 0.00058277 0.00302098
C 9.58099809 5.90558196 21.85657748 -0.00250067 -0.00072436 -0.00134669
C 6.85462487 14.49550774 1.72219743 0.00015751 -0.00023857 -0.00778186
C 9.96335225 11.36609425 2.76439265 0.00501455 0.00074797 -0.00086588
C 7.02820690 14.32573280 6.63544449 -0.00452120 0.00619092 0.00006914
C 9.76695943 11.30127837 7.74365168 0.00358725 0.00558848 -0.00099867
C 6.93946203 14.30668513 11.40794205 -0.00158098 0.00267198 0.00509354
C 10.04857770 11.52679658 12.46864462 -0.00423734 0.00493554 -0.00112343
C 6.69424412 14.22075158 15.97970052 -0.00043490 0.00160149 0.00018322
C 10.14213540 11.42994844 17.01012698 -0.00204922 -0.00456229 0.00165615
C 6.77527092 14.18764390 20.70192072 0.00400459 -0.00537363 0.00192376
C 9.77085223 11.44186826 21.81775591 0.00305292 -0.00993245 0.00548219
C 6.27824721 21.23676005 1.92402617 -0.00028421 0.00390328 0.00044772
C 9.27910619 17.76097783 2.99646625 -0.00141953 0.00642374 -0.00219586
C 6.42161818 21.05667755 6.63252686 -0.00416549 -0.00629870 0.00122577
C 9.38052966 17.88647734 7.82024787 -0.00097992 0.00576009 0.00080561
C 6.32584908 21.09028121 11.28310079 -0.00194243 -0.00769961 -0.00669408
C 9.42973733 17.84805863 12.67045750 -0.00130856 0.00035721 0.00006546
C 6.27137973 20.93015965 16.12212020 0.00178886 -0.00323592 -0.00922299
C 9.04714824 17.78471483 17.50445390 0.00594635 -0.00026259 -0.00237818
C 6.32794284 21.09859804 20.91968353 0.00599517 0.00710559 -0.00874490
C 9.35446987 17.99076272 22.14527155 -0.00128328 -0.00334961 0.00327922
C 5.59881037 27.58956136 1.80604962 0.00488643 -0.00218748 -0.00909665
C 8.64744909 24.65585013 3.04380178 0.00111043 -0.00549480 0.00290695
C 5.80167447 27.77728865 6.73588392 -0.00399320 -0.00159142 -0.00454195
C 8.82389978 24.58825491 7.92647022 0.00189141 -0.00495444 0.00392830
C 5.53160905 27.42910810 11.45854072 0.00230017 0.00745021 -0.00234698
C 8.74365687 24.67809975 12.67109940 -0.00188053 0.00087052 -0.00468720
C 5.70520601 27.58701009 16.02955930 0.00312835 -0.00689225 -0.00063686
C 8.75728326 24.54665620 17.33900437 -0.00183463 -0.00889061 0.00333947
C 5.59132846 27.41322978 20.86221083 -0.00014691 0.00493330 0.00526169
C 8.76575255 24.65146422 22.00326040 -0.00276031 -0.00107882 -0.00727398
C 12.58850617 2.99442158 1.87938775 -0.00142323 -0.00123677 -0.00670836
C 15.91793505 29.76696979 3.05089976 0.00251674 0.00093763 -0.00429274
C 12.78708174 2.75581014 6.54653157 -0.00060866 -0.00270340 -0.00856090
C 16.03395766 29.89061669 7.59710912 -0.00049595 -0.00047604 0.00383132
C 12.65779991 2.69351897 11.16916095 -0.00317074 0.00318362 0.00231266
C 16.01411118 29.75327054 12.48308084 0.00072079 -0.00154792 0.00274917
C 12.50231325 2.65996315 15.72043255 -0.00704041 -0.00283215 -0.00133164
C 15.76167687 29.79439391 17.29818730 0.00115804 -0.00322401 -0.00093460
C 12.57413347 2.68117728 20.48032155 -0.00079263 0.00597877 0.00137021
C 15.80594265 29.88826090 22.07095374 0.00072022 -0.00537225 0.00670439
C 13.21897040 8.15130914 1.57555123 0.00467017 -0.00143716 0.00317092
C 16.35255935 5.52763431 2.88871619 0.00317137 -0.00641279 0.00583173
C 13.13342144 8.39370534 6.51085341 0.00187478 0.00818254 -0.00493097
C 16.00204271 5.24475680 7.64527217 0.00439478 -0.00264151 -0.00780809
C 13.32604113 8.32370058 11.17017896 -0.00017014 -0.00171335 0.00100212
C 16.17995123 5.35819330 12.43530620 -0.00066996 -0.00224702 0.00008663
C 13.23161498 8.53563447 15.84376012 0.00185024 -0.00636793 0.00215107
C 16.05088997 5.29722513 17.10824876 -0.00772705 -0.00375814 0.00110818
C 13.06488719 8.47307674 20.63504875 0.00332609 0.00197654 0.00074828
C 16.31089359 5.28484130 21.98782566 0.00322819 0.00644472 -0.00655945
C 12.35196514 14.89642137 1.75796521 -0.00343449 0.00328093 -0.00259146
C 15.44029537 11.78550769 2.90272351 0.00207019 0.00057350 0.00389772
C 12.48212092 14.66774008 6.29019439 -0.00344406 0.00672408 -0.00028805
C 15.75652688 11.81435934 7.70378855 -0.00187980 0.00158830 -0.00153864
C 12.38993071 14.78413642 11.11396496 0.00174730 -0.00233639 -0.00090772
C 15.53719492 12.02110040 12.40882850 -0.00585218 -0.00127876 -0.00057802
C 12.28710795 15.12256726 16.00431354 0.01154796 0.00464731 0.00533895
C 15.91959557 12.32864737 17.19146405 -0.00003027 -0.00145291 -0.00015562
C 12.55564363 14.77823798 20.69800088 0.00038199 -0.00024672 -0.00415750
C 15.55490429 11.72177045 21.86659369 -0.00337516 0.00799393 -0.00346733
C 11.58744986 21.57354088 1.82872454 0.00012995 0.00812248 -0.00408190
C 14.74419133 18.48212799 3.12023647 0.00173861 -0.00110249 0.00338060
C 11.85633708 21.55342094 6.48255209 0.00210640 -0.00001222 0.00207468
C 14.93996725 18.58210716 7.77714483 0.00276819 -0.00164036 -0.00455490
C 11.86395482 21.66413468 11.36315357 -0.00381567 0.00070036 -0.00640523
C 14.73965066 18.41949057 12.56401524 0.00094689 0.00067447 0.00430811
C 11.77867682 21.52231720 16.22382593 -0.00998478 -0.00232782 -0.00493314
C 14.68023447 18.29124712 17.31937860 -0.00029353 -0.00469961 0.00168595
C 11.42966636 21.64502978 20.68560265 -0.00078088 0.00690196 -0.00225629
C 15.08693677 18.58016509 22.07805408 -0.00486735 0.00220704 0.00462928
C 12.31439127 27.13532991 1.62601528 -0.00490042 -0.00075757 0.00295664
C 15.59018249 24.21446137 3.04092827 -0.00295324 -0.00033784 0.00218662
C 12.11588406 27.32982703 6.58276984 -0.00162188 -0.00735278 -0.00038179
C 15.18429234 24.25863415 7.73398637 -0.00088178 -0.00649541 0.00434611
C 12.57804637 27.27146884 11.10023390 0.01090833 0.00067985 -0.00045040
C 15.26567856 24.18716649 12.74961817 0.00206126 0.00168777 0.00210703
C 12.32425989 27.27456895 15.88546704 -0.00258247 -0.00668783 0.00038911
C 15.26224908 24.05991869 17.42037651 -0.00835722 0.00287055 -0.00012091
C 12.48392810 27.23956964 20.56956528 0.00379591 0.00384158 -0.00744283
C 15.25161265 24.13951382 22.06440663 0.00083543 0.00421672 -0.00403385
C 19.57693275 2.34894301 1.51409074 0.00042631 0.00304075 -0.00276896
C 22.56588258 29.29431734 3.11461530 0.00297761 -0.00071688 0.00234506
C 19.36174463 2.48714402 6.34593702 -0.00099124 0.01061299 -0.00072002
C 22.62133319 29.32004539 7.86386188 -0.00712174 -0.00701554 0.00598683
C 19.34411577 2.47900576 11.05219583 0.00079374 -0.00312697 0.00576765
C 22.29360383 29.14109630 12.73841294 0.00627640 0.00357328 0.00376044
C 19.55531637 2.43457611 15.78348168 0.00260536 0.00194166 -0.00292458
C 22.42634254 29.40653356 17.28147323 0.00069564 0.00615212 0.00125629
C 19.65571533 2.52742058 20.51575623 0.00488448 -0.00399874 -0.00248060
C 22.72512726 29.26645177 21.88509315 -0.00050397 0.00225336 -0.00307952
C 18.89346066 8.83467570 1.69814121 -0.00181277 -0.00330618 0.00628744
C 21.97765476 6.02060272 3.12325306 0.00800014 -0.00111363 0.00061554
C 18.73522646 8.94337808 6.39998880 0.00032113 -0.00304787 0.00024045
C 21.99261673 6.19020976 7.88207891 -0.00113588 -0.01238585 -0.00118310
C 18.75445150 8.75280851 11.21300113 0.00526396 -0.00071061 -0.00174709
C 21.92913642 6.19888953 12.63036160 -0.00570400 -0.00296664 0.00017558
C 18.88148051 9.09867853 16.06458794 0.00187439 0.00015022 -0.00591540
C 22.11231931 6.12568117 17.18596860 0.00167016 -0.00063192 -0.00353206
C 18.74518395 8.92074519 20.63599659 -0.00509361 0.00016486 0.00111642
C 22.17375871 5.96770357 21.96388205 -0.00047071 0.00414717 0.00249623
C 17.99246132 15.54800753 1.51538227 0.00520102 -0.00218728 -0.00450880
C 21.31137639 12.77627705 2.92014101 0.00148049 -0.00034735 0.00749670
C 17.95988665 15.53211393 6.43182825 0.00104390 -0.00317548 0.00593159
C 21.07558382 12.71475714 7.49704063 -0.00001496 0.00497377 0.00443010
C 18.00749093 15.50555229 11.20257762 0.00127003 0.00156544 -0.00050471
C 21.01153523 12.34249729 12.44672847 0.00180162 -0.00049153 0.00071061
C 17.99129563 15.63958771 16.14027804 -0.00163454 0.00287279 -0.00631804
C 21.59738045 12.43921212 17.15136376 -0.00358871 -0.00852216 -0.00282378
C 18.22953702 15.82338089 20.57462758 0.00582996 -0.00103886 -0.00242785
C 21.48660209 12.70694183 21.75706592 0.00055707 -0.00286855 -0.00217888
C 18.29943646 21.12596798 1.74945959 0.00254743 -0.00985179 -0.00235150
C 21.45514470 18.02108278 2.92233300 -0.00234139 -0.00445640 -0.00652382
C 18.66530682 21.03292633 6.32587248 0.00319378 -0.00168936 0.00133953
C 21.31043034 17.95994217 7.74134792 0.00122223 -0.00079767 0.00109205
C 18.31853925 21.16819569 11.10767958 -0.01017415 0.00546044 0.00714485
C 21.54008674 18.11734822 12.59603683 -0.00457982 0.00194969 0.00126885
C 18.53999238 21.14508032 16.08153146 -0.00422310 -0.00094156 -0.00245728
C 21.75752531 18.14368289 17.23800867 0.00842156 0.00640727 0.00139413
C 18.27745295 21.24820419 20.90159886 -0.00172677 -0.00755878 0.00430461
C 21.69209169 18.30682037 21.96790036 -0.00043951 -0.00142228 0.00233916
C 19.15036602 26.69226825 1.65373250 0.00203221 -0.00251447 0.00150897
C 22.26601132 23.76422974 3.09249803 0.00518521 0.00143302 0.00032348
C 19.18801408 26.88885080 6.47319767 0.00477646 0.00087540 -0.00167129
C 22.21400184 23.68564481 7.80844750 -0.00186839 0.00086361 -0.00173919
C 19.38835205 26.75481877 11.23930874 0.00400397 0.00350502 -0.00299109
C 21.91066513 23.52112595 12.59055349 -0.00184658 0.00833416 0.00014482
C 18.99970006 27.04854177 15.99363865 0.00649314 0.00118529 -0.00399052
C 21.64097732 23.57484714 17.35715466 -0.00035516 0.00220372 0.00109783
C 18.78562382 26.93587767 20.60871103 0.00532669 -0.00332493 -0.00701802
C 22.38139994 23.92123765 22.04453659 -0.00494963 -0.00447254 0.00103480
C 25.47280592 2.86787767 1.52148187 0.00085141 -0.00006062 -0.00080256
C 28.17071908 0.11595221 3.18594870 0.00114235 -0.00077433 0.00056521
C 25.09686707 2.92542699 6.54728630 -0.00089162 -0.00069081 -0.00228525
C 28.05418467 0.12587034 7.80593947 -0.00684604 0.00042732 0.00271119
C 25.12221828 2.85083915 11.33924784 0.00369651 0.00020954 -0.00235531
C 28.06427868 0.00334250 12.49524223 0.00021575 0.01024214 0.00111619
C 25.07473328 3.23074275 15.77231036 0.01140427 -0.00462895 -0.00609250
C 28.34930359 0.07713883 17.42107878 -0.00489639 -0.00248265 -0.00350941
C 25.00194164 3.07771633 20.64201006 0.00158433 0.00009571 -0.00625588
C 28.39015483 0.21510289 22.29352547 -0.00183296 -0.00354715 0.00158595
C 24.43677650 9.77192572 1.64884522 0.00147578 -0.00045566 -0.00275002
C 27.30519708 6.56906788 2.71440592 0.00663516 0.00307887 0.00528680
C 24.41628269 9.85407479 6.24440860 0.00155028 0.00642496 -0.00474324
C 27.42443526 6.73611165 7.51448791 -0.00969267 0.00471102 -0.00477983
C 24.43968387 9.62377407 11.15324691 0.00497980 -0.00447698 0.00844582
C 27.70303810 6.70740987 12.27511158 0.00241475 -0.00075096 0.00267388
C 24.51111250 9.54304011 15.90483224 0.00614486 -0.00340421 0.00225333
C 27.81378180 6.88802625 17.19513037 -0.00457196 -0.00379758 -0.00006785
C 24.51028829 9.66591195 20.66713204 0.00264265 0.00269486 -0.00103949
C 27.98940536 6.59248539 21.82377077 0.00003598 -0.00346381 -0.00247203
C 24.94938579 15.40046426 1.48320383 -0.00065636 -0.00149273 -0.00924218
C 27.76643932 12.26816217 3.07465178 -0.00086657 -0.00176835 0.00167731
C 24.60802094 15.45942927 6.40557751 0.00421677 -0.00250344 -0.00679184
C 28.02608867 12.34288847 7.66316689 -0.00606890 0.00236510 0.00122694
C 24.66052258 15.22614152 10.97920158 -0.00934349 -0.00398269 0.00652734
C 27.84074788 12.30370862 12.44384949 0.00085545 0.00388770 0.00314441
C 24.97201495 15.14738305 15.77256599 0.00241946 0.00849148 -0.00653176
C 27.94966018 12.11742726 17.22855550 0.00127486 -0.00976123 -0.00556260
C 24.85160961 15.19524745 20.55251305 -0.00493865 0.00241924 -0.00597173
C 27.93703779 12.08713544 22.07664198 -0.00177642 0.00144203 0.00482456
C 25.07779705 20.62793926 1.84630610 -0.00501808 0.00024097 0.00279038
C 28.59717493 17.75026286 3.02369679 0.00412811 0.00123502 0.00625906
C 25.43546389 20.50561507 6.47896931 -0.00668394 0.00508867 0.00314073
C 28.57581484 17.65075628 7.76965625 0.01041388 -0.00642692 -0.00409282
C 25.21606676 20.61227617 11.11033574 0.00061351 -0.00032603 -0.00300321
C 28.40047171 17.87969819 12.49558669 0.00732052 -0.00039125 0.00312631
C 25.31932989 20.73972816 16.08226603 0.00281752 -0.00109846 0.00441802
C 28.35779033 17.67020474 17.33452007 0.00195889 -0.00754578 0.00028241
C 25.27160553 20.70925749 20.73146866 -0.00122757 0.00623812 -0.00173494
C 28.49125965 17.73265142 21.98275548 0.00505191 -0.00277429 0.00119609
C 25.60216833 26.35812630 1.86831836 -0.00196166 -0.00036043 -0.00217487
C 28.78022232 23.43384744 3.09228035 0.00166523 0.00597597 0.00455299
C 25.81912635 26.27502895 6.71474475 0.00835292 0.00698136 -0.00554332
C 28.82580209 23.39371721 7.81690646 0.00367946 0.00609261 0.00146384
C 25.90854553 26.29645568 11.36841817 0.00406194 -0.00388157 0.00093403
C 28.68354899 23.09066270 12.56495128 0.00564838 0.00000709 -0.00421570
C 25.52512641 26.39109476 16.01847610 0.00276761 -0.00380854 -0.00296660
C 28.92045485 23.25042694 17.54141438 -0.00183783 0.00335203 0.00317483
C 25.60704909 26.23804762 20.60832860 0.00186678 0.00041163 -0.00431374
C 28.61619180 23.20155542 22.23631409 -0.00166938 0.00190136 -0.00456416
N 0.32666465 4.52586577 0.87977157 0.00211542 0.00307410 0.00992111
N 3.59503932 5.20787454 3.90973169 -0.00341058 0.00570428 -0.00301379
N 5.24389301 2.44732987 1.26471259 -0.00850528 0.00268207 -0.00372459
N 1.81251593 1.10090612 3.57177052 -0.00299159 -0.00107149 -0.00321059
N 0.06605362 4.38988421 5.64110264 0.00347268 -0.00204528 -0.00015400
N 3.51033477 5.03845428 8.68975996 0.00416855 0.00000199 -0.00303421
N 5.83994463 2.26783373 5.80322060 0.00024677 -0.00326274 -0.00343793
N 1.75324908 1.52482207 8.62582222 0.00801563 -0.00049208 -0.00889537
N 31.24749855 4.39435180 10.20827344 0.00024518 -0.00146385 -0.00408857
N 3.39862251 5.20470812 13.18072643 0.00202492 0.00119803 -0.00789880
N 5.15384235 2.25454456 10.56909515 0.00688746 -0.00340971 -0.00330724
N 1.59003083 1.43958391 13.25801268 -0.00580330 -0.00456191 0.00884438
N 0.21600734 4.23085813 15.19584782 0.00615160 0.00066042 -0.00201043
N 3.56490782 4.89710743 17.91015453 0.00448920 -0.00195567 -0.00557287
N 5.15166750 2.59099410 15.29695532 -0.00713645 -0.00226323 -0.00098214
N 1.86901015 1.31281854 18.25265944 0.00134458 0.00194748 0.00753817
N 0.28173745 4.17660501 20.02159446 -0.00127328 -0.00331303 0.00205681
N 3.64058389 5.03139192 22.64019397 0.00175997 -0.00297500 0.00226804
N 5.39067632 2.22615568 20.21644150 0.00144826 -0.00004584 0.00153186
N 2.13973314 1.39188774 22.95469739 0.00314290 -0.00035519 -0.00061093
N 0.84797384 9.77290608 0.90091602 0.00368090 0.00114537 -0.00015517
N 3.73075193 10.72580211 3.56487440 -0.00279643 -0.00664605 -0.00005216
N 5.62008140 7.88347123 1.00606775 -0.00219999 -0.00644160 0.00243692
N 2.18040780 7.00510342 3.77187260 -0.00389705 -0.00124620 -0.00359440
N 0.50564230 10.06624495 5.51140150 0.00787868 0.00334728 -0.00137935
N 3.79347331 10.65444849 8.37390153 -0.00007410 -0.00020069 -0.00189591
N 5.49497347 8.04460098 5.70379337 -0.00345790 0.00495758 0.00624091
N 2.08405206 6.87821755 8.38952751 -0.00584447 -0.00040300 -0.00052183
N 0.71033509 9.89540054 10.41885355 0.00805140 0.00564287 -0.00086640
N 4.04828816 11.13753466 13.19826632 0.00066066 0.00158632 0.00002934
N 5.73713875 7.73143059 10.56881546 0.01018730 0.00160709 0.00238181
N 2.46906677 7.34955246 13.22454135 0.00197690 0.00287205 0.00278103
N 0.51913065 9.95222095 15.25963497 -0.00261495 0.00241236 0.00290648
N 3.98534936 10.77030463 17.70376166 0.00269614 -0.00348165 -0.00055081
N 5.48705911 7.91187595 15.10967272 0.00046931 -0.00069771 0.00690423
N 2.18032912 6.74361279 17.84176508 -0.00317283 0.00170918 0.00009415
N 0.66175393 10.28048151 19.91014979 0.00319537 -0.00754135 0.00081034
N 4.35227020 11.19248952 22.74147382 0.00345636 -0.00344517 0.01030285
N 5.63351107 7.96326277 19.63560669 -0.00457127 0.00108854 -0.00275714
N 2.59782920 7.10057403 22.59580806 0.00092119 0.00183903 -0.00019750
N 1.03988513 15.57393941 1.22927810 -0.00172815 -0.00512125 0.00056774
N 4.63521089 16.49353521 3.81412003 0.00001942 -0.00084386 -0.00220826
N 6.05873676 13.63722736 1.05013291 -0.00257514 -0.00407574 0.00075845
N 2.70637177 12.79148384 3.63344527 -0.00694360 0.00375975 -0.00195342
N 1.29997171 15.46902052 5.69473271 -0.00404635 0.00089639 0.00699892
N 4.60530321 16.73362038 8.70299425 -0.00510435 0.00724866 0.00867229
N 6.00220134 13.56211653 6.13152197 -0.00287514 -0.00506822 0.00321111
N 2.76645521 12.74569037 8.32403470 -0.00080505 -0.00069660 0.00906944
N 1.39650181 15.03066330 10.60353879 -0.00155746 -0.00113056 -0.00409574
N 4.66324981 16.90577740 13.45058456 0.00400390 0.00138166 -0.00054720
N 6.16532069 13.47144833 10.67462248 -0.00068207 -0.00115885 -0.00278355
N 2.66511935 12.94985518 13.31445044 0.00260759 -0.00466277 -0.00154483
N 0.66114643 15.65662023 15.22752268 0.00617873 0.00101823 0.00143304
N 4.38473029 16.55474084 17.86448794 -0.00296523 0.00196776 0.00180577
N 6.07026606 13.39755111 15.18208032 0.00169555 0.00139452 -0.00207924
N 2.59371024 12.57016133 18.01564948 0.00830562 -0.00633549 0.00016369
N 0.97984760 15.58285215 20.10528153 -0.00551001 -0.00080275 -0.00425676
N 4.36476740 16.58004988 22.89708032 0.00078876 -0.00539326 0.00767633
N 6.21445477 13.22424748 19.89492869 -0.00068310 -0.00543420 0.00365197
N 2.73012695 12.82066313 22.43261333 0.00526056 -0.00202732 0.00078137
N 1.52185381 21.33334365 1.27610370 0.00100517 0.00117778 0.00312448
N 4.22944871 23.49050626 4.02892115 -0.00707731 0.00168386 -0.00874628
N 5.58470533 20.21300418 1.36086025 0.00129158 0.00669619 -0.00064628
N 3.21316294 18.26582530 3.94163597 0.00511927 -0.00027950 0.00828910
N 1.44606861 21.23269859 5.83055101 0.00190275 -0.00463840 0.00045630
N 4.24414325 23.40843029 8.65145229 -0.00389331 0.00241868 0.00416999
N 5.55651821 20.17374161 5.98787601 0.00065892 0.00273776 0.00709754
N 2.94978600 18.19873558 8.79972074 -0.00462208 -0.00726604 0.00145176
N 1.45286392 21.09999849 10.48502354 -0.00326754 -0.00247800 0.00210071
N 4.00932073 22.94598422 13.19874146 -0.00775674 0.00053694 0.00189860
N 5.56432597 20.32989698 10.49837633 -0.00637096 0.00112141 0.00474541
N 2.73245187 18.21938400 13.35320476 -0.00304224 0.00223316 -0.00178764
N 1.50095974 21.00269761 15.42188467 0.00748450 -0.00224599 0.00211609
N 4.02404020 23.63084876 18.20503499 0.00699550 -0.00048536 0.00142733
N 5.55052746 19.90471064 15.46566915 -0.00127950 -0.00375908 -0.00025953
N 2.52896503 17.90993722 18.01537364 0.00084020 -0.00051610 0.00452200
N 1.63466407 21.10788900 20.25317091 -0.00174254 0.00506695 0.00138266
N 3.89291037 23.21411063 23.08532221 0.00593166 -0.00054092 0.00505507
N 5.37445922 20.44243775 20.12417453 -0.00005661 0.00127476 0.01032606
N 2.69930098 18.17337593 23.09556476 0.00539716 0.00115008 -0.00089397
N 0.72384752 27.79649464 1.21117891 0.00223552 0.00573325 -0.00478224
N 3.70242694 29.80181348 3.90224820 -0.00758315 -0.00045234 0.00128338
N 4.89642108 26.68114054 1.04638664 0.00241585 -0.00547063 -0.00147861
N 2.25422435 24.73566497 4.17673051 0.00581964 -0.00178638 -0.00252894
N 0.79225288 27.94645634 5.74371574 -0.00055036 0.00054332 0.00136636
N 3.36894725 29.79502813 8.72217293 -0.00323007 0.00262180 -0.00126129
N 4.98005916 27.20748946 5.85186562 -0.00234952 0.00174089 -0.00246138
N 2.20225281 24.55609427 8.71854300 0.00328514 0.00229314 -0.00246145
N 1.02240098 27.55489038 10.46741822 -0.00292444 0.00066521 -0.00013038
N 3.21220789 29.71490112 13.45001520 -0.00376150 -0.00324640 -0.00433820
N 4.83394181 26.67999678 10.60867159 0.00220250 -0.00407798 -0.00888639
N 2.30621501 24.46959686 13.46746620 0.00747595 0.00371634 -0.00267106
N 0.52872766 27.81159464 15.34571469 0.00144128 -0.00175162 0.00100667
N 3.43413047 29.55272562 17.96164123 0.00290786 -0.00657620 0.00648488
N 4.91383975 26.81017297 15.22139533 -0.00010306 -0.00466385 -0.00393813
N 1.96742826 24.65958711 18.15576674 0.00528039 0.00419416 0.00042260
N 0.84233123 27.74370720 20.17410478 -0.00143033 -0.00525588 -0.00326427
N 3.49443056 29.48447603 22.75104049 0.00254083 0.00245141 0.00427529
N 4.90337616 26.40056300 20.26962810 0.00106600 0.00022139 0.00472400
N 2.10435530 24.73032379 23.04054883 0.00413216 -0.00696707 0.00224257
N 6.46099410 4.43284407 1.30620080 -0.00211599 -0.00191758 0.00293354
N 10.12742948 4.79353524 3.84246670 0.00250238 -0.00018528 -0.00469247
N 11.78992441 2.13500917 1.16313981 0.00783590 0.00258673 0.00366171
N 8.89491550 1.10964748 3.51161733 0.00006964 -0.00265580 -0.00050072
N 6.96800723 4.31368944 5.78995566 -0.00604749 -0.00761955 0.00304189
N 10.50369487 4.94786690 8.51894213 -0.00417702 -0.00399018 0.00326017
N 12.26800025 1.63490390 5.82846856 -0.00139207 -0.00649182 0.00232889
N 8.56661274 1.05084527 8.36854620 -0.00230517 0.00005082 -0.00304164
N 6.67360586 3.97622802 10.65216560 0.00189460 -0.00189320 0.00130496
N 10.36890828 4.74322245 13.13832890 0.00407699 -0.00114033 -0.00196628
N 11.82033881 2.10289646 10.33292569 0.00563558 0.00066999 0.00129065
N 8.56050212 0.98002936 13.31525007 0.00680583 0.00124312 0.00163883
N 7.02251850 3.98515536 15.28893950 -0.00112747 0.00396343 0.00021058
N 10.28378991 4.91157873 17.75794439 0.00459524 0.00032208 0.00426123
N 11.83699876 1.69657930 15.01862756 -0.00546558 0.00202628 -0.00207467
N 8.43300679 1.14918756 18.01711495 0.00269241 -0.00216395 -0.00387858
N 6.70295711 4.10011680 20.16495052 0.00109781 0.00598274 -0.00068499
N 10.15243816 4.93790339 22.63405747 -0.00498887 -0.00446585 -0.00393104
N 11.77159633 2.00565606 19.65215925 -0.00516353 0.00107109 0.00075158
N 8.63027441 1.22102844 22.62847128 -0.00020282 0.00968763 0.00336481
N 7.14340838 9.59235085 0.90910030 0.00020103 0.00092458 0.00369722
N 10.92228340 10.75570120 3.37528935 -0.00226507 -0.00011778 0.00551192
N 12.18866296 7.65809351 0.89707047 -0.00681415 0.00166396 -0.00100642
N 9.38972626 7.00574585 3.56992591 0.00058892 0.00327720 0.00148279
N 7.44190789 9.25928316 5.87308113 -0.00027864 0.00620052 -0.00251855
N 10.79121538 10.63640815 8.41644800 0.00451041 0.00502917 -0.00253912
N 12.30613208 7.48936105 5.77414245 -0.00275922 0.00012034 -0.00421622
N 9.03539499 6.73118559 8.58227049 0.00014101 -0.00019747 -0.00050166
N 6.98423701 9.67503433 10.52743061 0.00031951 0.00213753 0.00528694
N 10.66131473 10.47507457 13.07679221 0.00107833 0.00294675 0.00113810
N 12.84882406 7.35044484 10.42036822 -0.00177951 -0.00145833 0.00106937
N 8.67211582 6.37849563 13.41455020 0.00851673 0.00196622 0.00051469
N 7.13310529 9.49047598 15.03550733 0.00023414 0.00241461 0.00161353
N 10.91101103 10.63875182 17.83135218 0.00357294 -0.00559259 0.00147771
N 12.49922837 7.72287395 15.09015265 0.00467814 -0.00301825 0.00614530
N 9.26573382 7.01398763 17.83448628 -0.00769856 0.00506548 -0.00115808
N 7.16399835 9.67240807 19.68506859 -0.00402223 0.00183335 0.00477849
N 10.75313247 10.86274768 22.53522742 0.00530612 0.00658945 0.00808372
N 12.35926656 7.59303553 19.83906164 0.00323090 -0.00035013 -0.00709636
N 8.85262561 6.79919593 22.58846878 -0.00014571 -0.00055841 0.00119993
N 7.52416325 15.41343102 1.01975384 0.00076891 0.00413332 -0.00477103
N 10.39178823 17.33039199 3.63285028 -0.00121554 0.00454387 0.00193986
N 11.54042264 14.13549492 0.97893482 -0.00058468 0.00132159 0.00602161
N 8.97049641 11.97599762 3.55110661 0.00047544 -0.00119075 0.00640713
N 7.67697974 14.99327495 5.67250338 -0.00301039 0.00395621 0.00153250
N 10.54816875 17.39845758 8.35030020 0.00198961 0.00051628 0.00099545
N 11.57422538 14.00517220 5.54176160 0.00154241 0.00041258 -0.00293806
N 8.83420724 12.01558124 8.44411319 -0.00009785 0.00400838 0.00436127
N 7.83095381 15.15452623 10.78635254 -0.00345374 -0.00019494 -0.00125687
N 10.47859329 17.31591910 13.34433982 -0.00241793 -0.00754237 -0.00096881
N 11.79158809 14.04643509 10.20195793 -0.00337412 0.00147089 0.00310633
N 9.26115642 12.24354070 13.30215803 -0.00357841 0.00450086 0.00298426
N 7.44512718 15.19177319 15.35938403 0.00155261 0.00111968 -0.00265227
N 10.09556575 17.28321302 18.20493921 0.00733161 0.00097357 -0.00365157
N 11.51454899 14.25252795 15.24058146 -0.00111145 0.00502717 -0.00179172
N 9.28815918 12.30833432 17.65095797 0.00586200 -0.00151598 0.00197925
N 7.65383278 15.05378648 20.02797117 0.00670542 -0.00432759 0.00464636
N 10.30745663 17.44445985 22.92771282 -0.00046428 0.00553445 0.00224694
N 11.64942329 14.08839146 20.01281932 -0.00251839 -0.00059755 0.00230978
N 8.87572142 12.23520562 22.42961147 -0.00232451 -0.00510438 0.00407663
N 7.01842593 22.00371995 1.09674644 -0.00388292 -0.01104302 -0.00086663
N 9.59867299 23.86336536 3.59727297 -0.00195160 -0.00244037 -0.00124360
N 10.89891336 20.69336116 1.16986520 -0.00301214 -0.00028166 -0.00126305
N 8.29468764 18.25429798 3.86754816 -0.00154794 0.00177604 -0.00176111
N 7.25223150 21.77427789 5.86907155 0.00388547 -0.00091351 -0.00094754