2000
Time=57000.00000005 pbc="T T T" Lattice="31.17419900 0.00000000 0.00000000 0.00000000 29.82558466 0.00000000 0.00000000 0.00000000 23.71531954" energy=-12041.45101035 virial="-45.02475630 6.56019881 -10.80751829 6.56019881 -13.76045277 6.25890425 -10.80751829 6.25890425 -43.98913201" stress="-0.00003319 0.00029410 -0.00046082 0.00029410 0.00161193 0.00030312 -0.00046082 0.00030312 0.00070076" Properties=species:S:1:pos:R:3:vel:R:3
C 30.54250646 3.76021377 1.74643475 -0.00048496 0.00191856 0.00445707
C 2.24289499 0.59487237 2.97236531 -0.00429225 -0.00855710 0.01058254
C 30.34369313 3.53388223 6.48831022 -0.00935758 0.00114121 -0.00327262
C 2.46443250 0.63479377 7.67403987 0.00670990 -0.00400316 -0.00420768
C 30.44006447 3.40595311 11.28059606 0.00310283 -0.00780332 -0.00077051
C 2.63531444 0.61777635 12.56295430 -0.00495115 -0.00073128 0.00893961
C 30.51627726 3.61988475 16.01241072 0.00068444 -0.00424082 0.00460580
C 2.26532607 0.47402909 17.19218819 -0.00499994 0.00242387 0.00728810
C 30.49893163 3.46885830 20.69044125 0.00049124 -0.00528658 -0.00124626
C 2.71496694 0.79723097 22.01358308 0.00589872 0.00038540 -0.00034097
C 30.70537312 9.34243048 1.55495852 0.00201667 -0.00397902 -0.00328354
C 2.54091295 6.10762190 2.95845793 -0.00421256 0.00760304 0.00836717
C 30.88293793 9.35023246 6.35426303 0.00083756 -0.00539749 -0.00695684
C 2.58246201 5.95799960 7.77862624 0.00364228 -0.00258639 -0.00640254
C 30.97191845 9.28943853 11.18606612 0.00110333 0.00692041 0.00271961
C 2.85075254 6.17825081 12.38738086 -0.00332722 0.00444471 -0.00097468
C 30.88390985 9.26646171 15.75811332 0.00305776 0.00468550 -0.00011902
C 2.60119084 6.06863556 17.09784939 0.00577113 0.00154718 0.00273139
C 30.72312003 9.17738943 20.45753894 0.00161538 0.00474248 0.00456675
C 2.86633596 6.34700612 21.80441828 0.00375124 -0.00561146 0.00398737
C 0.38279542 14.68912697 1.75067976 -0.00132332 -0.00699683 -0.00722577
C 3.55062369 11.55824612 3.06909137 0.00054213 0.00033418 -0.00930642
C 0.32703092 14.87397090 6.37985450 0.00500463 -0.00309862 -0.00713023
C 3.30911479 11.71377197 7.70031930 -0.00336983 0.00039929 -0.00628769
C 0.12387219 14.93007930 11.17869497 -0.00289454 -0.00053833 0.00357613
C 3.18132913 11.58820383 12.43303589 -0.00310996 0.00022120 0.00297809
C 0.25773240 15.00632396 15.98721122 0.00457338 0.00272203 -0.00110104
C 3.23369527 11.62320185 16.97129575 0.00049733 -0.00785871 -0.00241575
C 0.16216431 14.93194026 20.68179300 0.00311412 0.00574766 -0.00389957
C 3.41930007 11.57382469 21.87171707 -0.00835999 0.00209744 -0.01025571
C 0.79631631 20.42164809 1.72885821 -0.00104075 0.00552784 -0.00336995
C 3.86968985 17.11638153 3.25719614 -0.00875558 0.00062585 0.00066836
C 0.65101842 20.26280474 6.67202134 0.00375401 0.00232266 0.00228860
C 3.79001990 17.40009312 7.92286663 0.00204271 0.00410384 -0.00879558
C 0.73919304 20.09236781 11.28880175 0.00468573 -0.00339807 -0.00703644
C 3.84709376 17.42063445 12.49852574 0.00122748 0.00219659 -0.00474252
C 0.57275301 20.44533844 16.02216234 0.00109563 0.00130670 -0.00677923
C 3.83715487 17.31705821 17.31182540 0.00425270 -0.00538540 -0.00335108
C 0.86767584 20.65615550 20.81439051 -0.00578868 0.00053084 0.00097748
C 4.02192608 17.50418830 22.14127673 0.00072015 -0.00166617 0.00618830
C 0.03741253 26.97228668 1.64567509 0.00676099 -0.00361429 0.00184747
C 3.22373723 23.88622491 3.17098866 0.00089703 0.00390002 -0.00234975
C 31.16327196 26.89048355 6.41545642 0.00121751 0.00363066 0.00230758
C 2.93702585 23.67895580 7.89828355 -0.00511080 0.00200284 0.00274669
C 0.24296111 27.04251987 11.08405825 0.00389337 0.00107647 0.00716310
C 3.07519294 23.90521113 12.47484893 -0.00003155 -0.00053040 -0.00171596
C 31.05496000 26.80714558 15.83814502 0.00180402 -0.00507886 0.01050576
C 3.12754912 23.89111465 17.39429901 0.00346468 0.00191928 -0.00155810
C 31.15796674 26.71382115 20.78358922 -0.00067625 0.00374266 0.00150951
C 3.38619209 23.77603928 22.07107603 -0.00498008 0.00411976 0.00424150
C 5.96386453 3.66001410 1.55771554 0.00075024 0.00666636 -0.00116290
C 9.21328676 0.22374827 2.84887585 0.00052663 -0.00674606 -0.00265815
C 5.92800827 3.16774171 6.41579202 -0.00239381 -0.01089858 -0.00349088
C 9.04082678 0.17763497 7.92705062 -0.00110843 0.00424743 0.00680422
C 5.96994243 3.23510234 11.09075531 0.00193128 0.00553750 -0.00748051
C 9.26558154 0.72393936 12.77007798 -0.00004583 -0.00388445 0.00118977
C 5.99893116 3.20251960 15.92425435 0.00501591 -0.00228125 0.00151014
C 9.00146858 0.26548429 17.36029548 0.00228940 -0.00250824 -0.00142752
C 5.94085140 3.35678227 20.50510594 0.00611814 0.00517575 -0.00434257
C 9.06586695 0.07508862 22.10153185 -0.00077282 -0.00064493 -0.00201337
C 6.46765150 8.84538831 1.82252371 0.00132695 -0.00099255 -0.00162891
C 9.60135426 5.70730964 2.95627288 -0.00277843 -0.00227558 -0.00393052
C 6.37094960 8.67101091 6.56510931 -0.00405356 0.00101379 -0.00718886
C 9.67665838 5.73181877 7.53227266 0.00281315 -0.00673193 -0.00401717
C 6.27362676 8.70066755 11.20389049 -0.00179648 -0.00202797 -0.00681461
C 9.74587941 5.91307740 12.34507916 -0.00545795 0.00137200 -0.00445572
C 6.40582865 8.52575285 15.82992236 -0.00377957 -0.00249553 -0.00516627
C 9.51869024 5.79737841 17.02503461 0.00040463 0.00194725 0.00023883
C 6.36969533 8.43906600 20.68246716 -0.00399570 0.00166908 -0.00318638
C 9.64272333 5.69153722 21.84215282 0.00617098 -0.00074078 0.01278988
C 6.92465862 14.36349842 1.60952074 -0.00221195 0.00228032 0.00818186
C 10.00629321 11.40201700 3.18750232 -0.00030520 -0.00720623 -0.00233792
C 7.12920920 13.99510582 6.54003050 -0.00249453 0.00303305 -0.00115830
C 10.14164796 11.18473328 7.75660728 -0.00418255 -0.00257849 -0.00363158
C 6.86342311 14.26520447 11.12116031 -0.00021413 0.00620591 -0.00278423
C 10.08404052 11.50722530 12.51619314 -0.00023927 0.00584523 0.01005939
C 6.54728282 14.29407204 15.72878459 -0.00378501 0.00598843 0.00361740
C 9.82348689 11.22389962 17.05943646 0.00577597 0.00069781 -0.00408981
C 6.70011667 14.01209934 20.55156927 0.00282659 -0.00024842 0.00422056
C 10.12312717 11.31266782 21.97361979 -0.00235659 0.00216331 -0.00500621
C 6.43796724 21.19181803 1.89658388 -0.00389404 -0.00331692 -0.00402012
C 9.25470985 17.83869115 2.98164328 -0.00036684 -0.00048394 -0.00577143
C 6.29672674 20.97684862 6.70449007 0.00485617 0.00126796 -0.00359203
C 9.42667393 17.75879386 7.91766519 -0.00351912 -0.00187576 0.00251139
C 6.24750898 20.64955863 11.29136152 -0.00526781 0.00527310 -0.00170336
C 9.21257366 17.90062001 12.54588550 -0.00224285 0.00130929 0.00445568
C 6.03189488 20.95597276 15.94831130 0.00020086 -0.00043412 0.00234586
C 9.40209163 17.89211086 17.47437228 -0.00431839 -0.00339063 0.00187200
C 6.29797841 20.69619769 20.83846908 0.00879939 0.00834852 0.00216894
C 9.45723543 17.91272636 22.01808373 -0.00200625 0.01262159 -0.00615894
C 5.42133354 27.53348591 1.77801944 -0.00893748 0.00309976 0.00240932
C 8.73321941 24.48379322 3.07603992 -0.00003045 0.00178515 0.00351734
C 5.57270667 27.38511602 6.40142122 -0.00197365 0.00473275 -0.00201557
C 8.52659598 24.71862954 7.75395175 0.00211111 0.00488157 -0.00246676
C 5.68174384 27.42791484 11.20575814 0.00019082 -0.00028941 -0.00570497
C 8.38396761 24.54926681 12.60307375 -0.00393446 -0.00693413 0.00850886
C 5.42296236 27.49280632 16.03639531 -0.00047522 -0.00435905 -0.00342911
C 8.75396841 24.59428655 17.44666512 0.00227877 0.00211671 -0.00324676
C 5.54323915 27.55497609 20.79045278 -0.00100440 0.00331909 0.00058342
C 9.05303096 24.52136338 22.15889459 -0.00394644 0.00529556 0.00066196
C 12.58217167 2.79048803 1.64795778 -0.00242151 -0.00135284 0.00068857
C 15.71691325 29.46223078 3.04176535 -0.00463107 0.00357020 -0.00496456
C 12.80798355 2.74323549 6.40958763 0.00039094 -0.00408256 -0.00016688
C 16.07624070 29.60859558 7.79123924 -0.00317882 -0.00248457 0.00848050
C 13.05778205 2.71937719 11.29231571 -0.00357028 -0.00304694 -0.00789968
C 15.87594694 29.58816409 12.50694271 -0.00216798 -0.00909557 -0.00234460
C 12.84195700 2.83689808 15.87670502 0.00695929 0.00378550 0.00518951
C 15.90528373 0.07344297 17.25734233 -0.00134268 -0.00141421 0.00919772
C 12.61741808 3.01357928 20.61515551 -0.00413543 -0.00213188 0.00127092
C 15.75843463 29.62988442 21.93211887 -0.00622419 -0.00389383 0.00419098
C 13.17980174 8.25312407 1.61267417 -0.00176728 -0.00303440 -0.00609197
C 16.35790671 5.37688922 2.84028253 0.00910802 -0.00103152 0.00169793
C 13.31756351 8.36973805 6.40860379 -0.00221751 0.00188815 -0.00771040
C 16.29031304 5.15627744 7.61891822 -0.00533310 0.00098066 0.00593776
C 13.21381303 8.38941803 10.95653541 0.00072286 0.00121075 0.00238253
C 16.17423850 5.35125755 12.30252284 -0.00431219 -0.00646432 0.00081279
C 13.04080491 8.37814238 15.75541990 -0.00102080 -0.00155134 -0.00006446
C 16.17348876 5.64547604 17.15540132 -0.00221956 0.01054194 -0.00643037
C 13.14864876 8.24007306 20.52773329 -0.00303539 -0.00465304 0.00440877
C 16.37646135 5.49197626 21.81269767 0.00103654 -0.01202360 0.00169885
C 12.58180751 15.14002683 1.67264418 -0.00240746 0.00616985 0.00233234
C 15.70302204 11.75343028 3.03425908 -0.00473716 -0.00300630 0.00343261
C 12.74244656 14.86401937 6.48127056 0.00426477 -0.00024628 0.00401453
C 15.81299717 11.93626164 7.80850454 0.00298448 0.00630413 -0.00245478
C 12.61892515 14.71877820 11.29941365 0.00524452 0.00555248 0.00333394
C 15.58781870 11.69201594 12.37493248 -0.00288758 0.00682204 -0.00162042
C 12.42532524 14.78397495 15.94167715 0.00095227 0.00815706 0.00264359
C 15.65963898 11.96045459 17.13645188 0.00106055 -0.00779366 -0.00336618
C 12.39929152 14.80755217 20.72507340 -0.00528536 0.00315058 -0.00528293
C 15.61935318 11.94823047 21.99213414 0.00123648 -0.00245386 0.00294445
C 11.84798960 21.27874740 1.66635247 -0.00048495 0.00488312 0.00931141
C 14.87180186 18.47754317 2.84505828 -0.00150980 -0.00026973 0.00774607
C 11.84918376 21.52630392 6.55587049 -0.00406810 0.00238391 -0.00258465
C 14.98414633 18.48453221 7.66044706 0.00232106 0.00417031 -0.01490733
C 11.54621131 21.53944966 11.22814087 0.00302160 0.00677973 -0.00017054
C 14.89225778 18.40460298 12.38244271 0.00825908 0.00792503 -0.00091753
C 11.76679610 21.49922280 15.79853031 0.00386467 0.00076003 -0.00216245
C 15.00197790 18.61171025 17.16708335 0.00285135 0.00124831 -0.00002313
C 12.05981806 21.69635525 20.72985016 0.00050596 0.00108744 -0.00875011
C 15.05892073 18.32201017 21.84194011 0.00123172 0.00813685 0.00309808
C 12.28104087 27.00048411 1.70389913 -0.00659696 -0.00317796 0.00315497
C 15.15285070 23.86097178 3.04838442 0.00294429 -0.00408920 0.00089226
C 12.24151750 27.02354423 6.51572464 0.00814951 -0.00298173 -0.00256187
C 15.19961282 23.88978314 7.86380745 -0.00610217 0.00154713 -0.00427856
C 12.31804473 27.15999799 11.10410933 0.00178777 0.01093148 -0.00262862
C 14.97405548 23.93536206 12.49124003 -0.00278165 0.00588662 0.00138591
C 12.45823218 27.18416111 15.98921059 -0.00134324 -0.00573246 0.00408274
C 15.33205832 24.18655706 17.26959151 -0.00114710 -0.00068942 -0.01011814
C 12.31653996 27.24521244 20.73904254 0.00068225 -0.00269658 0.00973617
C 15.26847802 23.84209727 21.86310970 -0.00950448 0.00739035 -0.00945650
C 19.33360628 2.35796536 1.80325138 0.00447384 -0.00470432 -0.00063829
C 22.43405647 29.17758280 2.93827181 0.00797823 -0.00529798 -0.00292675
C 19.44662531 2.29342151 6.30230881 -0.00317752 -0.00073255 -0.00314366
C 22.32781478 29.17578585 7.74357469 -0.00145894 0.00334568 -0.00455184
C 19.41604621 2.46135079 11.25399863 -0.00089680 0.00792215 -0.00543779
C 22.17195864 28.98476123 12.47191357 -0.00062094 0.00020917 0.00958256
C 19.49499898 2.49577440 15.96288074 -0.00784115 0.00050942 -0.00479022
C 22.46385822 29.15827787 17.29230077 0.00061704 0.00839762 -0.00368969
C 19.21992423 2.30940101 20.90708689 -0.00357155 -0.00268680 0.00446571
C 22.17347701 29.15757403 22.12264976 -0.00012191 -0.00936703 0.00479562
C 18.66001361 9.09434152 1.65836215 -0.00126296 0.00231059 0.00266963
C 21.81015816 6.24985625 3.09488804 -0.00222992 0.00383623 -0.00466079
C 18.75635167 8.74925813 6.52689435 0.00070512 -0.00267642 0.00639152
C 21.71004971 6.05692330 7.86629084 0.00215267 -0.00348871 -0.00184679
C 18.68078037 8.73073340 11.25020924 0.00443500 -0.00353987 -0.00122294
C 22.08431661 5.97253732 12.57583797 -0.00028627 0.00116909 -0.00822952
C 18.93717528 8.96235531 16.04080286 -0.00708613 -0.00155676 -0.00093365
C 21.65008035 5.87531362 17.19329052 -0.00115059 0.00204104 -0.00070822
C 18.76077712 8.94341286 20.64147882 0.00402218 -0.00298768 0.00303918
C 21.93372767 5.78238130 21.96124021 -0.00361896 -0.00490312 0.01049783
C 18.20860071 15.55712510 1.61786597 -0.00028312 0.00789270 -0.00157855
C 21.30390740 12.41778361 2.94167478 0.00881022 0.00165042 -0.00309414
C 18.00693600 15.60319578 6.32928243 -0.01074957 0.00644324 -0.00273974
C 20.98081257 12.51508648 7.63075878 -0.00298522 0.00678918 -0.00365838
C 18.11995031 15.55081995 11.07347474 0.00653169 -0.00200471 -0.00476652
C 21.35243800 12.55324680 12.55808984 -0.00001619 -0.00103467 0.00307402
C 18.01040838 15.49775199 15.98007908 0.00394694 0.00232916 0.00181387
C 21.23231954 12.23871175 17.28984266 0.00401686 -0.00069039 -0.00135039
C 18.13605468 15.68602199 20.71061543 0.00029116 -0.00116442 -0.00287304
C 21.12411231 12.51519937 21.96865073 0.00218111 -0.00171900 0.00100069
C 18.46520789 21.02566685 1.85522456 -0.00333030 -0.00672461 -0.00097454
C 21.88566906 18.25002325 3.18624559 -0.00350393 -0.00083454 -0.00650779
C 18.69221330 21.18235295 6.64570085 0.00649782 -0.00769688 0.00197815
C 21.45862950 18.06412274 7.80380676 0.00016066 0.00008891 -0.00000920
C 18.40668556 21.06610001 11.39857850 0.00061357 0.00351671 -0.00129613
C 21.35264382 17.97869244 12.44921623 0.00167723 -0.00552451 -0.00633640
C 18.24259592 20.96799529 16.10402585 -0.00619587 -0.00286113 -0.00345032
C 21.28125444 17.71941834 17.57895972 0.00380867 -0.00419857 0.00400178
C 18.43628080 21.14249111 20.76904578 -0.00902005 -0.00599191 -0.00067396
C 21.53205140 18.25165614 22.15716945 -0.00140283 0.00071034 -0.00006335
C 18.80661759 26.51010917 1.73139343 -0.00513106 -0.00508301 -0.00706925
C 22.00935516 23.61115494 2.91454078 -0.00446545 -0.00833974 0.00115998
C 18.95717903 26.50979054 6.54217151 0.00284228 -0.00434348 0.00337518
C 22.06476840 23.44115002 7.83120923 0.00527542 0.00049427 0.00408389
C 18.86313314 26.46788504 11.31687294 -0.00601483 -0.00806738 -0.00040448
C 22.05647220 23.78886938 12.64990088 -0.00857292 -0.00060105 0.00190823
C 18.69847955 26.49477408 15.84594849 -0.00968070 -0.00388996 -0.00095406
C 21.84382838 23.45834906 17.29559596 -0.00241214 -0.00041786 -0.00755793
C 18.87939165 26.68551032 20.69653029 -0.00384887 -0.00349317 0.00094605
C 21.83601084 23.65490098 22.09986347 0.00417038 0.01059882 -0.00710854
C 24.94727710 3.19160527 1.89565852 -0.00859257 0.00251222 0.00439683
C 27.80994420 29.76420278 3.08085921 0.00699940 0.00315018 0.00697780
C 24.83779597 3.08107211 6.60077513 -0.00771573 0.00026167 -0.00402880
C 28.22198643 0.07533112 7.72713204 0.00051715 -0.00013775 0.00102872
C 25.00916918 3.00062667 11.41896253 -0.00257001 -0.00254050 0.00202993
C 27.95946641 0.08426888 12.48004359 -0.00111347 -0.00639931 -0.00384483
C 24.65190834 2.41884922 15.94855499 -0.00719957 0.00223702 0.00281915
C 28.11436298 29.62727575 17.12626335 -0.00633589 0.00788001 0.00608181
C 24.85165765 2.71089902 20.72400386 -0.00184680 0.00161362 -0.00086832
C 28.08393472 0.01161007 21.97821460 0.00025866 0.00427511 0.00243237
C 24.27024937 9.67331952 1.51126003 -0.00606713 0.00015199 0.00028141
C 27.67156900 6.84426459 3.06265277 -0.00003126 0.00460217 0.00099465
C 24.65502246 9.50868007 6.44734157 0.00122609 0.00346161 -0.00065600
C 27.74464905 6.67033507 7.73090110 0.00031925 0.00354624 0.00121041
C 24.22160517 9.63138197 11.02054604 -0.00021173 0.00181047 -0.00179494
C 27.53425367 6.78216452 12.42952954 0.00092262 0.00441444 0.00528961
C 24.43603226 9.70870324 15.95767456 0.00425918 0.00214102 0.00188190
C 27.29487623 6.41331246 17.14535344 0.00294748 -0.00087354 0.00468605
C 24.47954698 9.42278132 20.60874755 0.00176283 0.00121297 0.00219894
C 27.60729022 6.47879155 22.18917984 0.00017939 0.00203440 0.00664976
C 24.70358575 15.33703016 1.74665203 -0.00740829 0.00402144 -0.00241191
C 27.72802114 12.05307887 2.81216785 -0.00182418 0.00023804 -0.00030055
C 24.86207109 15.18891312 6.41058895 0.00077849 -0.00769996 0.00218186
C 27.85682688 12.50128113 7.75655863 -0.00068878 -0.00717301 0.00333229
C 24.64340878 15.07367959 11.21457224 0.00564422 0.00175194 -0.00765683
C 27.78597689 12.09649823 12.38390337 0.00236711 0.00167720 -0.00216490
C 24.59982887 14.96615668 16.06024378 -0.00125081 -0.00201421 -0.00570681
C 27.78421587 12.23171592 16.93660107 -0.00265414 -0.00573360 0.00054915
C 24.85053329 15.06384100 20.89768802 0.00530495 0.00016080 -0.00241912
C 27.83746512 12.28427583 21.95843437 -0.00223967 -0.00035384 0.00804737
C 25.22662974 20.58368349 1.82774728 -0.01062908 -0.00627893 -0.00476237
C 28.64382311 17.77805715 3.05421590 0.00461097 0.00052252 0.00434826
C 25.11983431 20.69489732 6.45673090 -0.00061684 0.01127037 -0.00329020
C 28.29533652 17.77398961 7.74896845 -0.00314963 -0.00256731 -0.00086642
C 24.98543414 20.72874073 11.18352667 0.00853314 0.00333159 0.00234801
C 28.10370521 17.74303117 12.56270612 0.00566169 0.00105458 0.00243699
C 25.30846432 20.45951981 15.90021913 -0.00422001 0.00236611 -0.00424452
C 28.37222280 17.62288076 17.31904564 -0.00029279 -0.00052583 0.00206165
C 25.28164171 20.54452783 20.69677503 -0.00600561 0.00482362 0.00357055
C 28.38650473 17.76912462 22.12155042 0.00281789 0.00187172 -0.00167583
C 25.71352940 26.21949365 1.76651558 -0.00394765 0.00470138 0.00304731
C 28.69444316 23.36438594 3.25243992 0.00534709 0.00053163 -0.00088033
C 25.57266960 26.28331191 6.53246895 -0.00820897 0.00339222 0.00230776
C 28.49542859 23.02541971 8.03925072 0.00034546 0.00246924 -0.00156068
C 25.46719929 26.05725125 11.25909132 0.00036104 -0.00152059 -0.00167508
C 28.42399396 23.19666000 12.65914750 0.00424483 0.00849832 -0.00083370
C 25.29763091 26.37866377 16.04916076 -0.00591689 -0.00127002 -0.00439586
C 28.55755503 23.22261657 17.23933606 0.00558022 0.00401820 -0.00112115
C 25.66586191 26.18566505 20.76544560 0.00813856 -0.00353546 0.00239380
C 28.76198057 23.23603669 22.01692443 0.00541188 -0.00718098 -0.00305320
N 0.27301522 4.45037711 1.00336760 0.00122541 0.00442164 -0.00145151
N 3.47770378 5.35851594 3.65478595 0.00097856 -0.00002436 0.00304131
N 5.11570910 2.73426687 0.92418103 -0.00381156 -0.00380419 -0.00286990
N 1.50191631 1.41689209 3.77405290 -0.00159364 0.00557218 -0.00136693
N 31.16975671 4.48694946 5.91191599 0.00254387 0.00062117 0.00045387
N 3.14128938 4.96101132 8.50600466 0.00286980 0.00112643 -0.00813242
N 5.14986676 2.32608368 5.63930514 0.00123189 -0.00046636 0.00345968
N 1.65676982 1.39519329 8.49312350 -0.00262453 0.00440512 -0.00130935
N 0.06310092 4.19935425 10.58319295 -0.00560896 0.00478779 0.00379730
N 3.52308679 5.14499171 12.94351439 0.00260037 0.00632293 -0.00322103
N 5.07107340 2.41891040 10.42581614 -0.00364839 0.00251234 0.00263937
N 1.82665823 1.41764661 13.26243071 0.00162867 -0.00236053 0.00296932
N 0.12277799 4.50125450 15.28840874 -0.00247867 -0.00625283 0.00384711
N 3.19536602 5.05461307 17.80960596 0.00129845 -0.00425702 -0.00290098
N 5.18544339 2.26138548 15.33011861 0.00113774 0.00635380 0.00629766
N 1.60985576 1.36557311 17.92752759 0.00341571 -0.00137029 0.00125838
N 31.12835682 4.30347804 19.82002500 0.00215668 -0.00474343 0.00057291
N 3.46026039 5.44907071 22.63481028 0.00136060 -0.00817983 -0.00181715
N 5.06030058 2.51425662 19.88161378 0.00546091 0.00460956 -0.00157650
N 1.88121881 1.59478204 22.76553004 0.00067709 0.00061778 0.00255534
N 0.67325947 9.95303852 1.05715845 0.00450751 -0.00317824 -0.00672924
N 4.12872619 10.75803898 4.03582011 -0.00312125 -0.00329809 -0.00573965
N 5.85371209 7.87135378 1.09750954 0.00051749 0.00018794 0.00078582
N 1.98744750 6.98265029 3.79586097 -0.00027089 -0.00358604 0.00604062
N 0.49548024 10.25251043 5.76046256 -0.00010154 0.00030640 0.00120323
N 3.96403192 10.77228927 8.39544299 0.00015908 -0.00294160 -0.00522149
N 5.29951242 8.06410858 5.99429997 0.00218684 0.00177148 -0.00216642
N 2.06065398 6.99269184 8.44366767 -0.00032069 0.00203701 0.00350620
N 0.38268571 10.28087067 10.56318902 -0.00164600 -0.00213773 -0.00464797
N 3.88716947 10.72080047 13.19730149 -0.00331147 -0.00224573 -0.00016920
N 5.54731610 7.74842774 10.53236628 -0.00568895 0.00125717 -0.00793996
N 2.21793506 7.07817908 13.24212029 -0.00216381 0.00213398 -0.00572406
N 0.74182602 9.77239867 14.97875357 -0.00216869 -0.00401225 0.00431785
N 3.82723924 10.57073012 17.56264777 -0.00360147 -0.00267596 -0.00129960
N 5.59640169 7.62252626 15.14960952 -0.00630642 -0.00220059 -0.00478022
N 2.06336117 7.02645874 17.87529063 0.00150354 0.00088847 0.00429708
N 0.31745386 10.02714908 19.74206055 -0.00583964 -0.00225720 0.00019853
N 3.90962578 10.50012187 22.62059998 0.00148316 0.00422037 0.00273057
N 5.78415483 7.41009588 20.04023097 -0.00029592 0.00531588 -0.00757991
N 2.02407770 7.24995515 22.38874424 -0.00069007 -0.00017238 0.00226451
N 1.08431583 15.56650259 0.95048124 0.00405333 -0.00700782 -0.00203967
N 4.70763024 16.34588267 4.00918300 0.00218028 -0.00065766 0.00128933
N 6.08702909 13.58732137 0.88353739 0.00096667 0.00258301 -0.00424924
N 3.00783437 12.76237030 3.57176410 0.00273442 -0.00510473 0.00675843
N 1.19516694 15.76224359 5.74611803 0.00693684 0.00305347 0.00343949
N 4.62531088 16.53638894 8.64002521 0.00263741 -0.00003072 0.00111227
N 6.22578834 13.30816655 5.80554259 0.00124602 -0.00173826 -0.00361276
N 2.69245438 12.66247823 8.44519613 -0.00804520 0.00701747 0.00187048
N 0.98593902 15.73307313 10.47076749 -0.00207652 -0.00279089 -0.00226517
N 4.68701539 16.64973666 13.28795407 -0.00299479 0.00596456 -0.00063758
N 6.06983950 13.47440373 10.39826901 -0.00104408 0.00285516 0.00191028
N 2.46305607 12.51373136 13.06964648 -0.00122346 -0.00118211 0.00247414
N 1.08192028 15.72777440 15.19054238 -0.00275401 0.00711516 -0.01212257
N 4.69103006 16.47245141 17.95887914 -0.00437307 -0.00391599 0.00520013
N 5.68927889 13.59104915 15.00334539 -0.00013784 0.00262557 -0.00240835
N 2.48145858 12.47681498 17.71462650 0.00522273 0.00197139 -0.00413839
N 1.05702823 15.80786168 20.02351164 0.00248793 -0.00082702 0.00320521
N 4.64110265 16.60217045 22.91387905 -0.00469070 0.00466458 -0.00228483
N 5.89351355 13.28556410 19.79867616 -0.00410664 -0.00382185 0.00012185
N 2.84886616 12.54477576 22.63607796 -0.00435362 0.00590073 0.00276483
N 1.67997648 21.14697781 1.06721779 -0.00339752 0.00144472 0.00398753
N 3.72483958 22.88884634 4.00233327 0.00260437 0.00367682 0.00902107
N 5.63157461 20.29306637 1.18140673 -0.00055289 -0.00076090 -0.00177212
N 3.11508403 18.01529909 3.84989415 -0.00073108 0.00089581 -0.00543516
N 1.38595521 20.98705385 5.82541770 -0.00077292 0.00360381 0.00715812
N 4.04066484 23.33147505 8.57617242 0.00328304 0.00791913 0.01007345
N 5.28635105 20.22725194 6.23774851 0.00380686 -0.00111860 0.00600257
N 3.02152539 18.23658001 8.62916695 0.00298333 0.00251686 -0.00184969
N 1.50480454 20.95131947 10.50134108 -0.00471855 0.00145340 -0.00267015
N 4.04957374 23.25101576 13.10603436 -0.00197852 -0.00325421 0.00293564
N 5.45039450 19.76306140 10.60188725 0.00230765 -0.00101103 0.00215873
N 3.05772259 18.22450682 13.26655837 -0.00143873 0.00322687 0.00229774
N 1.22437293 21.35024343 15.28897858 -0.00088721 0.00535680 -0.00140120
N 4.13224382 23.29324514 18.08078034 0.00226304 -0.00105938 -0.00470734
N 5.18039311 20.15010685 15.27774358 0.00184360 0.00314695 -0.00066168
N 3.15053003 18.18797285 18.11136213 -0.00293443 -0.00173772 0.00078153
N 1.77665772 21.25360604 19.96028575 -0.00254886 0.00584742 0.00720342
N 4.44248283 23.36499137 22.84590950 -0.00503124 -0.00135962 -0.00112170
N 5.69309284 19.76783356 19.97647354 -0.00519524 -0.00132055 0.01054992
N 3.25024418 18.40329229 22.79036193 0.00647534 -0.00023893 0.00559485
N 0.76440144 27.75212943 0.81513802 0.00620045 0.00386509 0.00099822
N 3.05368394 29.51419652 3.60766449 0.00392193 0.00011214 -0.00203405
N 4.70669814 26.63492527 1.11578030 -0.00367586 0.00249038 0.00054433
N 2.27231068 24.68271046 3.70871935 0.00209999 0.00337536 0.00014867
N 0.75307336 27.77612966 5.77946274 0.00556538 -0.00485498 0.00339289
N 3.59481508 0.08699802 8.31930729 0.00479182 0.00248023 0.00014758
N 4.82704452 26.58261393 5.66157045 -0.00762337 0.00109601 -0.00065805
N 1.98912731 24.34946899 8.52776853 0.00222777 -0.00363354 0.00171183
N 1.17549069 27.63280399 10.22842995 0.00076197 -0.00501942 0.00727564
N 3.52363219 29.68833923 13.23025470 -0.00122878 0.00615811 -0.00405707
N 5.03947827 26.49531752 10.44651554 -0.00241629 0.00326702 0.00435893
N 2.19226940 24.62726795 13.24169057 0.00059893 -0.00048005 0.00471314
N 0.93700104 27.42018600 15.13357053 0.00397429 0.00179581 -0.00016455
N 3.04097559 29.33914622 17.88487203 -0.00647141 -0.00856020 0.00336971
N 4.71285163 26.67042459 15.14917887 0.00064156 -0.00310740 -0.00116194
N 2.05561651 24.48938545 18.08942542 0.00796069 0.00139729 -0.00076201
N 0.69987662 27.67551168 20.17190807 -0.00200304 -0.00048709 -0.00640840
N 3.49155369 29.73993406 22.71095499 -0.00110589 -0.00432454 -0.00398845
N 4.83975398 26.65049912 20.08452825 -0.00040102 0.00291916 -0.00119130
N 2.25069028 24.18197558 22.75773176 -0.00449781 -0.00797622 -0.00134682
N 6.62968631 4.48601441 0.71649210 0.00110568 0.00512720 0.00009784
N 10.22896226 4.82336167 3.77962824 -0.00384686 -0.00903199 0.00011881
N 11.86678296 1.93845028 0.84605178 -0.00659212 -0.00153368 0.00462472
N 8.53729608 1.21860767 3.46012631 0.00082982 0.00184128 -0.00082663
N 6.67371971 4.04592184 5.70848854 0.00371835 0.00623109 0.00248991
N 10.33741751 4.82771912 8.29947862 -0.00569249 -0.00018537 -0.00851629
N 12.11707637 1.89636909 5.62389379 0.00331247 -0.00126440 -0.00047437
N 8.38084397 1.15936840 8.60124212 0.00075220 -0.00512077 -0.00171700
N 6.75046901 3.97349081 10.28512170 0.00108531 0.00155964 -0.00440606
N 10.17639905 4.91521372 13.15825674 -0.00421447 0.00487670 0.00087441
N 12.12456289 1.94132592 10.60624611 -0.00313898 -0.00045400 0.00792656
N 8.39215626 1.36512909 13.63306698 0.00365894 -0.00050275 -0.00389071
N 6.66804099 4.05519727 15.07246872 0.00141485 -0.01286548 -0.00205901
N 10.22989653 4.84035104 17.78003607 0.00360417 -0.00446477 -0.00525266
N 12.13200059 2.00021798 15.10999833 0.00208022 -0.00323235 -0.00042430
N 8.13523978 1.13979726 17.97369072 0.00162615 0.00018800 -0.00360990
N 6.69706064 4.25688516 19.75695591 0.00068923 0.00232831 -0.00351556
N 10.42014796 4.85374493 22.65090703 0.00480645 0.00627538 -0.00361224
N 11.66258591 2.33460820 19.87898413 -0.00229065 -0.00051587 -0.00702737
N 8.58241312 0.99303211 22.89672532 0.00005866 -0.00305329 -0.00110337
N 7.18110045 9.69570848 0.98230348 0.00004865 0.00056782 -0.00125519
N 10.61428195 10.49520360 4.03719017 0.00279485 0.00390651 -0.00080334
N 12.38525059 7.44383203 0.90694212 0.00621627 0.00368277 -0.00095287
N 9.13315911 6.78540197 3.55625444 -0.00031403 -0.00022434 -0.00223667
N 7.17355195 9.43720227 5.83098934 -0.00622311 0.00628352 0.00443035
N 10.66710727 10.05405211 8.23267334 0.00027501 0.00001357 -0.00046285
N 12.49645560 7.62045877 5.63403249 0.00111617 -0.00285794 0.00169272
N 8.79111180 6.63330396 8.06510994 0.00684076 0.00015625 0.00484535
N 7.06858922 9.47569913 10.39332067 -0.00015194 -0.00272182 0.00258114
N 10.75528021 10.75056304 13.35118230 -0.00169129 0.00501643 -0.00307649
N 12.30442451 7.57665623 10.38340134 0.00412141 -0.00047809 -0.00824012
N 9.15382846 7.06248539 12.90491371 0.00172913 -0.00255098 0.00250218
N 7.24174642 9.21699001 15.08831130 -0.00132701 0.01121076 0.00561254
N 10.93599175 10.62003406 17.58182273 0.00056332 -0.00450507 0.00134959
N 12.16463997 7.56252191 15.05273213 0.00374097 -0.00151123 -0.00896479
N 9.05390851 6.80483300 17.76443157 0.00056872 -0.00447062 -0.00218036
N 7.22595898 9.20642460 19.94135522 0.00104533 -0.00348345 0.00768562
N 10.92900178 10.62163700 22.79213336 -0.00234244 -0.00426268 0.00348226
N 12.26340906 7.53758314 19.80309169 -0.00371639 -0.00049278 -0.00611332
N 8.87418357 6.61569212 22.48650452 -0.00244124 -0.00232949 0.00711765
N 7.71346735 15.27277531 0.90628546 -0.00476238 0.00535699 0.00536625
N 10.20602531 17.22864089 3.68904441 -0.00115135 -0.00297312 0.00048555
N 11.87746172 14.20977741 1.00149065 -0.00388551 -0.00488233 -0.00343384
N 9.31281419 12.31695519 3.93049530 0.00280974 -0.00264210 0.00355741
N 7.92572647 14.91880109 5.87683465 -0.00218908 -0.00271961 -0.00220203
N 10.51927244 17.21195745 8.53257027 -0.00376291 0.00183277 0.00183574
N 11.66905433 14.29236094 5.81093889 0.00098277 -0.00572484 -0.00169150
N 9.32987915 11.78281795 8.57268661 -0.00679097 -0.00536172 -0.00017428
N 7.85039096 14.91083577 10.46002894 -0.00349457 -0.00033892 0.00245369
N 10.30313735 17.48032672 13.23938401 0.00291274 0.00282479 0.00224369
N 11.74888579 14.01037197 10.50634208 -0.00470154 0.00172834 0.00214032
N 8.98460469 12.15952855 13.01907445 0.00232995 0.00501521 0.00212553
N 7.54012253 15.02162745 15.17041713 0.00281563 0.00058403 -0.00509594
N 10.50325768 17.37603091 18.08816217 0.00140373 0.00245294 0.00315603
N 11.48158822 14.06107511 15.30446664 -0.00990757 -0.00389677 -0.00246484
N 9.09752368 11.99230088 17.93756116 -0.00021974 -0.00032761 0.00222194
N 7.61991314 14.77464806 19.87938768 -0.00318983 -0.00595522 -0.00699606
N 10.50817159 17.18538496 22.54446830 -0.00509556 0.00007534 0.00375519
N 11.63950017 13.95633765 19.98760570 -0.00244066 0.00409263 -0.00052249
N 9.34148486 12.20552418 22.59478798 -0.00429063 -0.00437519 0.00379033
N 7.23920410 21.99351724 1.15229445 -0.00027601 -0.01169903 0.00781582
N 9.42772865 23.53257241 3.77225720 -0.00592221 0.00435862 -0.00224194
N 10.94240338 20.56555408 0.96295557 -0.00244212 -0.00295220 -0.00518024
N 8.40322671 18.56932401 3.72011334 0.00036213 -0.00155354 -0.00112804