2000
Time=87000.00000006 pbc="T T T" Lattice="31.14985405 0.00000000 0.00000000 0.00000000 30.04019646 0.00000000 0.00000000 0.00000000 23.73253429" energy=-12041.52466953 virial="-15.03884261 0.34158955 -7.91589623 0.34158955 -30.49921275 19.55588810 -7.91589623 19.55588810 -44.25853646" stress="0.00144435 0.00000780 -0.00038565 0.00000780 0.00090361 0.00086506 -0.00038565 0.00086506 0.00063311" Properties=species:S:1:pos:R:3:vel:R:3
C 30.53991853 3.42633935 1.92384252 0.00268525 -0.00322466 0.00184994
C 2.53096448 0.50165911 3.03495795 -0.00215197 -0.00496966 -0.00137938
C 30.50557487 3.43409514 6.45555371 -0.00474835 -0.00264028 0.00182866
C 2.32868271 0.61048082 7.69362046 0.00247406 -0.00587500 0.00086116
C 30.73588844 3.71153389 11.15244884 0.00412691 0.00515529 0.00030980
C 2.62963788 0.65492408 12.52285421 0.00347718 0.00159639 0.00050054
C 30.45978668 3.70179922 15.99194104 -0.00224486 0.00121075 0.00018965
C 2.69932066 0.69744386 17.43872512 0.00247049 0.00717639 0.00226636
C 30.24933032 3.68925327 20.74758387 -0.00184917 -0.00702484 0.00267989
C 2.63824077 0.57858699 21.98784884 0.00026882 -0.00592411 -0.00239906
C 30.90968420 9.20725102 1.68000403 -0.00085744 -0.00501297 0.00147076
C 2.96771028 6.18478690 3.25581302 -0.00805105 0.00355775 0.00434764
C 31.04897591 9.11740555 6.51168419 0.00252566 0.00460264 0.00069817
C 3.07240462 6.13605364 7.91862716 -0.00762343 -0.00020190 -0.00727530
C 30.83379033 9.21793739 11.12708060 -0.00337989 0.00065392 0.00100430
C 3.18644646 6.38343483 12.66398543 0.00412251 -0.00275938 -0.00104902
C 30.77596726 9.24919786 15.92184000 0.01238202 0.00400912 -0.00126167
C 2.45017990 6.18871845 17.09508751 0.00095246 -0.00291251 0.00371465
C 30.98221019 9.08049205 20.71508668 0.00186104 -0.00386345 -0.00102899
C 2.60742201 6.13898394 22.11044748 0.00163461 -0.00169550 -0.00093136
C 0.12749665 14.81303079 1.57559734 -0.01116975 -0.00157101 0.00064289
C 3.38624797 11.62531941 2.99250333 0.00488824 0.00645018 0.00477375
C 0.13888625 14.48206556 6.57805411 -0.00478257 0.00103457 0.00421614
C 3.40524197 11.82038578 8.00279762 -0.00357422 0.00302070 0.00384691
C 0.14806405 14.94435047 11.21915997 -0.00844771 0.00597666 -0.00886711
C 3.23221315 11.57950865 12.40992217 0.00369564 -0.00351900 0.00202949
C 0.23416843 14.79444792 15.88460776 0.00361690 0.00586114 -0.00883379
C 3.41480744 11.79961508 17.29183598 -0.00934461 -0.00295760 -0.00776519
C 0.36651814 14.66167387 20.66094988 -0.00104409 -0.00948715 -0.00425595
C 3.25660418 11.76498912 22.12004840 -0.00719822 0.00233027 0.00253274
C 0.57673576 20.37328442 1.91671101 0.00431290 0.00014035 -0.00197178
C 3.50134570 17.38679577 2.99294662 0.00829286 -0.00095326 0.00431055
C 0.72358633 20.30328212 6.42640259 0.00228014 -0.00501970 0.00094421
C 3.91553887 17.81335180 7.84899826 -0.00076519 0.00260206 0.00793460
C 0.52005417 20.53826311 11.39244752 -0.00045480 0.00205765 0.00548775
C 3.55853737 17.50633450 12.35694439 0.00014357 -0.00245040 -0.00357260
C 0.59990608 20.76677270 16.08234187 0.00925400 0.00304549 0.00293940
C 3.48856815 17.66689742 17.16429478 -0.00847058 -0.00009209 0.01027974
C 0.36962553 20.41075067 20.70676270 -0.00329673 -0.00002096 -0.00248903
C 3.53223225 17.66287235 22.04165442 -0.00454883 0.00390085 -0.00543883
C 30.90535667 26.82245185 1.69705144 0.00335106 -0.00181149 -0.00738687
C 3.03483215 23.98157553 3.26855020 0.00119527 0.00022262 0.00559377
C 0.11386104 26.64594731 6.45138182 0.00609598 0.00388332 0.00870036
C 3.07260992 23.89120080 7.84702058 0.00192915 0.00651618 -0.00039487
C 0.09903534 27.19511568 11.13486274 0.00094989 0.00168073 -0.00345201
C 3.16232273 24.48734676 12.48803160 -0.00233547 -0.00135300 -0.00529205
C 0.05948062 27.06669479 16.08524864 -0.00014650 -0.00286470 -0.00296374
C 2.64071232 24.14536000 17.36160351 -0.00149611 0.00412567 0.00517659
C 0.26629043 26.98954363 20.81986330 -0.00599915 0.00061364 -0.00288093
C 3.05721141 23.89279555 22.03165218 -0.00247327 0.00236327 0.00133472
C 6.03293940 3.13498161 1.67717670 0.00106223 -0.00521464 0.00010383
C 8.94445730 0.23090541 3.16597908 0.00391082 -0.00544293 0.00259756
C 6.26843400 3.23598974 6.56908670 -0.00047826 0.00390996 -0.00728616
C 9.48519156 0.47247393 7.76087324 0.00011065 0.00095263 0.00517107
C 6.27296266 3.15403346 11.28727524 0.00366006 0.00466114 0.00423225
C 9.14033759 0.34855260 12.31154649 -0.00259653 0.00234363 -0.00907521
C 6.07784152 3.29011850 15.87636819 -0.00530257 -0.00811281 0.00687336
C 8.88378959 0.19288165 17.14047653 -0.00381061 -0.00487001 -0.00162327
C 5.97609301 3.35642856 20.55639127 -0.00081215 0.00366946 0.00365706
C 9.14106266 0.31541296 22.06659499 -0.00218319 0.00017548 0.00445607
C 6.40707713 8.75669757 1.48550056 -0.00561465 0.00625839 0.00299088
C 9.59125381 5.82184590 3.02563786 -0.00528603 -0.00111965 -0.00571989
C 6.63244616 8.77725481 6.55716016 0.00614425 0.00078008 0.00081938
C 9.73801401 5.88178723 7.77645979 0.00630793 0.00111131 -0.00414485
C 6.61188523 8.82595504 11.20676106 0.00008939 0.00579139 -0.00495055
C 9.70089266 5.66162863 12.42473896 0.00445226 -0.00048708 0.00428157
C 6.85934555 8.92995611 15.95892616 -0.00198964 -0.00142994 0.00103526
C 9.64297655 5.74336019 17.11640996 0.01297952 -0.00048633 -0.00034934
C 6.09500815 8.66217372 20.72323212 -0.00546409 0.00332270 0.00353009
C 9.40729686 5.86898605 21.95843828 -0.00258795 -0.00501651 0.00102331
C 6.70758063 14.53037105 1.74286190 -0.00277117 -0.00237045 -0.00219111
C 9.93134505 11.70202600 3.00435125 0.00423406 0.00204845 0.00528340
C 6.64399797 14.41319203 6.48795689 0.00374710 0.00189571 0.00327164
C 9.84230296 11.40253903 7.99224946 0.00283031 -0.00392323 -0.00208332
C 6.97708787 14.33841602 11.34007085 -0.00159334 0.00837536 0.00340849
C 10.15685577 11.58589523 12.75354518 -0.00037890 -0.00271725 0.00527993
C 6.76792129 14.58906433 15.76549316 0.00267807 -0.00416563 0.00304542
C 9.93019277 11.51613987 17.35800866 0.00441022 -0.00408531 -0.00457430
C 6.70694679 14.57402634 20.60816443 -0.00070948 0.00804980 0.00234682
C 9.98254255 11.54692508 21.94297952 0.00437820 -0.00514305 -0.00430539
C 5.99328688 21.16673797 1.94400530 -0.00233781 0.00024721 0.00365769
C 9.26725696 18.13694116 3.06850595 0.00386653 -0.00509638 -0.00097521
C 6.29668838 21.25004946 6.44659891 0.00238460 0.00192686 0.00950315
C 9.44945609 18.24820354 7.75432947 -0.00052963 0.00262195 0.00355185
C 6.26579888 21.17241266 11.37838560 -0.00059116 -0.00474255 0.00327712
C 9.54221290 18.10850826 12.54969181 -0.00057264 0.00092115 -0.00448500
C 5.99269645 20.95045920 16.09686109 -0.00027068 0.00083219 0.00179727
C 9.24928941 18.20261238 17.32118611 0.00243093 0.00474211 0.00113176
C 5.97880640 20.89996232 20.80543808 0.00719694 0.00247809 0.00409927
C 9.20383064 18.00484162 22.12284682 -0.00036247 0.00712422 0.00620225
C 5.40565389 27.70248283 1.75483354 0.00004649 0.01227343 -0.00065432
C 8.84088883 24.83973712 3.05818493 0.00307113 -0.00798272 -0.00419184
C 5.43970969 27.91790065 6.46761895 0.00607956 -0.00674842 0.00277113
C 8.68109857 24.63184548 7.70644864 0.00092265 0.00118556 -0.00461650
C 5.77919024 27.80778779 11.25400472 0.00101122 0.00377326 0.00585736
C 8.99446414 24.88346652 12.33143779 0.00066956 -0.00229290 0.00722531
C 5.45874457 27.65989729 16.01803289 -0.00149783 -0.00893803 -0.00727332
C 8.54374936 24.52332435 17.02320822 0.00410696 -0.00521578 0.00081704
C 5.54607303 27.33884673 20.88211802 -0.00039969 0.00601062 0.00493645
C 8.81196897 24.47558565 21.97073219 -0.00296191 0.00485746 0.00186648
C 12.51165892 2.91127965 1.55834190 -0.00259019 -0.00126750 -0.00248069
C 15.78443701 29.71738388 3.20950869 0.00017178 -0.00296225 -0.00340312
C 12.82923098 2.75154131 6.38392106 0.00257699 0.00675258 0.00018824
C 15.86027855 29.77784789 7.81174778 -0.00799579 0.00156606 -0.00067008
C 12.82479800 2.71046813 11.20161753 -0.00102572 -0.00048699 0.00310406
C 15.99200413 29.55320206 12.61800412 0.00283090 0.01022650 -0.00119707
C 12.69750807 2.54520363 16.12577388 0.00539741 -0.00593287 -0.00817117
C 15.87826276 29.47986930 17.22407449 0.00020530 0.00401911 -0.00445841
C 12.30393554 2.83568940 20.65240435 -0.00134547 0.00683061 0.00089926
C 15.73092491 0.07339600 21.91035607 -0.00493086 -0.00129431 -0.00824335
C 12.85983834 8.51649721 1.76168921 -0.00037935 0.00276234 0.00169622
C 16.33736940 5.70563869 3.01733317 0.00792414 -0.00465748 -0.00017515
C 13.23267042 8.49088332 6.55448118 -0.00367618 0.00152498 -0.00151467
C 16.51521113 5.56326551 7.75796096 0.00916851 -0.00504894 -0.00061950
C 13.46482766 8.27580977 11.15254436 0.00642627 0.00503046 0.00369949
C 16.12965874 5.33606961 12.52694854 -0.00604575 0.00665788 -0.00388427
C 13.33049799 8.60626660 15.80281948 0.00498275 -0.00428856 0.00239235
C 15.85597275 5.34126535 17.26241593 -0.00343977 0.00658256 -0.00804929
C 13.33648420 8.57537189 20.51453476 0.01032914 0.00250558 0.00275815
C 16.14574495 5.52089730 22.03805732 0.00010218 -0.00346995 -0.00185355
C 12.45905930 15.17869846 1.84331178 0.00013416 -0.00052655 0.00264378
C 15.60530446 12.04398177 3.04330312 -0.00322905 -0.01087682 -0.00122280
C 12.43954304 15.01820164 6.52368694 0.00327200 0.00199053 0.00081525
C 15.52535920 11.97168309 7.71508945 0.00524068 0.00084784 -0.00836861
C 12.70343086 15.00098650 11.35652713 0.00095475 0.00575764 0.00446278
C 15.40572010 12.04863397 12.65691716 -0.00593174 0.00161026 -0.00217580
C 12.48103797 15.41321224 16.15069200 0.00672151 0.00982928 0.00321144
C 15.66640421 12.19880319 17.28911475 -0.00000487 -0.00452001 0.00419104
C 12.40468639 15.09109412 20.72250090 -0.00003469 -0.00405568 0.00295502
C 15.50194120 12.11502358 22.01376778 -0.00330014 0.00524513 0.00377099
C 11.71048098 21.68467345 1.76029248 0.00677764 -0.01184875 -0.00016643
C 14.85443866 18.51490797 2.96871605 -0.00383331 0.00304368 0.00637748
C 11.76289990 21.72010478 6.39798526 0.00278068 0.00530177 -0.00165582
C 15.14630145 18.89195519 7.86810148 -0.00302100 0.00738180 0.00412521
C 12.00067702 21.93491816 11.17492374 0.00060612 -0.00772271 0.00352471
C 15.01068390 18.70060396 12.40247396 0.00332856 0.00341581 -0.00764776
C 11.66702397 21.59807682 16.00902407 0.00256601 -0.00078537 -0.00367521
C 15.02936006 18.41066542 17.22149872 -0.00285723 0.00269264 -0.00431756
C 11.64729843 21.54881988 20.73137714 -0.00039000 -0.00050945 0.00689612
C 15.24368995 18.75229396 22.01917006 -0.00123992 -0.00307362 0.00436628
C 12.08624195 27.19989661 1.69900313 -0.00244643 0.00015197 -0.00034310
C 15.50023175 24.06814565 2.98475200 -0.00065118 -0.00217356 0.00460385
C 12.13426410 27.42476884 6.32452707 -0.00228104 -0.00299349 0.00514420
C 15.25480708 24.31315063 7.58260296 -0.00178509 0.00629754 0.00028894
C 12.30781076 27.41376103 11.05838650 -0.00159054 0.00019632 -0.00625560
C 15.19465836 24.10393381 12.54989742 -0.00129288 0.00502435 -0.00246973
C 12.30770567 27.18300941 15.86288746 0.00326440 -0.00131317 -0.00249769
C 15.40257253 24.02056203 17.14455611 0.00295732 -0.00201634 -0.00358856
C 11.81162638 27.49418554 20.67954102 -0.00472730 -0.00054104 0.00511146
C 15.21566367 24.18744216 22.05533542 -0.00379087 0.00382479 -0.00259425
C 19.36871949 2.27644717 1.57707473 0.00028722 0.00368125 -0.00398231
C 22.43422934 29.48686464 2.83785166 0.00349295 0.00028114 -0.00630305
C 19.28537379 2.54074997 6.31269874 -0.00254949 -0.00834442 0.00080970
C 22.33564622 29.23568488 7.57108482 -0.00082535 -0.00125426 -0.00036501
C 19.28650761 2.14730241 11.10114195 0.00304506 0.00239856 -0.00796281
C 22.38518241 29.36825349 12.66793134 0.00230606 -0.00561491 0.00160571
C 19.41271310 2.40050884 15.82172649 -0.00277704 -0.00084954 0.00406060
C 22.36805570 29.46817594 17.21649805 0.00479260 0.00293076 0.00040208
C 19.45409041 2.19405435 20.71609236 0.00094982 0.00400337 0.00268222
C 22.42104510 29.31794750 21.92808695 0.00392538 -0.00093596 0.00455886
C 18.48942451 9.05802605 1.54139714 0.00150401 -0.00037166 -0.01032322
C 21.83798410 6.00712705 3.06758823 -0.00472059 -0.00441347 0.00251747
C 18.96554991 9.09500771 6.46457303 0.00275315 0.00794125 0.00013087
C 22.08026822 5.97105444 7.70682362 0.01014050 0.00312329 -0.00284017
C 18.86029171 9.03838322 11.19829129 -0.00412459 -0.00030173 0.00083962
C 22.18657229 5.79264978 12.60707524 -0.00293666 0.01097557 0.00376941
C 18.90334333 9.24203082 15.87289651 0.00005155 0.00548880 0.00332520
C 21.74668631 6.22466451 17.36459856 -0.00536919 0.00684683 -0.00552548
C 18.51690900 8.90380200 20.64297676 0.00348580 0.00567847 -0.00247258
C 21.56441864 5.90333337 22.05335499 -0.00758173 0.00393233 0.00689376
C 18.12265258 15.89588300 1.73015255 -0.00399083 0.00314194 -0.00039338
C 21.32284858 12.76599978 2.99640867 -0.00810759 -0.00782421 -0.00704188
C 17.97573375 15.65078542 6.34305294 -0.00171731 0.00207264 -0.00082984
C 21.52092304 12.62462235 7.50797735 0.00656147 0.00677117 0.00093863
C 18.29560740 15.61099913 11.05778224 0.00343651 0.00496993 0.00361848
C 21.28429206 12.87044330 12.29693836 0.00400390 0.00587363 -0.00298998
C 17.98277899 15.79020521 15.83293035 0.00118247 -0.00469501 -0.00045637
C 21.08412806 12.37992561 17.19877253 -0.00235541 0.00065515 -0.00022382
C 18.17374634 15.71527001 20.76444342 -0.00150994 -0.00285519 -0.00365701
C 21.28443985 12.48571776 22.07916397 -0.00522647 -0.00843312 0.00449122
C 18.51441206 21.23844991 1.60266832 -0.00008336 -0.00507884 0.00014128
C 21.75718085 18.26224370 3.14798677 -0.00010658 -0.00027740 -0.00442542
C 18.43485221 21.13633838 6.38979457 0.00232691 0.00055431 0.00101034
C 21.39984173 18.12087927 7.81589143 0.00041918 0.00293918 -0.00275056
C 18.42853355 21.46138413 11.20084276 0.00523674 -0.00141135 0.00621361
C 21.82555084 18.25093159 12.47747120 -0.00476156 0.00249442 0.00376086
C 18.40526676 21.13228027 15.82988773 0.00866453 -0.00033751 0.00274289
C 21.58626504 18.06232966 17.08757518 -0.00568765 -0.00461847 0.00745145
C 18.46609832 21.29273572 20.51725438 -0.00031813 -0.00602869 -0.00362371
C 21.61103656 18.27514689 21.88248160 0.00865425 -0.00170576 -0.00859941
C 18.74964390 26.71828933 1.65554825 -0.00039312 -0.00538312 0.00104411
C 21.92291987 23.70263930 3.08539940 0.00174389 0.00139236 -0.00305464
C 18.79245998 26.66471463 6.33860267 0.00193165 0.00250401 0.00087777
C 21.95319471 23.70251625 7.71463165 0.00128240 -0.00292705 0.00337631
C 18.81576867 26.54658851 11.11109386 -0.00785319 -0.00283393 -0.00175450
C 22.23945570 23.64491972 12.78049301 0.00253074 -0.00510763 0.00478974
C 18.82059106 26.67854402 16.03387794 -0.00627471 0.00454420 0.00201408
C 22.08551775 23.51036884 17.43864909 0.00439465 0.00359565 0.01208812
C 18.84641835 26.60108608 20.69734958 0.00292709 0.00007537 -0.00681692
C 21.97834626 23.75977063 22.05791904 -0.00304540 -0.00355323 -0.00152975
C 24.89624150 2.95675620 1.67804121 -0.00181602 0.00451638 -0.00144512
C 27.93392782 0.14559430 3.10384339 0.00143278 -0.00385551 -0.00121243
C 24.83965161 2.80870946 6.39053514 -0.00789333 -0.00224020 0.00321273
C 27.92850438 29.72421344 7.80876138 -0.00783203 -0.00424742 -0.00437844
C 24.80727309 2.75875127 11.29998291 -0.00321639 -0.00337844 0.00081654
C 28.10586998 29.95012161 12.53853459 -0.00087669 0.00133528 0.00553386
C 24.83956913 2.93156427 16.09506018 0.00542557 0.00210910 -0.00330843
C 28.04258342 0.35406679 17.35067469 0.00119157 -0.00050652 -0.00516407
C 24.71207230 3.06305720 20.71662049 -0.00238383 0.00166096 -0.00490584
C 28.16638160 0.09577025 22.14381567 0.00072010 -0.00016965 0.00553209
C 24.47483695 9.59237479 1.48222619 0.00127718 0.00281660 -0.00041912
C 27.56270745 6.62667418 2.88262579 0.00605484 -0.00689650 0.00119219
C 24.60667243 9.41333579 6.49111342 -0.00448755 0.00239125 0.00067722
C 27.55920431 6.55820794 7.68192629 -0.00603890 -0.00206526 0.00571397
C 24.14589397 9.55792500 11.21952891 0.00848262 0.00556649 0.00730290
C 27.43703215 6.54520789 12.29229724 0.00228127 -0.00432563 0.00641230
C 24.41013040 9.65230460 15.88696742 0.00308029 0.00354519 0.00245160
C 27.25397015 6.51847570 17.35269509 -0.00023479 -0.00099913 0.00346431
C 24.22365357 9.62756084 20.51918037 0.00257924 -0.00532766 0.00195558
C 27.39631670 6.43291144 22.05167807 0.00489676 -0.00102150 -0.00058123
C 24.81703671 15.44258775 1.76539642 -0.00490496 0.00704705 -0.00314535
C 27.81311363 12.16644222 2.89885728 0.00442411 0.00063622 -0.00105507
C 25.14091317 14.90569928 6.46226960 0.00455356 0.00030783 -0.00198891
C 27.89081766 12.09084568 7.72803584 0.00160889 -0.00510990 -0.00158338
C 24.92336387 15.23968212 11.06517810 -0.00381147 0.00472619 0.00617943
C 27.75540212 12.46309129 12.56327737 0.00971135 0.00202666 -0.00077780
C 24.79037227 15.04493496 15.89297400 -0.00305343 0.00419034 0.00335565
C 27.77518425 11.99387032 17.34305226 -0.00336279 -0.00301892 0.00301941
C 24.40196173 14.78606763 20.82224931 -0.00365764 -0.00450751 -0.00320845
C 27.68499822 11.99004317 22.02305504 -0.00391737 0.00244218 0.00279105
C 24.94374295 20.74043486 1.83979661 0.00219331 -0.00216790 -0.00275541
C 28.31100439 17.83700081 2.97694727 0.00404343 0.00666154 0.00752554
C 25.15014922 20.63026878 6.62921720 0.00154102 -0.00055621 -0.00899304
C 28.44924531 17.89852897 7.87589725 0.00421175 -0.00247455 0.00208838
C 25.12084837 20.69234719 11.20769851 0.00107564 -0.00271168 -0.00438857
C 28.35770489 17.93533949 12.67764412 0.00445048 0.00727031 -0.00209413
C 25.49180225 20.62214409 16.02458152 0.00077806 -0.00371687 0.00447799
C 28.35965483 17.66762173 17.41251625 -0.00456534 0.00040901 -0.00212431
C 24.91437816 20.97185236 20.76791663 0.00158092 0.00098044 -0.00164703
C 27.89973711 17.78295450 21.96860566 0.00361594 -0.00221371 0.00378898
C 25.45176823 26.36415934 1.88154823 -0.00710489 0.00498064 0.00317727
C 28.55187949 23.22750856 3.16811569 -0.01387858 0.00264068 -0.00289129
C 25.50971035 26.53682724 6.59350909 -0.00226534 -0.00805133 0.00846834
C 28.44049460 23.54696366 7.92591594 -0.00271874 -0.00351813 0.00169326
C 25.50437172 26.19994579 11.24688213 0.00220458 -0.00064900 0.00341827
C 28.70356108 23.79724486 12.57473746 -0.00622925 0.00912364 0.00204397
C 25.75701875 26.41768987 16.02611025 -0.00198558 -0.00023170 0.00593551
C 28.48578716 23.49733483 17.43692884 -0.00643672 0.00537676 -0.00560646
C 25.44275688 26.51062108 20.82852657 0.00768397 -0.00482706 0.00534523
C 28.53159304 23.36389053 22.08010551 -0.00255024 -0.00369210 0.00156948
N 0.16542976 4.25014746 1.17005458 0.00677796 0.00551390 0.00726527
N 3.57343703 5.16642609 3.88459668 0.00267579 0.00054869 0.00053580
N 5.25713962 2.37861566 0.88715395 -0.00482501 0.00205952 0.00119081
N 1.65260299 1.33590342 3.67038955 -0.00092180 -0.00032403 0.00119695
N 0.22763429 4.17746053 5.72411737 -0.00519311 -0.00267109 0.00100207
N 3.87991442 5.35815570 8.68845539 -0.00325817 -0.00455276 0.00164228
N 5.54081491 2.44027370 5.72805417 0.00259860 0.00308555 0.00393277
N 1.72365593 1.62672281 8.44000295 -0.00292239 0.00251568 0.00011441
N 0.31039179 4.63072271 10.36588283 0.00469668 -0.00327611 0.00339335
N 3.42855644 5.22768833 13.33302913 0.00610374 0.00445859 0.00153455
N 5.68501462 2.26942875 10.44606991 -0.00302150 0.00211559 0.00501483
N 1.81900403 1.44554022 13.24267584 0.00373554 0.00140561 0.00001797
N 0.14059620 4.46138287 15.27283362 -0.00531851 0.00149010 -0.00396994
N 3.21046102 5.16381658 17.64987124 -0.00187806 -0.00006238 0.00070853
N 5.21948913 2.60308998 15.07791658 0.00084892 -0.00457889 -0.00335865
N 2.07103506 1.55047715 18.32289583 0.00193419 -0.00071427 -0.00982312
N 31.07474549 4.55933836 20.11529208 -0.00070382 -0.00031939 0.00066439
N 3.32150363 5.16351957 22.83089976 -0.00392215 -0.00441038 0.00582046
N 5.38671718 2.41679521 19.79669552 0.00093096 0.00095234 0.00331580
N 1.69103481 1.34716365 22.58072198 0.00215521 0.00340557 -0.00113898
N 0.66778102 9.97801635 1.02615971 0.00192033 -0.00029052 0.00025504
N 4.17149717 10.85629945 3.86460587 0.00092938 -0.00112448 -0.00233684
N 5.72030102 7.87030410 0.75907608 -0.00159522 0.00334559 -0.00031602
N 2.29390777 7.07214478 4.04853823 -0.00094423 0.00289947 -0.00184883
N 0.77384902 10.07156945 6.02142838 -0.00223288 -0.00813201 -0.00130526
N 4.22572743 10.97786048 8.61494007 0.00173812 0.00035729 -0.00125365
N 5.67325624 8.07455114 5.88513120 -0.00206086 -0.00225620 -0.00522215
N 2.37195294 7.15165628 8.52019831 0.00297622 -0.00732927 0.00527844
N 0.49903791 10.05173238 10.41813647 0.00032595 0.00289457 0.00083041
N 3.85891055 10.71281318 13.22153228 0.00022863 -0.00249722 -0.00509400
N 5.80150570 8.00133777 10.46217955 0.00443101 -0.00308167 0.00231436
N 2.48928932 7.33082772 13.34744868 -0.00128841 0.00584787 0.00439988
N 0.46032975 10.08534589 15.23543612 -0.00085875 -0.00091256 0.00145973
N 3.89798693 10.82937753 18.04580405 0.00050654 0.00405640 0.00101229
N 6.20745523 7.95136081 15.19404495 0.00091963 0.00505800 0.00277161
N 2.06084992 7.11441554 18.03160157 0.00610449 -0.00061687 -0.00491752
N 0.66678251 9.75191214 19.89573715 -0.00411511 -0.00576346 0.00215289
N 3.73718543 10.76172183 22.83261764 0.00624312 0.00042125 -0.00156329
N 5.20652437 7.84060164 20.04126389 -0.00475261 0.00400051 0.00108295
N 2.05252498 7.14107238 22.75599419 -0.00372295 0.00592840 0.00077452
N 0.77120480 15.82980040 0.90191754 -0.00546610 0.00683933 0.00669206
N 4.00548527 16.30829883 3.73343060 -0.01026940 -0.00209851 -0.00021263
N 5.82099888 13.85847018 0.99350496 0.00303614 -0.00131501 0.00181185
N 2.68437486 12.57191562 3.61178513 -0.00079134 -0.00226204 0.00127100
N 0.91208021 15.33247076 5.85319052 0.00544116 -0.00581522 -0.00312099
N 4.87470441 17.08187294 8.48160643 -0.00242265 -0.00477395 0.00154513
N 5.89699870 13.46094522 5.75175823 0.00234091 -0.00631519 -0.01360989
N 2.64631943 12.76571604 8.70502005 -0.00464996 -0.00805094 -0.00061440
N 0.91583254 15.75709237 10.43689672 0.00218719 0.00184965 0.00366346
N 4.71088367 16.94565302 12.95964665 -0.00091502 0.00493836 0.00105856
N 6.08176087 13.74810553 10.55498587 -0.00495946 0.00585149 0.00005119
N 2.73344509 12.66958408 13.08414857 -0.00208524 0.00091857 0.00603732
N 1.08681628 15.49878952 15.09998817 0.00375341 0.00643246 -0.00162020
N 4.36910075 16.89608405 17.89720057 0.00454221 0.00424573 0.00735798
N 6.02670355 13.65806639 15.10680792 -0.00015832 0.00120603 -0.00858739
N 2.71153672 12.73427153 17.92918989 -0.00823752 -0.00141335 0.00092986
N 0.86531951 15.74145201 20.00942570 0.00222348 0.00499771 0.00691720
N 4.41125911 16.91917165 22.76218188 -0.00283382 -0.00158488 -0.00963222
N 5.89577468 13.82430392 19.81589427 0.00527454 -0.00327355 -0.00100810
N 2.43803337 12.70504629 22.73429285 0.00615818 0.00295894 0.00246430
N 1.30532761 21.23919133 1.28052299 -0.00306774 0.00574259 0.00635106
N 3.99612634 23.52546131 4.11250011 -0.00384555 -0.00022992 0.00139804
N 5.36169368 20.36942786 1.05022665 -0.00132344 0.00088742 -0.00383844
N 3.02944862 18.41786502 3.77498396 0.00031731 0.00045906 -0.00146871
N 1.51029742 21.08997087 5.68000492 0.00313620 -0.00366746 -0.00156762
N 4.09565432 23.42398141 8.57987568 0.00064304 -0.00018601 0.00888269
N 5.46700587 20.46084906 5.75528394 0.00169399 0.00161148 -0.00599513
N 2.98068777 18.37884509 8.61231567 0.00221653 0.00289437 0.00534680
N 1.32894832 21.37975259 10.72827964 0.00220491 0.00312150 0.00083502
N 4.14376509 23.79370306 13.24855530 0.00468508 0.00538887 -0.00257367
N 5.64816923 20.27091381 10.60373032 -0.00249411 0.00180862 -0.00429568
N 2.83752316 18.33306706 13.19780306 -0.00286387 0.00246663 -0.00280547
N 1.29475599 21.65314364 15.33331911 0.00794960 -0.00166752 0.00130439
N 3.80545959 23.54196916 17.87147877 -0.00113035 -0.00626047 0.00319196
N 5.26531431 20.24805796 15.18632443 0.00005408 0.00771264 0.00198290
N 2.64322546 18.52584918 17.79611500 -0.00247296 0.00512998 -0.00494639
N 1.14438539 21.32867457 20.03794645 -0.00384567 -0.00438037 0.00028139
N 3.87647119 23.17638667 22.81622977 -0.00163483 -0.00594628 0.00448182
N 5.16615159 20.16889601 20.04382428 0.00181203 0.00156094 -0.00726476
N 2.68762368 18.48358753 22.81742865 -0.00123277 0.00017485 0.00765766
N 0.54473341 27.79812460 1.07277701 0.00323262 0.00528531 0.00194980
N 3.18496860 29.78928105 3.90694066 0.00066424 -0.00160395 -0.00109837
N 4.67826366 26.72739305 1.09907156 -0.00282974 -0.00532710 0.00278523
N 2.03996839 24.65684738 3.92120794 0.00424896 -0.00765529 0.00078818
N 0.89978622 27.54198258 5.75812054 0.00201247 -0.00167872 -0.00292597
N 3.19425038 29.87342915 8.31157095 -0.00524025 -0.00159114 -0.00235166
N 4.75790754 26.93521442 5.78668497 0.00567486 0.00551034 0.00206321
N 2.12120637 24.47208286 8.55614491 0.00350277 -0.00459122 0.00457982
N 0.91666915 27.94666723 10.32839808 -0.00738984 -0.00029799 0.00701426
N 3.38214227 29.77466408 13.21009195 -0.00331717 -0.00206501 -0.00064407
N 4.97839785 27.12093864 10.42467062 0.00067625 -0.00460928 -0.00067272
N 2.08411825 24.85315442 13.20528101 0.00284310 0.00595126 -0.00166630
N 0.81778033 27.94240777 15.35559576 0.00169872 -0.00364968 -0.00928040
N 3.61119278 29.88610127 17.95230932 0.00544303 0.00058309 0.00385701
N 4.67485765 26.89024510 15.20735040 0.00386008 -0.00053072 -0.00747148
N 1.87474355 24.73263006 18.27284070 0.00361760 0.00448390 -0.00507737
N 1.13461738 27.69625628 20.08783058 0.00294465 0.00175099 -0.00961007
N 3.49696290 29.90374670 22.72743739 -0.00153574 -0.00493516 0.00255633
N 4.61030892 26.46196897 20.32074387 -0.00949056 0.00306179 -0.00276680
N 2.10261047 24.48329068 22.72910705 0.00180267 -0.00476487 0.00377064
N 6.82259004 4.01415444 1.02293764 0.00022725 0.00443836 -0.00471286
N 10.45948357 4.92296082 3.63894571 -0.00218331 -0.00449754 -0.00636911
N 11.77759744 1.96621017 0.90633181 0.00439075 -0.00117804 -0.00345365
N 8.54617796 1.30823959 3.87610969 -0.00524854 0.00045531 0.00053370
N 7.08817700 4.12798180 6.03409498 -0.00072310 0.00350514 0.00308122
N 10.51484796 4.87045457 8.30108929 -0.00080152 0.00363878 -0.00243092
N 12.01183036 2.04100413 5.54420730 0.00626401 0.00436721 0.00470426
N 8.65338979 1.25356677 8.48704576 -0.00700040 0.00361743 -0.00456278
N 6.97788839 4.25083841 10.76552628 -0.00250098 -0.00330984 -0.00532542
N 10.26347458 4.74970787 13.26056926 -0.00134697 0.00406511 -0.00372934
N 11.90852847 2.11460895 10.35149074 -0.00023096 0.00251210 0.00378771
N 8.66139545 1.27535977 13.18638339 0.00455245 -0.00130404 -0.00242943
N 6.89039455 4.18775860 15.30434462 -0.00472662 -0.00482453 -0.00319148
N 10.26877977 4.79756507 17.91319961 0.00151382 0.00290220 -0.00092379
N 11.89804554 1.83809017 15.26528495 0.00180183 -0.00108533 0.00579869
N 8.32230582 1.20619552 17.84623872 -0.00160776 0.00238724 0.00228832
N 6.81577444 4.12536144 19.87111203 -0.00050453 0.00547405 0.00088828
N 10.18384314 4.95247700 22.64930100 0.00460994 -0.00853658 -0.00027804
N 11.52480193 1.88495631 20.01465706 0.00300088 0.00876297 -0.00160476
N 8.42474809 1.30623229 22.73791954 0.00441056 0.00688872 0.00098631
N 7.19500914 9.76685356 0.93195922 -0.00021619 -0.00975591 0.00576204
N 10.74768046 10.95019807 3.77172815 -0.00539574 -0.00320814 -0.00198816
N 12.23750843 7.58902444 0.98483458 0.00440912 0.00274047 0.00180448
N 9.11613348 6.85279496 3.72078192 -0.00594858 0.00060955 0.00319852
N 7.40732689 9.59472307 5.76535040 -0.00854636 0.00276373 0.00163282
N 10.76219408 10.69725220 8.69785564 0.00109647 -0.00125449 -0.00253836
N 12.55214718 7.61803158 5.82569080 0.00309535 -0.00147041 0.00405017
N 9.24853018 6.83964594 8.65783373 0.00201171 0.00093245 0.00940571
N 7.27844933 9.77874251 10.48904429 0.00434177 -0.00462344 -0.00342807
N 10.99406714 10.69781851 13.44026443 -0.00196125 -0.00465779 0.00297371
N 12.59188055 7.51243280 10.47713619 -0.00133103 0.00091482 -0.00128516
N 9.37450656 6.85111235 13.04955765 -0.00428197 0.00073101 -0.00032807
N 7.70095221 9.70599908 15.20620125 -0.00120827 0.00375164 -0.00337781
N 10.86490523 10.77619135 18.04143362 0.00795215 -0.00058648 -0.00679480
N 12.81947248 7.66255887 14.97011888 0.00284004 -0.00158145 0.00083171
N 9.23552209 6.88331574 17.79209884 -0.00194356 -0.00680594 0.00198188
N 6.94833972 9.34526972 19.90798751 -0.00210938 0.00714090 -0.00010390
N 10.82092009 10.66432168 22.58713246 -0.00098746 -0.00485525 0.00344087
N 12.47657345 7.86389992 19.77821480 0.00137994 0.00016639 -0.00331102
N 8.80587568 6.82043245 22.77097499 -0.00117153 0.01139855 -0.00352751
N 7.62955008 15.21033987 1.02228136 -0.00856295 -0.00329522 -0.00444427
N 10.15870365 17.42177028 3.79694908 -0.00143523 -0.00185164 -0.00873205
N 11.53925123 14.42606874 1.20748417 0.00254261 0.00080557 -0.00586749
N 8.96920541 12.39124227 3.63834550 -0.00472953 -0.00224716 -0.00029373
N 7.45284498 15.17585615 5.81428629 0.00050561 0.00432349 -0.00240680
N 10.24000127 17.28973108 8.31317183 -0.00096138 0.00129241 0.00244270
N 11.58782397 14.15962250 5.88997100 -0.00114111 -0.00265105 0.00413482
N 9.14361309 12.36794738 8.63791595 0.00394616 -0.00605743 0.00054059
N 7.72213117 15.26664891 10.73824451 -0.00021832 -0.00548506 0.00191844
N 10.60162758 17.65096058 13.33926555 0.00484447 -0.01151785 -0.00040278
N 11.83722059 14.29954749 10.61832121 0.00217212 -0.00035262 -0.00265164
N 9.31173461 12.30516436 13.54738854 0.00141463 -0.00133728 -0.00231970
N 7.40676218 15.46826380 14.95531412 -0.01071683 -0.00458247 -0.00418284
N 10.12629315 17.53359426 18.04217810 -0.00134546 0.00152288 0.00044678
N 11.64810344 14.50183192 15.60964853 -0.00041586 0.00377609 -0.00035670
N 9.04414661 12.16929587 18.09984869 0.00097367 -0.00268764 0.00045817
N 7.27207095 15.69090670 20.02476613 -0.00051388 -0.00308646 0.00033989
N 10.23764467 17.43738691 22.73222393 -0.00467914 -0.00027313 -0.00820217
N 11.62005360 14.18298740 20.07713519 -0.00553173 -0.00331913 0.00452772
N 9.25272839 12.37503569 22.70100192 0.00130318 0.00282439 0.00012618
N 6.74477479 22.17292906 1.39912049 -0.00698061 -0.00390916 0.00327685
N 9.66266435 24.10361285 3.89624855 -0.00344388 0.00824307 -0.00136479
N 11.01967011 20.71279465 1.08039988 0.00320514 -0.00393327 -0.00408426
N 8.23112228 18.73778317 3.82776923 0.00184568 0.00492423 -0.00358086
N 7.29893782 21.78865781 5.74969139 -0.00016213 -0.00395034 -0.01129400