2160
Time=17000.00000000 pbc="T T T" Lattice="20.54725161 0.00000000 0.00000000 0.00000000 28.96103870 0.00000000 -4.73614530 0.00000000 35.66663454" energy=-13802.54642743 virial="-6.55432748 14.20385883 72.20843166 14.20385883 -43.74181304 -12.00756131 72.20843166 -12.00756131 -37.61322123" stress="0.00238716 0.00066332 0.00350036 0.00066332 0.00003410 -0.00060666 0.00350036 -0.00060666 0.00035885" Properties=species:S:1:pos:R:3:vel:R:3
O 0.46479164 8.31512040 2.69508729 -0.00060720 0.00092731 -0.00126227
O 1.83432924 3.59207139 3.55520009 0.00452129 -0.00248129 -0.00487154
O 4.47955534 1.21181973 9.19293423 -0.00345025 0.00212098 0.00288466
O 3.35753155 6.24029805 8.47687478 0.00514282 0.00253731 -0.00134695
O 1.39398131 5.02176059 9.57206514 0.00416478 -0.00332037 -0.00131113
O -0.09838446 9.94075718 8.49121526 -0.00086394 -0.00220462 -0.00225620
O 3.73046565 4.89321535 2.39102167 0.00003706 -0.00106762 -0.00135679
O 5.53413889 28.65884791 3.58615575 0.00273577 -0.00403678 0.00604016
O -0.69767362 8.39429154 14.45209936 0.00005083 0.00121104 -0.00359993
O 0.19829893 3.66753112 15.49111626 -0.00156872 0.00552828 -0.00134921
O 2.84104070 1.00000005 21.46005443 -0.00187329 -0.00225372 -0.00063857
O 1.80816547 5.53679539 19.94737664 0.00028785 -0.00213974 -0.00387449
O -0.40267817 5.01498653 21.07609660 -0.00067800 -0.00060960 0.00701849
O -1.76076010 9.99508321 20.35649540 0.00533290 0.00172961 -0.00087555
O 2.49956075 4.45991685 14.27234714 -0.00238152 0.00168783 0.00403709
O 3.79961489 28.77708784 15.54442931 0.00078720 -0.00014093 -0.00316684
O -2.50081182 8.49777012 26.08191577 -0.00007899 0.00150430 0.00006611
O -1.33145456 3.66838853 27.18680712 -0.00142591 0.00426795 0.00313380
O 1.02524721 1.08235867 33.52751340 -0.00077677 0.00063717 0.00141408
O 0.02640475 5.69535418 32.23459472 0.00353210 -0.00069162 0.00097173
O -2.11848605 5.00583502 33.45178655 -0.00098764 0.00182392 0.00058357
O -3.49755072 9.56122862 32.06721143 -0.00540358 0.00233691 0.00126221
O 0.73464351 4.76305751 26.06432796 -0.00149961 -0.00304518 0.00017964
O 2.29150203 0.42327429 27.50266837 0.00004621 0.00000561 0.00276983
O 0.77624443 18.24041442 2.30775946 -0.00160292 0.00333115 0.00239072
O 2.15550943 13.45812195 3.60043021 -0.00049044 -0.00287582 -0.00040195
O 4.74016013 10.56805526 9.69559235 0.00638002 0.00006143 -0.00165557
O 3.31879823 15.78808456 8.46331542 -0.00347282 -0.00274923 0.00224009
O 1.51761694 14.60564788 9.74126763 0.00315995 -0.00623048 0.00355649
O -0.10466945 19.36782747 8.06944189 -0.00123242 -0.00394930 0.00017056
O 4.03270297 14.63074510 2.42510671 0.00251410 -0.00049099 0.00203367
O 5.37605538 9.54585456 3.63769194 0.00100931 -0.00080801 -0.00269165
O -0.82646060 18.21515101 14.30636142 -0.00144285 0.00180101 -0.00020688
O 0.38167714 13.50843428 15.44676870 0.01046379 -0.00787122 -0.00202332
O 3.24612397 10.92354002 21.12170011 -0.00300442 0.00216430 0.00000890
O 1.82705678 15.59335802 20.34812837 0.00288865 -0.00199114 0.00438305
O -0.32146319 14.70147387 21.36397812 -0.00191018 0.00072231 -0.00704144
O -1.58107169 19.33108978 20.28862894 -0.00244193 -0.00186753 -0.00310627
O 2.44466769 14.51414886 14.10331337 -0.00730285 0.00204104 0.00134656
O 3.75533840 9.96752473 15.74497816 0.00129924 -0.00132473 -0.00394282
O -2.39450289 18.32880690 25.98687271 -0.00394171 0.00146352 -0.00278181
O -1.10455612 13.13873135 27.15511902 0.00088012 0.00271672 -0.00395995
O 1.32149562 10.83432090 33.20497058 0.00261026 -0.00161343 0.00246348
O 0.21968761 15.39279709 32.14239724 0.00000558 0.00452063 -0.00086122
O -1.83212938 14.31911127 33.46134045 -0.00278789 -0.00279350 0.00036557
O -3.53129522 19.32839070 32.02063072 0.00520506 0.00221978 0.00347114
O 0.92406160 14.36537854 26.02758242 -0.00151452 -0.00133456 0.00161913
O 2.46840582 9.25184883 27.46613854 0.00076412 0.00234792 0.00358487
O 0.85954636 27.93098833 2.39563858 0.00083264 -0.00146692 0.00248623
O 2.16880476 23.07092913 3.38070012 0.00456590 -0.00166873 -0.00221159
O 4.65908613 19.97092787 9.59408134 -0.00024864 -0.00268226 0.00277081
O 3.40171479 25.18476843 8.32077323 0.00231504 0.00054740 -0.00359266
O 1.41316603 24.13140598 9.56064157 0.00710649 0.00249144 -0.00797794
O -0.34247706 28.80479430 8.09729256 -0.00198981 0.00532906 -0.00094500
O 4.02504858 24.32222725 1.89646687 -0.00125247 0.00000178 -0.00060769
O 5.69009466 19.35934566 3.67761683 0.00126205 -0.00049036 0.00034196
O -0.88520610 27.79077366 14.36446938 -0.00422847 -0.00072739 0.00124656
O 0.21023846 22.92990912 15.34604211 -0.00107749 0.00469502 -0.00311995
O 3.10596607 20.48372895 21.39666364 0.00407366 0.00233194 -0.00182581
O 1.64828084 25.51003143 20.53410144 0.00623492 0.00065558 0.00241443
O -0.39876885 24.07259307 21.75321420 -0.00289215 0.00040755 0.00149294
O -1.89430292 28.85779184 20.15413584 -0.00639513 -0.00496171 -0.00075573
O 2.29043972 23.83397258 14.10866404 0.00125305 -0.00024617 0.00149667
O 3.99786777 19.42384349 15.69455871 -0.00194997 0.00230250 -0.00153969
O -2.49885298 27.91283429 26.28479847 0.00059732 0.00034164 0.00079008
O -1.21274710 22.97259189 27.53968533 0.00265923 -0.00637321 0.00257969
O 1.56491204 20.30096429 33.17805763 -0.00013898 -0.00003191 -0.00593720
O 0.38206292 25.20623795 31.99314321 -0.00003818 -0.00109600 0.00157650
O -1.82946335 24.49794153 33.15563825 -0.00018188 -0.00218774 -0.00246935
O -3.55376983 0.06984372 32.22881891 -0.00617723 0.00580240 -0.00451082
O 0.89298138 23.90887633 26.33699385 0.00004098 0.00600399 0.00056367
O 2.44250814 19.11073804 27.49460048 0.00547382 -0.00539486 -0.00095837
O 7.43890270 8.55091657 2.30586066 -0.00705243 -0.00055981 -0.00318551
O 8.73765095 3.49746455 3.50377137 0.00097202 -0.00058007 -0.00395424
O 11.44201314 0.85797265 9.51203106 -0.00236682 0.00550459 -0.00121593
O 10.03357015 5.96150710 8.28300045 -0.00612041 -0.00097407 -0.00057977
O 8.24107897 5.03944844 9.88736783 -0.00295005 0.00292146 0.00445559
O 6.76527242 9.77790151 8.23781929 -0.00802640 0.00735344 -0.00110548
O 10.79010942 4.90966091 2.33618544 0.00555493 -0.00288749 -0.00440535
O 12.40185707 0.03370482 3.73992857 0.00241422 0.00048254 0.00190296
O 5.80585519 8.44674592 14.67410308 -0.00122888 0.00327131 0.00321300
O 7.17085695 3.67800138 15.41124050 -0.00010625 -0.00430886 -0.00054811
O 9.77508202 1.13091743 21.18869205 0.00437394 0.00030282 0.00362705
O 8.59093908 5.84169650 20.23467995 0.00090077 0.00304351 0.00280000
O 6.56656742 4.76355314 21.27272867 -0.00014726 -0.00131852 0.00480563
O 5.21679277 9.72772285 20.09744632 0.00142115 -0.00484081 0.00178673
O 9.35843251 4.57629885 14.26168952 0.00283991 0.00447128 0.00515789
O 10.60001489 28.92762231 15.69665903 -0.00189154 -0.00517192 -0.00217247
O 4.37173679 8.63734366 25.82093911 -0.00425159 -0.00458006 -0.00688852
O 5.49994072 3.91604559 27.41337872 0.00088639 0.00357620 0.00308490
O 8.23902291 1.05106016 33.33174049 0.00352642 -0.00124405 0.00780448
O 6.95830073 5.81412491 32.09531709 0.00001396 -0.00208886 -0.00046273
O 4.86612304 4.96476058 33.16296392 -0.00287111 0.00207758 0.00065457
O 3.41450207 9.48965200 32.03411491 -0.00038761 -0.00588305 -0.00431552
O 7.50670636 4.62298347 26.00473339 0.00419076 -0.00665322 -0.00011366
O 9.10191342 28.59949177 27.46531668 0.00277739 0.00104086 0.00261905
O 7.72413906 18.39009667 2.36279682 -0.00209926 0.00589583 -0.00381916
O 8.95865083 13.10529433 3.24819083 -0.00155273 -0.00596131 -0.00045472
O 11.34956425 10.98893235 9.39236944 0.00196438 -0.00372752 -0.00266328
O 10.16043437 15.84630635 8.55817576 -0.00060997 0.01006866 -0.00088520
O 8.16394709 14.67026116 9.55189932 0.00809194 -0.00063702 0.00093452
O 6.88274673 19.61233547 8.28395341 0.00040958 0.00174959 -0.00509676
O 10.81158158 14.48041213 2.16412750 -0.00524533 0.00373179 -0.00328240
O 12.53985785 9.69607477 3.95125382 0.00355457 -0.00294058 0.00029213
O 5.94967167 18.21222442 14.34097900 0.00125357 0.00108020 0.00663639
O 7.16568700 13.36658310 15.27482400 -0.00081832 0.00025290 0.00017043
O 9.92277567 10.88680449 21.15525461 -0.00212307 0.00759513 -0.00375129
O 8.65523320 15.75327431 20.14199656 0.00004604 0.00060427 0.00321201
O 6.76031853 14.55112503 21.34612583 -0.00798371 0.00547978 -0.00350007
O 4.85957747 19.37063567 19.99829667 -0.00014067 -0.00115195 -0.00053109
O 9.14828179 14.62174056 14.05044884 0.00287487 0.00112272 -0.00268024
O 10.84932687 9.74517303 15.72086090 0.00329249 -0.00068163 0.00173342
O 4.49353320 17.95223639 26.41447553 -0.00224000 0.00174488 0.00482095
O 5.79986200 13.07411037 27.14861824 -0.00555673 0.00219259 0.00351713
O 8.15919473 10.59654622 33.28975926 -0.00080351 0.00486809 0.00138047
O 7.19766460 15.60067012 32.05813502 -0.00284565 0.00115206 0.00121019
O 5.01522986 14.57677985 33.45020702 -0.00027784 -0.00084534 -0.00049720
O 3.51611982 19.03991386 32.11247170 0.00330612 -0.00497092 0.00135108
O 7.72757806 14.37056162 26.06475220 -0.00138996 0.00541405 -0.00172337
O 9.24930136 9.31003550 27.56332472 0.00255681 -0.00184638 -0.00072284
O 7.64914294 27.50635257 2.60395905 0.00436118 -0.00021083 0.00224994
O 8.88159745 23.21466907 3.41464746 0.00130197 0.00003645 0.00084773
O 11.48353017 20.45590925 9.43439479 -0.00162897 0.00088260 -0.00249903
O 10.19854435 25.19505646 8.36645595 0.00219307 -0.00186709 -0.00407618
O 8.27551521 24.19118301 9.61924383 0.00151892 -0.00198631 0.00840735
O 6.44128902 28.82643198 8.17961821 0.00342762 -0.00596524 0.00253110
O 10.96991970 24.21968597 2.35449786 0.00854806 -0.00298402 -0.00125390
O 12.48125136 19.24424796 3.67990303 0.00092835 0.00022079 0.00099079
O 5.77521314 27.74635020 14.16981723 -0.00013982 0.00451649 -0.00361502
O 7.22276164 23.06753573 15.35606669 0.00608557 0.00341959 0.00627498
O 9.94934420 20.27319788 21.42380142 -0.00601125 -0.00016602 0.00072314
O 8.59064312 25.17181151 20.17889524 0.00766437 -0.00169567 -0.00210958
O 6.62400829 24.69152732 21.70821206 -0.00274156 -0.00741590 0.00226710
O 4.93915785 0.14871379 20.15248985 0.00417801 0.00169758 0.00432216
O 9.35588846 24.14117509 14.16064504 -0.00599347 -0.00255313 0.00005385
O 10.70656955 19.36886783 15.33528755 0.00567650 -0.00165391 -0.00110643
O 4.16260357 27.86903476 26.58865246 0.00270289 0.00168296 -0.00627570
O 5.53482459 23.02339530 27.47844330 0.00197959 -0.00236591 -0.00264142
O 8.28419499 20.43662515 33.29642536 0.00388711 0.00212078 -0.00072076
O 6.93116147 25.38635492 32.35647811 0.00510806 0.00248169 -0.00108375
O 5.12175141 24.01612754 33.42131683 -0.00147505 -0.00777144 -0.00115385
O 3.35977456 0.45273377 32.32318139 -0.00133875 -0.00013187 -0.00746867
O 7.65141966 23.78316115 26.16770502 0.00438416 0.00271898 -0.00175705
O 9.17393960 19.57356574 27.46640680 0.00257585 -0.00675831 0.00267254
O 14.21797472 8.75186476 2.35887645 -0.00061512 0.00275034 -0.00497260
O 15.70237160 3.57129751 3.43845784 0.00094386 0.00559816 -0.00134703
O 18.39039894 1.13562348 9.32648664 -0.00163055 -0.00230266 -0.00292287
O 16.94932639 6.23237708 8.51960165 0.00256340 -0.00297318 -0.00061643
O 14.99102921 4.91556325 9.45237247 0.00403465 0.00441573 0.00265250
O 13.39031712 10.08707244 8.26325025 -0.00200607 0.00154141 -0.00452236
O 17.62060985 5.15961334 2.34073949 -0.00181921 -0.00090908 -0.00527453
O 19.14831090 28.67591411 3.38084897 0.00530008 0.00136488 0.00224354
O 12.72737740 8.57039127 14.21162814 0.00240971 -0.00373475 -0.00289182
O 14.03541171 3.68282033 15.30959935 -0.00068809 -0.00432086 0.00383636
O 16.38923890 0.98755062 21.33340311 -0.00346382 0.00448748 0.00394102
O 15.53445079 6.16605507 20.20091843 -0.00153813 -0.00230348 0.00206012
O 13.20016280 5.25507701 21.03254627 0.00123085 0.00094239 -0.00080157
O 11.96391789 9.79858177 19.94092024 0.00160276 -0.00024888 0.00081564
O 16.11072853 4.62102739 14.08635820 0.00095663 -0.00428149 0.00214814
O 17.50834582 28.62306645 15.68161923 -0.00087596 0.00758991 -0.00127179
O 11.12110316 8.81497701 25.78378987 -0.00702499 -0.00405862 0.00321271
O 12.26226590 3.69217993 27.38961788 0.00464955 0.00510788 -0.00298902
O 14.95511484 1.09083620 33.56288190 -0.00808176 0.00220624 0.00010211
O 13.79831256 6.04894660 32.05862821 -0.00629300 -0.00098002 0.00292483
O 11.80233516 4.92494968 33.50573674 0.00206410 0.00151161 -0.00664511
O 10.31564699 9.76918068 31.98103231 -0.00281938 0.00026339 0.00280323
O 14.08058743 4.91083840 25.99312618 0.00447670 -0.00354872 0.00474618
O 15.90785791 0.09266773 27.60522318 -0.00177361 -0.00092129 -0.00284875
O 14.53730931 18.12190280 2.58347103 -0.00088850 -0.00111729 0.00107907
O 15.79952298 13.32952221 3.31465546 0.00619376 -0.00147982 0.00402332
O 18.07978223 10.57202291 9.53056936 0.00303179 0.00055945 -0.00051238
O 16.98539600 15.63699988 8.40587337 -0.00213436 0.00546890 0.00550167
O 15.01010215 14.82340740 9.85095710 -0.00102267 0.00391575 -0.00271445
O 13.48229573 19.38736840 8.19156898 0.00365903 -0.00655158 -0.00389192
O 17.73290221 14.59981981 2.25665464 -0.00417590 -0.00284475 -0.00233886
O 19.20188589 9.79741498 3.78160733 0.00057035 0.00049722 -0.00360342
O 12.84061240 18.39759220 14.38991183 -0.00113366 0.00823325 0.00034273
O 13.93259680 13.58106784 15.34122618 -0.00362812 0.00486831 0.00171829
O 16.51886346 10.69359973 21.28498766 -0.00118320 0.00103529 0.00855520
O 15.61692819 15.55383741 20.12349058 -0.00181455 0.00208900 0.00007981
O 13.56674839 14.90423455 21.57313173 0.00792837 -0.00091407 0.00583754
O 11.93083382 19.54020937 19.97743203 -0.00968698 0.00054303 -0.00275058
O 16.04480175 14.39009634 14.10547576 0.00089181 -0.00072299 0.00026801
O 17.64976926 9.66115229 15.23775640 -0.00147495 0.00291564 0.00058120
O 11.24672910 18.31359421 26.30287157 -0.00491804 -0.00002011 -0.00042042
O 12.49146244 13.25262807 27.12749852 -0.00003646 -0.00633887 -0.00001905
O 14.98778292 10.60037495 33.38251672 -0.00174725 -0.00191151 -0.00192390
O 14.00532812 15.39217788 32.03183537 -0.00356264 -0.00280716 0.00397728
O 11.73231693 14.64116256 33.22227901 -0.00212659 0.00296936 -0.00116068
O 10.40471098 19.34903052 32.07899145 0.00308024 0.00192483 -0.00060498
O 14.34486686 14.53736188 25.74746997 -0.00083761 -0.00409937 0.00484018
O 16.04598326 9.73805751 27.36011641 -0.00410519 -0.00515549 -0.00197975
O 14.45532836 28.04855045 2.37110354 -0.00005469 0.00283323 -0.00764069
O 15.77289650 22.90619142 3.38302988 0.00130359 -0.00445600 -0.00406250
O 18.33690820 20.54909249 9.26726976 -0.00371393 0.00580800 0.00489595
O 17.25142785 25.05625968 8.28132766 0.00168537 -0.00520975 -0.00230990
O 15.17767336 24.26017683 9.50936443 -0.00195338 0.00369147 -0.00328004
O 13.60826959 28.92506528 8.41378759 0.00121101 -0.00256564 -0.00121416
O 17.74304188 24.03316422 2.06145090 -0.00219828 -0.00156888 -0.00069594
O 19.36766644 19.30150038 3.74787670 0.00138994 -0.00362289 0.00194363
O 12.83288742 27.97894557 14.40076567 0.00106937 -0.00566005 0.00151554
O 14.14876640 23.18831375 15.30873468 0.00048467 0.00119981 0.00712393
O 16.88409879 20.52326984 21.29285962 -0.00236015 -0.00629862 -0.00316574
O 15.44170141 25.23862985 20.40183854 -0.00613768 -0.00600669 0.00117956
O 13.32357197 24.16169607 21.57006686 0.00282296 0.00419497 0.00038168
O 11.69322692 0.04411592 19.91137737 0.00270406 -0.00023079 -0.00173403
O 16.08147013 24.30526692 14.00714611 0.00393178 0.00074223 -0.00020093
O 17.63701649 19.51039272 15.46541991 -0.00248940 -0.00011516 0.00303966
O 11.35289111 27.94122081 26.23451671 0.00312776 -0.00378571 -0.00105979
O 12.44323554 23.05218575 27.38667296 -0.00182466 -0.00339674 -0.00208140
O 14.94372635 20.00161551 33.36276008 -0.00416781 -0.00492069 0.00033155
O 13.87363960 25.33247341 32.39115219 0.00527382 0.00103508 0.00034442
O 11.90843351 24.18954464 33.44389147 0.00088035 -0.00387175 0.00677075
O 10.32389295 0.10307723 32.35006213 0.00562342 0.00008933 0.00272570
O 14.40127630 24.09792321 25.98098865 0.00041506 0.00601532 -0.00443321
O 16.05249386 19.06128994 27.28751895 0.00261254 -0.00276298 -0.00474883
H -0.38664046 8.90419287 3.05482463 -0.00266877 -0.01344359 -0.02475854
H 2.76106737 3.96578041 3.38364220 0.00746497 -0.00246016 -0.02017069
H 5.20177417 0.70396664 8.91596818 -0.00773281 0.02955318 -0.00958107
H 2.50466642 5.78415404 8.82346540 -0.00459809 -0.01443660 0.00343215
H 5.41838073 8.24600514 0.56288701 0.00814522 0.00842545 -0.00714540
H 3.63620969 3.53200309 5.45804207 -0.00694668 0.00589520 -0.00449600
H -0.25882975 1.35238790 11.10003839 0.02300512 -0.00495777 0.00556737
H 1.50904339 6.20358566 6.64918316 -0.01753512 -0.00158991 0.02392796
H 4.10986324 6.69570331 10.79699490 -0.01191651 0.01444073 -0.00088275
H 3.82339562 1.59828911 7.15763257 0.03292571 -0.02148968 0.00310664
H 1.15996915 2.88381582 1.52799064 -0.00332986 -0.00554087 -0.00401682
H 1.42673140 7.77659593 4.65105441 -0.01341518 0.00312825 0.01992385
H 2.36025281 5.29800562 0.07778951 -0.00915756 0.00968870 -0.01757237
H -0.13964202 0.30657834 6.04594221 -0.01189608 0.01254395 -0.00414859
H 2.41117312 3.74096758 12.26629658 -0.01321169 -0.01707867 -0.01458091
H 5.33783029 9.19971246 5.72706826 -0.00875478 -0.04292207 -0.02416188
H 2.58077217 7.06840013 1.64498391 -0.01503006 -0.01170250 -0.00749461
H -0.04726247 1.91974693 4.07405190 0.00043338 0.02288880 -0.01437074
H 2.37515140 2.40345336 10.29590428 0.03417433 -0.00132173 0.00928322
H 5.32083801 7.67701446 7.56802159 0.00130261 -0.01606842 0.00525927
H 5.15922102 4.87839528 9.85871844 0.02963412 0.02118229 0.00301061
H 2.94559261 28.78846950 8.15598518 0.01829307 -0.01453519 0.02052026
H 0.22276659 4.63454239 2.62618282 -0.00772882 -0.01166283 0.01813775
H 2.29635229 9.79261838 3.75451411 0.00839905 -0.01244035 -0.01878353
H 6.03782296 4.58890837 7.71792312 0.01888903 0.00758753 -0.01363657
H 0.72786509 8.41531061 10.54305083 0.00478154 0.00848828 0.00726078
H -0.40626326 6.41602965 3.89067101 0.01539513 -0.01032507 0.01131294
H 4.97903183 1.03786252 1.48260469 0.00862449 -0.00190345 0.00317196
H -0.16826468 2.75735872 8.58793890 -0.02622282 0.00258574 0.01582599
H 2.38884064 8.64513231 9.95123293 -0.03188327 0.00464836 0.01688102
H 4.36318302 6.97349304 3.90060629 0.01704641 0.00220367 0.00170208
H 3.28710543 0.61978155 1.60373289 0.00559993 0.01535258 -0.00583819
H 1.00307716 3.59161997 7.48657788 0.00886801 -0.01137051 -0.01184868
H 1.32446656 7.43551124 9.21829774 -0.01863415 -0.00424232 -0.01669077
H 4.92686997 5.58895386 4.90394649 0.00758640 0.00520745 -0.01860228
H 4.00029901 1.99418023 2.52928453 -0.00393546 0.04288018 0.03347949
H -1.55167696 8.89428744 14.72820727 -0.03941628 -0.00761931 0.02316296
H 1.02880856 4.28561680 15.34630612 -0.02184771 -0.02241084 -0.01362647
H 3.73320622 0.60545964 21.06702938 0.01823099 0.00507726 0.00437448
H 0.92141246 5.30251192 20.37368864 0.00683815 -0.02318052 0.01333372
H 3.90026498 8.16688867 12.80484023 -0.01355399 -0.00384304 0.00225388
H 2.10246321 3.49031955 17.10165005 0.02670347 -0.00280914 0.01326609
H -2.41029589 1.26232395 23.22860850 -0.01713498 -0.00740127 -0.00233518
H -0.17615302 5.92507247 18.36262129 0.00474892 -0.00790987 -0.00070131
H 2.28838293 6.52481978 22.38604002 -0.01830125 0.00851817 0.00783588
H 2.14528051 2.08636855 19.25063257 -0.00925628 0.00861406 -0.00062770
H -0.39556175 2.93992473 13.16136820 -0.00355785 0.00329960 -0.00377057
H -0.30153769 7.66998142 16.56205459 0.00356769 -0.00267397 0.02449409
H 1.04931585 5.16325055 11.89445330 0.01258429 -0.00191916 0.01359374
H -1.81316337 0.61394422 18.05502942 -0.00731098 -0.02482682 -0.00776271
H 0.73330910 4.21631473 23.75843536 0.00999014 -0.00623273 0.01286643
H 3.69083849 8.80754031 17.40710083 0.00246674 0.00858443 0.00447424
H 1.19798440 6.74393353 13.79294054 0.01098082 0.02100414 -0.00098455
H -1.63765964 2.08966617 16.07675062 -0.02241685 0.00670658 -0.00215844
H 0.82705574 2.43040105 22.07033567 -0.01887200 0.00843450 0.02548256
H 3.81559580 7.12257000 19.21794297 -0.00325908 -0.00982600 0.01978659
H 3.41095025 4.66983450 21.33205588 0.04335425 -0.00976458 0.02832752
H 1.28766948 0.37125560 20.46095774 -0.01945693 0.01617443 -0.02557684
H -1.32578443 4.87860042 14.02434969 -0.00342924 -0.01186976 0.01808447
H 0.76016918 9.22991739 15.35132424 0.01447268 -0.00127742 0.01082064
H 4.03022177 3.38577178 19.82022453 -0.03218499 -0.00757086 -0.00888192
H -0.42732497 7.45093822 20.98613559 0.02102378 -0.01544779 -0.02255798
H -1.98303675 6.18472360 15.94715340 0.00157740 -0.01044748 -0.00902693
H 1.78026939 0.41435742 13.40480821 -0.00229378 0.02258585 0.00611058
H -1.53276155 2.49484661 20.90116554 0.00942433 -0.04087610 0.00758113
H -1.15958891 8.46598797 22.25253322 -0.02058948 0.00546452 0.03335967
H 5.12662409 5.92635136 15.35566589 -0.04649777 -0.01317719 -0.00735162
H 1.67391091 1.95325662 14.39889155 -0.02514418 0.02112029 0.00924659
H -1.14301966 3.35321977 19.36291727 0.03112043 0.02272165 0.00853429
H 0.52479759 8.59567854 21.91189873 0.05277839 0.02082435 0.00988349
H 3.60509964 6.80336756 15.03800534 -0.00477818 -0.01332915 0.02397267
H 3.25554716 1.29605272 13.61156880 -0.01948508 0.00771694 0.01205649
H -3.26805101 9.02595601 26.31222267 -0.00209172 -0.01421670 0.00630259
H -0.47880554 4.19321020 26.81333083 -0.02774575 -0.02248133 -0.00181094
H 1.86452024 0.84996268 33.06977454 0.02150868 -0.02695467 -0.01593035
H -0.87870767 5.35042167 32.50474332 0.02038196 0.00318395 -0.02657797
H 2.24309183 7.99606205 24.18468911 0.00070763 0.00290531 -0.01873060
H 0.73389148 3.11413702 28.93252488 0.00344532 -0.00093536 0.00735698
H -3.45806142 1.65843828 35.03703013 0.01388125 -0.00231123 0.03114671
H -1.95211376 6.14680048 30.51335754 -0.01360784 0.01925827 0.00017032
H 0.58570055 6.53850718 34.55440839 -0.01107291 0.00913566 -0.00138211
H 0.47057108 1.82906188 31.03310333 0.01703692 0.01096047 -0.01099490
H -2.35313930 3.05193663 24.92593940 -0.01034405 0.01114825 -0.01775879
H -1.88748907 7.60645941 28.48598524 -0.00342442 -0.01000739 0.00842997
H -0.50790483 5.47613400 23.45897767 0.00954953 -0.00211642 0.00680915
H -3.42100990 0.53456219 29.83078616 0.01919730 0.01485731 0.00296999
H 3.83999203 4.13406964 0.41225607 -0.00378388 0.00701702 0.01178678
H 2.13585138 8.82721363 29.57893140 0.01865659 -0.01776269 0.00446636
H -0.55457026 7.07659623 25.34316335 0.01129438 -0.01071677 -0.00612596
H -3.37998350 2.15101465 27.93203917 0.00315889 0.02159263 0.00070380
H -0.85544573 2.71378451 34.28163624 0.01268717 -0.00547891 -0.00557375
H 1.89793652 7.47626221 31.68574292 0.00776327 0.00081393 -0.01677108
H 1.72324766 4.46951905 33.43360361 0.02934541 0.00195422 0.02584140
H -0.47305465 0.09409932 31.80913743 -0.00570902 0.00621744 0.00162039
H -3.25345422 4.98105573 25.72522763 0.01135604 -0.01276988 -0.00725458
H -0.67389512 9.27422964 27.28447245 -0.02172859 0.01716224 -0.00894710
H 2.35331872 4.17233699 31.30237544 -0.02784514 0.01697625 -0.01731906
H -2.74950223 8.56803984 34.26840235 -0.02014074 -0.00680288 0.02189829
H 16.16398078 6.88523716 27.18939113 -0.02015857 -0.01064487 0.02224439
H -0.51204813 1.19168890 25.89984365 -0.00541454 0.02841086 -0.00597905
H -3.09863474 4.00410014 31.30519550 -0.02367112 -0.01313384 0.01748699
H -1.10650862 9.16387640 34.05945506 0.00249106 0.00724932 -0.00868627
H 2.13556964 7.04146665 27.40327779 0.00709666 0.01521200 -0.01777754
H 0.93846793 2.21869054 26.09336409 0.01154860 0.01712013 -0.01037096
H 15.92215754 3.54965554 32.16718697 -0.00811128 0.01715032 0.01845159
H -1.55067754 7.59197725 33.29483957 0.00420701 -0.00900487 0.00561341
H 1.92623553 5.46926601 28.34471488 0.01087352 -0.01499896 0.01007302
H 1.10558150 0.94573151 25.01903337 -0.01172895 0.01220175 0.00406958
H -0.03587174 18.73557996 2.64844370 -0.01027661 0.00144617 -0.01386513
H 3.04117718 13.95734120 3.46084325 -0.00289997 0.03144250 -0.00360975
H 5.64115856 10.39426542 9.20775460 0.01785981 0.01208063 0.00696346
H 2.48627790 15.32688835 8.84952953 0.03225451 0.02298548 -0.01340425
H 5.70217091 17.84003630 0.89928881 0.00015187 -0.00576992 -0.00415079
H 4.01806384 13.13043843 5.38737539 0.00610108 0.01556157 -0.02435058
H -0.37276277 11.26844697 11.01327736 -0.01317751 -0.00264624 0.01627562
H 1.37782452 16.14183090 6.90231855 0.03482031 -0.02012448 0.00276514
H 4.06057946 16.16544007 10.90401277 0.01886846 0.02170124 -0.01104074
H 3.97776724 11.41563927 7.21010624 -0.01847735 -0.00684833 -0.02546464
H 1.23798840 12.46376327 1.30360116 -0.02249070 0.02367557 0.00660598
H 1.35366956 17.77602707 4.85009960 -0.00298132 0.00374278 -0.00623994
H -1.94357165 14.98341385 35.54707302 0.00836902 0.00254898 -0.00746875
H -0.01686031 10.35738465 6.07043639 0.03682261 0.01892511 0.00057509
H 2.70698386 13.77020875 12.13839705 0.02331124 -0.01851127 -0.00017957
H 5.39969670 18.87894912 5.80492789 0.00528826 -0.01111328 -0.00370444
H 2.81091929 16.74212765 1.63253258 -0.00266538 -0.01280662 -0.02256537
H -0.10564071 12.07482605 4.48274447 0.02627419 -0.00220309 0.00360684
H 2.52531817 12.05282436 10.48426372 -0.01387558 0.00879940 -0.00844113
H 5.23027516 17.31571018 7.91340512 0.00688880 0.00098317 -0.02502349
H 5.10308448 14.29044273 9.85317573 -0.02933051 0.00332905 0.00810470
H 3.08373078 9.50571629 8.05025772 0.04764189 -0.02381913 0.02118029
H 0.26241921 14.25161082 2.33269873 -0.01665563 0.02273262 -0.00321443
H 2.46488258 19.25253252 3.58229427 -0.01870118 -0.00680521 -0.00094499
H 5.83355902 12.84211991 8.20455908 -0.04998753 -0.02018299 -0.00461019
H 1.21173595 17.09243483 9.19837238 -0.01887741 -0.01031335 -0.01941934
H 18.94186530 16.84736539 3.41259791 -0.01124031 -0.01244166 0.01018787
H 3.90815864 11.93371585 2.70426595 -0.02406347 0.01068864 0.02187670
H 1.17739502 13.29305475 7.75587791 -0.01652817 0.01300162 -0.00239809
H 0.36550014 18.22819587 10.20449508 0.03205777 -0.00123658 0.00463272
H 6.27991034 16.58824738 3.58020570 0.01515009 0.00420439 -0.00115368
H 4.85221495 10.80085491 1.57675802 0.02221617 0.01640933 -0.00029054
H -0.58060229 13.35398861 7.70517376 -0.00680755 0.00113607 -0.00362046
H 2.25337291 18.21554600 10.05056783 -0.01291764 0.01341583 0.01337048
H 4.70503727 16.06939369 4.25646357 -0.00518117 0.01115997 -0.01532006
H 3.12372025 10.54379800 1.76010708 0.00653016 -0.00379436 -0.00778848
H -1.63519921 18.61437865 14.64882765 -0.00680727 0.02925175 -0.02563259
H 1.28073272 13.60303501 15.02814546 -0.01089718 -0.01963118 -0.01017180
H 3.93302024 10.36072647 20.70531579 0.01602783 0.00258916 0.00145259
H 0.94205527 15.14788351 20.29645260 0.00760439 0.00993362 0.00553536
H 3.85141693 17.39719900 12.92104270 -0.00830356 0.01550084 -0.00479387
H 2.39873379 12.64111730 16.84330763 0.03024259 0.00552249 0.02929618
H -1.92109651 11.13850583 22.99267219 0.01053452 -0.00156633 0.01754566
H -0.21504162 16.03980065 18.73455506 -0.01343626 0.01401437 -0.02209060
H 2.57854142 16.24081470 22.61581497 -0.00283851 -0.02185963 0.01900518
H 2.27640125 11.06524458 18.79583260 0.00387617 -0.00834144 -0.01062900
H -0.29548423 12.91424382 12.79007293 -0.00649238 -0.00050878 -0.01462950
H -0.14854909 17.60724627 16.90722542 0.01139832 -0.01945853 0.01156147
H 1.32024743 15.14269346 11.92437488 -0.00225834 -0.01481397 0.01221440
H -1.80270951 10.22654101 17.82676453 0.03194326 -0.00290534 -0.00522690
H 1.19215929 13.89867825 23.82219379 0.02828129 -0.00031160 -0.01147484
H 3.82745404 18.84629861 17.92488715 -0.02097120 -0.01250108 0.01314643
H 1.00952741 16.47853943 13.89475304 0.01085369 -0.00006370 0.01524964
H -1.80703441 12.00736911 16.08760473 -0.00573849 0.00811674 -0.00363737
H 1.11351241 12.10288491 21.96273646 0.00897565 -0.01379583 -0.00198971
H 3.86684897 17.19890237 19.53137907 -0.01980329 0.01347668 -0.00960313
H 3.65506259 14.76578998 21.33052275 -0.03616752 0.02780465 0.00532075
H 1.27994525 9.18237160 19.67836532 -0.05501624 0.00294466 -0.00889742
H -1.33444303 14.63843243 13.88427346 0.00818384 0.01677403 0.01766351
H 0.91251608 19.30423334 15.55720943 0.02067520 -0.01003211 0.01472649
H 5.18174305 12.37868222 20.39854454 0.00605599 -0.00854312 -0.00657482
H 0.94126357 18.35355099 22.10084303 -0.00228241 0.00618264 0.00271743
H 17.42466183 16.84952233 14.84834987 0.01057799 -0.01947132 -0.00252380
H 2.99674422 10.39969891 13.22803711 0.00971126 -0.00200410 0.02016643
H -0.57236731 13.19006493 19.45422838 0.03764960 0.00136350 -0.01397642
H -0.07075965 17.07530088 21.36695390 0.00065020 -0.01018070 0.02437244
H 2.88912865 16.03161284 15.90862135 -0.00371972 -0.01316663 -0.03029869
H 1.26740365 10.60238795 13.76536927 -0.00436885 -0.00005516 -0.00040490
H -2.20869079 13.86098420 19.04586811 -0.00910883 0.00275842 0.01601161
H -0.84155434 18.11795699 22.42760444 0.03087310 0.00330434 -0.01432088
H 4.51397237 15.35050717 16.32061216 0.02036358 0.00548032 0.02566531
H 2.54722015 11.80471547 14.11474766 -0.02275018 -0.03049017 0.03145973
H -3.31140259 18.62428701 26.33568510 -0.00708591 0.01523281 0.02697041
H -0.27452092 13.57442155 26.81908348 -0.00002875 -0.02352512 0.00474791
H 2.06951680 10.22957270 32.94912359 -0.02716863 0.00884657 0.01511901
H -0.64065228 14.96734457 32.37101166 -0.00505168 0.02723281 -0.00484034
H 2.47636828 17.59468902 24.61031625 0.00973679 -0.00292610 0.00230704
H 0.78536939 12.85625096 29.06930345 -0.01986185 -0.00120565 -0.00491153
H -3.68052586 10.76045383 35.10523097 -0.00411990 -0.00770593 -0.00008359
H -1.88454209 15.58432979 30.26281929 -0.01393074 0.01533123 -0.00465048
H 0.90069789 16.28711591 34.59387540 0.00753512 0.01003100 0.00808966
H 0.50921737 11.47733077 31.16629807 0.00671571 0.00560976 -0.00725091
H -1.96324163 12.57014565 24.89261450 0.01049514 -0.02227155 0.02699159
H -1.71160485 17.07391522 28.41151948 -0.00102698 0.01637410 -0.01541868
H -0.58964039 14.80773048 23.63476382 -0.01473268 0.02181577 -0.01876918
H -3.34000319 10.20691595 29.82024952 -0.00030176 0.00744531 -0.00576122
H 4.16017581 13.88951032 0.21827436 -0.00385846 0.03055313 0.03005943
H 2.23681616 18.43392553 29.46760565 0.01840323 0.01621685 -0.03238497
H -0.53954650 16.46971407 25.54954785 -0.01276469 0.00497612 0.02972556
H -3.04359363 11.83414513 27.80320682 -0.00046230 0.01881655 -0.03567835
H -0.54821009 12.41048928 33.98166665 0.02041916 -0.00514285 0.02362672