2160
Time=40000.00000002 pbc="T T T" Lattice="20.61280946 0.00000000 0.00000000 0.00000000 28.91562914 0.00000000 -4.74015461 0.00000000 35.72704608" energy=-13800.60114825 virial="-48.44176930 -15.23162997 92.75081932 -15.23162997 -37.20572130 11.66055390 92.75081932 11.66055390 -43.92889221" stress="0.00002282 -0.00071782 0.00435107 -0.00071782 0.00061783 0.00057047 0.00435107 0.00057047 0.00018540" Properties=species:S:1:pos:R:3:vel:R:3
O 0.72950409 8.82378333 2.03692284 -0.00194469 0.00187508 0.00081449
O 1.95251261 3.66880008 3.46265300 -0.00103424 -0.00330310 -0.00005275
O 4.69090841 1.12540892 9.44074856 -0.00278631 -0.00242466 -0.00298787
O 3.60821824 6.02863919 8.35278458 0.00277125 -0.00500943 0.00058309
O 1.43924653 4.97424224 9.53871230 -0.00394283 -0.00956386 0.00808699
O -0.33437173 9.76966995 8.39494193 -0.00330861 -0.00175819 -0.00026755
O 4.01631196 4.91739769 2.20975447 -0.00218641 -0.00046161 0.00199912
O 5.49920915 28.89915389 3.65843248 0.00421906 0.00055339 0.00214582
O -0.82072408 8.49562210 14.32031306 -0.00199233 -0.00060331 0.00017856
O 0.30217774 3.50452847 15.43270075 0.00032224 -0.00075007 0.00057911
O 3.08620490 1.12672346 21.22378925 0.00070299 -0.00152098 0.00408793
O 2.05822324 5.83195819 20.15119923 -0.00047623 -0.00198075 0.00730718
O -0.12342531 4.85806442 21.51013595 -0.00043962 -0.00457626 0.00216621
O -1.74150818 9.40862906 20.38830632 -0.00054779 -0.00545650 0.00445609
O 2.46140236 4.47575208 14.39865343 0.00743863 -0.00041941 0.00287005
O 3.95085993 28.71840050 15.72125429 -0.00348936 -0.00047157 0.00167837
O -2.60380501 8.49088613 26.23357227 -0.00205041 0.00025052 -0.00011130
O -1.18173535 3.58076305 27.12176566 -0.00599814 -0.00497365 -0.00047252
O 1.43939165 1.10354627 33.20120139 0.00144014 -0.00519880 -0.00272412
O 0.53471110 6.10365065 32.14660576 0.00076840 0.00084995 0.00624973
O -1.52984262 4.84047692 33.28955162 0.00123835 0.00029930 0.00187998
O -3.50216796 9.96371154 32.28108846 -0.00013551 0.00240933 0.00107483
O 0.69500785 4.66400200 25.92929465 0.00690552 0.00055379 0.00133568
O 2.32962545 0.10380009 27.54523508 -0.00113193 -0.00131255 0.00354840
O 0.38613030 17.94183210 2.76468106 0.00546869 -0.00358015 0.00003831
O 1.80814035 13.30164828 3.57527462 -0.00155972 -0.00270631 0.00199012
O 4.65143277 10.82448487 9.60548555 -0.00351241 0.00289264 0.00074567
O 3.46975662 15.60994874 8.50598916 0.00061527 -0.00074695 0.00031625
O 1.20321666 14.70649985 9.43167894 -0.00098752 -0.00156751 0.00407805
O -0.12760428 19.26584048 8.32937343 0.00612116 -0.00797942 0.00270682
O 3.87392547 14.38297279 2.18400080 0.00027292 0.00309274 0.00142496
O 5.40503000 9.50500294 3.40804983 -0.00359242 0.00342112 0.00965252
O -0.62724998 18.08143777 14.41955660 -0.00089744 -0.00658691 0.00349610
O 0.22422508 13.18168044 15.71437733 0.00031828 0.00101285 -0.00878456
O 2.97602268 10.49651266 21.65740066 -0.00190966 -0.00466615 -0.00427268
O 1.73555715 15.51799015 20.31435439 0.00402388 0.00101231 0.00080511
O -0.31450594 14.49405787 21.33608900 -0.00070565 0.00217014 -0.00170213
O -1.59873223 19.10478110 20.23036230 0.00374395 -0.00538953 0.00466310
O 2.33838319 14.05639959 14.55662006 -0.00233097 -0.00155395 -0.00133486
O 4.23948144 9.76420495 15.52708525 0.00175275 -0.00428133 0.00045154
O -2.44364266 18.28688743 26.04908591 0.00143292 0.00035045 -0.00343264
O -1.18691616 13.53514750 27.38848467 -0.00816708 -0.00000038 -0.00133740
O 1.29627476 10.76778118 33.13209655 0.00402250 -0.00232437 0.00273107
O -0.02496639 15.60559001 32.07653692 0.00072618 0.00106754 -0.00226638
O -2.15159434 14.89261250 33.37969112 0.00092944 -0.00215596 0.00253262
O -3.36904488 19.36888272 31.97704179 -0.00188679 0.00133497 0.00309573
O 0.77509863 14.44855931 26.05400533 -0.00800677 -0.00136102 0.00550624
O 2.31524120 9.86945499 27.48656673 -0.00131844 0.00221958 -0.00111676
O 0.82771221 27.87912580 2.52544209 -0.00216628 0.00476567 -0.00302261
O 2.00321041 22.96077751 3.55339185 -0.00652749 0.00127031 -0.00063232
O 4.58035178 19.76593197 9.69805886 0.00273385 0.00396081 -0.00240797
O 3.34011536 25.34379114 8.45886184 0.00215629 0.00104831 -0.00343419
O 1.12900320 24.31456431 9.65051578 -0.00099109 0.00254154 0.00608274
O -0.20025761 0.24242000 8.30788513 -0.00175273 0.00220042 -0.00012903
O 3.90953255 24.07964623 2.08310135 0.00482084 -0.00369183 0.00041333
O 5.58721161 19.09417496 3.58679019 0.00274177 0.00104633 -0.00205953
O -0.89170839 27.37401771 14.63149622 -0.00101702 -0.00505797 -0.00578938
O 0.31167623 22.99585001 15.55333953 -0.00321553 0.00432774 -0.00385414
O 2.96951720 20.63493217 21.28309101 -0.00417388 0.00097123 -0.00032616
O 1.66947328 24.92381073 20.36769974 -0.00149056 -0.00448652 -0.00368385
O -0.42338700 24.13119654 21.48254358 0.00318314 -0.00127576 -0.00157962
O -1.79438702 28.84192865 20.22488753 0.00812249 -0.00445898 -0.00215204
O 2.27666266 23.70489672 14.07951996 -0.00572867 0.00429005 -0.00030562
O 4.15894776 19.39702836 15.74851626 -0.00027498 -0.00062329 0.00714202
O -2.33259395 27.69496248 26.20859544 -0.00373603 0.00005292 0.00051938
O -1.47129010 23.45863049 27.63334172 -0.00124895 -0.00780106 -0.00170314
O 1.49187879 20.82482318 32.89915715 0.00081432 0.00072198 0.00402235
O 0.08395987 25.37885008 32.24437541 0.00568441 -0.00235546 -0.00363995
O -2.02079932 24.09138573 33.42858020 0.00009434 0.00132069 -0.00017688
O -3.56547797 28.89173251 31.87748675 -0.00031191 0.00049791 -0.00231517
O 0.71200983 23.82669238 26.29728511 -0.00018523 -0.00380903 0.00237078
O 2.07228210 18.82682646 26.88509173 0.00896626 0.00131016 0.00172707
O 7.53868867 8.44307022 2.51763650 -0.00052208 -0.00296315 0.00285444
O 8.85714383 4.03853088 3.82506704 0.00102707 -0.00229864 -0.00162595
O 11.50942367 1.24073998 9.28387466 0.00223511 0.00042683 -0.00088075
O 10.38124997 5.90512268 8.50027904 -0.00511183 -0.00034958 0.00200118
O 8.39124375 4.89639716 9.71693404 -0.00680070 -0.00258112 0.00091356
O 6.74563451 10.01669600 8.47655732 -0.00625550 0.00422303 0.00132349
O 10.82916489 4.91950086 2.35713070 -0.00295635 0.00828701 -0.00031738
O 12.40402552 28.62070793 3.60688609 0.00233568 0.00392721 0.01241909
O 6.12514401 8.41586550 14.61005528 0.00367967 0.00064493 0.00367242
O 7.34732034 3.95778701 15.74873275 -0.00200247 0.00389520 0.00099917
O 9.76007887 1.06108127 21.51388278 -0.00016192 -0.00670236 -0.00726445
O 8.67851743 5.98007076 20.34383699 0.00177033 0.00356137 -0.00064478
O 6.69776987 4.84693145 21.61517966 0.00346929 0.00185036 -0.00521777
O 5.32016746 9.86228386 20.31970911 0.00061520 -0.00828793 -0.00010195
O 9.50353015 4.78578185 14.35291311 0.00346491 0.00719296 0.00432598
O 10.74281371 28.82955387 15.39314030 -0.00090296 0.00248307 0.00056933
O 4.56005378 8.47137506 26.29853718 0.00704757 0.00115658 0.00111459
O 5.72925665 4.10084963 27.46360414 0.00802008 0.00023800 -0.00202237
O 8.15847667 1.08969466 33.25837572 -0.00114891 0.00377911 0.00064910
O 7.12477817 6.21174376 32.48483528 -0.00545589 -0.00709059 0.00055117
O 4.95390147 5.02165795 33.36216955 -0.00231701 -0.00091847 -0.00836613
O 3.38618293 9.68891462 32.05255135 0.00203682 -0.00007154 -0.00154727
O 7.71354837 5.13989044 25.79431248 0.00133637 -0.00225050 0.00064410
O 9.07577284 0.45871026 27.30490639 -0.00103900 0.00514520 -0.00332437
O 7.66646318 18.21184164 2.27729004 0.00004303 0.00472201 -0.00234523
O 8.44753892 13.58167546 3.65106738 0.00659347 0.00149491 0.00184838
O 11.60154509 10.71133006 9.58688589 0.00063801 -0.00184540 -0.00271873
O 10.17969264 15.55901181 8.64454989 -0.00254175 -0.00135992 0.00069297
O 8.16548683 14.36075639 9.79662055 0.00129222 0.00017838 0.00002130
O 6.62054291 19.20288408 8.14032747 0.00060403 -0.00070707 -0.00153325
O 10.73935254 14.34083521 2.38354035 -0.00696686 -0.00197426 -0.00274173
O 12.33801619 9.44540441 3.59589682 0.00102304 -0.00587975 -0.00452846
O 6.11206122 17.97817461 14.66296399 0.00164625 -0.00160896 0.00221721
O 7.19728464 13.21980858 15.46108929 0.00580385 0.00407115 0.00242510
O 9.94074857 10.86773323 21.48461167 0.00226714 0.00165915 0.00948830
O 8.74289864 15.34300672 20.22454221 0.00201599 0.00009830 0.00066124
O 6.63478996 14.12209536 21.58066361 0.00434218 -0.00790070 -0.00239981
O 4.81620297 19.40099233 20.20756479 0.00052396 -0.00340248 -0.00262668
O 9.05937714 14.30624358 13.97904821 0.00152445 -0.00473315 -0.00164591
O 11.00180487 9.46972940 15.51359046 -0.00343248 -0.00295244 -0.00322316
O 4.51140447 18.20961978 26.12502805 0.00829366 -0.00456944 0.00946688
O 5.79704220 13.37987070 27.29093258 0.00341388 0.00190056 0.00341178
O 8.26639780 10.83933467 33.24600460 -0.00478418 -0.00239752 0.00371561
O 6.80317869 15.66279136 32.02267555 -0.00179890 0.00201047 0.00028829
O 4.90012573 14.49367776 33.28906302 0.00318300 0.00340415 -0.00067885
O 3.52678147 19.37283512 31.95956705 -0.00118626 -0.00096966 -0.00258687
O 7.63073311 14.49035134 26.07513679 -0.00082192 0.00017055 -0.00423277
O 9.15246074 9.31276302 27.39433938 0.00337634 -0.00498893 -0.00545113
O 7.68804524 28.01337732 2.25508759 0.00509900 0.00150314 -0.00546284
O 8.87156074 22.82081321 3.33089252 -0.00041197 -0.00319723 0.00165810
O 11.65598895 20.25382977 9.60470294 0.00076064 0.00411796 0.00312976
O 10.26005721 25.11907372 8.41907659 -0.00685044 0.00197755 -0.00338396
O 8.11543410 24.05819588 9.30048007 -0.00580925 -0.00196396 0.00236481
O 6.72123105 0.09508658 8.33895859 -0.00534406 -0.00220877 -0.00399168
O 11.09007785 24.00589957 2.13386312 0.00145735 -0.00323489 -0.00012654
O 12.36599964 19.31248353 3.70711779 -0.00251277 -0.00033718 -0.00243010
O 5.90949604 27.93840637 14.07999905 -0.00320733 0.00310700 -0.00611300
O 7.17386896 23.22975824 15.40490806 0.00161259 0.00125628 0.00126531
O 9.72864770 20.65605577 21.16472597 -0.00427739 0.00031092 0.00104881
O 8.54548769 25.19582208 20.14691872 -0.00506094 -0.00255565 0.00119442
O 6.45010997 24.26555816 21.56084890 -0.00277833 -0.00198998 0.00166885
O 5.17392794 28.61168358 20.14380330 -0.00435095 0.00124749 0.00307265
O 9.18085408 24.16250791 13.95450195 0.00027107 0.00365366 0.00275317
O 10.82863812 19.11194460 15.70713424 0.00695100 0.00624887 -0.00209882
O 4.48106302 28.00082873 26.43755529 0.00135982 0.00201612 -0.00058326
O 5.58022908 22.82247426 27.17856886 0.00097612 0.00888516 -0.00214875
O 8.40733200 20.73463074 32.90730750 0.00231350 -0.00582287 -0.00329800
O 7.16492182 25.37286003 32.06276869 0.00018193 0.00340855 -0.00090136
O 4.94763565 24.07050103 33.39544559 0.00159779 0.00135354 0.00170979
O 3.45081834 0.04215128 31.68645181 -0.00023698 -0.00102350 -0.00439541
O 7.59516742 23.88809282 26.02776495 0.00648149 0.00293647 0.00090037
O 9.14259007 19.13895681 27.31855700 -0.00450048 0.00790402 0.00259759
O 14.40313012 8.50308878 2.49662986 -0.00030389 0.00134684 -0.00233516
O 15.57828866 3.71708192 3.43974667 -0.00252011 0.00474324 0.00775917
O 18.41219596 0.97061361 9.58383462 0.00544355 -0.00375416 0.00455894
O 16.87813886 6.16628179 8.35291954 -0.00519684 0.00021301 0.00013969
O 15.05328155 4.76356131 9.51057640 0.00145922 0.00040653 0.00132294
O 13.72191767 9.43169674 8.22720580 -0.00454014 0.00415465 -0.00160947
O 17.85011769 4.57762429 2.52149576 0.00364636 -0.00067564 -0.00328173
O 19.21262503 28.52222780 3.44435191 0.00587734 -0.00341932 0.00196944
O 13.09158525 8.52514251 14.28276164 -0.00246752 0.00340495 0.00008152
O 14.29114368 3.54080663 15.23004835 0.00186586 -0.00674053 0.00431905
O 16.88230609 0.72168688 21.68604686 0.00435700 0.00336161 0.00041986
O 15.55182429 5.59645870 20.33586461 0.00093054 0.00424993 -0.00323581
O 13.39946052 4.79548677 21.68479443 0.00063975 0.00358344 0.00294015
O 12.01391405 9.59181972 20.36902506 0.00537473 -0.00783798 -0.00253315
O 16.26328831 4.85856410 14.12378406 -0.00496465 0.00502589 0.00170401
O 17.55535221 28.63456222 15.55120650 0.00364580 0.00198907 -0.00362729
O 11.59232941 8.77046544 26.16902710 -0.00249204 0.00511923 0.00203597
O 12.64066272 4.00744158 27.45246482 0.00450302 0.00102966 -0.00837774
O 15.04104393 1.10634366 33.28353573 0.00489720 -0.00419889 0.00725204
O 14.16192680 5.91929176 32.29249632 0.00009768 0.00010739 0.00171975
O 12.08162069 5.03210828 33.47000142 -0.00220274 0.00391589 0.00046473
O 10.36038694 9.65214574 32.21054489 -0.00038105 -0.00523927 -0.00208784
O 14.53993351 5.06789487 25.75726953 0.00836482 0.00028437 -0.00539822
O 16.23554806 28.70408311 27.43320097 0.00107134 0.00308199 0.00361724
O 14.13914582 17.86165727 2.53003263 0.00041756 0.00473045 0.00969281
O 15.52099110 13.37082619 3.45971603 0.00321689 0.00161136 -0.00261864
O 18.20506208 10.58589704 9.58745991 -0.00198160 0.00049623 -0.00446383
O 17.05892924 15.64468061 8.48914154 0.00359539 0.00297217 0.00226253
O 15.16371486 14.34606887 9.75419966 0.00004269 0.00109169 0.00200982
O 13.46031288 19.10903264 8.21870012 -0.00143938 0.00156239 0.00104686
O 17.72905625 14.38896954 2.28731313 0.00385992 0.00735813 0.00457060
O 19.51388059 9.64504506 3.57269622 0.00357638 -0.00086097 -0.00479402
O 13.02249245 18.30465832 14.28896686 0.00526331 0.00219829 0.00130616
O 13.92590439 13.33549147 15.60064146 -0.00224889 -0.00373420 0.00222226
O 16.84885319 10.69420152 21.60690674 0.00108652 0.00019050 0.00312302
O 15.58133811 15.45112629 20.32540737 -0.00020451 0.00258008 -0.00000816
O 13.33921888 14.71662690 21.43053424 -0.00058252 -0.00083898 -0.00529534
O 11.90123838 19.52616195 20.27417118 -0.00207408 0.00126677 0.00137559
O 16.10522073 14.31681134 14.38529595 -0.00223119 0.00341192 0.00129434
O 17.88142064 9.71459751 15.76748305 0.00388700 0.00345784 0.00703701
O 11.40418607 18.26936306 26.28112399 0.00548689 0.00029240 0.00091500
O 12.54929393 13.51442046 27.42170019 0.00030573 -0.00255212 0.00003730
O 14.87716404 10.72394535 33.19185898 0.00311861 0.00125993 -0.00284460
O 13.99415170 15.59786893 32.27008167 0.00716147 0.01128609 0.00160356
O 11.63818625 14.80204232 33.33953454 -0.00460060 0.00578325 0.00085344
O 10.33041361 19.21524461 32.24564532 0.00349532 0.00131729 -0.00225386
O 14.62521881 14.76318193 26.08473853 -0.00012815 -0.00164670 -0.00286107
O 16.01134061 9.85998287 27.44604106 0.00279092 0.00009288 0.00260818
O 14.64071394 27.73450096 2.42052784 -0.00721246 -0.00438851 0.00027863
O 15.68504298 22.78199330 3.28797608 0.00492987 0.00404824 -0.00165025
O 18.43066669 20.49839407 9.32636827 -0.00060056 -0.00100946 0.00326783
O 17.04083132 25.23105132 8.39791720 0.00172196 -0.00273051 0.00308949
O 15.20937144 23.76998771 9.63009688 -0.00469981 -0.00054447 0.00382477
O 13.59681174 0.06020021 8.08217261 0.00068229 0.00248799 -0.00061278
O 17.63095898 23.93554199 2.28952310 -0.00207183 0.00382136 -0.00079564
O 19.14644776 19.31868726 3.79708729 0.00227447 -0.00163914 0.00002151
O 12.88942487 27.88924000 14.16814754 -0.00461996 0.00306057 -0.00165374
O 14.18511954 23.15754013 15.63721531 0.00545673 0.00602372 0.00844884
O 16.79476952 20.29742680 21.34644227 0.00029029 -0.00259802 0.00227157
O 15.61686974 25.10177764 20.27069131 0.00368727 0.00619483 0.00240823
O 13.29644363 24.38950907 21.47730049 0.00282505 0.00292211 0.00014393
O 11.86431801 0.10946739 20.03843874 0.00639927 -0.00101972 0.00474471
O 16.23150424 23.88032730 14.25191299 0.00162460 0.00607242 0.00167336
O 17.76329592 19.18300561 15.67628699 0.00062150 0.00921313 -0.00303684
O 11.13701149 27.89414127 26.28630521 0.00233463 -0.00200393 0.00179731
O 12.34020923 23.23178740 27.64479055 0.00427447 0.00416534 0.00334000
O 15.27778597 20.50180721 33.19229583 0.00029277 0.00207550 0.00309488
O 13.93060458 25.11805546 32.17782011 0.00003800 0.00109382 -0.00055743
O 11.97238177 24.07418543 33.37660621 0.00062030 -0.00021222 -0.00205089
O 10.40393604 0.41420035 32.21588760 0.00366629 0.00211519 -0.00056919
O 14.50045876 23.61713637 26.26324094 -0.00300510 0.00396597 0.00447558
O 15.91532574 18.86067934 27.18194434 -0.00189338 -0.00639922 -0.00164899
H -0.19236297 9.17078921 2.50802177 -0.01717786 -0.00610874 -0.02073231
H 2.80096927 4.19838875 3.28996338 0.01796802 -0.01010588 -0.01104733
H 5.52209069 0.79727665 8.98401958 0.02677481 -0.00704940 -0.00776606
H 2.85609893 5.47364549 8.69912620 -0.01652582 -0.00225788 -0.01210755
H 5.75215521 8.43940498 0.61586684 -0.00330120 0.01962970 0.03459756
H 4.13392030 3.20121091 5.10912257 0.01627806 -0.00197360 -0.00504880
H -0.20384538 1.62316477 11.27430686 0.00192292 -0.02287604 0.03089247
H 1.83808161 5.83649926 6.43579961 -0.00850430 -0.01542134 -0.01556168
H 4.20574112 6.79430194 10.76031757 -0.00799957 -0.02652020 -0.00142497
H 4.05699995 1.52692909 6.86534779 0.00975029 -0.02511900 -0.01233571
H 1.27340114 2.80171659 1.00082113 -0.01546720 0.00708530 -0.00211168
H 1.51107177 7.66254777 4.73980927 -0.00662281 -0.00663590 0.02094116
H -1.65341519 5.64696965 35.61497673 -0.02286620 0.02795532 -0.01827598
H -0.23585091 0.95020528 6.40706563 0.01695223 0.01044568 0.01802685
H 2.55504880 4.20855696 11.88429421 -0.00377080 0.01704616 -0.01898726
H 5.28978804 9.36256341 5.87905777 -0.00854100 -0.01932602 0.00962166
H 2.84344028 7.57135062 1.30399595 0.01113338 0.02361745 -0.02695106
H -0.07400392 2.36825302 4.26743298 -0.01755963 0.01966569 0.01825366
H 2.57184543 2.58396067 10.20793191 -0.02459980 -0.00881903 -0.02330640
H 5.57740562 7.69632651 7.54037486 0.00070813 -0.01327312 -0.02022758
H 5.24776273 4.76318720 9.75980467 -0.01355557 -0.01126913 0.01155340
H 2.96734813 0.08648733 8.17024195 -0.00255863 0.02049051 0.01468710
H 0.32311733 4.84080915 2.08933986 0.02312973 0.00720776 -0.00094111
H 2.29142814 9.58032345 3.80003396 -0.01067154 0.01165354 0.02005885
H 7.45550167 4.32867232 7.32779757 -0.03316749 -0.01998908 -0.00477551
H 1.62274262 8.77111542 10.62950905 0.01314506 0.00334225 -0.02015272
H 19.98197267 6.68307519 3.50657627 -0.00509784 0.01905326 -0.03035732
H 3.26307761 0.37656296 1.46126683 -0.00306787 -0.00752125 0.01606798
H 0.01178891 2.72683756 8.26984299 -0.01735262 0.00948054 -0.00386775
H 1.48599280 7.43722147 9.42721854 -0.00376294 -0.02704216 0.01976996
H 6.54025651 6.14579465 3.90124737 0.02945005 -0.01134230 0.02092684
H 3.56404900 1.99395689 2.16410060 0.00408037 -0.00213032 0.02808490
H 0.68911734 4.08172483 7.28178104 0.00090226 0.01099855 -0.01103659
H 0.03662312 8.10939320 10.13629329 0.00925601 -0.01330844 -0.01665627
H 5.11741788 7.12723274 3.35486991 0.02255530 -0.00090089 0.01862068
H 4.93006392 1.19828327 1.51845719 -0.02082631 -0.00003011 0.01387346
H -1.57965147 8.86119879 14.73770230 -0.02552680 0.02081689 0.00535199
H 1.17048134 3.91263417 15.15600151 -0.01368845 0.00239797 0.03657780
H 3.85099258 0.49681469 21.04714527 0.00868592 -0.02039002 0.00068660
H 1.15303148 5.57374846 20.38318866 0.01940991 0.00021281 0.01215584
H 4.31653513 8.50415537 12.66155147 -0.01396272 -0.00150390 0.01081903
H 2.26672451 3.27816888 17.09784852 -0.00369434 -0.01428821 -0.00111854
H -1.88171488 1.31649961 23.26099188 0.02752095 0.00889580 -0.00350559
H 0.04964018 6.28055557 18.58536742 0.00221987 -0.02022679 -0.02690181
H 2.56533205 6.48748025 22.70161496 -0.00378106 0.00337725 -0.01029299
H 2.40081854 1.59901986 18.81226041 -0.00107385 0.00992832 -0.00497900
H -0.29702125 3.14760491 13.09884730 0.01951949 -0.00048406 -0.01105904
H -0.02785783 8.01174351 16.82776944 0.00466115 0.00085961 0.00983708
H 1.17686361 5.39871004 11.79909448 -0.00470444 -0.00353671 0.00453593
H -1.72447420 0.42051489 18.01467130 0.00001460 0.00165308 -0.00932892
H 0.89838135 3.91283973 24.11768743 0.00581808 -0.00659465 -0.00370726
H 3.99040495 9.15519887 17.80999378 0.00898599 0.01018863 0.00795157
H 1.04216375 6.62405541 13.79300664 0.01655499 0.00632400 0.00440976
H -1.69096568 1.83079327 16.22289283 -0.01651808 0.00314113 0.00685950
H 0.93837224 2.49588551 22.07710043 -0.02966960 -0.02652978 0.01805533
H 4.15684206 7.37386055 19.45378610 0.01548118 -0.00591212 -0.00347486
H 3.54668396 4.65746026 21.62768193 0.00398692 -0.00519651 -0.01332069
H 1.41767908 0.07415973 20.14047540 -0.02240665 0.02025225 -0.01107351
H -1.26214675 4.72787695 14.25059569 0.01772866 0.00136823 -0.03530182
H 1.10539327 9.62505314 15.64391317 0.00617397 0.00461511 0.02360853
H 4.98104829 4.28327038 19.21641614 -0.01427339 0.01114037 0.00081899
H 0.91666185 8.40572941 21.96243213 0.00648280 -0.01941858 -0.00182818
H 16.62492113 5.84978471 16.37215718 -0.01631385 0.00279008 -0.00190770
H 3.25065560 2.04950356 14.79626128 -0.01159323 0.00936609 0.00724249
H -0.96393319 2.68219584 20.26616382 -0.00787628 -0.00288897 -0.01352749
H -0.58908808 7.43412123 21.91040943 -0.00286289 0.03040380 -0.00920625
H 3.32063396 5.83688731 16.38389065 0.01977792 -0.01522736 -0.00277594
H 2.90990941 0.94264707 13.44674006 0.01009771 -0.00373164 0.01060875
H -1.08173884 3.99222260 19.22972413 -0.02389278 -0.03952945 0.01541886
H -0.59311803 8.82394768 22.97188214 -0.01252522 -0.01450819 -0.02604843
H 4.82630812 6.38229163 15.68945384 -0.03442232 0.02345329 -0.01867823
H 1.60515231 1.61413487 14.46038625 0.00900820 -0.02015668 -0.01533326
H -3.43330473 8.85920563 26.47977136 0.04137702 -0.00618765 -0.00341904
H -0.30026964 3.94834130 26.85062167 0.02558782 0.00413906 -0.00346484
H 2.35051586 0.91900933 32.87007229 0.00047046 0.02476577 -0.00707056
H -0.35613897 5.66676476 32.32408724 0.03385984 0.00309713 -0.01015374
H 2.60238846 8.11019389 24.52011713 0.02608195 0.00225144 0.00132610
H 0.81388326 3.46723285 29.05047413 -0.00018105 0.00517719 -0.01776889
H -3.53887428 1.58010477 34.83328196 0.00265094 0.01288853 -0.02146867
H -1.68968475 6.40942822 30.76052353 0.01148192 -0.03014485 -0.00688271
H 1.04346358 6.98557600 34.44832386 0.00301494 0.00498479 0.00025275
H 0.47131244 1.88089401 31.12347196 -0.00023910 -0.01987330 -0.03281062
H -1.90507640 3.13475260 25.11802953 -0.00972698 -0.00098616 0.00969275
H -1.65405834 7.56335249 28.52244781 -0.01006769 0.01776578 0.02445758
H -0.30678336 5.59293138 23.64776795 0.02238743 -0.00098633 0.00649476
H -3.31255607 0.71533988 29.70091285 0.00945114 0.00165834 0.00107122
H -0.59361030 4.26512596 35.70215998 0.00345770 0.02802640 -0.00317475
H 1.97898400 9.52185678 29.65710317 0.00057412 -0.01662917 0.00483930
H -0.50957333 7.15003063 25.69189187 -0.01119862 0.01192632 0.00689652
H -3.14105859 2.28176148 27.91384621 0.02107456 -0.00265320 0.00057401
H -0.60904402 2.40620592 34.14231872 -0.01977521 -0.00192563 -0.01190062
H 2.42311973 7.75545883 31.28103979 -0.00962427 0.01332029 0.01634198
H 1.77320340 4.92406207 33.60662160 -0.01608744 0.00563473 -0.00409689
H -0.35605039 0.34441029 31.97077449 -0.00009534 0.00363230 0.00349303
H -2.90261539 4.75526302 26.00022487 0.00271223 0.00439130 -0.02472207
H -0.83373946 9.47675122 27.38193085 -0.02190856 -0.00428058 -0.01622755
H 3.25861490 2.79048880 32.33599720 0.01392227 0.02498309 0.00924137
H -1.65269219 9.19409758 34.47580834 -0.01224578 0.00134561 -0.01103611
H 15.75226319 7.25801863 26.87530977 -0.01548617 -0.00795194 -0.00026050
H 0.67017789 2.28066950 26.41389034 -0.00058650 -0.02909140 0.00392595
H -2.18751859 3.59884438 31.26567495 -0.02317378 0.01334562 0.00773189
H -1.24984959 7.91099313 33.28014091 0.01254343 -0.01641765 0.01009656
H 3.28620444 5.63818742 27.69238773 0.01343938 -0.01331047 0.00845158
H 1.81856784 1.39507594 25.46806568 -0.01402716 0.01146037 0.00606434
H -3.91973171 4.16985554 31.36690222 -0.00400866 -0.00966430 0.00965706
H -2.86197259 8.05157653 33.89283374 -0.03156461 -0.01183481 0.00513800
H 1.96032050 6.79318647 27.32257256 0.00832241 0.02960965 -0.01732568
H -0.02112321 0.88238518 25.45800125 0.01141075 -0.01200242 -0.00639067
H 20.21037747 18.47114335 3.01019724 -0.00848963 -0.00950547 0.01248498
H 2.59140852 13.84504993 3.33972320 -0.00890803 0.01519790 0.00009337
H 5.53380338 10.50598360 9.30347737 0.03773269 -0.02030473 -0.01026528
H 2.53543746 15.28951423 8.76661727 -0.01201227 -0.02630508 0.00833603
H 5.64479190 17.96572114 0.54762516 0.00013096 0.00581349 0.01706174
H 3.75315894 12.94605514 5.11050140 0.01116847 -0.01899970 0.00967007
H -0.37660150 11.08594996 11.01453801 -0.00194405 -0.00817391 -0.00858390
H 1.66213279 15.46134424 6.44650090 -0.01082519 -0.02761373 0.04100061
H 3.91790425 15.94458188 11.21362011 -0.01045779 0.01519868 0.00843106
H 3.74735578 11.54054575 7.24472338 -0.02559070 -0.00596278 -0.00415926
H 1.06330282 12.26281165 1.10080794 -0.00004597 0.02786212 -0.00195349
H 1.41247915 17.17503378 4.84736796 -0.00470895 0.00110879 0.00596468
H 2.42551824 14.89946515 0.10540894 0.00344132 -0.00589616 0.01835543
H -0.04450576 10.11263917 6.28957832 0.01146132 -0.02181311 0.00088334
H 2.45991244 13.78344998 12.01422653 -0.00679511 0.01130172 -0.01796899
H 5.33992487 18.69229343 5.72853136 -0.00956605 0.01792837 -0.01740745
H 2.57016847 16.57893325 1.93795489 0.01425631 -0.00926398 -0.01013327
H -0.18929337 11.66287685 4.32227869 0.01789760 -0.00996539 0.00916652
H 2.45561129 12.20691344 10.31078925 0.01157238 -0.00894672 0.02109062
H 5.31760202 17.13520591 7.79153583 0.00670609 -0.00895548 0.01618790
H 5.03338316 14.79989583 9.91377931 0.01043168 -0.01573892 0.01492693
H 2.81958500 9.65115467 8.37563345 -0.02149536 -0.00997235 0.01081286
H 0.22253780 14.11048669 2.47940914 0.02187436 -0.00475885 -0.02940171
H 2.39009073 18.97201017 3.49533685 0.02356685 0.00325751 0.00756871
H 6.13376523 12.45233662 8.47971888 -0.01236667 0.03336669 0.02427293
H 2.40321872 17.79220997 9.79258685 0.01580073 -0.00543903 0.01212326
H 18.92615923 16.60184530 3.27069385 -0.01758491 -0.01517804 0.02825448
H 4.40236179 10.63914706 1.38853495 0.00836603 0.02686387 0.00126571
H 19.22116277 12.97536161 8.27279334 0.00168526 0.01372548 0.00698214
H 0.94056890 16.72214735 9.07177497 0.01031789 -0.00655012 -0.01133215
H 4.56983658 15.63637384 4.32802878 0.00147391 -0.01841428 -0.00487190
H 2.84693314 11.15120393 2.10745337 0.01044118 0.00673290 -0.00127397
H 0.44485952 12.65886684 8.07342183 0.01165993 0.00251562 -0.01051244
H 0.55296560 17.95914328 10.30480340 -0.00298605 -0.02127327 0.02212910
H 6.26618392 15.22945755 4.04175102 -0.00099588 -0.00249451 0.00113158
H 4.22546254 11.95389832 2.75206211 0.00047102 0.00545010 -0.00547467
H -1.48763864 18.41383239 14.73127452 0.00535603 0.01882250 -0.00392757
H 1.12288389 13.57379930 15.42485772 0.00003187 0.00638737 -0.01624910
H 3.85907126 10.28196872 21.21822620 -0.00165417 0.03193996 -0.00425351
H 0.83478727 15.08499576 20.26240138 -0.00404862 -0.00818208 0.01743765
H 3.86383544 17.56671655 13.15194220 0.01117561 0.00719170 0.00604117
H 2.13330084 12.89543401 17.33955128 0.02535239 -0.00828437 -0.01703351
H -1.66144957 11.27183517 23.14473961 -0.01733237 -0.02860340 -0.02088490
H -0.11509359 15.93580127 18.69479619 -0.00087535 0.00460185 0.00319257
H 2.61347888 16.53808552 22.39264190 -0.00081871 -0.02444279 -0.03066454
H 2.29463700 11.17043944 19.11943127 -0.00029637 -0.00015306 -0.00071821
H -0.44177171 12.44162267 13.10644772 -0.01205333 0.01572441 -0.01872321
H 0.01037728 17.26984914 16.50940841 -0.01262880 -0.00732314 0.00007004
H 0.96773956 14.73579232 11.65542193 -0.02008037 -0.02769247 -0.01690533
H -1.65875953 9.90091608 18.26540946 -0.00433352 0.02932518 -0.00061914
H 1.13470838 14.03507391 23.89662502 0.01329526 0.02131877 -0.01300847
H 3.77198972 18.69370731 17.73968240 -0.00423909 0.00351316 0.01650842
H 1.26472406 16.14788225 13.70959648 0.02422796 -0.00581765 -0.01166763
H -1.72827911 11.64598641 16.38616683 0.00633998 0.00885118 -0.01258835
H 1.16869536 12.19887155 22.01981152 -0.02168326 -0.02358297 -0.01731614
H 3.84414725 16.88645908 19.66284206 -0.00386334 0.00753547 -0.00028029
H 3.49620133 14.43758460 21.61393892 -0.00986517 -0.00809691 0.00148981
H 1.45212808 9.56798032 20.30419872 -0.00820029 -0.00988069 0.00823768
H -1.36175096 14.15966716 14.32370246 -0.01200398 0.00589672 0.01063443
H 1.00744278 19.02908691 15.49672624 0.01486432 -0.00472104 -0.00260930
H 5.54720540 12.59177841 19.74423338 -0.00311543 -0.01577010 0.00329333
H -1.00566309 17.52501305 22.13847077 0.01079439 0.02763904 0.01999544
H 17.18048633 15.23080795 16.58322450 -0.01267496 0.01521525 -0.00328502
H 3.21080480 10.71218971 13.14727791 -0.00987296 0.01967661 0.00059002
H -0.89901405 12.53416834 19.97618202 0.00868295 -0.00090793 -0.00710306
H 0.00313379 18.80620121 22.69337317 0.00181262 0.01081385 -0.00301222
H 4.19264313 14.87413139 16.68334909 0.00907528 -0.00027133 -0.00304830
H 1.58743317 10.40531064 13.91690980 0.01992728 0.00281386 -0.01442951
H -2.02086487 13.64429360 19.21418043 0.00365060 -0.00094088 -0.00710108
H 0.76756938 17.49847045 21.75931843 0.00440629 0.01748894 0.00187793
H 4.71919321 16.13151371 15.59668614 -0.00798828 -0.00064283 -0.02179065
H 2.65676158 11.83251369 14.34805728 -0.00808122 -0.02407126 0.00642220
H -3.37226125 18.59033535 26.34886059 -0.00807662 0.00946323 0.00326534
H -0.32379313 13.90902794 26.95569661 0.03000127 0.02767678 -0.00202330
H 2.14557150 10.35592514 32.82842666 0.00393336 0.00281261 -0.02150536
H -0.85676568 15.32706823 32.47745043 -0.00969124 -0.00678856 -0.01170140
H 2.55030087 17.85762510 24.49352769 0.00104218 -0.02439187 0.00225013
H 0.78439189 12.82486451 28.71946234 -0.01110933 0.00416089 -0.02321007
H -3.70676093 11.02045947 34.82108400 0.00076860 -0.02477609 0.01531855
H -2.03818516 16.11553159 30.33150810 0.00253726 0.01152395 -0.01487740
H 0.74817653 16.30271258 34.46891245 -0.00158969 0.01421815 -0.01644625
H 0.70011594 11.26804463 30.71414698 -0.00697881 0.00098449 0.00343928
H -1.80364662 12.51533681 25.25133797 0.00893197 0.00372795 -0.03623386
H -1.80866634 17.28962740 28.34912292 0.00348097 -0.00506637 -0.00338966
H -0.43898350 15.13334271 23.54349141 0.01549876 -0.01170684 -0.02158247
H -3.36656262 10.38817431 29.83246093 0.02264759 -0.00494586 -0.00673144
H -0.59205616 14.21842322 35.49333187 -0.00299916 -0.00589856 0.01967066
H 2.14983957 18.70495971 29.57908768 0.02344164 0.01204041 -0.01030712
H -0.41713303 16.76859915 25.30378613 0.00874133 -0.00300738 0.00708559
H -3.33681773 12.13091711 27.99069322 0.00681978 -0.01336144 0.00117212
H -0.61528364 12.49140833 33.75887158 -0.00992553 0.00416443 -0.00469046