2160
Time=63000.00000006 pbc="T T T" Lattice="20.61667189 0.00000000 0.00000000 0.00000000 29.28081992 0.00000000 -4.71578653 0.00000000 35.36066068" energy=-13802.16557157 virial="-63.81186979 -32.01681176 72.13615272 -32.01681176 -84.86730839 50.61172225 72.13615272 50.61172225 -58.94646304" stress="-0.00075030 -0.00145210 0.00338692 -0.00145210 -0.00175563 0.00231374 0.00338692 0.00231374 -0.00035134" Properties=species:S:1:pos:R:3:vel:R:3
O 0.42606888 8.49972751 2.84952643 -0.00021445 -0.00464135 0.00136000
O 1.98330951 4.03009898 3.42330587 -0.00077548 0.00109080 -0.00283609
O 4.76316836 1.44743826 9.02426208 -0.00305383 0.00106196 -0.00413245
O 3.35713031 6.03994093 8.52307922 -0.00134736 0.00074894 -0.00503194
O 1.23084928 4.66994540 9.63115364 -0.00416638 0.00372286 0.00165404
O -0.35426683 9.77828824 8.12587240 -0.00188811 0.00711295 -0.00155311
O 4.06979830 5.11628216 2.21988198 0.00042438 -0.00082211 0.00033561
O 5.36517137 28.90211574 3.24176814 0.00016741 -0.00206169 -0.00050549
O -0.89861880 8.48458164 14.35755162 -0.00192031 -0.00615362 -0.00888746
O 0.48549533 3.74669201 15.04112203 0.00421933 -0.00070486 0.00478260
O 3.03704201 0.97276929 21.58322480 0.00538706 0.00147694 -0.00268794
O 1.90259096 5.90226127 20.14011986 -0.00345391 -0.00122570 0.00020197
O -0.11843500 4.76300282 21.32213967 0.00080249 0.00257700 0.00442879
O -1.75670402 9.78808138 20.11835328 0.00185594 -0.00311205 0.00408013
O 2.41409965 5.07475973 13.98359420 -0.00053000 -0.00199440 0.00249733
O 4.16976389 29.08032173 15.29924561 -0.00485997 -0.00361478 -0.00643639
O -2.31961424 8.66951044 25.70361412 -0.00286292 0.00267196 0.00003899
O -1.51474291 3.71732100 27.13222607 -0.00223749 0.00237774 -0.00688036
O 1.31200127 1.29087155 32.89496946 0.00183029 -0.00030630 0.00811575
O -0.13649455 5.97287208 31.90875960 0.00387636 -0.00244761 0.00439643
O -1.85585480 5.09896004 33.49010996 -0.00295933 0.00136960 -0.00182287
O -3.52660930 10.14759515 31.58990315 0.00066782 -0.00340618 -0.00155914
O 0.68243090 4.61923707 26.02410043 -0.00353514 0.00454375 0.00739379
O 2.35349918 29.15651398 26.99872657 0.00396917 0.00279327 0.00186322
O 0.70772417 18.40593591 2.54124537 -0.00131479 0.00248106 -0.00216513
O 1.89977142 13.75887819 3.58935833 -0.00262286 0.00515331 -0.00475293
O 4.54830008 10.58053854 9.37843732 0.00420983 0.00516755 0.00087951
O 3.28762152 15.67101540 8.29129574 0.00044748 0.00475454 -0.00030335
O 1.13041693 14.35351959 9.79932058 -0.00114110 -0.00434723 -0.00477764
O -0.06202166 19.62342505 8.01434211 -0.00432788 0.00054856 0.00274478
O 3.97731244 14.82930257 2.10619914 -0.00068053 -0.00007686 -0.00521772
O 5.44207483 9.83264595 3.77078368 0.00113432 0.00532834 0.00208550
O -0.72042102 18.21073652 14.37113383 -0.00709424 0.00828092 0.00001042
O 0.43364458 13.28622323 15.23189625 0.00008080 -0.00092817 0.00317870
O 3.03699339 10.69933090 21.40990526 0.00274568 0.00249920 0.00028948
O 1.75434122 15.52529813 19.72016021 0.00600508 -0.00543764 0.00324620
O -0.16549149 14.60196882 21.40736997 0.00072777 0.00961613 -0.00097244
O -1.98744342 19.45626120 19.84642694 -0.00122079 0.00195382 0.00318968
O 2.35905704 14.28235231 13.92828689 -0.00036692 0.00693031 -0.00711230
O 3.86683116 9.68701730 15.33692813 -0.00467257 -0.00542050 -0.00175765
O -2.36554519 18.51376201 25.92806035 -0.00041152 -0.00292720 0.00021715
O -1.22334268 13.84314226 27.23817598 -0.00382828 -0.00350492 -0.00038857
O 1.49075828 11.00826834 32.99456631 -0.00876318 -0.00784951 0.00111172
O 0.31799882 15.71377096 31.85469883 -0.00087654 0.00497309 -0.00101584
O -1.75844933 14.92740437 33.22392442 0.00336985 -0.00091247 0.00276816
O -3.63193535 19.66230160 31.86732159 0.00073879 -0.00181790 0.00319293
O 0.77338151 14.66291146 25.99901172 0.00556856 0.00110266 -0.00382590
O 2.54606497 9.80870629 27.47106614 -0.00280080 -0.00030793 0.00587178
O 0.25438873 28.17850526 2.31249977 0.00550054 -0.00197113 -0.00134894
O 1.92923413 23.49436100 3.52356374 0.00141396 0.00391822 0.00322932
O 4.52854164 20.38133508 9.38379467 -0.00284080 -0.00016885 -0.00235268
O 3.53521107 25.60490947 8.17527284 0.00546597 -0.00022449 -0.00324355
O 1.71497536 24.49457320 9.42072876 0.00634139 -0.00659845 -0.00418448
O -0.11089719 29.21482852 7.93987054 0.00071070 0.00209373 -0.00093905
O 4.19744397 24.24556213 2.68308600 -0.00159006 -0.00324048 0.00129852
O 5.74240639 19.36326730 3.83233883 0.00309029 -0.00868765 0.00080082
O -0.53780931 28.26757328 13.94410095 0.00166764 -0.00074694 0.00194560
O 0.27962653 23.31409266 15.19006858 0.00168262 -0.00032607 -0.00580982
O 2.97116915 20.47475168 21.32466083 -0.00065965 0.00062509 -0.00208493
O 1.83289330 25.51229586 19.98438885 0.00066720 0.00507247 -0.00214006
O -0.37656115 24.72981474 21.08621992 0.00442842 -0.00152609 -0.00582711
O -1.62640740 29.26978512 19.75815480 -0.00558115 0.00127270 -0.00258053
O 2.45627219 24.31647760 13.95961690 -0.00564595 0.00360763 0.00085324
O 3.97936618 19.71767919 15.29844990 0.00071532 0.00000138 -0.00162714
O -2.29213942 28.08605460 26.22661606 0.00138439 -0.00315240 0.00364379
O -1.36848096 23.37404220 27.19927942 0.00326627 -0.00031267 0.00311200
O 1.22349744 20.37092688 33.32310251 -0.00321173 -0.00333921 -0.00410315
O 0.38938661 25.62568289 31.91201081 0.00514874 -0.00371981 0.00479322
O -1.81261615 24.80494252 33.06646102 0.00298171 0.00029983 -0.00321789
O -3.44513704 29.25516302 31.91143543 -0.00390667 -0.00317973 -0.00843422
O 0.76657355 24.23756858 26.00485998 0.00000131 -0.00177925 0.00029634
O 2.18210795 19.70283752 27.27380182 -0.00174844 0.00180456 -0.00500306
O 7.31193299 8.67641263 2.37383072 0.00391363 0.00081921 -0.00343356
O 8.86395365 3.78101022 3.35109615 -0.00019291 0.00004062 -0.00176588
O 11.24421043 1.16357973 9.36619708 0.00372995 0.00170338 0.00070470
O 10.29261475 6.15727930 8.18222035 0.00253924 0.00133235 -0.00300852
O 8.20693834 5.25212435 9.59520515 -0.01151747 -0.00649071 -0.01076809
O 6.86838625 9.72802206 8.29594040 0.00090361 -0.00183566 0.00709933
O 10.76766438 5.05657944 2.15286623 0.00299860 0.00222139 0.00242615
O 12.47721449 29.22159305 3.33576294 0.00147926 0.00234056 0.00566540
O 6.05385218 8.83542363 14.16495888 -0.00323772 -0.00403935 0.00168878
O 7.33589258 3.68559264 15.05290580 -0.00119456 -0.00590082 -0.00238622
O 9.94754105 0.96677609 21.36215951 -0.00237022 -0.00268360 -0.00321563
O 8.83195695 5.42433539 20.06742383 -0.00164226 -0.00067528 -0.00466594
O 6.64454561 4.76174569 21.46124733 0.00042028 -0.00257027 0.00633423
O 5.29995813 9.63638451 20.23732563 -0.00296426 0.00159719 0.00024647
O 9.44349228 4.84511176 14.08763219 0.00222097 0.00370728 -0.00189020
O 10.83498814 29.05876678 14.81749494 0.00558239 0.00080816 -0.00455017
O 4.47457558 8.39879620 26.32056769 0.00097992 0.00363738 -0.00064956
O 5.37764341 4.13571742 27.18724425 -0.00103752 0.00305683 0.00173095
O 8.29149876 1.41930651 32.68930003 0.00028722 0.00490319 0.00113544
O 7.17952000 6.24475617 32.13220224 0.00375299 -0.00442826 0.00305341
O 5.01936615 5.15491457 33.13665098 0.00289025 -0.00018918 0.00718090
O 3.44913965 9.74333702 31.89542729 0.00098887 -0.00183769 0.00223232
O 7.80617318 4.47652030 26.27199009 -0.00445114 0.00356042 -0.00474176
O 9.29799251 0.00270361 26.96655426 0.00185274 0.00168089 -0.00576087
O 7.62153612 18.06731572 2.68048438 0.00520669 0.00178218 -0.00139532
O 8.57356146 13.42659696 3.35149208 0.00720055 -0.00072292 -0.00080953
O 11.49870786 10.91557892 9.43731879 0.00260103 0.00025770 -0.00657328
O 10.16933754 15.78928538 8.17467426 0.00012437 -0.00779113 0.00057217
O 8.14283851 14.61931778 9.31129191 0.00068953 0.00190993 0.00324355
O 6.74006902 19.46281213 8.41778068 -0.00062822 0.00187917 -0.00270796
O 10.92043385 14.41886506 2.49893688 -0.00900761 -0.00480929 0.00367100
O 12.43836135 9.76931182 3.26773730 0.00008009 -0.00619896 -0.00677344
O 6.05747500 18.45570938 14.07084542 0.00384828 0.00257011 -0.00170657
O 7.04944406 13.49335265 15.39336946 0.00585722 0.00245689 0.00174405
O 10.09585796 10.76659368 21.53736765 -0.00029422 -0.00068469 -0.00054050
O 8.57929657 15.70983667 20.03510782 -0.00065013 0.00257062 0.00716184
O 6.67436424 14.65183263 21.32953546 0.00177643 0.00140180 0.00360765
O 4.82454798 19.60041667 19.86913413 -0.00496624 -0.00242786 -0.00291187
O 9.36142309 14.21704809 14.33625329 -0.00240473 0.00520304 -0.00227881
O 11.02309897 9.43561202 15.61339035 0.00092599 -0.00343513 -0.00750038
O 4.30490421 18.56089904 25.99687866 0.00429052 0.00574689 0.00806098
O 5.61166898 13.52789033 27.12399905 0.00000947 -0.00100733 -0.00197337
O 8.31872828 11.21217570 32.93306107 -0.00242701 0.00534852 -0.00456892
O 7.00203450 15.81235657 31.97054316 -0.00366812 0.00518821 0.00499599
O 4.94781543 14.72561574 32.96319680 -0.00473109 -0.00330536 0.00098768
O 3.35543668 19.43259723 32.02081012 -0.00194918 0.00125852 -0.00253535
O 7.57129946 14.68360026 26.01850366 0.00266539 -0.00355957 0.00339860
O 9.61416748 9.59834512 27.41785673 0.00258544 -0.00144953 0.00023807
O 7.40684759 28.37286922 1.96120146 -0.00059288 0.00727051 0.00131856
O 8.76634758 23.45615596 3.63802450 -0.00445727 -0.00063807 -0.00388322
O 11.69130331 20.43419627 9.47611569 0.00388445 -0.00553218 -0.00489629
O 10.33906029 25.40361599 8.03106104 0.00230511 -0.00223751 0.00177794
O 8.46474961 24.33649764 9.56363818 0.00137389 0.01075915 -0.00038586
O 6.67394304 29.16313453 8.05078922 -0.00113353 0.00450395 -0.00495521
O 11.32259744 23.85535443 2.74193240 -0.00015534 0.00257314 -0.00197489
O 12.39022207 19.20055360 3.44367318 0.00135409 0.00139296 -0.00510703
O 6.11665079 27.86681018 14.28078657 0.00208653 -0.00403262 -0.00424198
O 7.44100930 23.19898528 15.02291428 0.00057095 -0.00161796 0.00364529
O 9.59849807 20.57236069 21.35311520 -0.00302322 -0.00111691 0.00317402
O 8.65895211 25.35809914 19.75609214 -0.00351445 -0.00210461 0.00231157
O 6.34857287 24.97833368 21.00205892 0.00791795 -0.00160872 -0.00044175
O 5.08335982 0.30912778 19.88995425 -0.00131178 -0.00346715 0.00596133
O 9.53970522 24.51809471 13.95787962 0.00423668 -0.00055815 0.00318516
O 10.78466483 19.32557578 15.44014516 0.00478854 -0.00320732 0.00332917
O 4.38003072 28.07115185 26.01533775 -0.00169268 0.00003783 -0.00107421
O 5.45719663 23.38955757 27.20774362 -0.00154994 -0.00219474 0.00485065
O 8.22512282 20.65488931 33.02712499 -0.00201932 -0.00299124 0.00031973
O 7.06243375 25.72792227 31.92437750 0.00547288 -0.00143151 -0.00323188
O 4.98622609 24.49213881 33.09054387 -0.00159446 -0.00043391 0.00056140
O 3.43888109 0.23797019 31.93708725 0.00221803 -0.00306719 -0.00191622
O 7.53269376 24.39245921 25.82755615 0.00100896 0.00153910 0.00461044
O 9.16365825 19.78463694 27.50816467 -0.00160029 -0.00265808 -0.00202174
O 14.59350503 8.58204534 2.51435376 -0.00712746 0.00005973 0.00245494
O 15.47498683 3.80772093 3.36783881 -0.00442486 -0.00444794 -0.00275615
O 18.41197372 0.98513826 9.27408849 0.00098961 0.00450574 0.00134087
O 17.20589232 5.85026039 8.44663054 0.00134832 -0.00818371 -0.00406510
O 15.17759615 4.73510869 9.62924303 0.00051481 -0.00606419 0.00659009
O 13.48175959 9.77707483 8.09453500 -0.00588139 -0.00321020 -0.00475521
O 17.73929544 4.55928810 2.53880043 0.00036009 0.00132783 0.00417339
O 19.19412216 0.01806724 3.89530887 -0.00092389 0.00014652 0.00154177
O 12.92241397 8.43377399 14.39331617 0.00235739 -0.00244533 -0.00137251
O 14.21616967 3.73497066 15.00180903 -0.00333060 -0.00169341 0.00329713
O 16.83371836 1.11834407 21.02620536 -0.00226823 0.00029693 0.00284715
O 15.63638478 5.68676464 19.92420496 0.00009550 0.00581867 0.00359400
O 13.46130974 4.92918443 21.31992915 -0.00091640 -0.00169338 -0.00128556
O 11.99319503 10.01386991 20.10060390 -0.00445825 -0.00075619 0.00421500
O 16.36536583 4.63049770 13.91918845 0.00127755 0.00251273 -0.00293439
O 17.81364218 28.99234563 14.94037163 0.00113118 0.00162508 -0.00090817
O 11.59066851 8.57700067 26.02213405 0.00016854 -0.00128021 0.00264972
O 12.42123439 4.16661808 27.33313391 0.00008308 0.00083565 -0.00008824
O 15.04177447 1.07314872 32.84759355 0.00025958 0.00004593 -0.00121102
O 13.87574011 6.29670870 32.32313615 0.00540408 -0.00796242 -0.00492200
O 11.92048938 4.85162408 33.09647822 0.00300017 -0.00252529 -0.00423055
O 10.41426027 9.97045015 31.75486342 -0.00172157 -0.00414291 -0.00611261
O 14.59318775 4.48970323 25.84221488 -0.00272386 0.00304693 -0.00455231
O 16.10543403 29.06554093 27.16796626 -0.00379488 0.00341155 -0.00221467
O 14.51887722 18.38473447 2.26207034 -0.00253421 -0.00217263 -0.00034730
O 15.67928741 13.37384141 3.27414550 0.00437416 0.00157195 -0.00636901
O 18.24021630 10.77718359 9.50574712 0.00176037 -0.00271044 0.00472450
O 17.08123508 15.51321286 7.87265698 0.00185508 0.00027419 0.00388385
O 14.75180482 15.18917648 8.90974701 -0.00333151 0.00799585 0.00628392
O 13.57827849 19.33700175 7.97825831 0.00278066 -0.00104059 -0.00269273
O 17.60631346 14.71414512 2.21766516 0.00391253 0.00402251 0.00143708
O 19.01506919 9.83843920 3.76072842 -0.00082616 0.00193551 -0.00437279
O 12.84188291 18.34007313 14.31660118 -0.00044047 -0.00022772 -0.00879320
O 14.13690320 13.58749272 15.45484381 0.00347050 0.00494517 0.00083966
O 16.70721706 10.58394004 21.44241926 -0.00148656 0.00198754 -0.00204848
O 15.42598142 15.49544794 20.17487856 -0.00173092 -0.00929539 0.00273800
O 13.37292188 14.70798137 21.54877792 0.00088050 0.00272714 -0.00193779
O 11.78718590 19.51796175 19.89666873 0.00154764 -0.00214505 0.00050082
O 16.12790494 14.55971166 14.30774218 -0.00018036 -0.00150559 0.00200866
O 17.59922908 9.54172159 15.18022621 -0.00185973 0.00175166 -0.00216289
O 11.02306267 18.56507235 26.16765128 -0.00007491 -0.00059722 0.00313354
O 12.60349462 13.81886401 27.10039306 -0.00212798 0.00278450 -0.00330827
O 15.05014370 10.88223659 32.97919996 0.00264729 0.00197878 -0.00203775
O 14.00577713 15.81020607 31.81537104 -0.00005047 -0.00275570 -0.00028608
O 11.82498509 14.93951133 32.86376338 0.00145299 -0.00211368 -0.00008153
O 10.18695932 19.83563009 31.57093658 -0.00675675 0.00240824 0.00075290
O 14.69974450 14.77709851 25.86835438 0.00516527 -0.00192176 -0.00065934
O 16.02932025 8.88655268 26.88593509 0.00036786 -0.00520934 -0.00148483
O 14.59846345 28.45776797 2.07109251 0.00592412 0.00021882 -0.00142456
O 15.62098418 23.45258956 3.70067435 -0.00402848 -0.00033491 -0.00051895
O 18.63893686 20.77061761 9.33371178 -0.00095482 -0.00392401 -0.00200518
O 17.29443504 25.52113215 8.46031707 -0.00128959 -0.00336442 -0.00041355
O 15.15110744 24.40638037 9.35147611 0.00754369 0.00736757 0.00212312
O 13.49291646 0.04171873 8.27643985 0.00142861 0.00097550 0.00136387
O 17.76398772 24.23983482 2.44227915 -0.00783613 0.00118480 0.00389447
O 19.23581386 19.63875492 3.62066392 0.00336878 0.00442570 -0.00583557
O 12.98969644 28.26248451 13.76370268 -0.00006889 0.01486833 0.00122107
O 13.98795155 23.19328790 15.29826184 0.00142987 -0.00354246 0.00301707
O 16.52386897 20.30261484 21.38577305 -0.00064205 0.00672620 -0.00566904
O 15.57806652 25.56773750 20.07237785 -0.00081718 0.00786409 -0.00023273
O 13.64244450 24.10744864 21.45102731 -0.00374620 -0.00417595 0.00143765
O 12.14518902 0.34544467 20.04447948 -0.00810127 -0.00398717 0.00517860
O 15.94991043 24.17922409 13.97211204 0.00360562 -0.00280135 0.00124090
O 17.77494071 19.49283765 15.49335343 0.00142878 -0.00176885 0.00421448
O 11.77540282 28.66314501 25.46610302 -0.00400915 -0.00109028 0.00061434
O 12.45001335 23.19125672 26.72141253 -0.00014441 -0.00981179 0.00068681
O 14.93388519 20.26270220 33.25384611 -0.00462593 0.00127424 -0.00841766
O 13.65583503 25.55661185 31.84698072 -0.00158706 -0.00428372 0.00572283
O 11.80225495 24.26697179 32.98678993 -0.00120479 0.00029485 0.00115376
O 10.15433045 0.07364912 31.71471319 0.00188811 0.00272041 -0.00335480
O 14.68152713 24.52011764 25.85397354 -0.00281179 -0.00206101 0.00200600
O 15.72650597 19.28148659 26.58798235 -0.00288137 -0.00649959 0.00230772
H 20.13143087 8.97273050 3.05773148 -0.03888015 -0.01745260 0.01232108
H 2.87812980 4.48901405 3.23714173 -0.01093152 -0.00704457 -0.00407351
H 5.67958806 0.97192739 8.97837694 -0.00082998 -0.00904531 -0.00711555
H 2.44426157 5.60525747 8.68037836 0.01063022 0.01403986 0.03757087
H 5.22315389 8.11241059 0.75504935 -0.01789603 0.00587222 0.01856055
H 3.83074531 3.72537988 5.18976526 0.01172214 -0.01889695 -0.01585853
H -0.26332181 1.22383625 11.15081895 0.01650308 -0.01566910 -0.00851434
H 1.44782567 6.36924796 6.75301278 0.02535234 0.01393036 0.03523611
H 3.96001178 6.77699759 10.64522828 0.00072182 -0.00889622 0.00085687
H 3.85891243 1.79362646 6.86108365 -0.02976577 0.00116452 -0.00563797
H 1.21966251 2.74431534 1.28531156 0.01507899 -0.03341476 0.00953286
H 1.52468135 7.85600264 4.67933525 -0.02250607 0.00236957 0.01695328
H 2.60808553 5.52078302 0.37658941 0.03279321 0.00235025 0.02242476
H -0.08027437 0.60953150 5.59468914 0.00414881 -0.01488252 0.00431933
H 2.60417773 4.40126459 11.75916653 0.00048493 -0.00640121 -0.01665119
H 5.29485434 9.40778111 6.00598327 -0.00473519 -0.02434492 0.01649784
H 2.36037199 6.96051795 2.28687167 0.00622977 -0.01204922 0.01656090
H 0.00671117 2.38527589 3.89308678 -0.00006088 0.00609046 -0.01907999
H 2.80055067 2.93929798 9.66869729 -0.00441352 0.01235595 0.01105701
H 5.29971177 7.75669908 7.84860694 -0.01537026 -0.00416476 -0.00720303
H 4.97061938 5.11080990 9.64571080 -0.00578286 0.02533762 -0.01060917
H 2.98136533 0.34343668 7.99155662 0.01363489 -0.00999019 -0.00584144
H 0.29457547 4.36197294 2.50588386 -0.02333052 -0.02310535 0.01281369
H 2.31849398 9.74748939 3.78050858 -0.00808779 -0.03398326 -0.01489442
H 5.85854800 3.40927837 8.26264513 -0.02143502 -0.00407950 0.01314978
H 2.01326182 8.60913718 9.89853660 -0.00690180 -0.03361350 0.01149010
H -0.14037474 5.86586479 3.71845172 -0.00731498 0.00886595 0.00160170
H 3.09358766 1.54319808 1.84209674 -0.02493279 -0.00322908 -0.03169197
H 19.17813371 3.47035853 8.32786828 0.00707522 0.00666160 -0.01374423
H 0.82200986 7.49021175 9.24573770 -0.03512894 -0.01736219 0.01560669
H 6.74189657 5.92668594 3.80921124 -0.00761371 -0.02510750 0.00623066
H 4.45659902 2.38238629 2.63003230 0.03934096 -0.01082981 0.00559164
H 0.07870130 2.42747422 8.42958656 -0.01587608 -0.00076739 -0.00766446
H 0.32507862 8.78475540 10.36584616 0.00409888 -0.01078734 -0.02742640
H 5.58090488 7.19641483 3.36119628 0.01312988 -0.02368532 0.01212411
H 4.88840304 1.14194246 1.42307419 -0.00233284 -0.02748147 -0.02401295
H -1.79611112 8.97498563 14.48961885 0.01314311 -0.00651570 -0.00445312
H 1.31737625 4.28191142 14.90910579 0.03333525 -0.02532345 0.01967905
H 3.87732022 0.73578286 21.05691006 0.00515428 -0.00645528 -0.00862823
H 1.03335493 5.50972073 20.41494095 0.02804769 0.01476170 -0.00293785
H 3.89091836 8.27575384 12.58102064 0.00128406 -0.02293872 -0.01582434
H 2.49672088 3.39895559 16.54022456 0.01062214 -0.00748658 -0.01670222
H -1.81317840 1.26262435 22.91322000 -0.01102680 -0.03022239 0.03603936
H -0.08693532 6.20192169 18.59301354 0.02025456 0.01997255 0.00744432
H 2.78997921 7.04737008 22.39999161 0.01285864 0.02345796 0.03276866
H 2.47033719 2.10741877 18.76532069 -0.02626915 -0.00213763 -0.00267203
H -0.15039334 2.88312503 12.95407186 -0.00751225 0.00804585 -0.00798150
H -0.24658630 7.60338401 16.49386476 -0.02118040 0.00431701 -0.00746346
H 1.14122147 5.49204309 11.67673214 -0.00062740 0.00219297 -0.01328879
H -1.46790407 0.70156907 17.87641994 -0.00842819 -0.00989617 0.00623081
H 0.96028891 4.32408109 23.78937224 -0.00982992 -0.02410221 -0.01555531
H 3.73783231 9.12658113 17.56841893 0.02120856 0.01984917 0.00460787
H 1.10687763 6.87821429 13.67295755 -0.00471424 0.02295446 -0.00418924
H -1.57754649 2.39081424 16.14121187 0.01439801 0.00220565 -0.01010627
H 1.05406150 2.70486206 22.01433910 -0.02395864 -0.00113712 -0.01493912
H 3.81904023 7.43776874 19.35403198 0.00845488 0.01644340 -0.01191504
H 3.66382013 4.96472123 21.48359019 0.01100454 -0.01718399 -0.02466736
H 1.52488614 29.27134655 19.69092457 -0.01997517 -0.03071846 -0.00055868
H -1.10928143 4.60361651 14.02299507 -0.00174339 -0.00262543 0.00845420
H 0.68973579 9.69894900 15.59887229 -0.03959537 0.03036635 -0.00815101
H 5.95596076 3.00374095 19.66084835 0.00017565 -0.00570836 0.02594141
H 0.50014473 7.90931252 21.48772202 -0.00891853 0.01688263 0.02245088
H 17.55472550 6.94161185 15.07231251 0.00990959 0.00934949 0.00617848
H 3.48099399 1.99828237 13.93455803 0.00296715 -0.01976970 0.00023000
H -1.31098247 2.65885172 20.03962296 -0.00449425 0.00132281 -0.02082143
H -1.15030039 8.04167621 21.76693238 0.00601731 -0.02354919 -0.00320651
H 4.91032151 5.20466650 16.05805333 0.01201148 0.01582844 0.00431653
H 2.88866508 0.63200351 12.89406227 -0.00407965 -0.00787061 -0.00644119
H -1.01980271 4.00853016 18.93265119 -0.02604248 0.00768273 -0.00796895
H -0.07976656 9.22424552 22.41401538 0.01085403 -0.00563491 -0.01065420
H 4.53807645 6.86397908 15.35653578 0.00001107 -0.00966960 0.01391815
H 1.70296203 1.42014427 13.96264738 0.00470018 -0.00326374 0.01465944
H -3.31922327 8.83082239 26.11330939 0.00033339 0.02847141 -0.02555384
H -0.66953213 4.20278932 27.02545413 -0.01930982 0.00606525 -0.01067731
H 2.21060363 0.86215402 32.63534022 -0.00231166 0.00328660 0.02017134
H -0.97977104 5.54499933 32.34263041 0.01293678 -0.03056584 -0.02062973
H 2.60437972 8.18325149 24.53998669 -0.01365037 0.00848238 0.00315128
H 0.47186588 3.45746672 28.86662409 0.00778961 -0.00622349 -0.00425672
H -3.37206851 1.64334782 34.45729431 0.01508282 -0.00521326 0.01096264
H -1.88344174 6.38718885 29.97307807 0.00151607 0.01159510 0.00596340
H 0.61187489 6.36609034 34.35762460 -0.00686608 0.00850447 0.00522857
H 0.58069687 1.97167416 30.82855413 0.01401724 -0.03187934 0.00309738
H -1.86156125 2.76392464 24.81736349 -0.01849220 -0.01428846 -0.00970725
H -1.57891559 7.99912399 28.01016782 0.01336139 0.01376876 0.01970038
H -0.34619276 5.35088133 23.39782119 0.02412593 -0.00312443 0.01270559
H -3.23061857 0.34096179 29.53718506 -0.02216239 -0.03232338 -0.02716675
H 4.01379287 4.28562326 0.18779270 -0.00805688 0.02851020 -0.00158824
H 2.04494714 9.34694765 29.72287205 0.02140121 0.01065063 0.01048436
H -0.32850829 7.24654441 25.01993890 0.02032193 -0.01887611 0.01825362
H -3.44582523 2.09069714 27.88757703 -0.00436707 0.01223409 -0.03384798
H -0.73148283 2.66988032 33.73995628 0.02129431 0.01895097 -0.01079283
H 1.79713760 7.55746997 31.58666973 0.00457386 -0.02099326 -0.00735842
H 1.87595582 4.86824148 33.02892586 0.00354000 -0.02239844 -0.01254228
H -0.24403072 0.14887895 31.66527839 0.00520497 -0.00914056 -0.04199223
H -2.82128493 4.62898216 25.70377071 0.00847243 -0.03424628 -0.01167240
H -0.61182444 10.13205014 27.37713943 -0.03552206 -0.01462919 -0.01454439
H 4.37553535 4.06969984 30.92273382 -0.00960892 -0.04408271 0.01211463
H -1.57827452 7.99030326 32.85248460 -0.01007880 -0.00908414 0.01207894
H 16.82235819 6.64011710 26.88854445 0.01063961 -0.00711927 0.00185327
H 0.13436583 2.03108785 26.22791317 -0.00081189 -0.02022898 -0.00046003
H -4.24813273 3.60190526 32.00093301 -0.01263843 -0.01333895 0.00877582
H -3.19264292 8.54019130 33.52212394 -0.01682361 -0.01568792 -0.00875711
H 1.75893256 7.33960992 26.75754288 -0.00845288 -0.02845559 0.02277891
H 1.82396530 1.76388780 25.55965027 0.00702886 0.02025196 -0.01643263
H -2.58239715 3.67250977 31.33955313 -0.01091233 -0.00896639 -0.01214059
H -1.82608359 9.25815030 34.02906100 0.00083007 0.00778467 0.01674378
H 0.91483218 6.28383847 27.89663410 -0.00375208 0.00968368 -0.01309615
H 0.53140902 0.74878409 24.86752582 -0.00523415 -0.01139418 -0.01214057
H -0.17467737 18.76667683 2.80820685 0.01218372 -0.03203367 -0.01905210
H 2.73244072 14.32479424 3.24792814 -0.02973965 0.00202966 -0.00229172
H 5.39458695 10.22969186 9.01436770 -0.01641134 -0.00436067 0.00532942
H 2.41149927 15.34947463 8.52569071 0.00614463 0.00580807 -0.02929913
H 5.60731817 17.91560904 0.84874235 0.00803625 0.00799104 -0.01476946
H 3.95928480 13.14455788 5.21662476 -0.00866585 0.02788628 -0.00204367
H -0.43567168 11.20845721 11.23601175 -0.01147749 0.00093885 -0.01336116
H 1.36297070 16.16250775 6.72158400 -0.00562081 -0.01401834 0.01175076
H 4.10542674 16.30147590 10.60616301 -0.02478781 0.00983151 -0.00172203
H 3.81517656 11.90182543 7.26849746 -0.01425320 0.00542823 -0.00767071
H 1.16078701 12.73302426 1.28961937 0.00482372 -0.00421625 -0.00436324
H 1.31706985 17.98601347 5.01869207 0.00461693 0.01770142 -0.00869845
H 2.74937883 15.19436236 0.06563802 0.00593641 -0.00149799 -0.02274548
H -0.04762462 10.40284337 6.14195075 0.00032741 0.02756963 -0.01108558
H 2.53015656 13.79359212 11.80084746 0.02193339 0.00047715 0.00284953
H 5.43172151 18.81420430 5.85152039 0.01168105 -0.00705101 -0.01587772
H 2.73670928 16.94498871 1.90247616 -0.00542740 0.03142100 -0.01381450
H -0.17692829 12.13061891 4.40243076 -0.02891897 -0.01950744 0.00311302
H 2.49688268 11.97691598 10.06680952 -0.00681949 0.00502726 -0.01833182
H 5.31264702 17.27701953 7.83466476 0.01595437 0.00292361 -0.00445323
H 5.09965288 14.41853444 9.70518497 -0.00986349 0.00063129 -0.00372150
H 2.81555517 9.92823792 8.32991786 0.01061894 0.00582507 -0.01250048
H 0.17279259 14.32512201 2.26304262 0.00304931 -0.01332122 -0.00642303
H 2.55137239 19.69092094 3.87630187 -0.00161930 -0.00188208 -0.01700996
H 7.37882883 13.54351587 7.29369734 -0.02576613 -0.00485262 0.00194752
H 0.59610246 18.57869972 10.16993532 -0.00677662 -0.02325905 0.00013147
H 18.60168723 16.78989996 3.50661143 0.00416818 0.00184867 0.01183470
H 3.54074703 10.59554102 1.55546449 0.00420221 -0.01279029 -0.00694070
H 0.44986257 13.42141790 7.50443113 -0.02556079 -0.03038146 0.00849600
H 2.33724668 18.52594420 9.76997906 -0.01247852 0.01382272 -0.01206842
H 4.54843447 15.57793580 4.54258602 -0.00881630 0.00496388 0.00837384
H 3.53982769 12.09696175 2.54317065 0.01354687 0.00923996 -0.01445797
H 19.26367513 13.52459256 7.90045300 0.00149499 0.00294209 -0.00502625
H 1.14201072 17.34242344 9.10512092 0.00410460 0.02061822 0.00800149
H 6.34650854 15.23898078 4.25577524 0.00204809 -0.00379216 -0.01105695
H 5.10129573 11.37933175 2.00713171 -0.00822643 0.00706875 -0.00077648
H -1.53934177 18.76494224 14.55681063 -0.00716984 0.01171135 0.00455071
H 1.28529451 13.64458841 14.85332535 0.00010606 -0.00942400 -0.00827339
H 3.85546632 10.21759391 21.13110383 -0.01974502 -0.02518269 0.00752664
H 0.92873411 15.07826855 19.86936071 -0.00936808 -0.01442293 0.00715948
H 3.93966658 17.95409090 12.61189852 0.00464669 -0.00340187 0.01808147
H 2.14985259 13.16570541 16.92735454 -0.01395427 0.00526967 -0.00310264
H -1.82101273 11.25400958 22.87110874 0.00105950 -0.01001564 0.01355048
H -0.25423101 16.00583266 18.05940292 -0.00129350 -0.00966111 -0.00000505
H 2.80760927 16.61627789 22.13918105 -0.02035475 0.01919131 -0.00299951
H 2.37051120 11.42952121 18.72546506 -0.01563819 -0.02225918 0.00614718
H -0.57765263 12.83505353 13.17096737 0.02130754 -0.00797439 -0.01081808
H -0.22126908 17.64714896 16.29838743 -0.02915926 0.01967853 -0.00442626
H 1.09195795 15.09646314 11.59773216 0.00352580 0.04014966 0.00655426
H -1.80610890 10.49642689 17.98492174 -0.01825900 0.00256728 0.00271636
H 0.85433209 13.86026810 23.69061457 0.01765075 -0.01369927 -0.01553643
H 3.65990307 19.03723534 17.47160042 -0.00260162 -0.02141740 -0.01029489
H 1.06871817 16.48926410 13.64087392 -0.01309178 0.00700512 0.01196936
H -1.78577000 11.99089301 16.00800627 -0.00785373 -0.00390248 -0.01523155
H 0.97154893 12.15039164 22.10593806 -0.03897553 -0.01291351 0.01102944
H 3.67358692 17.09250963 19.05376738 -0.00421877 0.01125078 -0.02042757
H 3.50673699 14.78181478 21.39164831 0.01183764 -0.00807776 0.03893997
H 1.39569180 9.74126144 19.82556419 -0.02452018 -0.00762507 -0.01269825
H -1.40406397 14.79186741 13.78721388 0.00715969 0.00416337 -0.03035770
H 0.76141622 19.63613219 15.32354884 -0.03147580 0.00666184 0.00126980
H 5.27450929 13.91879909 19.02200279 0.02393457 -0.00837458 -0.00970168
H -0.27717769 17.32340988 20.77745464 -0.01221286 -0.02396857 -0.00226431
H 16.97648736 15.53622103 16.27371906 0.01600990 0.01917488 0.00945102
H 2.95737630 11.80446109 14.33372474 -0.00108053 0.00827773 -0.01147454
H -1.70086318 13.52083942 19.11976560 -0.01170495 -0.00867497 -0.00573583
H -1.20454995 18.30393423 21.93984605 -0.01366540 -0.00743140 -0.01959873
H 4.87807610 15.51530253 15.69434796 -0.00096575 -0.00639517 -0.00502496
H 2.66706077 10.68655362 13.11693988 -0.00578922 0.01257056 0.02179588
H -2.53649695 12.61890689 20.32790953 -0.00418625 -0.00031992 -0.00712209
H 0.53743499 18.67870474 21.68379464 -0.00279299 -0.00673282 -0.00477264
H 3.48690108 16.45831553 15.19054455 0.00911753 0.00734328 -0.01455794
H 1.24707157 11.03024710 14.20654476 -0.01103974 0.04621984 0.01126353
H -3.28566957 18.84868449 26.07465325 -0.01583670 0.00361933 -0.02996780
H -0.33648402 14.28785096 26.97284428 -0.01099078 -0.00256024 -0.01239302
H 2.37016963 10.56323005 32.77435808 0.00421583 0.02551145 0.00754081
H -0.59180687 15.44490345 32.11485002 -0.02688354 0.00911530 0.00650059
H 2.55400105 18.13314970 23.95232819 -0.03575968 -0.00970121 -0.01861488
H 0.71933361 13.48598899 29.11242034 -0.00610132 0.00648218 -0.00225368
H -3.82223887 10.85658663 34.96230233 -0.00574873 -0.00263068 0.01351557
H -1.73564644 16.15139175 30.56834046 -0.00449256 -0.01887451 0.02388467
H 0.65896414 16.28052166 34.45913965 -0.00216838 0.00905347 -0.00291038
H 0.75902559 11.78137569 30.80280346 -0.01689088 -0.01739491 0.00500293
H -1.76592161 12.81994843 24.80299705 0.00370131 -0.01029480 0.02299859
H -1.93675071 17.83464668 28.40489938 -0.00503202 -0.01191807 0.01221238
H -0.39848970 15.29738642 23.41383819 -0.01989986 0.01658004 0.02343262
H -3.16322699 10.42508211 29.46413984 0.00371011 -0.00500931 0.03116464
H 4.06426860 13.80735205 0.46920961 -0.00309154 -0.02937162 0.00198475
H 2.13397786 18.88751926 29.31914080 -0.00069728 0.01302380 -0.01198890
H -0.35959829 16.91731765 25.21099784 0.00951425 0.01293600 -0.00605074
H -3.05255676 12.05299239 27.72650527 0.01603703 -0.00574380 0.00898309