2160
Time=56000.00000004 pbc="T T T" Lattice="20.58918702 0.00000000 0.00000000 0.00000000 28.95992382 0.00000000 -4.72649116 0.00000000 35.52137719" energy=-13801.99192703 virial="-32.13259847 -48.90700837 58.58134074 -48.90700837 -47.73354427 3.16321231 58.58134074 3.16321231 -45.21080903" stress="0.00083736 -0.00233724 0.00271681 -0.00233724 -0.00002558 0.00027627 0.00271681 0.00027627 0.00023887" Properties=species:S:1:pos:R:3:vel:R:3
O 0.69670923 8.58267266 2.49127036 -0.00439735 0.00006239 0.00377501
O 1.72764848 3.97702235 3.43801461 -0.00366484 -0.00239049 -0.00139296
O 4.45815900 1.32263138 9.38146581 -0.00026521 -0.00018835 -0.00001164
O 3.40647410 6.25772169 8.36706252 0.00165273 0.00719760 0.00128458
O 1.30153364 5.25410316 9.57308025 0.00021040 0.00105708 0.00066792
O -0.07510355 10.49467316 8.36881732 0.00154396 -0.00091536 -0.00680870
O 3.92102876 4.87153295 2.38400086 0.00210561 0.00009965 0.00179263
O 5.29068055 28.84759595 3.36173573 0.00079710 -0.00019325 0.00703447
O -0.76515052 8.89660750 14.30785726 -0.00648760 0.00139606 -0.00110675
O 0.22239614 3.89073160 15.47152422 -0.00196915 0.00026499 -0.00175806
O 3.10318116 0.59299570 22.08389435 -0.00281493 -0.00268426 -0.00192060
O 1.92789995 6.03048974 20.07943137 0.00306472 -0.00116612 -0.00316326
O -0.37400930 5.56799079 21.14004180 -0.00086469 -0.00440745 -0.00323829
O -1.81714481 9.82647436 19.98462480 0.00550276 -0.00762103 -0.00108566
O 2.40842914 4.83300755 14.35978503 0.00344024 0.00241532 0.00000835
O 3.92641101 0.12371215 15.34476000 -0.00124887 -0.00555521 0.00265396
O -2.49374998 8.37287956 26.30025376 -0.00075644 0.00360536 0.00494430
O -1.47061417 3.83153586 27.06118635 -0.00821967 -0.00431428 0.00339047
O 1.29380346 0.75070593 33.33410319 -0.00244240 -0.00311417 -0.00159901
O 0.41443465 5.69292346 31.94737702 -0.00152074 -0.00077774 0.00496327
O -1.79496918 4.72146552 33.25956856 0.00126532 0.00443898 -0.00073809
O -3.42727196 10.00994713 32.06507354 -0.00005744 0.00381772 0.00276924
O 0.81277935 4.91928052 26.05158188 -0.00331793 -0.00123799 -0.00367623
O 2.37959317 0.27098282 27.36329852 -0.00409786 -0.00681313 0.00077695
O 0.84245504 18.53588693 2.19153803 0.00484661 -0.00296086 0.00504073
O 1.88072547 13.34003675 3.13185468 0.00487815 0.00243037 -0.00159133
O 4.45793841 11.06629732 9.53122129 -0.00479945 -0.00202442 0.00110797
O 3.42083887 15.94801238 8.29579126 -0.00537523 -0.00002941 0.00224830
O 1.19182860 15.04769752 9.25320610 -0.00553046 -0.00095879 -0.00537186
O -0.08042994 19.42012927 8.00148582 -0.00001852 -0.00096539 -0.00303712
O 3.62625253 14.62075655 1.79742330 0.00009830 -0.00202030 -0.00536497
O 5.25042629 9.44226606 3.27905561 -0.00805351 0.00436829 -0.00008214
O -0.61018475 18.97766636 13.82840083 0.00571950 -0.00259710 -0.00068900
O 0.39053222 13.56856763 15.30911146 0.00024645 0.00307691 -0.00042998
O 3.19033783 10.68951381 20.95545655 -0.00245267 -0.00458255 0.00153079
O 1.82478494 15.43306681 20.23801776 0.00371807 -0.00100824 -0.00160221
O -0.16778736 14.38292267 21.50320858 0.00240445 0.00038367 0.00015381
O -1.77601412 19.22516996 20.22879192 0.00367187 -0.00271155 -0.00046328
O 2.26421529 14.90596532 14.10975856 -0.00408124 -0.00689249 -0.00101774
O 3.95140180 9.78775395 15.27442886 -0.00308665 -0.00571693 -0.00103027
O -2.27127824 18.19249853 25.94449918 0.00547513 -0.00577627 -0.00063122
O -1.22472836 13.40777107 27.35536880 0.00085291 0.00009468 0.00312561
O 1.39397251 10.57611473 32.93646885 0.00951135 0.00218971 0.00110810
O 0.23163590 15.44237248 31.93133694 -0.00054914 -0.00179016 -0.00055723
O -1.90448432 14.41530756 33.27183970 0.00217427 -0.00224512 0.00423555
O -3.28581970 19.21394146 31.95225670 0.00220135 -0.00163455 0.00040234
O 0.76647083 14.37743985 25.95429363 -0.00041499 -0.00496448 0.00102499
O 2.38704161 9.16380395 27.18536906 0.00200163 0.00120966 0.00443104
O 0.49044277 27.92784926 2.27131444 0.00372347 0.00319264 -0.00774616
O 1.93203616 23.20679282 3.34141237 -0.00466777 0.00400727 -0.00244918
O 4.76997782 20.83211491 9.24776014 -0.00027504 0.00292619 -0.00061138
O 3.25424364 25.12461987 8.19174939 -0.00148385 0.00076142 0.00592866
O 1.22337719 24.14565497 9.39194688 0.00110628 0.00295142 -0.00055800
O -0.16808630 0.64363020 8.33809687 0.00005143 -0.00493491 -0.00137536
O 4.09292851 24.24742813 2.34743760 0.00431811 0.00251877 -0.00254914
O 5.73229043 19.41079084 3.40969825 0.01091897 0.00034684 -0.00511541
O -0.94227608 27.90468563 14.13965475 0.00159232 -0.00265591 -0.00203514
O 0.28299600 23.39326165 15.72704416 -0.00000182 -0.00498637 -0.00988923
O 3.00227421 20.20237487 21.27573871 0.00210819 0.00959008 -0.00020377
O 1.90673935 25.37903864 20.11788222 -0.00273345 -0.00242135 0.00813049
O -0.23750752 24.59138470 21.32169846 -0.00219863 -0.00253868 0.00444844
O -1.80231677 0.25516092 20.07593827 -0.00030551 0.00008563 -0.00242007
O 2.35801648 23.91691007 14.27232446 0.00145498 -0.00592126 0.00081947
O 3.97677613 19.20934919 15.65351579 0.00188357 0.00659893 0.00058313
O -2.46478726 27.32979324 26.61541404 -0.00124007 0.00155584 0.00189064
O -1.08855920 22.60016979 26.95827893 -0.00580822 0.00451231 0.00276586
O 1.47735890 20.32028068 33.29002776 -0.00139246 0.00211160 -0.00316613
O 0.50518670 25.05373850 31.90934155 0.00299339 -0.00711902 -0.00203763
O -1.62442110 24.43443933 33.25553545 0.00293746 -0.00299871 -0.00437242
O -3.38492058 28.91393181 31.89705128 -0.00074297 -0.00334527 -0.00030185
O 0.95256649 23.79255129 25.96728512 0.00042758 0.00496706 -0.00722267
O 2.58304386 19.46924074 27.33481315 0.00054883 0.00439735 0.00561162
O 7.58217214 8.54355190 2.36514752 0.00662290 -0.00371882 0.00079422
O 8.72057635 3.86942814 3.63085182 0.00333906 0.00111376 -0.00249247
O 11.28443933 0.89794568 9.16415107 0.00045878 -0.00528206 -0.00157726
O 10.27739018 6.21431669 8.14390457 -0.00286065 -0.00402306 -0.00496466
O 8.39185849 4.99264335 9.54405939 -0.00024819 -0.00305836 0.00343521
O 6.55425577 10.08843900 7.98855358 0.00285565 0.00050512 -0.00046186
O 10.84117936 4.84191495 2.38370349 -0.00251770 0.00092999 0.00234724
O 12.16114129 28.88938882 3.55054186 0.00029840 -0.00103651 -0.00195267
O 6.02070561 8.72222593 14.14589172 0.00004931 0.00463835 -0.00621718
O 6.93680061 3.61016347 15.32403076 0.00379076 -0.00039513 -0.00173709
O 9.82980727 1.15554093 21.38204278 0.00376528 -0.00800709 -0.00507454
O 8.75332553 5.92379990 20.19931484 0.00515837 -0.00028751 -0.00748455
O 6.67496619 4.71496980 21.46192868 -0.00291622 -0.00119408 -0.00207573
O 5.15478703 9.48025221 19.95498447 0.00107445 0.00261678 -0.00019703
O 9.08051279 4.62173644 13.96186220 0.00086018 -0.00245841 0.00383989
O 10.61049157 0.06998454 15.58402340 -0.00385032 -0.00261260 -0.00461476
O 4.25601059 9.09880767 25.41177830 0.00004447 0.00245105 0.00317532
O 5.58631904 3.48055747 27.33096563 -0.01120049 0.00828078 0.00516806
O 8.18777968 0.88509743 33.65299486 0.00350544 0.00272456 0.00050942
O 7.17701811 5.65376247 32.14295810 -0.00755065 -0.00439953 0.01033773
O 4.95963117 4.62171704 33.38347280 -0.00149595 -0.00305164 0.00020401
O 3.42011512 9.36706495 31.87445164 -0.00052291 0.00078344 -0.00067417
O 7.55959704 4.72660780 26.15310974 -0.00577908 0.00329452 -0.00039156
O 9.35076099 0.00641699 27.56181111 -0.00388800 0.00507995 0.00599102
O 7.57995694 18.01682886 2.36128933 -0.00088924 0.00060109 0.00158186
O 8.81811543 13.66153783 3.35263729 -0.00425334 0.00382600 0.00340586
O 11.31757671 10.61627506 9.29854342 -0.00465136 0.00113601 0.00493985
O 10.28589767 14.99033130 7.78728952 0.00324499 0.00188985 -0.00032981
O 8.38065012 14.70846603 9.64676943 -0.00294259 0.00517424 0.00012761
O 6.74365631 19.57740377 8.40395528 0.00383624 -0.00195520 0.00301013
O 11.07812820 14.38669147 2.28232066 0.00209644 -0.00156962 -0.00318195
O 12.38463684 9.71575611 3.25272884 -0.00244262 -0.00025580 -0.00061801
O 6.05482498 18.35705857 14.29414138 -0.00109298 -0.00727600 -0.00358513
O 7.10292220 13.24603848 15.14952089 -0.00194615 -0.00606622 0.00076406
O 9.80532198 10.73185847 21.30195949 -0.00276835 0.00078551 0.00559103
O 8.38584561 15.70858880 20.19614372 0.00231566 -0.00137326 -0.00101377
O 6.73903191 14.40307834 21.52900630 -0.00369524 0.00066277 -0.00242829
O 5.05522934 19.21391729 20.01821433 -0.00460194 -0.00464266 -0.00292753
O 9.21956095 14.36328546 14.20412685 -0.00215848 0.00198728 -0.00164182
O 10.69396286 9.66071142 15.44187812 -0.00387610 0.00171856 0.00413532
O 4.23399287 17.84147839 26.28463137 -0.00360256 0.00602599 0.00278097
O 5.47400193 13.25247829 27.07206601 -0.00623030 0.00073451 0.00347657
O 8.07121430 10.26038404 33.57327633 0.00132816 -0.00356437 0.00720415
O 7.19908711 15.33824103 31.87083493 0.00146364 -0.00194043 0.00065891
O 5.21924019 14.52145223 33.13791711 0.00104766 -0.00329434 -0.00369479
O 3.53466781 19.47918419 31.89165872 -0.00240427 -0.00265189 0.00257221
O 7.51664437 14.34588219 25.99453121 0.00091934 -0.00371813 -0.00438396
O 9.20714225 9.52702616 27.55046908 0.00175181 0.00116933 -0.00374137
O 7.61069880 27.99358803 2.34921778 0.00324237 -0.00033222 -0.00009252
O 8.92495702 23.13029086 3.75517965 0.00005704 0.00079748 0.00363888
O 11.81546909 20.07836641 9.79867544 0.00403790 -0.00353574 -0.00484010
O 10.08404064 25.15775794 8.42415400 -0.00245587 0.00530756 0.00021819
O 8.17365948 23.91157629 9.89945994 -0.00393477 0.00740650 -0.00091320
O 6.50353590 0.11540266 8.40450822 0.00241813 -0.00308431 0.00000814
O 11.09696542 23.83189236 2.44001108 -0.00369605 -0.00934051 -0.00307881
O 12.53306089 19.37927712 3.52425847 0.00151576 -0.00953663 0.00132015
O 5.87292520 27.77567031 14.27853866 0.00317227 0.00206550 -0.00655553
O 7.27449653 22.88380427 15.28460025 -0.00710965 0.00040075 0.00312835
O 9.84970710 20.25075981 21.42931254 -0.00265778 -0.00505693 -0.00222306
O 8.56134440 25.19246298 20.10729833 0.00019773 -0.00307774 0.00203535
O 6.77656819 23.96940185 21.38715440 -0.00005185 -0.00077358 -0.00364880
O 5.03433797 0.10582890 20.35246708 -0.00096725 0.00384197 -0.00538820
O 9.18088200 24.26237338 14.10567627 -0.00481220 0.00381864 -0.00065197
O 10.82581242 18.97684265 15.50249993 -0.00427129 -0.00229728 -0.00257925
O 4.52023048 27.74835255 26.03167859 0.00480628 -0.00136294 0.00136590
O 5.73339963 22.79302178 26.94335816 0.00584954 0.00056731 0.00815350
O 8.36853566 20.61571039 32.94558698 0.00277703 0.00065125 0.00139363
O 7.18377947 25.12103246 32.05253958 -0.00618985 0.00391443 0.00064078
O 5.09473808 24.13510041 33.23266301 0.00901603 0.00398193 0.00137923
O 3.53425447 28.59473534 32.14275753 -0.00137797 -0.00278189 -0.00419755
O 7.79754130 24.05372525 26.05410381 -0.00151883 -0.00528181 -0.00054823
O 9.36004365 18.89595542 27.14353842 0.00422941 0.00062630 -0.00851174
O 14.40502578 8.62840971 1.95396052 0.00372884 -0.00330712 -0.00003941
O 15.64378231 3.71929584 3.80843542 0.00335334 0.00564329 -0.00865720
O 18.38792093 1.43930556 9.61750457 -0.00079330 0.00096481 -0.00301132
O 17.13109870 6.13531589 8.17924477 0.00263990 0.00061578 -0.00108178
O 15.06193366 4.98889649 9.33137807 0.00352702 0.00505453 0.00254419
O 13.61842075 9.86024475 8.35451353 0.00915807 -0.00069687 0.00216295
O 17.74503548 4.40219817 2.61999517 -0.00249574 0.00273667 0.00107308
O 19.40128313 28.92760059 3.82557798 0.00333864 -0.00486560 -0.00009976
O 12.83569559 8.38375348 14.17942600 -0.00889828 0.00323635 0.00156982
O 13.62735515 3.71121847 15.37293630 -0.00306466 0.00200623 -0.00054891
O 16.58657473 1.24202568 21.09618107 0.00131565 -0.00425497 -0.00187476
O 15.34766461 5.90666424 20.12915859 0.00116814 -0.00361042 -0.00562524
O 13.35273370 5.09969488 21.68265058 -0.00207304 0.00399250 0.00492557
O 11.79161259 9.63571535 20.04702240 0.00801153 0.01028513 -0.00795471
O 16.05574907 4.66547428 14.39652877 -0.00516585 0.00814710 0.00877810
O 17.65083966 28.82676144 15.54698070 0.00697390 -0.00433473 0.00370105
O 11.38397139 8.42545877 26.59984097 0.00263629 -0.00032026 0.00325113
O 12.35756829 3.78799174 27.41599448 0.00399877 -0.00598756 -0.00697717
O 15.07035838 1.00637977 33.00214630 0.00632712 0.00168413 0.00023736
O 13.79095123 5.71509174 32.22711312 0.00665073 -0.00004286 0.00268160
O 11.82769218 4.47019956 33.38714339 0.00095689 -0.00464271 0.00540363
O 10.14891890 9.78272599 32.00507962 0.00044375 -0.00135372 0.00019592
O 14.38006471 4.71618302 26.15747871 -0.00332013 -0.00277107 -0.00153394
O 15.99273045 28.60465750 27.28166141 0.00445287 0.00067496 0.00100517
O 14.40098123 18.38293535 2.12625317 -0.00546594 0.00009819 -0.00110164
O 15.68506114 13.36078416 3.36296094 -0.00155957 0.00241715 -0.00541873
O 18.17861123 11.15056296 9.18373345 0.00017397 0.00272533 -0.00027701
O 17.06133963 15.74742110 8.34591491 0.00502742 0.00414042 0.00056668
O 14.91910362 14.49832227 9.31244123 -0.00009113 -0.00732314 -0.00429557
O 13.76887213 19.87404337 8.25192118 -0.00011902 -0.00694365 -0.00337307
O 17.75215989 14.57929226 2.15590017 -0.00289536 -0.00426236 -0.00042601
O 19.27282361 9.80461181 3.51804252 0.00410318 -0.00502981 0.00043772
O 12.89203945 18.21618400 14.04181203 0.00191494 0.00089959 0.00195908
O 14.05357523 13.42966473 15.38781650 -0.00583028 -0.00089981 0.00269734
O 16.54194889 10.61121543 21.35411253 -0.00741085 0.00632234 0.00298544
O 15.64341168 15.39301806 20.11946751 -0.00253420 0.00322698 0.00071158
O 13.31469064 14.73367061 21.07344317 -0.00393715 -0.00352021 -0.00491428
O 11.94463694 19.17188342 20.22738698 -0.00286295 0.00078317 0.00253774
O 16.40086248 14.19745668 14.37210603 0.01149646 0.00524980 0.00457802
O 17.72133798 9.43239300 15.58612310 0.00037209 0.00381126 -0.00187929
O 11.37834111 17.92905953 26.14270437 -0.00107459 -0.00048996 0.00421809
O 12.18850416 13.64759136 27.34832662 -0.00059041 -0.00394321 0.00289254
O 14.86466013 10.66373100 33.14481129 -0.00332030 0.00013929 0.00286123
O 13.92004326 15.80866781 32.07823176 -0.00058903 -0.00004152 0.00006497
O 12.01968155 14.51391817 33.15472793 -0.00196890 -0.00422451 0.00880543
O 10.30418831 19.41807313 31.62010363 0.00728442 -0.00069051 -0.00753737
O 14.48399412 14.30826120 26.30119847 0.00725048 0.00013756 -0.00685497
O 16.15525532 9.48994603 27.76758124 0.00595696 -0.00338110 0.00698822
O 14.32294763 27.70309575 2.69887731 -0.00079047 0.00572239 -0.00283890
O 16.11310571 22.89214376 3.51777883 -0.00323739 -0.00322118 0.00227863
O 18.47879354 20.26220473 9.40221580 -0.00116319 0.00310291 0.00173436
O 16.99916887 25.03796093 8.44675943 0.00207416 -0.00416265 0.00129142
O 15.10795708 23.84447093 9.80285831 0.00135906 0.00254671 -0.00396327
O 13.42643032 28.70474664 8.25041279 0.00039342 -0.00105344 0.00000028
O 17.77032998 24.21103522 2.20989660 0.00659863 0.00185011 -0.00646275
O 19.22592875 19.59794417 3.48341674 -0.00502171 0.00272099 -0.00273254
O 12.59897110 27.87703463 14.14542563 0.00396197 -0.00422744 -0.00402044
O 13.90061751 23.30078831 15.67224072 -0.00090492 0.00531113 0.00365066
O 16.59946051 20.21409918 21.25123394 -0.00208775 -0.00106315 -0.00307226
O 15.51395578 25.32715560 20.26799586 0.00553579 0.00627720 0.00353863
O 13.48200511 24.04565947 21.44088529 0.00014774 0.00278610 -0.00260401
O 11.95741977 0.27583058 20.20636209 0.00042874 -0.00572502 -0.00735060
O 16.26278507 23.87974586 14.00053500 0.00374823 0.00281560 -0.00365164
O 17.88004140 19.10972928 15.51281620 0.00063692 0.00609007 -0.00249165
O 11.24267155 27.51791241 26.18482239 0.00217507 -0.00042697 0.00312995
O 12.56151250 23.32298562 27.37884439 -0.00417218 0.00294757 0.00144445
O 15.22519139 20.39452398 33.17528200 0.00160600 0.00139215 0.00567750
O 13.95969274 25.26751452 32.17591265 0.00054481 -0.00144264 0.00212578
O 11.66829608 24.60294750 32.89269296 0.00199227 -0.00062194 -0.00139936
O 10.38861295 0.34319642 32.40306703 0.00624389 -0.00057653 0.00371090
O 14.47519845 23.97982859 25.85452350 -0.00182174 -0.00135864 0.00142464
O 16.30869579 19.39194171 27.10200270 -0.00220625 -0.00639953 0.00453760
H -0.20700074 8.97357467 2.87212042 0.00379743 0.01160217 0.02095752
H 2.65373702 4.31468352 3.23403190 0.00064333 -0.01228760 0.00020345
H 5.34447612 0.83753675 9.19322951 -0.00496144 -0.01946422 0.01306278
H 2.47319436 5.92785706 8.65349498 -0.00300763 -0.02447899 0.01259742
H 5.67996322 8.25663954 0.71378139 0.00388635 -0.00357416 -0.00638350
H 3.96576162 3.20518400 4.79560879 -0.00838273 0.00162551 -0.00535364
H -0.14516156 2.11376829 11.26856688 0.00293945 0.01056313 -0.00470301
H 1.35746426 6.55472101 6.56529396 -0.01777284 -0.00881307 -0.00909445
H 4.19006158 6.70835713 10.48667725 -0.00629069 -0.00698698 -0.01196086
H 3.85295307 1.82742664 6.97494115 -0.01860196 -0.01179439 -0.01042678
H 1.24395883 3.02092776 0.99997808 0.02850905 0.00782630 -0.01782932
H 1.24248064 8.08562597 4.76736733 -0.00326824 0.00353373 -0.01053461
H -1.85421414 5.58352580 35.49322682 -0.00429182 0.00383875 -0.00631644
H -0.12993595 0.71388524 6.09247416 -0.00331908 0.01505452 -0.00663315
H 2.63038682 4.61992974 11.89143220 0.01474082 0.00323921 -0.02071893
H 5.12913641 9.56295464 5.75260503 -0.01206989 -0.00664935 0.00744338
H 2.75754534 7.22382158 1.80096907 0.01530036 0.00098677 -0.00990513
H -0.29532859 2.53352358 4.39184177 0.02186963 -0.01314284 -0.00236009
H 2.61574483 3.08751972 10.13321820 -0.00571258 -0.00418752 -0.00712196
H 5.32797651 7.88584057 7.57249179 0.01659494 -0.02516570 -0.00206509
H 5.21105118 5.08977239 9.40962847 0.01360148 0.00574411 0.01637302
H 2.83980613 0.25640072 8.31139763 -0.00090798 -0.01486299 0.00746251
H 0.28432104 4.47999642 2.19041168 0.00168543 -0.00213807 0.01022343
H 2.15268357 9.57033841 3.66298173 0.01070789 0.01533953 -0.03051050
H 7.77284410 3.90118367 7.39641996 -0.00473418 -0.00554202 -0.01922783
H 2.51939417 9.15531736 9.63813308 -0.00966633 0.00415624 -0.00821123
H 19.03638669 5.44708634 4.62939473 -0.00262534 -0.00407151 0.00343865
H 2.51129225 1.15831722 2.11768637 -0.00151176 -0.03051221 -0.00926339
H 0.60096462 3.56954102 7.86530310 0.00902966 0.00892024 0.02292916
H 1.11525872 8.08324843 9.43664153 0.01949249 0.00767852 -0.01668881
H 4.67829602 6.40963860 4.45804211 -0.00539419 0.01494623 0.01976397
H 3.93525023 2.13358587 2.40361444 -0.02666251 -0.00009169 -0.01145962
H -0.73123711 4.80840142 7.26303441 0.01146676 -0.00934432 0.01090972
H 0.98133891 9.50442609 10.53893128 -0.02032021 -0.01933677 0.00620947
H 6.27663663 5.43672672 4.23988778 -0.01692147 0.01261834 -0.00802464
H 3.99617501 0.91973592 1.13096919 -0.01223816 -0.00884256 -0.02298502
H -1.66284498 9.16931121 14.68602224 -0.02645165 0.01260533 -0.00718832
H 1.12246978 4.27991296 15.30819174 0.02717108 0.02503340 0.00568048
H 3.86335182 0.42455550 21.43978476 -0.01042822 -0.01629821 -0.00024394
H 1.07239728 5.64602490 20.37241258 -0.02340152 0.01062777 -0.01024578
H 4.15088573 8.42239409 12.40112246 0.01582123 0.01721001 -0.00982049
H 2.27366812 3.39547825 16.95591009 0.00628075 -0.00835654 0.01697893
H -2.03703216 1.42552018 22.85294392 -0.01738904 -0.02133194 -0.00015858
H 0.13002616 6.11512509 18.25386740 0.01674008 0.02042540 -0.01468059
H 2.43092123 6.21907735 22.43598737 -0.02883448 0.00235794 -0.00480140
H 2.20368992 2.14945319 19.17214586 -0.01594917 0.00824771 -0.01414952
H -0.21345042 3.66442314 12.97350029 0.00050344 -0.00770594 -0.01189659
H -0.11948649 7.74143336 16.39100601 -0.00161178 0.01545521 -0.01706303
H 1.19309638 5.96766073 11.43006051 0.02303215 0.02313250 -0.00618710
H -1.54264035 0.44045709 17.93405198 -0.00473529 0.00280486 0.00599757
H 0.98390071 3.96450605 23.93461917 0.00988303 0.00424102 0.01241518
H 3.78427788 9.30625441 17.70915040 0.00872254 0.01175969 0.01487141
H 1.25935044 7.18138781 13.55394066 -0.00060650 -0.01364558 -0.00242305
H -1.68519761 2.17552191 16.16605116 0.01010308 0.01834392 0.02265144
H 1.03922959 2.21296213 22.34574691 -0.00936070 0.01081521 0.00024840
H 3.88675680 7.59896933 19.20934213 -0.02095824 0.00167599 0.00569222
H 3.54769401 4.74048567 21.44173987 0.02762798 -0.00808827 0.01122146
H 1.28402240 0.49372301 20.29583978 -0.01062255 0.01512120 -0.00359009
H -1.41411954 5.26080598 14.10819681 0.00886574 0.00490205 -0.00794322
H 0.89465765 9.69433783 15.46445332 -0.02424527 -0.00784696 -0.03876846
H 6.02705849 4.19228212 19.09104803 -0.00168666 0.00246581 0.00872950
H 0.62593612 9.29704014 21.93264333 0.00966365 0.00466456 -0.00013744
H 16.48243677 6.63962757 15.94563786 0.02705406 -0.04145605 -0.00075594
H 2.45751726 2.57985153 14.36745959 0.02569131 0.00733902 -0.01780754
H -2.48964082 4.25944838 19.19073242 -0.01392586 -0.00509076 -0.00384966
H -0.12962615 7.83976685 21.38480418 -0.02012201 0.03527219 0.01686398
H 2.88472933 6.10333761 16.28178767 -0.00258658 -0.02758165 -0.01441737
H 3.26102776 1.34763856 13.26368331 -0.01144252 0.00604567 -0.01612621
H -2.10523699 2.97497468 20.23108067 -0.00634975 -0.00342228 0.01481766
H -1.14288146 8.98111448 22.25887538 0.00553174 -0.01725888 -0.01656927
H 4.64184333 5.45914270 16.40442589 -0.00507198 0.00666448 0.01779378
H 1.49689649 1.11535310 13.61937061 -0.00451309 0.01256284 0.04431332
H -3.29781873 8.93528521 26.49285239 -0.00625890 0.01220746 0.00299063
H -0.59182685 4.34391608 27.02602406 0.03140190 -0.00031828 -0.00838041
H 2.15955976 0.29847648 33.24100134 -0.01556343 0.01326845 -0.00129670
H -0.42435587 5.43639268 32.43792553 0.01357695 -0.00227426 -0.01629775
H 2.20680864 8.02871527 24.09114043 -0.01081923 0.02629059 -0.00083972
H 0.58199051 3.55328717 28.72895397 0.03255777 0.00575844 -0.00607253
H -3.52576025 1.34816974 34.73315507 -0.02644242 0.01258900 -0.01648459
H -1.76446277 6.20083144 30.55504402 0.01272192 0.00112241 0.00264926
H 0.82040718 6.39729696 34.56920427 0.03235537 -0.01759939 -0.04801366
H 0.50990036 1.80412994 30.77107879 0.03661334 -0.03081693 -0.02995446
H -2.19396389 2.84791961 24.97087118 -0.00287887 -0.00929615 0.02058610
H -1.96437862 7.88906621 28.86789740 -0.01953887 -0.01993489 -0.00798078
H -0.64095480 5.23088771 23.66653281 -0.02608106 0.01516875 -0.00371712
H -3.44681774 0.77161545 29.86222315 0.02429826 0.02788044 0.02375215
H 4.16636300 4.28941552 0.08106176 0.00110177 -0.00030475 -0.01496662
H 2.29276937 8.78914093 29.46056018 0.00014483 -0.00631133 -0.02202566
H -0.33688779 6.92466755 25.34467364 -0.01018805 0.01395885 -0.00963428
H -3.54464931 2.25801797 27.91797827 -0.01452675 -0.01237479 0.01875947
H -0.56793558 2.29044324 33.87048980 -0.02240156 -0.01098318 -0.01561022
H 2.26235817 7.49406767 31.40327263 0.01284738 0.00843816 0.00645954
H 1.84038761 4.86938406 33.36646275 -0.01955912 -0.03101073 0.01698345
H -0.27554857 28.83625367 31.42858058 -0.00436551 0.00080260 -0.02604223
H -3.03888643 4.66546993 25.89283677 0.00074543 -0.00682390 -0.02145698
H -0.73543461 9.56422089 27.51636491 -0.00840969 0.00806517 0.02600550
H 2.87064180 4.03427267 31.11106716 0.02418015 -0.00414104 0.02323385
H -2.65602803 7.49520928 33.12453660 0.00118754 -0.00650046 0.02021158
H 16.01425718 5.63660280 28.28841016 0.01179139 0.00581840 0.03172883
H 1.62892211 0.60286293 25.01866819 -0.00285347 0.01600886 -0.01714123
H 16.01706535 3.42907343 31.90738308 0.02880531 -0.03501856 -0.03437917
H -2.72596839 8.74049639 34.40582336 -0.00574193 0.00447452 0.01792545
H 2.68423444 7.17058269 27.08944432 0.04232068 0.01211158 0.00430311
H -0.10519179 0.45321455 25.31537783 -0.01239419 -0.00895394 0.00334726
H -3.01177816 2.59497505 32.16020451 0.00596393 0.02208909 0.00915251
H -1.18391005 8.43527608 33.68982021 0.00952771 -0.01119452 -0.00824602
H 1.40352969 6.42390050 27.92205830 -0.02103935 0.01999558 -0.00809903
H 0.76012611 2.00543656 25.71662336 0.03432414 -0.03373346 -0.00016313
H -0.03436180 18.85963464 2.49730445 0.02780797 0.00434528 -0.00143055
H 2.69539390 13.78204856 2.79935268 0.00840476 -0.00332477 0.01282627
H 5.30367881 10.53901639 9.41446864 -0.01975892 0.01793813 0.01454460
H 2.54651417 15.43692248 8.51659816 -0.00049387 0.00138536 -0.00973500
H 5.67248739 17.94703368 0.48294755 -0.00313699 -0.00143654 0.01904204
H 3.89876526 13.14883430 4.60616988 0.00453299 -0.01161439 0.02875158
H -0.17696826 11.56957410 10.59523637 0.00197926 -0.00429409 0.02676056
H 1.47638723 16.14423023 6.57055239 0.00063958 -0.02088651 -0.00084563
H 4.27134635 16.54397956 10.56246435 0.03077868 0.01053184 0.00675166
H 3.86614101 12.08024195 6.98506865 -0.01942128 0.00276745 0.00024920
H 1.27125607 12.88314098 0.80203430 0.00270868 0.01445883 -0.00852367
H 1.56745685 17.61049107 4.46572408 0.00017631 -0.00650571 -0.01303881
H -1.94114381 15.22686115 35.13889041 -0.00225836 -0.01425246 -0.00479625
H -0.10628471 10.62354737 6.06499327 -0.00043963 0.02356134 0.01127858
H 2.68769974 14.64976958 11.67169490 0.00280862 0.00547417 -0.00523166
H 5.47259866 18.95765466 5.52543722 0.01172310 -0.01206160 -0.01749547
H 2.84674189 16.75716140 1.56447005 -0.02096833 -0.01457591 -0.00855757
H -0.10581107 11.91428972 3.93675821 0.01114349 0.01336075 0.00274241
H 2.54506085 12.64888171 10.00077654 -0.00991617 -0.01653831 -0.00718819
H 5.52597203 17.29739501 7.36265765 0.00230595 -0.00899145 0.02746817
H 5.31084039 14.55598547 9.43581912 -0.00030570 0.00890105 0.00796844
H 3.02531064 10.14782421 8.02377914 -0.00365701 0.02046287 -0.00480993
H 0.34069250 14.55859131 2.20654141 0.02083828 -0.03149832 0.00988925
H 2.56220076 19.48580797 3.50083068 0.01466913 -0.01973953 0.01875035
H 7.92609049 13.78052788 7.43473900 0.00476851 0.00048940 0.02589223
H 1.57045103 19.24443652 10.42380899 0.00808791 -0.00412343 -0.00552233
H -0.42283442 15.43698532 4.14876638 0.01236699 -0.01343491 0.03229081
H 4.44081815 11.33147916 1.69530416 -0.02212308 0.01494632 0.01029554
H 19.39459931 13.18868604 8.26877824 0.01370378 0.00287938 0.04480366
H 2.46041017 18.04655105 9.46368963 -0.01503979 0.01248102 0.00645450
H 4.66241447 15.60914929 4.06169469 -0.01423765 -0.00445983 -0.02294057
H 3.74840768 9.84484801 1.03070031 -0.03844307 0.00643352 0.01638984
H 0.46303436 13.10170708 7.72180159 -0.01752381 -0.00714273 0.01554807
H 0.71782954 17.80955914 9.78331898 -0.00844556 0.00385990 0.01672930
H 5.94385657 16.45196516 3.18337026 -0.00246810 -0.01801609 0.01611332
H 2.68388907 10.99910718 1.86986411 -0.01077938 0.00440498 -0.00424080
H -1.36216439 19.03289940 14.44447216 0.03016836 0.00811339 0.00388960
H 1.15107101 14.18778724 15.05065707 -0.00628416 -0.01613164 -0.00692551
H 4.05210974 10.36641652 20.71664130 -0.01340933 0.00455137 0.02539600
H 1.01200453 14.98675923 20.57047190 0.00891535 -0.01519119 -0.02115933
H 4.28273636 18.27404206 12.40517004 0.01398570 -0.01784157 -0.01165080
H 2.33722643 13.20288795 16.92668257 0.01078945 0.02289139 0.02025484
H -2.25029257 10.66452346 23.17856446 0.01076920 0.00556414 0.01794684
H -0.24689816 15.92590923 18.68135310 -0.00740665 0.00980204 -0.00220864
H 2.42173752 15.99355580 22.53115961 0.01252269 -0.00831859 -0.01805880
H 2.27740751 11.71058601 18.94246921 -0.01483416 0.00509701 -0.00862099
H -0.07210243 12.98853387 12.65682527 -0.00752670 -0.00018713 -0.00765142
H -0.07105778 17.46988233 16.71193778 -0.02513349 -0.00025726 0.00498081
H 1.13520980 15.55784047 11.43561718 0.01592024 0.02178083 -0.00794609
H -1.64492240 10.40483429 17.92418778 0.01913967 0.02046662 0.01832752
H 0.94157559 13.51205114 23.67671469 0.00126002 -0.00411553 -0.00123545
H 3.82421964 18.66912163 17.96096025 -0.01424069 0.02782594 -0.02180297
H 1.36408086 17.26446908 13.30528185 0.00288871 0.01061138 0.00589306
H -1.57311912 12.03634929 15.88588281 -0.00960153 -0.00401261 0.00402397
H 0.96411179 11.95995600 21.90832950 -0.00572861 -0.02489808 -0.01255229
H 3.80836758 16.89798129 19.59299379 -0.00235601 -0.01241807 -0.00978951
H 3.58046245 14.41746779 21.34082291 0.01993404 0.01575888 0.02450343
H 1.31357911 9.63532301 19.71825211 -0.02626558 -0.01180239 -0.01408216
H -1.09225479 14.75110743 13.79910604 -0.01136853 0.00281419 0.02202697
H 0.83932017 19.44844349 15.85139616 0.01733035 -0.01873795 0.00353304
H 5.33424123 12.25734197 20.21194447 0.00176517 0.01005193 0.00430459
H 0.76887934 18.09143111 21.67165130 -0.00738630 0.01100250 0.00084850
H 17.73686784 15.23360950 16.46773077 -0.02518526 -0.00038811 -0.00023191
H 1.33212251 11.08614041 13.91351701 0.00565879 -0.01675615 -0.01341609
H -1.86948787 12.19249639 20.26017445 0.01565482 0.01471059 0.00848748
H -0.46382301 16.93191881 21.11464108 -0.00808501 0.02464487 -0.00502135
H 3.02012049 15.16530313 16.42505121 -0.01881295 0.01954200 0.01672054
H 2.75948878 12.13497813 14.07081283 0.00010445 0.01610617 0.00535535
H -0.60530886 12.99280486 19.39804167 -0.01046775 0.00599667 -0.01925630
H -0.94947681 18.15960604 22.30269724 -0.00760834 -0.00382533 0.00324460
H 4.87012635 15.28419956 15.89618775 -0.01077239 0.02393830 0.00335657
H 2.78580832 10.79383851 13.02725090 0.00090516 -0.00525523 -0.01064769
H -3.12636430 18.53955512 26.24345423 -0.00503095 0.01827333 -0.00301903
H -0.39195175 13.84596809 27.03293627 0.01556629 0.01007577 0.00222892
H 2.23380377 10.08814739 32.79828215 0.02040788 0.02294035 0.00352150
H -0.66247635 15.16294163 32.17263569 0.00032178 -0.00558622 0.00717328
H 2.20721869 17.32677161 24.59224441 0.00608167 -0.01131842 -0.00049632
H 0.77296912 13.12683853 28.97224734 -0.00521358 0.00863126 0.01657643
H -3.59906299 11.27991794 34.59242525 -0.01285019 0.03643625 0.03087483
H -1.80073097 16.12913554 30.13440976 -0.00531615 0.00693888 -0.00984881
H 1.10201560 16.58971862 33.98924258 -0.01203258 0.00635695 -0.01007586
H 0.76626821 11.65883991 31.09226668 0.00999428 0.00404836 -0.00513490
H -1.88905114 12.32824418 24.76548526 0.01057027 0.01678500 0.01529263
H -1.56481627 17.47494748 28.32668050 -0.01176166 0.01501654 0.02220976
H -0.54333733 14.77983113 23.56919183 0.00773915 -0.00698238 -0.04028326
H -3.20703503 10.32411610 29.88891328 -0.01030135 -0.00760433 0.00441474
H -0.71953879 13.73085352 35.42348808 -0.00377362 0.02023060 -0.00312129
H 2.40800652 18.56839101 29.34056946 -0.01516342 0.00107688 -0.02051572
H -0.41308709 16.41970756 25.39381831 0.01389653 -0.01983109 -0.00961761
H -3.10917299 11.73351781 28.00114324 0.01228086 0.02624730 0.00265843
H -0.67188700 11.92811647 33.65011950 0.01253818 0.04058115 -0.00546146