2160
Time=42000.00000002 pbc="T T T" Lattice="20.66037298 0.00000000 0.00000000 0.00000000 29.10978692 0.00000000 -4.71943094 0.00000000 35.41533605" energy=-13804.65158194 virial="-84.93833099 28.78648351 32.56605735 28.78648351 -43.91130291 18.48839179 32.56605735 18.48839179 -64.69984230" stress="-0.00157704 0.00125979 0.00151525 0.00125979 0.00014451 0.00085992 0.00151525 0.00085992 -0.00079416" Properties=species:S:1:pos:R:3:vel:R:3
O 0.75989350 8.53760272 2.51216075 -0.00039190 0.00238347 0.00390879
O 1.68610684 3.86343225 3.44055387 0.00137804 0.00130127 -0.00183976
O 4.45835133 0.47607531 9.63270240 0.00099770 -0.00332675 0.00468412
O 3.32946995 5.78055520 8.20474468 0.00018411 0.00498086 0.00386676
O 1.37631011 4.91079906 9.64413999 0.00071166 -0.00070132 -0.00223755
O -0.04267492 9.83596478 8.40101236 0.00100641 -0.00207013 -0.00495175
O 3.96592709 4.89308300 2.44869256 -0.00392238 -0.00323937 0.00161042
O 5.63105935 0.05028299 3.54898197 0.00193135 0.00103224 -0.00593885
O -0.95767252 8.01868944 14.58206539 0.00316020 -0.00016126 0.00317641
O 0.08050276 3.93936048 14.84184870 0.00822814 0.00067581 0.00475794
O 3.06591955 1.31783386 20.96043633 0.00050291 -0.00231605 -0.00171891
O 1.84886051 5.53151217 20.27409073 -0.00432198 -0.00180279 0.00266186
O -0.33910996 4.69923539 21.41232266 0.00297041 -0.00345021 0.00373219
O -1.71918780 9.58765586 19.99707697 0.00232427 -0.00478907 0.00163363
O 2.37486896 4.74242302 14.02838267 -0.00296951 0.00248017 0.00359080
O 3.97862260 0.16671877 15.41785237 0.00537385 -0.00052965 0.00390639
O -2.58739602 8.54865122 26.30935903 0.00760696 -0.00476875 0.00147037
O -1.27844329 3.95624739 27.28389645 0.00592982 0.00242936 0.00445315
O 1.18756450 1.10339909 32.99204140 0.00446472 0.00124466 -0.00073054
O 0.29794268 6.03727300 31.75785369 -0.00031036 0.00061240 -0.00111739
O -1.73450610 5.02156841 33.13964998 0.00077351 -0.00031380 -0.00008374
O -3.27315183 9.81546763 31.86647676 0.00118531 -0.00467422 -0.00148106
O 0.86154744 4.53188800 26.05423542 -0.00209705 -0.00142081 -0.00441724
O 2.50241612 28.85279168 27.05363730 -0.00145854 0.00081683 -0.00367476
O 0.79926159 18.30556450 2.33816725 0.00278595 -0.00019223 -0.00135762
O 1.94279180 13.16134730 3.35987132 0.00226170 0.00220188 0.00443808
O 4.72533164 10.59603595 9.52093605 -0.00030658 -0.00493101 -0.00534801
O 3.28101260 15.47091993 8.28239551 -0.00154789 -0.00515367 -0.00134719
O 1.37843710 14.44383727 9.71485870 -0.00682455 -0.00365966 -0.00017778
O -0.31441727 19.47277844 8.44576575 0.00426662 0.00648943 -0.00598758
O 3.86169538 14.01209701 1.94308260 0.00144996 -0.00414534 -0.00000324
O 5.49492782 9.41739418 3.59640349 0.00363451 0.00009422 -0.00410380
O -0.87943329 18.20258868 14.34641260 -0.00536786 0.00085556 0.00102903
O 0.58567312 13.26495835 15.41432112 -0.00112908 0.00330580 0.00126023
O 3.09418436 10.95444397 21.30599841 -0.00224502 -0.00075572 0.00064288
O 1.84633437 15.76750055 20.11175392 0.00396807 -0.00232828 0.00066099
O -0.12715662 14.39208197 21.39228088 -0.00233531 -0.00471969 0.00100811
O -1.70884987 19.41786380 19.93285934 -0.00090402 -0.00276883 0.00100248
O 2.48269844 14.54374938 14.21101115 0.00299928 -0.00162243 0.00652282
O 3.70720749 9.54587206 15.60277762 0.00160882 -0.00292173 0.00063465
O -2.26267384 18.56298187 25.60191970 0.00085276 -0.00339912 0.00267156
O -1.26699468 13.46190061 26.98080119 -0.00295219 0.00012213 -0.00472270
O 1.85534678 10.99696056 32.53017807 0.00286137 -0.00108258 -0.00188940
O 0.32564803 15.66271211 31.92478997 -0.00306297 0.00108586 0.00156687
O -1.82973401 14.67834158 33.08975235 0.00009373 -0.00357530 -0.00241628
O -3.32601409 19.47072316 31.62115583 0.00391415 -0.00150811 -0.00193509
O 0.96079946 14.52149743 26.10758983 -0.00330681 -0.00067964 -0.00183874
O 2.46082855 9.99813904 27.23783443 0.00481114 -0.00841586 -0.00102724
O 0.62572575 28.08793187 2.63282987 0.00757077 -0.00670836 0.00052019
O 1.79593737 23.19199551 3.52285666 0.00153730 -0.00345262 -0.00210439
O 4.48805756 20.55091321 9.61069174 0.00095771 -0.00458683 -0.00387988
O 3.20344566 25.39625556 8.38476637 -0.00410688 0.00016211 0.00143966
O 1.30806643 24.18447663 9.75782299 0.00911139 0.00058910 0.00348790
O -0.43319454 29.10923499 8.14920020 0.00931316 0.00208160 0.00541734
O 3.95127572 24.02102991 2.27479297 0.00012886 -0.00266031 0.00029988
O 5.41874126 19.10669674 3.39565698 0.00215734 -0.00338768 0.00289824
O -1.03512043 27.97902672 14.38797227 0.00003075 0.00276981 -0.00554843
O 0.52552705 23.41590236 15.62946496 -0.00546520 0.00022610 0.00360699
O 3.24078219 20.43855371 21.06790240 -0.00128973 -0.00043826 -0.00247923
O 1.66683495 25.22302377 19.79127379 -0.00672953 0.00022963 0.00064428
O -0.28077869 24.29469939 21.33040160 0.00247673 -0.00262319 -0.00016371
O -1.86596708 0.25254569 19.81463389 -0.00481546 0.00688917 -0.00153117
O 2.43711154 24.45403435 14.21478908 0.00323916 0.00027665 -0.00099738
O 4.01207208 19.02463869 15.23190094 -0.00021756 0.00278770 -0.00432024
O -2.38090824 28.06066180 26.09984452 0.00113387 0.00414615 -0.00353075
O -1.47827708 23.25380326 27.03515215 0.00256930 -0.00605538 -0.00899295
O 1.55403275 20.55580142 32.81141354 0.00625635 -0.00501114 0.00270438
O 0.40721557 25.12195966 31.81698931 0.00253746 -0.00127668 -0.00328398
O -1.63800738 24.48633470 33.28217283 0.00356444 -0.00152182 0.00469626
O -3.46051123 0.11643077 31.94592454 -0.00393078 -0.00266742 -0.00481795
O 0.66414901 24.08562224 25.81449256 -0.00866509 -0.00219975 0.00315358
O 2.31512156 19.34853964 27.23843556 -0.00336361 -0.00299945 0.00371844
O 7.47281258 8.44047108 2.25326600 -0.00233984 -0.00172860 -0.00101034
O 8.91024909 3.78291520 3.72163554 0.00202935 0.00270154 -0.00288309
O 11.23339875 0.89272546 9.61522077 -0.00834171 0.00364990 -0.00350262
O 10.31910877 5.70857940 8.01380411 0.00122549 0.00120996 -0.00179346
O 8.30479263 5.24739998 9.67556245 0.00143302 -0.00269787 0.00008832
O 6.55284114 9.74174813 7.77973662 0.00039789 0.00161079 -0.00192096
O 10.65721864 4.66216378 2.21409478 -0.00051979 -0.00262016 0.00792289
O 12.40151303 0.05755104 3.76768543 -0.00055068 0.00414917 0.00749839
O 5.74294308 8.88064603 14.05249078 0.00091032 0.00061491 0.00268708
O 6.95605536 3.80865446 15.16490877 0.00857309 0.00219578 0.00440452
O 9.73727179 1.07756201 21.26194874 -0.00595412 -0.00145684 -0.00048310
O 8.65927925 5.92871759 20.24780312 -0.00251696 0.00456661 0.00120461
O 6.53947566 4.85920921 21.63082481 -0.00426168 -0.00311077 -0.00589741
O 5.07423536 9.80089350 20.19370562 0.00234611 0.00003039 0.00357073
O 9.19217613 5.06850511 13.99425778 0.00096115 0.00075947 -0.00811299
O 10.98020749 29.02794784 15.40093384 -0.00554990 0.00311278 -0.00159291
O 4.50069776 8.72967343 26.09578402 -0.00326650 -0.00054375 -0.00170324
O 5.71547332 3.98573205 26.98548800 0.00430343 0.00059792 0.00669674
O 8.33977144 0.95546539 33.12484239 -0.00505757 0.00525934 0.00012643
O 6.99119497 5.99314446 31.86477725 0.00157590 0.00440283 0.00106526
O 5.06445687 4.70863283 32.90014391 0.00158993 0.00462882 0.00264041
O 3.57017326 9.40785476 31.40322022 -0.00155470 -0.00002524 -0.00451752
O 7.83955907 4.85149920 25.79350978 0.00495132 0.00027319 -0.00496581
O 9.40143757 28.90592552 27.11621952 0.00018087 -0.00050043 0.00228081
O 7.71696837 18.48620707 2.26770109 0.00130444 -0.00216348 -0.00183564
O 8.90969540 13.39236456 3.25982038 0.00383474 -0.00495169 0.00135589
O 11.38187006 10.84886643 9.17445197 0.00236583 0.00507236 0.00295721
O 10.24604381 15.45521384 8.12096940 0.00331583 -0.00179799 0.00049418
O 8.20942712 14.46763312 9.60789506 -0.00320117 -0.00000941 -0.00261313
O 6.63014491 19.83363220 8.51164993 0.00715684 -0.00146986 0.00514409
O 10.96183232 14.34454319 1.98014191 0.00175402 0.00457041 0.00564170
O 12.25960376 9.42509519 3.43771596 -0.00018741 0.00205363 0.00133136
O 6.19713163 18.37328642 14.09464970 0.00035492 0.00318464 -0.00623419
O 7.44004764 13.40884373 15.23523829 0.00196954 0.00212853 -0.00283597
O 9.90108881 10.74944426 21.34652660 -0.00223092 -0.00924470 -0.00261168
O 8.57832511 15.72943215 20.49187570 0.00243671 -0.00381729 0.00114293
O 6.80804714 14.27818912 21.44088309 0.00055267 -0.00222521 -0.00092049
O 5.21035457 18.98852224 19.81974619 -0.00337207 -0.00059800 0.00591435
O 9.36790836 14.45026336 13.90983351 0.00147920 -0.00124007 -0.00753011
O 10.81655439 9.38770921 15.41972930 0.00173181 -0.00117968 -0.00445321
O 4.23323523 18.12979378 26.13164604 -0.00439838 0.00039083 -0.00130377
O 5.75946189 13.48662657 26.89712993 -0.00036215 -0.00240302 -0.00167591
O 8.45645091 10.76644004 32.68811409 -0.00275102 0.00164477 -0.00071379
O 7.26056603 15.77197718 31.98730096 -0.00377648 -0.00073868 -0.00100714
O 5.12549549 14.81239895 33.17810534 -0.00151271 0.00716322 0.00151621
O 3.68776554 19.75649629 31.62937120 0.00249772 -0.00180624 0.00203302
O 7.79647864 14.57452444 25.71982672 -0.00130628 -0.00031473 0.00215820
O 9.34078195 9.65143536 27.14160310 0.00078582 0.00377961 -0.00180681
O 7.69828402 27.98518182 2.61877607 -0.00854325 -0.00240077 0.00378178
O 8.58511605 23.10180332 3.47308264 0.00330023 -0.00544905 -0.00172046
O 11.49603255 20.55369627 9.02544029 0.00035998 -0.00159735 -0.00191838
O 10.28997981 25.33762794 8.30065562 -0.00330996 0.00235404 0.00106379
O 8.00741837 24.37018507 9.68679862 -0.00188138 0.00218105 -0.00293614
O 6.44274997 29.05691935 7.92987373 -0.00052443 0.00121637 -0.00108648
O 10.72070006 23.92837542 2.21525918 -0.00173799 0.00185592 -0.00491743
O 12.52148049 19.41861109 3.64147562 -0.00036143 0.00259972 0.00550691
O 5.85587962 27.84183854 14.55403380 -0.00680053 -0.00209891 -0.00371212
O 7.34687056 22.88319550 15.21238504 0.00300937 0.00345890 0.00168421
O 9.94270426 20.61037587 21.08479822 -0.00060540 0.00635710 0.00265906
O 8.70053356 25.45786515 20.37632347 -0.00074919 -0.00098379 -0.00567009
O 6.34953513 24.43124706 21.17788926 0.00479372 -0.00127342 0.00390277
O 5.28217632 0.22409633 20.29841788 -0.00387492 0.00236542 -0.00075527
O 9.14325360 24.02773651 13.77537313 -0.00815044 -0.00511623 0.00427686
O 10.91587971 19.22801204 15.64225563 -0.00086484 -0.00450117 -0.00336458
O 4.72517732 28.22030108 25.79202756 0.00069977 -0.00270941 0.00282866
O 5.65009605 23.15414099 26.86539364 -0.00157096 -0.00664941 0.00120366
O 8.39368048 20.27276018 33.14529782 0.01054015 0.00354809 0.00569064
O 7.13718081 25.48583779 31.88031605 -0.00497466 0.00202906 0.00004686
O 5.24223958 24.31494442 33.36334131 0.00117520 -0.00182679 0.00140025
O 3.44132268 0.16830623 32.05564016 0.00541192 -0.00328193 -0.00492950
O 7.67883137 24.28260171 25.91247471 -0.00123262 -0.00061934 -0.00449102
O 9.49670270 19.27410025 27.08927298 0.00072481 0.00414088 -0.00339672
O 14.28584776 8.61804173 2.19280169 -0.00315226 -0.00159948 -0.00425257
O 15.37375390 4.05543765 3.60969366 -0.00286459 0.00087479 -0.00022916
O 17.99173236 0.91856140 9.56351924 -0.00645990 0.00040930 -0.00201885
O 17.09581561 6.10716699 8.55697795 -0.00794960 0.00277748 0.00325398
O 15.10908687 4.78320555 9.56909480 0.00153293 0.00444976 0.00233286
O 13.58547489 9.61386981 8.18499725 0.00128313 0.00441754 0.00103566
O 17.57284881 4.63726642 2.28743139 0.00112659 -0.00374742 -0.00154263
O 19.23351838 0.10802793 3.50118973 -0.00565230 -0.00882400 -0.00054569
O 12.80211105 8.65439247 13.98726684 -0.00187846 -0.00327464 -0.00060862
O 13.91640608 3.55249354 15.29343701 0.00147450 0.00072278 -0.00150280
O 16.82479187 1.24727892 21.24157474 -0.00877171 0.00180485 0.00526181
O 15.73617436 5.95979563 20.34018026 -0.00205536 -0.00334518 -0.00036254
O 13.44803303 5.10765239 21.20513141 -0.00142961 0.00735432 0.00402330
O 12.13333389 10.19122432 20.28320986 -0.00276361 -0.00148818 0.00016400
O 15.94811244 4.93506116 14.12288776 0.00159193 -0.00530724 -0.00484658
O 17.69569684 0.18779438 15.40737358 -0.00345713 0.00029675 -0.00240240
O 11.39483455 8.92405668 25.93330222 -0.00118197 -0.00023273 0.00040119
O 12.49549990 3.87196414 27.15325520 0.00079076 -0.00347561 0.00421670
O 14.89408321 0.73425252 33.21317583 0.00395360 0.00174394 -0.00027173
O 13.88619773 6.02090027 31.98349792 0.00174489 -0.00651873 0.00211218
O 11.76795745 4.88396353 33.03362427 0.00103298 0.00088537 -0.00096123
O 10.51548108 9.43910241 31.64420010 0.00478388 0.00601486 -0.00322577
O 14.50061859 4.91394269 25.85489399 0.00124143 0.00720212 0.00750528
O 16.12216500 0.15234319 27.21463259 0.00322705 -0.00044097 -0.00054834
O 14.51890112 18.28529097 2.47606951 -0.00231431 0.00014171 0.00241695
O 15.60729587 13.39493255 3.43427823 0.00223142 0.00486370 -0.00697715
O 18.35554623 10.71603724 9.53030449 -0.00644453 0.00032956 0.00142121
O 17.25878869 15.57042008 8.32256661 -0.00033935 -0.00425074 0.00152610
O 15.22465651 14.32278743 9.61352558 -0.00275881 0.00116748 0.00203586
O 13.54467393 19.15658862 8.18419055 -0.00411764 0.00440805 -0.00357780
O 17.76106842 14.28551166 2.23799722 -0.00008866 0.00028766 0.00010755
O 19.15072436 9.15542317 3.43485241 -0.00151032 -0.00142908 0.00379394
O 12.94861958 17.95278313 14.42041738 0.00291875 -0.00401592 0.00142899
O 14.47197546 13.55621278 15.43028374 -0.00196871 0.00383519 0.00893136
O 16.99247054 10.91664193 21.23221353 -0.00024481 -0.00240817 0.00399221
O 15.90703660 15.65245352 19.98053463 0.00352032 0.00424926 0.00056276
O 13.83055612 14.75900668 21.30917527 -0.00199534 -0.00026766 0.00020224
O 12.13729337 19.40649912 19.89878951 0.00242909 -0.00208076 0.00194360
O 16.31349869 14.60203806 14.01590156 0.00080664 0.00255913 -0.00650574
O 17.76163461 9.76648352 15.58128960 -0.00457233 0.00159483 0.00159760
O 11.72060395 18.57927892 25.88421889 -0.00117899 0.00335831 -0.00692531
O 12.62549863 13.41327023 27.19734951 -0.00740890 0.00006396 0.00325001
O 15.36657823 10.72601328 33.06686320 -0.00318103 0.01018767 -0.00128670
O 13.89160212 15.87003310 31.79363454 -0.00043211 -0.00558643 0.00198333
O 11.94307291 14.88090056 32.99428685 -0.00539148 -0.00000741 0.00209752
O 10.42879177 19.60515340 31.68269519 0.00243518 0.00411660 0.00110825
O 14.64207539 14.51620151 26.14974663 0.00319336 -0.00228079 -0.00020345
O 16.16463553 9.84251016 27.49230609 -0.00239432 0.00121628 0.00200102
O 14.35619947 28.02345497 2.35025523 0.00291977 -0.00348637 -0.00017857
O 15.74064519 22.94018828 3.60124019 0.00158150 -0.00786051 -0.00681374
O 18.32601387 20.37287382 9.78095501 0.00009464 0.00105904 -0.00016584
O 17.21456354 25.57324861 8.43823160 0.00801191 0.00052868 -0.00457720
O 15.12876663 24.50647936 9.48219371 0.00117870 0.00506018 -0.00368170
O 13.60824342 0.48097183 8.48794722 -0.00890196 -0.00176330 0.00062797
O 17.56779448 24.25078037 2.11769968 0.00092425 0.00244783 -0.00753632
O 19.38768786 19.11285985 3.57579715 -0.00119532 0.00001412 0.00544138
O 13.02400564 28.05026855 14.21492606 0.00171617 0.00269663 0.00045586
O 13.98537861 23.54510439 15.47804157 -0.00083748 0.00148223 0.00086973
O 16.85504295 20.36077697 21.14299641 -0.00186637 -0.00061800 0.00210207
O 15.55313295 25.45919620 20.10452500 -0.00550500 0.00361066 0.00179652
O 13.60679831 24.16919253 21.33974613 0.00422180 -0.00461754 -0.00358218
O 11.92194893 29.09466077 20.16432958 -0.00373763 0.00163338 -0.00215290
O 16.14458169 24.38778133 14.14597646 0.00192012 0.00263080 0.00215261
O 17.80287352 19.42866539 15.35355297 -0.00165348 0.00154063 0.00072199
O 11.46594106 28.15800965 25.75930841 -0.00412031 -0.00185189 0.00045326
O 12.68844223 23.45819210 27.29691331 0.00217845 -0.00029209 -0.00099283
O 15.27665714 20.42967912 32.93068027 -0.00285328 0.00618133 0.00447888
O 14.25764006 25.47198859 32.00171739 0.00318643 0.00376447 0.00325948
O 12.09171741 24.55015493 33.07019948 -0.00053341 0.00028057 0.00140847
O 10.36443910 0.11493742 31.88567296 -0.00206655 -0.00206415 -0.00320901
O 14.68008730 24.03142110 25.83670560 -0.00113277 0.00576941 0.00824967
O 16.34770777 19.22053093 27.22723756 -0.00082736 0.00585225 0.00354709
H -0.08475692 8.89736628 2.84566883 0.00695197 -0.01118939 0.00466297
H 2.60412405 4.36484615 3.18473952 -0.00343570 -0.00526380 -0.00443242
H 5.24991184 0.38759828 9.05637100 0.04361047 0.02778319 0.00612620
H 2.48676199 5.54142686 8.66090010 -0.00466467 0.00207861 0.00143426
H 5.58352333 7.93437871 0.53808160 0.00771532 0.01892656 -0.03333783
H 3.74446156 3.29541387 5.02607337 -0.00447020 -0.00859267 -0.00329065
H -0.52181791 1.55150486 10.87797108 -0.00576972 0.00957396 -0.00526511
H 1.29095064 6.12620308 6.68130691 0.01519948 -0.02194464 0.02487549
H 3.98595134 6.46587810 10.65148496 0.00092890 0.00569719 0.01987465
H 3.65674771 2.01610841 7.07816975 -0.01064618 0.00330808 0.01600899
H 1.14005050 2.88276714 1.31188479 -0.01128252 -0.00705862 -0.00630520
H 1.31755858 7.56058089 4.55967534 -0.02444961 -0.00989038 -0.01049363
H -1.94939736 5.45189846 35.25752610 0.01345231 0.00349293 -0.00046329
H -0.19465460 0.55682457 5.97300216 0.00503471 0.00442423 0.00942006
H 2.42623166 4.01203615 11.65713828 -0.03233283 0.00633561 -0.00236459
H 5.18172269 8.92674975 5.63784931 -0.00919196 0.01676467 0.00282736
H 2.67949137 7.06645272 1.87958139 0.00731289 -0.01218646 -0.00511343
H -0.28546505 2.28420921 4.24679085 0.00103738 -0.00308835 -0.02273327
H 2.55495634 2.43080623 9.87283043 0.00835240 0.01298792 -0.03976765
H 5.27376614 7.32732775 7.62479531 0.00350986 0.00011193 -0.00709210
H 5.10375054 4.86101403 9.65084842 0.02574888 0.00327851 0.00049642
H 2.76458439 0.02950972 8.00458103 -0.01435344 0.00867497 0.02146868
H 0.06003220 4.93049744 2.22443902 0.02734187 0.01861643 -0.00088063
H 2.37516658 9.33965700 3.58137394 -0.00337496 -0.02012093 -0.01164790
H 6.27356198 4.44408613 7.39313212 0.01192226 -0.02317181 0.01991710
H 0.50014568 8.57570983 10.33169582 0.00908914 -0.02279452 -0.01541810
H 19.72840625 5.23647680 4.52997888 -0.01744093 0.03483496 -0.02099063
H 3.21941356 1.88348853 2.45741059 0.00781648 -0.00618215 -0.01539493
H -0.56288011 2.79373561 8.50303017 -0.00090418 -0.00891268 0.01494560
H 2.33649829 8.44001487 10.09865447 0.00960349 -0.01001978 0.01254466
H 6.73621956 5.67418277 3.82814170 -0.00089332 -0.02648832 0.01581066
H 4.97211034 2.33503499 2.44739950 -0.00984185 -0.01833479 -0.02482739
H 0.87359167 3.55376299 7.61034593 0.00292909 0.02668156 0.01535257
H 1.40188917 7.32517234 9.25934972 0.03773300 -0.00164116 -0.00607941
H 5.60214539 6.90625438 3.48111357 0.00202888 0.00084194 -0.00374043
H 4.39039706 1.06719641 1.39127463 -0.01944674 0.00476274 0.01288312
H -1.66069514 8.69568780 14.59511318 -0.01370380 -0.00146976 0.00850091
H 0.91555059 4.44856802 14.66549360 -0.03375747 0.01436157 -0.02407401
H 3.90908107 0.90089399 20.78600353 -0.00507128 -0.02586577 -0.01229662
H 0.98327131 5.34430131 20.74899297 -0.00237167 0.00517626 0.00081504
H 3.72982517 8.13738143 12.48907148 0.00879128 0.01157478 -0.01836717
H 2.16997581 3.55592158 16.55937711 0.01224014 0.02228168 0.00191299
H -2.02791551 1.48293841 23.04947241 -0.03384430 -0.00711628 -0.00427130
H -0.11662772 5.70355277 18.55822633 0.01788993 -0.01202237 0.00927711
H 2.42417832 6.83612732 22.48372280 0.02139308 -0.03685844 -0.00187098
H 2.24626413 1.90907991 18.33599353 0.01270379 0.01535577 -0.00866415
H -0.45015025 2.89570378 13.01409120 -0.03895533 -0.01407533 0.00913677
H -0.35394913 7.46912694 16.85300646 -0.00865911 0.02306159 -0.01026968
H 1.33302775 5.41828637 11.67065329 0.00411168 0.02964585 0.01675497
H -1.88437413 0.97517546 17.73089239 0.00951581 0.00655212 0.01021397
H 0.88437405 4.13357119 23.78064744 -0.00529693 0.00635349 0.00420732
H 3.66100082 8.68731543 17.54352250 -0.01582130 -0.02425440 0.01343120
H 1.11457795 6.60403748 13.83576031 -0.01042031 -0.00472296 -0.01055329
H -1.94167931 2.56494805 15.78110667 -0.00521412 0.00213852 0.00784963
H 0.85737428 2.51541598 21.84910707 -0.01609885 0.01427562 0.01949812
H 3.71732278 7.35505397 19.55862093 -0.02316936 -0.01387415 0.01890000
H 3.37971550 4.98449689 21.50246427 -0.02787239 -0.03483602 -0.01875991
H 1.23039229 0.37411088 19.67978569 -0.02613164 -0.01026775 -0.00374201
H -1.48961395 4.58395669 14.07401419 -0.01786970 0.00848396 0.01943811
H 0.55141763 9.16848790 15.72174380 0.03034475 0.00974998 -0.00234441
H 5.32037618 2.69137608 20.45496492 0.00005268 -0.00298294 0.00268466
H 0.57644259 8.87907591 22.15135582 0.00375501 -0.00254066 0.00878090
H 17.05777570 5.55609879 16.54456362 -0.00928302 0.00637639 -0.00036920
H 3.46636115 1.79267075 13.72606036 0.00075109 0.01169366 0.00672045
H -1.38498415 4.11421874 19.12461227 -0.00150557 -0.00396380 -0.00287810
H -0.10025113 7.54903413 21.30859344 -0.00705044 0.02245997 0.01463911
H 3.46127876 5.85991624 16.24435779 0.01163181 0.01311379 -0.00199325
H 2.40246570 0.62242604 12.99729267 0.00689231 -0.00773797 0.00905141
H 17.63167603 3.64092682 19.78254158 0.01985648 -0.00827634 -0.00682598
H -1.24498578 8.58067258 22.25507584 0.00157421 -0.00511238 -0.01643991
H 5.03906900 6.06577214 15.36638686 0.01387533 -0.00301365 -0.01651644
H 1.75453272 1.90064161 13.93724065 0.01193232 -0.01432993 -0.00033536
H -3.45281031 9.06444479 26.42290161 0.00247756 -0.01312990 -0.00116320
H -0.41424444 4.18984540 26.85646412 -0.03648465 0.01573663 -0.01635765
H 2.07932912 0.68211407 32.64738065 0.02532525 0.00395947 -0.01166030
H -0.59805661 5.69599244 32.07223562 -0.01686198 0.01011295 -0.00653915
H 2.20647511 8.06195791 24.79168842 -0.03415966 -0.00058271 0.01495110
H 0.58860189 3.72426155 29.04110657 -0.00330322 0.01119086 -0.02321652
H -3.67459391 1.19290983 34.88233871 0.00826837 0.00643467 0.00769067
H -1.88778316 6.72240226 30.12656789 -0.00947573 -0.00221618 0.01284170
H 0.92323534 6.50564300 34.00939271 -0.01514750 0.00401543 0.00968468
H 0.71673413 1.91253122 30.82196663 0.00262679 0.01173532 0.00833028
H -2.11098275 3.08107637 24.90349969 -0.00164238 -0.00541807 0.01644494
H -1.49181040 7.99214733 28.06327415 -0.00066730 -0.00368097 -0.00342139
H -0.35340287 5.52497004 23.42346241 0.04124553 -0.01003224 -0.00691643
H -3.19680609 0.64784354 29.62282612 -0.02715684 0.00198100 0.00224681
H 4.05914615 4.33481865 0.15924283 -0.01809598 -0.01675795 -0.00723754
H 2.44233804 8.95061678 29.09279145 0.01183892 -0.00289735 0.00455276
H -0.58759265 6.85761770 25.60151413 0.00099677 -0.01310599 -0.01046300
H -3.05290775 2.18515259 27.68229582 -0.00789364 0.00126753 -0.00947282
H -0.84685978 2.51686527 33.84482794 -0.00489498 0.00618424 -0.01977067
H 2.27061692 7.48602375 31.07965687 -0.00513555 -0.01215159 0.01039311
H 1.96981461 4.64884800 32.86602797 0.01738526 -0.02905875 -0.00545558
H -0.37445595 28.98996298 31.81281791 -0.00523906 -0.00138556 -0.01351889
H -3.02253937 4.93249486 25.82030320 0.00108119 0.01107916 0.01436738
H -0.68057681 9.66024950 27.17675470 0.01087874 0.02790995 0.00836216
H 2.68127423 3.76027315 30.85150809 -0.00721355 -0.00286629 -0.00625766
H -0.78094762 8.48661329 33.29623559 -0.00023071 0.00052386 -0.00696328
H 15.97718528 7.11536250 26.73260980 -0.01135196 0.01951146 -0.00973530
H 0.34623016 1.80377237 25.77406837 0.01695699 -0.00494415 -0.01458166
H -4.18183759 3.16602094 32.08678818 -0.01916907 0.00275849 0.00352357
H -2.03054652 7.51808323 32.58431137 -0.00622776 -0.01833208 -0.01500509
H 2.12879578 5.14348455 28.24538116 -0.01929084 0.02920239 0.00010594
H 1.92827537 1.42282794 25.20252765 0.01138864 -0.01037152 -0.00089452
H -2.45450003 2.96881819 31.82567691 0.00230434 0.00444375 -0.03226690
H -2.52376634 8.48187869 33.86390963 0.01113208 -0.01879041 0.00147590
H 3.59196615 5.97937910 27.41670507 -0.02376531 -0.01263028 -0.00026762
H 0.53739699 0.36601992 24.87163334 0.00737822 0.00057437 -0.02304971
H -0.13207196 18.56359407 2.62741685 0.01257082 0.01395134 0.00143878
H 2.76160660 13.64638840 3.09766434 -0.01043215 -0.00747360 0.00072649
H 5.60867750 10.39535046 8.97181325 -0.02134271 0.01970425 0.01664968
H 2.41778678 15.00831194 8.36045983 0.01486605 0.01395284 0.00277879
H 5.80203202 18.30896845 0.40030113 0.01064874 0.00506272 0.01347801
H 3.80240482 13.14665175 5.08683219 0.00560149 0.01133876 0.00089822
H -0.24066182 11.07340883 11.12749089 -0.00325506 -0.00207705 0.01268033
H 1.51156753 15.74591173 6.51460528 0.01539438 -0.02159513 0.02376010
H 4.11581478 16.49566077 10.62601613 -0.01123237 0.01516513 0.00476774
H 3.72572669 11.77111186 7.27553803 -0.01096233 -0.00804685 -0.01641057
H 1.26529590 12.78516549 1.19466449 -0.00536280 0.01506431 -0.01002632
H 1.48986961 17.48819780 4.60055822 -0.01293845 0.02401701 -0.00697585
H -2.10402998 15.14119406 35.14785389 0.00874475 0.00274798 0.01621662
H -0.04723077 10.20876734 6.06054151 -0.00989987 -0.01019860 0.00724088
H 2.77108425 14.04335143 11.86251040 -0.01048070 0.02324999 0.01905822
H 5.30099360 18.94558680 5.88659164 -0.01664885 -0.02342453 0.01764361
H 2.72454900 16.70454834 1.65143707 -0.01594431 0.00244601 0.00387733
H -0.01648227 11.59667064 4.09449082 0.01488858 -0.00312707 -0.00914869
H 2.72639950 12.37271863 10.07177306 0.02972719 -0.00965192 -0.00295357
H 5.24305857 17.10294451 7.74306594 -0.01287696 -0.01308776 0.02040055
H 5.10430805 14.84807348 9.50286437 -0.00158538 0.00750751 -0.00597199
H 3.07560950 9.74043588 8.18338908 -0.01986383 0.00934051 -0.00863249
H 0.21028647 14.45860709 2.26083432 0.02651919 0.00797184 -0.03334456
H 2.32802444 19.51902215 3.82213129 0.01062751 -0.00180227 0.00602955
H 5.44203215 13.14989982 8.28511092 0.00837895 0.01183128 0.00337550
H 1.99050022 18.90019162 10.31482714 -0.00561237 -0.02458632 0.00562998
H 19.58555586 15.12322286 4.52520113 -0.01701427 0.02970064 -0.00842527
H 3.19562549 10.11511616 1.59042234 -0.01490668 0.02217648 -0.00520464
H 0.62601300 13.24392712 7.47380863 -0.00470420 0.01099803 -0.00179555
H 1.66430353 17.33041148 9.48283087 -0.02999058 0.01156184 0.00612870
H 5.53819676 14.82244609 4.36467780 -0.00275855 0.00621081 0.00219730
H 3.75213397 11.57666237 2.47489442 -0.01350106 0.00086309 -0.01250991
H 19.61570058 13.82694538 7.72655698 -0.01148471 -0.01364411 -0.01034785
H 0.36261053 18.05996191 10.38158386 0.03427478 0.00369731 -0.01422130
H 5.65701876 16.23338712 3.23398388 0.00463673 -0.01226371 -0.00274572
H 5.01866479 10.77386105 1.52681220 -0.00894912 -0.00125847 0.00916428
H -1.70698850 18.64027058 14.67174220 0.03907809 0.00098143 0.01436292
H 1.52136878 13.59323992 15.20145108 0.01149997 -0.00038999 0.01748476
H 3.88884811 10.39190727 21.04017786 -0.00812838 0.01340248 0.02737724
H 1.03975581 15.26614194 20.31991644 -0.00804078 -0.02151713 -0.01086080
H 4.45149432 18.39158616 12.21695690 0.02144514 -0.01670631 0.01541896
H 2.37030742 12.98621698 17.16654555 0.01623781 0.01510847 -0.00507146
H -1.76881844 11.15780469 22.93092039 -0.01744901 -0.01186952 -0.00565565
H -0.15317357 16.04761346 18.33264839 -0.00701859 -0.00642110 -0.01357542
H 2.71984493 16.44064235 22.21419499 0.01371569 0.00250639 -0.01261951
H 2.25243785 11.41349036 19.16013738 -0.00072518 -0.00471794 -0.00210543
H -0.06085841 12.75222569 12.93586506 0.00766651 -0.01881615 -0.01386446
H -0.01932382 17.63815492 16.35194119 -0.00017933 0.00137214 -0.00635995
H 1.00795852 15.04355014 11.72043083 0.01442826 0.01877803 0.02460511
H -1.73335197 10.45190884 18.12667205 -0.03960842 -0.02230246 0.00596864
H 1.17028481 14.12973452 23.91736064 -0.01953398 0.00467885 0.00085666
H 3.92572945 18.81756133 17.53930504 0.01013032 -0.00133165 0.00351612
H 1.22608546 16.74965316 13.60018453 0.00178216 -0.00225993 -0.01932472
H -1.37389814 11.58334350 15.83975082 -0.00931475 0.01072443 0.00803985
H 0.99804751 12.23089785 22.28599758 0.01243220 -0.00349852 -0.00662912
H 3.87759574 17.17669917 19.38618218 0.01049960 0.01852772 -0.03045508
H 3.55886681 14.43957220 21.46694956 0.02180631 -0.00695768 0.00085474
H 1.40920490 10.01061724 20.22366414 0.00189222 0.00069001 0.01508253
H -1.13462842 14.37814180 14.13428749 0.01054533 -0.03109070 0.01329044
H 0.97278107 19.74546374 15.53300474 -0.01713206 0.00799216 0.01443045
H 5.19475050 12.37295808 20.03156380 -0.01298780 -0.00850047 -0.00894348
H -0.99542788 18.34169226 22.07839096 0.01277025 0.01791363 0.02034684
H 18.48085668 16.34347325 15.61947814 0.00217097 0.02200179 0.03115355
H 2.42474875 11.23350971 14.13382296 -0.01725727 0.00368363 -0.00837617
H -0.66006762 13.02850999 19.36423342 0.00554230 0.00465620 -0.00281534
H 0.74913210 18.21859618 21.78332494 -0.00248514 -0.00848063 -0.01605220
H 3.50863460 15.24348590 16.57361217 0.02135322 -0.01180079 0.00643930
H 2.83804947 9.75820420 13.24086881 0.00527454 0.01077743 -0.03644706
H -2.04837240 13.98545267 19.13578361 -0.00165033 -0.01196166 -0.00310094
H -0.36952652 17.13154506 20.96077238 0.01460912 0.00965158 -0.00457907
H 5.08267381 15.55742977 15.96570815 0.00782786 -0.00814154 -0.02231761
H 1.14303158 10.17863829 13.68580109 -0.00142218 0.01706650 -0.01577644
H -3.14148592 18.86895625 25.97654965 0.02004976 -0.01739395 0.00379154
H -0.48042311 13.94482663 26.68422088 -0.01791340 0.03327417 -0.00679795
H 2.58291324 10.33316979 32.27499867 -0.01219757 0.00021222 0.00092644
H -0.55357112 15.25910373 32.26533888 0.00536865 0.01402069 -0.00222193
H 2.49069460 17.86558577 24.36294495 0.00344985 -0.00617301 -0.00631724
H 0.68959515 13.27755048 28.72101308 0.00981368 0.01602840 -0.02348063
H -3.38634689 11.21368513 34.82787278 0.01519468 -0.00062299 -0.01118624
H -1.84397101 16.16724513 30.47184078 0.00813955 0.02062044 -0.02295325
H 0.91379937 16.41836594 34.24231933 0.00030808 0.00490919 -0.00290541
H 0.64846646 11.77667488 30.80798184 0.01864140 0.00471079 0.00718223
H -1.90337123 12.77548258 24.92316563 -0.00111229 0.00745732 -0.01516749
H -1.93538033 17.53889072 28.48823756 0.01823862 0.01395649 -0.00010981
H -0.31090050 15.01576523 23.42720074 -0.00621935 -0.01590468 -0.00646102
H -3.09823513 10.13937004 29.54390042 0.01726273 0.02084930 -0.01337372
H -0.65359082 13.78935392 35.14852506 -0.01253943 0.00713839 -0.00778628
H 2.18726465 18.77502345 29.34775737 -0.00576299 0.00493128 0.01292855
H -0.34564008 16.77201754 25.25454238 0.00395269 -0.00980938 0.02575658
H -3.12352406 11.68338551 27.58351203 0.00820172 -0.00590710 0.00105875
H -0.28195462 12.45741818 32.98712641 0.00596918 0.01387633 0.01494617