2160
Time=59000.00000005 pbc="T T T" Lattice="20.61025088 0.00000000 0.00000000 0.00000000 29.01930352 0.00000000 -4.73144858 0.00000000 35.59593008" energy=-13803.22290611 virial="-109.82821946 38.44270161 81.60466369 38.44270161 -28.10206714 -23.72985667 81.60466369 -23.72985667 -39.25401237" stress="-0.00279920 0.00189557 0.00379005 0.00189557 0.00087200 -0.00115173 0.00379005 -0.00115173 0.00047138" Properties=species:S:1:pos:R:3:vel:R:3
O 0.73695256 8.56859048 2.70731519 -0.00207326 0.00499767 0.00016587
O 1.79986182 3.75658724 3.66746490 0.00121049 -0.00348003 -0.00568202
O 4.54048676 1.14007937 9.07204957 -0.00049963 0.00080551 0.00136098
O 3.24911366 5.81104980 8.35825284 -0.00804667 -0.00204628 -0.00047924
O 1.26852137 4.99339589 9.71893713 0.00246378 0.00138765 -0.00344488
O -0.30379465 9.88311312 8.19929066 -0.00002727 0.00181873 -0.00291165
O 3.86690204 4.09706379 2.27272691 0.00057837 -0.00423744 -0.00110349
O 5.68525570 28.86518987 3.52277318 -0.00173646 0.00258068 0.00507230
O -0.68584370 8.57127867 14.53192842 -0.00453101 0.00015312 -0.00292852
O 0.49015822 3.54293687 15.19306967 0.00128921 0.00304473 -0.00086069
O 2.72792230 0.73068208 21.48203485 -0.00978683 -0.00173369 -0.00012616
O 1.79915324 5.97390304 20.15221719 0.00330077 -0.00098940 0.00362979
O -0.38110572 4.91153672 21.41579407 0.00071023 0.00453181 0.00030926
O -1.80128252 9.87632117 20.17688652 0.00382095 0.00186799 -0.00044022
O 2.66537454 4.39213760 14.04752359 0.00117258 -0.00336666 0.00064919
O 3.79735623 28.88163318 15.36975103 -0.00038304 0.00507149 0.00040501
O -2.73915955 8.19696901 26.25004970 0.00829929 0.00184474 0.00150725
O -1.07487747 3.41824398 26.76163074 -0.00078296 -0.00679491 0.00375429
O 1.38047296 1.07050712 33.01058024 -0.00136798 -0.00110994 -0.00378885
O 0.21367942 5.87860232 32.11720476 0.00283996 -0.00430461 0.00648366
O -1.94876079 5.00440274 33.35173410 0.00611948 -0.00336479 -0.00079406
O -3.35360934 9.45204646 31.80549218 -0.00222225 -0.00179306 -0.00124386
O 0.79032037 4.99405048 25.69030583 0.00031095 0.00215319 -0.00406538
O 2.26540335 28.76009432 27.08542524 -0.00345336 -0.00561827 0.00231755
O 0.76816426 18.45659585 2.13157483 -0.00499886 -0.00088019 -0.00471402
O 2.17051590 13.49021283 3.78546697 -0.00410166 0.00793243 -0.00060959
O 4.56593132 10.91346333 9.49713160 -0.00510002 -0.00077473 0.00076305
O 3.38111774 15.58675020 8.10159072 -0.00482161 -0.00321475 0.00044257
O 1.21408412 14.93723380 9.57360560 -0.00179636 -0.00637183 0.00198082
O 0.14446426 19.71526834 8.33777758 -0.00040008 -0.00285562 0.00341412
O 3.99532541 14.60780368 2.31939477 0.00022120 0.00056512 -0.00319378
O 5.54876761 9.42183692 3.58205265 -0.00833646 -0.00577367 0.00011281
O -0.87706256 18.46902966 14.39296720 0.00429365 -0.00236279 0.00162099
O 0.51803355 13.82094094 15.62917522 0.00424791 0.00497406 0.00598257
O 3.07323848 10.74538395 21.46160387 -0.00033820 0.00195423 0.00291837
O 1.53868152 15.75390038 20.32910288 0.00162780 -0.00009078 -0.00119870
O -0.36555443 14.52024283 21.55450592 -0.00546912 -0.00705326 -0.00261576
O -1.65625623 19.68675802 20.65120199 -0.00220708 -0.00011958 -0.00821088
O 2.29735769 14.71308614 14.02648605 0.00061210 -0.00132119 -0.00174075
O 4.13447684 9.79561343 15.71224435 -0.00509164 0.00659709 0.00094723
O -2.39047123 18.35756591 26.14941016 -0.00007568 -0.00618847 -0.00818551
O -0.86708556 13.18046464 27.31516407 0.00522297 -0.00086975 -0.00373303
O 1.34807997 10.75387773 33.36648222 0.00708985 0.00163060 0.00319202
O 0.42337138 15.74365417 32.16456991 0.00645309 -0.00488279 0.00087849
O -1.56959514 14.48524790 33.40624713 0.00308091 -0.00279870 0.00348217
O -3.33808368 18.97819814 31.84919453 0.00323089 -0.00289546 0.00166318
O 0.87099890 14.46635879 25.97362722 0.00086159 -0.00060226 -0.00644757
O 2.34332223 9.77346943 27.53241606 -0.00527211 -0.00352586 -0.00357442
O 0.73533736 28.07146660 2.36091917 -0.00166066 0.00028138 -0.00204811
O 2.22087068 23.15830412 3.40880987 -0.00732658 -0.00618348 0.00026505
O 4.83868285 20.41182272 9.15455493 -0.00270008 -0.00031027 0.00464897
O 3.57709168 25.41649971 8.52694960 0.00543424 0.00136892 0.00140001
O 1.55279956 24.53004403 9.60381715 -0.00347554 -0.00143280 -0.00867656
O -0.18785333 0.15895378 8.30768272 0.00297824 -0.00273384 0.00032789
O 4.25280786 24.21674543 2.13440217 0.00239994 0.00255847 0.00426769
O 5.62513937 19.66151545 3.61231315 0.00184928 -0.00307639 0.01113469
O -0.74198471 27.98801496 14.45671759 -0.00185894 0.00184320 -0.00181390
O 0.23832653 23.33466024 15.78749634 -0.00530194 -0.00443374 -0.00466248
O 3.01214973 20.48727643 21.13541149 0.00101626 0.00047373 -0.00146254
O 1.84850851 25.28627716 20.28378566 -0.00134460 -0.00204595 0.00159976
O -0.30028393 24.44309777 21.40225998 0.00174548 0.00248750 0.00200672
O -1.98669017 0.13625988 20.00847782 -0.00271693 -0.00081106 0.00121434
O 2.18689324 23.94125751 14.08591965 -0.00392775 -0.00343551 -0.00926761
O 4.01754549 19.16722012 15.61115252 0.00433485 0.00173764 -0.00272970
O -2.71083859 27.38655536 26.61686881 -0.00078734 0.00032188 0.00043533
O -1.18773872 22.94734437 27.37470594 -0.00535775 -0.00154633 -0.00407895
O 1.37513066 20.33218872 33.12634305 -0.00259549 -0.00979792 0.00032829
O 0.35734308 25.26532222 31.98262048 -0.00746348 -0.00146797 0.00150910
O -1.88727213 24.68021186 32.84159762 -0.00505545 -0.00478787 0.00157334
O -3.56448214 0.20392454 31.72793065 0.00116427 0.00293896 -0.00420567
O 0.73016394 23.82859696 26.10826199 -0.00020927 -0.00480795 -0.00024401
O 2.32309932 19.34599799 27.19133638 0.00167817 -0.00656070 0.00453678
O 7.85566854 8.90334811 2.15753039 0.00046623 0.00209143 -0.00507188
O 8.76181730 4.11136177 3.73185279 -0.00071006 0.00321772 -0.00436283
O 11.42896460 1.03886406 9.59876621 -0.00306671 0.00181568 -0.00567525
O 10.36803935 5.89168741 8.19871046 -0.00483486 -0.00116454 -0.00478567
O 8.29364488 4.88887098 9.40136649 0.00145252 -0.00505012 0.00040457
O 6.49367059 9.62683464 8.28428427 -0.00116336 0.00680434 -0.00005667
O 10.92415244 4.66130969 2.58041503 -0.00548064 0.00366069 0.00269860
O 12.40391938 0.07621813 3.39399168 -0.00077407 -0.00144926 0.00341021
O 6.09368000 8.37274189 14.44551377 -0.00403776 0.00314174 0.00308908
O 7.23665783 3.67343670 15.55058892 0.00031428 0.00206445 0.00174619
O 9.78012227 0.97568554 21.33222825 -0.00386267 -0.00502432 -0.00382872
O 8.64384777 5.83003316 20.08357393 0.00126672 0.00215779 -0.01035451
O 6.47892871 4.93990314 21.28047004 0.00448729 0.00280629 -0.00657834
O 5.17002082 9.65530972 20.13195215 -0.00240575 -0.00493895 0.00161791
O 9.31153977 4.65451822 14.31429556 -0.00117820 -0.00446821 -0.00177210
O 10.53214275 28.54265488 15.17177551 -0.00768145 0.00137434 -0.00106319
O 4.14166217 8.36716190 26.06335172 0.00104676 -0.00285779 -0.00163295
O 5.61269490 3.55939796 27.01016092 0.00237560 0.00303994 0.00113105
O 8.02514683 1.20070397 33.03003546 -0.00526480 0.00106384 0.00170949
O 6.82004735 6.16866929 32.18471309 -0.00145269 -0.00370054 0.00331871
O 5.04059107 4.72006032 33.35662716 0.00347725 0.00460087 0.00270487
O 3.51604206 10.23945092 31.88039833 0.00379583 0.00200205 0.00211069
O 7.58883119 4.88094776 25.97134710 -0.00173993 0.00081053 0.00024838
O 9.17910183 28.40252454 27.23867399 0.00017515 -0.00597204 -0.00303764
O 7.50726195 18.00554891 2.82177800 -0.00020099 0.00858719 0.00010939
O 8.71867808 13.44130355 3.60291173 0.00348256 0.00049600 -0.00065539
O 11.22955696 10.76014558 9.61893762 0.00112632 -0.00304254 0.00046798
O 10.51358947 15.48537711 8.42190665 -0.00345848 -0.00775380 -0.00122021
O 8.29913304 14.63757851 9.50464138 0.00080019 0.00448181 -0.00459665
O 6.74599509 19.02037368 8.19763765 -0.00054708 0.00050126 -0.00176892
O 10.83116062 14.28611183 2.38881675 0.00470111 -0.00551550 -0.00459739
O 12.38520825 9.35055049 3.51840408 -0.00272492 0.00256281 -0.00112575
O 6.06624913 18.36617553 14.10258238 -0.00374808 -0.00459561 0.00498125
O 7.14505550 13.24981064 15.20623852 0.00007213 0.00064834 -0.00541485
O 9.81202130 10.52602223 21.39007059 -0.00002096 0.00020446 0.00107763
O 8.70713963 15.57739870 20.36365963 -0.00716259 -0.00001842 -0.00064659
O 6.70770164 14.47931662 21.56568078 -0.00069510 -0.00474008 -0.00110824
O 4.87730168 19.25757030 19.96758448 0.00066123 0.00155481 0.00320802
O 9.14874287 14.35004583 14.06984273 0.00682359 0.00114582 -0.00112006
O 10.82509828 9.49419022 15.55148455 -0.00442885 -0.00280362 0.00508175
O 4.46410923 18.65217513 25.94341394 0.00028401 -0.00302713 -0.00122027
O 5.89852034 13.30655428 26.87668108 0.00471246 0.00647474 -0.00321203
O 8.20740185 11.03424006 32.82417184 -0.00062285 -0.00169050 -0.00091708
O 6.93880445 15.76471467 32.34519091 -0.00012086 -0.00315281 -0.00054690
O 5.12560569 14.54096778 33.58648913 0.00103841 0.00116290 0.00256490
O 3.55937713 19.54331256 32.05574249 0.00482519 0.00218262 0.00215709
O 7.77599259 14.63179082 25.82892389 -0.00796073 0.00690255 -0.00054765
O 9.10852953 9.52402347 27.20059879 -0.00401346 -0.00206498 -0.00439495
O 7.50674765 27.71708812 2.19368735 -0.00041977 -0.00437369 0.00074128
O 8.97202039 22.98619562 3.36274603 -0.00478700 -0.00057406 0.00420196
O 11.62629312 20.79031524 9.22063617 0.00727899 0.00955786 0.00142698
O 10.46793370 25.44480001 8.34341530 -0.00007343 -0.00281036 -0.00069372
O 8.33854144 24.57198227 9.55379412 0.00451865 -0.00067286 -0.01376938
O 6.55508249 0.01326767 7.78273598 -0.00072140 -0.00365546 0.00175014
O 11.11240750 23.79857218 2.43602592 -0.00089284 0.00004195 0.00405597
O 12.59358327 19.27972610 3.85643185 -0.00010422 -0.00139388 0.00069342
O 6.09611468 28.06605551 14.31620320 -0.00412320 -0.00148535 0.00157369
O 7.16373345 23.00995352 15.32266808 0.00116803 0.00285506 -0.00392057
O 9.71789413 20.33980511 21.50218166 -0.00223456 -0.00206080 -0.00373894
O 8.78267576 25.55741834 20.57439325 0.00096229 -0.00123566 0.00450463
O 6.78188086 24.22341264 21.59891987 0.00622907 -0.00485808 -0.00357839
O 4.85777275 28.94622324 20.03000341 -0.00574730 -0.00642259 -0.00024365
O 9.30397719 24.33260604 13.97826683 -0.00208988 -0.00829301 -0.00177975
O 10.66814413 19.63408297 15.67365091 0.01014079 0.00030728 0.00221356
O 4.38665612 27.76405784 26.14945529 -0.00182678 -0.00074905 -0.00817451
O 5.70441820 23.24448870 27.49295857 -0.00526917 0.00141991 0.00756575
O 8.12737399 20.10042338 33.35759240 0.00398261 0.00418537 0.00045300
O 6.75339676 25.40278994 32.21224511 0.00095663 -0.00365809 -0.00186283
O 5.00142023 24.00730469 33.20943648 -0.00491260 0.00052634 -0.00216525
O 3.62894888 0.14943981 32.08132128 0.00112526 -0.00235194 -0.00128451
O 7.77842017 23.87774506 26.14035111 -0.00214047 0.00608793 -0.00256106
O 9.19077289 19.22637880 27.45751097 -0.00047545 -0.00346353 0.00263291
O 14.52446755 8.71824619 2.37334705 0.00203597 0.00568740 0.00498890
O 15.66649256 3.71539260 3.56927649 0.00071672 -0.00204484 -0.00278624
O 18.41062308 1.13461397 9.62992319 -0.00159337 0.00070621 0.00273968
O 17.31002983 5.98256904 8.17876896 -0.00275125 0.00333162 -0.00033001
O 14.98911095 5.24469657 9.31615468 -0.00025219 0.00651181 0.00105960
O 13.29448798 9.83818915 8.30941837 0.00337341 -0.00423951 -0.00027642
O 17.63250458 4.79826142 2.38569517 0.00115875 -0.00179234 -0.00244666
O 19.19706046 0.22141923 3.45835571 0.00723475 -0.00004408 -0.00378222
O 12.96446952 8.69536382 14.07372297 -0.00093280 -0.00363238 0.00518608
O 14.27959035 3.68679147 15.01536927 -0.00458388 0.00033079 0.00025685
O 16.47696545 1.09857008 20.96306371 0.00548534 0.00211480 0.00047979
O 15.29928676 5.96047983 20.02896693 0.00053931 -0.00194561 0.00158421
O 13.44533711 4.80880475 21.13184069 0.00092631 -0.00069617 -0.00457155
O 11.84338130 9.52209001 20.25127435 -0.00873576 0.00163626 -0.00000709
O 16.22352977 4.94785725 14.04197686 0.00008737 -0.00027186 0.00327012
O 17.82188867 0.23103869 15.60742766 -0.00356505 -0.00323344 0.01107262
O 11.15412696 8.26838373 26.12237645 0.00298712 0.00353798 -0.00345826
O 12.24909250 3.67542451 27.56763864 0.00150564 -0.00355747 -0.00367215
O 14.99750929 1.16634860 33.20218390 -0.00241800 0.00966746 0.00028223
O 13.86667663 5.93325117 32.09836350 0.00412711 0.00487340 -0.00036938
O 11.66021557 5.01179993 33.25907861 0.00520906 0.00226090 -0.00126381
O 10.36498451 9.70506319 32.22091656 -0.00260386 0.00190588 0.00516901
O 14.44255581 4.29837543 26.18627059 0.00310174 -0.00060876 0.00027220
O 16.11506637 28.96747951 27.40649963 -0.00400200 0.00038176 -0.00268477
O 14.30635946 17.74132866 2.63566560 -0.00295106 -0.01033530 -0.00411906
O 15.64880864 13.37999711 3.47065341 0.00516752 -0.00032294 -0.00727315
O 18.33089111 11.06524904 9.46851214 -0.00333062 -0.00246042 -0.00217319
O 17.10905573 15.56376280 8.41922129 0.00203930 0.00484932 0.00416754
O 15.08039855 14.67400016 9.94309306 -0.00156777 -0.00075336 0.00215635
O 13.70686577 19.48228201 8.47602571 0.00077533 -0.00418860 -0.00151463
O 17.80696716 14.26313953 2.20683732 0.00638603 0.00404888 -0.00110336
O 19.30909434 9.85535182 3.62486585 -0.00066360 0.00294159 -0.00392505
O 12.64345658 18.27995464 14.51460222 -0.00080152 -0.00500568 0.00017719
O 13.82235008 13.38402794 15.51559766 -0.00045592 0.00140375 -0.00488330
O 16.64455681 10.58363850 21.51010982 0.00386500 0.00496358 -0.00226490
O 15.24793848 15.87240901 20.37798595 0.00223922 -0.00495719 0.00545405
O 13.37232067 14.35968332 21.64644350 -0.00376191 0.00429163 -0.00158921
O 11.85870628 19.39208787 20.13193751 0.00098024 0.00431872 0.00164800
O 15.93442223 14.20156463 14.52046347 0.00316760 -0.00145064 -0.00149750
O 17.69979092 9.60780707 15.31257379 -0.00217285 0.00056379 0.00290673
O 11.17584700 18.23899635 26.19328680 0.00287783 0.00000516 0.00013752
O 12.36078251 13.33394521 27.52470625 0.00110916 0.00652967 -0.00351726
O 15.42243129 11.01298937 32.75080081 0.00108916 -0.00279379 0.00729586
O 14.20856821 15.53300681 32.07174886 0.00355062 0.00068545 -0.00473074
O 12.00195678 14.54295522 33.18145727 -0.00206765 -0.00556133 0.00620436
O 10.24943244 19.20085009 32.00889255 0.00417665 -0.00355574 0.00326584
O 14.42176800 14.16542007 26.17926936 -0.00310414 -0.00175714 0.00651288
O 16.09595598 9.63504061 27.33055981 -0.00539039 0.00153863 0.00406535
O 14.33684547 27.70057757 2.47209401 0.00839211 0.00661732 0.00198495
O 15.84688090 22.91328077 3.54995981 -0.00712916 0.00781638 0.00029112
O 18.48321578 20.54388345 9.50250457 0.00182310 0.00265573 0.00111497
O 17.42974231 25.30328958 8.11398493 -0.00059271 -0.00089174 0.00243505
O 15.15968785 24.62807645 9.21669275 0.00314309 0.00080317 0.00294264
O 13.63431158 28.89210266 8.19084436 -0.00087594 0.00724225 -0.00616031
O 17.95305935 23.71286636 2.32379119 0.00802159 0.00344786 -0.00473654
O 19.25570406 19.03736424 3.60229323 -0.00535369 0.00152256 -0.00349631
O 12.87081519 27.90910295 14.43212429 0.00156116 -0.00141841 -0.00007282
O 14.03958097 23.03598121 15.33525861 0.00138172 -0.00197520 -0.01076573
O 16.57483874 20.64846308 21.32266116 -0.00041389 -0.00481209 0.00529366
O 15.82899190 25.09260654 19.99747613 -0.00266264 0.00073252 -0.00490023
O 13.50709277 24.50242015 21.09878418 -0.00399330 -0.00100066 -0.00416504
O 11.77900030 0.35840288 19.91295014 -0.00020355 -0.00048943 0.00320604
O 16.14469423 24.18200367 14.39131708 -0.00111884 0.00071451 0.00507474
O 17.49059806 19.32053432 15.51339880 -0.00359525 -0.00103861 0.00135979
O 11.44275471 27.83480759 26.15038344 -0.00151885 0.00202091 0.00026675
O 12.59158626 23.21546952 27.48925439 0.00437029 0.00179349 -0.00271681
O 15.38564947 20.31822094 33.08956548 -0.00123903 -0.00558581 0.00158411
O 13.69266993 25.22221443 32.08721019 -0.00658931 -0.00092577 0.00066531
O 11.75997073 24.10980857 33.20173465 -0.00177407 -0.00246051 -0.00225008
O 10.14857200 28.86184628 32.21554967 0.00164364 0.00052133 -0.00208533
O 14.64104649 24.07744600 26.23778094 -0.00950864 -0.00203699 -0.00211920
O 15.83220768 18.87565719 26.89183282 -0.00442270 0.00181959 -0.00550623
H -0.12526253 9.18220491 2.71569494 -0.02061252 0.00854972 0.00461144
H 2.65193824 3.97353139 3.03540614 -0.00918387 -0.00071316 0.00572694
H 5.38466649 0.66504334 8.85018753 0.02499651 0.01851580 -0.01119840
H 2.41691053 5.41696686 8.77101410 0.01492858 0.01263228 0.01222012
H 5.91852756 8.60069192 0.43301959 0.00612576 -0.01640297 0.01536488
H 4.02372111 3.14901740 5.07227595 0.01407027 0.03453630 -0.00312385
H -0.25777733 1.69724405 10.98055362 0.00090338 0.03005716 0.00644324
H 1.32988171 6.25571794 6.54707165 -0.00898197 -0.02034930 -0.01723083
H 4.21159538 6.90548980 10.58337123 0.00966883 -0.00926983 -0.03735420
H 3.83910318 1.85841710 7.05957772 0.00515144 0.01801401 -0.01158952
H 1.23288670 2.91404005 1.24131827 0.01985874 -0.01560047 0.02760996
H 1.31320032 8.21644261 5.03919118 -0.00099862 0.01182889 -0.01119523
H -2.08012722 5.54512877 35.46251745 0.00468603 0.02085116 0.00149198
H -0.04203123 0.43752095 5.91545484 -0.00632850 0.00974217 -0.01369279
H 2.72935425 4.11091240 12.03324636 -0.00737726 0.01274529 0.00369587
H 5.46180677 8.85608436 5.90041218 0.01200710 0.00481843 -0.01726979
H 2.76081363 7.10259424 1.86937665 0.01443695 -0.00162109 0.02238694
H 0.05312516 2.16837297 4.15715043 0.00618285 -0.00029264 0.00139029
H 2.60522078 2.78439126 9.88677121 0.01537169 0.00544831 -0.00787148
H 5.30453808 7.37118577 7.71649981 0.00057349 -0.00101841 0.01215265
H 5.07535388 5.13798913 9.53077580 0.02254641 0.00937557 0.04464874
H 2.93693601 0.34252218 8.35575212 0.01611722 -0.00179578 -0.02656314
H 0.14944744 4.97676578 2.18066614 -0.01188902 -0.00135297 -0.02564097
H 2.42095725 9.79746935 4.07792498 0.01629090 -0.01299668 -0.02667180
H 7.25997025 3.86037208 7.19076421 -0.00664587 0.00473136 -0.00672243
H 0.22366280 8.73184579 10.48840949 -0.01143837 0.00079368 0.00172225
H 19.44067810 6.94758395 3.50787570 0.01054566 0.00470892 -0.01656459
H 3.24950228 1.71063533 2.58125168 0.01274178 -0.00624620 -0.01222799
H 0.62243668 3.99416305 7.52769472 0.02438043 0.00249569 0.01986199
H 1.89283699 9.41389420 10.54036551 -0.01192749 -0.00334771 0.01663363
H 6.02585001 5.87305137 4.02151182 -0.02491436 -0.00984247 -0.00088015
H 4.98920956 1.79770149 2.08224792 0.02753633 0.01594464 0.00297695
H 19.44219977 4.30198050 7.62622626 0.01796787 0.00365154 0.00700458
H 1.50944623 7.89327977 9.67410218 0.00370775 0.00381343 0.00596439
H 4.62911957 6.76650443 3.35569018 -0.00278488 -0.02057997 0.01957932
H 3.78261886 0.55782702 1.34899580 0.01881611 0.01024295 0.01669130
H -1.55145822 8.88237043 14.81556469 -0.01923555 0.01800266 0.01297924
H 1.38888287 3.91758248 15.01488001 0.02515748 -0.03236980 -0.00309671
H 3.46668957 0.39779698 20.92950434 0.01537321 -0.01265922 -0.00712822
H 0.95319792 5.59827613 20.45865659 -0.01688442 0.00445969 0.00773208
H 3.98729178 7.92748481 12.66327225 -0.02683698 -0.00295866 -0.00448116
H 2.31688090 3.36968650 17.15286061 -0.01203855 -0.00980170 0.01399765
H -2.05383068 1.55897890 22.54095730 0.00023560 -0.00408699 0.00717180
H -0.25927060 6.75228060 18.53059142 0.00498587 -0.00797269 -0.00545821
H 2.33617483 6.43417442 22.34582551 -0.01206571 0.00606212 -0.00686528
H 2.38670707 1.68276521 18.76704562 0.00617535 -0.01588591 -0.00944084
H -0.24890849 3.06815733 13.07971251 -0.02592264 -0.00456480 -0.00791288
H -0.26055039 8.31998050 16.83632266 0.00614436 -0.00903076 -0.01911493
H 1.09142926 5.38206272 11.83971249 -0.00206243 0.00717662 0.00589562
H -1.82103668 0.75264943 17.85098171 -0.01174712 0.00969415 0.00861902
H 0.89275430 4.14978523 23.61325618 0.03310131 -0.00849102 0.00554175
H 3.81264123 9.32719477 17.72700159 0.00329186 -0.00161882 -0.00415516
H 1.30383826 7.04745484 13.65928824 0.00409746 -0.00752726 -0.02012715
H -1.48620905 2.09951793 15.74817837 -0.03893764 0.01533466 0.00235609
H 0.80818005 2.46831753 21.78443623 -0.01243765 0.01291910 0.01282458
H 3.70558788 7.63815176 19.64020581 0.01382913 -0.01250575 -0.03107778
H 3.29664211 4.64108038 21.37648532 0.01139928 -0.00044517 -0.01418879
H 1.09853901 28.99619014 19.95547547 -0.02248964 0.00125998 0.00639435
H -1.21646186 4.74772002 14.18469656 0.02150004 -0.02823305 -0.00283039
H 1.10878698 9.85388397 15.54301275 -0.04381013 0.01064591 -0.02072528
H 5.93653360 3.60372092 19.29336430 -0.00958208 -0.01109498 0.00255051
H -0.91958152 8.58883346 22.23871485 -0.02310541 0.00157308 0.01055925
H 16.74942910 6.60887826 15.92646946 -0.00726548 -0.00528456 0.01809646
H 2.29718253 2.15096714 14.50158780 0.00143514 0.00769994 -0.02544280
H 17.70766115 4.09279408 19.48567075 0.00503445 -0.02953410 -0.00218885
H 0.66473479 8.31646384 21.55109724 0.01474160 -0.00409359 -0.00907036
H 5.13153954 5.85648888 15.53414642 0.01400320 -0.00881317 0.02592867
H 3.15859330 1.14373664 13.39971780 0.02355316 0.00477974 -0.00990582
H -1.53382266 2.87207088 19.85165122 -0.00970572 -0.00223634 -0.00384211
H -0.82504465 7.53555013 20.89094371 -0.00052364 0.01588896 -0.01355781
H 3.35740807 6.25096090 15.53327863 -0.00512620 -0.01373176 0.01067301
H 1.36057628 0.85567167 13.54016504 0.00575612 0.03576845 -0.01691637
H 17.05110846 8.67062131 26.59463763 -0.01693201 0.00600076 0.02221213
H -0.32811713 4.07990505 26.55305289 0.00045157 -0.01741911 0.01294731
H 2.30022658 0.72127057 32.76872754 0.00702555 -0.01003385 -0.01335687
H -0.68591295 5.43568342 32.31146200 -0.02642100 -0.00715244 0.02637087
H 2.18520378 7.91412479 24.26517175 -0.00656334 0.00841717 0.01507771
H 0.73424831 3.43343101 28.84040880 0.01814172 0.03568112 -0.00454769
H -3.61870812 1.62039529 34.68825115 0.01245887 -0.00897896 -0.02271645
H -1.53303950 5.81293885 30.11349162 0.02096305 -0.01439839 0.01330137
H 1.05709384 7.03558225 34.16361637 -0.00273643 0.00276769 0.00966020
H 0.77477827 1.89929143 30.57601157 0.01428199 -0.01184662 0.01872357
H -2.04186770 3.07985952 24.49651292 -0.00544669 -0.00367011 0.01870465
H -1.81875458 7.56007584 28.50426204 -0.01684724 0.00972964 0.02263568
H -0.42926704 5.60897411 23.43976121 -0.01264743 0.00350421 0.00658614
H -3.21957044 0.57288437 29.44021653 -0.02113650 0.00399487 0.01546782
H -0.69140974 4.32108134 35.45368485 -0.00828563 -0.00167929 -0.01554993
H 2.14656110 9.06512409 29.47281021 -0.00431570 -0.00149467 0.00481257
H -0.76495972 6.74057339 25.56041885 0.00189652 0.01832649 -0.02778409
H -3.10979614 2.14237211 27.57771291 -0.00319198 -0.02277742 -0.00852849
H -0.57676372 2.62158851 33.53767796 0.00093680 0.01272973 0.02189560
H 2.13300383 7.38325004 31.42355644 -0.02620327 0.01125836 0.00652003
H 1.83008209 4.84531526 33.34182199 0.01581808 -0.00427206 0.00329468
H -0.37300183 0.16959735 31.61305054 -0.02163091 -0.00606297 0.00819049
H -3.11722026 4.81963643 25.59629930 0.00702830 -0.00008273 -0.00634219
H -0.86048320 9.37253949 27.43075434 -0.01736220 -0.00092926 -0.02798398
H 3.98315572 3.98969587 30.94370587 -0.00230431 0.00286785 0.01570715
H -2.67483608 8.63456264 34.39252560 0.01365544 -0.01349296 0.00633668
H 16.66837034 6.33064133 27.14872498 0.01789248 -0.00602088 0.00690918
H 0.72076865 1.93204728 25.86304156 0.01745026 -0.00362022 0.00308462
H -3.36045574 4.34598133 31.10834157 -0.03627124 -0.01507412 0.02322759
H -1.02639155 8.88369714 33.87650985 -0.00567749 0.01125627 -0.00239429
H 2.41956155 7.01747351 27.03737750 -0.00314962 0.01905558 -0.01139370
H 1.52842028 0.71124447 24.88080209 0.01050404 0.01054550 0.01111621
H 16.22856794 3.45486785 32.31593803 0.00984603 -0.02375251 0.01688699
H -1.82665995 7.43596699 33.16762907 -0.02128140 -0.00528001 0.00853495
H 1.35815614 5.92873928 27.79817161 0.03280244 -0.00468805 -0.00726777
H -0.18265431 0.37280016 25.17611798 -0.02067056 -0.01768743 -0.00021316
H -0.13436093 18.72135061 2.53480682 -0.00900959 0.02247093 -0.00289607
H 3.06158971 13.84512415 3.52020952 -0.00818600 -0.00123319 0.00422245
H 5.46969548 10.45789459 9.34643111 -0.02298818 0.00489360 -0.00006254
H 2.52578247 15.40491618 8.59063689 0.00126853 -0.01476397 0.00965786
H 5.73853045 17.95317251 0.95964626 0.00434651 -0.01024961 -0.00299129
H 4.15302639 12.92999747 5.47229381 -0.01347018 -0.01132130 0.00096966
H -0.27082473 11.80422639 10.82748776 -0.00095639 -0.01626662 -0.01367655
H 1.32795197 16.11710593 6.69757951 -0.02512551 -0.00061934 0.03123304
H 4.09136768 16.46134610 10.43469540 0.00448804 0.01714589 0.02353299
H 3.99643741 11.35867389 7.46506073 0.00068081 -0.01636847 -0.00040387
H 1.17343451 12.28742307 1.22573239 -0.00427332 0.02677708 -0.02276279
H 1.32386065 17.52133721 4.52381197 -0.03319395 -0.01731455 -0.00525982
H -1.72709084 15.26179823 35.46803219 0.00906708 -0.01926840 0.00866910
H 0.01118883 10.37354265 6.28205140 -0.03501532 0.01085623 -0.00300177
H 2.53452471 14.10725170 12.10645473 0.02203761 0.01373588 -0.00531585
H 5.21207561 18.71870374 5.44885682 -0.00307330 -0.00307711 0.01794675
H 2.77409981 16.84405097 1.55884094 0.00668463 -0.01978823 -0.00154696
H -0.02494567 12.19549823 4.65103475 0.02026574 0.01085677 0.01302815
H 2.52502730 12.56974005 10.14741397 0.00131076 -0.02219853 -0.00405927
H 5.26707555 17.20354668 7.43441582 -0.00366596 0.01155319 -0.01950867
H 5.07327888 14.30997150 9.67534040 -0.00342648 -0.00934300 -0.00591709
H 2.86709938 9.47750579 8.25330303 -0.00611229 0.00132157 0.03186760
H 0.32526289 14.61800903 1.89526896 0.02648941 0.00583504 -0.00806281
H 2.46485039 19.29788714 3.28235422 -0.03473894 0.00002228 0.01518791
H 7.12626588 12.18051728 8.70703116 0.00379151 0.01430666 0.01196620
H 2.71621073 18.19539629 9.53211200 0.01753114 0.00121022 0.00479619
H -0.39863188 15.35178185 4.10339809 -0.00656957 0.01535314 0.01248995
H 2.99409615 10.86308908 2.24755135 -0.00680317 -0.02154808 0.00258688
H 19.45656529 13.10600948 8.38037715 0.00121464 -0.02937538 -0.01137689
H 1.07351128 17.41958702 9.30891345 -0.00675102 -0.01123957 -0.00857246
H 5.98310574 16.53549386 3.78395031 0.02239486 0.01332658 0.00060744
H 4.18676065 11.97651450 2.87130623 -0.02816106 0.01109861 -0.02341804
H 0.58418946 13.14532482 7.86024451 0.02056804 -0.00158573 -0.00067114
H 1.23199483 18.60722757 10.57647365 0.00581471 0.00632972 0.00991141
H 4.36013198 15.91449769 4.25912361 0.01994453 0.00973304 0.02204306
H 4.77213495 10.86188283 1.57975633 -0.01785389 0.01326018 -0.00723519
H -1.73984644 18.92672371 14.67636446 0.00676492 -0.00658226 -0.00545656
H 1.26043005 14.05153378 14.96054274 0.00763397 0.03079595 0.03278131
H 3.94027250 10.47786193 21.10445304 -0.00710704 0.02912633 0.01514339
H 0.60124194 15.62381000 20.55774844 -0.01075899 -0.02333207 -0.01350348
H 4.15889087 18.12180039 12.33965973 0.02332179 0.01620253 -0.02221235
H 2.31522363 13.47790978 17.48578971 0.00987125 0.01977157 -0.01178927
H -1.82379630 11.25695087 22.95835263 -0.01738028 -0.01971294 0.01807127
H -0.20241151 16.09825656 18.49940875 0.02335468 -0.02367423 0.02498217
H 2.48498174 16.42704708 22.59157529 -0.00523617 -0.01201413 0.00673449
H 2.50232102 11.55822418 18.86579982 0.00864692 -0.01554588 0.01891939
H -0.38010553 13.35521925 12.90911227 -0.00289247 0.01977261 -0.01702305
H -0.16849272 17.70279981 16.62998247 -0.00924130 0.01210247 -0.01288771
H 1.24754213 15.52049034 11.72509999 -0.00333150 0.00938243 0.00759243
H -1.63748822 10.51795795 17.98874095 -0.01987359 0.00593252 -0.00814924
H 0.97302464 13.98018153 23.83988423 -0.01204864 0.01600902 -0.02157851
H 3.98341079 18.60944599 17.53279892 -0.03625380 -0.01793507 -0.00728069
H 1.25766240 17.17160477 13.51840329 0.01536796 -0.02535104 0.00381263
H -1.48297378 11.98482669 16.17408829 0.01476254 -0.00126972 -0.01649324
H 0.90838374 12.29694638 22.08246796 0.01218700 -0.00258902 0.01051698
H 3.78632505 17.05745601 19.34728904 0.02905417 -0.00027457 0.00126562
H 3.50085349 14.56354570 21.51925512 -0.00995638 0.00680828 -0.02602747
H 1.31186655 9.98873871 20.23946235 -0.00385222 0.00641773 -0.01184790
H -1.60577966 14.83325916 14.14996614 -0.01171488 -0.00575520 -0.02634031
H 0.91395490 19.61913985 15.82080010 0.01525586 -0.00315416 0.02426430
H 5.49595598 12.23204513 20.68100323 0.00615169 0.01407290 -0.03052202
H -0.17478569 19.42353016 22.89272167 0.00292090 0.00400207 0.01518472
H 16.73094485 15.44441965 16.45659330 -0.01142754 0.00845135 0.01067578
H 1.73625137 10.76146289 13.70053810 -0.01854355 -0.02093504 -0.01879802
H -0.90948854 13.58750608 19.22212761 0.00196562 0.00907389 0.00631911
H 1.07614803 18.48302680 21.94873924 0.00613795 0.00594177 -0.00690535
H 3.10100773 15.69667442 16.26308309 0.00476424 -0.01160630 0.00759040
H 2.73168184 12.04449194 14.43458404 -0.00225773 0.01598165 0.02133701
H 18.02231325 13.98283525 19.16702315 0.00058293 0.00389561 0.00709557
H -0.64134197 17.86755433 22.25651184 -0.00694013 0.02210369 0.00765645
H 4.83982364 15.84913578 15.61683052 -0.01562377 -0.01266553 -0.00120392
H 3.50992998 10.74839164 13.36133583 -0.00039742 0.00359636 0.01322904
H -3.33975949 18.62206025 26.49063804 0.01726681 -0.02703392 -0.00556257
H -0.01185039 13.45485584 26.92124768 0.01611100 -0.00261094 0.00462323
H 2.15996092 10.55105055 32.83818835 -0.02791056 -0.01908937 -0.00636465
H -0.41061806 15.25998350 32.39315502 -0.00594489 -0.00775998 -0.00376412
H 2.45952785 18.17511343 24.45724552 0.00227929 -0.01795248 0.02077730
H 0.97683624 12.68467565 29.04387840 -0.01138100 -0.00385593 -0.00004966
H -3.40466302 10.96635010 34.72854461 0.00507211 0.01407246 0.00432929
H -1.42491928 15.81860005 30.45491932 0.00010849 -0.01618999 0.01400131
H 1.09032798 16.48422370 34.48279557 -0.01478666 0.00388600 0.00550038
H 0.85160897 11.16159435 30.95574189 -0.00557857 0.02169278 -0.01377331
H -1.95996567 12.64970518 25.09560004 0.00443037 -0.00851062 -0.01846525
H -1.71746060 17.57447997 28.52450326 -0.00837081 -0.00601360 -0.01544900
H -0.57598669 15.09334612 23.71997303 -0.01527608 -0.01575250 -0.02214473
H -3.30256834 10.23512164 29.70655486 -0.01712879 -0.00073802 0.01915085
H 4.08786835 13.87379229 0.41670372 -0.00301585 -0.01453032 -0.00931319
H 2.35158319 18.72107332 29.28111626 -0.00415755 -0.01451793 0.00522151
H -0.50923934 16.69326343 25.57780342 -0.00532349 0.02421539 -0.00889080
H -3.01689728 11.80819308 27.97599328 -0.01676520 -0.00589278 -0.01906591