2160
Time=95999.99999999 pbc="T T T" Lattice="20.52361014 0.00000000 0.00000000 0.00000000 28.99906382 0.00000000 -4.72712245 0.00000000 35.53086660" energy=-13803.69557595 virial="-34.74284003 4.29317111 70.37636073 4.29317111 -20.29413861 24.68489221 70.37636073 24.68489221 -5.37262296" stress="0.00066152 0.00022061 0.00336897 0.00022061 0.00123263 0.00123301 0.00336897 0.00123301 0.00201846" Properties=species:S:1:pos:R:3:vel:R:3
O 0.83234663 8.58794873 2.47673779 0.00260014 0.00941300 0.00300016
O 2.10418836 3.61571273 3.74951234 0.00162515 -0.00332448 -0.00089900
O 4.60184462 1.26509927 9.30556814 0.00108245 0.00380148 0.00522863
O 3.47981810 5.89364931 8.33228917 -0.00496828 -0.00732378 -0.00224664
O 1.04299549 5.26295017 9.07451919 0.00032377 -0.00004159 -0.00196342
O -0.06184591 9.89284442 8.06858400 -0.00112324 0.00113567 -0.00397067
O 4.17195927 4.77583661 2.73965679 0.01010861 0.00242104 -0.00225625
O 5.60516707 28.86564936 3.62389668 0.00525112 -0.00174821 0.00527751
O -1.02525705 8.82571268 14.00509678 -0.00032430 0.00163429 0.00698329
O 0.11775099 3.84747382 15.28004525 0.00047189 0.00329582 0.00709136
O 2.82908269 1.13418583 21.18816342 0.00416534 -0.00366545 -0.00680561
O 1.71975445 5.91550292 20.18071229 -0.00831704 0.00472856 -0.00226596
O -0.32477609 4.78090182 21.39122579 -0.00039391 0.00037749 -0.00366807
O -1.87925495 10.14691244 20.06280407 -0.00225156 -0.00256592 0.00671151
O 2.27985748 4.70580304 14.09799573 -0.00174564 0.00056419 0.00633726
O 3.94584303 0.04395445 15.61726317 0.00583607 0.00336420 -0.00427268
O -2.37147761 8.35684863 26.16245958 -0.01021414 0.00175830 -0.00104313
O -1.13379054 3.78786745 27.22025946 0.00414956 -0.00112085 0.00628562
O 1.23163158 0.79262737 33.41675607 -0.00112937 -0.00076240 0.00682096
O 0.27350467 5.78926130 32.03925682 0.00060991 0.00125563 0.00336817
O -1.81769586 4.83308166 33.41627978 0.01022214 0.00482645 0.00245472
O -3.49784754 9.55798377 31.88408382 -0.00449680 -0.00038189 -0.00019906
O 0.66586214 4.98445798 25.80497450 -0.00070823 -0.00039904 0.00413323
O 2.32280245 28.92849668 27.29201449 -0.00630000 -0.00110350 -0.00101132
O 0.78912395 18.05005992 2.31010076 0.00146750 -0.00359330 0.00062299
O 2.18473359 13.26539085 3.48031338 0.00230045 0.00464249 -0.00109719
O 4.69489791 10.66576787 9.70063052 -0.00682617 0.00135922 0.00953817
O 3.68185495 15.32623514 8.45639206 -0.00404971 -0.00074442 -0.00272827
O 1.37315585 14.43307252 9.57827609 -0.00305228 0.00184685 0.00115634
O -0.29473230 19.70949795 8.41876503 0.00087882 -0.00025718 -0.00129113
O 3.86804426 14.68099854 2.13901922 -0.00067811 0.00082914 -0.00336184
O 5.63328539 9.85404216 3.79784356 -0.00291238 0.00037405 0.00213351
O -0.94684872 18.33901628 13.94307691 0.00187675 -0.00180195 0.00333002
O 0.51905323 13.32784324 15.27300092 0.00603292 0.00243663 -0.00396601
O 2.94717358 10.52063285 21.18769732 -0.00059753 0.00315475 0.00591191
O 1.61694878 15.82281442 20.12491121 -0.00499747 -0.00381332 -0.00226764
O -0.17423170 14.69034577 21.41242617 -0.00034815 -0.00033473 0.00180418
O -1.97224632 19.46370222 20.15841469 -0.00084569 -0.00095722 -0.00079464
O 2.41700027 14.46305489 14.12378536 0.00680061 0.00682845 0.00051997
O 3.93074460 9.79709773 15.29101969 -0.00381495 0.00006928 -0.00571893
O -2.27386658 18.53624739 25.94986234 0.00485622 0.00586982 0.00343988
O -1.16157605 13.65077006 27.40788520 0.00422368 0.00331769 0.00115133
O 1.41276019 10.67856314 33.09901749 0.00515489 -0.00061398 0.00255632
O 0.29674574 15.33608636 32.07672494 0.00171570 0.00013859 0.00191472
O -1.89232951 14.28866536 32.89750703 -0.00352378 0.00101872 -0.00554448
O -3.34607331 19.64718581 31.83555783 0.00645821 -0.00015699 0.00674960
O 0.93404340 14.25946099 25.86853746 -0.00998097 0.00207730 -0.00008816
O 2.45293260 9.49341075 27.46588837 -0.00750598 0.00500339 -0.00321188
O 0.81367237 27.70679412 2.57299373 0.00057838 -0.00748355 -0.00247502
O 1.82821123 22.90423274 3.34419077 0.00028976 0.00032595 0.00108174
O 4.48198600 20.64615802 9.08334483 0.00869621 -0.00778851 0.00534593
O 3.41729469 24.98135468 8.21831870 0.00581332 -0.00327940 0.00483298
O 1.26115198 24.33131121 9.55480063 0.00441188 -0.00291464 -0.00079825
O -0.20250266 0.01510191 8.44221031 0.00159563 0.00329376 -0.00055741
O 3.69127772 24.25150587 2.20902567 0.00261317 0.00132855 -0.00526830
O 5.05585440 18.98735221 3.28102677 0.00487233 -0.00587267 0.00463044
O -0.83331969 28.15878948 14.18675384 0.00015251 -0.00129473 0.00029082
O 0.31683049 22.98672726 15.51210106 -0.00113533 -0.00243023 -0.00269058
O 2.85463105 19.98501901 21.44831929 -0.00422743 -0.00222622 -0.00503406
O 1.89790492 25.56444636 20.29148017 0.00141664 0.00175269 -0.00270883
O -0.38584043 24.45841922 21.00076092 0.00351938 -0.00292558 -0.00274267
O -1.90968397 0.12831839 19.82608680 -0.00308294 -0.00201986 -0.00193911
O 2.34057310 23.92156927 14.10146823 0.00312069 -0.00042511 -0.00062486
O 3.96897012 19.56606333 15.46623019 0.00124478 -0.00050762 -0.00261868
O -2.26759095 27.80237658 26.07261803 -0.00331875 -0.00758570 -0.00400229
O -1.16389650 23.18060341 27.04133100 -0.00400806 0.00017416 0.00021047
O 1.37635787 20.44946914 32.98535047 0.00530105 0.00077508 -0.00539277
O 0.13394994 25.12326880 32.11438952 -0.00391457 0.00095760 0.00133866
O -1.94206508 24.26075471 33.27671166 -0.00292741 0.00500529 -0.00401953
O -3.57289854 28.87137429 31.77583283 -0.00046045 0.00373195 0.00522903
O 0.86723779 24.13017153 25.78826172 0.00620724 -0.00521394 -0.00301711
O 2.28802191 19.12977494 27.26445502 0.00474268 -0.00479029 0.00000214
O 7.51802070 8.41208787 2.63885778 0.00330007 0.00016870 -0.00702714
O 8.83077652 3.59372795 3.44123056 0.00158261 0.00787829 0.00394041
O 11.12784345 1.33707474 9.37492678 0.00264849 0.00230014 0.00577759
O 10.31672988 5.99478779 8.43568580 0.00625391 -0.00064156 -0.00744270
O 8.15110121 5.21848689 9.47223334 0.00222010 -0.00319898 -0.00619528
O 6.72146595 9.87248582 8.28955822 0.00225649 0.00111935 0.00206314
O 10.95306516 4.76817488 2.49826144 -0.00006233 0.00101946 -0.00305695
O 12.17554791 28.75838535 3.48500382 0.00075877 -0.00233362 0.00438878
O 6.08422888 8.56443356 14.34437166 0.00033848 -0.00242981 0.00342465
O 7.07753659 4.12147710 15.49490669 -0.00414033 -0.00412769 0.00225465
O 9.68816037 1.18443260 21.15134318 -0.00426544 -0.00442802 -0.00405964
O 8.52323735 5.94475592 20.45548970 -0.00247635 -0.00233382 0.00480409
O 6.50296968 4.83090766 21.44842734 0.00251345 0.00051258 0.00047791
O 5.13415845 9.23897170 20.13072807 0.00103791 0.00349462 -0.00751607
O 9.11080979 4.94870469 14.15405199 -0.00177854 0.00476207 -0.00353402
O 10.65155397 0.11759329 15.26418372 0.00297532 0.00105826 -0.00536239
O 4.36192325 8.44065778 26.16916618 0.00550176 -0.00118469 -0.00148062
O 5.34920721 4.06876846 27.44095858 -0.00013717 -0.00430991 0.00184003
O 8.40052991 1.18698124 33.04776481 -0.00624177 0.00138518 0.00173739
O 6.92974685 5.97101820 31.95585796 -0.00543268 -0.00593188 0.00008367
O 4.94867311 4.83999332 33.16517473 0.00109365 -0.00552627 0.00071218
O 3.65352446 9.89027001 32.06157865 -0.00234700 0.00277354 -0.00197608
O 7.49181621 4.75093425 25.93452390 -0.00079907 0.00198929 0.00293607
O 9.36083521 28.69893194 27.23991548 -0.00364662 0.00359461 -0.00113606
O 7.45757639 18.42015743 2.35502887 -0.00479377 -0.00225220 0.00278574
O 8.79780577 13.22805615 3.18243426 0.00203830 0.00270033 0.00452822
O 11.38414694 10.70183308 9.68649439 -0.00322174 -0.00532182 -0.00637150
O 10.23305044 15.54905222 7.94021525 -0.00168719 -0.00415832 -0.00479603
O 8.25597372 14.79694340 9.48689693 0.00867029 -0.00183190 -0.00069543
O 6.50260376 19.53474400 8.01001722 -0.00032807 0.00122090 -0.00095848
O 10.62113079 14.68849575 2.11393720 -0.00123038 0.00292878 0.00655301
O 12.18809247 9.39931508 3.34692581 -0.00006677 -0.00770131 -0.00356987
O 5.84582377 18.43262399 14.13459107 -0.00140957 -0.00022531 -0.00238164
O 7.14099041 13.42055172 15.56780587 0.00212036 -0.00306073 0.00015834
O 9.72738516 10.88031812 21.26306559 0.00423926 0.00672222 0.00349352
O 8.77170595 15.80707817 20.15625258 -0.00057329 -0.00475635 0.00650294
O 6.54363381 14.78714759 21.15154021 -0.00180885 0.00465382 0.00200973
O 4.88059667 19.45576749 19.86086422 -0.00004343 -0.00093306 0.00259868
O 9.42575816 14.06778913 14.47016093 0.00354104 -0.00140611 0.00960833
O 10.91896159 9.36790443 15.54298050 0.00744063 -0.00366785 0.00160970
O 4.44948882 18.18347418 26.13588923 0.00245424 -0.00403221 0.00006874
O 5.94278580 13.39318096 27.12011770 0.00721515 0.00237486 -0.00252872
O 8.15607267 10.87673992 32.96894656 -0.00530924 0.00136100 -0.00900442
O 7.21541164 15.60767588 32.12406574 -0.00311808 -0.00298118 -0.00365737
O 4.92608523 14.73938221 33.15848155 -0.00379782 -0.00255642 0.00232824
O 3.50924490 19.15413968 31.79151515 0.00030897 -0.00248744 -0.00053113
O 7.65653014 14.75012039 25.78686608 -0.00551559 -0.00724627 0.00719832
O 9.23532380 9.58309153 27.24860840 0.00286108 -0.00073673 0.00317450
O 7.59802532 27.74161053 2.36853931 -0.00137195 0.00647132 0.00511845
O 8.71152028 23.25226207 3.39604396 -0.00736941 -0.00570867 0.00008302
O 11.25299244 20.57901998 9.32951280 -0.00279018 -0.00075033 -0.00065844
O 10.33680657 25.32876789 8.38994116 0.00239479 0.00239585 0.00558994
O 8.33537484 24.39029668 9.55084923 0.00290272 -0.00338285 -0.00077453
O 6.49006473 0.03345589 8.04118448 -0.00078131 -0.00182828 -0.00366232
O 11.02933155 23.99054470 2.49391679 -0.00372634 0.00758783 -0.00276086
O 12.39187949 19.38063746 3.50005391 -0.00052247 -0.00248077 -0.00176651
O 5.64472784 27.72196207 14.36519699 -0.00231087 -0.00034867 -0.00244311
O 7.24662977 23.33011629 15.27460299 -0.00051637 -0.00185144 -0.00418573
O 9.80518582 20.41165362 21.13735315 0.00009219 0.00242119 0.00399409
O 8.46707429 25.11237091 19.75598197 0.00261208 -0.00221578 -0.00337411
O 6.62787152 24.38854146 21.36386493 -0.00105196 0.00406760 0.00616604
O 5.08988937 0.39214963 20.25444540 -0.00466990 0.00485416 0.00130225
O 9.35685505 24.39675211 13.96218606 0.00176275 0.00697463 0.00237218
O 10.70505300 19.41905963 15.43978257 -0.00378847 0.00272168 0.00108453
O 4.26682623 28.31100090 25.69462261 -0.00315370 -0.00162650 -0.00054664
O 5.51083016 23.01599145 27.17285886 0.00597008 0.00337565 -0.00289779
O 7.98373886 20.32741661 33.16240566 0.00111701 0.00234210 0.00340566
O 6.98361755 25.31441123 32.06940684 0.00040574 -0.00102704 -0.00202518
O 4.85470781 24.17763331 33.19544496 0.00462589 0.00280368 0.00680607
O 3.42307487 0.01844240 32.06785986 -0.00028567 0.00497213 0.00267721
O 7.89083233 23.78070689 26.08756284 0.00136852 -0.00216449 -0.00152895
O 9.09924353 18.90680009 26.87066122 -0.00332589 0.00532651 -0.00219623
O 14.52795092 8.44921841 2.33267496 0.00411033 -0.00450852 -0.00265527
O 15.67119685 3.68453270 3.69717755 -0.00315491 -0.00413570 0.00323585
O 18.20362946 0.92199663 9.78092246 0.00464501 -0.00219769 0.00167681
O 17.17420159 5.62765507 8.04789658 -0.00486908 0.00016597 0.00023778
O 14.89398501 5.06447527 9.55111891 -0.00481688 0.00024164 0.00641446
O 13.56091396 9.78051818 8.63366223 -0.00128430 -0.00269550 -0.00230481
O 17.58182255 4.78532824 2.37576537 -0.00006783 0.00382969 -0.00509003
O 19.33411984 28.84437937 3.72811395 -0.00591818 0.00069778 -0.00344423
O 13.07176082 8.78244288 14.23389421 0.00714899 0.00125738 -0.00055281
O 13.99576175 3.92921000 15.53327284 -0.00269933 0.00547904 -0.00140543
O 16.53994923 1.09063635 21.27932902 -0.00380226 -0.00186429 -0.00525963
O 15.27720463 6.12904322 20.51527102 -0.00122452 -0.00278749 0.00695823
O 13.34564691 4.62204372 21.40776985 0.00797140 0.00732548 0.00207149
O 11.68975392 9.76528804 20.09352399 0.00004488 -0.00164292 0.00073504
O 15.94070097 5.03647664 14.29945839 -0.00240835 -0.00207447 0.00041056
O 17.33968137 28.72158468 15.13767670 0.00141214 -0.00238306 0.00026445
O 11.39665640 8.75103306 25.99823247 0.00539555 0.00249998 -0.00397477
O 12.41406889 3.81422114 27.48002996 0.00511606 0.00192781 0.00153639
O 15.15156997 1.09711704 33.19223556 -0.00099484 -0.00017971 0.00231163
O 13.90042302 5.92923343 32.15800365 0.00003780 -0.00488427 -0.00517744
O 12.05369797 4.67068662 33.23983823 -0.00823657 -0.00158764 0.00578279
O 10.47466004 9.83373700 31.71627207 -0.00090243 -0.00227315 0.00367885
O 14.48932617 4.63801163 25.96636023 0.00165412 -0.00184366 -0.00251539
O 16.22050394 28.84388885 27.37690450 0.00278023 -0.00137622 -0.00250403
O 14.34247256 18.10375908 2.48572607 0.00294948 -0.00209014 0.00515784
O 15.55706744 13.31931242 3.73688850 0.00529297 -0.00364160 0.00485519
O 18.21048577 10.54424658 9.34334808 -0.00043567 -0.00043810 0.00355761
O 17.08731970 15.49690927 8.23644778 0.00389142 0.00183297 -0.00392878
O 14.98385442 14.55883607 9.42964368 0.00194467 0.00002034 -0.00337661
O 13.49866254 19.56023202 8.48745465 0.00767309 -0.00140036 0.00452882
O 17.59454144 14.03837027 2.35203173 -0.00675925 0.00146302 -0.00301819
O 19.23890537 9.33732168 3.69002784 0.00470485 0.00552559 0.00305517
O 12.81953055 18.37028526 14.21321553 -0.00157777 -0.00303448 0.00165368
O 14.43797806 13.26316791 15.26740495 0.00188493 -0.00648324 0.00553423
O 16.41565820 10.75449729 21.29046291 0.00166058 -0.00082975 -0.00316875
O 15.36878987 15.78185455 20.15933405 -0.00123370 0.00051678 -0.00603500
O 13.64372594 14.55478524 21.75004453 0.00306719 0.00693376 -0.00289495
O 11.99082815 19.59614728 19.85514347 0.00447824 -0.00584369 0.00078395
O 16.23249689 14.38238671 13.93788469 -0.00304884 0.00466760 0.00145340
O 17.63054056 9.49388102 15.59924898 -0.00413114 -0.00089252 0.00357593
O 11.50766339 18.34312716 26.36387897 0.00270603 -0.00535314 0.00388475
O 12.63048815 13.57802106 27.06813013 -0.00196900 -0.00515187 0.00084726
O 14.95300395 10.26612289 33.43291904 -0.00187226 0.00198035 0.00030241
O 13.84589638 15.33214843 32.00622303 0.00221292 -0.00312744 -0.00485884
O 12.04741773 14.15243627 33.60947483 0.00659823 0.00136268 0.00616473
O 10.10165670 19.01879234 32.11406610 -0.00644052 -0.00095717 -0.00016656
O 14.47967040 14.73425604 25.91745776 -0.00346162 0.00242145 0.00526105
O 16.12619345 9.69316602 27.59667121 -0.00802927 0.00028715 0.00007636
O 14.36050714 27.82990358 2.26816496 -0.00329691 -0.00237413 -0.00591402
O 15.45767228 23.09074425 3.50966980 0.00040791 -0.00276918 -0.00376290
O 17.96038679 20.40625080 9.65017141 0.00041952 -0.00335269 -0.00226217
O 16.85456153 25.28210042 8.32153272 -0.00631679 0.00340519 0.00043548
O 15.11097624 24.19985148 9.82952166 0.00175498 -0.00235282 0.00075529
O 13.31617804 0.30893091 8.44753761 -0.00106194 -0.00157970 0.00508525
O 17.49033703 24.15310806 2.31583219 -0.00186610 -0.00182030 0.00419245
O 19.15184172 18.86419804 3.39577129 -0.00614491 0.00171694 0.00267845
O 12.84236529 28.05528838 14.15077175 0.00096206 -0.00127938 -0.00112616
O 14.00518327 22.87413300 15.15117128 -0.00407580 0.00187980 0.00086059
O 16.40597376 20.62590777 21.14315295 -0.00279786 -0.00324384 -0.00301233
O 15.50636027 25.31717931 20.12020894 0.00024810 0.00150795 -0.00266445
O 13.49408903 24.34460878 21.40681190 0.00057978 -0.00042023 -0.00117094
O 11.65882645 28.96451250 19.93562506 0.00166058 0.00181035 0.00396959
O 15.88138213 24.33119769 14.33602064 -0.00096945 0.00128458 0.00486850
O 17.49864442 19.30601894 15.42390801 -0.00124963 0.00129791 0.00079632
O 11.58176818 27.86100751 26.09435102 0.00015621 -0.00256141 -0.00442915
O 12.53390970 22.79467995 27.30581404 0.00304644 0.00116457 -0.00076339
O 15.17330166 20.27477738 33.34843241 -0.00621730 0.00046385 0.00279230
O 13.86158492 25.14865618 32.07670761 0.00095916 -0.00559035 -0.00612596
O 11.93970626 24.03167322 33.31195398 0.00466323 -0.01203854 -0.00125443
O 10.26079597 28.73692684 32.01922100 -0.00341706 -0.00035377 0.00283398
O 14.54963312 24.07666429 25.99631093 -0.00073443 -0.00044603 0.00500666
O 16.26369868 19.27576289 27.61065497 0.00559898 -0.00258474 0.00196625
H 0.00965003 8.92954957 2.82852410 -0.00879018 0.01939834 -0.01909523
H 2.92132841 4.11847702 3.51192243 0.01880599 0.00896994 0.01995381
H 5.52232482 1.01346840 9.15610181 -0.02379866 0.00832647 -0.02635240
H 2.57539414 5.45021056 8.55396922 0.03098680 -0.00685108 -0.00719433
H 5.61056515 8.27676153 0.81451693 -0.00180137 -0.02332550 0.00867908
H 3.81045437 3.52312395 5.68036453 -0.00093452 0.00421614 0.02471661
H -0.42618260 1.40289937 11.43396986 0.00357450 0.01886238 0.01338541
H 1.51068647 6.18643707 6.58835328 -0.01189225 -0.01890429 0.01276875
H 4.14530819 6.94600396 10.58820138 0.00168624 -0.01074305 -0.01406455
H 3.83572054 1.46345027 7.32481673 -0.00991837 0.01371019 0.00225148
H 1.26005015 3.06269844 1.31157720 -0.00240848 -0.00576724 -0.00675562
H 1.63496332 7.35856150 4.54658937 -0.00004575 -0.00825514 -0.00258969
H 2.79261706 5.35211977 0.12949327 0.01466091 0.02414446 -0.02534168
H -0.13430558 0.51735260 6.26205222 0.01948599 -0.00514022 -0.00154706
H 2.48884974 4.40505287 11.90320918 -0.00339493 0.01125597 -0.00751818
H 5.38393540 9.07787871 5.65380749 0.00104897 0.00927069 -0.00858364
H 3.02021836 7.20991484 1.66337118 -0.01540092 -0.02154964 0.00750551
H -0.15471731 2.31265686 4.47687642 0.01428948 -0.03284148 0.00407036
H 2.61027714 3.03542936 9.84078587 0.00867252 -0.00824318 -0.01201626
H 5.46002435 7.48371259 7.58686515 -0.00141188 0.01216790 -0.00063269
H 5.07907085 5.24639886 9.47476122 -0.01619481 0.00659943 -0.01513654
H 2.88314653 28.72494522 8.21587549 -0.01224897 0.00960996 0.00579023
H 0.18690930 4.72904750 2.44333509 0.00544054 -0.01109769 0.01484875
H 2.47197322 9.21064033 3.46725489 0.01155482 0.00970887 -0.00319846
H 7.04349454 4.43806826 7.24088003 0.01208694 0.00276799 0.01029350
H 0.29298913 8.81162276 10.18889592 -0.00390174 0.01294952 0.02069471
H 19.71411524 6.70614513 3.73652434 -0.01573022 0.01215797 0.00698202
H 3.72384331 1.95377311 2.81866472 -0.03397775 0.00799020 -0.00416222
H -0.19664934 3.86818366 7.13919109 -0.00701590 -0.00714043 -0.00736866
H 1.95511767 9.27855421 10.41033840 -0.01533221 -0.00484538 0.01525773
H 5.38513240 6.99281828 3.73306405 0.01098245 0.01184761 -0.02940549
H 4.90510073 1.02132026 1.73785328 0.00394811 0.02839397 -0.00840574
H 19.30001416 3.24680776 8.42213955 -0.01030332 0.03787859 0.00102636
H 1.49831248 7.79967610 9.53557768 -0.02162483 0.01588926 -0.00065377
H 5.52979491 5.58083120 4.72101795 0.00235318 0.02833658 -0.00943510
H 3.10941080 0.54955161 1.81783339 -0.01266550 -0.00623751 -0.00935504
H -1.88969079 9.00215142 14.64264846 0.00956192 -0.02818685 -0.01841807
H 0.99792363 4.26971984 15.04626029 0.00360165 0.00031242 0.01751012
H 3.76455176 0.77310290 21.00422586 -0.01977753 -0.02991151 -0.01767618
H 0.89719985 5.53800296 20.50531771 0.00867486 0.00632950 -0.00312015
H 4.15679160 8.54592389 12.60671735 0.00507156 -0.00864396 -0.00542419
H 1.93744272 3.88833217 17.36295207 0.00801765 -0.01926371 -0.03399462
H -1.93291244 1.29017409 22.98336265 0.00858014 -0.00012439 -0.00959081
H -0.24004914 6.55750680 18.49521258 0.01572839 0.02545321 -0.01379751
H 2.30136689 6.61938215 22.52703026 -0.00513289 -0.00280682 -0.01565722
H 1.94385264 2.29231548 19.23676623 0.01685956 -0.00103368 0.01070774
H -0.38765523 3.26650953 13.24554875 0.01530950 -0.00842347 0.00824574
H -0.05913056 7.94422407 16.51105371 0.00430934 0.02254621 -0.00403782
H 1.18521858 5.59609492 11.73030976 0.01709534 0.01584903 -0.01345486
H -1.61963108 0.51622990 17.80494383 -0.01021225 0.01788537 0.00690062
H 0.74420726 4.00700422 23.92654983 -0.00113195 -0.02336514 -0.01735715
H 3.70974207 9.25517557 17.74756948 0.00516186 0.01345693 0.01068392
H 1.01598327 7.22240347 13.61843104 0.01203732 0.00190852 -0.00772323
H -1.64361367 2.04359737 15.93030352 0.00704663 -0.01418974 -0.01190621
H 0.90736732 2.65614003 21.79297308 0.00149537 -0.01034185 0.02393712
H 3.86989422 7.36223500 19.41386539 -0.01382343 0.00951912 -0.00405822
H 3.36454112 4.60896459 21.43152189 0.00155117 -0.01350260 0.00139459
H 1.18355827 0.38890533 20.11314730 0.00439068 0.02199811 0.00311846
H -1.45169206 5.13697422 14.19302776 -0.01206302 0.02058977 0.00329008
H 0.79902340 9.54947745 15.53553725 -0.02750750 -0.01981728 -0.01334783
H 5.89827913 3.79609546 19.29981771 -0.00373887 -0.01712001 0.02888303
H -1.62859732 8.54074669 21.90456800 -0.01186651 0.00415542 0.01400479
H 17.16704427 5.95663580 16.45122820 0.01809070 0.00918159 0.00656088
H 1.85139214 2.27417714 14.73128068 -0.02149793 0.01315505 0.00406331
H -1.51070530 2.68450510 20.27404620 -0.00535580 0.01474140 0.00409762
H -0.00505341 9.20517072 22.30864370 -0.01083166 0.00111886 -0.00259513
H 4.29433813 5.45061169 16.22540699 -0.01964444 0.02381366 -0.00726918
H 3.40734494 2.04565848 13.92788853 -0.02165075 -0.01406472 -0.01007892
H -1.29852746 3.93349258 19.12170524 0.02828328 -0.01478715 -0.00154143
H -0.30304026 7.77600568 21.24657542 0.01532156 -0.00371475 -0.00917406
H 4.45018442 6.75649815 15.18500031 0.02715665 -0.00400415 0.00575966
H 2.06938798 1.02921359 13.45440575 -0.00809141 0.04276522 0.04776447
H -3.25858905 8.75034663 26.32850281 0.02386213 -0.00528182 -0.01457191
H -0.31697269 4.32797205 27.07854702 -0.01211255 -0.02263090 -0.01702597
H 2.09678251 0.31132119 33.14417120 -0.01189979 0.02482505 0.00051474
H -0.49142496 5.41269333 32.44857596 0.00730804 -0.01217589 0.00253748
H 2.29308237 7.99807698 24.41858895 -0.00386234 0.04051740 0.01939096
H 0.60852521 3.68206370 29.31080854 0.01916508 0.01924875 0.01231132
H -3.32461240 1.56759382 34.85029865 0.02887775 -0.01183018 0.01631319
H -1.61728845 6.01686219 30.26765061 -0.00620915 -0.00250554 0.00552381
H 0.98723891 6.67485647 34.37363865 0.01660958 -0.01571909 -0.01816098
H 0.54280423 1.92580040 31.03626171 0.01176529 0.01423633 -0.01854044
H -1.85941441 2.66410693 24.93470496 -0.01534162 -0.02077354 -0.00051938
H -1.77047199 7.58475176 28.50819042 -0.00157570 0.00712439 -0.01690289
H -0.47817980 5.30914747 23.38147142 -0.00360171 0.01362748 -0.01990002
H -3.23718278 0.62783396 29.83830201 0.01352259 -0.01430398 0.01988077
H 4.06032533 4.05944265 0.42137056 -0.01398682 0.00138629 0.00553608
H 2.21133607 9.03011355 29.50414285 -0.01204388 0.01260292 0.00924424
H -0.43063075 6.93738745 25.29992831 0.02192226 0.01607921 -0.00068677
H -3.07822614 1.99715417 27.73028159 -0.00267225 0.00081683 -0.01559627
H -0.67941018 2.25627038 34.13289333 -0.00650625 0.01111822 -0.00130858
H 2.04161722 7.58031440 31.58462552 -0.02062217 0.01336842 -0.02037418
H 1.86048664 4.71601942 33.59940067 0.02100057 -0.01057726 -0.01040905
H -0.47506394 28.85151267 31.73030677 -0.00871631 0.00637373 -0.00878421
H -2.88034193 4.67458035 26.12706865 -0.01236750 0.00067353 0.00721787
H -0.65520059 9.67715485 27.43180644 0.00962585 0.02091001 0.00033238
H 3.81179213 4.19929693 30.83520958 -0.00867055 0.01356052 -0.00173076
H -0.93257476 8.30927382 33.30686750 -0.01875226 0.02534846 -0.01348921
H 15.91802333 5.42118938 28.32845609 0.01415255 0.01616469 0.01855711
H 1.05063563 2.18202705 26.21664051 0.02191011 -0.01045246 0.00090480
H -2.68398839 2.46506991 32.38241049 -0.00109495 0.00804809 -0.00551195
H -2.03107078 7.17134185 32.67360531 -0.00790987 -0.00187251 -0.00448622
H 2.04214587 7.09512440 26.93913572 0.01255918 0.00906091 -0.02157942
H 1.19417226 0.93426711 25.08416799 -0.01792309 -0.02101070 0.01652685
H -2.93863079 3.75397743 31.22913378 0.01284141 -0.02179400 -0.02142611
H -2.49020472 8.42257047 33.94161071 0.01202176 0.00659652 0.01821451
H 1.54915358 5.91319187 28.07308782 0.00623927 -0.00735933 0.02036947
H -0.41213090 1.07445314 26.06516374 -0.01954231 -0.01565685 0.00017851
H -0.13693505 18.36662531 2.56841187 -0.00583186 0.00707265 -0.00618286
H 3.03157308 13.75953312 3.26241915 -0.00714299 0.02260785 -0.00235231
H 5.51808984 10.26693933 9.21464126 0.00152286 0.00677427 0.00930403
H 2.84793165 15.00473975 8.82600553 0.00345635 0.01144941 -0.00318918
H 5.59980554 18.15217137 0.48117528 -0.00998593 -0.00526758 0.02268998
H 4.16400658 12.97989185 5.32800898 0.00643351 -0.00762370 0.02033482
H -0.25055553 11.02650528 10.78278115 0.00695463 -0.01236414 0.01400265
H 1.52433817 15.61684617 7.02187187 0.00915099 -0.00201050 0.01218416
H 4.17704996 16.53698926 10.53524278 0.00368570 -0.00723729 -0.00984256
H 4.14978884 11.18571419 7.14508908 -0.00925604 -0.00937886 0.02897363
H 1.27568664 12.61976785 1.03544813 0.01067839 0.01456031 -0.00888133
H 1.21796005 17.08247311 5.05590772 -0.01247194 0.00453001 -0.01110719
H -1.93067081 15.20378325 35.04734442 -0.01726968 0.00855484 0.02046639
H 0.29349600 9.90423545 5.98199650 -0.00192635 -0.00856381 0.00208188
H 2.68337969 14.10100175 11.87280461 -0.01438302 0.01108331 -0.00071522
H 5.16003002 18.74700798 5.66128453 0.00565228 -0.00747475 0.00679905
H 2.74612822 16.79185690 1.44713705 0.00648890 0.00162328 0.00843044
H 0.34539810 11.33730709 3.79925120 0.00135729 0.01700406 -0.00622211
H 2.83666307 12.48303008 10.09828959 -0.00809661 -0.00643220 0.00973969
H 5.62511091 16.87878578 7.44117141 0.01503167 0.00418147 0.00064433
H 5.15526929 14.57921434 9.64075337 -0.00783417 0.01373229 -0.00057319
H 3.14773066 9.53990821 8.19021935 -0.00918916 0.02459863 -0.01114766
H 0.14231439 14.51203496 2.15536758 -0.01748936 0.02409472 -0.03305684
H 2.01486344 19.00733192 3.89779647 -0.03297016 0.01960175 -0.01697719
H 7.39582648 13.90810118 7.26241177 0.03193407 0.03701396 0.00316476
H 2.10226016 17.85012280 9.64575977 -0.00303162 -0.00349110 0.00477992
H 19.37117481 16.20587720 3.73275392 -0.00419267 -0.01501064 0.02608301
H 3.67069256 10.51002473 1.34395644 -0.00389020 -0.01397196 0.00627815
H 1.08057702 12.74124650 7.92560952 -0.01218977 -0.01075641 0.00745945
H 0.30586366 17.73255049 9.98087105 -0.02247525 0.00809426 0.01101557
H 5.45554571 16.65239239 3.53516082 0.00414823 -0.00713385 -0.00389861
H 4.04818786 11.83542469 2.60884689 -0.00242731 0.01316375 0.00474318
H -0.31765032 13.63977644 7.18803318 0.00592492 -0.02160640 -0.01645998
H 1.29971212 19.06940757 10.52835309 0.00992559 -0.00559431 -0.01321532
H 4.56614819 15.41429455 4.39035555 0.00507700 0.00459633 -0.00088950
H 5.28603499 11.05812306 1.71031366 -0.01307805 0.00074546 -0.00487773
H -1.82134213 18.61228592 14.23030324 -0.00254442 0.00235564 -0.00778204
H 1.43813526 13.74995031 15.04879850 0.00210312 -0.00714728 -0.00600183
H 3.82233958 10.12288880 20.79003697 0.00384357 0.01265300 -0.00763655
H 0.85633282 15.23987444 20.43176613 0.00848588 -0.01351495 -0.01173161
H 4.17176586 18.23365453 12.15047571 -0.01783536 0.00577202 0.02867150
H 2.29628488 13.12512643 17.11862696 0.00637956 -0.02297168 -0.00969891
H -1.96466256 11.24579535 22.84066775 0.01803497 -0.00511313 0.00826701
H -0.23927387 16.12187326 18.32389980 -0.00083297 -0.00178132 0.00123455
H 2.51080408 16.17934503 22.52634140 0.02271629 -0.00149072 0.00166015
H 2.29597259 11.48391787 19.05553430 0.00556693 -0.01083372 -0.00557983
H -0.48537540 12.18176716 13.03152734 -0.01283699 0.00711029 0.02481071
H -0.13566000 17.72286845 16.39476906 -0.01789251 0.00574961 -0.01072871
H 1.23792857 15.20145319 11.55041687 -0.02097642 0.00078594 0.02382297
H -1.72985046 10.37012098 17.91588596 -0.03676086 -0.04382692 -0.02494063
H 1.08015763 13.82118134 23.77226773 -0.00843836 -0.02557715 -0.00346347
H 3.84383285 18.82487289 17.45870209 -0.00331785 -0.00967825 0.03210441
H 1.24567372 16.95933902 13.11369576 0.00461611 -0.00248857 0.00829987
H -1.35315204 11.65753644 15.72274035 -0.00854725 -0.01458685 -0.01346954
H 1.08154246 12.19758507 21.85428279 -0.00690044 -0.00644582 -0.02354495
H 3.75851794 17.12629605 19.36980588 0.00867165 -0.00702863 -0.00048378
H 3.40091035 14.42015634 21.62316718 -0.00876819 0.00091309 -0.00490013
H 1.17609331 9.70205085 20.03366457 0.00447076 -0.01014953 0.03682965
H -1.25782092 13.87934689 14.16253837 -0.03280258 -0.00967674 -0.00578865
H 0.81994808 19.61254970 15.53157164 -0.00424666 0.00611025 0.01539664
H 5.36265698 14.13826134 18.90322326 0.00145096 -0.01947577 0.00219742
H 0.47568762 17.64658359 21.40358742 0.00979291 0.00343381 -0.00382680
H -1.73975071 15.41725403 15.57435268 0.00356783 0.02196989 0.00647864
H 2.96224280 10.84810940 13.13227979 -0.00779446 0.01215943 0.00601680
H -2.40391267 13.88172380 19.43094839 -0.00817372 0.00851682 0.00002743
H -1.19708147 16.94342322 21.06123373 -0.00045544 0.01099575 0.03687663
H 3.15991081 14.85742814 16.61812097 0.00837711 -0.00204825 -0.01347262
H 1.28966327 10.79386514 13.89048683 -0.04072918 -0.01844424 0.00172717
H -1.71556150 12.49620754 20.34739697 -0.00844196 -0.01040630 -0.01019481
H -0.95714548 18.28782250 22.17141607 -0.02117906 -0.02448713 -0.01582965
H 4.68275392 15.66433060 16.11360600 0.01445995 0.00320974 -0.00538906
H 2.45779035 12.03039192 14.38558834 0.01448611 -0.03424517 -0.01946835
H -3.16599927 18.59621834 26.41698263 0.02296774 -0.00240317 -0.00018483
H -0.40261826 13.68646738 26.86473413 0.00096905 0.00481105 0.00628121
H 2.32713243 10.44399388 32.64505570 0.01248324 -0.00597661 0.01480041
H -0.55235030 14.89360546 32.24170908 0.00722306 0.00618554 0.01615912
H 2.49701922 17.93237527 24.49806533 -0.01335803 -0.00904121 0.00310115
H 0.84388024 12.92856468 28.97181158 -0.00377244 -0.02392283 0.01530448
H -3.43962019 11.13541212 34.64784465 0.01309969 -0.02517130 0.00409826
H -1.76754427 15.87030166 30.59284427 -0.01123264 -0.01146791 -0.00330132
H 0.97548151 16.44716491 34.37844252 0.01743946 0.01173107 0.00104467
H 0.75346803 11.07175252 30.61881701 -0.00604804 0.00881374 -0.03497502
H -1.89808011 12.70250765 24.70854059 0.01126935 -0.00526036 -0.01146384
H -1.78615384 17.45954684 28.65781548 -0.00995080 0.01384726 -0.01935727
H -0.57222330 14.95284957 23.63089184 0.01528405 0.01220912 0.00709848
H -3.32833901 10.34184180 29.55602076 -0.00205814 0.00425170 0.00842099
H 3.99121827 13.68273258 0.13838008 0.02077207 -0.00301854 0.00589507
H 2.27659772 18.37170782 29.47937271 0.00009183 -0.00043309 0.01226191
H -0.34687586 16.80954971 25.40580769 -0.00882582 -0.00360543 -0.01265730
H -3.14744093 11.95975167 27.70630769 -0.00845223 0.01177861 0.00934138
H -0.66354900 12.19277859 33.91117446 0.00597264 -0.00945821 -0.01892127