2160
Time=83000.00000008 pbc="T T T" Lattice="20.56025787 0.00000000 0.00000000 0.00000000 28.86509651 0.00000000 -4.73953101 0.00000000 35.71764641" energy=-13801.07631409 virial="-62.27516394 0.79375679 65.34555555 0.79375679 -61.80396228 20.42710100 65.34555555 20.42710100 -77.56631176" stress="-0.00058125 0.00011021 0.00308409 0.00011021 -0.00064355 0.00094388 0.00308409 0.00094388 -0.00136902" Properties=species:S:1:pos:R:3:vel:R:3
O 0.84036544 8.79922613 2.40659802 0.00194038 0.00012003 0.00285611
O 1.87471783 3.99493049 3.91262807 -0.00043183 -0.00199486 0.00495282
O 4.43605228 0.93061430 9.55993712 0.00074806 -0.00359565 -0.00761702
O 3.19284483 6.05645254 8.17494217 0.00342250 -0.00644824 -0.00113142
O 1.28732196 4.98523856 9.48826954 -0.00360380 -0.00096812 0.00423876
O -0.48811894 9.99718337 8.28778836 0.00243900 0.00082426 -0.00442316
O 3.75426669 4.31656091 2.14594601 -0.00684678 -0.00071536 0.00079257
O 5.56508617 28.75084328 3.45859857 0.00387770 0.00231200 -0.00309723
O -0.90975655 8.50609661 14.32659688 0.00222158 0.00181150 -0.00578051
O 0.41836890 3.31030912 15.19809193 0.00440843 0.00308181 -0.00120848
O 3.13090646 0.94983281 21.39574447 -0.00009701 0.00164778 -0.00264708
O 1.93407337 6.09348306 20.30343065 0.00406302 -0.00506700 -0.00450967
O 0.00567847 4.83057782 21.64854306 -0.00076587 -0.00365942 -0.00090837
O -1.95066432 9.30393073 20.20628951 0.00800606 0.00252721 -0.00388748
O 2.54771577 4.84973936 14.12502917 -0.00148239 -0.00630433 0.00212987
O 3.84807472 28.53840255 15.25496948 0.00538881 -0.00100922 -0.00340490
O -2.31674290 8.56131847 26.07934407 0.00133506 -0.00494812 0.00092784
O -1.09592085 3.66231205 27.29179850 0.00635044 0.00282579 0.00090541
O 1.47944621 0.99654486 33.11213071 0.00034323 0.00258566 -0.00146483
O -0.03601479 6.02848755 32.26150676 -0.00524796 -0.00425773 0.00345679
O -2.04391902 4.91223882 33.57526307 0.00911188 0.00144195 -0.00078397
O -3.61212013 9.67947024 31.95195656 -0.00601072 -0.00115029 0.00514927
O 0.91823482 4.74073263 25.88796358 -0.00016865 0.00301570 0.00772879
O 2.33547604 28.61899564 27.25783958 0.00294382 -0.00409463 0.00170628
O 0.72706998 18.45861614 2.31967554 -0.00461906 -0.00054334 0.00464414
O 1.95966008 13.38153486 3.34715369 -0.00607865 0.00300617 -0.00069193
O 4.39984918 10.90242667 9.44242675 0.00214630 0.00094890 -0.00045381
O 3.39503765 15.60995182 8.40284567 0.00524595 0.00137703 0.00154998
O 1.31040888 14.60078278 9.70866607 0.00242628 0.00189023 0.00683278
O -0.27303970 19.09815779 8.26208519 0.00348908 0.00226161 -0.00660370
O 3.84056989 14.59438088 2.12016071 -0.00226149 -0.00329531 0.00247999
O 5.44311087 9.47400263 3.64948253 -0.00472787 -0.00104323 0.00318812
O -0.86088693 18.12131381 14.64446511 -0.00217024 0.00233171 0.00076844
O 0.21336383 13.36020109 15.39790880 -0.00010993 -0.00284869 0.00423361
O 2.79432905 10.62161872 21.34135983 -0.00102160 -0.00012884 -0.00144049
O 1.91713929 15.50436099 20.29423695 -0.00570502 -0.00054345 -0.00091569
O -0.11269286 14.30640516 21.65549992 0.00225239 -0.00140614 0.00369520
O -1.96956398 19.13907179 19.91255075 0.00586606 -0.00192627 0.00352615
O 2.36207828 14.69945754 13.92899988 0.00010289 -0.00063535 0.00004413
O 3.79743126 9.27615117 15.26417461 -0.00231717 0.00172861 -0.00091559
O -2.30486436 17.86066634 26.42842902 -0.00458185 -0.00316157 0.00266867
O -1.27543857 13.59737032 27.55683825 0.00215603 0.00059005 0.00624148
O 1.34927764 11.09176070 33.07620165 0.00200178 -0.00513135 0.00123646
O 0.06232703 16.11514608 32.61242326 0.00254204 -0.00367450 -0.00287033
O -1.79945296 14.57747967 33.50551462 0.00231034 0.00459653 0.00175106
O -3.17708131 19.34315021 32.12803214 -0.00327728 -0.00372699 -0.00332494
O 0.90751709 14.00533399 26.32965124 -0.00248657 -0.00156104 -0.00120835
O 2.32334438 9.86180213 27.39735271 0.00273189 -0.00025896 -0.00022835
O 0.66379949 27.71453756 2.62137994 0.00215255 0.00096640 -0.00188694
O 1.87817586 23.03122432 3.65032759 -0.00140787 -0.00169467 0.00012943
O 4.58626891 20.25194201 9.46439557 0.00371659 0.00353691 0.00265861
O 3.25735672 25.14150550 8.56069901 -0.00245952 -0.00420163 -0.00147712
O 1.37189182 23.95039996 9.78017253 0.00142251 0.00101853 -0.00042371
O -0.25225979 28.71179552 8.14961015 0.00077396 0.00220658 -0.00399731
O 3.70174331 24.13095388 2.38580028 0.00150926 -0.00614056 0.00307976
O 5.55728752 19.18135562 3.70508469 0.00480670 -0.00398736 -0.00558456
O -1.06796283 27.80897153 14.45970234 -0.00121617 0.00457371 0.00548742
O 0.34895452 23.07427517 15.46138734 -0.00149733 0.00036146 -0.00372891
O 2.93957610 20.31431028 21.11012628 -0.00117415 0.00031858 0.00413259
O 1.86292035 25.27677552 20.51858082 0.00171175 0.00134210 0.00028510
O -0.60660956 24.46713860 21.23802373 -0.00206733 0.00515169 0.00026376
O -1.76577149 28.83869277 20.22287226 0.00420875 -0.00239021 -0.00491053
O 2.52312601 23.72080594 14.29029419 -0.00003046 -0.00424339 0.00391968
O 3.86371354 19.17310190 15.52776369 0.00069558 0.00033562 -0.00168702
O -2.46043186 27.60257664 26.35831232 0.00204381 -0.00151903 -0.00049208
O -1.18652644 22.89957170 27.16055554 -0.00150416 0.00383447 -0.00019191
O 1.46343448 20.29594324 33.51898254 0.00004568 0.00664220 -0.00175476
O 0.34283913 25.11064243 32.25510417 0.00495543 0.00242530 -0.00813372
O -1.94720936 24.37723099 33.39788188 -0.00019734 0.00197115 0.00362643
O -3.36207485 0.24724658 32.13472588 0.00117232 0.00003118 -0.00050504
O 0.92739092 23.61857995 26.00727543 0.00040116 -0.00226443 0.00200326
O 2.25764097 18.96678997 27.33746952 0.00299854 -0.00220151 -0.00468779
O 7.49019868 8.52481653 2.46434787 -0.00089484 0.00024565 0.00391426
O 8.60991652 4.04668599 3.73696367 -0.00222926 0.00847694 -0.00506960
O 11.41527529 1.24772447 9.40231922 0.00040806 -0.00029682 0.00128772
O 10.16554138 5.87093576 8.19487593 -0.00111237 0.00000997 -0.00241453
O 8.07192453 4.82139538 9.41841695 0.00551796 0.00347662 -0.00448819
O 6.54570221 9.69722303 8.31318532 0.00151014 -0.00130439 -0.00203155
O 10.59413367 4.92959558 2.52842341 -0.00477914 0.00235297 0.00056123
O 12.43625604 28.42678164 3.88183795 -0.00532256 0.00002799 -0.00035723
O 6.08164816 8.42967616 14.20858099 0.00705048 -0.00152342 -0.00008549
O 7.28814462 3.29180658 15.01435621 -0.00424046 -0.00127415 -0.00197815
O 9.75341980 1.16003868 21.66870268 0.00201733 -0.00038587 -0.00242293
O 8.84598004 5.63189883 20.19103714 0.00154506 0.00301348 -0.00506501
O 6.46148713 5.10624511 21.32866551 -0.00359338 0.00122019 -0.00789056
O 5.08603598 9.81060653 20.21122914 0.00748053 0.00199367 0.00287014
O 9.21664430 4.72810894 14.14057952 -0.00258194 0.00060240 0.00148102
O 10.85937379 0.15661397 15.96936884 0.00345939 -0.00402114 -0.00728943
O 4.31175699 8.42832742 26.33825289 0.00450592 0.00115111 0.00328930
O 5.82858892 3.83747054 27.31632529 0.00429041 -0.00076193 0.00105360
O 8.26172001 1.39167617 33.18499516 0.00241829 -0.00255566 0.00007197
O 6.91673635 5.88308142 32.06223301 0.00174670 0.00112176 -0.00225578
O 4.75439926 5.00932938 33.30511188 0.00046545 -0.00045570 -0.00087714
O 3.22611610 9.78696895 32.22516639 0.00066343 0.00010107 0.00192601
O 7.88269522 4.84476114 26.28761121 0.00135086 -0.00653378 -0.00095817
O 9.22805988 0.00566015 27.21025189 0.00308892 -0.00511162 0.00351919
O 7.82868852 18.05901194 2.83469696 0.00004443 -0.00452120 0.00747277
O 8.71265306 13.22886238 3.26893529 -0.00471304 -0.00047024 0.00077519
O 11.48258691 10.85891084 9.24869359 -0.00159785 -0.00470834 0.00768248
O 10.07045493 15.57638728 8.59107726 -0.00074632 -0.00225812 0.00173035
O 8.01000153 14.47943607 9.45893726 0.00313006 -0.00245239 0.00227982
O 6.65030312 19.24068197 8.41848223 0.00116455 0.00628764 -0.00157578
O 10.95573009 14.22794594 2.43691180 0.00304327 -0.00510027 0.00156312
O 12.29099143 9.76393328 3.66147490 -0.00279005 0.00401428 -0.00498474
O 5.95467450 18.09323135 14.31001463 -0.00063125 -0.00060975 -0.00424078
O 7.05127980 13.40738519 15.32015144 0.00118190 0.00041214 -0.00402370
O 9.92154989 10.48178982 21.42180120 -0.00537967 0.00186707 0.00051733
O 8.78348539 15.47237406 20.17952429 -0.00758725 0.00420608 0.00035977
O 6.63253162 14.35837438 21.32849014 0.00044085 -0.00167881 -0.00445444
O 4.95336391 19.22994965 20.26614166 -0.00989099 0.00144240 0.00166396
O 9.11916945 14.27677690 13.88174156 0.00182114 -0.00201561 -0.00483350
O 10.88712031 9.40658198 15.49573899 -0.00128925 -0.00181034 -0.00161357
O 4.55175347 18.22327253 26.14800131 -0.00225932 -0.00064458 0.00103178
O 5.51781649 13.22914396 27.30396040 -0.00032870 0.00400125 -0.00295085
O 8.19208958 10.82134706 33.19697250 -0.00160339 0.00136637 -0.00739948
O 7.02058720 15.32863390 32.15151437 0.00005755 0.00074356 0.00223358
O 4.90372402 14.48561886 33.50707851 0.00278925 0.00973686 0.00026360
O 3.49368621 19.56363827 32.13810539 -0.00102967 0.00344147 0.00373877
O 7.59948107 14.43614787 25.99858080 -0.00242134 -0.00132099 -0.00053035
O 9.14090661 9.75975344 27.32685754 0.00202199 0.00051748 -0.00112820
O 7.46955694 27.75895466 2.10176161 0.00005048 -0.01140117 -0.00237151
O 8.62028277 23.21112006 3.80409107 0.00668858 0.00135416 -0.00565754
O 11.53131201 20.45102051 9.57794101 -0.00517011 -0.01067881 0.00341877
O 10.21932648 25.01357378 8.58842763 -0.00134285 0.00095262 0.00111962
O 8.20084761 24.01439855 9.70857850 -0.00005533 -0.00562319 0.00267751
O 6.58024941 0.29398607 8.17388968 -0.00187655 -0.00268048 -0.00161761
O 11.03866104 24.09798005 2.55156615 0.00193191 -0.00333051 -0.00395871
O 12.55563228 19.15610977 3.91493042 -0.00625957 0.00232270 -0.00082933
O 6.03805640 27.73059583 14.29669389 0.00217694 -0.00004309 -0.00063937
O 7.17403205 22.94463989 15.37253232 0.00130295 -0.00339218 0.00170641
O 9.79240590 20.43428160 21.26906201 0.00147924 -0.00282971 0.00748022
O 8.38032794 25.33981220 20.55060699 0.00259822 0.00364517 -0.00343918
O 6.74676794 23.87649103 21.67532547 0.00189267 0.00325878 0.00102252
O 5.04007629 28.85813704 19.94246431 -0.00278034 -0.00078703 -0.00831600
O 9.40189471 23.90046158 14.33929949 -0.00268771 -0.00168480 -0.00584024
O 10.79971305 19.23771848 15.22739156 0.00634600 -0.00176845 0.00295755
O 4.45155018 27.67251866 26.18918175 -0.00286960 -0.00098880 -0.00028178
O 5.82345185 22.71498978 27.04911438 0.00298563 -0.00087135 -0.00049054
O 8.22765937 20.53406441 33.13827379 0.00104223 0.00263175 -0.00243337
O 7.30115464 25.34339414 32.06961252 0.00259753 0.00154488 -0.00587415
O 5.36218502 24.35989396 33.25312304 -0.00043584 -0.00497634 -0.00053621
O 3.56489140 0.05235158 31.83906004 0.00284445 -0.00183903 -0.00113641
O 7.89605558 23.93558801 26.31419272 0.00128349 -0.00017694 0.00480683
O 9.01069189 19.60158000 27.80600373 -0.00066234 0.00089219 -0.00481638
O 14.31808803 8.65657134 2.44094058 -0.00586031 -0.00295865 -0.00078740
O 15.59108423 3.79625130 3.55236272 0.00603025 0.00524744 0.00179177
O 18.34508581 0.81489045 9.46940228 0.00620249 -0.00231123 -0.00416476
O 16.87342315 5.98120270 8.37484212 -0.00537802 -0.00127019 0.00570930
O 14.88158559 4.91331349 9.69993741 -0.00673300 0.00051121 -0.00006786
O 13.33905865 9.68234777 8.11467960 0.00334975 -0.00122355 -0.00030366
O 17.69972220 4.99509241 2.43116229 0.00037449 -0.00559482 0.00120899
O 19.28871872 0.08550272 3.82058819 -0.00293409 0.00330306 -0.00281231
O 12.90829620 8.95980811 14.14971030 -0.00188024 -0.00480486 -0.00065924
O 13.96234134 3.98638497 15.76140392 0.00155132 0.00520770 0.00202144
O 16.70882834 0.97765906 21.61539206 0.00267646 0.00060046 0.00139276
O 15.50531454 5.51494800 19.83667952 0.00109718 -0.00238246 -0.00517505
O 13.67559217 5.07585863 21.59288288 0.00307685 -0.00313236 0.00577509
O 11.96216481 9.55558416 20.24259885 -0.00239573 -0.00373442 0.00131450
O 16.06892556 4.89593245 13.84237056 0.00451052 0.00718077 0.00438637
O 17.60533681 28.81979642 15.80489627 -0.00481567 0.00048660 0.00037401
O 11.23463134 8.61568997 26.34479244 -0.00146600 -0.00603257 0.00613314
O 12.54803974 3.76961184 27.56772858 -0.00070371 0.00573176 -0.00021739
O 15.45935940 0.96918283 33.69960284 -0.00136124 0.00441195 0.00373351
O 13.70545098 5.85870851 32.02137093 0.00062221 -0.00361653 0.00477397
O 11.69631128 4.79498164 33.38665818 0.00086933 0.00094155 0.00151534
O 10.19676627 9.65274794 31.98751838 -0.00139592 0.00061591 0.00422211
O 14.49123866 4.99156773 25.97764771 -0.00202737 0.00007657 0.00296831
O 16.20799299 28.77606315 27.57988979 -0.00197698 0.00210752 0.00086531
O 14.43796416 18.33340688 2.33393973 0.00214203 0.00235846 -0.00255187
O 15.52154002 13.48661475 3.65128440 -0.00116135 0.00091380 -0.00546612
O 18.15132400 10.83057522 9.67810968 -0.00025025 0.00622367 0.00015988
O 16.91206593 15.48994122 8.37351546 -0.00145613 -0.00101932 0.00133689
O 14.91673999 14.54828580 9.70071600 0.00356148 0.00358538 -0.00660690
O 13.52658851 19.07868253 8.39981420 0.01132607 0.00137051 -0.00541852
O 17.53024076 14.33577058 2.25705953 -0.00029366 -0.00583536 0.00310922
O 19.25745009 9.74115301 3.81942199 0.00313733 0.00072672 0.00534555
O 12.91170469 18.04662997 14.42984427 -0.00166857 -0.00205164 0.00199777
O 13.86270976 13.32239236 15.57258229 0.00615536 0.00071677 0.00039046
O 16.54826105 10.54201062 21.43092939 -0.00369626 -0.00230453 0.00126905
O 15.76682187 15.30069869 20.02042641 -0.00810542 0.00234727 -0.00035974
O 13.55500128 14.54431017 21.14691914 -0.00306597 -0.00244300 -0.00126504
O 12.06055346 19.29547854 20.66392599 0.00058658 0.00430590 -0.00297247
O 15.99075500 14.22490853 14.35421349 0.00413162 0.00479272 0.00179935
O 17.61917455 9.53168270 15.39874314 0.00009939 0.00343836 -0.00633513
O 11.64731712 17.93639018 26.17884249 -0.00608426 -0.00006994 -0.00043717
O 12.27756491 13.11916330 27.13208183 0.00268863 0.00066991 -0.00169755
O 14.95451145 10.54772691 33.35675505 -0.00840985 -0.00257283 -0.00218491
O 14.02938585 15.25245254 32.08414027 0.00320337 0.00152663 -0.00244311
O 11.80304536 14.69936984 33.30411635 -0.00320541 -0.00420486 0.00014788
O 10.29114536 19.16679643 31.73287756 0.00293162 0.00184360 -0.00470060
O 14.66150869 14.16463488 26.40652656 -0.00709935 -0.00152257 -0.00250191
O 16.26922930 9.53039821 27.30718551 -0.00009208 -0.00074615 -0.00046164
O 14.53664332 27.66114682 2.48057385 -0.00003073 0.00166019 0.00126895
O 15.93898986 22.60077078 3.42438653 -0.00562522 -0.00134913 -0.00249320
O 18.46415797 20.51973997 9.25524632 -0.00189841 -0.00100717 -0.00295916
O 17.16156553 25.13640029 8.43337832 -0.00682340 -0.00230418 -0.00810687
O 15.00785225 24.20719456 9.80688870 -0.00028520 0.00247569 -0.00351398
O 13.40111688 0.01579586 8.07582111 0.00462391 0.00332312 0.00312672
O 17.56750142 24.05777900 2.21298675 0.00155042 -0.00396869 0.00245785
O 19.35728613 19.17247825 3.91288715 -0.00377376 0.00859413 -0.00207830
O 12.74487990 27.88208428 14.51237657 0.00468561 -0.00165638 0.00202956
O 13.89237768 22.80454914 15.47747754 -0.00142514 -0.00305462 0.00282463
O 16.74626163 20.20554678 21.26455117 0.00290996 0.00030376 -0.00339177
O 15.17035476 25.10141656 20.20654831 -0.00121653 -0.00375312 -0.00041717
O 13.37766464 23.75716172 21.30896828 0.00092122 0.00071407 0.00206087
O 11.98954119 0.10383015 20.51359007 -0.00085456 0.00769734 -0.00102411
O 15.93288844 23.66538780 14.16916793 -0.00448209 0.00156063 0.00430812
O 17.50511147 19.28856422 15.45426457 0.00204857 0.00255681 0.00040935
O 11.30017890 27.77194684 26.08554228 -0.00406075 -0.00284363 0.00133208
O 12.64012290 22.85850464 27.29913535 -0.00105434 0.00210682 -0.00558428
O 15.24603541 20.42657929 33.28989065 0.00765847 0.00249038 0.00008563
O 13.95900282 25.23564447 32.29036026 0.00617995 0.00098571 0.00150103
O 11.76801259 24.16545744 33.39465491 -0.00450451 -0.00481597 -0.00295752
O 10.45319957 0.34768807 32.38557086 -0.00238747 -0.00061368 0.00090606
O 14.70035378 23.69303098 26.10469969 -0.00058058 -0.00273672 0.00083641
O 16.22269222 19.20146451 27.56339837 0.00079465 -0.00031414 -0.00530984
H 0.01765388 9.09625701 2.89775226 -0.00423997 -0.00859586 0.02046474
H 2.76312803 4.08506375 3.46852293 0.00474859 0.01046212 0.00293586
H 5.30429822 0.51546715 9.20767779 -0.01451381 -0.00545638 0.00873109
H 2.38937203 5.70532670 8.70633420 -0.00037533 -0.01478866 -0.01003677
H 5.53519220 8.32229716 0.82560428 -0.01537328 0.01455279 0.01260469
H 3.72936243 3.55067681 5.50519862 -0.00819690 0.00253817 0.01017201
H -0.13764678 1.39879136 11.08736643 -0.00596831 0.00609465 -0.00016618
H 1.30740738 6.29819586 6.40653665 0.00907417 -0.01695049 -0.00322525
H 4.09999185 6.70226748 10.53281705 0.00536364 0.02028079 -0.00696350
H 3.86431524 1.87146180 7.26792309 0.01849444 -0.01463138 -0.00015253
H 1.48987910 3.15884833 1.49860310 -0.01708748 -0.02130484 -0.02128533
H 1.20057886 8.09815206 4.74571314 0.00382093 0.01561431 0.02495915
H -2.29446901 5.34299078 35.60391880 -0.00593679 -0.00999810 0.02552491
H -0.18457871 0.68199441 6.25892039 -0.01262411 0.00543291 0.00685521
H 2.58963547 4.36180991 11.96699652 0.01507214 -0.00657624 -0.00250171
H 5.22427685 9.13922729 5.78189506 0.00544168 -0.01025589 0.01961068
H 2.69704632 7.16546191 1.66166186 0.00395612 0.01713350 -0.01252230
H 0.03853675 2.28464830 4.31867267 0.00130081 -0.01352462 -0.00501838
H 2.39991022 2.48918162 10.27207430 0.00863596 -0.01679274 -0.00257262
H 5.11089931 7.55360433 7.56869565 0.01489665 -0.02477786 -0.00122356
H 5.01491319 4.71330609 9.57739949 0.00483639 -0.00104457 0.03808502
H 2.92656278 0.06341765 8.20342386 0.00180682 0.00681782 0.02621530
H 0.29501546 4.80823736 2.53918435 -0.02181481 0.02360363 0.01697336
H 2.28038810 9.78865534 3.44408044 -0.00991064 0.00812731 0.02239681
H 6.56870574 2.64676733 8.19579927 0.01033877 -0.00414579 0.02346866
H 2.05301946 8.27529745 9.45805875 0.00167049 0.00071805 -0.01609053
H -0.33551733 6.45738647 3.78043856 0.00952909 0.00977404 0.00507528
H 2.95851968 0.99054898 1.90720238 -0.00519089 0.02567697 0.01629179
H 0.14130136 4.42305621 7.08921920 -0.00330109 -0.00433046 0.01948863
H 0.29312880 7.72967443 9.48924359 -0.00041953 -0.00012776 -0.02505268
H 5.60440369 6.77527883 3.19156047 0.02136842 -0.01330237 0.01880985
H 4.13554819 2.12061017 2.53358528 0.03775347 0.00476847 0.01060759
H 19.33264225 3.71593833 7.81302337 -0.01525104 0.01928557 -0.00596279
H 0.96205579 9.11428053 10.48104851 -0.00193556 0.01475500 -0.01820620
H 4.14133246 6.20241676 3.91235368 -0.00521179 -0.00919797 -0.01255689
H 4.81429371 0.85309735 1.38756519 0.00417250 0.03039406 -0.00692225
H -1.74855697 8.92328262 14.63242206 -0.01055761 -0.00571662 -0.01340193
H 1.21555010 3.92084384 14.96652393 -0.01537965 0.02768628 -0.00128755
H 3.96043957 0.52639522 20.97225591 -0.01339110 -0.00957840 -0.01111757
H 1.19347289 5.57399330 20.55557402 0.04391594 0.01505816 -0.01544848
H 4.16379009 8.27406315 12.40471556 -0.01004255 -0.02567894 0.00791777
H 2.33396575 3.36556509 16.89774830 -0.00004746 -0.01348961 0.02040430
H -1.80985728 1.48736003 23.23803347 0.01035020 0.01032623 0.00077082
H -0.12826116 6.21239739 18.59903097 0.00986437 0.01651730 0.00204066
H 2.47374965 6.59557653 22.67315883 -0.02398781 0.00258114 -0.00085616
H 2.50048523 1.93230790 18.88009654 0.01911154 0.00249175 0.01537781
H -0.07985101 3.31991572 12.59745311 0.00930146 0.02390725 0.00203749
H -0.30998439 7.58232760 16.67442291 0.01804531 -0.00245217 0.00079080
H 1.07654387 5.54219797 11.67992414 0.01196079 0.00845187 -0.01167841
H -1.65968263 0.52373170 18.17554922 -0.00615809 0.01869001 0.02019842
H 1.09688500 3.98750926 24.05724594 0.01352270 -0.00229782 -0.00061726
H 3.63156744 9.06242633 17.35267396 -0.01852735 -0.01047448 0.00334864
H 1.04554516 7.21559975 13.53386598 -0.01649865 0.00055789 -0.00267127
H -1.60447280 2.07016233 16.09162930 0.01758815 0.00117239 -0.00056119
H 1.09581319 2.39729449 22.21213957 -0.01841354 -0.03826421 0.00031269
H 3.84979921 7.57705586 19.44474699 0.00699485 -0.00398647 0.01981916
H 3.53260831 4.79854189 21.65734472 0.01361016 -0.02185748 0.00976818
H 1.41892824 0.02373438 20.20825597 -0.02293809 -0.01008527 0.02283049
H -1.31588085 4.64079633 13.95824195 -0.00145909 0.00407364 0.02332440
H 0.71481706 9.45449432 15.34163299 0.03099954 -0.00891078 0.01050762
H 6.05302656 3.16938717 19.72606314 -0.00417024 0.00065364 0.00457355
H 0.38392380 7.57936368 21.47179096 -0.00749951 -0.03498889 0.00375919
H -2.03743207 5.59994868 15.61422235 -0.03666909 0.00956901 -0.01120233
H 3.03979484 1.91147429 14.08508163 0.05011877 -0.00126022 0.00270533
H -0.47791830 3.57420988 19.68304471 0.00770135 -0.00356117 -0.00230764
H -1.18211996 8.08470760 22.14813557 0.00921914 0.01657143 -0.00823512
H 4.88063267 5.15773568 16.18652360 -0.02292737 0.00423724 -0.01486479
H 2.59451111 0.68469234 12.97964448 -0.02161282 0.01496709 -0.01268252
H -2.29657320 4.01174919 19.68020117 -0.00428454 0.00822247 -0.00287164
H 0.20215504 9.10277490 22.41548903 0.01286818 -0.01495181 -0.02237418
H 4.63392838 6.68286002 15.51680975 -0.00424020 0.00040460 -0.00895950
H 1.33954101 1.35082418 13.97770344 0.02665117 0.00415150 0.01097868
H -3.20766081 8.99172342 26.37012480 0.00737935 0.00553029 0.00260521
H -0.22273328 3.90693452 26.89756198 0.00728343 -0.01350625 0.00859324
H 2.39965026 0.69214614 32.73943754 0.01985679 -0.00867335 -0.00108793
H -0.87847003 5.59721938 32.47359655 0.00031647 0.00315244 0.00986097
H 2.32323626 7.76903387 24.75840995 0.02528949 -0.01539784 0.01142407
H 0.89781428 3.46489200 29.08404611 -0.00524333 0.01151965 0.01808180
H -3.00973872 1.92147074 35.10420056 -0.01557544 0.00350038 -0.02746544
H -1.75893600 6.29041599 30.46433935 0.01045406 0.00451485 -0.00759155
H 0.85338082 7.20758862 34.38578319 -0.01111041 0.00104461 0.01307058
H 0.60538199 2.07383587 31.17911364 0.00988700 0.00903175 0.01053943
H -1.91324758 3.02094758 25.13536715 -0.00029945 0.01159332 -0.00063536
H -1.60672410 7.63558293 28.43826954 -0.02001381 0.00198609 0.01060599
H -0.37990600 5.10863311 23.76022848 -0.02364177 0.02380228 -0.01699082
H -3.24606365 0.63545398 29.92801489 -0.01064463 -0.01209599 0.02005886
H -0.72591104 4.02322725 35.55601443 0.01264778 0.01091059 0.00404498
H 2.33155335 9.06048805 29.64290403 0.01778996 0.01224806 -0.01716289
H -0.37547535 7.16819475 25.56805817 0.01155358 -0.02180856 0.00701679
H -3.14168262 2.14643782 28.05762384 0.01814722 0.00201073 0.00879063
H -0.56752712 2.37058675 33.93581550 0.00955431 -0.00003577 -0.03018393
H 2.20264264 7.39717782 31.47473047 -0.01187467 -0.00811547 -0.00200576
H 1.62745995 5.48850296 33.20782363 0.02743407 -0.00695668 0.00369554
H -0.20229995 0.11523698 32.20722275 -0.00712365 0.00924876 0.02777441
H -3.01161281 4.43891336 26.52546534 0.00336651 0.00219864 0.00396570
H -0.77639058 9.65766574 27.66662744 -0.00844551 -0.01758566 0.00277522
H 3.55976662 4.33022509 30.92703524 0.00413004 -0.00426371 -0.00815494
H -3.01498762 8.23094249 33.97442286 -0.03292934 0.01653929 -0.01190204
H 15.10556723 5.47585085 28.46331038 0.02001235 0.03888664 0.01280237
H -0.26542119 0.77357521 25.62735425 -0.04115958 0.00341815 -0.01205511
H -2.64578546 3.13186674 31.76460897 -0.00437566 -0.00110650 0.03348702
H -1.75407086 9.24970578 34.25300991 -0.00037167 -0.01357689 -0.01654855
H 1.47598926 6.09715716 28.06259697 0.00206620 -0.01673831 0.00189997
H 0.69265078 2.11883086 26.19794895 -0.02164199 -0.02253887 0.00967084
H -3.45583701 4.51646407 31.20473764 0.00378066 -0.01219790 -0.02499591
H -1.43489664 7.73755127 33.31492029 0.00466207 -0.01717691 -0.02742139
H 3.20519094 5.63077746 27.91329496 -0.00293771 0.00781705 0.01343602
H 1.46650862 1.08523180 25.21655956 0.01399142 0.01434773 -0.00661852
H -0.10949565 18.71144384 2.75851886 0.01635451 0.00731044 -0.00883241
H 2.72330790 14.02043144 3.20493038 -0.00266794 0.02086847 -0.01163070
H 5.26207490 10.48136444 9.17907822 0.01188909 0.01025495 0.00920176
H 2.48923795 15.23523992 8.65553236 0.01139491 0.00789493 0.00040586
H 5.73855243 17.89659158 1.15090428 -0.01570968 -0.00435304 0.00576743
H 3.74435198 13.33978707 5.34448328 0.01445255 0.01241225 -0.01117921
H -0.50930696 11.15890859 11.45929850 0.02900705 -0.00411663 0.00298072
H 1.67561461 15.54780460 6.31864724 0.00836442 -0.00853013 0.00474691
H 3.95550514 16.33416981 10.58676832 -0.00172730 0.03763905 -0.00149907
H 3.81762579 11.75940089 7.06589291 0.00912315 -0.00902380 0.00669173
H 1.21052274 12.62462922 1.00756801 0.02331987 -0.00382820 -0.03133551
H 1.63975775 17.20293000 4.56023910 -0.00335609 0.01120222 -0.03153047
H -2.04659819 14.97104637 35.66786395 -0.01813987 0.01397393 -0.00797642
H -0.15276650 10.36750110 6.06779151 -0.00395352 -0.00260098 0.00159855
H 2.47486951 13.76333189 12.16483936 -0.00699857 -0.02343576 0.00327085
H 5.27375500 18.93047504 5.98205663 -0.00040298 -0.01236114 -0.01408111
H 2.75683122 16.93173602 1.67853176 0.01033122 0.02125696 0.01202603
H -0.12840634 11.98518688 4.00523129 -0.00854449 -0.00205916 -0.00262516
H 2.41557024 12.09790190 10.53165073 0.01045216 -0.01073791 0.00238894
H 5.37407345 17.30527523 7.83487644 -0.01544162 -0.02101853 0.01371209
H 4.90567723 14.41415993 9.52544509 -0.00477209 -0.02543980 0.00077442
H 2.65659152 9.91865697 8.16938740 -0.01009946 -0.00323586 0.01886575
H 0.09034447 14.45610373 2.17841188 0.00701898 -0.00140549 0.00317549
H 2.38690779 19.38101226 3.79619721 -0.00829456 0.01406689 0.00266090
H 7.15286538 12.12479041 8.45474378 -0.00408486 -0.00126041 0.00035086
H 2.30873258 18.55230361 10.15196321 0.00992511 -0.00099957 0.01313908
H 19.21952380 15.02888226 4.64906525 -0.00164883 0.01490693 -0.01721365
H 4.77310795 10.76887041 1.46255784 -0.02172920 -0.00872681 0.00354801
H 19.21639231 13.23349367 8.49989577 -0.01958292 -0.01563090 0.01496210
H 1.28164517 17.25072163 9.67139593 -0.00830493 0.02173674 -0.00185230
H 6.28447242 15.24841129 4.24651286 -0.02166670 -0.01509997 -0.00748429
H 3.29369461 11.36909199 2.11443066 0.01238285 0.00522946 -0.01974487
H 0.00651932 12.20658871 8.69398995 0.00382290 0.00078940 -0.00789475
H 0.57459931 18.49123891 10.72691835 0.00230091 0.01459583 -0.00325292
H 5.41034119 16.55824521 3.50257458 -0.01602381 -0.01018930 0.00297142
H 4.95538235 12.01035495 2.56786897 0.00749560 0.00042035 -0.00655160
H -1.63161799 18.78781179 14.78560623 -0.01520111 -0.03550064 -0.02081404
H 1.09591959 13.81498034 15.19200936 -0.00797870 0.00144011 -0.00861869
H 3.71383903 10.23026740 21.00612840 -0.01339568 -0.01805134 0.00275168
H 1.10508812 15.02565157 20.63759282 0.01168589 0.01592997 0.01075464
H 3.92447007 17.81456517 12.62771417 0.00053709 -0.00601540 0.00299212
H 2.12035448 13.10168170 17.09773590 -0.00262091 -0.00352507 0.00908907
H -1.90275873 10.91832647 23.10229809 0.00252379 -0.01509041 -0.00646598
H -0.10802508 15.90154067 18.73816614 -0.02676098 -0.02234360 0.00079959
H 2.52168295 16.16312129 22.61709286 -0.00969915 -0.02351140 -0.02467091
H 2.29326655 11.44207805 18.81173542 0.00856444 0.01567025 -0.01591065
H -0.39515501 12.91079566 13.10876236 0.00311764 -0.00760490 0.01264575
H -0.21445925 17.37195544 16.78463905 0.00536767 -0.00141282 0.03423930
H 1.23977855 15.33007399 11.63465170 0.00121423 0.01013501 0.01923439
H -1.72334543 10.20610040 17.89277464 -0.01600345 0.00776289 -0.00783620
H 0.88866565 13.75792235 24.00996419 -0.00087164 0.00599368 -0.02903176
H 3.74838501 18.62972536 17.70838645 -0.01853190 0.00464951 0.00190088
H 1.26975115 17.01352479 13.45066693 -0.00018149 0.01959184 -0.00565224
H -1.60132783 11.65510182 15.91319214 0.01997871 -0.01415662 -0.00108696
H 0.79800745 12.15837780 22.18150599 -0.02579337 0.02949308 -0.03069163
H 3.95650949 16.71738807 19.33574747 0.00646091 0.01367929 -0.00386570
H 3.41988237 14.35881995 21.55135865 -0.00981689 -0.00945774 0.00980653
H 1.22783888 9.60134752 20.10475217 -0.04991379 0.00351518 -0.01691789
H -1.38976785 14.84095009 14.07215896 -0.01557017 0.02248177 0.00451409
H 0.74072044 19.37024292 15.86146084 -0.02023535 -0.01909623 -0.01407825
H 5.94751347 13.07387356 19.48715824 0.00460048 -0.00569112 -0.01889096
H -0.46356939 16.90276582 20.88620394 0.02978752 0.00371882 -0.01307699
H 16.39839896 15.65976490 16.23006389 -0.02918309 -0.00069934 0.02681886
H 2.39767970 11.58430705 14.19104908 -0.01042166 0.02890913 0.02146080
H -1.74917483 12.21577397 20.35350924 0.00361116 -0.00575213 -0.01782897
H -1.26040229 17.88844417 22.17165371 -0.01169218 0.00334380 -0.00940157
H 4.68342562 15.69265050 16.11372071 0.00699000 0.02188860 0.00508565
H 2.81227751 10.21150136 12.93561102 -0.01504803 -0.00425350 0.01894952
H -0.90433209 13.36801848 19.33331903 -0.00350639 0.00091937 -0.00766514
H 0.46051560 18.06181234 21.90239087 -0.02756967 0.03141519 0.00961238
H 3.80912020 16.87459571 15.10150006 -0.00704815 -0.00632772 -0.01936530
H 1.27394694 10.47777281 13.60446566 0.02499106 -0.01967181 0.01314247
H -3.11599981 18.40983106 26.61666438 -0.01463314 -0.01424508 -0.00220545
H -0.36831888 13.75839479 27.22876651 -0.03857908 -0.00242308 -0.02001281
H 2.12009493 10.43933282 32.90129962 0.00147384 0.00014758 0.00394138
H -0.57790165 15.38795162 32.72895789 0.00731950 0.00408734 -0.01424836
H 2.48938086 17.76249415 24.43359858 0.02663642 -0.01426624 0.01434573
H 0.71742211 13.19863232 29.23637931 -0.02385481 -0.01698886 -0.01677679
H -3.66181893 11.22749542 34.77507268 0.01702847 0.00263958 0.02679725
H -1.94447612 16.31712331 30.78376421 -0.03564330 0.01781181 -0.01349025
H 0.98343419 16.46277470 34.80190423 -0.00660516 -0.01845442 -0.01631389
H 0.58225726 11.37056753 31.01989097 0.01627197 -0.02989843 0.01380302
H -1.92456835 12.23125419 25.01785717 0.01429850 0.00274097 -0.00031389
H -1.81817550 17.47591907 28.79970754 -0.00327683 0.00159528 -0.01483804
H -0.15166970 14.96816752 23.61429251 0.00544555 0.01063761 0.00658725
H -3.36924673 10.28622087 29.87261590 -0.01852457 0.00185604 -0.01910309
H 3.95909248 13.92727826 0.14008844 0.01474824 0.00463961 -0.02115648
H 2.36620392 18.64412614 29.59613947 0.01685180 -0.01751757 0.02223850
H -0.30728315 16.30762455 25.70579781 0.01550450 -0.01150319 0.00550390
H -3.19848521 12.04328423 28.02184426 -0.01829988 -0.00102115 0.00089012
H -0.59539345 12.66400636 33.67699909 0.02015663 0.00020901 -0.00793768