2160
Time=15000.00000000 pbc="T T T" Lattice="20.51845992 0.00000000 0.00000000 0.00000000 28.97899363 0.00000000 -4.73453113 0.00000000 35.64232684" energy=-13800.40640289 virial="-74.79648951 -0.07418880 47.20361606 -0.07418880 -30.47870610 -24.39279310 47.20361606 -24.39279310 -44.74454970" stress="-0.00092572 0.00003278 0.00239960 0.00003278 0.00058467 -0.00115047 0.00239960 -0.00115047 0.00002376" Properties=species:S:1:pos:R:3:vel:R:3
O 0.76846588 8.75012401 2.38371051 0.00280466 -0.00114269 -0.00232722
O 1.94763809 3.65094299 3.66883352 -0.00101864 0.00042717 0.00303764
O 4.73289891 1.06600907 9.41382525 -0.00157258 0.00214840 -0.00169943
O 3.43733441 6.03846276 8.47312160 0.00095502 -0.00092065 -0.00192972
O 1.31874485 5.04248917 9.59971830 -0.00007917 0.00788478 -0.00516249
O -0.25133033 9.60785722 8.14855557 0.00437707 -0.00350454 -0.00208821
O 4.00001690 4.63057553 2.35275413 -0.00297417 0.00291393 -0.00447738
O 5.53633135 28.89162444 3.88340648 -0.00359595 -0.00093267 0.00329209
O -0.92187077 8.69864384 14.20588118 0.00176131 0.00181929 -0.00008444
O 0.50709639 3.67474844 15.40536896 0.00083578 -0.00195466 0.00320519
O 2.90480458 1.14076763 21.46919913 -0.00399664 -0.00181914 -0.00648395
O 1.86671915 5.72853751 20.10856106 0.00649222 0.00235598 -0.00108799
O -0.35252324 4.93303478 21.29680665 -0.00513597 -0.00049485 0.00003416
O -1.89226417 9.70173599 20.21646858 0.00363926 0.00097553 0.00125717
O 2.65217389 4.66132423 14.36284359 0.01284237 0.00425627 0.00220695
O 4.04693332 28.81916587 15.63944047 0.00163742 -0.00248988 0.00402658
O -2.46687138 8.53290622 26.27139172 0.00359658 -0.00162387 0.00474039
O -1.11474551 3.73843662 27.05554286 -0.00080340 -0.00269877 -0.00170420
O 1.54225139 1.06112960 33.15635738 -0.00111171 0.00283031 -0.00381967
O 0.32697190 5.98630443 32.18908048 -0.00270647 0.00153153 -0.00385773
O -1.70025061 4.91195410 33.43994188 -0.00483105 0.00058711 0.00175468
O -3.37326011 9.60271811 32.16846998 0.00235281 -0.00076785 -0.00245026
O 0.98608024 4.78988390 26.20079703 0.00137034 -0.00477161 -0.00078312
O 2.38557969 28.74706714 27.22181030 -0.00183836 0.00404726 0.00174244
O 0.77837085 18.01266949 2.27977519 -0.00085686 0.00098071 0.00032559
O 2.07291738 13.11313029 3.51739418 -0.00585082 0.00155334 0.00213956
O 4.50091132 10.57592738 9.46111615 -0.00566435 0.00100009 0.00022916
O 3.27100466 15.35520486 8.38557370 0.00201960 0.00011556 -0.00069522
O 1.15399260 14.43283404 9.61910826 0.00060359 -0.00112850 -0.00311025
O -0.25425873 19.08982526 8.48529956 0.00114630 0.00018705 -0.00237236
O 3.92701636 14.41278897 2.16098643 -0.00272669 0.00698401 0.00033556
O 5.58735065 9.51819363 3.74717560 0.00218230 -0.00065360 -0.00587205
O -1.01487673 18.24236881 14.26457082 -0.00248691 -0.00322195 0.00166614
O 0.19370829 13.35047129 15.55720059 -0.00029616 -0.00360507 0.00441390
O 3.06182580 10.83566568 21.38573038 0.00222128 -0.00317259 0.00238200
O 1.69048492 15.96711334 20.42680671 -0.00456140 -0.00712991 0.00319919
O -0.14667485 14.32693119 21.57143133 0.00409685 0.00411623 0.00626354
O -2.08948114 19.43943493 19.99995667 -0.00207766 0.00043838 0.00103803
O 2.18539129 14.17159601 14.23615687 0.00662270 0.00854034 0.00637071
O 3.98235961 9.48426147 15.66740188 0.00058171 0.00272823 -0.00203377
O -2.47447756 18.23108872 26.03421492 -0.00102881 0.00116656 -0.00032123
O -1.29259451 13.08216452 27.06915829 0.00476895 0.00062918 0.00276737
O 1.53174360 10.79715894 33.06576030 0.00369921 0.00579311 0.00050619
O 0.33361921 15.36495669 31.85716776 0.00103198 0.00212177 0.00361386
O -1.77116363 14.33264543 33.28491317 -0.00550390 -0.00339185 0.00026306
O -3.48937196 19.27147748 31.92672185 -0.00758392 0.00189575 0.00232712
O 0.61715471 14.53354625 25.91984398 -0.00360525 0.00032042 -0.00216714
O 2.63563281 9.38690635 27.34948558 -0.00183125 0.00213824 0.00153173
O 0.73224032 27.70118046 2.39904806 -0.00000063 -0.00145990 0.00250221
O 1.84655095 23.20655022 3.96145770 0.00228264 0.00171231 0.00520341
O 4.55823449 20.35030990 9.40335618 -0.00594018 -0.00012222 0.00567617
O 3.21829077 25.36446425 8.68883155 -0.00195417 -0.00241215 0.00361812
O 1.25067003 24.01627372 9.87745828 -0.00213026 -0.00040552 -0.00085924
O -0.24724779 28.96612973 8.33426792 -0.00297901 0.00133996 -0.00100991
O 4.00200154 23.86987116 2.44950502 0.00271696 0.00007071 -0.00192143
O 5.55156489 19.12617997 3.78682247 -0.00121397 -0.00019980 0.00029091
O -0.73651558 28.00420458 14.47337649 -0.00251968 -0.00328256 -0.00029451
O 0.26014427 22.93942986 15.30533084 0.00066872 0.00360114 0.00147850
O 2.87448946 20.30465782 21.18407919 -0.00301487 0.00153034 -0.00191273
O 1.84485488 25.24190851 20.26379361 0.00130156 0.00130110 0.00381379
O -0.30947967 24.29383989 21.46052525 0.00078606 0.00573356 0.00328358
O -1.86400511 0.14288007 20.03409532 -0.00422028 0.00009293 -0.00270598
O 2.36032936 24.00820164 14.23851020 -0.00565521 -0.00271762 0.00121302
O 3.83653610 18.97392692 15.37010036 0.00232234 0.00187741 -0.00031263
O -2.79750269 27.72662863 26.20449649 0.00094025 0.00569639 -0.00726208
O -1.26528404 23.08540720 27.25568524 -0.00080588 0.00171621 0.00444132
O 1.21953406 20.27271139 33.08011256 -0.00492688 0.00335969 -0.00025375
O 0.23182747 25.19284035 31.96945228 0.00366611 -0.00315028 -0.00328673
O -1.73568159 24.05158318 33.40825353 0.00338081 0.00004115 -0.00156405
O -3.19993552 0.33237558 32.02727170 -0.00524807 -0.00424730 -0.00678678
O 0.69859134 23.96649081 25.91272050 -0.00031993 -0.00378035 -0.00138440
O 2.20824706 19.32701291 27.39778724 0.00001859 -0.00254778 0.00474983
O 7.50424149 8.30617917 2.41505724 0.00247962 0.00069312 -0.00624083
O 8.83320861 3.61107685 3.30519739 0.00017084 0.00472690 -0.00199966
O 11.41374298 1.02714548 9.54155792 -0.00348757 0.00459170 -0.00153751
O 10.14876003 5.88889455 8.32103203 0.00092493 -0.00608133 -0.00172334
O 8.14972701 4.84178491 9.53870755 0.00161566 0.00226709 0.00092562
O 6.47764290 9.79706364 8.05686007 0.00380021 0.00620767 0.00287531
O 11.01249925 4.59148869 2.31908942 -0.00510993 0.00513471 0.00093516
O 12.40237129 28.94559960 3.71115155 0.00288257 0.00106458 -0.00144092
O 6.00638703 8.45291471 14.38786643 -0.00145577 0.00135728 -0.00116286
O 7.19541585 3.81864469 15.57596458 -0.00099001 -0.00293607 0.00297290
O 9.83238159 1.19224505 21.54266757 0.00057518 0.00463409 -0.00447099
O 8.67203526 6.25351397 20.61759598 0.00393683 0.00299014 0.00038750
O 6.65065844 4.81932971 21.58258458 0.00111773 -0.00779951 -0.00056285
O 5.28471710 9.71412474 20.52583627 0.00199603 0.00082303 -0.00028670
O 9.14762631 4.86779616 14.06894408 0.00121640 0.00166040 -0.00194445
O 11.07144079 0.02695121 15.63871483 0.00387214 -0.00269003 0.00578632
O 4.66159507 8.65997926 26.15634206 0.00225750 0.00099985 -0.00055585
O 5.43156054 3.70584820 27.34295022 -0.00163196 -0.00418385 0.00821397
O 8.24434798 1.17909109 33.01600486 0.00323305 -0.00434849 -0.00224846
O 6.95163541 6.03187047 32.15928982 -0.00030687 -0.00134247 0.00209259
O 5.13284572 4.68038387 33.35192200 -0.00476818 0.00056781 0.00143100
O 3.54722197 9.56601728 32.01853390 -0.00411779 -0.00575762 0.00021455
O 7.51047416 4.88044120 26.16234314 -0.00327187 0.00168898 0.00645194
O 9.08447311 0.21381479 27.34145971 0.00232818 -0.00104106 0.00537479
O 7.56458189 17.96582612 2.53761898 -0.00032217 -0.00269400 0.00157833
O 8.92127520 13.10385468 3.40928244 0.00063350 -0.00136166 -0.00263656
O 11.38745260 10.78781109 9.36324320 0.00005546 0.00354308 -0.00144120
O 9.99476580 15.38403213 8.11147904 0.00325157 -0.00147647 0.00322819
O 7.94392197 14.61972088 9.49531643 -0.00450623 -0.00355250 -0.00340135
O 6.59160437 19.21364606 8.06642870 -0.00649702 -0.00554804 -0.00041975
O 10.84053904 14.43679508 2.22301101 0.00047515 0.00109379 0.00185451
O 12.54741162 9.68648749 3.63753407 -0.00700286 -0.00419938 -0.00555400
O 5.88204224 18.40544249 13.94320104 0.00172736 0.00323144 -0.00122842
O 7.09718762 13.44387411 15.48960731 0.00514948 -0.00018509 0.00591302
O 9.93095837 10.76297657 21.51026489 0.00184583 0.00204472 -0.00555412
O 8.55774887 15.38754195 20.04088501 0.00171513 -0.00183232 -0.00262650
O 6.41963014 14.63181211 21.54856569 -0.00142262 0.00379717 -0.00012147
O 4.99587589 19.34126684 20.00211662 0.00140503 -0.00348901 -0.00491800
O 8.99747856 14.52325966 14.19734701 -0.00057293 0.00255903 0.00209987
O 10.57542559 9.45766016 15.53980528 0.00113164 0.00009751 0.00253629
O 4.39570307 18.17797382 26.36090543 -0.00447859 0.00006041 -0.00167830
O 5.39322368 13.52740672 27.31797794 -0.00132939 0.00073613 0.00392699
O 8.46160891 11.02209923 33.25810965 0.00106146 0.00177048 -0.00612701
O 7.03327510 15.66867046 32.19364822 0.00208686 -0.00086860 -0.00108704
O 4.90293686 14.69978228 33.18459251 0.00223389 0.00103532 0.00331867
O 3.47680641 19.34443178 31.93621720 -0.00459471 -0.00587196 0.00493151
O 7.60659902 14.42106201 26.43900805 0.00388467 0.00343855 -0.00166949
O 9.36569362 9.71475563 27.59701524 -0.00179683 -0.00218860 0.00313341
O 7.56997960 27.83413969 2.44172721 -0.00249478 -0.00186095 0.00319832
O 8.59520990 22.95698165 3.25130746 -0.00120631 0.00019316 -0.00021242
O 11.40099403 20.79710842 9.35384401 0.00290382 0.00103953 -0.00307313
O 10.23481733 25.62106710 8.58043093 0.00009781 0.00264923 0.00320553
O 8.11839145 24.25225094 9.34003019 0.00219929 0.00038037 -0.00240950
O 6.80601354 28.79882900 8.01358973 -0.00182458 -0.00013027 -0.00355652
O 10.93448065 23.83401957 2.37302539 0.00391253 0.00193664 0.00473223
O 12.46974223 19.25281577 3.67843306 -0.00102246 -0.00012719 0.00312169
O 5.95284360 27.93784400 14.15159953 -0.00016783 -0.00221162 -0.00001273
O 7.13088049 22.80846489 15.14300609 -0.00009899 -0.00237360 -0.00104211
O 9.84295182 20.58840952 21.11268286 0.00283583 -0.00413117 -0.00039437
O 8.74901598 25.32816442 20.13457930 -0.00337569 0.00021412 0.00183202
O 6.49881347 24.32803154 21.22454968 0.00177541 -0.00364665 -0.00160103
O 4.95913122 0.16196405 20.31512975 0.00562362 -0.00003261 0.00628506
O 9.19915087 24.05164811 14.32899110 0.00487703 -0.00373483 -0.00461529
O 10.69323026 19.33653990 15.47578357 0.00193461 -0.00076823 -0.00198025
O 4.38194916 27.63142364 26.05583137 -0.00421246 -0.00052533 -0.00406984
O 5.63455162 22.79023623 27.02248390 -0.00266363 -0.00418686 -0.00056418
O 8.21847732 20.38911301 33.24275554 -0.00697692 -0.00423952 0.00000883
O 7.06887075 25.28344321 32.09379579 0.00080655 -0.00184615 -0.00063718
O 4.99462563 24.13798605 33.34008432 0.00190513 -0.00137892 0.00119655
O 3.45717199 28.59889381 31.93290604 -0.00098500 0.00235705 -0.00307014
O 7.72376319 23.98573431 26.15109054 -0.00021684 -0.00131518 0.00229739
O 9.06602484 19.35971676 27.46551871 -0.00166154 -0.00115483 -0.00460682
O 14.56764838 8.60445994 2.40461320 0.00245828 -0.00262343 -0.00355686
O 15.69146340 3.82250496 3.64582812 0.00431831 -0.00111466 -0.00382035
O 18.19880617 0.98260890 9.70581346 0.00188352 0.00704392 -0.00304819
O 16.89628176 5.97165000 8.46761650 0.00613753 0.00008150 -0.00464489
O 15.02513845 4.94919750 9.62167174 -0.00254146 0.00418753 -0.00133141
O 13.32185747 9.42263211 8.04477435 0.00210968 -0.00206506 0.00278718
O 17.81695761 4.43766590 2.37159394 0.00061652 -0.00205605 -0.00150706
O 19.28497829 28.79939496 3.40020024 0.00139465 -0.00311417 -0.00346426
O 12.62120441 8.34517903 14.48932966 0.00097434 0.00033800 -0.00405975
O 14.01371649 3.67926155 15.23731200 0.00036960 -0.00117488 -0.00303208
O 16.70685123 1.21093808 21.29422839 -0.00096854 0.00330420 -0.00065339
O 15.45607239 6.20083230 20.31809378 -0.00384918 -0.00261692 -0.00048669
O 13.39750043 5.18804739 21.57200757 -0.00312754 -0.00048924 0.00223340
O 11.88470125 9.91245872 19.97956090 0.00193570 -0.00170640 0.00404289
O 16.10977941 4.75418847 14.36063559 0.00033067 -0.00056913 -0.00015483
O 17.64161714 28.96292737 15.68397329 0.00109596 0.00009387 -0.00031253
O 11.33330325 8.54033875 26.42754301 -0.00455343 0.00067949 0.00243069
O 12.28993787 3.65672637 27.06986460 0.00465027 -0.00456702 -0.00255400
O 15.06132740 1.25091980 33.07104309 0.00133529 0.00176986 -0.00073774
O 13.99788849 6.11570962 32.42843480 0.00202682 -0.00620297 0.00185409
O 11.82145694 4.98631950 33.36464143 0.00059416 -0.00446349 -0.00614569
O 10.34940798 9.94104601 31.94259306 -0.00786135 -0.00145550 -0.00916079
O 14.42648179 4.96349531 25.92778623 -0.00297706 -0.00342177 -0.00358448
O 15.95000662 0.30899550 27.67056645 -0.00104575 0.00248991 -0.00192990
O 14.54312245 18.62346281 2.28485231 0.00496049 -0.00022095 0.00034402
O 15.64819045 13.31324969 3.54710276 -0.00040642 0.00296595 -0.00555940
O 18.20280409 10.80304671 9.24438154 -0.00310373 -0.00107763 -0.00105443
O 16.83680893 15.58990969 8.29523672 -0.00065525 0.00392194 -0.00092764
O 14.60864343 14.74637906 9.30740392 0.00027161 0.00171573 -0.00179040
O 13.33612333 19.62327019 8.15725722 -0.00217030 -0.00670697 -0.00490229
O 17.62174384 14.35375422 2.33221584 -0.00106850 -0.00076328 -0.00500574
O 19.20349282 9.51955227 3.62922101 -0.00498174 0.00026606 -0.00220919
O 12.91295885 18.29754419 14.13659320 0.00879196 0.00276186 -0.00274206
O 13.71109667 13.56306713 15.31066018 -0.00119440 -0.00426950 0.00169289
O 16.54170940 10.77932462 21.13367087 -0.00023224 0.00175491 0.00028124
O 15.53823669 15.48640093 20.29449593 0.00163669 -0.00608277 0.00400196
O 13.33864864 14.64741680 21.44718979 0.00302480 0.00392014 0.00088242
O 11.69105545 19.09523480 19.97049534 0.00274051 -0.00405246 0.00511666
O 15.92943287 14.38606324 14.14304227 0.00168923 -0.00051485 0.00150955
O 17.58416284 9.57629899 15.51355947 -0.00144693 -0.00303971 0.00221607
O 11.07508259 18.25795838 26.12610144 -0.00112221 0.00049773 0.00037340
O 12.60621273 13.40586465 27.19800608 -0.00112670 0.00103250 -0.00300874
O 15.12951652 10.98648744 33.13538461 -0.00343775 -0.00332502 -0.00208609
O 13.81331334 15.69623087 31.74202930 -0.00048059 0.00590578 0.00438656
O 11.98342570 14.76153998 33.36268579 0.00140578 0.00248234 -0.00154599
O 10.14779561 19.67129355 31.89792383 -0.00393871 -0.00314571 0.00274569
O 14.56980026 14.42727760 25.89952615 -0.00137762 -0.00214923 -0.00051441
O 15.93322082 9.73770760 27.36390822 -0.00153832 0.00625346 0.00423583
O 14.49647906 27.83799109 2.53447061 0.00275096 -0.00103071 0.00299801
O 15.67666832 22.98616534 3.38898442 -0.00339035 0.00029934 -0.00247494
O 18.33027896 20.49741885 9.39029600 -0.00083451 0.00566614 -0.00149346
O 17.00974703 25.36766984 8.47146786 -0.00000914 -0.00313623 0.00209063
O 14.96354878 24.11698976 9.65128547 0.00287158 -0.00015969 0.00555194
O 13.42057509 0.20482166 8.28725530 0.00264123 -0.00311055 0.00523344
O 17.68260081 24.20972427 2.17619963 -0.00375873 -0.00027271 -0.00463795
O 19.10250354 18.73606312 3.44138111 0.00413399 -0.00331580 0.00463918
O 12.97186464 27.72891508 14.37908111 -0.00525007 -0.00023680 -0.00195406
O 14.05209406 23.08534658 15.71376513 -0.00245565 -0.00406987 -0.00222945
O 16.55410843 20.33099832 21.51711696 0.00051975 0.00394421 0.00541088
O 15.38540353 25.39259755 20.23832927 0.00018924 0.00351561 -0.00509455
O 13.31914179 24.59368500 21.45641211 0.00258347 -0.00413937 0.00432797
O 11.94614165 0.38439981 20.22480481 0.00029531 -0.00325174 -0.00787582
O 15.98363137 24.03696890 14.29848648 0.00341938 0.00262137 0.00066570
O 17.54988967 19.33658888 15.78646101 -0.00331790 -0.00261709 0.00081738
O 11.08523364 27.94667852 26.25123143 0.00166649 0.00028821 0.00325451
O 12.39835074 23.13952855 27.13884636 0.00254845 0.00010926 -0.00258468
O 14.99157726 20.42545160 33.13331744 -0.00588269 0.00207535 0.00210461
O 13.79954836 25.27897060 32.00819337 0.00217115 0.00386730 0.00325335
O 11.66468826 24.24785337 33.15039944 0.00171815 0.00019168 -0.00216125
O 10.34831114 0.07954053 31.86838728 -0.00585903 0.00081526 0.00074799
O 14.45594405 24.24139031 26.16427843 -0.00030817 0.00039125 0.00012631
O 15.91047081 19.06164817 27.02491456 -0.00028271 0.00446075 -0.00735708
H -0.01631776 9.04141137 2.79363132 0.01838660 0.00307715 0.01463557
H 2.91292644 3.86143816 3.43942642 0.02300855 -0.00045671 -0.00171463
H 5.44843148 0.36462016 9.49928071 0.02735585 -0.00700332 0.01966430
H 2.61126413 5.52004090 8.70313067 -0.01522403 -0.00248738 -0.00999938
H 5.44576753 7.97154220 0.49446202 0.00253184 -0.00056268 -0.01489866
H 3.95208475 3.16954221 5.27757542 0.01923622 0.00388790 0.00163197
H -0.38421378 1.20093374 11.43244787 0.01382770 0.01322530 -0.01291676
H 1.48398113 6.02240113 6.60838840 -0.00550513 0.00023491 0.01099712
H 4.07485607 6.64922185 10.69029670 -0.02126284 0.00702047 0.02715856
H 3.84000164 1.91193793 7.35257687 -0.01213046 0.00498611 -0.00978654
H 1.30146707 2.66777384 1.11324990 0.01327255 -0.01538214 -0.01256227
H 1.47189625 7.65057336 4.64332324 0.00197857 0.01703664 0.01975511
H -1.86466925 5.48985583 35.53196311 0.01394208 -0.00875560 0.00439583
H 0.03186241 0.43762196 6.31725673 -0.02838299 -0.01027323 0.00381782
H 2.72795294 3.99043926 12.33984400 -0.01531979 0.02152939 -0.00017406
H 5.53491243 8.61823505 5.72775093 0.01438937 0.00102579 -0.01420397
H 2.78748399 7.05981663 1.83017539 -0.01339942 -0.00380774 -0.01323551
H -0.10603604 2.05090049 4.43006756 0.00967032 0.01670592 0.01005477
H 2.61979213 2.63471229 10.38500739 0.00535281 0.01379687 -0.00839938
H 5.31822935 7.41065909 7.74370446 0.01017060 0.00811929 0.00499764
H 4.91926655 5.03079871 9.64129289 0.05372268 0.02072533 0.01614111
H 2.85763664 0.10385210 8.43588236 -0.01191612 0.00025789 -0.03638449
H 0.42519622 4.62543855 2.23638151 0.00203435 0.00506544 0.00169730
H 2.59456328 9.23272796 3.43518403 0.00528529 0.00930222 -0.00109486
H 6.06378570 4.14783544 7.34044086 -0.01668358 0.00997640 0.01086931
H 0.02355575 8.38761492 10.13342419 0.01614087 -0.01793834 0.00362192
H -0.26971543 5.60489408 4.09864373 0.00037901 -0.00395297 0.02624904
H 4.65989686 0.53471811 1.61252085 -0.01213840 -0.00119645 0.00090807
H -1.00752211 3.01426111 8.27705875 0.01164541 0.03262616 0.01530821
H 1.85799372 8.60528532 10.17541056 -0.01993482 -0.01214758 0.01160084
H 6.57325376 6.30282566 3.39313528 -0.00982216 0.03294087 0.01129161
H 2.97609009 0.87215858 2.18042404 0.01560419 -0.00927407 0.00006090
H 0.66369736 3.11755052 8.06416268 0.00517164 0.00998344 -0.00863798
H 1.08242171 7.26062445 9.30713436 0.00185683 0.02038017 0.01029843
H 5.07180940 7.10087325 3.03841610 -0.00077107 0.02124680 0.00282157
H 4.42161841 2.07220792 2.42751156 -0.00036013 0.03495328 0.00199409
H -1.82180213 9.05093657 14.41720079 0.03353458 -0.02361135 0.01449060
H 1.37793789 4.10587258 15.18083601 -0.01153727 -0.02372545 0.02020178
H 3.80169254 0.81951358 21.17097719 0.00327639 0.00993323 0.03257391
H 1.03448136 5.47174307 20.50552128 -0.02006033 0.00288852 0.00177184
H 3.86942639 7.92317521 12.83602866 -0.00781674 0.01032496 -0.01387764
H 2.34967202 3.53559840 17.09863387 0.00379387 -0.00546112 -0.00601179
H -1.76696330 1.57220726 22.98500109 0.00254241 -0.02265398 -0.00873493
H -0.20689759 6.35161702 18.57580207 -0.01549564 0.00216842 0.00518655
H 2.59160238 6.97346635 22.49995137 -0.00552142 0.01085152 0.00518510
H 2.11416100 2.16578358 19.30844740 -0.02324928 -0.00360904 -0.00140650
H -0.31927954 2.71906946 13.31993610 0.02194772 0.01461542 -0.00110449
H -0.22205008 7.89371884 16.72333309 0.02327617 0.00524113 0.00322739
H 1.19246383 5.40337700 11.78029918 0.00903804 -0.01283612 -0.00500520
H -1.54331105 0.53531111 18.01599929 -0.00990321 0.02439452 0.00874367
H 1.02951723 4.40261066 23.77572859 0.00392142 -0.01680575 0.01771469
H 3.82707466 8.91977761 17.67619067 0.00899180 -0.01627431 0.00456853
H 1.15323522 7.05427323 13.65074087 0.00758622 -0.00049764 0.00176369
H -1.54494653 2.17094011 16.08049430 0.02493706 -0.00067503 0.02027087
H 0.96342552 3.00577294 21.95801718 0.01049949 0.01229269 -0.01313153
H 3.82293148 7.39618873 19.56459355 -0.00539442 -0.00636878 -0.00568112
H 3.43380270 5.22845203 21.38510267 0.02190035 -0.01712598 0.02050045
H 1.20894221 0.12425833 20.26434594 -0.01777164 -0.00927208 -0.05190814
H -1.20285978 4.73046173 14.18293870 0.00008243 0.00179927 0.01100842
H 0.87863609 9.88985658 15.80749336 0.04238363 -0.00764392 0.00276626
H 5.78368455 3.92060067 19.21033336 0.03528196 -0.03247646 -0.02700485
H 0.28092940 9.34535450 22.45029089 0.01770850 -0.01664447 -0.03401909
H 17.01401684 5.94520387 16.62499162 -0.00165816 0.00080519 -0.00691235
H 2.95393686 1.01494791 13.49315679 0.00774797 -0.00623905 -0.03237697
H -1.37819302 2.45825287 20.36945042 0.01472509 -0.04189556 -0.02786775
H 0.20167588 7.63255239 21.66817899 0.01756689 -0.01852249 -0.00171851
H 3.65513806 6.81322872 15.53223357 0.01688809 -0.00880266 0.00269322
H 1.51857204 1.39889345 14.36756961 0.04504686 -0.00580997 -0.00100479
H -1.50587920 3.76032436 19.25016859 0.00551602 -0.00951774 -0.00705495
H -1.33342378 8.25714425 22.09348475 0.00506062 0.02205319 0.01796920
H 3.75779905 5.50108325 16.55719914 -0.01077942 0.00265590 0.00005212
H 3.00057426 2.29315596 14.86004353 -0.01094992 -0.01365463 -0.01125418
H -3.20353450 9.25444177 26.36870383 0.00421768 -0.00568149 -0.00583038
H -0.22272574 4.14739604 26.82718820 0.02089467 0.03793020 -0.01817304
H 2.37004325 0.59536338 32.91076354 -0.00463187 0.00696863 0.01994312
H -0.54137091 5.67751638 32.49774908 -0.01847584 -0.01628534 0.00314609
H 2.73803216 8.50903976 24.37950413 0.05369522 -0.01808372 0.02008137
H 0.93507686 3.27164603 28.76567522 -0.00404714 0.01298552 -0.02494790
H -3.54046328 1.27900657 34.97372700 0.01662727 -0.02323701 0.02466603
H -1.56146437 6.16253081 30.35863610 0.00910229 0.01080504 0.00202390
H 0.99955878 6.43986641 34.20459543 -0.00421383 0.00742787 0.00419435
H 0.95240412 1.91750060 30.62846652 -0.02691526 0.00982118 0.00577812
H -1.87324176 3.10674294 24.86499877 0.00837506 -0.00369176 -0.00280935
H -1.64418296 7.85433718 28.60288561 0.00938533 0.00453885 0.01273299
H -0.38800782 5.53262037 23.65514621 0.00273515 -0.00280662 0.00525249
H -3.21241554 0.83892097 29.84233363 -0.00863481 0.00369526 0.00326328
H 4.09767123 4.17487189 0.03863052 -0.03865657 0.01602190 -0.00829258
H 2.29752188 9.23804615 29.53941483 -0.00898050 0.01440104 0.00105244
H -0.43159461 7.25953197 25.47081821 0.01699228 0.01012672 0.00074486
H -3.22522632 2.41698903 28.08172691 -0.01111043 0.00428877 0.00551694
H -0.54358222 2.72073244 33.74257198 0.02024839 -0.00194747 -0.00385775
H 2.24772256 7.58813829 31.53467580 0.00037962 -0.01961546 0.00218361
H 1.94107404 4.83995564 33.20093708 -0.00829980 0.00474310 -0.01830144
H 0.00251265 0.05749103 31.73543977 -0.02414428 0.02577336 -0.01241056
H -2.94983490 4.78417791 25.91082716 -0.00277403 0.00694087 -0.00966438
H -0.51065578 9.72921052 27.39602969 -0.00566616 0.00168516 -0.00977606
H 4.59350553 3.42270694 31.32355541 -0.04391472 0.03351819 0.02654866
H -2.39280596 8.40553326 34.25097569 -0.01767622 0.01211873 0.02351836
H 15.74446026 7.21694495 26.92324957 -0.01818447 0.01201494 0.00342259
H 1.13375744 0.82897619 25.01147403 0.00272841 -0.00949616 -0.00137589
H -2.28818249 3.38925247 31.49852217 0.00408181 -0.01724223 -0.02373397
H -0.73346257 8.32935124 33.49274286 -0.01745831 -0.01411767 0.02782963
H 1.75261613 6.07477018 28.26630648 0.01254850 -0.01169795 -0.00990109
H -0.08063834 1.57805529 26.13197175 -0.01276737 -0.01115183 0.00298060
H -3.62687413 4.61306193 31.10293036 0.00961950 0.02291697 0.00533555
H -1.92583172 7.20778448 32.91458293 0.01658241 0.02536355 -0.01668537
H 3.46783041 6.26880390 27.82178761 0.03897627 0.00557883 -0.00126271
H 1.62942109 2.04973477 26.21023159 0.00586658 -0.02117467 -0.00011383
H -0.11801299 18.22438924 2.66480554 0.00603591 0.01029842 -0.00000318
H 2.92968656 13.61356940 3.20217042 0.02443047 -0.00116384 -0.02124265
H 5.34583243 10.24812542 9.08277576 -0.02194931 -0.01792341 -0.01517368
H 2.38684368 14.90173525 8.74202836 0.00394824 0.00269212 -0.00488208
H 5.73818852 17.88153938 0.69148092 0.00978241 -0.01571489 0.01029737
H 3.99022073 12.84434349 5.35548176 -0.02960253 -0.00727180 -0.01601280
H -0.41280510 11.12564337 11.08228693 0.01835734 -0.03056919 0.00911260
H 1.42082065 15.70133999 6.63236309 -0.00250535 0.02171197 -0.01105752
H 3.83367643 16.19200545 10.62540347 0.02469021 -0.00984568 0.03179392
H 3.93876421 11.31313975 7.16866182 -0.00919335 -0.02393490 -0.00905792
H 1.30522116 12.69856956 1.16712563 -0.00151970 -0.00931754 -0.01115131
H 1.54845393 17.27643420 4.65930241 0.00349880 0.00860778 -0.02120091
H -2.11998538 14.78054585 35.20198559 -0.00244121 0.00879890 0.01128498
H -0.01479670 9.94485848 5.92935437 -0.01553158 0.00981846 -0.00419776
H 2.40631888 13.64814091 11.98557251 0.03138681 -0.00826980 0.01167677
H 5.34557286 18.50472619 5.88712230 0.00593138 0.00528764 -0.01058234
H 2.69144383 16.33360010 1.59903154 0.01067048 -0.01437354 -0.01187194
H 0.09723885 11.59724565 4.03466485 -0.00576416 0.01059586 -0.01283988
H 2.37757226 12.02366599 10.18537079 0.01558975 -0.00568149 0.00509660
H 5.27448737 16.90774173 7.73990540 -0.00075076 -0.00952504 0.00510788
H 4.78822957 14.26072628 9.78389960 -0.01894781 0.00995077 -0.02211430
H 2.98328669 9.68618423 8.20116131 0.04265843 0.02181429 0.03800233
H 0.26492865 14.45550268 2.25587642 0.02309136 -0.00098307 0.02214445
H 2.44109274 19.33697419 3.90707225 0.01255984 -0.01119748 0.01698805
H 7.47974923 12.26460040 8.65698771 -0.01539720 0.02733594 0.01311000
H 1.47653713 16.90829958 9.45255974 0.00121565 0.01109129 0.00290547
H 19.50879573 16.36456766 3.71425976 0.00315629 -0.00215290 -0.00550009
H 3.08468459 10.93028724 2.42656966 0.03964047 -0.01931889 0.00935305
H 19.16924008 13.14638020 7.89619616 -0.00810171 0.01267749 -0.00577092
H 0.75738297 18.23391341 10.63685836 0.01745033 0.01655093 -0.01788920
H 4.49422107 15.52364759 4.31874994 -0.01679628 0.01704266 -0.02228033
H 4.58954020 11.77059648 2.77129984 -0.01365048 -0.01010877 -0.00847724
H 0.05903092 12.13486421 8.68819167 0.00856344 -0.00866403 -0.00306092
H 2.48089015 18.25330109 9.97201170 0.00988813 -0.02168527 0.04613101
H 6.14325527 14.95693511 4.22009424 0.00284619 0.02166224 0.01573528
H 4.53370191 10.64804238 1.40232406 0.03243204 -0.01256341 -0.00382876
H -1.82182032 18.77037501 14.36738113 0.02501250 -0.01474804 -0.01401935
H 1.11965886 13.58753846 15.22286316 0.01910851 0.00152592 0.00044554
H 3.93042273 10.41406346 21.27512727 0.00944566 -0.03351008 0.00846490
H 0.95882431 15.19715669 20.66161726 0.01336988 -0.00755467 -0.00897327
H 3.89585029 17.85578353 12.21901062 0.03627939 0.01387052 -0.01288024
H 2.11474981 13.20070744 17.29738297 0.00545689 -0.01085896 -0.00759108
H -2.10587110 10.77205901 22.86662218 -0.00503730 0.02557092 0.00387117
H -0.29479230 16.17217231 18.70298848 -0.00250362 -0.01493069 0.00719663
H 2.20872750 16.66833330 22.78216076 0.02811674 -0.01010858 0.02069173
H 2.24022181 11.40512690 18.98154026 -0.03405321 -0.00060254 -0.00022545
H -0.49755207 12.62650318 12.98794989 0.02321789 -0.00347336 -0.01371830
H -0.14704278 17.34495430 16.50291227 -0.01872298 -0.00898779 -0.00994381
H 0.86539388 14.93779200 11.57245549 0.01475383 -0.00298700 0.00676620
H -1.68202283 10.29461825 18.19913495 0.01285916 -0.00533515 0.00884742
H 0.96703601 13.90361974 23.96993058 -0.00380259 -0.01270081 0.01292083
H 3.74655662 18.69915944 17.40863827 -0.01194014 -0.00446329 -0.00232875
H 1.08768181 16.56083945 13.50967623 0.01310222 0.01307859 -0.01530537
H -1.78274644 11.86218670 16.28525073 -0.01666207 0.01954606 -0.03295807
H 1.03364764 12.18480699 22.07650361 0.01263247 -0.00807003 -0.00860980
H 3.65476878 17.06713837 19.43972381 0.00817331 0.00878374 0.03694041
H 3.15585076 14.54998263 21.64606286 -0.00525059 -0.01341555 -0.01338857
H 1.28048659 9.39805716 19.94450933 0.03862000 -0.01647622 -0.00242867
H -1.43796857 14.50758260 13.84829213 -0.00729814 -0.01434686 -0.01251714
H 0.75215390 19.11040841 15.45888439 0.00085199 -0.02353688 0.01276855
H 4.33464234 14.34948028 19.44843533 -0.00115407 -0.01173421 -0.00526559
H 0.42251508 18.31616840 21.84338350 0.01777577 -0.02268656 0.00952932
H 17.12596764 16.60937413 15.09247414 0.02104853 0.01077554 -0.00223424
H 2.91113251 10.37792155 13.38041296 0.00720729 -0.00667801 0.00523672
H 17.83534891 13.38626801 19.72104108 -0.03561343 -0.00248074 -0.00175245
H -0.67608832 17.08307287 21.07537161 0.00734813 0.03561714 -0.00409138
H 2.97208809 15.22289669 16.44082705 -0.01915348 -0.00802287 0.04745600
H 1.56148316 11.29239577 14.56931141 -0.02039570 0.02468000 0.00837936
H -1.38338965 12.23605141 20.07779699 0.01578506 -0.02055564 0.00812355
H -1.40119550 18.26223739 22.14098814 0.01390579 0.01158839 -0.00694806
H 4.52769470 15.89846677 15.82979770 -0.00081714 0.00367277 0.00268360
H 3.31286853 11.74524954 14.52059061 -0.00281126 0.02128111 0.00892098
H -3.36934891 18.44639958 26.30860373 -0.01981454 -0.01258710 0.00759578
H -0.52865291 13.58405246 26.84768844 -0.01280776 -0.01308415 0.00463299
H 2.37621920 10.30180780 32.77585973 0.00130891 -0.02995893 0.02592645
H -0.49968742 15.08097513 32.39946649 -0.01514134 0.00307223 0.02838513
H 2.38551082 17.91655247 24.85792328 0.02623011 0.02628276 -0.00158485
H 0.74366783 12.80159253 28.80013593 -0.01769185 -0.01429811 0.00255302
H -3.47911072 11.13620866 34.84159260 -0.02009343 0.00390010 0.00857506
H -1.70279470 15.62407244 30.17966014 0.00130295 -0.01465714 0.01364983
H 1.03060782 16.44094036 34.31199337 0.01241458 -0.01222126 0.00377524
H 0.58645722 11.69276446 30.96260427 0.00518167 0.00063220 -0.00134817
H -1.95123144 12.30620367 24.86788086 0.00560462 -0.03370536 -0.00440144
H -1.95905760 17.69142609 28.74352049 0.01626322 -0.01748901 -0.02347309
H -0.47558172 14.95438157 23.62028785 -0.00678697 0.00936484 -0.00092888
H -3.28876227 10.13092964 29.93544789 -0.02210345 -0.00291957 -0.00311802
H 4.10341913 13.71191125 0.21274665 -0.01034207 0.01188568 -0.00467709
H 1.97598762 19.00375305 29.73033788 0.01533138 0.00259390 0.01481023
H -0.51330568 16.78592251 25.46598864 0.00864217 0.00728883 0.00319497
H -3.34785058 11.69234521 27.95808931 0.01693129 -0.00948061 0.00908357
H -0.77633873 12.03382372 34.00262390 0.03064746 0.00951309 0.01188478