2160
Time=31000.00000001 pbc="T T T" Lattice="20.51457442 0.00000000 0.00000000 0.00000000 29.01029216 0.00000000 -4.73596859 0.00000000 35.66397310" energy=-13802.24056828 virial="-34.27029597 -20.68161867 39.68602343 -20.68161867 -35.58568911 4.19958196 39.68602343 4.19958196 -66.12443468" stress="0.00070289 -0.00095894 0.00189319 -0.00095894 0.00066922 0.00019764 0.00189319 0.00019764 -0.00081408" Properties=species:S:1:pos:R:3:vel:R:3
O 0.65373198 8.76368729 2.18042413 0.00166598 -0.00512374 -0.00226864
O 1.80810198 4.05687503 3.66815024 0.00003945 -0.00658388 -0.00390043
O 4.43020448 1.18200060 9.63561773 0.00158314 0.00669761 0.00480854
O 3.11806892 5.87571208 8.43190321 -0.00249267 0.00255449 -0.00460860
O 1.43325699 4.82822089 9.86048362 0.00399592 -0.00107464 0.00035842
O -0.28770407 9.67938239 8.52076514 0.00339713 0.00437598 -0.00406254
O 3.90094327 4.64450557 2.45265777 0.00244314 0.00703983 -0.00402983
O 5.36242303 28.96505385 3.53478074 -0.00128090 0.00255673 0.00159815
O -0.83099886 8.65666217 14.32508684 -0.00098387 -0.00028620 -0.00204125
O 0.15051404 3.92556787 15.70776911 0.00060502 0.00460942 -0.00080677
O 2.89138968 1.14654058 21.24233971 0.00063525 -0.00724863 -0.00675102
O 1.69255703 6.18263345 20.34483238 -0.00444547 -0.00084080 -0.00185370
O -0.28493972 4.64712726 21.47547496 0.00391661 -0.00787363 0.00269246
O -1.62311329 9.66078595 20.30695315 0.00188915 -0.00098860 0.00159864
O 2.38100759 4.98310878 14.18922945 0.00038885 0.00369968 -0.00194106
O 3.83017276 0.11669170 15.34154637 -0.00117587 -0.00000071 -0.00735526
O -2.56517574 8.63413412 26.02571248 -0.00161889 -0.00079687 0.00240283
O -1.24751371 3.45911194 27.26283289 0.00382718 -0.00304570 0.00208569
O 1.28149611 1.30945613 33.13670015 0.00191283 -0.00034067 0.00278922
O 0.15242667 5.93355328 32.17640067 0.00118034 -0.00621601 -0.00163358
O -1.76616514 4.83608978 33.55607210 0.00404817 -0.00576351 -0.00134770
O -3.55227973 9.97150187 32.06885560 0.00553030 -0.00672304 0.00053481
O 1.01936173 4.58735865 26.29696202 -0.00018462 0.00139866 -0.00214364
O 2.36955114 28.79318025 27.16695969 -0.00010356 -0.00070631 0.00008252
O 0.79618700 17.87445366 2.65509014 -0.00188658 -0.00230823 -0.00104840
O 1.78156044 13.58688500 3.98819329 0.00106158 -0.00282553 0.00146244
O 4.65926527 11.07666265 9.35230743 0.00147603 -0.00320278 -0.00271724
O 3.60707719 15.43248040 8.62923808 0.00238159 0.00665995 0.00283167
O 1.49817072 14.70409575 9.69231312 -0.00156401 -0.00447891 0.00667233
O -0.32993541 19.46605459 8.52814570 0.00315273 -0.00054608 -0.00505134
O 3.82109830 14.31167033 2.55575684 -0.00177201 -0.00628749 -0.00279755
O 5.36642797 9.78363197 3.91354436 0.00042285 -0.00359313 0.00553635
O -0.62131383 18.34934249 14.24567132 -0.00432586 -0.00502813 -0.00154863
O 0.19003213 13.48543631 15.66623133 0.00385169 0.00072188 0.00301247
O 3.15555101 10.89207073 21.17689162 -0.00337175 0.00278639 -0.00072908
O 1.90059347 15.65617460 20.42613025 0.00117595 -0.00322248 0.00704893
O -0.18253548 14.48009189 21.44834232 -0.00367083 0.00157754 0.00257612
O -1.83138002 19.49012962 19.98336895 0.00081337 -0.00756642 -0.00224165
O 2.40746912 14.16123913 14.44838642 0.00050719 0.00244554 -0.00608778
O 3.96614164 9.67787168 15.27109333 0.00905369 -0.00059453 0.00025120
O -2.18697169 18.21624017 26.24981429 -0.00408355 0.00672480 -0.00449587
O -1.09838665 13.27441806 27.36456028 0.00135789 -0.00049722 -0.00492539
O 1.02849360 10.55768953 33.78346922 0.00327601 -0.00014464 -0.00038973
O 0.24823579 15.22735276 32.03507883 -0.00377236 0.00143636 0.00325382
O -2.04321357 14.77564591 33.19036364 -0.00241925 0.00168593 -0.00222245
O -3.41500923 19.34303370 31.70498961 -0.00191368 0.00523378 0.00254357
O 0.91102531 14.28772436 26.07028623 0.00159121 -0.00389496 -0.00090193
O 2.10562422 9.40681565 27.29403251 0.00035838 -0.00203231 0.00080738
O 0.55193018 27.63116965 2.44134400 0.00030463 -0.00001914 -0.00264588
O 1.64112267 22.93254424 3.45975606 -0.00081526 -0.00148378 -0.00271405
O 4.67492398 20.97234556 9.36950557 0.00108679 0.00041116 -0.00024270
O 3.31306908 25.40947720 8.31116925 0.00552686 0.00230150 -0.00208748
O 1.02213288 24.56112657 9.08666550 0.00496583 -0.00147083 -0.00176059
O -0.34342353 0.31535244 8.19619332 0.00794131 -0.00460650 0.00089655
O 3.86749555 23.68159014 2.35186019 -0.00144690 -0.00433799 -0.00061171
O 5.54728414 18.92039496 3.73465151 -0.00068334 -0.00158806 -0.00187988
O -0.83997071 27.90092965 14.34348621 -0.00061682 0.00111210 0.00092096
O 0.28803503 23.13494927 15.33006333 -0.00958615 0.00211289 -0.00074321
O 2.96211855 20.43815860 21.07431578 -0.00148492 0.00112710 -0.00278476
O 1.69773113 25.02047775 19.99965960 -0.00431534 -0.00604193 -0.00013359
O -0.22792094 23.88778168 21.33774272 -0.00632584 -0.00029411 0.00102781
O -1.77523604 28.82670630 20.18969820 0.00306744 -0.00148839 -0.00108027
O 2.16586865 24.36569341 14.17006871 -0.00592662 0.00375608 -0.00249626
O 4.06723232 19.47386343 15.87889475 -0.00475381 -0.00488712 0.00186847
O -2.45726807 27.63643325 26.15695378 0.00000588 -0.00289280 -0.00100624
O -0.66985951 22.46145430 26.76430771 0.00140510 -0.00631043 0.00397328
O 1.65287912 20.68180226 32.86044190 -0.00008878 0.00017513 -0.00752287
O 0.46838804 25.24106002 32.11242855 0.00744287 -0.00037497 -0.00167725
O -1.66803374 24.42608016 33.34432263 0.00161693 -0.00624268 -0.00420256
O -3.41252773 28.83814279 32.13238536 0.00099898 0.00308911 -0.00133160
O 1.06533540 24.23846531 25.71643913 0.00227521 0.00213254 0.00864164
O 2.38056120 19.42261181 27.75472458 -0.00197635 -0.00313085 -0.00183139
O 7.12543762 8.64885704 2.38578960 -0.00233823 -0.00018571 -0.00112545
O 8.57103935 4.20264760 3.69126088 -0.01160876 0.01042615 -0.01015380
O 11.40303403 1.30069886 9.44188056 -0.00481566 0.00596257 -0.00066975
O 9.97344847 5.91399896 8.28518017 0.00049350 -0.00342793 0.00141057
O 7.92213233 4.87575561 9.49278111 0.00039064 0.00371455 0.00333477
O 6.70347376 9.72682578 7.88316772 0.00571850 0.00119133 -0.00284189
O 10.76809778 4.74322747 2.23549859 -0.00084411 0.00027462 0.00137228
O 12.34697556 28.99263809 3.51577604 0.00489286 0.00051291 0.00444542
O 6.05464232 8.62387855 14.26460069 -0.00106669 -0.00705672 0.00501597
O 7.17296548 3.84536863 15.42212656 0.00754051 0.00376888 0.00063475
O 9.77082610 1.20427277 21.23657313 0.00417671 -0.00057070 0.00248092
O 8.59647991 6.17174938 20.19973934 0.00285587 0.00743141 0.00241291
O 6.47290517 5.38999383 21.30986760 0.00141401 -0.00200283 0.00274686
O 5.08261975 9.94496123 19.84214079 -0.00471387 0.00113981 -0.00169799
O 9.46271543 4.80119959 14.38584723 0.00532411 -0.00222948 -0.00505526
O 10.56121284 0.32034059 15.44308772 0.00069403 0.00137945 -0.00376016
O 4.45304121 8.59275526 26.15707359 0.00244129 -0.00059929 0.00017294
O 5.66824652 3.47236474 27.04613510 0.00391743 -0.00274057 -0.00239432
O 8.03385734 0.98986408 33.29069496 0.00029785 -0.00244168 0.00140579
O 6.89254796 6.25076302 32.34881424 0.00113633 0.00411782 0.00087646
O 4.78524181 5.01526305 33.19934714 -0.00096970 -0.00145989 -0.00167650
O 3.17763402 9.68311590 32.19104181 0.00071874 -0.00261807 -0.00558169
O 7.62440327 4.81917243 25.92318330 -0.00260733 0.00327459 0.00081453
O 9.26457381 28.69053556 27.11351566 -0.00254464 0.00773228 -0.00673081
O 7.55586635 18.31250962 2.28950453 0.00212783 0.00133531 0.00066487
O 8.79941101 13.94634834 3.80041891 -0.00039813 0.00286286 0.00450311
O 11.60733638 10.64313379 9.32430591 0.00050830 -0.00168797 -0.00288395
O 10.34544843 15.51261016 8.40421070 0.00558737 0.00021186 0.00063550
O 8.06415649 14.68021371 9.50385600 0.00085699 -0.00643293 0.00231749
O 6.53299054 19.39697100 8.42951906 0.00448322 0.00363423 -0.00476128
O 10.91300883 14.59339502 2.37562154 0.00010136 -0.00220903 0.00443528
O 12.15752055 9.76234716 3.72145349 -0.00934472 -0.00046334 -0.00413732
O 6.06085901 18.42833320 14.64328766 -0.00253762 0.00302022 -0.00040380
O 7.34838454 13.36824870 15.00957355 0.00146857 0.00429908 -0.00424349
O 9.57604098 10.68772296 21.36188699 0.00217296 0.00013432 -0.00316680
O 8.77903405 15.42856268 20.41017219 -0.00135910 0.00150632 0.00364196
O 6.65103520 14.54367632 21.55439679 0.00058984 0.00058117 0.00316819
O 5.05074618 19.30722428 20.14290724 0.00465909 -0.00156545 0.00200253
O 9.20489206 14.69479792 13.95471314 -0.00423223 -0.00091798 -0.00061033
O 10.76454830 9.60624052 15.50338055 -0.00089828 0.00345204 -0.00284333
O 4.56168353 18.38894512 26.13542743 0.00163464 -0.00418173 0.00150917
O 5.45171542 13.33966750 27.38544377 0.00431080 -0.00184672 0.00087458
O 8.05450104 10.71024173 33.24745900 -0.00185018 -0.00199057 0.00183944
O 7.08022762 15.82696642 32.16912239 -0.00276880 0.00051419 -0.00204365
O 5.12154343 14.54971120 33.19842446 0.00251688 0.00076465 -0.00116417
O 3.49468723 19.10139230 31.81481403 -0.00501059 -0.00139996 0.00342978
O 7.78166357 14.09720202 26.31412413 -0.00349534 -0.00002660 -0.00151950
O 9.08770124 9.52123936 27.38663075 0.00136726 -0.00128085 -0.00330173
O 7.49281300 28.13140885 2.08513271 -0.00664795 -0.00378603 0.00919737
O 8.90386898 23.08529858 3.75785815 -0.00391247 -0.00192335 -0.00513628
O 11.38638871 20.44810030 9.60944763 -0.00247387 -0.00001650 0.00501066
O 9.90857781 25.84482555 8.55181981 -0.00203178 0.00477613 0.00046668
O 8.04071045 24.10505496 9.62508265 0.00137869 0.00439544 0.00119875
O 6.48998076 0.22845922 7.95626664 -0.00658692 -0.00302660 0.00473144
O 10.73248919 23.95118673 2.24089375 -0.00126624 0.00475766 -0.00000915
O 12.13069526 19.24786975 3.66677410 -0.00384050 0.00042422 0.00226989
O 5.91461690 28.00944701 14.24468554 0.00332450 -0.00718012 0.00437401
O 7.02479453 23.16118340 15.56822426 0.00683954 0.00133964 -0.00114283
O 9.88274260 20.31729995 21.72281239 0.00017170 0.00310968 -0.00008330
O 8.67050020 25.32262022 20.01932491 -0.00038377 -0.00160682 0.00767470
O 6.69535868 24.47052936 21.38359504 0.00080823 0.00406055 -0.00406689
O 4.94795055 28.94067970 20.34637026 -0.00104913 0.00027832 0.00993111
O 9.07852353 24.20410423 14.25430237 -0.00235865 0.00038237 0.00513284
O 10.59576384 19.03816249 15.49491139 0.00449621 0.00018254 0.00012304
O 4.53602629 27.63756093 26.21556711 0.00332788 0.00154456 0.00160739
O 5.69269345 22.88378376 27.30901246 0.00390626 -0.00273969 -0.00349899
O 8.29482001 20.40340700 33.33531321 -0.00217243 0.00124260 -0.00039004
O 7.06841043 25.24867800 32.04719897 0.00033264 0.00322976 -0.00082404
O 4.96157193 24.61919111 33.36855544 -0.00255897 0.00037688 0.00045976
O 3.45094300 0.42049515 32.17052512 -0.00842670 0.00259697 -0.00062123
O 7.77434355 23.95489917 26.15261020 0.00307306 0.00396491 -0.00362192
O 9.29365249 19.44879156 27.56858486 -0.00393088 0.00293308 -0.00008958
O 14.23035067 8.77519078 2.37177565 0.00439722 -0.00478396 -0.00266764
O 15.76408346 3.83683994 3.27645295 -0.00069915 -0.00030603 -0.00411889
O 17.94269651 0.75667347 9.56638245 0.00324060 -0.00046396 0.00266567
O 17.04024530 5.56848224 8.03354995 -0.00126142 0.00404340 0.00391085
O 14.99963407 4.64483885 9.57281276 -0.00319043 0.00155691 -0.00713599
O 13.61150201 9.56965014 8.12538718 -0.00547264 -0.00483009 -0.00792475
O 17.54672401 5.23430894 1.94394026 -0.00596075 0.00707391 -0.00594909
O 19.20995678 28.86907146 3.57965007 -0.00223901 -0.00562205 0.01229267
O 12.80329973 8.81603070 13.98377395 0.00011116 0.00039460 0.00031613
O 14.00937562 3.78226345 15.16444233 -0.00195125 -0.00113487 0.00506573
O 16.72498484 1.14405904 21.35513283 -0.00359031 0.00488138 -0.00157787
O 15.43621277 5.98912486 20.43860745 -0.00157968 0.00496984 0.00183995
O 13.43853065 4.85277684 21.38286595 0.00413466 0.00243496 -0.00313707
O 11.82409520 9.85874367 20.32709590 -0.00318364 -0.00176506 -0.00426788
O 16.11184318 4.94112014 13.95439888 -0.00416467 -0.00084303 0.00413018
O 17.53479004 28.83578648 15.36274985 0.00195077 0.00513170 -0.00412561
O 11.27141704 8.70758047 26.12276075 0.00201717 -0.00180158 -0.00248355
O 12.42498382 4.08893919 27.57184543 -0.00560493 -0.00111279 -0.00409632
O 15.20573434 1.25842520 33.23489085 -0.00006337 0.00688588 0.00022136
O 13.75449291 5.89909769 32.16288039 0.00018773 0.00390622 -0.00196442
O 11.55903295 4.95435898 33.35638942 -0.00623536 -0.00508658 0.00174558
O 10.30333204 9.70599318 32.16497247 -0.00212788 0.00063956 0.00030995
O 14.55449446 4.71890778 26.00032741 0.00156994 -0.00235399 -0.00268809
O 16.14692111 28.73158119 27.55838841 0.00275921 -0.00059832 -0.00147701
O 14.14146030 18.10653156 2.63323076 -0.00414780 0.00075504 0.00363946
O 15.72914177 13.18507658 3.31129996 0.00181564 0.00098948 -0.00022068
O 18.09676949 10.85701818 9.55534957 -0.00011777 0.00343317 -0.00055831
O 17.16429556 15.77844475 8.49323085 -0.00377446 0.00143746 -0.00121573
O 14.97753772 14.63263066 9.47912401 -0.00115460 0.00290180 0.00104432
O 13.49897732 19.21362968 8.45920546 -0.00268871 0.00370907 -0.00363101
O 17.66100812 14.79107787 2.44623271 -0.00244969 0.00599678 -0.00274247
O 19.27141234 9.62399636 3.69354154 0.00063445 0.00095225 0.00241623
O 12.84826287 18.32511792 14.34247046 0.00062906 0.00140902 0.00134257
O 13.91856412 13.33102297 15.43336487 0.00614570 0.00383901 -0.00242595
O 16.73358139 10.79614524 21.33399564 -0.00317842 0.00245851 0.00608328
O 15.62287513 15.53159951 20.15258465 0.00506762 0.00078407 0.00468972
O 13.37326082 14.75341610 21.24416135 0.00636714 0.00224377 -0.00052530
O 11.92634415 19.32690878 20.25493289 -0.00077711 -0.00067523 0.00376649
O 16.04258668 14.51814387 14.29783234 -0.00261342 -0.00117294 0.00529596
O 17.55448848 9.30543370 15.40693775 -0.00303273 -0.00144942 -0.00155409
O 11.27567103 17.90921564 26.40890581 -0.00055820 -0.00286160 -0.00069361
O 12.49179910 13.35755625 27.37014538 0.00025337 -0.00445723 -0.00460477
O 14.79431943 10.70760658 33.53062595 -0.00190249 0.00197679 0.00435125
O 13.79697786 15.52119973 32.26144875 -0.00376315 -0.00427683 -0.00127488
O 11.76023937 14.39663695 33.55404680 0.00034012 -0.00022638 0.00055570
O 10.34061053 19.47151963 32.03869057 -0.00255541 -0.00143888 -0.00031450
O 14.49841030 14.26799618 26.13449514 -0.00379293 -0.00294666 0.00102752
O 15.97650081 9.39948378 27.48151135 0.00103260 0.00136892 -0.00379550
O 14.16682302 28.18864274 1.90427456 0.00379630 0.00094433 0.00553059
O 15.65389667 23.02018690 3.59580933 -0.00095041 -0.00103950 -0.00502108
O 18.03254385 20.56251061 9.63793457 -0.00066588 -0.00134085 0.00040300
O 16.86351509 25.78007763 8.42534304 0.00074914 0.00495453 -0.00146616
O 14.82985060 24.71564037 9.63743185 0.00306861 -0.00162215 0.00209184
O 13.39956562 0.49526836 8.03370882 -0.00213759 -0.00198580 -0.00083853
O 17.64158064 23.78975762 2.12538663 -0.00015588 -0.00062033 0.00529734
O 19.11524577 19.04063949 3.57978965 -0.00391781 -0.01108730 0.00142283
O 12.52132002 28.30726424 14.14063035 0.00019265 -0.00053556 -0.00590176
O 13.77172901 23.21810816 15.54339197 0.00209071 -0.00196916 -0.00002827
O 16.88548716 20.30169157 21.37159094 -0.00179444 0.00641770 0.00033541
O 15.58931127 25.25626391 19.97358359 -0.00329146 0.00504380 -0.00100558
O 13.41013504 24.28969335 21.02669373 0.00210017 -0.00461343 0.00421422
O 11.88542802 0.10272299 20.01673407 0.00330762 0.00055757 0.00194006
O 15.88221405 24.30301554 14.28101957 0.00063540 0.00023307 -0.00030594
O 17.53410684 18.95470924 15.19675789 -0.00196643 0.00247002 -0.00579480
O 11.68744776 27.97971496 26.05955207 0.00282037 0.00219131 0.00178055
O 12.84722158 22.51705993 27.17723336 -0.00181931 0.00117152 0.00226106
O 15.18689096 20.37602052 33.02737564 -0.00108650 0.00003020 -0.00200165
O 14.06613278 24.71236685 31.92070853 -0.00087808 -0.00266950 0.00255064
O 12.05811195 24.38589340 33.32493807 0.00522974 -0.00017253 0.00190237
O 10.27368820 0.08388676 31.94487338 0.00373330 -0.00068437 0.00465345
O 14.67870293 23.93192769 26.16918289 0.00150724 0.00319155 -0.00196686
O 16.16885765 18.93668419 27.37967313 0.00174381 0.00121182 -0.00156765
H -0.23944549 9.09414329 2.65473979 -0.00745532 -0.00691226 0.00084911
H 2.68847425 4.24483824 3.23818236 -0.01126314 -0.04780376 0.00800343
H 5.26813395 0.83243167 9.29413989 -0.01784761 -0.00132260 0.00959591
H 2.39277594 5.29131960 8.82921344 0.02220117 0.02298188 -0.00406007
H 5.14161499 8.06351329 0.77325428 -0.01096141 -0.00074744 0.01434527
H 3.92383074 3.24115981 5.10556756 -0.01188996 0.01174515 0.02043203
H -0.42859840 1.34491187 11.01197426 -0.01345207 -0.01530930 0.00020291
H 0.98173634 6.48010946 6.91359103 -0.01890339 0.00203903 0.00716277
H 3.92921258 6.77057483 10.78682476 0.01768879 -0.01123434 0.01200454
H 3.76364448 1.87629487 7.04656291 -0.01087211 0.01978768 0.00470295
H 1.06271360 2.79456684 1.50088051 0.01757631 0.02174055 -0.01967427
H 1.11262463 8.12107013 5.04230974 -0.00835649 -0.00110643 0.01360840
H 2.58617664 5.21783023 0.15381560 0.00570001 -0.01364354 -0.01073760
H -0.08695922 0.76677171 6.14429502 0.01042016 0.00925283 -0.00248046
H 2.49496416 4.47818149 12.11308994 -0.00911213 0.00722540 0.00009526
H 5.11772379 8.94815048 6.00373574 -0.02457928 -0.00246560 0.01671875
H 2.58233221 7.11064654 1.75780074 -0.00182066 0.01601937 -0.00409853
H -0.21914735 2.61073738 4.35531510 0.00906164 0.01066981 -0.01740372
H 2.55198352 2.79140598 10.27223650 -0.00335255 -0.01054626 0.00188028
H 5.10431331 7.60188941 7.80245073 0.02332446 0.00552820 -0.01754682
H 4.88935826 5.09693346 9.68398078 -0.01222039 -0.00354843 -0.03233493
H 2.83554186 0.15783339 7.94825522 0.01571138 -0.00315699 0.01129324
H 0.14371045 4.78029111 2.37924110 0.00591957 -0.00197822 -0.01307023
H 2.17491759 9.51815615 3.71580105 0.01556257 -0.00490764 0.00631378
H 5.32453088 3.61582728 8.06005202 -0.00059391 -0.00469668 0.01559860
H 0.46093374 8.53397094 10.68973480 0.00880216 -0.00785766 0.00454530
H -0.36281490 6.20451210 3.93145386 0.00381318 -0.00165757 0.00475355
H 4.52960910 0.89709144 1.27286310 -0.00168081 0.00030567 -0.00029535
H -0.88264665 3.11639235 8.42346395 0.00319024 0.00124625 0.01009121
H 2.20692823 8.82220705 10.29968230 -0.01911167 0.01989406 0.02222903
H 4.45048297 6.45954962 4.19342154 0.00676709 -0.01187383 0.01504391
H 2.76553385 0.73205765 1.65124905 -0.01850018 0.00854157 -0.01053855
H 0.88946647 3.08771693 8.05731545 0.00647558 0.00221867 -0.01194203
H 1.16143545 7.49295568 9.56055058 0.00508992 0.03398709 -0.00097434
H 5.92224472 5.45961439 4.64220938 -0.02230353 0.00365385 0.01002563
H 3.84704355 2.07999373 2.23978488 0.01109054 0.02896110 -0.00684820
H -1.75188907 8.98081752 14.64753910 0.02824591 -0.01317322 0.00638916
H 0.99965040 4.37138935 15.44967612 0.02656283 -0.00116438 -0.02356659
H 3.71810028 0.60280487 21.05631893 0.02381035 0.00062452 -0.03195482
H 0.80693431 5.63576046 20.26113540 0.02806479 -0.00085935 0.01548336
H 4.27917305 8.66846237 12.30167115 0.01566080 0.01068875 0.02018193
H 2.23503092 3.28651680 17.10431095 -0.00738457 -0.00139187 0.00855073
H -1.69834296 1.48842352 22.93896937 -0.00824761 -0.00298319 0.00926127
H -0.13706698 6.26074304 18.40258889 -0.00786022 -0.01563695 0.01437725
H 2.47923237 6.65429104 22.49588437 -0.01288886 0.01588020 -0.00780752
H 2.23438295 1.70123811 18.88217919 -0.00405505 0.01375861 -0.00326278
H -0.35590528 3.04590571 12.89346665 0.01167187 -0.00707510 0.02016381
H -0.16276191 7.93427173 16.58021667 0.00253700 0.02595217 -0.01011349
H 1.19798866 5.46962922 11.99792624 0.00134726 0.00564573 -0.00886271
H -1.63320894 0.35413534 18.09255373 -0.00201203 -0.00897358 -0.02081161
H 1.01350233 4.37748752 23.75786001 0.00105713 0.02595783 -0.01240926
H 3.89162467 9.10546096 17.64037266 -0.00372365 0.01016547 -0.01591467
H 1.24544300 7.16237334 13.66477367 0.01043326 -0.02685770 -0.00946347
H -1.90647882 2.22708555 16.40606460 0.00521243 -0.01272965 0.00765153
H 0.94246887 2.76260569 21.99042301 -0.00163510 0.01365802 0.01114084
H 3.83394274 7.61889208 19.47867480 0.00676641 0.00190701 0.00157393
H 3.43116062 4.61004522 21.58687377 -0.02444312 0.00281959 -0.00938953
H 1.29284949 28.72806272 19.95677203 -0.02994544 0.00354934 -0.01529203
H -1.28388512 4.54423259 13.94516277 -0.00064313 0.00252256 0.00833900
H 0.83604298 9.69828484 15.52436792 0.01019194 0.01822087 -0.00093519
H 4.72053481 2.89425792 20.32718967 0.00878919 -0.01773481 0.00058761
H -0.73014789 7.82760781 21.88608422 -0.03158038 -0.01218313 -0.00390217
H 17.66835012 6.91619334 15.36439482 -0.00950608 -0.00106502 0.00775817
H 1.23675142 1.84104622 14.34540174 -0.02221503 -0.02740523 0.02081381
H -1.69733472 2.41181606 20.52657509 -0.02294129 -0.00351424 -0.00075444
H 0.22515466 9.20476527 22.56978723 0.00558818 0.02868268 0.01985512
H 4.72963964 5.46062531 16.26945391 -0.00900853 -0.00606128 -0.02646943
H 2.88457380 2.24219717 14.05679121 -0.01350789 0.00759690 -0.00581815
H -1.25788402 3.50362392 19.21605864 -0.02350602 0.01167153 0.00622312
H 1.01265921 8.14831938 21.47612692 0.01020649 0.01598634 0.01741373
H 4.09949185 6.99289476 15.59056794 -0.01248776 0.00422644 0.02516340
H 2.06248754 0.96977759 13.10992698 0.01731992 -0.00310008 -0.02068807
H -3.38696914 8.95034618 26.48385326 0.00918134 -0.01172589 -0.01822800
H -0.36578988 3.84785621 26.99812597 -0.00921851 0.00629439 -0.03098030
H 2.10655054 0.81305479 32.87991540 -0.00918182 0.00222238 0.00772531
H -0.73624350 5.64787674 32.56134822 0.01300292 -0.00752834 0.00738694
H 2.43130717 8.10790027 24.49317544 -0.01470736 -0.00455078 -0.01202673
H 0.62007342 3.47064394 29.18875684 -0.01686987 -0.00138754 0.01918986
H -3.50287546 1.43138830 35.07595213 -0.00414933 -0.01296412 -0.01346129
H -1.85352625 6.12993822 30.41596833 -0.00689392 -0.01402557 -0.00419698
H 0.71075183 6.66132386 34.42935558 -0.00274637 -0.00501827 -0.01573717
H 0.63347537 1.76364226 30.99737622 0.03453719 -0.00657255 0.01823897
H -1.82038670 2.78459633 24.98600006 -0.00062463 0.00703907 0.01610802
H -1.91631905 7.55615770 28.49291257 -0.01554487 0.01552694 0.01950960
H -0.43945888 5.34951306 23.67465932 -0.01860551 0.00694372 0.00924728
H -3.43538080 0.54786016 29.92878434 -0.00182332 0.04175104 -0.01048077
H 3.95919455 4.12321015 0.52217002 -0.02716992 0.01643850 0.00317748
H 1.99610532 9.08839443 29.48314668 -0.00682229 -0.01434580 0.00427844
H -0.45146598 7.23842534 25.16842605 -0.00691351 0.00683585 -0.01038924
H -3.28488049 1.94047007 28.01891874 -0.00193733 0.01932491 -0.01825788
H -0.72625858 2.72702125 34.02454051 -0.01136728 -0.00288011 -0.02057494
H 2.26585659 7.41367800 31.22456582 0.00590634 -0.02148154 0.00714985
H 1.71226967 4.79437461 33.56779351 -0.00021112 -0.01627479 0.02230070
H -0.22950767 28.91032681 31.88095205 -0.00890347 -0.00451922 -0.02826275
H -2.80559391 4.62193552 25.91614819 0.00316798 0.00035470 0.00440063
H -1.03053644 9.48384086 27.43588278 -0.00275364 -0.01271073 -0.03126723
H 3.77275207 2.57705238 32.42502718 -0.00052770 -0.00821679 0.00836901
H -1.86191967 7.81113264 33.37811300 0.01173805 0.01360329 -0.02627895
H 16.43969807 5.21869784 28.46934992 0.02684988 0.00007027 -0.01057876
H 0.54061509 2.03019349 26.22467481 0.00559737 -0.03493219 -0.00731791
H -3.36170767 4.51065380 31.01457955 -0.00706074 0.00962202 -0.00670361
H -3.34163583 8.56694178 34.13153813 0.00085700 -0.00253702 0.00790341
H 3.52113907 6.08933756 27.50169576 -0.03191602 -0.02107822 0.00128290
H 1.51877976 1.06150585 25.18610804 -0.01218860 -0.00852960 0.00440005
H -3.98560260 3.15593868 31.82867619 0.00733829 -0.01593341 -0.00691430
H -1.76647320 9.33339334 34.37739550 -0.00565598 0.01165896 -0.01268115
H 2.33047805 7.14658280 26.60983663 0.00283263 0.01112077 0.01191633
H -0.25333243 0.53309782 25.60379212 -0.03069965 -0.01089317 -0.00162003
H -0.01478272 18.38156315 2.86625342 -0.01092701 0.00182703 -0.02227162
H 2.62928490 13.82434085 3.51170848 -0.00159872 -0.01397346 -0.02753830
H 5.59666477 10.78154629 9.14135179 -0.00915833 0.00559155 0.00149219
H 2.76868073 15.09443443 9.05103467 -0.01159987 -0.01724920 0.01105262
H 5.78827566 18.09944772 0.31555853 0.01383811 -0.00949747 -0.00744541
H 3.80512295 13.25723500 5.65653267 -0.01035951 0.00295959 -0.02235932
H -0.51169496 11.12282726 11.14444873 0.02262974 0.00280668 -0.01286453
H 1.51553415 15.82510303 7.02841797 -0.00683667 0.01510346 0.00787826
H 3.95328176 16.65055919 10.99989729 -0.02151691 -0.01081996 0.01677388
H 3.98966500 11.48610008 7.31160359 -0.00653731 0.00142960 -0.01910833
H 1.13793699 12.46827839 1.45375388 0.02264326 0.00623671 -0.00236350
H 1.34867895 17.54587860 5.10694511 0.00413178 -0.00264178 -0.01052995
H -2.02606155 15.03214360 35.35910985 -0.01894365 -0.00638476 -0.01393062
H 0.02538662 10.10220154 6.28749880 -0.01434576 -0.00033015 -0.02020553
H 2.34074185 13.78282171 12.28018170 0.01354762 -0.00996178 0.00976399
H 5.33807425 18.72557733 5.81022665 -0.00074896 -0.03337782 -0.00269475
H 2.89424045 16.79540241 1.60885217 0.02905475 -0.00130392 0.00612338
H -0.05801633 11.87891666 4.41441234 0.02532613 -0.00166822 0.03386918
H 2.54483554 12.23108103 10.17565688 0.01317134 0.00707078 0.03152172
H 5.42387169 17.27844866 8.02543486 0.00373157 0.00264537 0.02578321
H 4.88805174 14.80955303 10.09880522 0.01862160 0.02160237 -0.00204135
H 2.93994394 9.78807218 8.53042637 -0.02435355 0.00735278 -0.02541145
H 0.31181699 14.35874264 2.46678559 -0.00458759 0.01026119 0.00685099
H 2.34265314 19.40683363 4.03188127 0.02706498 -0.00448237 0.00390462
H 6.79425279 13.98432570 7.50303992 -0.01991884 0.02543103 0.02626386
H 0.21688229 17.75737659 10.04104872 0.02140963 0.03744608 -0.00114622
H 19.47621893 16.68520724 3.73754409 -0.00024412 0.01484411 0.01891236
H 4.54998836 12.08615700 3.26663211 -0.01559617 -0.00684011 0.00810532
H -0.40953066 12.44687055 8.62310549 -0.02647340 0.01429155 -0.02536337
H 1.26629395 18.81427808 10.89397800 -0.00544882 0.01265643 -0.00570026
H 5.22984553 15.09826075 4.83907507 0.00476030 -0.00597145 0.01194031
H 4.34095410 11.28738156 1.79108833 -0.01580887 0.00466995 0.00731026
H 1.17428397 12.94466388 8.02341114 0.02104009 0.00527381 0.01838136
H 1.94829711 17.64283922 9.81017347 0.01019438 -0.03319826 -0.01272760
H 6.23784034 16.10701882 3.78844521 0.01080526 -0.01508363 0.00830072
H 2.85862960 11.44672945 2.72242733 0.00704513 -0.01078028 0.00461916
H -1.48715202 18.52439772 14.68872618 0.02670586 -0.01367805 0.00194178
H 1.06620668 13.78831330 15.18967256 -0.01445288 0.00692149 -0.00895152
H 4.00855814 10.58356075 20.89704700 -0.01781517 0.00511526 0.00398201
H 1.01814056 15.16311326 20.63882818 -0.00373977 0.01518188 -0.01690920
H 4.17211196 18.25893799 12.90435791 0.01272651 0.01240793 0.00658872
H 2.35090243 12.98018700 16.87142540 -0.00382917 -0.03521951 0.00191041
H -1.95810217 10.93571580 23.25547861 -0.00051719 0.02959950 0.00660893
H 0.00829177 16.03949117 18.79289481 -0.01573977 0.02136086 0.00861422
H 2.46896236 16.42073959 22.58948671 -0.00207990 -0.00011126 -0.00600050
H 2.47120400 11.54979320 18.84504800 -0.02489404 -0.01210946 -0.00767487
H -0.37594399 12.41545626 13.25374128 0.00347676 0.00373555 -0.01112446
H 0.04121468 17.33921575 16.66773785 -0.00593391 0.00943830 -0.00578555
H 1.16886848 15.00178176 11.88613497 -0.00245284 0.03225088 -0.00669642
H -1.40238114 10.11791893 18.25957649 -0.00056920 -0.02642642 0.00789319
H 0.90074662 13.60294947 23.96813407 0.02083960 0.01503064 -0.01073794
H 3.97005542 18.66461090 17.64633580 -0.00713890 -0.01411420 0.01237514
H 1.26050017 16.68082015 13.69165933 0.00768596 -0.01526994 -0.01111455
H -1.66942183 11.55543695 16.10918662 0.01694617 -0.01852593 0.00630920
H 1.03769115 12.27014828 21.92014032 0.01349152 0.01035036 -0.02737396
H 3.96182214 17.32700712 19.73307630 -0.02829421 -0.01407071 -0.03930718
H 3.42971390 14.54831744 21.75344424 -0.02511424 0.00576242 -0.01603506
H 1.56848062 9.74132031 20.19025923 0.05040908 -0.00125483 0.01904802
H -1.25820199 14.44283413 14.15780282 -0.00482562 -0.00237984 0.01059859
H 1.04690063 18.88709227 15.44140880 -0.00953632 -0.02526325 -0.01340447
H 5.08599983 14.19592181 19.21767191 -0.01379016 -0.01873991 -0.01679402
H 0.17052164 17.65038295 21.41397123 0.00922115 -0.00120727 0.00298873
H -2.11443772 14.90474962 16.45823161 0.01494202 -0.01863848 -0.01719011
H 1.26937601 10.40247560 13.68134137 -0.01854930 0.01948759 -0.02583962
H -2.50241442 13.71779678 19.33254799 0.00424745 -0.01386223 -0.00366382
H -1.24561018 18.34058186 22.30268105 -0.03279427 -0.01938249 0.00895058
H 3.26572905 15.58729171 16.42049830 0.01898067 -0.00534773 -0.02406886
H 2.76551715 11.15375909 13.31062788 0.01155604 -0.01306295 0.02066577
H -1.88594075 12.39288811 20.33526609 -0.00103735 -0.00511073 0.00793872
H 0.20251610 19.27886572 22.19017348 -0.00855646 0.00088047 0.00645466
H 4.90572488 15.76062023 15.71867249 0.00495017 0.00144192 0.01784935
H 2.64644138 9.53053020 12.81099600 -0.02068871 0.00649622 0.02270219
H -3.01342990 18.54639968 26.79498091 -0.02153954 0.00678532 -0.00311557
H -0.25140780 13.55584385 27.14855996 -0.02309644 -0.00344407 -0.02064582
H 1.90144067 10.35348730 33.21922864 -0.02040950 -0.00040881 0.00043541
H -0.59838907 14.86477588 32.37395008 -0.01023356 0.01305226 0.00704089
H 2.33164231 17.93612258 24.42615681 0.01182575 0.00628018 0.01862481
H 0.76450344 12.91524114 29.09050897 0.00744468 -0.00452585 -0.00120144
H -3.51435648 11.22164185 35.08855455 -0.00216814 -0.02333367 0.01081262
H -1.64901604 15.45842453 30.25280814 0.02122495 -0.00102327 -0.00790463
H 1.00117672 16.13349008 34.49068929 0.01117510 -0.01876092 -0.01389570
H 0.56067164 11.52953585 31.30174180 -0.02177083 -0.00920852 0.00837554
H -1.76029146 12.57695890 24.93774759 0.00652324 -0.01837534 0.00832680
H -1.77491219 17.09801205 28.56727974 0.01358618 0.00668568 0.00474841
H -0.39251347 14.77079672 23.71631747 0.02598594 0.00732559 0.01571195
H -3.28780750 10.24014289 30.03058415 0.01834040 0.01616670 0.00790055
H 3.97704700 14.04891574 0.37914723 0.00236643 -0.00957423 -0.00587336
H 2.17598034 18.56039781 29.56271013 -0.01384696 0.00488626 0.00692812
H -0.30048191 16.49322509 25.58407164 0.00174199 0.02265115 -0.00109520
H -3.08727000 11.53764282 27.83292875 0.00323695 -0.00044014 0.01999392
H -0.90603238 12.23371604 34.22664108 -0.02532929 -0.00161774 0.00851098