2160
Time=65000.00000006 pbc="T T T" Lattice="20.55254975 0.00000000 0.00000000 0.00000000 28.97890126 0.00000000 -4.74145149 0.00000000 35.74659826" energy=-13801.92076778 virial="-7.44638962 1.78447835 84.16550435 1.78447835 -25.83566972 -18.03729555 84.16550435 -18.03729555 17.94894234" stress="0.00189772 0.00009406 0.00397940 0.00009406 0.00111537 -0.00090235 0.00397940 -0.00090235 0.00315929" Properties=species:S:1:pos:R:3:vel:R:3
O 0.78420951 8.61987847 2.05546182 0.00549775 -0.00456685 -0.00095926
O 1.88882913 3.49641128 3.45144654 -0.00666750 -0.00746048 -0.00410402
O 4.55832613 0.91005722 9.45651333 0.00272496 -0.00165681 0.00417085
O 3.26956945 5.89136698 8.24031918 0.00241964 0.00082313 -0.00034765
O 1.39781019 4.71334303 9.67921442 -0.00147390 -0.00033919 0.00407319
O -0.38082580 9.63985355 8.11077308 -0.00504607 -0.00083282 -0.00196910
O 4.08497388 4.40745471 2.34888496 0.00542281 -0.00056121 0.00203028
O 5.48305695 28.91768081 3.84413407 0.00174872 -0.00026234 -0.00174347
O -0.91917066 8.21820250 14.36247602 0.00127442 -0.00092495 -0.00027658
O 0.31278565 3.49889184 15.46661869 -0.00123695 -0.00512867 -0.00111005
O 2.88955043 1.16456873 21.42468589 -0.00407658 -0.00184172 -0.00169624
O 1.62175944 5.84599687 20.37224173 0.00210969 -0.00133770 0.00307685
O -0.55601144 4.83059361 21.53863076 -0.00104629 0.00202248 -0.00418334
O -1.73555943 10.00205774 20.14520123 -0.00208442 -0.00148249 -0.00552466
O 2.55525231 4.48742717 14.44124363 0.00346920 0.00180443 -0.00633344
O 3.68072917 0.01433463 15.88244088 0.00017633 -0.00183262 -0.00117460
O -2.47702785 8.65288925 26.16591833 0.00282616 0.00587446 0.00459281
O -1.28433649 3.47288228 27.19971443 -0.00570990 -0.00127334 0.00237180
O 1.40515673 0.96446823 33.26604556 0.00132786 0.00101766 0.00104914
O 0.27571491 5.71688599 31.93656122 0.00438262 0.00635680 0.00517628
O -2.06121117 4.96442057 33.04475826 0.00362962 0.00304990 0.00004065
O -3.62105558 9.74568374 31.64464289 -0.00382385 -0.00138942 0.00632128
O 0.57791423 4.79550460 26.17682203 0.00171905 0.00266381 -0.00260557
O 2.31680100 0.13102972 27.30852824 0.00033780 -0.00214046 0.00797222
O 0.86205578 18.01380187 2.46455826 0.00083302 -0.00073156 0.00158010
O 1.68617227 13.59731734 3.77250782 -0.00184415 -0.00558244 0.00113551
O 4.64987379 10.62985843 9.27899953 -0.00288151 -0.00216058 0.00058502
O 3.47671117 15.86163234 8.34775992 -0.00090344 -0.00291195 0.00214481
O 1.43177835 14.81069678 9.39394180 -0.00216374 0.00268910 -0.00114618
O -0.24837423 19.36015692 8.35540863 0.00381760 -0.00383272 0.00374453
O 3.93853630 14.10947107 2.44254058 -0.00479050 0.00000735 -0.00183661
O 5.43977364 9.43500766 3.53679858 0.00052258 0.00193489 -0.00272611
O -0.65800292 17.93238196 14.51555745 0.00094288 0.00430385 -0.00124708
O 0.51412160 13.33936814 15.19361332 -0.00807542 -0.00893077 0.00188146
O 2.96658964 10.86456485 21.36591001 -0.00241326 -0.00241943 -0.00481227
O 1.87054266 15.47437499 20.16045278 -0.00150585 -0.00409232 0.00220046
O -0.26479942 14.44551056 21.26916238 0.00540411 0.00052943 0.00262387
O -1.69928852 19.20693977 20.07237654 0.00445933 -0.00271195 0.00325294
O 2.72262465 14.18699555 14.10443647 -0.00462828 -0.00183693 -0.00297331
O 3.97007523 9.57296119 15.61759902 -0.00126304 -0.00020062 -0.00463055
O -2.54506791 18.36054060 25.98120640 0.00370212 -0.00348016 0.00597131
O -1.24888465 13.33689795 27.16433321 0.00006326 0.00235522 0.00143256
O 1.17451594 10.52989700 33.36542746 0.00301689 -0.00133898 -0.00409059
O 0.28020132 15.84920740 32.13494184 -0.00321799 0.00574558 -0.00426593
O -1.76107601 14.70095690 33.06092501 -0.00272545 -0.00493207 -0.00657321
O -3.29630095 19.45619817 32.05508849 -0.00004391 -0.00235042 -0.00387127
O 0.78891262 14.54265043 26.21060579 0.00079217 0.00770309 -0.00371434
O 2.17872453 9.67670563 27.52668521 0.00331932 0.00361886 -0.00010240
O 0.79311358 27.93995228 2.82237155 -0.00243525 -0.00391870 -0.00488509
O 2.12689623 22.58339452 3.45468831 -0.00280220 0.00630004 -0.00117806
O 4.68245962 20.63390305 9.68279366 0.00166065 0.00126152 0.00061987
O 3.36322195 25.46287065 8.75242969 0.00052740 -0.00288307 0.00260558
O 1.54023594 24.09404595 9.85831462 -0.00181381 0.00112084 -0.00036413
O -0.53550718 0.11228924 8.03971918 -0.00061239 0.00250049 0.00315198
O 4.07593190 24.05359584 2.34472313 -0.00093695 -0.00851134 -0.00552345
O 5.61542747 19.27057223 3.39618791 0.00057265 0.01002609 0.00116301
O -1.02007380 27.75524831 14.57536052 -0.00044543 -0.00047419 -0.00270146
O 0.49966865 23.27205800 15.64650471 0.00066079 -0.00153002 0.00331088
O 3.10503313 20.53068162 21.15000250 -0.00220396 0.00308836 -0.00194751
O 1.87065293 25.06566202 20.41539578 0.00372976 0.00300838 -0.00119480
O -0.35398691 24.59954402 21.57916520 -0.00322226 0.00394015 0.00030603
O -1.92595285 0.13043606 20.22959438 0.00209764 -0.00111212 0.00582334
O 2.34711525 24.39952890 14.26709149 -0.00013603 0.00691308 0.00090925
O 4.25286225 19.39576568 15.59113019 -0.00079767 -0.00293851 -0.00193948
O -2.55494726 27.86608171 26.40759835 -0.00264414 0.00078765 -0.00112206
O -1.11702116 23.03049553 27.14931958 0.00046183 -0.00063114 -0.00208282
O 1.57423552 20.90217208 33.10882983 0.00733715 0.00223952 0.00407972
O 0.19561951 25.63405555 32.52631590 0.00208767 0.00166003 -0.00391670
O -1.97387475 24.55982207 33.59080504 0.00090323 -0.00449796 -0.00731585
O -3.70786402 0.14945924 31.90518765 -0.00323485 -0.00493962 0.00640932
O 0.70694020 24.27480490 25.77126532 0.01176462 -0.00070611 0.00118704
O 2.40870318 19.38229279 27.53447880 0.00799053 -0.00311276 -0.00565244
O 7.48541643 8.31153962 2.47419527 -0.00106304 -0.00218627 -0.00393794
O 8.64122944 3.52875191 3.63284306 -0.00637167 -0.00307697 0.00362543
O 11.50823130 1.15257390 9.52757842 0.00279470 -0.00299375 0.00269627
O 10.36274081 6.00439759 8.38513852 0.01126743 -0.00360100 0.00181819
O 8.22313103 4.95769373 9.35907180 -0.00099659 0.00110381 -0.00040196
O 6.59956922 9.26471606 8.07429273 0.00118454 0.00488380 -0.00240360
O 10.73635701 4.65279472 2.34721671 0.00453367 -0.00200303 0.00092812
O 12.46507695 28.88232792 3.79185070 -0.00087063 0.00264344 0.00267021
O 5.83378459 8.72070701 14.00547792 -0.00277566 -0.00549389 0.00391879
O 7.20543539 3.92602776 15.50430882 0.00314178 0.00109608 0.00345625
O 9.68316024 1.05200320 21.58075334 0.00319912 -0.00084066 -0.00316575
O 8.48142045 5.80045152 20.43930919 0.00020283 0.00844427 -0.00018334
O 6.33169181 4.99045378 21.56666981 -0.00054455 -0.00000102 -0.00354656
O 4.92161475 9.81741521 20.03565410 -0.00896467 -0.00077969 -0.00288010
O 9.25389261 5.11044124 14.21570753 -0.00076848 0.00618895 0.00707170
O 10.77752087 28.81600377 15.70618534 -0.00276126 0.00358504 0.00385403
O 4.32179976 8.40780738 26.40583504 -0.00127221 -0.00141994 -0.00074039
O 5.46001194 3.91930719 27.47401352 -0.00027368 -0.00041484 0.00367929
O 7.99142575 1.10224480 33.27066482 0.00248110 -0.00281337 0.00674066
O 6.91352267 5.96032224 32.17466250 -0.00244553 -0.00613967 -0.00246663
O 4.93355550 4.86731278 33.30108889 -0.00075491 0.00227219 0.00801548
O 3.31560833 9.73511273 32.03873617 -0.00349028 0.00081458 -0.00032146
O 7.52927029 4.85852198 26.11076426 0.00145254 -0.00025781 0.00106163
O 9.27275337 28.57541586 27.26031476 0.00043832 -0.00804006 -0.00228002
O 7.86271475 18.41626076 2.14876018 0.00100407 -0.00151360 -0.00269659
O 8.64000890 13.70624724 3.87027809 0.00602262 0.00663987 -0.00519420
O 11.34934224 10.68303651 9.39443061 0.00200782 -0.00780654 0.00123179
O 10.47423672 15.60489026 8.44465511 0.00039825 0.00079674 -0.00054746
O 8.14457913 14.53380316 9.33959733 -0.00203724 -0.00137090 -0.00013189
O 6.79848665 19.76290669 8.48576210 -0.00467740 0.00490578 0.00210366
O 11.01975818 13.85175940 2.56369826 -0.00680602 -0.00272349 -0.00184100
O 12.18905333 9.64985324 3.65413283 0.00245723 0.00136817 -0.00517207
O 6.37045799 18.45371831 14.03827059 -0.00402637 0.00543561 0.00383959
O 7.38341183 13.09750198 15.20840806 0.00376915 0.00689759 0.00046333
O 9.86865124 10.61489538 21.31335681 0.00171674 0.00029352 -0.00260278
O 8.69073477 15.74216288 20.16568700 0.00198868 0.01044335 0.00179504
O 6.55488554 14.89168789 21.39445477 0.00181017 -0.00585699 0.00301733
O 5.18986848 19.32601540 20.08607030 0.00133501 0.00228695 0.00370952
O 9.34343079 14.51536511 13.96084105 0.00413384 0.00679263 -0.00504945
O 10.87139521 9.61197160 15.73943975 -0.00166972 0.00253122 0.00247840
O 4.39600404 17.96728887 26.36445062 0.00224609 -0.00302780 -0.00336734
O 5.76488583 13.16512487 27.29599487 0.00535340 -0.00125686 0.00765008
O 8.33478715 11.11664726 33.00371681 0.00744799 0.00212849 -0.00682818
O 7.30044291 15.44427537 31.89148981 -0.00087292 0.00110852 -0.00315845
O 5.27241989 14.91360422 33.27654968 0.00117869 -0.00015406 0.00080093
O 3.48259694 19.54492086 32.09045174 0.00105391 -0.00006598 -0.00410879
O 7.66735212 14.37296605 25.94648543 0.00411672 -0.00908952 0.00123760
O 9.03991712 9.27071203 27.49562641 -0.00157357 0.00056566 -0.00353441
O 7.52568431 27.75338125 2.67356796 -0.00061959 0.00132642 -0.00399825
O 8.93901031 23.17294359 3.52804615 0.00374606 0.00353290 0.00317744
O 11.41685068 20.24072752 9.60364582 0.00127680 0.00216196 -0.00161648
O 10.26095697 25.28867672 8.44723252 -0.00399625 -0.00403209 -0.00449955
O 8.20513077 24.30827476 9.85491681 0.00372269 -0.00439234 0.00141657
O 6.63054174 28.82920801 8.32409097 -0.00357524 0.00175454 0.00127711
O 10.89252981 24.36737975 2.27202468 -0.00376885 0.00087455 -0.00101144
O 12.08360777 19.13045884 3.36361298 -0.00182572 0.00695078 -0.00435792
O 5.87166217 27.94663220 14.57544607 -0.00074445 -0.00536523 0.00402372
O 7.19271405 23.21440419 15.60251898 0.00472703 0.00399921 0.00774488
O 9.91025515 20.44808824 21.53542493 0.00238868 0.00215821 0.00210663
O 8.42229699 25.38770582 20.57731211 0.00116683 -0.00371980 -0.00040797
O 6.71356238 24.12531520 21.81801965 -0.00147146 -0.00026761 0.00488959
O 5.12387661 0.00976875 20.10354240 0.00066953 0.00826032 0.00743167
O 9.31463073 23.83826760 14.33762706 0.00215442 -0.00256673 -0.00004970
O 11.01966066 19.63515641 15.58845694 -0.00165970 0.00345147 -0.00849029
O 4.19668916 27.65236262 26.36220415 0.00192128 0.00292555 -0.00071758
O 5.33678645 23.08758915 27.34959237 0.00022476 0.00150861 0.00807018
O 8.16765081 20.22769202 33.74515847 0.00281730 0.00112435 0.00483543
O 7.02451403 25.12239768 32.16408348 0.00071318 -0.00334884 0.00109332
O 4.96675291 24.19966964 33.35697553 0.00635464 0.00240782 -0.00325574
O 3.50441726 28.95345921 31.95943180 -0.00189392 0.00321489 0.00531430
O 7.60906605 23.86727673 26.29865034 0.00069414 -0.00024667 -0.00684182
O 9.14480309 19.28196705 27.12775299 -0.00149942 -0.00525020 0.00038083
O 14.38892207 8.94163874 2.30074312 0.00432637 -0.00394969 -0.00113924
O 15.62741519 3.74011513 3.56538718 -0.00104998 -0.00154465 0.00063626
O 18.24331435 1.01384445 9.61940176 0.00694407 0.00934105 -0.00477628
O 17.18030530 5.86276259 8.21840954 0.00381318 -0.00077318 0.00449428
O 15.04138117 5.37950618 9.62537879 0.00405332 0.00192851 0.00381455
O 13.41027798 9.90354419 7.98131246 -0.00184648 0.00056814 0.00406495
O 17.47767512 4.54170309 1.91705277 -0.00231257 0.00431982 -0.00190297
O 19.21814669 28.95713256 3.95260540 -0.00534952 -0.00383001 -0.00200593
O 12.92269629 8.50596011 14.64534885 0.00275637 0.00909869 -0.00523485
O 13.80698357 3.54259531 15.45406102 0.00074092 -0.00240973 0.00026810
O 16.64628028 1.04028116 21.49741747 0.00147854 -0.00459405 0.00360444
O 15.41177360 6.24344089 20.30293993 -0.00151631 0.00244482 0.00146818
O 13.56591262 4.97627678 21.59462440 -0.00328892 0.00284922 0.00686063
O 11.98788448 10.01942439 20.12913465 -0.00052273 0.00029275 0.00792132
O 15.79841814 4.74813953 14.27313637 0.00360236 0.00192429 -0.00122650
O 17.45165780 28.94268010 15.44457884 -0.00134079 -0.00930872 -0.00053907
O 11.08988421 8.58543478 26.21126604 0.00217303 0.00554071 -0.00151252
O 12.61557166 3.71058256 27.40096259 0.00402839 -0.00015890 0.00437588
O 14.71098656 0.45695754 33.47188271 0.00003505 0.00305556 0.00131375
O 13.60498262 5.94974175 32.12780992 0.00499122 -0.00201336 0.00334441
O 11.72117254 4.91551142 33.64275601 -0.00351477 -0.00453381 0.00539307
O 10.13359877 9.53803399 31.84411591 -0.00052111 0.00010401 0.00858114
O 14.44517923 4.95360184 25.89605460 0.00157899 0.00613029 -0.00327500
O 16.11944961 28.87756710 27.64212660 0.00332166 0.00126224 0.00597607
O 14.41221678 18.38971632 2.50730788 0.00071575 0.00203200 0.00363032
O 15.77958454 13.21828596 3.24150172 0.00263037 -0.00137134 0.00185569
O 18.28019447 10.94783494 9.21802306 0.00096747 0.00380188 -0.00493422
O 17.19872992 15.35080613 8.04645911 -0.00175082 0.00088464 -0.00043833
O 15.08466984 14.99161048 9.37384743 0.00045953 -0.00061427 0.00209414
O 13.54891837 19.29946200 8.58832001 0.00279273 -0.00207775 -0.00882379
O 17.64773396 14.44039601 2.13382255 0.00607153 -0.00224207 -0.00039334
O 19.31033435 9.32777703 3.39200296 -0.00103945 -0.00579353 0.00064937
O 12.90795163 18.18159309 14.22937214 -0.00181370 -0.00297758 0.00324916
O 14.21745062 13.46590817 15.30760047 -0.00555793 0.00181555 0.00139305
O 16.75266773 10.82646756 21.29247557 -0.00032272 -0.00202830 0.00260078
O 15.45159264 15.79074678 20.22163523 -0.00513770 0.00609512 0.00277466
O 13.35847182 14.82704887 21.38861218 -0.00358407 -0.00407329 -0.00000455
O 11.94422519 19.50598078 20.32472277 -0.00006084 -0.00692967 -0.00161967
O 16.15178815 14.47153233 14.04488763 -0.00290235 0.00552447 0.00365482
O 17.76813128 9.52010626 15.54880962 -0.00004366 0.00748579 -0.00590335
O 11.32752413 18.22358899 26.09733476 0.00485353 -0.00346247 -0.00031418
O 12.42614261 13.27306196 27.22567343 -0.00281011 0.00127340 0.00047199
O 14.88904140 10.80703287 33.00573140 0.00252223 -0.00057719 0.00390455
O 13.58294155 15.67453310 32.56147941 -0.00574904 -0.00020723 -0.00187379
O 11.69991178 14.53520092 33.69935728 0.00390713 -0.00357085 -0.00156302
O 10.19204372 19.55486742 32.15552601 0.00341906 0.00765632 -0.00234375
O 14.44214454 14.61817040 25.96900549 0.00425755 -0.00319326 0.00301844
O 15.81092849 9.41557526 27.18130100 0.00236131 0.00445087 0.00336530
O 14.39706201 27.68816976 2.56251830 -0.00349455 0.00125311 -0.00244480
O 15.55049120 22.88607640 3.92636470 -0.00083585 0.00317065 -0.00611591
O 18.39236820 20.20704533 9.84649351 0.00486621 0.00170540 -0.00410861
O 17.36961221 25.13185723 8.33270206 -0.00276881 0.00135502 0.00073469
O 14.94880543 24.38733956 9.21197955 0.00494391 0.00062276 -0.00094741
O 13.56399640 28.93691765 8.16428524 -0.00133754 0.00392019 0.00153896
O 17.59403997 23.94678139 2.42898194 -0.00281440 -0.00441452 -0.00016845
O 19.18443234 19.31048689 3.67265309 0.00068939 0.00026489 0.00206125
O 12.92600711 27.54918781 14.61806015 -0.00037927 0.00590903 -0.00547365
O 14.04116365 23.17282652 15.59999794 0.00299533 0.00029465 -0.00553173
O 16.91037044 20.42218457 21.43246314 0.00520654 0.00888922 -0.00390153
O 15.27783897 25.46346811 20.49648304 -0.00096528 -0.00295782 -0.00381854
O 13.26477429 24.12718606 21.55839464 0.00075977 -0.00705945 0.00415285
O 11.73192526 0.14525092 20.30319843 0.00337312 -0.00063247 0.00470431
O 16.10180507 24.01566335 14.20105077 -0.00215085 -0.00002559 -0.00364805
O 17.83835998 19.26953274 15.28989404 0.00535897 0.00005452 -0.00518323
O 11.50406960 28.11428953 25.98411177 0.00120881 -0.00183395 0.00268929
O 12.66799500 22.81398833 27.16947750 -0.00290266 0.00324439 -0.00179514
O 15.05916844 20.32489632 33.24528564 0.00242579 0.00198043 -0.00567722
O 13.95511267 24.95783835 32.01694384 0.00085701 0.00250056 0.00030662
O 11.94879621 24.09307722 33.78211441 0.00241343 -0.00755488 0.00565628
O 10.15941927 28.91545396 32.00520500 -0.00573364 0.00096147 0.00341383
O 14.55985200 24.11024300 26.01522361 0.00043073 0.00420705 -0.00210486
O 16.01932165 19.28373752 27.82911617 -0.00319958 -0.00371861 0.00368598
H -0.17451434 8.83485822 2.55200623 -0.01113627 0.01618537 0.00346551
H 2.72368965 3.98270276 3.18964027 0.01138780 0.00838834 -0.00192671
H 5.39430390 0.53454703 9.20444987 0.00688631 0.00680859 -0.02030448
H 2.38437049 5.59301807 8.66097028 -0.00570105 0.00444655 -0.01296198
H 5.66340299 8.27578313 0.58411794 -0.01262681 0.04207467 -0.00403684
H 3.77321016 3.22274691 5.23522490 0.01488259 0.02454327 0.02443188
H -0.56028388 1.09872334 11.55206618 -0.01050021 0.00312813 -0.01104914
H 1.20382962 6.49189048 6.47997012 -0.02198244 0.00766842 0.02646605
H 4.08886691 6.02366271 10.68531946 0.03006534 -0.01757343 0.00112651
H 3.73542141 1.71575250 7.11982684 0.01214821 -0.02703313 0.00836687
H 1.17170944 2.96581466 0.86598612 0.01060830 -0.00696421 -0.01488689
H 1.50602175 7.87279852 4.52010884 0.00382701 -0.02937308 0.00543141
H -1.98353747 5.38530285 35.38977166 -0.01937769 0.00076592 0.01153276
H -0.11482950 0.33190252 6.10003060 0.01756103 0.00084741 0.00481011
H 2.53489190 3.81063372 12.41945052 0.01496311 0.02459718 -0.01390300
H 5.26630525 9.23854002 5.93667114 -0.02262964 0.01789319 0.01127574
H 2.71585944 7.13598304 1.24475250 -0.03032128 0.01245560 -0.02464125
H -0.18705426 1.95745869 4.14873762 0.02791036 0.00137697 0.00627515
H 2.42030166 2.21378877 10.31714746 0.00707262 0.01670330 -0.02334014
H 5.12331204 7.76435592 7.83732560 -0.00718555 0.00136436 -0.00200949
H 5.07940024 4.38928397 9.75136224 -0.00202796 -0.01430885 0.00435784
H 2.64246981 28.79833189 8.19692123 0.01910928 0.00845032 0.01656213
H 0.21822521 4.65516829 2.04987681 0.02449347 0.00349142 0.00029840
H 2.30831129 9.78238381 3.80690057 0.00290734 0.03156172 0.00496950
H 7.59377942 3.52100102 7.40924860 0.01626736 -0.01528737 0.00686167
H 0.21014307 8.02306578 10.10197837 -0.01398504 -0.00384454 -0.00571961
H 18.45150544 6.84407498 2.97942648 0.01041856 0.01429424 0.01785498
H 4.69423586 0.87437807 1.51583521 -0.01973688 -0.02414277 0.01716594
H 0.89350392 3.50506394 7.54794929 0.02717548 0.00011903 -0.00291175
H 1.57447470 8.86766560 10.42738703 0.00266264 0.01457072 0.01396295
H 6.38005251 6.19796709 3.62205784 -0.04200319 0.00163774 -0.02214429
H 2.88869031 1.07990351 2.17899660 -0.00440422 -0.02312357 0.00150527
H -0.82980992 3.11064070 7.96141045 -0.00489871 0.01426384 -0.01029734
H 1.59129704 7.55573971 9.15681208 0.01934707 -0.00713494 -0.00921294
H 4.87986081 7.15045942 2.87669400 0.00025222 -0.01454070 0.01980818
H 4.18134947 2.10298523 2.74863699 0.00689262 -0.01601945 -0.01268307
H -1.73272782 8.61430303 14.73703695 -0.00962467 0.02659264 0.00879459
H 1.20757160 3.83100442 15.12467328 -0.01875702 0.00351989 0.04360467
H 3.74526926 0.75591285 21.20421947 0.00517764 0.03216057 -0.00946653
H 0.71646494 5.40623077 20.39334588 0.00351519 0.00161011 -0.00673167
H 3.92795100 7.93794759 12.49100881 -0.00242262 0.00336011 0.00408288
H 2.29895421 3.14817953 17.25085959 0.03165829 0.00840585 0.01134892
H -1.84286686 1.58047447 23.11533001 0.00344303 0.01056315 -0.02181970
H -0.30570988 6.50338172 18.81052343 0.00257647 0.00284702 0.00419470
H 2.22213358 6.92537432 22.71480025 0.00015429 0.02906933 0.02312590
H 2.25829041 1.87068607 19.17918251 0.01958346 0.02349380 0.01573719
H -0.75456588 2.81728661 13.53583253 -0.02213282 -0.01068964 0.00790413
H -0.30785795 8.02592152 16.84483887 0.00274838 -0.01764143 -0.01477323
H 1.04900366 4.83020633 12.19870067 0.01190151 -0.00691865 0.00388041
H -1.71582146 0.48956570 18.17147435 -0.00337059 0.02250280 0.00991566
H 0.83684838 4.29510523 23.90970993 -0.00879330 -0.00071506 0.01999586
H 3.77657816 9.06021514 17.82710586 -0.01357427 -0.00415821 0.01045765
H 0.90211255 6.58114677 13.96354368 0.00060092 -0.00245760 0.00509837
H -1.68099211 2.13616405 16.25852289 -0.00437904 0.01358311 0.00085439
H 0.97566950 2.86938077 21.86672073 0.00518250 0.00164677 0.00226485
H 3.82722006 7.44298705 19.57679854 0.03912176 -0.00020136 0.02757447
H 3.16013912 5.17467173 21.35627761 0.00604639 -0.00854780 -0.00503201
H 1.21646223 28.88765584 20.25266996 -0.00159941 0.00599036 -0.02133959
H -1.59259598 4.63323533 14.31537550 0.00461094 -0.00020986 -0.00209708
H 0.92485767 9.52605735 15.47599859 0.00004054 -0.00778500 0.04731187
H 4.15704238 3.98035804 19.38152052 -0.01530198 -0.01141107 0.00943290
H 0.72072985 8.33447309 21.50210063 0.01016556 0.01840653 -0.00480174
H 16.66201212 5.95361803 16.50611833 0.00489611 0.02109023 -0.01454028
H 2.30856083 2.05961678 14.59997293 -0.00742063 -0.00643540 0.00330903
H -1.49618071 4.56189269 19.14364488 -0.01799722 -0.00224923 -0.02065753
H -0.77086503 7.53645148 20.95487649 0.00660543 0.02149176 0.00679367
H 5.18526398 6.04284589 15.61335116 -0.00029181 -0.00563086 -0.00845910
H 2.64290165 0.78332655 13.46610249 0.01951405 -0.00579672 0.01066957
H 17.49971383 3.81538357 19.61235174 -0.01291020 -0.01666229 0.00414692
H -0.87275276 8.70148745 22.22434567 0.00532470 -0.00697077 0.03487959
H 3.67278866 6.81938954 15.48376751 -0.00653758 0.00666206 -0.01918031
H 0.95432716 1.02506215 14.14413822 -0.01312502 -0.00521813 0.00718001
H -3.35666087 8.95151447 26.65109785 -0.00369967 0.00337079 -0.00969402
H -0.41265678 3.93800042 27.00600862 -0.01339755 0.00534064 0.01025263
H 2.30354942 0.64700132 33.00022103 -0.00955904 -0.01474514 -0.01096098
H -0.61014102 5.36968613 32.25842224 -0.00205628 0.04032043 0.01173828
H 2.23528193 8.11838438 24.67712980 -0.00130685 -0.01677015 -0.00252044
H 0.61001744 3.27072630 29.12058334 -0.00352112 -0.00319508 0.01927464
H -3.64176975 1.15942227 34.97725317 -0.00930619 0.01301516 -0.00345238
H -1.77197356 5.98675892 30.03631420 0.00429514 -0.00634157 0.00208659
H 0.75080070 6.57559601 34.58789983 -0.00165245 0.02673863 0.00133822
H 0.41613180 1.85513577 31.03205198 -0.01428419 0.00018415 -0.03248092
H -1.86082046 3.32825250 24.81848225 -0.00436915 -0.03765619 -0.00354803
H -1.72439850 7.63280154 28.35130502 0.02057123 -0.02113172 -0.00083157
H -0.72125024 5.31472350 23.65507047 -0.00467857 0.00196545 0.00637544
H -3.39095931 0.48425375 29.83286086 -0.02411166 0.02506605 0.00239802
H 4.05072985 3.75441748 0.14171845 0.01096414 0.00128733 -0.00580427
H 1.97942441 9.14160048 29.46446632 -0.00615989 -0.02037998 0.01127611
H -0.57687266 7.03582907 25.41176439 -0.01251814 0.01066740 -0.01121655
H -3.23248813 1.83176072 27.71693318 -0.00162125 -0.00801377 0.01676874
H -0.58527760 2.28347101 34.12496154 0.01572393 -0.01372867 0.01913988
H 2.07368637 7.29570772 31.45419689 0.00160112 -0.00804366 0.01057190
H 1.74251679 4.47567548 33.77085394 -0.01411733 -0.00386765 0.01202336
H -0.58791147 0.09081778 32.17711884 0.01334459 -0.00179167 -0.01318303
H -2.90577801 4.65230459 26.06830122 0.02006819 0.00967752 -0.01616895
H -0.92560230 9.33421988 27.39861847 0.01726619 0.01244769 0.00426542
H 3.48335778 4.83275541 31.09292452 0.01429786 0.02143885 -0.00492958
H -2.62549469 8.80316098 34.07363569 -0.00396339 0.00371263 0.01195557
H 16.64850300 5.29090140 28.26469996 -0.00225427 0.00388637 -0.02644652
H 1.21684540 0.63231151 24.97681704 0.04037439 0.01086603 -0.00056918
H 16.17135531 3.05786131 32.08897295 -0.00356710 0.00962221 0.00811002
H -1.43741446 7.87286233 33.16313819 -0.02967614 -0.01286122 -0.01678274
H 1.20557239 7.01171662 27.31707010 -0.00368926 0.00973931 0.02187942
H -0.38641019 0.71589187 25.82160176 0.00380734 -0.00942912 -0.01999179
H -2.63512309 2.43207659 32.25637161 -0.00249008 -0.00087863 0.00000693
H -3.09998688 7.48352291 32.88288877 0.01164623 -0.00486978 0.01377430
H 1.80547293 5.75669297 28.45002217 0.01551418 -0.02059819 -0.03393534
H 0.79216863 2.02568658 26.04690930 -0.01391196 0.01494396 -0.01197925
H 0.01296150 18.57657895 2.50514838 -0.00415300 -0.00951584 -0.01569641
H 2.48923464 13.86352021 3.33287946 -0.00008184 -0.01425312 0.01371947
H 5.55894583 10.20907219 9.18861213 0.01011181 -0.00331658 0.01587800
H 2.54848061 15.43731188 8.56654757 -0.00868473 -0.00480960 -0.01055060
H 5.95198619 18.03259078 0.36752953 -0.00260537 0.01256608 0.01660491
H 3.70389681 12.98917028 5.42668414 -0.00298571 0.00021742 -0.00584483
H -0.30037656 11.24692617 10.80848145 -0.00130478 -0.00870771 0.02303645
H 1.48353179 16.21012450 6.58729177 0.01169405 0.00021911 0.00257152
H 4.15334528 16.45004637 10.61535086 0.02109121 -0.00806368 0.01462232
H 3.67679859 11.32791688 7.21384111 0.04043149 -0.00011055 -0.00688070
H 1.09322036 12.53732051 0.94836656 -0.00938761 -0.01265973 -0.04520572
H 1.58334239 17.74221412 4.70414288 0.01612922 -0.00806839 -0.00612711
H -1.91097048 15.09628022 35.25568280 -0.00816560 -0.01357934 0.02810131
H -0.21712679 10.09546309 5.95231894 0.00463537 0.01807436 -0.01686573
H 2.76701020 13.80215932 11.93650580 -0.00064055 0.03468673 0.01126461
H 5.38685095 19.17040990 6.11143335 -0.00136665 0.00699519 -0.00776764
H 2.90500734 16.62626513 1.63936888 0.00991973 -0.00969123 0.01556657
H -0.37711196 11.90208136 4.37520029 0.02678790 -0.01305305 -0.02022065
H 2.72086424 12.21507627 10.02238153 0.00233074 -0.00312871 0.00970709
H 5.45909633 17.33141415 7.84244295 0.00855087 0.00991060 0.02606267
H 4.93487896 14.60173789 9.68359884 -0.00511044 0.01627784 0.00701925
H 2.71091357 9.59550803 8.15408464 0.02202805 0.00008935 -0.01594502
H 0.34047515 14.19657552 1.88329801 -0.00596693 0.00590670 0.01333317
H 2.55438564 19.32879988 3.63933662 0.00649845 0.01810354 0.00264221
H 7.58856101 13.14384685 7.47541649 0.03533252 -0.01591179 0.00257753
H 1.81767557 18.77774414 10.67148700 0.01048712 -0.00324650 -0.02191912
H 18.96065979 15.25721869 4.46259424 -0.01813979 0.02766141 -0.00363252
H 5.16098613 11.43388437 2.10816254 -0.00428567 0.00192777 -0.00704293
H -0.75417138 12.74931738 8.19426389 0.00931713 -0.01779069 0.01477124
H 1.62971125 17.37749426 9.56156417 -0.00129563 0.00030613 0.02045208
H 5.75276404 16.41902942 3.53621213 0.02976727 -0.00292041 0.00776025
H 4.15875054 10.26804624 1.05737019 -0.02176692 0.00845667 0.00783498
H 0.95158313 13.00837960 7.56156368 -0.00307962 0.01337232 -0.00353573
H 0.21812879 18.09703664 10.32096551 0.02241985 0.02209204 0.01671302
H 4.48688789 15.58212431 4.43299876 0.00003124 -0.01202437 -0.00920248
H 3.31369654 11.52458228 2.10672754 0.00601277 -0.00699490 0.00721782
H -1.52649311 18.34429381 14.76128287 0.00661097 -0.00529046 0.00904865
H 1.41663975 13.65641847 14.90962502 -0.02458409 0.00167029 0.01263557
H 3.88000061 10.49134197 21.07997761 0.01954482 0.00075582 0.01496951
H 0.98258498 15.10030677 20.37011507 -0.01669224 -0.00241518 0.00987250
H 4.25944152 17.97695135 12.47952697 0.00386906 -0.00894710 -0.02443417
H 2.37738874 13.35085613 17.06018614 0.00308091 0.00578053 -0.01705254
H -1.81488784 11.08571727 23.27522725 -0.02129356 -0.01305309 -0.02870845
H -0.01405531 15.79985735 18.48366125 -0.00426893 -0.03591157 0.02808231
H 2.54428599 16.35887963 22.55116115 0.02916958 -0.03080079 -0.02649214
H 2.40301784 11.64129775 19.19436572 -0.02417027 -0.00093410 -0.01442973
H -0.36253262 12.36408806 12.96576259 0.00710386 0.01752251 0.00596962
H -0.03138151 17.58334195 16.78622960 0.01447522 0.00281640 0.02173531
H 1.29853034 15.00010027 11.63154659 0.00994962 -0.02652394 0.00343890
H -1.39413083 10.10097733 17.90808230 -0.03645372 -0.00513452 0.00270711
H 0.91677155 13.79726140 24.00881250 -0.01904128 -0.00617717 -0.01217265
H 3.91035497 18.67779206 17.76269411 -0.01596769 -0.01049278 0.00804692
H 1.41083709 16.49744682 13.70446161 0.01686886 -0.03943212 -0.02172779
H -1.51648676 11.86248267 15.94470879 -0.01512229 -0.00545799 -0.01211065
H 1.00608458 12.45101352 22.07080916 0.00293684 0.00089323 0.00504519
H 4.00721551 16.85481037 19.44597690 0.01005015 -0.00540014 0.02458148
H 3.47085247 14.25133231 21.72342781 0.01988745 0.02465881 -0.02130362
H 1.41989724 9.86745210 20.06278831 -0.00670459 0.01319096 0.00318483
H -1.26530103 14.19767677 14.18577567 0.00671943 -0.00593281 -0.00586003
H 1.18798311 19.44934999 15.70694297 0.00750968 0.00795564 0.01861954
H 4.12547930 13.58191730 19.75405589 -0.00479372 -0.00338425 -0.00287577
H 0.46322154 19.17316782 22.45304926 0.00531485 0.01444109 0.01516827
H 17.12316064 14.92993644 16.47268046 0.02027108 -0.02318707 0.01162401
H 2.40576306 11.93979596 14.41341469 0.02425970 -0.01361074 -0.01553701
H -1.04237899 12.41132547 19.91553985 0.00216067 -0.00719735 0.00784796
H 0.32935060 17.60816588 21.60188234 -0.00343063 0.00462991 -0.00104936
H 3.84042755 16.63699977 15.01287912 -0.01063712 -0.01294981 0.01465977
H 3.20116576 10.86814258 13.44254595 -0.02256061 -0.02492051 0.03050650
H -1.79759487 13.56962641 19.02895428 -0.00274484 -0.00062847 0.01027159
H -1.12568814 18.33039352 22.32621843 -0.00257211 -0.00113039 -0.00881785
H 3.81421450 15.28949015 16.28069518 0.00175091 0.01720641 0.01118497
H 1.40684358 10.57423014 13.91963541 -0.01618068 0.01726796 -0.03050354
H -3.42344052 18.58082364 26.38080155 0.01417385 0.00512119 0.00327017
H -0.48118042 13.83700961 26.93635626 -0.00863797 0.03644611 -0.04157228
H 2.05558399 10.20810868 32.94129408 0.00790398 0.00261687 -0.01781209
H -0.58923901 15.33356512 32.32046482 0.00912385 -0.03070399 -0.02048513
H 2.39954258 17.71142346 24.60481418 0.01901194 0.00972186 -0.00073841
H 0.77449692 12.98409771 28.84164913 -0.00255918 0.00274220 -0.00625638
H -3.57203156 11.05551625 34.67190692 0.00934801 0.02305011 0.00151678
H -1.70144924 16.12204602 30.29829243 -0.00639927 0.01631570 -0.01633298
H 1.22299924 16.46754849 34.27686325 -0.00538162 -0.02388067 -0.01382163
H 0.61926378 11.36645137 30.75427682 -0.01589109 0.01195580 0.01465406
H -1.93684289 12.80597024 24.90847927 0.01243083 0.03526940 -0.00300600
H -1.70571386 17.86536528 28.58911637 -0.00526766 -0.01940103 -0.00219054
H -0.32193489 15.18264454 23.53762286 0.00566869 0.00889420 0.01026597
H -3.28033938 10.28341438 29.67656291 0.00448354 -0.01766816 0.01742291
H 3.93266014 13.56326038 0.31723983 0.00745346 0.01399713 -0.00647303
H 2.26298134 18.94338812 29.57356719 0.00034581 0.00954231 -0.00351848
H -0.39766553 16.79166226 25.36816177 0.00311452 -0.00591822 -0.02020793
H -3.21721895 11.81234016 27.65233938 -0.02016107 0.01081601 -0.00398091
H -0.98901548 12.02289368 34.18941436 0.00215204 0.01391736 -0.00369518