2160
Time=73000.00000007 pbc="T T T" Lattice="20.66059923 0.00000000 0.00000000 0.00000000 28.94630715 0.00000000 -4.73119035 0.00000000 35.59204469" energy=-13801.96997559 virial="-105.48655982 -3.69710661 64.29316237 -3.69710661 -58.67079564 -0.14975071 64.29316237 -0.14975071 -61.59606929" stress="-0.00284120 -0.00017410 0.00308538 -0.00017410 -0.00046313 -0.00001053 0.00308538 -0.00001053 -0.00061654" Properties=species:S:1:pos:R:3:vel:R:3
O 0.74688576 8.46386528 2.29002949 0.00249577 -0.00231107 -0.00086934
O 2.06580426 3.64895238 3.38452577 -0.00469544 0.00066179 0.00275947
O 4.30874475 0.89341385 9.71670266 -0.00010528 0.00407001 0.00025847
O 3.49550980 5.62961559 8.18044694 0.00834694 -0.00440895 -0.00417171
O 1.40026446 5.10311000 9.58955802 -0.00203168 -0.00466771 0.00022568
O 0.25825245 9.89196113 8.64693785 -0.00138484 0.00058840 -0.00269132
O 4.10043935 4.75358004 2.43031356 -0.00132675 0.00037511 -0.00196626
O 5.59809105 28.76134144 3.68725662 -0.00581351 0.00081430 0.00385624
O -0.67428530 8.63673863 14.32296790 0.00342039 0.00145147 0.00352513
O 0.34011506 3.76606596 15.22872560 -0.00024259 0.00218998 0.00288641
O 3.10713606 1.05442196 21.35450914 0.00073684 0.00008214 0.00035927
O 1.99314743 5.81683295 20.42608116 -0.00210364 0.00175852 0.00622328
O -0.35747934 4.85713161 21.38391867 0.00354867 0.00394884 -0.00197205
O -1.74593752 9.74421121 20.24304577 -0.00224285 0.00316940 -0.00302938
O 2.41336183 4.97168195 14.16597213 -0.00443192 -0.00063901 0.00323314
O 4.05307838 28.66024014 15.50219885 -0.00065597 0.00231568 0.00171135
O -2.17159027 8.91962840 25.97148866 0.00254553 0.00032240 -0.00310978
O -1.23727319 3.91447157 27.29480439 -0.00142772 0.00294495 0.00429546
O 1.46775559 0.72875948 33.33512170 -0.00138232 0.00137259 -0.00140282
O 0.32482506 6.08614036 32.18328248 -0.00158808 -0.00291518 0.00739863
O -1.79452812 4.87610112 33.00010572 0.00365757 0.00528887 0.00247520
O -3.28898786 9.64062938 32.10082460 -0.00002916 -0.00430876 0.00051941
O 0.84088093 4.83973447 26.00403994 -0.00169536 -0.00732276 -0.00286231
O 2.31626206 28.60413434 27.71333302 0.00339174 -0.00218211 0.00413058
O 0.63863061 18.78644322 1.77279621 0.00052250 0.00203780 0.00421740
O 2.09290215 13.41963924 3.49555987 0.00039196 -0.00431255 0.00025539
O 4.77440834 10.60861225 9.04997639 0.00172462 -0.00439340 0.00246521
O 3.29627217 15.67744529 8.36344467 0.00071779 -0.00161402 0.00431883
O 1.25729835 14.67996661 9.58582897 -0.00339054 -0.00414939 0.00138820
O -0.42074224 19.30191960 7.85200881 0.00359980 -0.00589337 0.00094526
O 4.22182654 14.48214965 2.12138782 -0.00232409 -0.00619737 -0.00585964
O 5.72967783 9.47759111 3.66548503 -0.00585467 -0.00460859 -0.00278899
O -0.85502089 18.40465351 14.37635148 -0.01104833 0.00309981 -0.00237485
O 0.20536294 13.32078160 15.28038046 0.00588937 -0.00034150 0.00187375
O 3.19975104 10.71508768 20.89425145 -0.00009687 -0.00149332 -0.00070522
O 1.87489767 15.40964235 20.19017003 0.00387698 -0.00017504 -0.00081529
O -0.25062208 14.67712402 21.45075976 -0.00055745 0.00158400 -0.00157610
O -1.84050057 19.73224790 20.31910742 -0.00540511 0.00176331 -0.00678578
O 2.36351114 14.00965469 13.75087433 -0.00107992 0.00829065 -0.00289412
O 4.03998527 9.54235980 15.72501699 -0.00265019 0.00232583 0.00908091
O -2.37093176 18.26778443 26.05128745 -0.00341147 0.00096173 0.00458251
O -1.07043497 13.51098560 27.34881809 -0.00056774 -0.00208046 -0.00078167
O 1.60893978 10.67550464 32.92232934 0.00043617 0.00397693 0.00379604
O 0.35633987 15.51677376 32.19761285 0.00481803 -0.00114015 0.00196392
O -1.72765165 14.53352268 33.41715725 -0.00023467 -0.00080825 -0.00279110
O -3.50641739 19.42813918 32.01759782 -0.00094066 -0.00024369 -0.00220655
O 0.88720855 14.18377663 25.73702752 0.00118754 0.00350816 -0.00066940
O 2.53161341 9.38389251 27.38762708 -0.00039042 0.00326771 -0.00389133
O 0.31488321 27.73078114 2.49000026 0.00055755 0.00517188 -0.00277734
O 1.69555176 23.29793181 3.53927252 -0.00298562 0.00005466 0.00319338
O 4.34181810 20.14784051 9.62278249 0.00150938 -0.00070336 -0.00467066
O 3.09498643 25.05904094 8.37053887 0.00224542 0.00039077 -0.00105312
O 1.19430232 24.12650241 9.62838364 0.00947570 0.00128837 0.00360029
O -0.33918698 28.76860913 8.16555591 0.00098970 -0.00359718 0.00739936
O 3.69833193 24.12771157 1.98401648 -0.00145304 -0.00084769 -0.00056133
O 5.47156607 19.07310848 3.39764287 -0.00375113 -0.00565309 0.00362891
O -0.62581993 28.30434736 13.99791487 -0.00102200 -0.00496003 0.00834503
O 0.31948058 23.15729262 15.52501748 -0.00290279 0.00633244 0.01015027
O 2.89341188 20.22266214 21.70836208 -0.00160751 -0.00596470 -0.00400609
O 1.77810097 25.21128291 20.24922329 -0.00161067 -0.00243396 -0.00236592
O -0.30223833 24.15854767 21.67593515 0.00134002 0.00168279 0.00107865
O -1.63134368 0.04800893 20.24839330 -0.00085256 -0.00186377 -0.00429960
O 2.39993235 24.06933989 14.33627445 -0.00374082 0.00750964 -0.00686152
O 4.05831318 19.32860376 15.62858977 -0.00297936 0.00680324 0.00116389
O -2.66647960 27.69532055 26.54476509 0.00443135 -0.00007484 0.00251133
O -1.31127338 23.10109592 27.18022225 0.00318447 -0.00033367 -0.00278624
O 1.30436304 20.24391506 33.25451922 -0.00552868 0.00476057 0.00437740
O 0.13011377 24.83924729 32.13917811 -0.00438861 0.00822849 0.00448054
O -1.93913623 23.97496132 33.55164373 0.00635690 0.00024835 0.00097886
O -3.53281612 0.39716738 32.00222680 0.00494951 0.00972635 -0.00291685
O 0.88827761 24.06773765 26.29552108 -0.00395054 -0.00082036 0.00246351
O 2.45009551 19.07780523 27.29213367 0.00662672 0.00072215 0.00382135
O 7.70620506 8.40462979 2.45030791 -0.00114116 -0.00038460 0.00215867
O 8.68233585 3.55835836 3.30847375 0.00270796 0.00286369 -0.01158911
O 11.38138133 1.24162500 9.53995939 0.00807823 -0.00044371 -0.00013682
O 10.36746221 5.87049522 8.28923501 -0.00120608 -0.00145794 -0.00378119
O 8.13520688 5.02032848 9.49476305 -0.00186029 0.00498052 -0.00120936
O 6.88284294 9.48719332 7.94317101 0.00122862 -0.00192273 0.00124222
O 10.86870635 4.80227532 2.53128179 -0.00323916 0.00096178 0.00921340
O 12.48178011 0.10164107 3.57698285 0.00198532 -0.00634015 0.00128277
O 5.97649294 8.53269951 14.45868725 -0.00265170 -0.00302820 0.00058035
O 7.29116083 4.28484093 15.67357389 -0.00030805 -0.00692251 0.00167146
O 9.87157227 1.27635006 21.18260116 -0.00509188 -0.00064415 -0.00212948
O 8.99451818 6.04540222 20.08152050 -0.00265423 0.00439830 0.00062651
O 6.87264876 5.19234633 21.14837747 0.00059341 -0.00011094 -0.00061810
O 5.27170155 9.42389772 19.85899101 0.00611181 0.00228243 0.00129838
O 9.34516635 4.91376100 14.18368583 0.00483202 0.00781546 0.00648328
O 10.94777629 28.76833864 15.08660807 0.00593085 -0.00213677 -0.00183623
O 4.66201576 8.61710521 25.99560534 0.00131148 0.00245585 -0.00033386
O 5.66383443 3.81186970 27.37251166 -0.00325559 -0.00023971 -0.00252402
O 8.15234720 1.08966113 33.19817225 0.00518050 -0.00715405 -0.00411488
O 7.48186190 6.14507372 32.11968207 -0.00347474 -0.00225901 0.00345220
O 5.21536917 5.19637511 33.04971067 -0.00233978 -0.00513167 0.01072495
O 3.65309304 9.75868528 31.75263395 0.00339291 -0.00667720 0.00001872
O 7.89703535 4.44838857 26.16311305 0.00132278 0.00121009 0.00108466
O 9.41300189 28.76239395 27.62154884 0.00107745 -0.00615606 -0.00079433
O 7.42349849 17.81414235 2.54996097 0.00264827 0.00094823 0.00503963
O 8.92573860 13.42869850 3.55061628 -0.00203612 0.00211440 -0.00182563
O 11.52223226 10.48592809 9.59460537 -0.00462149 -0.00505331 -0.00171591
O 10.13066781 15.78837123 8.68495177 0.00278267 -0.00150390 -0.00524265
O 8.14310753 14.39557139 9.57817462 -0.00524222 -0.00219033 0.00571940
O 6.42554093 19.74509675 8.23847731 0.00193545 -0.00114067 -0.00037811
O 10.86459013 14.52665687 2.13190309 0.00725940 -0.00138769 0.00251894
O 12.59836173 9.72799445 3.64809653 -0.00061172 0.00622027 -0.00376172
O 5.99623157 18.03586342 14.37197302 -0.00217014 0.00284079 0.00535232
O 7.28143999 13.36834564 15.23395271 0.00266230 0.00299897 -0.00236602
O 9.87197571 10.45854258 21.56856892 -0.00192487 -0.00046082 0.00027201
O 8.60510414 15.62903457 20.49422396 -0.00156462 -0.00745673 -0.00123748
O 6.69571930 14.16542295 21.52173768 -0.00299420 0.00085415 -0.00178739
O 5.08744954 19.26594832 20.42718936 0.00098476 -0.00038860 0.00067356
O 9.27264309 14.44991339 14.10629626 -0.00174422 0.00004898 -0.00093120
O 11.00307488 9.71913629 15.48252822 -0.00302565 -0.00305729 0.00360915
O 4.50457799 17.93007910 26.29864428 0.00398693 -0.00044651 -0.00437715
O 5.58791393 13.47655373 27.10243188 0.00179331 0.00590421 0.00332417
O 8.61567251 10.76897264 33.14643653 0.00491591 -0.00171133 -0.00655850
O 7.12812961 15.57275823 32.11045209 0.00347401 0.00233788 0.00065745
O 5.19537525 14.39083234 33.56435891 -0.00243641 0.00224408 0.00162970
O 3.33151334 19.45300311 31.89849324 -0.00018945 -0.00241972 0.00195260
O 7.75009990 14.47153578 26.01538147 0.00032579 0.00150593 -0.00111989
O 9.45053663 10.01825243 27.22979092 -0.00001349 0.00204613 0.00220361
O 7.73021388 27.99278425 2.44619113 -0.00188948 0.01156904 -0.00187711
O 8.49228722 23.01772362 3.41395135 0.00061049 0.00199735 -0.00451982
O 11.06063435 20.30450881 9.10476189 -0.00157965 -0.00623063 -0.00227444
O 9.97365871 25.45474741 8.33903851 0.00216504 0.00035254 -0.00052454
O 8.00998950 24.22944893 9.22588366 0.00334387 0.00312556 0.00271692
O 6.51819152 0.13051347 8.27046789 -0.00175247 0.00055113 0.00089330
O 10.71914760 23.88867811 2.56003386 0.00884672 -0.00020653 0.00169659
O 12.27481296 18.99278703 3.58987253 -0.00417049 0.00074584 0.00060208
O 6.10536084 27.69148782 14.03348483 0.00368163 -0.00174062 -0.00036027
O 7.14135391 22.72825150 15.29754505 -0.00165765 0.00477588 0.00043667
O 9.67515606 20.40560925 21.46247819 -0.00522729 0.00008631 0.00384634
O 8.56472951 25.30829425 19.95819109 0.00231338 -0.00146133 -0.00323494
O 6.40289557 24.54251203 21.38829814 0.00231930 -0.00088030 0.00473141
O 5.23370100 0.26484883 20.03143377 -0.00554916 0.00028486 -0.00518764
O 9.23950321 23.64655959 14.21283272 0.00070893 -0.00097488 0.00783495
O 10.70516984 19.26422341 15.71398728 -0.00309256 0.00061227 -0.00374952
O 4.31563840 27.78652490 26.32918524 -0.00184369 -0.00705313 0.00594906
O 5.62038561 22.96087550 27.02478903 -0.00240205 -0.00525207 0.00486944
O 8.07674043 20.71314730 33.10836859 0.00122871 0.00303869 -0.00502093
O 6.79258437 25.44737919 32.15606512 0.00209370 -0.00729474 -0.00007901
O 4.86225422 24.30628116 33.43725080 0.00226372 -0.00111723 -0.00296519
O 3.56754815 0.09560564 32.15282977 -0.00241072 0.00064315 -0.00294716
O 7.70710689 24.29388273 25.92157378 0.00559341 -0.00034488 0.00005641
O 9.36784396 19.62480347 27.58492443 -0.00058702 0.00533050 0.00039683
O 14.66581249 8.49065920 2.72355949 0.00261602 -0.00057219 0.00199796
O 15.72134186 3.96661159 3.58983398 0.00096246 0.00066620 0.00222558
O 18.34757471 1.06159675 9.26764373 0.00324767 -0.00499310 -0.00137941
O 17.26602830 5.79750049 8.19051174 0.00531734 -0.00135075 0.00471101
O 15.07477164 4.99469020 9.42996810 0.00270657 -0.00070054 -0.00015222
O 13.83576651 9.62288538 8.45734603 -0.00287188 0.00106899 0.00232159
O 17.72122782 5.00277385 2.26202371 -0.00296692 0.00515507 0.00761808
O 19.23710644 0.08742909 3.91928090 -0.00179966 0.00485496 0.00063336
O 13.12602957 8.74463498 14.35455119 -0.00016180 0.00012637 -0.00260266
O 14.06099798 3.99747742 15.67648330 0.00171004 -0.00558051 -0.00298567
O 16.85730579 0.99756490 21.44716462 0.00011416 -0.00267783 -0.00673785
O 15.67734138 5.71307185 20.34035712 -0.00294883 -0.00445600 0.00214318
O 13.73090773 4.92566531 21.58524975 -0.00573281 -0.00255612 0.00459457
O 11.99149005 9.65959405 20.09683738 -0.00216115 -0.00023721 -0.00168398
O 16.24969349 4.75189367 14.01842495 -0.00487512 -0.00018633 -0.00072668
O 17.72136492 28.89243864 15.49677783 0.00069151 -0.00165066 -0.00508808
O 11.39130939 8.54769103 26.21097104 0.00359187 -0.00427966 -0.00521657
O 12.61991919 3.62556707 27.36005311 0.00284741 0.00744013 -0.00380521
O 14.90330827 0.66899786 33.45140586 0.00372601 -0.00425782 0.00472051
O 14.13185557 5.97396853 31.89346621 0.00047802 0.00368345 0.00423941
O 12.10531370 4.99793108 33.32225180 0.00193790 -0.01130233 0.00268878
O 10.57584287 9.67381460 31.89495602 0.00133739 0.00906342 0.00730708
O 14.88826915 4.20385947 26.27373399 0.00069053 0.00170401 -0.00131752
O 16.16226987 0.33890656 27.27598349 -0.00139168 0.00110419 -0.00287460
O 14.53538951 18.22674283 2.54618801 0.00257590 0.00342158 0.00500346
O 15.47977393 13.41728774 3.72544585 0.00327433 -0.00056133 -0.00368111
O 18.38202295 10.63370879 9.74290338 0.00419172 -0.00272274 0.00336637
O 17.12630299 15.46929005 8.22549920 0.00023983 -0.00202686 0.00376813
O 14.93665354 14.36984254 9.73166952 -0.00517166 -0.00004569 -0.00208783
O 13.36263082 19.37330850 8.01998826 0.00002938 -0.00762983 -0.00282472
O 17.94532063 14.40065988 2.30226528 -0.00249356 -0.00037916 -0.00141529
O 19.50433275 9.54503938 3.60766918 0.00022318 -0.00556762 -0.00521134
O 12.72660254 18.09984913 14.31441757 -0.00413807 0.00383146 0.00070017
O 14.22030931 13.02543972 15.18698461 -0.00242779 -0.00569359 0.00512636
O 16.80838330 10.72449089 21.32902183 -0.00419032 0.00042316 0.00216488
O 15.33551845 15.43840664 20.35013429 -0.00230710 -0.00135821 0.00044789
O 13.48076908 14.43278762 21.64155499 -0.00390968 -0.00089573 0.00404670
O 11.75521187 19.38803368 19.99898616 0.00089657 -0.00619259 -0.00668444
O 15.97735225 14.55196293 14.20638697 -0.00160472 0.00235714 -0.00490263
O 17.77560131 9.58890499 15.67306000 -0.00262732 -0.00456838 0.00054630
O 11.49228990 18.70554974 25.90449395 -0.00428208 0.00341544 -0.00103458
O 12.79070859 13.57143684 27.28916312 0.00193222 0.00664579 0.00206143
O 15.34744593 10.82260556 32.93490319 0.00125719 -0.00131071 0.00358954
O 14.10121192 15.50155742 32.00633646 -0.00092781 0.00318070 0.00023349
O 12.07382984 14.56211978 33.49132867 -0.00207064 -0.00135432 0.00062521
O 10.06867820 19.42372237 32.05301098 0.00453871 -0.00113907 -0.00179041
O 14.64767040 14.67767048 25.93813664 0.00289669 0.00280622 -0.00476424
O 16.26284348 9.59331903 27.32613033 0.00347142 -0.00662636 0.00929140
O 14.57907066 27.86112445 2.59576209 -0.00426757 0.00141306 0.00282747
O 15.58746263 23.50959551 4.09718898 0.00574316 0.00215602 0.00105877
O 18.27513267 20.70957997 8.94983962 0.00056795 0.00390408 0.00342798
O 17.10522810 24.69969077 7.96656868 -0.00331467 -0.00566156 -0.00383443
O 15.02341224 23.98585653 9.39013000 0.00378211 0.00621968 -0.00037589
O 13.40887788 0.10155661 8.01630124 -0.00022811 -0.00218358 -0.00663855
O 17.58522068 23.51581778 2.40104927 0.00288142 -0.00186113 0.00030252
O 19.44200070 19.20877311 3.58981083 0.00327429 -0.00653105 0.00003438
O 13.08804396 28.11986327 13.75627679 -0.00860671 0.00083409 -0.00158359
O 14.09982455 22.90172759 15.23442757 0.00254820 -0.00336759 0.00645956
O 16.63507024 20.36830953 21.54638427 -0.00250414 -0.00021501 0.00153726
O 15.50630189 25.19029991 20.28455932 0.00194125 -0.00053052 -0.00611667
O 13.53187216 24.27554129 21.67744751 0.00162227 0.00258582 -0.00568346
O 12.03416176 0.09600059 20.29515792 -0.00452239 0.00079971 0.00511851
O 15.93352621 24.02527134 13.79726099 0.00427706 0.00272983 0.00543904
O 17.65648278 18.99473253 15.64682782 0.00910267 0.00296356 -0.00131013
O 11.16922876 27.98613411 26.06293493 -0.00240478 -0.00295347 -0.00274045
O 12.41676976 23.28944156 27.31516330 0.00408753 0.00036237 0.00295806
O 15.10342131 20.53690828 33.14088913 0.00034292 -0.00283512 -0.00194668
O 13.86263004 25.55066998 32.17411902 0.00629630 0.00571462 0.00111517
O 11.69547730 24.48016032 33.16026153 0.00118354 -0.00053305 0.00452827
O 10.32415686 0.18944516 32.11276939 0.00065013 0.00171898 -0.00055884
O 14.57430192 24.56180731 25.97080622 0.00334601 -0.00412365 -0.00268264
O 15.92417046 18.92585424 27.15002668 -0.00504728 -0.00452714 -0.00215108
H -0.09811066 8.98363962 2.30541718 0.00515468 -0.00992914 0.01882366
H 2.98124465 3.94582439 3.14844128 0.00564723 -0.00390120 -0.02201048
H 5.13541444 0.48548863 9.33405306 -0.01539468 -0.01355312 -0.01251141
H 2.68085073 5.28724592 8.60815703 -0.01278122 -0.01651719 -0.00294045
H 5.89199099 8.34956590 0.66544312 0.01108203 -0.03097017 0.00082068
H 3.85356432 3.26335823 5.23661041 -0.00254833 -0.02145455 -0.00688253
H -0.35148916 1.28587897 10.99788466 -0.01031834 -0.00346237 0.01827676
H 1.43627492 6.21017873 6.48728044 0.01900537 -0.01620611 0.02862097
H 4.28822644 6.88117049 10.57109028 0.02624329 -0.02800234 -0.01628507
H 3.79452104 1.80864313 7.07117109 -0.00758361 0.00380787 -0.00615579
H 1.02585064 2.87148661 1.32078283 0.02007157 -0.00404751 -0.02461311
H 1.56410818 7.71010761 4.65213251 -0.00917671 -0.00119312 -0.00823137
H -1.62545450 5.45859298 35.42874683 0.02388091 0.00781892 0.00283816
H -0.07065531 0.42185655 5.81222121 -0.01653749 0.01059510 0.00642412
H 2.39727029 4.22814991 12.03208303 0.01392034 0.00776396 0.00102192
H 5.62056770 8.72138950 5.80301530 0.00775825 0.01486509 -0.01358163
H 3.06893480 7.14283578 1.39345252 -0.00863912 0.00491599 -0.00611004
H -0.20763445 2.40121109 4.16192078 -0.00093698 0.00003376 0.02555376
H 2.40430680 2.51386316 10.22520250 -0.00985653 0.00414655 -0.01116869
H 5.62519084 7.16454408 7.51252114 0.00293517 -0.00611066 -0.01453285
H 4.94819231 4.92986238 9.75265971 0.02229951 0.00850815 -0.01467545
H 2.84118456 0.04070578 8.05585635 0.00189419 -0.00431048 0.00801278
H 0.22791246 4.84574410 2.14703114 0.01238926 -0.00576949 -0.00960611
H 2.53723357 9.71344873 3.98774373 0.00840722 -0.02205728 0.01062022
H 6.63489601 2.60513539 8.92423848 0.00260046 -0.00630050 0.01755608
H 1.68642689 7.50601772 9.44073764 0.02677387 0.00156189 -0.03171055
H 19.40102340 6.97309446 3.46995255 -0.00554580 0.02063687 0.00632303
H 2.99660478 1.27424948 2.18192935 0.00649366 0.00292286 -0.01124099
H -1.09015848 3.38203463 8.42635583 0.00911043 0.00318365 0.00576950
H 1.09693154 8.50616884 10.62221445 0.02371983 0.00167493 -0.00725774
H 4.91680792 5.98471835 4.56086124 -0.01955620 -0.01752656 0.00411431
H 4.46351288 2.15767197 2.75089971 -0.01015279 -0.02734566 0.00785585
H 0.62451294 2.79655676 8.72710580 -0.00515698 0.01327680 0.00028333
H 2.85973545 8.75304086 9.88276784 -0.00034788 0.01158540 -0.01145458
H 6.56598442 5.83975684 4.13318610 0.01131649 0.02797046 0.02310666
H 4.70010051 0.94169882 1.48833709 0.00038920 0.00133288 0.00986040
H -1.55653463 8.89888754 14.74181083 0.00114579 -0.00454003 -0.00638512
H 1.24738690 4.12975863 14.93345958 0.01343926 0.00973786 0.02383154
H 3.99711645 0.98551670 20.96087998 0.00158045 -0.02087792 0.00756386
H 1.05208407 5.37695520 20.51079081 0.03042026 0.02381106 -0.03268677
H 4.08795094 8.27479078 12.80839306 -0.00114010 0.00990634 0.01073469
H 2.11193956 3.56522634 16.96350211 -0.00097969 0.00711395 0.00419710
H -1.83821618 1.32009026 23.36954243 0.01154963 0.02804164 0.01880427
H -0.10452402 6.04026793 18.66906772 -0.00423251 -0.00813346 0.00418273
H 2.71643119 6.45050861 22.68359531 -0.01553806 0.00865295 0.00598868
H 2.13249643 2.16146036 19.11951939 0.00865616 0.00782435 0.00326189
H -0.49569403 2.88095194 12.90403646 -0.01678634 0.00144814 -0.01069748
H -0.04159457 7.53595816 16.71638557 0.00280342 -0.01343318 0.00006077
H 1.08438504 5.36417478 11.71563147 -0.01941498 0.01965225 -0.01950489
H -1.67902506 0.66727980 18.03583027 0.01606568 -0.00905320 0.00599050
H 1.08662576 4.19223299 23.86550417 0.01144345 0.00039687 0.01100458
H 4.01591220 8.69613987 17.69332718 0.03140378 -0.00086862 -0.00271347
H 1.19470932 6.97812787 13.75516769 -0.00913017 -0.02050448 0.01994644
H -1.67253171 2.01323761 15.93978571 0.02511682 -0.01049441 0.01501867
H 1.00053153 2.35628601 22.30520053 0.00460490 -0.00645584 -0.00444379
H 3.98056313 7.09770019 19.44936333 -0.00396431 -0.00781727 -0.00805639
H 3.75940179 4.77578953 21.62859262 0.00705964 -0.00622123 0.02418446
H 1.50659686 28.92570421 19.81718790 0.00765634 -0.01180561 -0.02461399
H -1.27212577 4.79110288 13.75468053 -0.01600861 0.01790481 -0.01385550
H 0.78824227 9.21796171 15.63622450 -0.03649864 -0.00513878 -0.02111004
H 6.41797148 3.00668487 19.88509513 -0.00218135 0.00929379 -0.00036877
H -0.29899226 9.00722979 22.62812386 -0.00709281 -0.00336916 -0.01599921
H -1.87329286 5.76297546 15.73700912 -0.00723345 -0.00731218 0.00057269
H 3.22438978 2.42886302 15.00258333 0.00254140 -0.00351916 0.01791563
H -1.81542454 2.57332929 20.54343643 -0.00422992 0.03126906 0.00019781
H 0.97138710 8.38928469 21.43649811 -0.02472151 -0.01358661 0.00101053
H 4.11209976 6.95418707 15.45204560 0.00395340 -0.00517086 -0.00872239
H 3.47628658 1.32448715 13.53084637 -0.00722377 0.01714347 -0.01118729
H -1.28409073 3.73805114 19.32226804 0.00686721 -0.00894900 -0.01148485
H -0.67321875 7.60952013 21.55907317 0.03719713 -0.03877451 -0.01883697
H 3.37779561 5.89985124 16.54399147 -0.01160788 0.01895578 0.00441032
H 1.77768102 1.65721441 14.32445550 -0.01602106 0.02061178 -0.00934027
H -3.11608410 9.20438431 26.06235463 -0.00080955 -0.01357030 -0.02947245
H -0.37265602 4.28462087 26.89870449 -0.00003507 0.00985101 0.02274507
H 2.29560500 0.42987066 32.86904269 -0.02179593 0.01153934 -0.01909654
H -0.45321641 5.56163735 32.34380031 0.03141841 -0.02796487 0.01624253
H 2.61597771 8.04615940 24.37968308 -0.00101395 0.00510702 -0.00876071
H 0.69268150 3.58296843 29.02752108 -0.02745081 -0.01176220 -0.01629501
H -3.77545245 1.03833940 35.19365337 -0.03043877 0.01617171 -0.02538461
H -1.51885763 6.25289299 30.47022112 -0.00352648 -0.01441093 -0.01942776
H 1.21167408 6.74573638 34.27719130 -0.02936363 0.01440122 0.00423459
H 0.74244619 1.95864528 30.93232812 -0.00764472 0.01361848 -0.00536879
H -1.91927249 3.05093840 25.02652145 0.01429613 -0.02924644 0.01151019
H -1.66943157 7.83908381 28.61142813 0.01491893 0.01740887 -0.01938276
H -0.38393600 5.45457623 23.56373340 -0.02086822 0.00158562 0.00021983
H -3.14921870 0.49060777 29.65714250 -0.01290194 -0.01016261 -0.00480425
H 4.18493614 4.13718156 0.17644598 -0.03023604 -0.01258793 -0.01621867
H 2.48687737 8.92364242 29.46161747 0.01365645 -0.00896359 0.01233043
H -0.26401010 7.04272689 25.44850099 -0.00630543 -0.00859338 -0.01212773
H -3.14834251 2.07154273 27.84913984 -0.02812492 0.03261802 0.01990593
H -0.61765178 2.45288215 33.87377044 0.01044406 0.01233503 -0.00960971
H 2.41118473 7.35764388 31.29180175 -0.00305804 -0.00732415 -0.00846752
H 2.10848444 4.74776371 33.44819260 -0.01292743 -0.00314748 0.01358013
H -0.36192192 0.19419687 32.08410235 -0.00225940 0.00318720 0.01154031
H -2.82489351 5.02459289 25.79091904 0.00924492 -0.01803860 0.02051503
H -0.49308000 9.46245381 27.09299854 -0.02280840 0.00938631 0.00402602
H 4.74478477 3.05772050 31.98422391 -0.01723628 0.00323947 -0.01461896
H -2.80647937 8.31041155 33.91743146 0.00189078 0.00238141 -0.00684618
H -3.70439246 5.63787995 28.21243680 -0.02096383 0.00798976 0.00244258
H 0.72091740 2.14072240 26.82054711 0.01257893 0.02177188 0.00789270
H 16.31773571 3.37667950 31.68447983 -0.00296402 -0.00956833 -0.02058719
H -1.31424129 9.14249908 34.34961207 -0.00608585 0.01064843 0.02041858
H 1.46962742 5.66175766 28.28407347 -0.03168165 -0.01152299 0.00928065
H 1.64296243 1.10771002 25.63534078 -0.01951060 0.01801145 0.00825168
H -2.93253233 2.47646720 32.15669866 -0.00337095 0.02509912 -0.00654453
H -1.27988561 7.63416267 33.32649660 -0.01070060 -0.00208456 -0.01258782
H 3.24948320 5.64839700 27.98053893 0.00261312 -0.01163773 0.00459319
H -0.09868584 0.96639760 25.89923037 -0.01396470 0.01412181 -0.01125759
H -0.22104479 18.93702241 2.37603470 0.01958222 -0.01023149 0.01104586
H 2.99662820 13.67321273 3.21242536 -0.01791066 -0.00534718 -0.00301516
H 5.61151565 10.26740179 8.63652326 0.01764264 -0.01287106 -0.01201916
H 2.37274787 15.34926264 8.56903478 -0.01776386 0.01625026 0.00533485
H 5.45691162 17.57488576 0.74550630 0.00252110 -0.03568877 -0.02506819
H 4.00255377 13.16299107 5.17676044 -0.00096042 0.00651071 -0.00751364
H -0.26167746 11.22713431 11.27801687 -0.00072044 -0.00610417 -0.00192661
H 1.28712478 15.99706931 6.60622108 -0.00355457 0.00728777 -0.00343449
H 4.20028142 16.45058192 10.59589968 0.01320097 0.01151844 0.01928072
H 4.04946434 11.58820656 7.08439861 0.03694343 0.00127370 0.00091324
H 1.21474930 12.34237117 1.25962127 -0.00099882 -0.01506073 0.00198333
H 1.36752839 17.27441192 4.59104230 -0.02052634 0.00380498 -0.00284542
H -2.05851930 15.20192807 35.51480345 -0.01022390 0.01510548 0.01300371
H 0.07970120 10.22197371 6.13918043 0.00644942 0.01240173 -0.00713567
H 2.78057387 13.74066560 11.61550783 -0.00753176 0.02024821 -0.01668026
H 5.33786971 18.73303649 5.61375145 -0.00472813 0.02900077 -0.01516953
H 2.56670883 17.03248471 1.70434028 -0.00481292 -0.01359723 -0.00492228
H 0.09600637 11.81361315 4.23198744 0.00581080 0.01286010 -0.00788022
H 2.66170423 11.99497906 9.85961476 -0.00463491 -0.01888915 -0.03986880
H 5.41560405 16.93759870 7.34227738 0.01268321 -0.01085581 -0.00419845
H 4.99467678 14.50383734 9.55155034 -0.00236438 -0.00581565 -0.01039397
H 3.24320581 9.49837602 7.79784371 0.00523504 0.00014670 -0.01374542
H 0.50918225 14.32387711 2.06120495 -0.00140133 0.01337032 0.02365186
H 2.31297197 19.12768440 3.40538312 0.01761653 0.01403117 -0.01312263
H 6.49382862 12.36794782 8.13057435 -0.00551514 -0.00854911 0.00364122
H 0.55179756 17.15953389 9.34579709 -0.00358245 -0.02679122 0.00970990
H 19.12646893 16.59663641 3.52303727 -0.01675090 -0.03008122 -0.00743164
H 4.55893069 10.21873281 1.26275891 -0.00664196 0.00729279 0.02316245
H 0.37102825 12.72948715 7.98727810 -0.00883680 -0.00887590 0.01855000
H 0.73689932 18.62783628 10.40839422 0.00728037 -0.00360855 -0.01813085
H 6.60977480 14.74993484 4.33840694 0.00234241 -0.01131676 -0.00403269
H 3.10873370 10.86687963 2.26089714 -0.00393169 0.01193864 -0.01006327
H -0.62145050 13.97902645 7.37991386 0.00322661 0.00607847 -0.02630399
H 2.18246501 18.08487970 9.50141008 0.01697163 0.02671529 0.00810127
H 6.10558614 16.32431578 3.48367082 0.00635157 0.00846387 0.00978988
H 4.66465196 11.74909251 2.28564492 0.00821274 -0.00560164 -0.00502406
H -1.76563206 18.54365648 14.74012265 -0.03355315 -0.01535788 -0.03676834
H 1.09263631 13.65435273 14.95287867 -0.00137002 -0.00041675 0.00561706
H 3.95950543 10.06829505 20.78018499 -0.00565083 -0.02421214 0.00122321
H 1.01604684 15.00682451 20.50173166 -0.01263774 -0.01542138 0.00769045
H 4.28735182 17.89038908 12.47948631 0.01295476 -0.01840304 0.00026270
H 2.22893747 13.03275146 16.84873880 0.01530927 0.01101695 -0.01621548
H -1.76532653 11.27209755 22.85057676 0.00965889 0.02332651 -0.01422118
H -0.07830215 15.76225832 18.31455850 -0.01123742 -0.02167788 -0.03159659
H 2.69255407 16.26225655 22.50550266 -0.00782189 0.00869093 -0.00854992
H 2.44576406 11.36368745 18.73778790 0.02684885 -0.01487097 -0.00053322
H -0.40099991 12.49924870 13.29583282 0.01534761 0.00627562 -0.00813710
H -0.14151305 17.58175911 16.64386206 -0.01176997 -0.00394347 -0.02092310
H 1.14525381 15.38681485 11.68716333 0.01737853 -0.01740713 0.00118425
H -1.55464748 10.05711660 18.04767287 -0.01410546 -0.01836846 -0.01920620
H 1.18987455 13.84094059 23.46900059 -0.00133132 -0.01614329 0.01709609
H 3.85054515 18.74658636 17.81141412 -0.00696262 0.01639575 0.00170713
H 1.15455509 16.96516477 13.61300413 -0.00652139 -0.00079107 0.02624671
H -1.71172741 11.68930465 16.08415842 -0.01735536 -0.01002509 0.00692900
H 1.13599881 12.17252436 21.73988125 -0.00590882 0.01013658 0.01358714
H 3.91551006 17.09838893 19.53258621 -0.00597017 -0.00395803 0.00368911
H 3.63655306 14.58350205 21.35505183 -0.00080472 0.01376711 0.01576481
H 1.38466577 9.60244969 19.89434140 0.00404594 0.00938587 -0.02214642
H -1.51114636 14.60338161 14.30622691 0.03122365 0.00251866 -0.01894891
H 0.91053081 19.52033224 15.89089866 -0.00850519 0.00291677 0.01304425
H 5.64594629 13.33949979 19.21656185 -0.00089794 -0.01038142 0.00336620
H -0.76064548 18.61304373 22.48801649 0.00247352 -0.02946215 -0.00059304
H 18.35625375 15.51275177 16.28845454 0.02298336 -0.00858024 -0.01106087
H 2.80793207 11.82997706 14.72923919 0.00354293 -0.02589639 0.00119621
H -1.73564169 12.55558170 19.81930375 -0.00925722 0.00177425 0.00245037
H 0.66444474 17.96756150 21.55295508 -0.00773878 -0.01034693 0.01104194
H 4.13772618 16.32021608 14.82336080 -0.00699957 0.02186634 0.00585224
H 2.89175015 10.64990623 13.42806875 0.01920259 0.00913024 -0.02575054
H -0.67992703 13.73810173 19.16721876 -0.00205795 0.00491301 0.00540205
H -0.92020727 17.31445890 21.28741322 0.01933927 0.01879737 0.01185811
H 2.76287926 15.59977387 15.80262628 0.01670230 -0.00465341 0.01892376
H 1.37028710 10.79033743 14.33479409 0.01553776 0.01409224 0.01949668
H -3.27549704 18.42839982 26.52279850 -0.00392076 0.00121304 -0.01687480
H -0.17450748 13.70923978 26.92260069 -0.00403947 0.01252613 -0.01198244
H 2.43987545 10.31007585 32.58112347 -0.01737614 0.02133288 0.00397695
H -0.52552561 15.10752483 32.58378235 -0.02847896 0.00873328 -0.01236294
H 2.45543540 17.62666129 24.63764146 0.02722246 -0.03258972 -0.02064937
H 0.90564983 12.93829205 28.85571546 -0.02055974 0.00934234 0.01515427
H -3.31104105 10.99179329 34.71153318 -0.00666912 0.01494578 0.00813520
H -1.55687725 15.46523258 30.42383030 -0.02208490 -0.00172368 -0.00604471
H 0.90419962 15.89550378 34.34870385 0.00523756 0.00253947 0.01717033
H 0.75541558 11.39318437 30.87752233 0.01931321 0.03295462 -0.01028281
H -1.79315932 12.91432383 24.73178077 0.00369004 0.01492146 0.00299576
H -1.78439153 16.99061963 28.62750488 -0.00871092 -0.03055976 0.00601024
H -0.42556179 15.14864867 23.33272559 0.00072266 -0.00663607 0.00818265
H -3.11685869 10.20499834 29.83072950 0.00006728 0.01226913 -0.00732544
H 4.30550360 13.50303284 0.12726859 -0.00400391 -0.01412213 0.02452653
H 2.34628742 18.32123909 29.25707287 0.00932064 0.01174843 -0.00636044
H -0.49599169 16.73186198 25.50459195 -0.01409615 0.03324933 -0.02103805
H -3.00687353 11.68483454 27.80961376 -0.00939809 0.01429987 -0.01343739
H -0.53455373 12.13297274 33.75004801 -0.00939692 0.00298097 0.02445237