2160
Time=19999.99999999 pbc="T T T" Lattice="20.73798205 0.00000000 0.00000000 0.00000000 28.81068405 0.00000000 -4.71826358 0.00000000 35.39781808" energy=-13802.27662969 virial="-28.16123060 20.66083497 84.88496254 20.66083497 -40.13985931 30.74776612 84.88496254 30.74776612 -32.53378935" stress="0.00133542 0.00099331 0.00417096 0.00099331 0.00024196 0.00147974 0.00417096 0.00147974 0.00060487" Properties=species:S:1:pos:R:3:vel:R:3
O 0.65030749 8.44296635 2.25777126 -0.00200601 -0.00065890 -0.00284690
O 1.88260709 3.63674082 3.49154357 -0.00139661 0.00095866 0.00007691
O 4.74540993 1.42774797 8.95498866 -0.00528469 -0.00195547 0.00161577
O 3.51432585 5.47637374 7.81142093 0.00026701 -0.00186684 0.00334012
O 1.45921839 5.19009145 9.51219645 -0.00152306 -0.00133235 -0.00069403
O -0.02978181 9.70362963 8.35651297 0.00018073 0.00118294 -0.00077786
O 3.98222888 4.63471557 2.07724917 0.00317104 0.00092805 -0.00050730
O 5.71814686 28.73102396 3.66929832 0.00161428 0.00141171 0.00000146
O -0.70892109 8.46409170 14.48607620 -0.00567557 -0.00037863 0.00166842
O 0.27604148 3.61988123 15.19737353 0.00231495 -0.00130340 0.00136601
O 3.06591783 0.84224155 21.29915178 0.00281659 -0.00192865 0.00278325
O 1.86135511 5.60384971 19.91222096 0.00719325 0.00060149 -0.00004797
O -0.34890908 4.86755327 21.35493507 -0.00521400 -0.00105942 -0.00163283
O -1.85012933 9.59029366 20.12068429 0.00412745 0.00090893 0.00083653
O 2.45922759 4.47651530 14.11261729 -0.00224052 0.00193701 -0.00230134
O 4.03934671 28.71705408 15.45105497 -0.00356098 -0.00060010 -0.00062408
O -2.63671761 8.75352097 25.95286395 -0.00499261 0.00422969 -0.00138830
O -1.20050677 3.79504037 27.02934658 0.00365396 0.00519282 0.00293562
O 1.60087800 1.14030719 32.81048232 -0.00357427 0.00315243 -0.00443700
O 0.24154450 6.02746087 32.09624167 0.00441985 -0.00256278 0.00313406
O -1.98724749 4.70136559 32.92529261 0.00292214 -0.00288069 0.00497518
O -3.56117995 9.89732074 31.98908931 -0.00374309 -0.00217010 0.00226717
O 0.92748183 4.87231997 25.72248078 0.00052603 -0.00207439 0.00210140
O 2.48382375 28.64663287 27.03098085 -0.00225732 -0.00287889 0.00420011
O 0.84786167 18.18427787 2.50731083 0.00227245 -0.00109358 0.00291126
O 2.04828405 13.27215797 3.52092099 0.00053501 -0.00102429 -0.00327746
O 4.75472248 10.84496833 9.27810987 -0.00068241 -0.00106332 -0.00021179
O 3.47800432 15.44984129 8.33978095 -0.00117734 0.00314690 -0.00594572
O 1.32984836 14.48651082 9.26742808 0.00270864 -0.00076537 0.00359632
O -0.23238567 19.14178641 7.89132420 0.00146219 0.00258822 0.00022313
O 4.17547167 14.54013610 2.27227972 0.00000333 -0.00454578 0.00350878
O 5.61363549 9.42824249 3.51266377 0.00330203 0.00086315 0.00274128
O -0.77439865 18.17556903 13.99456210 0.00311520 -0.00480672 0.00209687
O 0.24442162 13.30270022 15.24486131 -0.00338038 0.00124634 0.00208177
O 3.02199934 10.53673641 21.14876086 -0.00152169 0.00013209 0.00385421
O 1.54121336 15.69150272 20.39671281 0.00178042 -0.00317905 0.00280790
O -0.34924366 13.95813713 21.25904823 0.00000248 -0.00097782 0.00587952
O -1.70399307 19.54554560 20.05681822 -0.00322513 -0.00144356 -0.00068644
O 2.51218358 14.22040542 14.17855210 0.00175648 0.00010833 0.00103596
O 4.21845750 9.86917757 15.84667083 -0.00059564 0.00019196 -0.00063550
O -2.48585832 17.87465327 25.93556719 -0.00272085 0.00311832 -0.00215305
O -1.52029079 13.33870899 27.10264900 -0.00795277 -0.00355536 -0.00098671
O 1.49434960 11.04384617 32.81612124 0.00280380 -0.00066452 0.00661494
O 0.33903933 15.37577214 31.87374684 -0.00628618 -0.00008051 0.00538624
O -1.71001011 14.67323341 33.07345193 0.00734916 0.00458766 0.00061678
O -3.33936745 19.24014503 31.67537236 0.00095862 0.00229256 -0.00314421
O 0.79979163 14.30452517 25.99092220 0.00090822 0.00067483 0.00283453
O 2.16595632 9.59578254 27.16029044 -0.00651569 -0.00063107 0.00198043
O 0.79186565 27.73277222 2.38529600 0.00247400 0.00584198 -0.00147427
O 2.12356979 22.86074498 3.33788720 -0.00007584 -0.00420957 -0.00430010
O 4.63810344 20.01830737 9.36700242 -0.00659763 -0.00180820 0.00555887
O 3.30663732 25.36785038 8.50009067 0.00242571 -0.00374077 -0.00018635
O 1.31457187 23.97837818 9.69225910 -0.00215651 -0.00436380 0.00364093
O -0.05000960 0.08674081 8.38007319 -0.00236318 -0.00216022 -0.00266851
O 4.11099984 24.19949776 2.10729797 -0.00034107 -0.00097986 0.00640261
O 5.64625535 19.07422995 3.46981848 0.00046757 -0.00055302 -0.00233370
O -0.98504988 27.80808670 14.33006994 -0.00054049 0.00436888 -0.00057466
O 0.50757110 22.95369461 15.00298440 0.00544495 0.00085133 0.00022359
O 3.01090046 20.10692877 21.14864640 -0.00403342 -0.00006179 -0.00659144
O 1.81200264 24.91736721 20.04684235 -0.00219858 -0.00017202 0.00701901
O -0.20405016 24.02641611 21.37191173 -0.00079664 0.00178675 -0.00134525
O -1.79477671 0.10559335 20.20583211 0.00199264 0.00366798 -0.00116786
O 2.56843060 24.02981229 14.01480597 0.00277646 -0.00250141 -0.00050602
O 3.91122348 18.89217918 15.41285044 0.00013538 -0.00034923 -0.00435223
O -2.50502233 27.55154073 26.09894003 -0.00573830 0.00148799 0.00371900
O -1.20849242 23.01858810 27.14830514 -0.00254522 0.00494263 -0.00186146
O 1.60552345 20.51197628 32.71480200 -0.00361277 0.00103580 -0.00223951
O 0.24217179 25.06627092 31.71898526 0.00473857 0.00272810 -0.00013426
O -1.79977210 24.20009609 32.94555015 -0.00615552 0.00177221 -0.00022530
O -3.21437176 0.07796594 31.61311363 -0.00088990 -0.00295612 0.00212560
O 0.94851726 23.55084552 25.97966652 0.00211050 -0.00011034 -0.00407122
O 2.53393003 19.03278775 27.06412084 0.00103536 0.00093212 -0.00158947
O 7.70348685 8.64696679 2.36587668 0.00244604 -0.00504925 -0.00177322
O 8.94228529 3.78219612 3.50851894 0.00534221 0.00948960 -0.00278049
O 11.49480488 0.93187414 9.50651805 0.00142021 -0.00504163 -0.00272779
O 10.50826213 5.94436937 8.28438416 0.00037351 -0.00612095 -0.00471510
O 8.28654067 4.89477288 9.51275728 -0.00251242 0.00274669 -0.00347505
O 6.86964519 9.60853955 8.44464118 -0.00204006 0.00790680 -0.00117072
O 10.97430515 4.87342680 2.32175692 0.00008420 -0.00008447 -0.00177237
O 12.59585399 0.10236180 3.59297358 -0.00397344 0.00194740 -0.00143402
O 5.93799998 8.32518035 14.42200586 0.00303969 0.00052598 0.00129084
O 7.33408078 3.56091034 15.11053046 -0.00296871 0.00163131 0.00852364
O 10.00302723 1.07035316 20.91716910 -0.00375821 -0.00284863 0.00631973
O 8.80841546 6.10697055 20.46660737 0.00546646 -0.00593144 0.00005262
O 6.71928719 4.82663580 21.28435547 -0.00326603 -0.00048596 -0.00213804
O 5.31303081 9.72958176 20.10852525 0.00174792 -0.00310428 -0.00361050
O 9.23374538 4.93668318 13.89950390 0.00080272 0.00591623 0.00022287
O 10.78476055 28.71766709 15.35690725 0.00246561 -0.00043693 0.00158233
O 4.18329684 8.39031213 26.02740677 0.00369465 -0.00029040 0.00603119
O 5.53445180 3.57144877 26.88755339 0.00131835 0.00821693 -0.00474204
O 8.41308463 1.18177441 32.94574011 -0.00326222 -0.00481713 0.00218344
O 6.89219438 6.05337056 32.00339309 -0.00007418 0.00052539 0.00241034
O 4.97137087 4.76930187 33.14184741 0.00350579 -0.00156450 0.00120861
O 3.45152738 9.73846220 32.04667535 0.00279882 -0.00065740 -0.00170514
O 7.62898135 4.76852321 25.64477179 0.00061379 0.00173907 -0.00409427
O 9.45727199 0.15102041 27.41171800 -0.00000629 -0.00182714 0.00086147
O 7.92603622 18.37313453 2.26501343 0.00430307 -0.00161484 0.00523978
O 8.80261466 12.97828937 3.44199329 -0.00044746 -0.00086539 -0.00961713
O 11.64512079 10.47712444 9.46449716 0.00392823 0.00004055 0.00016792
O 10.39195018 15.75450041 8.49418144 -0.00612439 0.00855236 -0.00296652
O 8.18480492 14.65743351 9.39279841 -0.00300596 -0.00079960 0.00311126
O 6.73143879 19.25701700 8.10640780 0.00148549 -0.00586563 -0.00162201
O 10.75659501 14.55514751 2.55285103 -0.00233935 -0.00138382 0.00182884
O 12.39822244 9.18819050 3.35112849 0.00041881 0.00007968 -0.00392259
O 6.03883203 18.09578103 14.15533393 0.00316920 -0.00220068 -0.00052264
O 7.38039983 13.34253802 15.54318856 0.00168789 0.00191051 0.00029396
O 10.10987179 10.88956599 21.06881678 0.00300547 0.00514643 -0.00096585
O 8.55189151 15.59281940 20.16847007 0.00176601 0.00232523 0.00075614
O 6.57644960 14.34660088 21.28626103 0.00158089 0.00190655 0.00196430
O 5.16583985 19.30891649 20.00224617 -0.00122770 -0.00073670 0.00076112
O 9.36389182 14.26955796 14.13306778 0.00172538 -0.00101905 0.00324258
O 10.85239414 9.39387302 15.42734381 -0.00115762 0.00058795 0.00319095
O 4.54940890 17.99676078 26.02989879 0.00955189 0.00051953 0.00101798
O 5.29847895 13.37166962 27.16213920 0.00132024 -0.00347621 0.00394448
O 8.31207482 10.92801795 33.01881853 0.00043128 0.00700529 -0.00256053
O 7.29332492 15.44449844 32.10411228 -0.00648190 -0.00277861 0.00063482
O 5.06024169 14.44632759 32.91741997 -0.00220265 -0.00265201 0.00125646
O 3.52147445 19.09582029 31.55852247 0.00154466 0.00238381 0.00267539
O 7.62677962 14.14971582 26.12075073 -0.00043115 0.00374960 -0.00476520
O 9.19238550 9.32108017 27.15955835 -0.00124326 -0.00006670 0.00666633
O 7.80736596 27.67308009 2.42711890 -0.00492185 0.00206636 -0.00314951
O 8.98811967 22.73127747 3.40382370 0.00232209 -0.00341843 -0.00300258
O 11.54197431 20.11002285 9.51658582 0.00303883 0.00163862 0.00677550
O 10.46966083 25.14581923 8.33444207 0.00149722 0.00307912 -0.00179605
O 8.41340588 24.20195033 9.60193046 0.00062840 0.00116718 -0.00380468
O 6.60059967 0.01716180 8.17003203 -0.00397570 -0.00761346 0.00318425
O 11.01724168 24.15094679 2.46327218 -0.00179471 -0.00264888 -0.00098686
O 12.62699317 19.36541087 3.67129798 -0.00578368 -0.00345328 0.00192058
O 5.94421358 27.73786237 14.22321487 -0.00226958 0.00293173 0.00209927
O 7.21074290 22.99563646 15.22721964 0.00530599 -0.00213950 -0.00061435
O 9.92634380 20.24570093 21.49040542 -0.00170392 0.00326587 0.00155383
O 8.65618737 25.03436545 20.05011704 0.00036860 0.00230457 -0.00132571
O 6.66269517 23.91303336 21.14213717 0.00245807 -0.00151668 -0.00082606
O 5.17673152 28.70670301 20.06315390 0.00548996 -0.00405752 -0.00274300
O 9.28355768 23.83562524 13.87146699 0.00164985 0.00273816 0.00774852
O 10.90222940 19.08422717 15.22655935 0.00106207 0.00372491 -0.00310770
O 4.54667355 27.51642740 26.07020216 -0.00141296 -0.00303120 -0.00036347
O 5.64511779 23.10760518 27.19585294 -0.00061367 -0.00411681 0.00292214
O 8.51549582 20.45134056 33.00565412 -0.00316601 0.00190234 -0.00159907
O 7.02562496 25.13450823 31.97537162 0.00056235 -0.00025925 0.00215696
O 5.07800563 23.76198599 33.16712816 -0.00321152 -0.00301883 -0.00064882
O 3.45661132 28.76736221 31.59633954 0.00470984 -0.00433322 0.00034993
O 7.73276019 23.91996883 25.99054301 0.00369605 -0.00104674 -0.00002356
O 9.36906214 19.15995952 27.28916958 0.00672131 0.00472014 -0.00447366
O 14.72798866 8.54850678 2.35366269 -0.00644675 0.00311271 0.00503235
O 15.78595359 3.72667887 3.53851151 -0.00620416 0.00261474 -0.00532384
O 18.59193694 1.26261483 9.26880092 0.00106381 0.00011983 0.00349690
O 17.37765612 5.69263723 8.42572226 0.00135417 0.00147483 -0.00659707
O 15.27851826 4.81850777 9.70252447 0.00420649 -0.00116673 0.00611134
O 13.85300412 9.60572821 8.19790953 0.00210532 -0.00219536 -0.00362067
O 17.77894664 4.62360945 2.28515624 -0.00394227 0.00351411 -0.00507896
O 19.32421986 28.57807757 3.32693895 -0.00574062 -0.00074201 0.00247978
O 12.88793755 8.23589086 14.44698317 0.00103403 -0.00545829 -0.00414530
O 14.38846362 3.78179307 15.29979175 0.00667688 0.00178997 0.00646689
O 16.76909082 1.06754041 21.25902605 -0.00381615 0.00200487 0.00220242
O 15.63098602 6.04848641 20.16748828 -0.00105513 0.00075488 -0.00080778
O 13.47447522 4.78542603 21.17394680 -0.00257988 0.00373208 0.00148151
O 12.10988475 9.58345163 19.87231729 0.00041011 0.00279857 0.00465119
O 16.18198016 4.91316021 13.93717111 -0.00204301 -0.00164844 -0.00494043
O 17.56468736 28.72660521 15.32641785 0.00576508 -0.00072294 -0.00260239
O 11.43206686 8.51513260 26.08342752 -0.00218814 0.00119255 0.00325581
O 12.56788817 3.80468663 26.99528856 0.00214855 -0.00350728 0.00120562
O 15.21611422 1.06364625 32.83268899 -0.00580413 0.00038926 0.00351091
O 13.75088911 5.74900504 31.69167073 -0.00035201 -0.00238036 0.01206470
O 11.94258029 4.61273920 33.08172270 0.00521697 -0.00073707 0.00377436
O 10.39790912 9.68210495 31.70805892 -0.00189596 -0.00070555 0.00259982
O 14.72990111 4.79520242 25.99549807 0.00067897 0.00039024 -0.00193057
O 16.12194970 28.78082406 27.35704602 0.00497125 0.00064354 -0.00149971
O 14.66101967 18.28139351 2.35859074 0.00232483 0.00768694 -0.00218573
O 15.80525837 13.15798931 3.51788243 0.00206205 0.00244155 0.00281383
O 18.47092154 10.52429638 9.45343368 -0.00413005 -0.00094169 -0.00637554
O 17.13535556 14.93551151 8.03430672 -0.00006799 0.00100352 -0.00019866
O 15.11287633 14.43628679 9.61283879 -0.00354050 -0.00074713 -0.00553638
O 13.58419860 19.38641088 8.16297176 0.00467007 0.00041176 0.00645326
O 17.88255922 14.28175227 2.45142311 -0.00185078 0.00109097 -0.00122423
O 19.27541177 9.27867198 3.53212738 -0.00112769 0.00302473 0.00346591
O 12.97562359 18.04380739 14.26429411 -0.00520590 0.00203089 -0.00596332
O 14.27604826 13.36739763 15.10753231 0.00901027 0.00100314 0.00289549
O 16.72946319 10.87137195 21.03938144 -0.00188326 0.00694384 -0.00307457
O 15.64372338 15.50167581 19.86352285 0.00411746 -0.00220058 0.00038314
O 13.61413995 14.70115051 21.23418064 -0.00258715 0.00047043 0.00080936
O 11.80518480 19.43727281 19.85007478 -0.00367132 0.00061722 -0.00340987
O 16.31542456 14.41880037 13.94319551 0.00758533 0.00208763 0.00431515
O 17.77404507 9.87695604 15.35648896 0.00394833 -0.00008682 0.00399251
O 11.30214187 17.84562171 26.27497372 0.00637246 0.00132785 -0.00148232
O 12.24955514 13.58912383 27.18856186 -0.00089237 -0.00025465 0.00086669
O 14.84337665 10.29792675 33.21021223 -0.00172966 0.00084023 0.00009729
O 14.09320767 15.76466552 32.19946285 0.00201378 -0.00322232 0.00624915
O 11.82796052 14.49573894 32.94120361 0.00180652 -0.00123570 -0.00454997
O 10.72204280 19.41625456 32.16851507 -0.00477833 -0.00387774 0.00495031
O 14.55990468 14.28867225 25.96929057 0.00915189 0.00124218 -0.00092818
O 16.17081475 9.60824554 27.20589910 0.00882187 0.00382912 0.00087858
O 14.56043161 27.88858249 2.44478851 0.00111677 -0.00378590 0.00035469
O 15.77121321 23.12683810 3.53306183 0.00516580 -0.00163163 0.00332415
O 18.50415671 20.48391481 9.14598048 -0.00220218 0.00372093 -0.00040887
O 17.33379347 25.02099404 8.38594800 0.00331284 -0.00016680 -0.00665937
O 15.24729574 24.00157885 9.58822074 -0.00331885 0.00088471 -0.00629876
O 13.72176803 0.17094929 8.19304580 0.00086636 0.00292412 0.00016118
O 17.84667345 23.90909452 2.09669161 0.00163266 -0.00136023 0.00141839
O 19.39176381 18.85204021 3.80087518 -0.00038645 -0.00120516 -0.00518006
O 12.96505835 27.58172958 14.26113491 -0.00576721 0.00024004 -0.00316210
O 14.25369551 22.99712152 15.06743375 -0.00031081 0.00310786 0.00220909
O 16.59561856 20.16293589 21.14107555 -0.00277839 0.00298740 -0.00011874
O 15.66764002 25.25199696 20.31286268 -0.00112798 -0.00349030 0.00931252
O 13.51404093 24.05302303 21.38307769 -0.00647299 0.00362439 -0.00117219
O 12.00424646 28.69935967 19.78910538 -0.00116212 0.00148399 -0.00158298
O 16.36732895 24.02041595 13.95496458 -0.00106109 0.00363216 0.00081247
O 17.87048480 19.32556119 15.14164524 -0.00148574 0.00156427 -0.00252160
O 11.24398712 27.67072732 26.12566091 0.00558849 -0.00015955 -0.00553622
O 12.46768743 23.03873429 27.21398066 0.00365507 0.00350385 -0.00522503
O 15.43971272 20.65034982 32.58605433 -0.00176922 0.00026683 0.00165958
O 13.89193884 25.17533465 31.96865123 -0.00401225 -0.00128852 -0.00168990
O 11.98018722 24.12123983 33.26707201 0.00205347 0.00033322 -0.00507693
O 10.38272331 0.02300904 31.67362353 -0.00165572 -0.00329205 -0.00315314
O 14.68252641 23.84743864 26.09523310 -0.00272396 -0.00095199 0.00027299
O 16.15832134 18.85549002 27.11677311 0.00640822 -0.00161983 -0.00173262
H -0.28408908 8.79573582 2.64854190 -0.02335617 -0.01536143 0.00654645
H 2.71815392 4.04236099 3.07907019 0.03187598 0.02152995 -0.01144036
H 5.63868559 1.04145489 8.62910532 -0.00302119 -0.02607798 -0.01416112
H 2.67746792 5.27486716 8.41412207 -0.01143721 0.00771898 0.00975400
H 5.54134016 8.18683080 1.00639169 0.00076999 -0.03008294 0.01959026
H 4.18725702 2.88438096 4.87061054 -0.00308939 0.01916743 -0.00748556
H -0.39034265 1.39443038 11.17097951 -0.00634418 0.01160080 -0.01090868
H 1.61309849 5.80292869 6.18602940 -0.02751298 0.02668489 0.00257934
H 4.21387544 6.90760260 10.50039365 0.00507046 0.02991972 0.00035246
H 4.12108153 1.46828783 6.94835756 0.01480599 0.00492984 0.00251867
H 1.19224718 2.98904726 1.11547572 0.00108673 0.01739879 -0.01540375
H 1.50813090 7.58844179 4.40853517 0.00332658 -0.00858694 -0.00971322
H -2.17993269 5.21110541 35.29325885 -0.00645317 -0.00174780 -0.00311508
H 0.04287400 0.50800644 6.14958253 0.02094051 0.00581292 -0.00695619
H 2.66128221 4.26484646 11.69695398 -0.00740740 0.00979406 -0.02039650
H 5.51156679 8.75051279 5.53172253 0.00311907 0.00497187 0.00504093
H 2.61982861 6.70267750 1.73792377 -0.01229266 0.00881996 -0.00176451
H -0.06878249 2.20645638 4.31817183 0.01289696 -0.00368102 0.00161271
H 2.73557626 2.90739172 9.62850940 -0.01531484 0.01699860 0.00529698
H 5.35749945 7.32851995 7.48643094 -0.00148002 0.01346914 -0.00337232
H 5.18290419 5.07238945 9.56142204 0.04121506 0.00791938 0.00711394
H 3.10002962 0.38158051 8.30298862 0.01847242 0.03590416 -0.00051348
H 0.25473443 4.65249535 2.18523411 0.02895976 0.02185691 0.00718840
H 2.37939790 9.51221266 3.65099730 0.00488785 0.02427640 0.01185061
H 7.65213042 3.83461577 7.34028661 0.00502124 -0.00863220 -0.00486266
H 2.16791270 8.77362455 10.39805782 0.01235298 -0.00139776 0.00121492
H 18.81389699 5.38290180 4.67023961 0.02018539 -0.01382720 -0.00127837
H 4.14482964 0.60894263 1.28104101 -0.00886139 -0.03028041 -0.02698995
H -0.97046553 3.82000081 7.83682547 0.01540110 -0.01001380 -0.00359763
H 1.77718623 7.36847325 9.41008032 0.01013919 0.00624072 0.00433460
H 5.06581154 5.29567709 4.71579607 -0.00545508 0.02811657 -0.00981700
H 3.44723796 1.86523652 2.37850774 -0.01487714 0.00762915 -0.01577607
H 0.07118139 2.69662970 8.92109442 -0.00770763 -0.02075960 -0.00622834
H 0.39925309 8.32985272 10.37657895 -0.03666296 0.01457505 -0.00257701
H 6.44225969 5.97779909 3.75123601 0.02127967 0.00545758 -0.01742313
H 5.14665256 1.84760262 2.14117604 -0.00662489 -0.01925932 0.00309798
H -1.49355276 9.02668014 14.54305345 0.00788687 0.01894359 0.00112282
H 1.10295506 3.97212026 14.85888169 0.02921400 -0.00507140 -0.00644113
H 3.91551107 0.46976326 20.97191879 -0.01191962 0.00295671 -0.00754440
H 0.97616819 5.53814567 20.23186243 -0.01795504 -0.00874295 0.00590498
H 4.09480498 8.19998752 12.56361469 0.00633922 -0.01164672 0.01293898
H 2.36678909 3.35262431 16.87564612 0.01842695 -0.04152958 0.01525242
H -2.07870801 1.25321225 23.08861895 -0.00818321 0.00024403 0.02876730
H 0.03312667 6.19415682 18.33837064 0.00859647 -0.00645176 0.01414358
H 2.46585802 6.43952331 22.49067099 0.01138151 -0.00046374 -0.00830966
H 2.12943666 2.07078269 19.15966133 0.00387494 0.01160821 -0.03151490
H -0.45732643 2.86631763 13.21388511 -0.01612577 -0.01372804 0.02306353
H 0.19438590 7.67460342 16.31591592 -0.00066308 -0.01037002 0.01878279
H 1.36080590 5.58391780 11.66835141 -0.00538455 0.01169000 -0.00783457
H -1.77599742 0.60756269 17.96123596 -0.00282390 -0.00186043 -0.00067108
H 1.03463345 4.10909545 23.75390778 -0.02435166 0.00778283 -0.01247172
H 3.94550142 9.07901866 17.82774133 -0.01000264 -0.00131329 -0.00451983
H 1.30459275 7.05205833 13.59410177 -0.00445497 0.00981655 0.01291859
H -1.76397766 2.19140740 16.04078618 0.01094937 0.01871584 0.00368961
H 1.05628586 2.45718044 21.94133973 0.04099629 0.00807608 -0.00661667
H 3.91104606 7.45085998 19.57282403 0.01416999 -0.01125168 0.00536806
H 3.53615574 4.62016693 21.40708226 0.02963179 0.02552653 0.00694797
H 1.23497233 0.32170679 20.03880383 0.02863188 -0.00285420 -0.01250383
H -1.37282549 4.80273214 13.99769531 -0.00579954 0.00514620 -0.00099218
H 1.05200266 9.81264958 15.48514400 0.01110155 -0.00341577 -0.00965789
H 4.17225446 3.47520688 19.52138587 -0.00504328 0.02430422 0.00693917
H -0.68888979 7.45946283 21.35059521 -0.02178336 0.01094730 0.01823346
H 17.46033705 7.08925093 15.27586197 -0.00690006 -0.00519163 -0.03577811
H 3.55401103 1.24721555 13.45051513 -0.00965329 -0.00587355 0.00859508
H -2.54076421 2.65947482 20.61174211 -0.00929096 0.01275839 0.00996758
H -0.60554347 8.93332423 22.40499154 -0.00679648 -0.00347979 0.01669069
H 4.90899572 5.88073154 15.57920879 0.00542613 -0.00352914 -0.04091440
H 2.12993818 0.30949687 13.33585867 0.00367826 0.01103692 0.00254845
H -0.79110750 2.84646699 20.00867986 0.01449896 0.04891578 0.00562462
H 0.82044317 8.37924312 21.54956253 -0.01495642 -0.02239727 -0.00455127
H 3.62354883 6.96438293 15.02532154 0.00618771 -0.01210599 -0.03390834
H 2.08183528 2.05818300 14.12146284 0.00770004 -0.01054551 -0.00598319
H 17.09804889 8.92124169 26.21594700 0.00284098 0.01044688 0.00905537
H -0.33076233 4.24199948 26.84930496 0.02874533 0.02843350 -0.01023632
H 2.47580720 0.83531182 32.44082671 -0.00616686 0.00075626 0.00191967
H -0.63471718 5.50658877 32.35862990 -0.00279317 -0.00904218 -0.00102444
H 2.26816264 7.76600981 24.48860881 0.00544198 -0.02044260 -0.01249120
H 0.63607323 3.70866615 28.89689184 -0.01693028 -0.00396064 0.00063195
H -3.47912783 1.25365686 34.61611303 -0.02232552 -0.00659083 -0.01249803
H -1.66831351 6.12908103 30.28292268 0.01051671 0.00939696 -0.01785844
H 0.80558494 6.73455445 34.44715089 0.02785391 0.00529622 0.00215082
H 0.88135339 2.07566322 30.63396378 0.01691627 0.00470449 0.02505229
H -2.00807924 2.93083344 24.77428242 -0.00155375 0.00280173 0.02833545
H -1.71691547 7.70606433 28.28994309 0.00406763 -0.00919327 -0.03119216
H -0.48078447 5.55173383 23.53402961 -0.00764879 0.01641442 -0.00515317
H -3.03472529 0.50249628 29.58250429 -0.02518345 -0.01330338 -0.01933821
H 4.13191712 4.05598725 0.17535748 -0.00214565 0.01002788 0.01313490
H 2.18622486 9.04643168 29.22832956 -0.00427302 -0.00501874 -0.00500779
H -0.51442716 7.18790662 25.30346615 -0.02306879 0.02754465 0.00755012
H -3.09360800 1.99684027 27.57421046 -0.01055090 0.00749665 0.00549097
H -0.43300645 2.70857048 33.52121555 0.00456864 -0.00170172 -0.00723128
H 2.24826763 7.67094911 31.28423673 0.01249766 -0.00769417 -0.00432480
H 1.83520672 4.95910304 33.25803734 0.00473007 -0.02631861 0.01302718
H -0.07202476 0.28570010 31.84815948 0.00276289 -0.00898333 -0.00922624
H -2.85671371 4.54324742 25.92609480 -0.01070301 -0.00073206 0.00275718
H -0.93307860 9.45543076 27.40560120 0.00466543 0.01083578 -0.00306046
H 3.51798087 2.65918818 31.84058212 -0.01025202 0.00610966 -0.00101936
H -2.46900902 8.61755093 34.18711730 -0.00984483 0.00996573 0.00365179
H -3.34489846 6.27192827 27.20771611 -0.03546284 -0.00135365 0.00416337
H 0.08807810 0.63772684 25.03071604 -0.00610220 -0.01064133 0.00774712
H 16.11426441 3.34663698 31.60320110 -0.00588986 0.01651190 -0.00185517
H -0.97364762 8.20980193 33.21730374 -0.01105888 -0.00339466 0.02763358
H 1.87387140 6.99328807 27.05437812 -0.00298407 0.01278725 0.00281952
H 0.75023436 2.08011041 25.74402058 -0.01320498 0.01359914 -0.01591936
H -2.99691690 2.45179334 31.77059122 -0.01948562 0.01119850 0.01878878
H -2.47925096 7.45410403 32.85931923 -0.00449179 -0.00881492 -0.00107583
H 1.73619533 5.64786139 28.16552194 -0.01136217 -0.02241873 0.01171966
H 1.91598913 0.85084450 24.90941499 0.01408428 0.01194059 0.00155784
H 0.03926959 18.70510790 2.78134928 0.00868217 0.00349268 0.00621423
H 2.84243184 13.88639001 3.35049701 0.01138002 0.00463089 0.00506842
H 5.57836472 10.37964652 9.14949626 -0.01541314 0.00154222 0.01983694
H 2.64571540 14.98500798 8.62862505 -0.00087441 0.00404280 -0.00084413
H 5.92991356 18.02045837 0.66212306 -0.02797281 0.02248366 0.01130137
H 4.12805719 12.68898285 5.03416248 0.00756216 -0.00828493 -0.01552329
H -0.33310633 10.90846901 11.13237066 0.00019782 0.00206671 0.01534231
H 1.36243177 16.05637037 6.88844238 -0.02909806 0.00571013 0.02907488
H 4.04504253 16.06182768 10.70569826 0.00160809 -0.00721905 -0.00829226
H 4.00917732 11.36527883 7.13355299 -0.01853069 0.00704680 0.00262656
H 1.16305277 12.51765159 0.98180755 0.01703440 -0.00850738 0.00877615
H 1.43493849 17.49777641 4.81656219 0.00235080 -0.00011947 -0.01170981
H -1.74523377 15.24236330 35.27471602 0.00780000 0.00054001 -0.01216394
H 0.09401766 10.00808499 5.89935018 -0.01952212 -0.00903128 -0.00032860
H 2.59878813 13.80109904 12.03555305 0.01361561 0.01516889 0.01879761
H 5.47423867 18.55363538 5.74058421 -0.00247453 -0.01495369 -0.03275880
H 2.96565042 17.11246959 1.69682186 -0.02470084 -0.01282535 -0.01058851
H 0.03874328 11.65986353 4.21333081 -0.00771521 -0.01450980 0.00298586
H 2.56294586 12.38625656 10.08735033 -0.01138598 -0.01148644 -0.00329455
H 5.56543471 16.84106126 7.61681537 -0.00011862 0.01141119 0.00011572
H 5.13029075 14.71762504 9.43753759 -0.00376565 -0.00566982 0.00460720
H 3.08426933 9.19431635 8.08014593 0.06397373 -0.02305515 0.01017930
H 0.17956152 14.49918003 1.93028861 0.00658520 -0.00520353 0.00575952
H 2.47619970 19.25993938 3.69622289 -0.01301438 0.00227126 -0.02423516
H 7.85067773 12.28564835 8.58528760 0.01466949 0.01577035 -0.00784278
H 2.07002103 18.46513816 10.00491261 0.00703391 0.00808788 0.01083391
H 19.62814190 14.79633692 4.63713743 -0.02276004 -0.02473897 0.03681780
H 3.69785492 11.58115996 2.51496221 0.00962632 0.00873579 0.02411260
H 19.54396046 12.97008962 8.02168849 0.00662591 0.00662231 -0.00350008
H 1.53975296 17.01952942 9.17503138 0.00535389 0.00833435 0.03308009
H 5.82310198 16.58636857 3.78182167 -0.01228409 -0.01393091 0.00049849
H 4.98280684 10.94586455 1.56017287 -0.00026074 0.02030610 -0.00875661
H 0.26157042 12.05108759 8.55166799 0.03829286 -0.00673056 0.02169787
H 0.25118065 18.00272929 10.04045912 0.01810726 0.01123510 -0.01683817
H 4.63365134 15.53565424 4.44985651 0.00499456 0.00640138 -0.02079502
H 3.33460166 10.24958608 1.61568131 0.00508578 0.01782931 0.02487543
H -1.67385313 18.53241378 14.44172832 -0.02322513 -0.01913658 0.00542759
H 1.13237286 13.64598426 14.99424912 0.06107621 -0.01804838 -0.01939778
H 3.86593161 10.18056811 20.96237498 -0.00963356 0.00682308 0.00708821
H 0.77464569 14.89852968 20.32779502 -0.03889090 -0.01612450 -0.00434166
H 3.97410121 17.61793575 12.65635297 -0.00620966 -0.01420491 0.01111959
H 2.33368114 12.90569095 16.99315880 -0.02484059 -0.00344082 -0.01215890
H -2.32132578 10.86776472 23.00323217 -0.00435353 0.01450174 0.01316638
H -0.36391597 15.94232491 18.53365709 -0.01500715 -0.01012176 -0.03160128
H 2.43187909 15.92857529 22.71324650 0.02549625 -0.00888262 0.00302410
H 2.18032574 11.44849005 18.99556052 0.00029821 -0.02106467 0.01947427
H -0.22366585 12.48843901 12.92843707 -0.02509756 0.02394474 -0.00839645
H -0.12608276 17.52811786 16.60504109 -0.00017635 -0.00755576 -0.01904260
H 1.30815685 14.93672537 11.57321309 -0.00474598 -0.01700941 -0.01058322
H -1.62242677 10.14272100 17.95798889 -0.00134305 -0.02553531 -0.00479297
H 0.88666217 13.51218897 23.86277353 -0.00768612 -0.00192764 0.00651853
H 4.01873074 18.29402674 17.53776641 -0.00246859 0.01939645 0.02516968
H 1.30713904 16.70023636 13.39591180 0.01758584 -0.02369926 0.00080764
H -1.69063917 11.88823114 16.09721045 -0.01035963 0.03175356 -0.00990885
H 0.97046450 11.90249647 22.05352089 0.00758982 0.00161362 0.02863527
H 3.68155213 17.05285903 19.59970989 -0.00585301 0.01974721 -0.02406949
H 3.44881316 14.37795151 21.57437939 0.02176374 0.02480695 0.03871641
H 1.40906536 9.77584098 20.17838136 0.02602625 -0.00129991 0.03255907
H -1.25566754 14.42251721 13.96965036 -0.00225991 -0.01299188 -0.01259343
H 0.93559632 19.01395331 15.49869962 0.02579565 -0.00398765 -0.02494640
H 5.60157957 12.26491275 19.84444325 0.02583853 -0.00676925 -0.00318724
H 0.97003534 18.57523857 21.38615851 0.02223182 0.01342354 -0.00453208
H 16.99407792 15.80359740 16.00659507 0.00048913 -0.01172781 0.03458219
H 1.88007139 11.40312681 14.22090591 -0.00879653 -0.01405820 -0.01636589
H -1.04846222 13.34082580 18.90438610 -0.01720256 0.00521426 0.02160723
H -0.17131629 17.19865471 21.00042213 0.01031451 0.00271912 -0.00160836
H 3.52587936 16.69135044 14.95335019 -0.01478248 -0.00395873 0.00958219
H 3.39021692 12.05082946 14.55690178 -0.01018396 -0.02538386 -0.00521138
H 18.04250029 13.84744102 19.13280420 -0.00938291 0.00136491 0.00680498
H -0.60441907 18.40615180 22.25851554 -0.00193320 0.02308483 -0.03320256
H 3.31026829 15.42860622 16.37942917 0.00439329 -0.02298830 -0.00795357
H 3.25469488 10.65960635 13.39990204 -0.00325506 0.00309073 -0.00925649
H -3.37338658 18.34929043 26.09937241 -0.00260776 0.00617827 -0.00464800
H -0.64114619 13.69365572 26.87998907 -0.00166952 -0.01544818 -0.00319316
H 2.34846960 10.57439538 32.73539760 -0.01450349 0.01666884 -0.00577856
H -0.50453107 15.07426890 32.28851186 0.00605337 -0.01271578 -0.01561724
H 2.54822017 17.72377625 24.43383557 0.01119281 0.00271358 -0.01831766
H 0.49973145 12.94437764 28.67498938 0.01349102 0.02688802 0.01233737
H -3.81444756 10.72101458 34.58336517 0.00479012 -0.00289538 -0.01437036
H -1.66902926 15.70993437 30.11417082 -0.00566611 0.00325338 0.00262803
H 1.12862301 16.61229379 34.09426623 -0.00727253 -0.00463550 -0.02047518
H 0.65761296 11.34049689 30.56578303 -0.00373818 0.01120383 0.00507088
H -2.22471820 12.62919335 24.86001895 0.02505462 0.02372112 -0.00062474
H -1.58692065 17.54781104 28.31249884 0.02621932 -0.01729366 0.01439456
H -0.44784158 14.67895937 23.43733144 -0.02482837 0.01898224 0.00059981
H -3.43594033 10.17670558 29.73075727 -0.02162401 -0.02094414 0.01282249
H 4.14453166 14.07739862 0.11921542 0.02355199 -0.00600984 -0.00611601
H 2.44161279 18.39488664 29.31961229 0.00080885 -0.00766369 0.00765350
H -0.51528459 16.34510234 25.33162711 -0.00576732 -0.00458891 0.02110068
H -3.59341349 11.97597176 28.00185142 -0.01218693 -0.00503737 -0.03100798
H -0.39323550 12.64590835 33.56988411 -0.01653142 0.00716610 0.00407170