2160
Time=89000.00000004 pbc="T T T" Lattice="20.66777582 0.00000000 0.00000000 0.00000000 28.86703414 0.00000000 -4.73214700 0.00000000 35.60643973" energy=-13802.20656472 virial="-65.06462512 -2.19331565 57.52911305 -2.19331565 -29.39542645 -2.81969414 57.52911305 -2.81969414 -56.15041685" stress="-0.00070693 -0.00015096 0.00272648 -0.00015096 0.00087351 -0.00016022 0.00272648 -0.00016022 -0.00042683" Properties=species:S:1:pos:R:3:vel:R:3
O 0.68658316 8.63953609 2.64548428 0.00332821 0.00029358 0.00039676
O 1.91093142 3.65040369 3.71977496 -0.00339227 0.00023036 -0.00572045
O 4.86069987 0.78905045 9.63031064 0.00351633 -0.00292997 -0.00700353
O 3.21910315 6.17331932 8.68151434 0.00214729 -0.00401362 0.00054344
O 1.24850425 4.72006615 9.55535554 -0.00053705 0.00119236 0.00371611
O -0.33829192 9.57362625 7.92224711 -0.00234562 0.00118119 0.00035830
O 3.97328666 4.55712550 2.17567361 -0.00187793 -0.00063505 0.00272822
O 5.41580492 28.40606529 3.41115189 -0.00247832 -0.00170425 0.00402170
O -0.78146016 8.46986149 14.25844790 -0.00424857 -0.00220675 -0.00366258
O 0.56891629 3.64814512 15.46802682 -0.00010728 -0.00447338 -0.00548104
O 3.04185701 0.87922015 21.26738939 -0.00641945 0.00341515 0.00044220
O 1.88222314 5.88171564 19.92056772 -0.00075418 0.00217988 0.00260277
O 0.06258527 5.19018373 21.36432976 0.00390747 -0.00240346 0.00256791
O -1.90743436 9.54033345 20.17597832 -0.00018602 -0.00698487 -0.00261740
O 2.59309932 4.81793119 14.14120156 0.00353896 0.00401033 0.00164740
O 3.99417765 28.46279826 15.79063161 0.00149263 0.00791859 -0.00468778
O -2.47527029 8.42598406 26.22773597 -0.00439419 0.00688520 0.00044534
O -1.17704660 3.94601502 27.35283227 0.00268064 0.00462076 0.00168759
O 1.73874602 1.14658266 33.01948669 0.00227548 -0.00306651 -0.00376133
O 0.30037056 6.19097358 32.42733687 -0.00052031 -0.00487161 -0.00041239
O -1.56643811 4.81445740 33.68812647 -0.00612672 0.00139096 0.00538268
O -3.48083339 10.00678398 31.72458702 0.00996432 -0.00109388 -0.00356057
O 0.93411512 4.80014469 25.79723235 -0.00080578 0.00588446 0.00046250
O 2.46006763 0.32559802 27.66583608 -0.00498309 -0.00669635 -0.00207493
O 0.81401050 18.20913970 2.22274725 -0.00521907 -0.00484346 0.00481492
O 1.92958045 13.20152767 3.25621172 0.00359183 0.00670532 -0.00193521
O 4.51628899 10.89103532 9.41750074 0.00111990 -0.00206517 -0.00206156
O 3.42164819 15.75191757 8.23906768 -0.00126309 0.00046995 0.00034310
O 1.28660094 14.54676114 9.52163285 -0.00467421 -0.00004377 0.00681645
O -0.20060185 19.24245326 8.01622771 -0.00381120 -0.00161590 -0.00031859
O 3.76397196 14.33555452 1.97330423 -0.00022708 0.00255132 0.00605597
O 5.43827394 9.82373121 3.88198274 -0.00095463 0.00006501 -0.00349897
O -0.78867870 18.04838531 14.30654336 -0.00453205 -0.00841190 -0.00751209
O 0.41758425 13.34979434 15.58973469 -0.00360249 0.00337917 -0.00479817
O 3.07871236 10.91219015 21.00684656 0.00339843 0.00081859 -0.00037216
O 1.61450240 15.35086680 19.75262469 -0.00962396 -0.00127320 0.00298770
O -0.31692468 15.02204433 21.67839681 0.00229650 -0.00040554 0.00326981
O -1.92975743 19.45491312 19.93415455 -0.00198698 -0.00472076 -0.00663437
O 2.46526398 14.35986667 14.42949002 -0.00229729 -0.00382826 0.00075137
O 4.07577883 9.50207782 15.18640184 -0.00650613 0.00749758 0.00244472
O -2.96712272 18.21713592 26.40433127 -0.00060055 0.00456386 -0.00525228
O -1.24821437 13.65486087 27.28719468 -0.00208120 -0.00234363 -0.00048513
O 1.23091361 10.56126583 32.83829914 -0.00135907 0.00399661 0.00408407
O 0.42663286 15.41564729 31.74803408 0.00351809 0.00106085 -0.00200788
O -1.69847104 14.59898788 33.07464646 0.00886703 -0.00247633 -0.00174649
O -3.43570677 19.43677838 32.13125427 0.00464200 -0.00058724 -0.00468080
O 0.68878586 14.38605121 25.80505890 -0.00614117 -0.00165788 -0.00446426
O 2.28033706 9.63140976 27.40801894 0.00543327 0.00261081 -0.00201964
O 0.71034118 27.81935117 2.38084532 0.00192470 -0.00025650 -0.00388223
O 1.61906930 22.84196466 3.25531367 0.00434430 0.00093514 -0.00482397
O 4.36684768 20.12069672 9.30197422 0.00087621 0.00489251 -0.00043313
O 3.49514812 24.82413927 8.30921330 -0.01037035 0.00208385 0.00524376
O 1.29412006 24.05784798 9.58980953 0.00090744 -0.00228830 0.00794734
O -0.38208118 0.07884100 8.26898898 0.00398508 -0.01255964 -0.00509729
O 3.90773884 23.64403484 2.12573578 -0.00760251 -0.00237378 0.00190860
O 5.75791959 19.47906213 3.61920824 0.00142637 -0.00038820 0.00091997
O -0.64233306 27.78437415 14.38465395 -0.00175710 0.00298363 0.00322725
O 0.43169620 23.16261869 15.36632240 0.00091902 0.00263604 -0.00397194
O 2.86167601 20.08152078 21.38302099 -0.00205491 -0.00120933 0.00189490
O 1.69387462 25.05625164 20.69161839 -0.00139052 -0.00079601 0.00507471
O -0.36901944 23.75580100 21.56249349 0.00070925 -0.00051411 0.00028202
O -1.73121708 28.76843997 20.02327343 0.00194617 0.00218344 0.00485463
O 2.51547123 23.90329273 14.03410944 0.00332699 -0.00408434 0.00093130
O 3.91221389 19.30596767 15.29604875 -0.00426821 -0.00078319 -0.00130909
O -2.15557113 27.60514287 26.31940042 0.00401827 -0.00102506 -0.00417967
O -1.26020246 23.22215112 27.17330950 -0.00502717 0.00206276 -0.00618318
O 1.25685473 20.42695901 32.72076149 -0.00040071 -0.00034680 0.00142210
O 0.32286755 24.90934393 32.13129588 0.00309688 -0.00272420 0.00185583
O -1.81350253 24.11788687 33.26233165 -0.00429594 -0.00136647 -0.00341450
O -3.27469149 28.84156225 31.88091265 -0.00119804 -0.00024617 0.00175670
O 0.99455842 23.92480578 26.08799776 -0.00200783 0.00805894 -0.00173888
O 2.02896644 19.23532843 27.15432767 -0.00159508 0.00189723 0.00080805
O 7.41797331 8.72776494 2.52332804 -0.00294424 0.00038288 -0.00149184
O 8.85698046 3.61547610 3.51301933 0.00122596 -0.00365018 0.00162417
O 11.51614502 1.14888117 9.54043556 -0.00752442 0.00843735 0.00129189
O 9.95306097 6.16858827 8.37791710 -0.00627962 0.00475630 -0.00496361
O 8.09607182 5.12377392 9.70793593 -0.00330874 -0.00374100 0.00428122
O 6.59427378 9.80797106 8.03730601 -0.00158570 0.00370045 -0.00139549
O 10.83698683 4.65690474 2.21642678 0.00814703 0.00411179 0.00205323
O 12.41719797 0.10390167 3.74305287 -0.00292262 -0.00037391 0.00124488
O 6.12856604 8.53490421 14.31308799 -0.00462007 -0.00622193 -0.00243309
O 7.38302235 3.63369869 15.59054426 0.00125922 -0.00035470 -0.00377520
O 10.06350069 1.00001563 21.33061493 0.00117573 -0.00143057 0.00004105
O 8.83420500 6.02820911 20.07654779 0.00538555 0.00148790 -0.00027570
O 6.77901558 4.88304736 21.52970550 -0.00260058 -0.00385298 -0.00576070
O 5.31312883 9.64967540 20.02792079 -0.00062091 -0.00004088 -0.00512120
O 9.34173267 4.77292662 14.38744015 0.00402380 0.00079227 -0.00163933
O 10.89019410 28.74202593 15.57219874 0.00308701 0.00159484 -0.00031387
O 4.29642065 8.49800220 26.21395953 0.00074394 0.00228840 -0.00391030
O 5.58024359 4.21542407 27.82235588 0.00470120 -0.00750239 0.00294786
O 8.63908463 1.08720061 33.29829027 0.00031649 0.00256817 -0.00823841
O 7.13166435 5.91845604 31.86659029 0.00383041 0.00127996 -0.00142612
O 5.23264654 5.13930273 33.44841478 0.00935032 0.00078648 0.00109910
O 3.56630033 9.63862942 32.07860864 0.00040571 0.00042721 0.00546213
O 7.87639868 4.44453315 26.25529588 0.00131207 0.00419401 0.00487658
O 9.25655247 28.84614934 27.70168408 -0.00268495 -0.00201124 -0.00113795
O 7.47104520 18.04698374 2.37956070 -0.00022981 0.00243398 -0.00153356
O 8.61417093 13.51973573 3.38830057 -0.00360854 0.00772124 0.00333166
O 11.82466820 11.01598319 9.23731584 -0.00014103 0.00571382 -0.00619663
O 10.31504003 15.46362143 8.40372805 0.00585676 -0.00116090 0.00443496
O 7.89702344 14.59930792 9.47757220 0.00315216 0.00251736 -0.00161854
O 6.79234413 19.26842373 8.34746708 -0.00263797 -0.00171426 0.00248935
O 10.78904736 14.48206750 2.07658780 -0.00017328 -0.00303046 0.00295347
O 12.36487773 9.88778195 3.77094083 -0.00463236 -0.00335505 -0.00319759
O 6.26740142 18.39587467 14.42293293 0.00330278 0.00038853 -0.00157983
O 7.25736867 13.58397675 15.35555973 0.00261838 0.00309188 0.00050705
O 9.66352578 10.24164746 21.54215456 0.00003901 -0.00113758 0.00322285
O 8.55533274 15.53907134 20.38623140 0.00355393 0.00167244 0.00105643
O 6.43775131 14.35182976 21.33636512 0.00102747 -0.00321502 0.00296539
O 4.73624966 19.12730936 20.05639429 -0.01087045 0.00272035 -0.00121451
O 9.33062845 14.42530068 13.84376930 -0.00287976 0.00783304 -0.00096542
O 11.08141193 10.00399903 15.62112053 0.00192772 0.00669939 0.00136749
O 4.10767982 18.04580058 26.05206948 0.00135519 0.00310351 0.00660760
O 5.66360341 13.27854305 26.97273697 0.00063542 -0.00441310 -0.00981445
O 8.29926465 10.85308117 32.89500357 0.00322471 -0.00039203 -0.00011701
O 7.35488423 15.25981992 32.02835421 -0.00321019 0.00944859 0.00332887
O 5.03133627 14.87960817 33.21035858 -0.00241934 0.00342831 -0.00524146
O 3.24524181 19.34349599 31.66505002 0.00233523 0.00094051 0.00083297
O 7.52976735 14.39374814 25.66359054 0.00185527 -0.00105837 0.00545214
O 9.32542522 9.34965736 27.05439131 0.00261733 0.00105741 0.00305443
O 7.46204087 27.39544521 2.25527593 0.00032541 -0.00181523 -0.00086945
O 8.60861551 23.05852707 3.47592245 0.00153914 0.00062313 -0.00453874
O 11.50977198 20.04968937 9.74213579 0.00013247 -0.00284792 -0.00016583
O 10.25981564 25.30215463 8.72720903 0.00387360 0.00019099 -0.00056695
O 8.26791069 23.94757455 9.47563781 0.00309264 0.00475323 0.00205347
O 6.78946552 28.51793312 8.21710037 -0.00264309 0.00238888 -0.00063231
O 10.88962972 23.72137723 2.49968914 0.00365239 -0.00339926 0.00271196
O 12.51514419 19.30926400 3.68407312 -0.00064354 -0.00662746 0.00141624
O 6.11690832 27.78320422 14.10487450 0.00123442 -0.00163143 -0.00050885
O 7.27020574 22.88172620 15.17148321 -0.00072685 0.00081150 -0.00588527
O 9.78066506 20.36833407 21.22024340 0.00166040 0.00340620 -0.00282630
O 8.88411045 24.88633437 20.11979974 -0.00154463 -0.00548313 -0.00876819
O 6.63642967 24.33346063 21.39930827 -0.00213099 -0.00489553 0.00037405
O 5.19160432 28.51618132 20.00993734 -0.00153082 0.00050022 0.00000524
O 9.24890990 24.23642953 14.09958310 -0.00047944 -0.00501642 0.00177250
O 10.80102049 19.42082747 15.70967496 0.00535965 0.00257638 -0.00405783
O 4.49399316 27.32072354 26.55117540 0.00100806 0.00324179 0.00408999
O 5.77385910 22.62530985 26.86563303 -0.00376772 -0.01173807 0.00203650
O 8.14901380 20.03779970 33.54754871 -0.00105019 -0.00230823 -0.00481794
O 7.11239392 24.98485676 32.31796958 -0.00995802 0.00498899 -0.00308518
O 4.97613876 23.64077363 33.37977711 -0.00662940 0.00121397 -0.00244764
O 3.60225214 0.03391853 31.93697180 0.00147110 -0.00260732 0.00058752
O 7.63275328 24.08778637 25.73333061 -0.00137765 0.00281962 0.00245831
O 9.07679394 19.07928400 27.28248500 -0.00033596 0.00105400 -0.00510723
O 14.30469475 8.56120646 2.67545276 0.00342387 0.00234471 0.00741549
O 15.88211593 3.73397730 3.55458247 -0.00219217 -0.00344272 0.00234951
O 18.23237939 0.79370012 9.88775981 0.00942363 -0.00225831 0.00430640
O 16.99530138 6.18749680 8.47982130 0.00390186 0.00257977 -0.00064859
O 15.14136967 4.84055182 9.79635740 -0.00098955 -0.00238166 -0.00461315
O 13.59598588 9.54214863 8.19743500 0.00460981 -0.00025419 0.00419202
O 18.04232797 4.70814116 2.68585548 0.00211766 -0.00205973 0.00284645
O 19.25280176 0.10315165 3.44501181 0.00373205 -0.00365337 -0.00798386
O 12.95964511 8.71073257 14.30413355 0.00369190 -0.00370386 0.00041675
O 14.22741950 3.51596135 15.39914464 0.00055608 0.00276466 0.00261538
O 17.12902816 1.15860373 21.31086892 -0.00051333 0.00438219 0.00085854
O 15.50265199 5.80874550 20.15296862 -0.00292219 -0.00192064 -0.00510200
O 13.48347127 4.64300001 21.53042191 0.00362361 -0.00113740 -0.00253732
O 12.06096726 9.78229652 20.41911300 -0.00578752 -0.00380904 -0.00445960
O 16.20279674 4.82432897 14.23471594 0.00173719 0.00348009 0.00303717
O 17.91187501 28.59575065 15.56515333 0.00426074 0.00649579 -0.00089849
O 11.54042272 8.65539564 25.90801718 -0.00003016 -0.00514423 -0.00064398
O 12.66356174 3.61224948 27.33316757 -0.00178315 -0.00146662 -0.00189509
O 15.37401685 1.24286408 33.32800020 0.00421025 -0.00054830 0.00191136
O 14.07773984 5.82871644 32.22997885 0.00308651 0.00763135 0.00504055
O 11.79730672 5.06820170 33.30794098 -0.00835537 0.00188489 -0.00115605
O 10.30052791 9.73664838 31.89458520 0.00919884 -0.00023099 -0.00927151
O 14.74953981 4.69160184 25.95983373 -0.00125479 -0.00482533 0.00818237
O 16.53550891 28.62651121 27.68077564 0.00287067 -0.00050667 -0.00042904
O 14.25556673 18.13296586 2.36093008 0.00335840 0.00054362 -0.00088229
O 15.43726636 13.48832737 3.49853235 0.00552150 0.00527719 0.00624700
O 18.57536264 10.87574519 9.40392002 -0.00142387 0.00677977 -0.00150179
O 17.29468526 15.35511995 8.40889529 -0.00316025 0.00405848 -0.00083198
O 15.14003849 14.73460392 9.73434133 -0.00263892 0.00640802 -0.00413035
O 13.58421524 19.46338656 8.33135372 -0.00497744 -0.00220973 -0.00645256
O 17.53045571 14.31643566 2.01953248 0.00110017 0.00212090 0.00706654
O 18.92344211 9.28033459 3.30017204 -0.00623047 -0.00148866 0.01030769
O 12.63160147 18.06805790 14.57467568 0.00478718 -0.00726712 -0.00002583
O 14.22269740 13.60670208 15.72846277 0.00191736 -0.00923647 0.00111165
O 16.94575914 10.72239895 21.46919764 0.00194354 -0.00390636 -0.00487815
O 15.46423436 15.44572833 20.16316905 -0.00345683 -0.00658064 -0.00646766
O 13.34297452 14.78930916 21.47904804 -0.00141084 -0.00333004 -0.00048517
O 11.87378613 19.32566177 20.16021892 0.00310697 0.00131036 0.00321198
O 15.94561213 14.35345744 13.95678913 -0.00674895 0.00113814 0.00390733
O 17.74177649 9.37196793 15.49581280 0.00207136 -0.00157482 -0.00208275
O 11.08448162 17.99379061 26.24179834 -0.00132160 0.00297529 -0.00416355
O 12.56770366 13.32293655 27.27882700 -0.00266998 0.00408443 0.00072934
O 15.05375663 10.47593750 33.08755739 -0.00636458 0.00261132 -0.00556924
O 14.11640552 15.58449950 31.94783743 0.00092120 -0.00151657 -0.00018850
O 11.97052800 14.42212551 33.32234880 -0.00008768 0.00148527 -0.00310542
O 10.37572497 19.43160823 32.29158110 -0.00382133 0.00374306 -0.00389384
O 14.51607686 14.62677071 25.81206422 -0.00635757 -0.00267409 0.00487486
O 16.19524307 9.44710969 27.45820312 -0.00262477 -0.00157445 -0.00162891
O 14.48010646 28.04107537 2.15392273 -0.00018589 -0.00267307 -0.00020578
O 15.37406285 23.32565283 3.77508351 -0.00487428 -0.00010756 -0.00057040
O 18.34071255 20.36492530 9.41177275 -0.00185958 0.00160762 0.00615585
O 17.20840230 25.21592696 8.34701348 0.00193722 0.00617404 -0.00008353
O 15.23839021 24.12058134 9.69565246 -0.00292868 -0.00213409 0.00180432
O 13.66229725 0.15264693 8.29174782 -0.00143741 -0.00146271 0.00236970
O 17.51054732 23.94712565 2.26328771 0.00363553 -0.00367639 0.00609844
O 19.33833610 18.71644555 3.54037966 0.00306175 -0.00257462 -0.00281400
O 13.22941339 27.92389356 14.46796657 -0.00593322 -0.00093607 -0.00314264
O 14.28515337 22.68604647 15.20351970 -0.00491990 0.00225646 0.00038832
O 16.75070671 20.56130435 21.09409083 -0.00508276 -0.00189101 -0.00007260
O 15.78358474 25.01422536 20.33253766 -0.00224189 -0.00812130 -0.00431585
O 13.51207870 23.93040554 21.47596646 -0.00256819 0.00069826 0.00503791
O 12.27679832 28.68656733 20.27572434 0.00075650 -0.00022809 -0.00389440
O 16.38336263 24.00672067 14.35085657 -0.00130982 0.00452825 0.00272661
O 17.62480864 18.92408271 15.27667269 0.00269027 -0.00082498 -0.00149889
O 11.68812946 27.74027586 26.39937080 -0.00401514 -0.00182219 -0.00407629
O 12.41370916 22.97759094 27.21667786 0.00730429 -0.00916149 -0.00103539
O 15.09520673 20.38303414 33.20780137 0.00141302 -0.00277801 -0.00079192
O 14.12301633 25.21738737 32.40841087 -0.00273995 -0.00174353 0.00144306
O 11.99382930 24.19811232 33.32996338 0.00340462 0.00042681 0.00652730
O 10.57031728 0.10729920 32.06774437 0.01041601 -0.00069992 0.00450185
O 14.80158691 23.69522116 26.28712918 0.00217201 -0.00373482 0.00082647
O 15.98368344 19.62761658 27.44722915 0.00215957 -0.00515193 0.00038735
H -0.23035083 9.04580640 2.78958020 -0.02765100 0.00259135 0.00636298
H 2.79530056 3.99494458 3.49606759 -0.00527472 0.00674143 0.01633419
H 5.69368131 0.56112209 9.13618330 0.02940009 -0.02969198 0.00775481
H 2.48011411 5.49697014 8.71271238 0.00728017 -0.01522024 -0.01196532
H 5.65208602 8.48335297 0.59388911 -0.00019273 -0.00549500 0.00434789
H 3.77522057 3.44920993 5.68910231 -0.00214779 0.00999920 -0.00292473
H -0.18363534 1.73482702 11.09624379 -0.00386959 0.00627865 -0.00343951
H 1.31385045 6.36872916 6.90485429 -0.00932950 0.00976311 -0.01477269
H 3.72967877 6.36670246 11.07656896 0.00595406 0.02618190 0.00535995
H 3.92098988 1.54050601 7.17965508 0.01857916 -0.01301554 0.00993727
H 1.17142710 2.89216232 1.59532166 0.00759012 -0.03268684 0.01758794
H 1.42348723 7.75680969 4.82096000 0.00754944 0.00354625 0.01713300
H -1.85093823 5.79031262 35.52099928 0.00945434 -0.00097603 -0.00688113
H -0.15210239 0.54994998 6.32019121 -0.00520636 -0.01775220 0.00503161
H 2.76417101 3.67073476 12.32830800 -0.01197947 -0.00308335 0.00624059
H 5.16008311 9.28314382 5.88524287 -0.00448433 -0.00142762 -0.01046626
H 2.91239880 7.37084702 1.78204212 0.00700761 -0.00634458 0.00964610
H -0.25837033 2.36680873 4.63365892 -0.00270345 -0.01720279 0.02856323
H 2.63074489 2.02110249 10.59932546 -0.02819076 -0.00873050 0.00885283
H 5.13009043 7.93207323 7.99126205 -0.00748745 -0.00630895 0.01643860
H 4.91308460 4.59159928 9.70296039 -0.01587742 0.00099826 0.02094184
H 2.71227177 28.49995307 8.13043302 0.01772343 0.01156749 0.01338575
H 0.52957515 4.77838293 2.46042299 -0.03928809 0.00088145 0.00715824
H 2.34459944 9.24649098 3.52760607 -0.02908311 0.00513139 -0.00113359
H 7.66803683 3.63705028 7.64769514 -0.00500290 0.00073353 0.00364731
H 0.97764283 7.40791757 8.99271232 0.00067197 -0.00137171 -0.00863078
H 19.27556100 5.90690907 4.86126698 -0.02007837 -0.00479387 -0.02261234
H 5.13665651 1.59013267 2.00753013 0.00628141 0.01058693 -0.00826030
H -0.00860160 4.16376864 7.21121709 -0.00059473 -0.00618166 0.02268503
H 0.59067248 8.71663971 10.29359198 -0.00864030 0.00756662 0.00900175
H 6.20317416 6.57663886 3.23867253 0.00062468 0.00309388 0.02200260
H 3.73275183 0.64825460 1.42714627 0.00857094 0.02281908 -0.00775289
H 19.36683892 3.30298827 8.20152099 -0.00180510 0.01106273 0.01416802
H 2.23834238 8.57327928 9.57436995 -0.00948387 0.00496325 -0.00271437
H 4.66186439 6.35634614 3.93462944 -0.02714517 -0.01426567 -0.01883664
H 3.51149849 1.97923584 2.66112736 0.01435010 0.00906720 -0.00679857
H -1.65571711 9.00682444 14.41692748 -0.00920440 -0.00640171 -0.03031986
H 1.42830613 3.93281740 15.10434467 0.01801668 0.00568464 0.00215973
H 3.99709705 0.56571523 21.07688702 -0.00346686 0.01622305 -0.00530120
H 1.12948949 5.85228103 20.55680841 -0.01612160 0.00626648 -0.02085213
H 3.76737649 7.87973516 12.95634100 0.03268375 -0.00696414 0.00854459
H 2.46062304 3.44714343 17.21585346 -0.00153882 0.00516658 0.01697014
H -1.45896559 1.57385888 23.00796824 -0.01699111 -0.01743020 -0.00656216
H 0.08354174 6.21865713 18.19920904 -0.01763651 0.00568587 0.01616866
H 2.70791713 6.70318212 22.34722165 0.00614483 0.01719773 -0.02735275
H 2.59902072 1.49262232 18.82236920 -0.00492292 0.03082007 -0.00926562
H -0.22293877 3.39845596 13.05080040 0.02854871 0.00317652 0.01501204
H 0.05595761 7.74413761 16.29280456 -0.02137980 0.02417546 -0.01937047
H 1.13440166 5.37123399 11.65555502 -0.01561024 0.00070678 -0.01786416
H -1.40690837 0.30669649 17.92725404 0.01384667 -0.01238718 0.02500715
H 1.21777120 4.34106984 23.46765275 -0.03373985 0.00032048 -0.00390993
H 3.91873109 9.10979052 17.48765495 0.00559017 -0.00042730 -0.00226629
H 1.26436202 7.27272000 13.10084930 0.00085584 -0.01606078 0.01568578
H -1.56981975 2.13611859 16.14868984 0.00800264 -0.00775058 -0.00277362
H 1.20613417 2.56449534 21.79453914 -0.00486133 0.00947450 0.00951770
H 3.91648845 7.53649475 19.47946013 -0.00215984 0.00489548 0.02233579
H 3.59990771 4.79666721 21.63093891 -0.00213301 0.00762210 -0.00735888
H 1.43405225 0.09500023 19.99110687 -0.00467964 0.01991728 -0.02957212
H -1.29493854 5.14213952 14.05167785 0.02188231 -0.00204803 -0.02206492
H 1.03969896 9.78218779 15.54319961 0.00125663 0.00361704 -0.00601859
H 5.97083389 3.52910347 19.55105929 -0.01353802 0.00885966 -0.00223701
H 0.42895494 9.24815407 22.31588341 0.02051312 0.01279933 -0.00704576
H 17.01413653 7.19041951 15.06542397 -0.01599260 -0.02778742 0.00911132
H 1.42855106 0.84735311 14.05542815 -0.02015052 0.00256740 -0.00024927
H -0.63881398 3.71575223 19.32279164 0.00195029 -0.01616761 0.01811324
H 0.25353476 7.67958241 21.54345734 0.03914418 0.00191861 0.00329155
H 4.95014649 5.86293831 16.17622448 -0.00753409 0.00368459 0.00852324
H 3.08351153 1.80294954 14.39992444 0.00248487 -0.01118834 -0.01539690
H -2.24630315 4.04969547 19.53202157 0.00003116 -0.00178384 -0.00815152
H -1.20597946 8.50447267 22.27747145 -0.00179501 -0.00158636 0.01872230
H 3.98565904 7.04082866 15.27337402 0.02968281 -0.00171690 0.00263392
H 3.19897971 0.28876142 13.39628052 -0.01507645 0.02763821 0.01705205
H -3.39779994 8.78451675 26.53362026 -0.00511779 -0.00337608 0.00932287
H -0.26928655 4.21046572 26.93175131 0.00234727 0.04380812 -0.01317829
H 2.55947974 0.65204475 32.75290454 0.01419915 -0.01191474 0.02055180
H -0.31556977 5.43880535 32.34406235 -0.00449696 -0.02818394 0.01045416
H 2.44590393 8.19993656 24.25586953 0.00120224 -0.01042300 -0.00873057
H 0.88468623 3.41384236 29.02758384 0.01603164 0.03074776 0.03299559
H -3.42845837 1.32695315 35.12154533 -0.00021759 0.01877794 0.00303433
H -1.75326876 6.26567736 30.70608185 -0.02863372 -0.00149459 0.00192785
H 0.98568332 6.70850610 34.44536792 0.01852260 0.02003831 -0.03975108
H 0.74290803 2.10735407 30.95615990 0.00810297 0.00687140 0.00172390
H -1.67651800 2.99444746 25.02834739 0.01261775 -0.01001350 0.00395900
H -1.68252495 7.62369094 28.54772019 0.00445664 -0.00705776 0.01842169
H -0.19016619 5.69928120 23.52801031 0.00032205 0.01785252 0.02312217
H -3.05950891 0.62305121 29.93586070 0.00878718 -0.00814581 0.00808970
H 4.21117930 3.94546305 0.25064434 0.00286401 0.01613564 -0.00087336
H 2.18013429 9.07496456 29.57144462 0.01187180 -0.00155797 0.00113357
H -0.34606276 7.09785198 25.43539574 0.00680685 -0.00477660 0.02397826
H -3.15251669 2.25390541 28.01257085 -0.01778523 0.00364908 0.00627513
H -0.40216693 2.41696982 33.79756854 -0.01625081 0.00363994 0.00076586
H 2.30620631 7.30757983 31.38062940 -0.00036761 0.01794255 0.01575800
H 2.00041896 4.77457521 33.61086894 0.00842772 0.01527550 -0.01069117
H -0.07383342 0.02033333 31.78306713 -0.00071568 -0.01100841 -0.01629827
H -2.71838671 4.79330736 25.97525020 0.01269896 0.02195091 0.00041328
H -0.74588052 9.09881463 27.23342988 -0.03041679 -0.00333548 0.00645203
H 4.60234392 3.85942645 31.43335185 0.00901003 0.01604190 -0.02905482
H -0.90059112 8.58469798 33.09185324 0.00374132 -0.01182025 -0.00485075
H 15.48509392 5.60700737 28.24695067 -0.00605201 0.01309206 -0.00475737
H -0.13457190 1.18281086 26.16436170 -0.00040383 0.00128438 -0.00697818
H -2.68866482 2.53968872 32.90924328 0.00872309 0.02857987 0.01312498
H -2.35376279 7.69846543 32.77350193 0.01477635 0.01150947 -0.01116287
H 1.84200115 6.88261877 27.44354481 0.01696087 -0.02248046 0.00691515
H 1.43960671 1.65190839 25.58425249 0.00109309 0.03924242 0.01011190
H -2.44096416 3.72021613 31.60803511 -0.02784583 -0.01623401 0.01233066
H -2.49023257 8.85896516 33.97691053 -0.01782307 0.01358200 0.02250947
H 2.24607345 5.39827388 28.28653780 0.00621398 -0.03341073 -0.02239580
H 0.93413211 0.10649776 25.18588016 0.03479286 -0.00303759 0.02453392
H -0.06324291 18.39113592 2.64422622 -0.02590999 0.00019582 0.01127025
H 2.79135378 13.65691053 3.12417657 -0.00982537 -0.00439896 -0.00430648
H 5.38879528 10.45693944 9.20998436 -0.00439940 0.01026538 0.02686482
H 2.52596994 15.26448419 8.43370749 -0.00084717 0.00207892 -0.00744080
H 5.62062153 17.80773450 0.58749970 0.00855285 0.00159911 0.00887858
H 3.71533393 13.16474354 5.00128879 0.01219743 0.00413208 -0.01559916
H -0.13787422 11.28419068 11.03501777 0.01077729 0.01662495 0.02424656
H 1.77499012 15.58596827 6.34753898 -0.00010905 -0.01530084 0.01081362
H 4.09692095 16.82576223 10.83954958 -0.02250170 0.01096973 0.00310544
H 3.73425691 11.74759756 7.12204809 0.01079475 -0.02704591 0.00102406
H 1.14246790 12.96827945 0.74932607 -0.01033288 0.00872732 -0.02058867
H 1.77751383 17.19216618 4.11939663 0.01390810 -0.00656854 0.00418159
H -1.89414118 15.12767008 35.11912482 0.00430792 0.00755263 -0.00249231
H -0.12170410 10.19355170 5.87326692 0.00089181 -0.00798847 0.00003352
H 2.61541726 14.18192226 12.10750449 0.00731264 0.00127691 0.01738102
H 5.58183276 18.68562323 5.56071327 -0.00625025 -0.00479339 0.01190647
H 2.83388752 16.80958084 1.42893367 -0.00905243 0.01619489 -0.00102891
H -0.16185987 11.72388740 3.96240356 -0.00356503 0.01537826 0.00529185
H 2.53599100 12.42790824 10.21752535 0.00870093 -0.00611699 0.00674916
H 5.43651275 17.34521181 7.55805576 -0.00049589 -0.00481081 -0.01264334
H 4.74112106 14.73874005 9.75922074 0.00896457 0.00264596 0.00019754
H 2.72144573 10.11918728 8.34700740 0.01581241 0.01485861 -0.00803495
H 0.03127736 14.65210133 1.82823811 0.01132555 0.00617948 0.00211954
H 2.55919655 19.26479996 3.51145622 -0.00809855 -0.00520085 -0.00499146
H 5.92743260 12.70623677 8.22945597 0.01766966 -0.01050810 -0.00057424
H 2.46173108 18.46872923 9.71374017 0.02196874 0.01537186 -0.02023617
H 19.21370951 16.42022349 3.28084630 -0.01449168 0.00582137 0.00673125
H 4.38574479 10.31612935 1.37823241 0.00960014 0.01232964 0.00452344
H 0.78452085 13.17868551 7.36568306 0.02019765 0.00341857 -0.00490650
H 1.36445268 17.19686934 9.11859776 0.00542608 0.00269262 -0.01311860
H 4.89040634 15.19674845 4.24480704 0.01017138 -0.00450412 0.00316227
H 2.82013301 10.75064842 2.06793376 -0.00756960 -0.01485570 0.00279199
H -0.95451788 13.73070182 7.40975721 -0.02361792 -0.01492854 -0.00026354
H 0.79980684 18.32462378 10.28582599 0.02189780 -0.01099206 0.00249633
H 6.50068498 15.26482303 3.39100305 0.01587454 0.01260419 -0.01098433
H 4.35219748 11.68823027 2.41221588 0.00183508 0.02902590 0.00115602
H -1.67226918 18.44960446 14.46586923 0.02362060 0.01425185 0.02043918
H 1.28628064 13.78298300 15.26539642 -0.04260591 0.01043359 -0.01211092
H 3.97859578 10.40081509 20.82337867 0.00842370 -0.00914983 -0.00382485
H 1.00800190 15.48824415 20.56623278 -0.03589013 0.00689014 -0.00268762
H 4.20739095 18.35269171 12.78638938 -0.00785614 -0.00923077 -0.02532034
H 2.29906135 13.09885339 17.37987816 0.01767239 0.01167580 0.01842342
H -1.89397565 11.05008230 23.20894870 -0.00983861 0.01276364 -0.00975553
H -0.33760310 15.89922616 18.23627062 -0.00353845 -0.00558741 -0.01855073
H 2.22771138 15.91588209 22.50044627 0.02645063 -0.00454854 0.00367164
H 2.22566769 11.43499926 19.17582568 -0.01662356 -0.00641825 -0.02647298
H -0.42326038 12.64814484 13.22028225 -0.01799517 -0.00894716 -0.00125043
H -0.27895574 17.55864622 16.29145191 -0.02049005 -0.00443019 0.00352600
H 1.00088690 14.91372456 11.39891073 -0.00566709 0.00996907 0.00589709
H -1.70424100 10.23080757 18.18000658 0.00826211 0.01900439 0.02014760
H 0.72074723 13.57692733 23.83090490 -0.01366037 0.00717866 -0.00186148
H 3.63176714 18.81978229 17.60376410 -0.00318759 -0.01835012 0.00235287
H 1.25001421 16.50912674 13.43261536 -0.02152760 -0.01540434 -0.00138885
H -1.65569137 11.60376309 16.17840681 0.00452806 -0.01764222 0.00902412
H 0.81999618 11.87003945 22.00285174 0.01138204 0.02579701 0.00872385
H 3.41994445 17.16917159 19.52098756 -0.00758563 -0.00481316 -0.01439874
H 3.25981575 14.53721153 21.24798218 0.00402775 -0.02112177 0.00586573
H 1.39663649 9.43036139 19.97988002 -0.04204736 -0.01104293 -0.00492191
H -1.52886441 14.45638892 14.28632069 0.02663786 -0.01379278 -0.00538001
H 0.74781987 19.25935927 15.34260210 -0.00574741 -0.01608619 -0.01589964
H 4.41803517 14.18589010 19.06810221 -0.00942060 0.00181292 0.01814143
H 0.48731864 17.96967534 21.36499239 -0.01198093 0.01110668 0.01366912
H 17.85780300 14.96048881 16.38424727 -0.00523172 -0.00043859 -0.00135259
H 1.55332133 11.33193276 13.94002635 0.01160769 -0.01673831 -0.02776977
H -0.56122389 13.39731160 19.74714842 0.01263655 -0.00640716 -0.00456222
H -1.02409419 17.14598743 21.15423189 -0.00193989 0.00780227 0.00895025
H 3.51541234 15.34030063 16.70882244 0.00942842 0.00399759 -0.00086543
H 3.32468220 11.64801867 13.79160826 -0.00990601 0.01992255 0.01534454
H -1.84791748 14.52261428 19.35814616 0.00438417 -0.01223547 -0.00345155
H -1.01707382 18.52114528 22.19723487 -0.00819116 0.00813045 -0.00508769
H 5.06523860 15.73064234 15.86655887 -0.01451611 -0.00416209 0.01552675
H 2.56460089 10.11158501 12.95738462 -0.00142725 0.00956913 0.03608630
H 16.79296637 18.66787363 26.75200285 0.01631144 0.01481916 0.00506122
H -0.40550965 13.92604605 26.79859231 -0.01015818 -0.00860517 0.02356537
H 2.18393773 10.11818032 32.58097409 -0.01266816 -0.00619481 -0.00285576
H -0.48883660 15.13354736 32.16322730 0.00611860 -0.01024374 -0.01086394
H 2.09828579 17.51233944 24.44726155 -0.01047927 0.00633070 0.02375130
H 0.70180321 13.20870110 28.79646491 0.01048790 0.01845574 -0.00835938
H -3.71858558 10.93984942 34.81095014 -0.01374656 -0.02192383 -0.00490528
H -1.70549476 16.05191196 30.62052957 -0.00660628 -0.00351164 -0.01580598
H 0.96355726 16.44432298 34.22906482 -0.01435615 0.00227095 0.00496582
H 0.67620569 11.65056980 30.66862311 0.02025026 0.00049512 0.01384552
H -1.75683756 13.03188304 24.75171179 -0.00758672 -0.00181773 0.00732269
H -2.01834092 17.37683668 28.51026631 0.00388269 0.01078668 0.01789436
H -0.71221812 15.29003005 23.86819482 -0.00209146 -0.02356507 0.00370659
H -3.19605998 10.31694230 29.55815731 0.00961928 0.00634603 -0.02193828
H -0.83740486 13.66632429 35.41345101 -0.01737987 0.00087441 -0.00607438
H 1.82890176 19.10710441 29.39915221 0.00650746 0.01598375 0.01363264
H -0.75199857 16.94186762 25.58032936 -0.00514242 -0.00678762 -0.00687208
H -3.25323585 12.01199475 27.77914869 0.01987823 -0.01625398 0.01382180
H -0.90282507 11.91633985 33.67893047 -0.01772102 0.01244518 0.01191519