2160
Time=81000.00000008 pbc="T T T" Lattice="20.65013933 0.00000000 0.00000000 0.00000000 29.15222104 0.00000000 -4.70448614 0.00000000 35.19139500" energy=-13802.43385661 virial="-27.50839594 -7.38925185 41.92297238 -7.38925185 -25.29703671 -11.56222938 41.92297238 -11.56222938 -42.51657622" stress="0.00119684 -0.00032837 0.00193062 -0.00032837 0.00101448 -0.00048223 0.00193062 -0.00048223 0.00041349" Properties=species:S:1:pos:R:3:vel:R:3
O 0.79242956 8.94945023 2.21112674 0.00402425 -0.00256744 -0.00421954
O 1.90989504 3.66035556 3.56044223 0.00000399 0.00055471 -0.00111843
O 4.62494264 1.21086126 9.08965198 -0.00464481 0.00243681 0.00481229
O 3.39423194 6.23784761 8.52427887 0.00031672 0.00387572 0.00321095
O 1.23855220 5.02032203 9.41144816 0.00125755 -0.00154504 0.00284276
O -0.22187721 9.94382252 8.48479705 -0.00274427 -0.00242889 -0.01074998
O 3.88604088 4.72217054 2.31676126 -0.00993568 -0.00043535 -0.00142747
O 5.47135151 0.00781844 3.65043322 0.00112098 -0.00096082 -0.00154620
O -0.85169561 8.53050473 14.17573534 -0.00370474 -0.00076005 -0.00074216
O 0.40668193 3.85317564 15.41729078 0.00232836 -0.00204582 -0.00048513
O 2.99337204 0.96989920 20.93770165 -0.00283629 -0.00077724 0.00120082
O 1.91958848 5.52135430 19.52815610 0.00736643 0.00081668 -0.00227307
O -0.21387125 4.85059755 20.90861746 0.00620891 0.00000460 -0.00740398
O -1.67358727 9.75118647 20.23733666 -0.00257153 0.00155451 -0.00336890
O 2.40804095 4.52920304 13.91938141 0.00075663 -0.00514135 0.00044050
O 4.03399313 28.95968348 15.55613241 0.00169093 -0.00386109 -0.00000496
O -2.37770589 8.45270516 25.88536374 -0.00055465 0.00098182 0.00296281
O -1.32801305 3.64191216 26.95537478 0.00001390 -0.00044664 -0.00012755
O 1.31885671 0.99260918 32.77654557 0.01043651 -0.00154523 0.00065369
O 0.21755404 5.78859501 31.80050080 0.00104646 0.00305132 0.00167819
O -1.83778763 4.84793760 33.12982957 -0.00630711 0.00094210 0.00534908
O -3.51153604 9.45898773 31.62554727 0.00214639 0.00396175 -0.00121319
O 0.95788393 4.30423901 25.96069417 0.00276452 -0.00111598 -0.00356082
O 2.33992718 28.89416825 27.19264196 0.00324352 -0.00039642 0.00197231
O 0.82795612 18.45029745 2.60826407 -0.00660902 -0.00449501 -0.00225342
O 1.88935804 13.46887933 3.37797173 0.00230854 0.00112381 -0.00040175
O 4.47791104 10.41169210 9.54622450 -0.00352660 -0.00315944 -0.00373282
O 3.39823341 15.61166413 7.91980035 0.00359636 0.00240948 -0.00097422
O 1.43339342 14.64080858 9.37761476 0.00024364 -0.00437760 0.00791559
O -0.24759002 19.25367143 8.10706195 -0.00105529 -0.00153866 0.00166193
O 4.15942537 14.36642918 2.59813601 -0.00380713 -0.00211993 -0.00203731
O 5.65551430 9.90218329 3.89015431 0.00406554 -0.00076107 -0.00241210
O -0.95132227 18.36093580 14.15921400 -0.00077992 0.00313508 0.00493064
O 0.36166222 13.39587238 15.27402417 0.00185404 0.00405481 0.00133251
O 3.01200614 10.61808226 21.22874308 -0.00129634 -0.00139389 -0.00380821
O 1.47001842 15.85545256 19.94945140 -0.00042300 0.00064615 -0.00464946
O -0.33285821 14.75654056 21.31625798 0.00127790 0.00088518 -0.00731781
O -1.60024999 19.59051528 19.88978889 0.00585579 -0.00144777 0.00144539
O 2.50560679 14.44020849 14.18489433 -0.00773804 0.00835544 -0.00115515
O 4.11000755 9.54664126 15.18834259 -0.00364395 -0.00191794 -0.00075623
O -2.84214010 18.10133703 26.10413367 -0.00298584 0.00150542 0.00198259
O -1.15214836 13.55376112 27.03689841 -0.00364484 0.00145414 0.00030802
O 1.43283338 10.68225610 32.98231133 0.00329004 0.00370778 -0.00246283
O -0.00513137 15.50955651 31.60427497 -0.00737058 -0.00189823 0.00297680
O -1.78613850 14.50916692 33.09932070 -0.00017181 0.00341147 0.00345376
O -3.21677227 19.61595624 31.82028101 0.00409662 0.00347631 -0.00313105
O 0.74980298 14.71425898 25.67580667 0.00480967 0.00263916 -0.00262695
O 2.40739730 9.38037453 27.17525301 0.00490009 0.00315697 0.00108607
O 0.84207107 28.32733672 2.21686520 0.00091796 -0.00226732 0.00150651
O 1.93224352 23.27111663 3.59865880 -0.00587512 -0.00074625 0.00379854
O 4.32212018 20.31833536 9.13689839 -0.00823889 -0.00054836 0.00373537
O 3.16526603 25.30364443 8.07867680 -0.00082514 -0.00604177 0.00029758
O 1.11252296 24.18953907 9.24304120 0.00508135 -0.00429834 -0.00423755
O -0.26278593 0.04208333 8.32769048 -0.00484998 -0.00600892 0.00286098
O 3.98869572 24.20585619 2.38903497 0.00413478 0.00110718 -0.00020682
O 5.74586733 19.51374013 3.63834425 -0.00085353 0.00660596 0.00050970
O -0.52415498 28.23120421 13.86988580 -0.00450297 -0.00330060 -0.00288680
O 0.37409243 23.41047913 15.30155719 0.00286214 0.00085191 0.00176103
O 2.86574582 20.43361492 21.20014030 -0.00154975 0.00008354 0.00405118
O 1.67334465 25.32256048 20.14909752 0.00172386 0.00034426 -0.00608603
O -0.27909969 24.19569236 21.23165844 0.00108036 -0.00393101 -0.00168473
O -1.77452219 28.83456259 19.75656476 0.00397284 0.00523387 -0.00055834
O 2.48660788 24.17662480 13.79130000 0.00415379 0.00124027 -0.00828002
O 4.01469945 19.16916409 15.13056683 0.00663694 -0.00383532 -0.00115226
O -2.40633656 28.04690049 26.11337233 0.00447256 0.00306466 -0.00416779
O -1.38718716 23.22219462 27.12844080 -0.00586397 -0.00036124 0.00284690
O 1.46675139 20.53547706 33.10810915 -0.00171508 0.00460096 0.00260748
O 0.45132604 25.52488717 32.04005020 -0.00455656 -0.00334282 0.00259451
O -1.57127222 24.31970465 33.05953910 0.00341507 -0.00239205 0.00508092
O -3.30683838 28.86056157 31.74973322 0.00033611 0.00034367 0.00626689
O 0.84922050 24.00328895 25.95053787 -0.00207531 0.00025630 0.00012500
O 2.28337017 19.13104895 26.95554071 0.00048804 0.00508237 0.00227647
O 7.46079496 8.54111009 2.62376706 -0.00197133 -0.00535446 0.00248948
O 8.68244980 3.95333015 3.50439260 -0.00548713 0.00267814 0.00457234
O 11.35386335 0.93292300 9.38447031 0.00575109 0.00023004 -0.00662182
O 10.26348732 6.19382386 8.26238664 -0.00018910 -0.00070111 -0.00366959
O 8.03955348 5.11174945 9.23936825 -0.00167020 -0.00829655 -0.00291946
O 6.64208674 9.85870745 8.23157530 0.00413534 -0.00043697 0.00044298
O 10.93072033 4.95995386 2.41551049 -0.00238160 0.00106135 0.00422084
O 12.49210889 29.03545713 3.65163711 0.00232641 0.00224278 0.00485947
O 6.05728104 8.11305889 14.39317608 0.00149204 -0.00146991 0.00430270
O 7.19436678 3.88881549 15.57850488 -0.00353129 -0.00106946 0.00222907
O 9.85079454 1.09003680 20.81786804 -0.00688371 0.00072631 -0.00287234
O 8.65481457 6.02379981 20.31423374 -0.00318405 0.00269297 0.00211779
O 6.72446657 4.67022064 21.07828996 -0.00080842 0.00423963 0.00306699
O 5.06302274 9.82028936 20.13820917 -0.00201924 0.00427196 0.00097938
O 9.48480144 4.54915521 14.34961915 -0.00697563 -0.00115654 0.00177792
O 10.75774141 28.70872848 14.91899420 0.00447000 0.00212306 0.00168292
O 4.24695808 8.37909531 25.51137131 -0.00301885 -0.00153899 0.00749818
O 5.70272897 3.30331745 26.59489282 -0.00220859 0.00365580 -0.00469612
O 8.28916109 1.20515029 32.74952480 -0.00856533 -0.00119486 -0.00413224
O 7.20190307 5.85112892 31.71611761 -0.00630924 0.00005680 -0.00009709
O 5.07613719 4.86503850 32.84545160 0.00242113 0.00466882 0.00226500
O 3.52602855 9.78424589 31.87881988 -0.00266839 -0.00368246 -0.00150941
O 7.49591151 4.86506988 25.45813042 -0.00042442 -0.00131730 -0.00040406
O 9.12360529 29.02121012 26.76376293 0.00425650 0.00248050 0.00081412
O 7.71570081 18.68603110 2.11105004 0.00711847 -0.00212349 0.00509412
O 8.67800388 13.49959403 3.45466407 -0.00524836 -0.00242094 0.00285655
O 11.46125956 10.73994573 9.27858182 0.00433627 0.00283011 0.00336388
O 10.26021410 15.82083805 8.16979114 -0.00295427 -0.00633784 0.00109223
O 8.32504720 14.50516862 9.37646003 0.00203543 -0.00256566 -0.00796638
O 6.56719772 19.14103428 7.82085228 -0.00552467 -0.00026368 -0.00783110
O 10.68974425 14.68735107 2.28720509 -0.00386167 0.00052449 -0.00029483
O 12.44561632 9.81468285 3.65312265 -0.00304341 0.00080359 -0.00254984
O 6.06979410 18.44106369 13.69301673 0.00248069 -0.00308715 -0.00254507
O 7.49770380 13.08598220 15.26087480 -0.00187930 -0.00381506 -0.00163890
O 9.97395442 10.66314238 21.13905456 0.00763996 -0.00127245 0.00051118
O 8.65622016 15.84757349 20.01507213 -0.00356623 -0.00204818 -0.00351863
O 6.58190925 14.67561710 21.23405288 -0.00085406 0.00546407 -0.00392386
O 4.82015577 19.46274156 19.56033465 0.00029337 -0.00189574 0.00391305
O 9.31297378 14.18129703 13.98483896 -0.00176594 0.00188306 0.00197812
O 10.86280318 9.55857185 15.41372688 -0.00540482 0.00108067 -0.00314271
O 4.46176879 18.46135608 25.75808013 -0.00090536 -0.00633606 -0.00151725
O 5.57584548 13.36373743 27.15649693 0.00504668 0.00051559 0.01090949
O 8.23050087 10.52156138 33.13671664 0.00136094 0.00417585 -0.00046135
O 7.10912210 15.91367020 31.72944615 0.00226600 0.00235493 -0.00490998
O 5.24677654 14.64096299 33.00293132 -0.00475461 0.00189554 0.00030875
O 3.59126728 19.30070903 31.45105776 0.00523508 -0.00632808 0.00021430
O 7.71211014 14.24504794 25.93581372 -0.00414011 0.00376450 -0.00144365
O 9.17786907 9.44266877 26.99278154 0.00138815 0.00074543 -0.00117605
O 7.67253102 28.04183701 2.54227502 -0.00228310 -0.00360588 -0.00805373
O 8.77782715 23.30001575 3.60667009 0.00162893 0.00348556 0.00196075
O 11.42337081 20.23939693 9.21200137 -0.00470758 0.00261159 0.00000356
O 10.12361457 25.55225722 8.38138107 -0.00790958 -0.00672875 -0.00400850
O 8.27663006 24.04352435 9.33765446 -0.00297775 -0.00094302 0.00431536
O 6.60664938 29.08974052 8.11944252 0.00138460 -0.00368246 0.00134213
O 10.74213383 24.28657978 2.34088535 -0.00465687 0.00772278 -0.00041864
O 12.45030383 19.78425119 3.62800117 -0.00558197 -0.00122449 0.00830161
O 5.88078338 27.75916785 14.02553595 0.00186929 -0.00076152 -0.00474710
O 7.51144004 23.12042361 15.10800895 0.00257670 -0.00622971 0.00163255
O 9.84545380 20.37524106 20.98458425 0.00341931 0.00125863 0.00352515
O 8.62113220 25.23994591 19.85084045 0.00639971 0.00069741 -0.00393349
O 6.66084628 24.22910186 21.06998036 0.00223564 -0.00349447 0.00411388
O 5.15950021 29.02187476 19.70665986 -0.00278093 -0.00335217 0.00360887
O 9.55101328 24.24568829 13.88445662 -0.00460381 -0.00415071 -0.00209170
O 10.75703919 19.43957526 15.17167015 -0.00213119 0.00046430 0.00495004
O 4.57619588 28.14300723 25.72612389 -0.00612363 -0.00055018 0.00356824
O 5.73870637 23.50438623 27.02386604 0.00668952 -0.00486382 -0.00665544
O 8.23148734 20.65066893 32.94675278 0.00320349 -0.00102269 -0.00372343
O 7.21910862 25.65797279 31.84743670 0.00298647 0.00094423 0.00138756
O 5.25812869 24.40233974 32.93823507 0.00067036 0.00126412 -0.00282655
O 3.47474483 29.13677650 31.70459645 0.00377766 -0.00092429 -0.00200674
O 7.71514097 24.25178749 25.56595686 -0.00188390 -0.00249282 -0.00519681
O 9.16403595 19.53283329 26.85630618 0.00528460 -0.00480015 -0.00477598
O 14.33454443 8.55091330 2.49525435 -0.00161288 -0.00056176 -0.00615765
O 15.52989952 4.22440860 3.53931273 0.00028661 -0.00385231 0.00194497
O 18.30703512 1.58400968 8.83092134 0.00336076 -0.00478788 0.00221677
O 17.28519879 6.19697627 8.31548431 0.00067393 0.00346990 0.00344344
O 15.16361466 4.94355131 9.34333278 -0.00182378 -0.00448130 -0.00021484
O 13.60158661 10.04277630 8.20157547 0.00119557 -0.00021358 0.00134441
O 17.72973777 4.89632385 2.27810506 0.00063992 0.00076352 0.00078906
O 19.48565366 28.96652754 3.52304654 -0.00151431 -0.00336950 -0.00737242
O 12.91550930 8.73620112 14.05706963 -0.00151119 -0.00067302 0.00298049
O 14.23708262 4.06184970 15.32224251 0.00496920 -0.00503227 -0.00093387
O 17.01785928 1.15143727 20.71987023 -0.00179113 -0.00017665 0.00437815
O 15.86476547 5.71225480 19.84022502 0.00195339 0.00657638 -0.00589089
O 13.54814153 5.10944891 21.13425628 0.00147401 0.00098898 0.00726367
O 11.88539713 9.66509078 19.73952320 -0.00340408 -0.00194844 -0.00275845
O 16.35698881 4.73936699 14.08964650 0.00132782 0.00339180 0.00189887
O 17.76975390 29.00392463 15.32670929 -0.00116189 -0.00168516 -0.00394581
O 11.46547979 8.74007070 26.02110957 -0.00187520 0.00120403 -0.00432149
O 12.44449114 4.09863563 27.00627675 -0.00042331 0.00063797 -0.00135682
O 15.58548490 1.21940039 32.87696973 -0.00053195 0.00067435 0.00003773
O 13.91123082 5.83885232 31.60797983 -0.00283610 0.00421841 0.00438589
O 12.02905670 4.92345563 33.02699512 -0.00261594 -0.00493255 -0.00695316
O 10.28599986 10.11825825 31.56539146 0.00975467 -0.00258833 -0.00189732
O 14.70707672 4.54443147 25.68700917 0.00250306 0.00151317 0.00004808
O 16.19662666 0.24427794 27.24694155 -0.00299514 0.00093943 0.00212366
O 14.57171033 18.62975585 2.49907877 0.00274130 -0.00082434 -0.00183474
O 15.69408054 13.53183020 3.16610421 0.00495882 0.00512702 -0.00124039
O 18.11799469 10.84390717 9.48560735 -0.00126385 -0.00379203 0.00430676
O 17.21235323 15.65031019 8.03710195 -0.00476236 -0.00150400 -0.00307945
O 15.19304607 14.98419480 9.53854924 0.00011375 0.00560679 0.00347617
O 13.45684985 19.62921862 7.87971889 0.00601392 -0.00242170 -0.00488197
O 17.73788529 14.76495763 2.30570943 -0.00071295 0.00290891 0.00109970
O 19.25914598 9.77458442 3.39882565 -0.00532354 -0.00605866 0.00444394
O 12.82879693 18.10686170 14.33094216 -0.00301735 0.00198008 0.00409443
O 14.24517308 13.14662130 14.91289691 0.00155378 0.00429933 -0.00443983
O 16.78163792 10.88025630 21.26261112 -0.00686442 -0.00649154 -0.00182079
O 15.40618034 15.56570792 20.26393266 0.00144795 0.00012499 -0.00151941
O 13.18342034 14.87915240 21.19200806 -0.01092560 -0.00582350 0.00337563
O 11.94308275 19.31180034 19.89401995 0.00185603 0.00003888 -0.00824868
O 16.10655358 14.69922178 13.99645630 -0.00492047 0.00063645 0.00061695
O 17.86942073 9.62277278 15.58137943 0.00418356 0.00146831 -0.00312546
O 11.15864213 18.22737283 26.04316248 -0.00423827 -0.00047256 0.00443084
O 12.66874424 13.77662712 27.11352612 -0.00013514 -0.00584715 -0.00013061
O 15.19591434 11.00753078 32.70323751 0.00237805 -0.00072603 -0.00110597
O 13.87010209 15.76812104 31.78872968 -0.00575956 0.00151280 0.00124174
O 12.03113810 14.49468020 33.02960298 -0.00667032 0.00213745 0.00213223
O 10.43318637 19.62640082 31.87617010 0.00327657 0.00412286 0.00206768
O 14.69354222 14.69065063 25.74377343 -0.00598351 0.00216501 -0.00263342
O 16.13171984 9.71127397 27.10765143 0.00591274 -0.00766836 -0.00001941
O 14.73523558 28.28875961 2.20080705 -0.00226121 0.00105565 -0.00009075
O 16.10625237 23.22505235 3.40824645 0.00067792 0.00242828 -0.00481618
O 18.46576767 20.57874426 9.21150281 -0.00341010 0.00003530 -0.00466054
O 16.98838736 25.75299481 8.49861609 -0.00184293 0.00169857 -0.00158698
O 15.06782916 24.31358738 9.25120591 0.00060449 -0.00210783 -0.00175046
O 13.40164531 0.18890700 8.01848797 0.00665044 -0.00547572 -0.00281255
O 17.72478290 24.49588570 1.86399075 0.00031405 0.00190131 -0.00239845
O 19.29206778 19.52140666 3.38974516 0.00339651 -0.00661173 -0.00109875
O 13.06280091 28.23142495 13.80931042 0.00415105 0.00408393 0.00531887
O 14.20306076 22.86680680 14.84799593 0.00495362 0.00177041 -0.00059498
O 16.86486957 20.58975592 21.06021280 0.00719534 0.00547634 -0.00125769
O 15.62523029 25.30566227 20.03180709 0.00779662 -0.00870442 0.00225096
O 13.52990158 24.42330032 21.13049046 0.00437147 -0.00017737 -0.00436252
O 11.95740316 29.11732989 19.68731497 -0.00228565 0.00142408 -0.00087199
O 16.07876688 24.35803914 13.76699390 0.00285118 0.00220737 -0.00403673
O 17.85238614 19.15076218 15.59059706 -0.00112972 0.00909563 -0.00027185
O 11.21498248 28.06915784 25.79495795 -0.00146962 -0.00045521 0.00357260
O 12.38797170 23.08304721 26.94343328 -0.00477815 0.00136441 0.00295077
O 15.23098558 20.53282868 32.88231521 0.00247762 -0.00135582 0.00106374
O 13.96116515 25.65879895 31.79416375 0.00304455 -0.00221562 -0.00779477
O 12.04415609 24.49634215 32.84353271 -0.00632915 0.00363835 0.00216768
O 10.56893601 0.42658225 31.85557325 0.00225439 -0.00139052 0.00101927
O 14.48489052 24.03553200 25.93162250 0.00121866 0.00328964 0.00665573
O 16.18079914 19.68214399 27.46180524 -0.00298939 -0.00864690 -0.00164557
H -0.07072510 9.38029403 2.45102955 -0.01325632 -0.00148325 0.01339560
H 2.87495411 3.99218960 3.39893904 -0.00765114 0.01929203 -0.01403431
H 5.41483323 0.67568540 8.80449537 -0.00415034 -0.00140268 -0.00238771
H 2.61054969 5.64406019 8.59787701 0.01181563 -0.02413934 0.00853665
H 5.61548882 8.01819689 0.83722530 -0.00809673 0.00749500 -0.00148500
H 3.77077517 3.54763406 5.48571295 -0.00559821 -0.01367080 -0.00632645
H -0.21635999 1.81495195 10.47760766 0.00204433 0.01002283 0.03000420
H 1.45953375 6.56579084 6.84582487 -0.01250633 -0.00478180 -0.01708079
H 3.92351556 6.73464471 10.77670977 -0.00961152 -0.00366377 0.00311409
H 3.80052687 1.92928343 7.32139900 0.00686027 0.00442844 0.01111611
H 1.41880725 3.14628149 1.38512462 0.01574747 -0.00326977 0.01952256
H 1.57917248 7.85258503 4.74364489 -0.01336455 -0.01279891 -0.00214242
H -1.97582827 5.61261663 35.10423682 0.00611884 -0.01102057 -0.00759885
H -0.09865687 0.50534641 5.98089786 0.01363174 -0.02028359 0.01412458
H 2.69721383 4.05197135 12.00748051 -0.00475462 0.00578371 -0.02499621
H 5.42906724 9.31147530 5.87478725 0.00407662 0.02277458 -0.00117720
H 2.68490007 7.31104969 1.78195985 -0.02485943 -0.01518506 0.02487628
H -0.05696078 2.12559042 4.10073037 -0.00639585 0.00066098 0.02533039
H 2.70695261 2.98841125 9.79721378 0.01146699 0.01424187 0.00296681
H 5.40790160 7.61672755 7.84936344 0.00707846 0.00792167 -0.00000197
H 4.97920050 5.10980164 9.27628893 0.01892960 0.02599335 0.00175990
H 2.91230824 0.13814491 8.17834649 -0.01018460 -0.00766157 -0.00415272
H 0.17924667 5.05548126 2.36847922 -0.01834664 0.01579859 0.00359361
H 2.52462404 9.61610689 3.89176908 0.01872179 -0.02202865 -0.00502555
H 5.53645309 3.72802805 7.58756108 0.00883050 0.01016090 0.00929436
H 0.86305996 8.96978442 10.60929662 0.00090036 -0.02416493 0.00390524
H 19.98145580 5.99320211 4.22052254 -0.00401573 -0.01069208 -0.00738662
H 4.58300203 0.77690756 1.10126300 -0.00000183 0.00947570 0.00694423
H 0.63750960 3.99322394 7.07193187 0.01123657 0.01051370 -0.00698303
H 2.37206665 8.51671693 9.70029427 -0.01155550 -0.00284573 -0.01195582
H 5.02548020 7.03828571 3.49630792 0.01913793 -0.00504018 0.00175080
H 3.09607981 1.27306910 2.01279821 0.00056818 -0.01700201 -0.01739758
H -0.91139210 4.74548720 7.10307641 0.00652716 -0.01836919 -0.00359209
H 0.71103231 7.72583284 9.33911135 0.01769972 -0.02658604 0.00622697
H 4.81893867 5.70390185 4.64831406 -0.00223615 -0.00320698 0.00067537
H 4.71905670 2.20270607 2.25417427 0.02209689 -0.00488307 0.01781379
H -1.60081327 8.93087535 14.64794263 -0.02559911 -0.01707008 -0.00193537
H 1.25693965 4.35165501 15.27713818 0.02866067 0.02952971 -0.02655293
H 3.81080837 0.50868549 20.59207936 -0.00109778 0.02168731 0.01179856
H 1.15788013 5.25630734 20.08386091 -0.03245824 0.01045068 -0.01000223
H 4.09291574 8.06175086 12.63022782 0.03955963 -0.01749200 -0.03476182
H 2.43226857 3.16928850 16.90838582 0.02663260 -0.01774555 -0.01215135
H -1.52801074 1.52570703 22.36745325 0.01656262 0.00577101 0.00964023
H 0.04437064 6.07397156 17.92734117 -0.01675363 0.01061945 -0.00735033
H 2.50991076 6.12228787 21.93187664 0.00272094 0.03598094 -0.01307645
H 2.27200893 1.59636928 18.93404678 -0.00983451 -0.01279476 0.01485919
H -0.14724604 3.16186841 12.47344856 0.00262531 0.01111842 0.00797113
H 0.04420916 7.98380640 16.23440308 0.00971844 0.02196309 0.01556634
H 1.13662810 5.50358538 11.44483849 0.02496679 0.00224694 0.01003626
H -1.63308361 0.49278930 17.72801638 -0.01080255 -0.01077011 0.00451017
H 0.87400072 4.08078361 23.63757443 -0.02570150 -0.02133981 -0.01143479
H 3.79325328 9.21951761 17.55618764 0.03304246 0.01310071 -0.01431500
H 1.03720436 6.75503227 13.63683544 0.01510140 0.02121540 0.00681511
H -1.47668057 2.07878927 15.85099437 -0.01360785 0.00124258 -0.00412180
H 1.06990198 2.52371864 21.51120896 0.01594453 0.01892212 -0.00801626
H 3.83212873 7.39342232 19.18973234 -0.01125746 -0.00241786 0.01928833
H 3.59833122 4.38485909 20.87537279 0.00271222 -0.00328722 0.00887194
H 1.39367258 28.99833281 19.62027490 0.03043075 0.00865760 -0.00236317
H -1.14606086 4.70249706 13.90726007 -0.01511251 0.01287301 0.02697899
H 0.98594215 9.64615629 15.38809503 -0.03302638 -0.01712704 -0.01433376
H 5.97106430 2.38683901 19.92189413 0.00985076 0.00692091 -0.01003664
H -0.08528420 7.55886352 21.50082164 0.03198571 -0.01205486 -0.02188805
H -1.74560349 6.20708076 15.31921137 -0.02610224 -0.01845822 0.01249470
H 3.72213710 1.10605942 13.44600809 -0.00227192 0.02597190 -0.01128883
H -1.34911228 2.76413510 19.51909826 0.00156080 -0.01681254 0.00812932
H -0.71658424 8.92645781 22.40934542 0.00433949 -0.01227682 0.02546745
H 4.99804620 6.00233771 15.40225102 0.03010473 -0.02155634 -0.02580068
H 2.05734394 0.47966182 13.17745635 0.00511604 -0.02119071 0.00717881
H -1.56080075 4.22573762 18.67074568 -0.00662675 -0.01830419 0.00646514
H 0.92135628 8.88230363 21.83811252 0.00883922 0.02395038 -0.03067684
H 3.40631512 6.78907595 15.13524384 0.02622012 0.00154791 -0.02119927
H 2.33866787 1.84311939 14.31218090 0.00536430 -0.01987370 -0.04452657
H -3.16597785 9.04136855 26.06063611 0.01910291 -0.02141522 -0.00429237
H -0.45167595 3.93468247 26.63715650 -0.01292846 -0.03003816 -0.01465956
H 2.23302668 0.54135178 32.61228406 0.00507455 0.00120246 0.01058367
H -0.66742028 5.38315844 32.10169899 0.02754748 -0.01187884 0.02307593
H 2.42615380 8.16550820 23.51681164 -0.00043913 0.01079296 0.02820890
H 0.69916242 3.42028767 28.65194988 -0.01378441 0.03097745 -0.04536976
H -3.17206106 1.59293421 34.81258869 0.01805557 0.01721756 0.00032614
H -1.79211799 5.99021906 29.98697330 0.01058626 -0.01238074 -0.02632041
H 1.12453505 6.49467822 34.16265864 0.01569577 0.00576912 -0.01729046
H 0.79487174 1.79474335 30.49949847 0.00730276 -0.01047057 0.01132719
H -1.55269870 3.12377061 24.21481602 0.01366452 0.00645874 -0.01892877
H -1.74102506 7.75972661 28.19043928 0.00999199 0.01439009 -0.04539871
H -0.38295384 5.50165760 23.07747362 -0.02057703 0.00379721 -0.00133563
H -3.20788509 0.54334426 29.59720560 -0.01358083 -0.00313079 0.00301307
H 3.96187117 4.16191105 0.22780998 0.01545787 -0.00081020 0.01211116
H 2.17405689 8.88735791 29.14175059 -0.00660707 0.00086697 0.01280245
H -0.26955794 7.10762434 24.91026805 -0.01199880 -0.00342845 0.03262483
H -3.26806717 1.99790909 27.74851308 0.02903589 -0.01546935 -0.00488042
H -0.80914938 2.52622158 33.71208801 0.01512617 -0.00731605 0.00843122
H 2.29613473 7.25681210 31.09325599 -0.00710307 -0.00789532 0.00422890
H 2.00432470 4.92120359 33.09544185 0.01945952 -0.01751203 -0.01050148
H -0.14001718 0.04904398 31.71283684 0.01493139 0.01344311 0.01350442
H -2.83887080 4.76914465 25.58574261 0.00278285 -0.01049180 0.00758023
H -0.84346220 9.60277813 27.37479753 -0.03605574 0.01183856 -0.00519052
H 2.47863591 3.40606614 31.64457729 0.00572794 -0.00615031 0.01451653
H -1.77151831 7.42610439 32.90672149 -0.00921120 0.02044664 0.03280382
H 16.25986168 5.23319237 27.86504355 0.01933173 0.00428406 -0.00378459
H 1.24686579 0.80012996 25.03357223 -0.00535653 0.00648842 -0.02520871
H -3.85471538 4.28519521 30.81586221 -0.02460872 0.00706199 0.00749934
H -2.57812659 8.68666402 33.94755764 -0.03354924 0.00393267 -0.03681259
H 3.08242893 6.59252749 26.44392650 0.00720473 0.00908784 -0.02748419
H -0.21416201 1.35202588 26.00841552 -0.01172273 -0.00358646 -0.00474670
H -4.02864041 2.91837342 32.06946054 0.00984373 0.00290207 -0.02067957
H -0.89852395 8.90537491 33.45129547 0.01273506 -0.00754229 -0.00347449
H 1.51720831 6.41854964 27.37027562 0.00222419 0.02190454 -0.00476815
H 1.43659914 2.05298392 26.19392265 0.00183223 -0.03972971 -0.01256931
H 0.00957690 18.88904349 2.90875452 0.00630427 0.00393119 0.00877039
H 2.79609223 13.74678213 3.09210905 0.00101386 -0.01254194 -0.01054619
H 5.33442741 10.11864702 9.09858278 0.00889461 0.01704760 -0.00227152
H 2.52734888 15.29559900 8.27134665 -0.00426570 -0.02442173 0.02205221
H 5.95085568 18.38611450 0.21525747 0.00720011 -0.00240266 0.00404218
H 3.86912174 13.09451364 5.16319141 -0.01293569 -0.01317368 0.00591644
H -0.48475962 11.03525626 11.08812661 -0.00995120 0.00095795 0.03007472
H 1.53714581 15.93135971 6.28372950 -0.01247689 -0.00079189 0.01260967
H 4.10849279 16.01585615 10.33636407 0.01016465 -0.00446204 -0.01729202
H 3.84183336 11.57020063 7.00967047 0.00732625 -0.00532465 -0.02055759
H 1.05742323 12.95175233 1.26503368 -0.01261947 0.00530721 -0.01344433
H 1.58723198 17.66030496 4.27721373 0.00148741 0.01322919 -0.00941983
H 2.82417416 15.26561420 0.15924291 -0.01026231 -0.02939589 -0.00176714
H -0.16645597 10.40850401 5.87601257 0.02852654 -0.00315439 0.03101976
H 2.67117652 13.86552857 11.91822877 -0.00442056 0.00725078 -0.02041532
H 5.31435493 19.09064597 5.90677491 0.00309753 0.03155135 0.01245101
H 2.65789549 16.63735040 2.16131868 0.02001693 -0.00667574 -0.02203193
H -0.10596117 11.95790326 4.15489066 0.01236581 0.00545733 0.02012255
H 2.67824952 12.28214981 9.95139071 -0.00406516 0.03029254 0.00507246
H 5.50565942 17.08535593 7.27638743 0.00764136 0.00854171 0.00276999
H 5.25990440 14.26334627 9.43135745 -0.01769356 -0.01464901 -0.00574310
H 2.98450360 9.92193801 8.10693988 -0.00279227 0.00136249 0.02532816
H 0.20336583 14.51409512 2.43398651 0.00102212 -0.00103683 0.01020206
H 2.64608276 19.37593044 3.29315941 0.01000286 -0.01612589 -0.01799831
H 6.54270142 12.38724714 8.34933912 -0.00643522 0.00529551 0.01013926
H 0.85445231 17.11827766 9.11534155 0.02185635 0.00738873 0.02148650
H -0.44562435 15.35894860 4.33757941 0.01300699 -0.00009094 -0.01531195
H 5.04568563 10.64058551 1.61214339 0.01518681 -0.00601709 -0.00987407
H 19.30691517 14.12278528 7.63287537 0.01040942 -0.01545109 -0.00296134
H 1.14328174 18.29646544 10.46207598 -0.01773194 -0.00131966 0.00803194
H 4.96362898 15.59166122 4.69927857 -0.01180667 0.00392642 0.00267294
H 3.36818010 10.38588015 1.66280155 0.01426427 0.00538145 -0.01184999
H -0.68877358 12.71842239 8.20433972 0.00304642 0.00355186 0.01174897
H 2.44644641 17.67412331 9.27468100 -0.01276690 -0.00668553 0.00055532
H 6.69908579 15.08562304 4.30211769 0.02824258 0.00554942 -0.00478325
H 3.99135781 11.81876586 2.33343088 -0.02247170 0.00533555 0.00797963
H -1.84906509 18.57970508 14.57948003 -0.00062215 0.02265344 -0.03439368
H 1.15056004 14.01170240 15.21686104 -0.00570593 -0.01106337 -0.01609486
H 3.93915682 10.30947566 20.95491919 0.01315509 0.01239454 -0.00431461
H 0.58693629 15.47483561 20.23904647 0.00240223 0.00643764 0.03631471
H 4.11468826 17.93943004 11.98833234 0.00049437 -0.03301415 0.01411277
H 2.42442988 12.77214309 16.78559897 0.00305826 -0.01384531 0.00714350
H -1.85309380 11.27129535 22.71392337 -0.02624951 -0.01832660 -0.02793458
H -0.40999571 16.35469066 18.12805696 -0.01336042 -0.01399749 -0.01828873
H 2.38743124 16.18859720 22.43924935 0.04223664 0.00694630 0.00271624
H 2.28303303 11.50789127 18.87113424 0.00973297 0.00277325 0.00241411
H -0.38723892 12.88655967 12.94559262 0.00919074 -0.01332513 -0.02354227
H -0.25782420 17.91961491 16.36948560 -0.01328045 0.01547079 0.01389773
H 1.19600962 15.06454967 11.66013987 0.00143223 -0.00383332 -0.00211580
H -1.57239571 10.17128280 17.75373302 -0.02209532 -0.00973299 0.00878952
H 0.95666584 13.78333084 23.70217475 0.01006744 -0.01385523 -0.02071929
H 3.91819783 18.52451343 17.21183319 -0.00862963 0.00231599 0.00590705
H 1.03714073 16.59700114 13.71828493 -0.01946096 0.01268413 0.01326263
H -1.66310689 11.90612723 16.04306329 -0.00564459 0.01970319 -0.00074805
H 0.85291054 12.06403113 22.06030589 -0.01215244 0.01873244 -0.00329869
H 3.70080255 16.93754565 19.12364785 -0.00610012 0.00495827 0.00504444
H 3.37904406 14.58931781 21.37273062 -0.02023121 -0.00516834 -0.03379637
H 1.34348132 9.50535128 19.74322390 0.00596128 -0.02393327 -0.00732924
H -1.24774001 14.59235095 14.02936805 0.00931465 0.00606228 -0.02675052
H 0.93594402 19.79133119 15.60611368 -0.00571165 -0.00915501 0.00460803
H 4.84377277 12.61573010 19.92471330 -0.01139401 0.02706616 0.02471316
H -0.88328533 17.39573567 20.94200572 -0.01899390 0.02197886 0.01900735
H 17.08774974 15.05902504 16.38375678 0.01598056 -0.00635770 0.00238199
H 2.86404792 11.97322389 14.47685642 0.03058975 0.00408240 0.00050871
H -2.22288369 14.16814310 18.99003669 -0.00836451 -0.00391144 0.00704820
H -0.53802399 18.67415550 21.99477228 0.00718341 -0.03049737 0.00446483
H 5.14013417 16.27316565 15.24425156 -0.00327837 -0.00799990 0.01050656
H 3.27211954 10.90882866 13.09203288 0.00532019 0.00448414 0.00126998
H -2.22274465 12.62061074 19.95513546 0.00382522 -0.00679298 0.01479970
H 0.81812368 17.90127459 21.05735368 0.00324980 -0.02081922 -0.00475162
H 3.37129122 16.67371348 15.37320788 0.00329544 0.00437787 -0.00598791
H 1.58740233 10.97631964 13.75590796 -0.03205944 -0.00688233 -0.01125246
H 17.00573559 18.61608277 26.40430211 0.01254307 -0.02036004 0.03814046
H -0.25708069 13.71649263 26.67140170 -0.00556541 -0.02388802 0.01675409
H 2.28060259 10.40105773 32.58957721 -0.00329786 -0.00841824 0.01253506
H -0.84740176 15.25128085 32.02302321 0.01113799 0.01369899 -0.01805909
H 2.46643490 18.19858359 23.98729380 -0.00230502 -0.00247427 -0.01033063
H 0.69063615 13.06473117 28.76942139 -0.01085276 -0.00533759 0.02090178
H -3.40711831 11.44483824 34.51698934 0.00394284 -0.01136973 0.00603145
H -2.02328583 16.11677825 30.08292544 0.01486528 -0.00597527 0.00087932
H 1.07023455 16.52496523 33.86891769 0.00264573 -0.00596286 -0.02236514
H 0.61048461 11.28508206 30.51711770 0.02993371 0.00008871 0.00500761
H -1.79382722 12.95834226 24.85566080 0.02847188 -0.01781044 -0.00751913
H -1.99285367 17.79941515 28.18838218 -0.00071417 -0.00670829 -0.00341547
H -0.44311439 15.30949594 23.50287121 0.01316095 -0.02596554 0.00529059
H -3.41828857 10.30296515 29.40223757 0.00744281 0.02108393 0.02131395
H -0.51583546 14.13812652 35.12248167 -0.00256875 0.02887244 0.00522633
H 2.12915019 18.64652428 29.07358117 0.00146647 -0.00159011 -0.01956124
H -0.59275049 17.18484743 25.25002764 0.00917476 -0.00632088 -0.02427273
H -3.27342476 11.98782653 27.51377342 -0.01303847 -0.00870435 -0.00070702
H -0.64891694 12.24444691 33.47448672 -0.01262549 0.02067855 -0.00175097