2160
Time=53000.00000004 pbc="T T T" Lattice="20.64236775 0.00000000 0.00000000 0.00000000 28.96928232 0.00000000 -4.72233060 0.00000000 35.45886835" energy=-13804.70619464 virial="-48.34024726 -15.42672446 70.59930563 -15.42672446 -62.68622028 -23.49630919 70.59930563 -23.49630919 -51.97397933" stress="0.00000429 -0.00075589 0.00333350 -0.00075589 -0.00068540 -0.00115083 0.00333350 -0.00115083 -0.00008536" Properties=species:S:1:pos:R:3:vel:R:3
O 0.56632941 8.45026321 2.48315443 -0.00437681 0.00162489 0.00531741
O 1.96021454 3.70258686 3.63116693 0.00170232 0.00097645 0.00869584
O 4.62853197 0.86882995 9.74538860 -0.00708390 -0.00140772 -0.00256664
O 3.31579190 5.48562884 7.59917571 0.00191487 0.00064989 0.00163857
O 1.43548197 4.85255162 9.44627934 -0.00140669 -0.00102757 0.00553918
O -0.09217053 9.64337226 8.44877657 0.00293211 0.00080560 -0.00399501
O 3.89800706 4.82422949 2.14441063 -0.00157148 0.00175518 0.00233038
O 5.32285382 0.22354891 3.79182320 -0.00297245 -0.00012233 0.00141183
O -0.68476258 8.81622900 14.00308670 -0.00573946 -0.00028284 0.00442484
O 0.31329962 3.43994905 15.21176877 -0.00353413 -0.00056139 -0.00264268
O 3.14335162 0.99397910 21.06483179 0.00362437 -0.00041991 0.00006930
O 1.78650340 5.93726731 20.08789241 -0.00543588 0.00246745 0.00462112
O -0.31968397 4.95524323 21.30764587 0.00461039 -0.00459676 -0.00191057
O -1.89150193 9.56703880 19.94245693 0.00287683 0.00540701 0.00223593
O 2.27861427 4.78547236 14.22048879 -0.00186184 -0.00701773 -0.00733337
O 3.97727555 28.90241875 15.35867972 -0.00750963 0.00216650 -0.00146442
O -2.56604724 8.61942536 26.03107575 -0.00539722 0.00424335 0.00515914
O -1.04617522 3.83193056 27.29244341 -0.00568809 -0.00462878 0.00338235
O 1.22060809 0.87134600 33.00140266 -0.00784935 -0.00370108 -0.00246036
O 0.27817730 6.04573980 31.96283989 0.00505300 -0.00156961 0.00086395
O -1.94143145 5.03192582 33.08807328 0.00188062 -0.00194083 0.00330302
O -3.30990290 9.58640399 31.84369263 0.00186525 -0.00378579 -0.00313122
O 1.07678616 5.04604086 25.64177395 -0.00332189 -0.00200639 -0.00121164
O 2.26399186 28.94394342 27.23423375 0.00060076 0.00409026 0.00143517
O 0.62775104 18.56772250 2.26894954 -0.00263027 -0.00035457 -0.00252953
O 1.88493836 13.76905051 3.99481640 0.00356240 0.00677230 0.00071017
O 4.65979449 10.51779141 9.48247415 0.00346272 0.00070872 -0.00018063
O 3.38467771 15.61831027 8.32778965 -0.00288528 0.00295577 0.00345860
O 1.22464007 14.55779037 9.65306860 -0.00210509 -0.01034502 -0.00027266
O -0.39370347 19.69809640 8.14389855 -0.00021206 0.00207560 -0.00148602
O 4.11599369 14.08332398 2.50654365 0.00635643 0.00087049 0.00065451
O 5.63496011 9.51198822 3.63148327 0.00040728 0.00038885 0.00360661
O -0.93599995 18.14981906 14.19977172 -0.00186184 0.00390971 -0.00436261
O 0.33869880 13.33681568 15.36037442 -0.00367302 0.00362240 -0.00454350
O 2.82607795 10.70431302 21.28337600 -0.00149467 0.00701699 -0.00212084
O 1.94431061 15.58688998 20.21415729 0.00466442 0.00301515 0.00685016
O -0.05712657 14.51890029 21.34753352 0.00016334 -0.00325046 0.00098221
O -1.76587815 19.12534946 19.75092170 0.00589460 -0.00458586 -0.00027399
O 2.23918942 14.35358983 13.86833468 0.00737096 -0.00411974 0.00672654
O 4.17044950 9.59048633 15.63615806 -0.00719122 -0.00131605 0.00524813
O -2.49109838 18.25350789 26.17339386 -0.00503983 -0.00294367 0.00287031
O -1.41867552 13.41789047 27.07210942 0.00084110 -0.00277458 0.00637290
O 1.54855747 10.96071636 32.80395846 0.00048491 -0.00389869 0.00133458
O 0.21235771 15.28481542 31.77019779 0.00751831 0.00099710 -0.00194944
O -1.86867091 14.69696591 33.24890845 0.00326648 0.00420910 -0.00479676
O -3.37109761 19.35982569 31.91065910 0.00209174 -0.00240429 0.00073290
O 0.76063445 14.61121882 25.98322817 0.00410534 -0.00471244 -0.00390261
O 2.18636044 9.54683682 26.90542933 0.00049467 0.00381111 0.00147487
O 0.58507978 27.49219005 2.61546325 -0.00266714 -0.00548272 -0.00498503
O 1.84373672 22.94125920 3.41838178 -0.00116262 -0.00316249 0.00071020
O 4.75790104 20.17791271 9.56014115 0.00084776 -0.00137121 -0.00510630
O 3.60453489 25.04610337 8.29729366 0.00354984 -0.00091298 0.00147437
O 1.33396640 24.39920066 9.27298692 -0.00108960 0.00263406 0.00143693
O -0.15168150 0.01718199 8.50046658 0.00126787 0.00339819 -0.00110728
O 4.09848158 23.86057258 2.50378055 0.00550701 -0.00054153 -0.00076700
O 5.57978052 19.41228888 3.50455198 0.00684367 -0.00412229 -0.00230969
O -0.70185711 28.13158019 14.12444524 0.00022590 0.00190568 0.00110795
O 0.32287217 22.79537821 15.18990605 -0.00467552 -0.00349006 -0.00145271
O 2.94427525 20.41542495 21.13976087 0.00263409 -0.00075051 0.00493606
O 1.91930419 25.37620005 20.31760306 -0.00037107 -0.00132648 0.00164747
O -0.23746247 24.21991685 21.17717793 -0.00017886 -0.00361024 -0.00371662
O -1.89046813 0.19852627 20.23044026 0.00048641 0.00872667 -0.00202665
O 2.42517916 23.88932105 14.14797535 0.00196159 0.00511544 0.00188816
O 3.95450364 19.20088587 15.25357573 0.00101226 -0.00030060 -0.00218455
O -2.17057606 27.99532060 25.94991874 -0.00531356 -0.00242685 -0.00391816
O -1.29222433 23.16374412 27.18992880 -0.00329794 -0.00017626 0.00344600
O 1.39265573 20.45448877 33.11776326 -0.00598730 0.00109450 0.00383304
O 0.36381147 25.33692333 31.97357741 -0.00363911 0.00771823 -0.00138688
O -1.66201465 24.20564205 33.11553762 0.00382610 -0.00538701 0.00200917
O -3.49215215 0.17667949 32.02149953 -0.00340570 0.00449414 0.00383757
O 0.94361773 23.94458003 26.19126478 -0.00415264 -0.00322969 -0.00248263
O 2.19421534 18.98476999 27.09650335 -0.00156123 -0.00768322 0.00495655
O 7.51637845 8.40532411 2.31167230 -0.00725945 -0.00188034 -0.00403756
O 8.67306901 4.03048167 3.75224663 -0.00076294 -0.00187837 -0.00004484
O 11.33975046 1.31640272 9.01732050 0.00287367 -0.00193431 0.00674810
O 10.42773666 5.76329047 8.01020764 -0.00523005 0.00674460 0.00097220
O 8.18346231 4.98965627 9.31297200 0.00562559 -0.00123847 -0.00084143
O 6.95640389 9.89604324 8.42045643 -0.00450306 0.00028203 0.00117971
O 10.80945915 4.78600689 2.26839919 0.00548587 0.00453223 -0.00159790
O 12.33798881 0.06385019 3.48395425 0.00129722 -0.00489168 0.00229763
O 5.98060946 8.70557648 14.01170926 -0.00187725 -0.00419644 0.00397579
O 7.28896909 3.58308376 15.14734974 -0.00334852 -0.00355342 0.00650024
O 9.76304035 0.91796748 21.26138583 0.00429041 0.00293987 -0.00548539
O 8.66243793 5.64555709 19.74339481 -0.00596312 -0.00157274 0.00239084
O 6.50873214 5.02281159 21.15691429 0.00125370 -0.00319038 0.00346724
O 5.14114254 9.74366172 20.15785502 0.00339736 0.00135213 0.00932402
O 9.38054463 4.85125129 14.00363353 0.00138781 -0.00382217 -0.00101406
O 10.95493318 0.10782959 15.70071372 0.00681747 0.00222731 -0.00098077
O 4.50070633 8.56291800 25.91336553 0.00136139 0.00088777 0.00042011
O 5.77271904 3.57041168 26.73988227 0.00018730 -0.00518216 0.00068125
O 8.39969951 1.30247997 32.95981014 0.00113783 0.00207797 -0.00262085
O 7.00724112 5.83633891 31.97779622 0.00371793 -0.00417923 0.00237801
O 5.06869086 4.68000832 33.34492924 -0.00263052 0.00071269 0.00155981
O 3.41873072 9.39100225 31.74935046 -0.00239180 -0.00018002 -0.00073072
O 7.92666004 4.80289666 25.97635134 -0.00431143 -0.00000048 0.00002267
O 9.35825723 28.79462868 27.11824625 0.00785025 -0.00358344 0.00316382
O 7.71865850 18.44196336 2.47718996 -0.00369912 0.00650954 -0.00379678
O 8.69647845 13.65019331 3.68942433 0.00456493 0.00219766 -0.00045772
O 11.37630857 10.85930497 9.69064532 0.00251720 -0.00053331 -0.00574056
O 10.53384915 15.62505119 8.31086665 0.00021310 0.00106723 -0.00539981
O 8.14759659 14.92276407 9.42123513 0.00100587 0.00311358 -0.00295805
O 6.87779503 19.06789665 8.08387797 -0.00525017 0.00544941 -0.00118029
O 10.78172395 14.46737681 2.32302576 0.00022055 0.00485330 -0.00696176
O 12.38525942 9.79055317 3.56522188 0.00361274 -0.00499308 0.00224110
O 5.95207165 18.20080540 14.22382020 -0.00041380 -0.00015321 0.00576319
O 7.10099402 13.53932991 15.44628701 0.00366531 -0.00149938 0.00060935
O 9.99565472 10.44926925 21.26533685 0.00603530 0.00069940 -0.00518319
O 8.61658271 15.54576561 20.27687253 -0.00057204 -0.00244047 0.00396220
O 6.52976514 14.30085431 21.09638818 0.00110211 0.00360013 0.00302409
O 5.05335336 19.38967748 19.88386375 0.00192758 -0.00412651 0.00317835
O 9.24410865 14.52556918 14.15056886 0.00253862 -0.00302299 -0.00255653
O 10.82930650 9.70810088 15.29913601 -0.00564167 0.00690156 0.00182546
O 4.42553971 18.26553860 26.00667240 -0.00062089 0.00053224 0.00330595
O 5.55039357 13.35582427 27.09121182 0.00077826 0.00641363 0.00258569
O 8.16425562 10.88837649 32.89663461 0.00211720 -0.00559041 -0.00629013
O 7.06558100 15.34302731 31.90759966 0.00121598 0.00730447 -0.00286019
O 5.02438197 14.59324537 33.13728873 0.00406657 -0.00278209 -0.00437640
O 3.18192154 19.05212438 31.72679321 -0.00267287 -0.00084241 0.00227714
O 7.72784411 14.46934535 25.66621025 -0.00487811 -0.00253442 -0.00262558
O 9.41769049 9.36429090 27.51443273 0.00694106 0.00098856 -0.00169012
O 7.54284263 27.93520287 2.37358355 -0.00448241 0.00389521 0.00027893
O 8.96316659 23.15642004 3.57417065 0.00246650 -0.00502081 0.00084007
O 11.58695993 20.39738858 9.56932912 0.00255819 0.00183193 0.00289266
O 10.28181154 25.31342485 8.29743988 -0.00203299 0.00100041 -0.00100949
O 8.41465719 24.30747088 9.74082593 0.00304165 -0.00080161 -0.00024759
O 6.57729743 28.93168299 8.02492215 0.00476498 0.00016309 -0.00652262
O 10.88311971 24.27307035 2.08830138 0.00438675 -0.00429900 -0.00695370
O 12.45624388 19.13103303 3.20226415 0.00450956 0.00445386 0.00586250
O 6.09013865 28.07185625 14.08188523 0.00091267 0.00235828 -0.00433830
O 7.46836149 22.95223077 15.17342387 -0.00438047 0.00467752 -0.00952176
O 9.94613536 20.22066186 21.21722413 -0.00074884 -0.00435007 -0.00207830
O 8.65502936 25.30447118 20.37931448 0.00307014 0.00053126 -0.00050641
O 6.68343677 23.94763556 21.65927192 -0.00090888 0.00282976 -0.00194983
O 5.23525770 28.83438180 19.95969527 -0.00565239 -0.00755534 -0.00327038
O 9.42716868 24.15968006 14.13209016 -0.00777266 0.00045612 0.00078637
O 10.80665320 19.43152167 15.70927762 0.00421261 -0.00541799 -0.00171089
O 4.41944766 28.04622828 25.99175837 0.00167862 0.00187439 -0.00182711
O 5.76356292 23.00094374 27.40917024 0.00053419 0.00164038 -0.00585523
O 8.25254800 20.30797392 33.05065245 -0.00296148 -0.00515359 -0.00388559
O 7.24519955 25.29316589 32.04285115 0.00124951 -0.00016169 0.00146421
O 5.06774119 24.26195184 33.05719514 0.00120983 -0.00179668 -0.00084671
O 3.46103152 0.31019783 31.77089647 -0.00172176 -0.00005851 0.00047364
O 7.69217580 23.98216659 25.86637022 -0.00444697 0.00145370 0.00252037
O 9.32624444 19.06070627 27.43713292 -0.00245675 0.00319827 0.00510865
O 14.46598386 8.68880207 2.50393870 -0.00015444 -0.00517490 -0.00213785
O 15.50518742 3.75844096 3.40342465 -0.00177523 -0.00052259 -0.00562216
O 18.20967465 0.92272123 9.38087496 -0.00721581 -0.00459837 0.00102175
O 17.25043442 5.95038674 8.28089643 -0.00188644 0.00531530 -0.00270990
O 15.22268718 5.03563164 9.62619651 0.00117757 0.00041335 -0.00486455
O 13.47090205 10.19088424 8.19627596 -0.00829946 -0.00189591 -0.00580704
O 17.50080828 4.96335931 2.21107412 -0.00411942 -0.00101945 0.00372632
O 19.23543596 28.88559364 3.59359923 -0.00013128 0.00011425 -0.00605684
O 12.91349176 8.42095019 14.48963613 0.00673213 0.00276894 -0.00248323
O 14.08653864 3.65802137 15.09066164 0.00643943 0.00171757 0.00592257
O 16.64746882 1.19916724 20.99259724 0.00238677 0.00177469 -0.00083645
O 15.63882931 5.70768121 20.20868795 0.00389785 0.00119083 -0.00053873
O 13.36302940 4.71170436 21.17018055 -0.00539863 -0.00600911 0.00024314
O 11.98891323 9.63865290 19.96689813 -0.00083517 0.00238872 0.00210398
O 16.12664066 4.82397123 13.88908882 0.00298545 0.00219840 0.00374381
O 17.72495078 28.65645450 15.21311765 -0.00531566 0.00142910 0.00121012
O 11.38483579 8.32785835 26.05349860 -0.00036112 -0.00064677 -0.00270286
O 12.58904872 3.98122764 27.33544099 0.00531690 -0.00730962 0.00278713
O 15.00060639 0.73860375 33.21477507 0.00118766 -0.00257375 0.00490088
O 13.89122151 6.04557249 31.97017137 0.00153282 -0.00498804 -0.00250349
O 12.07582698 4.92956627 33.40408557 -0.00222660 -0.00402212 -0.00179984
O 10.25850178 9.69369937 31.73048501 0.00134276 0.00261670 -0.00077509
O 14.79497534 4.64262117 25.98355954 0.00016101 -0.00004610 -0.00037061
O 16.17642932 28.75064468 27.35094439 0.00045244 -0.00419048 0.00227004
O 14.62716523 18.46018977 2.21488346 -0.00075770 -0.00427242 -0.00217171
O 15.69504271 13.36767204 3.34679342 -0.00099753 0.00046525 0.00127232
O 18.28402385 10.49923440 9.21087518 0.00381504 0.00669795 -0.00065267
O 17.04385207 15.85269316 8.37167485 0.00073594 0.00155096 0.00434379
O 15.11526370 14.84439938 9.93619551 -0.00666597 0.00576588 -0.00166074
O 13.66496084 19.64464036 8.29104675 -0.00408364 -0.00115052 -0.00207219
O 17.73629020 14.56917977 2.20833061 -0.00015582 0.00291091 0.00272048
O 19.21581027 9.39597711 3.71552819 0.00077468 -0.00379374 0.00134647
O 12.71328068 18.33992871 14.58924281 -0.00027717 -0.00572098 0.00042981
O 14.13057424 13.27979248 15.18788123 -0.00333689 0.00692667 -0.00196572
O 16.92433668 11.00130150 20.97748311 0.00063282 -0.00057621 -0.00002582
O 15.47564436 15.60850218 20.11043522 -0.00346258 -0.00594260 0.00372654
O 13.32574726 14.37149168 21.30810776 -0.00106851 -0.00203138 0.00121649
O 12.04545040 19.19557820 19.90845072 0.00054588 0.00015408 -0.00305621
O 16.22990350 14.31837135 13.88118579 0.00487928 -0.00047241 0.00337064
O 17.82773109 9.56221110 15.53458522 0.00116816 -0.00536140 0.00234851
O 11.20926102 17.70687667 26.32587407 0.00018964 0.00395843 -0.00287122
O 12.45539850 13.35270848 27.10963210 0.00229083 -0.00171453 -0.00534193
O 15.39726019 10.67876674 33.18950846 0.00340290 0.00475515 -0.00418418
O 13.86759220 15.47417215 32.15782068 0.00341759 0.00500413 0.00387535
O 11.95009690 14.25040201 33.39981243 0.00480112 -0.00288768 0.00120775
O 10.56909082 19.36850886 32.19628678 -0.00071785 0.00331404 0.00197852
O 14.59701862 14.65431669 25.96105990 -0.00159255 -0.00393808 -0.00007571
O 15.96550961 9.53129309 27.22915798 0.00024236 -0.00272873 -0.00338292
O 14.49297382 27.96254504 2.64043747 0.00222522 0.00138695 -0.00111699
O 15.53542302 23.16385395 3.75557762 -0.00275616 0.00010547 0.00232183
O 18.32452230 20.19829291 9.69488922 -0.00370346 0.00889972 0.00364663
O 17.17860192 25.40687764 8.65457338 -0.00043494 0.00353934 0.00563117
O 14.96104733 24.06483474 9.80251168 0.00274006 0.00012187 0.00007716
O 13.60463589 0.22702180 8.10802075 -0.00179729 0.00002527 -0.00278055
O 17.75979456 24.08297612 2.13879266 -0.00592993 0.00342312 0.00282957
O 19.20648644 19.57460675 3.63671610 -0.00038354 0.00411518 -0.00232150
O 12.95811255 28.04666250 14.44175169 -0.00480787 0.00247436 -0.00069593
O 14.20823789 22.98115384 15.30958334 0.00362742 0.00692358 0.00146647
O 16.73165249 20.55341487 20.96315787 -0.00401157 -0.00306888 0.00373921
O 15.61016083 25.47917540 20.38876861 0.00003932 0.00138349 0.00081096
O 13.57694871 24.13678921 21.19465035 0.00006455 -0.00002110 0.00267306
O 11.88990489 0.07631322 19.91155496 -0.00414769 -0.00224546 -0.00244520
O 16.00219718 24.25820869 14.05974203 0.00401974 -0.00392747 -0.00168961
O 17.90661676 19.24173285 15.72243752 0.00303988 0.00010039 0.00626342
O 11.30098987 27.97187691 25.78462226 0.00337070 0.00338382 0.00869424
O 12.35838314 22.82665670 26.82432338 -0.00026987 0.00721422 -0.00480543
O 15.23489103 20.36514698 33.02862199 0.00274876 0.00168710 -0.00172695
O 13.99675646 25.15301254 31.97959052 0.00442953 0.00066201 -0.00243971
O 12.01176163 24.18979806 33.37600823 0.00379325 -0.00014118 -0.00165413
O 10.38149067 0.10671693 31.86325592 -0.00793893 0.00266273 0.00570010
O 14.60066709 24.03644609 25.85978688 0.00083804 0.00096087 -0.00055531
O 16.14592294 19.27121015 27.38636372 0.00307619 0.00241349 -0.00165817
H -0.32360475 8.80709892 2.77338492 -0.00211617 -0.00226199 0.01262564
H 2.86836480 4.04384461 3.42402053 0.00139141 -0.01727203 -0.00101538
H 5.55288471 0.53935655 9.55420056 -0.00523686 0.00286835 -0.00577372
H 2.50504154 5.24827114 8.13705297 -0.00800767 -0.01533635 -0.01701183
H 5.45341807 8.10244126 0.59616915 -0.00608951 0.00202231 0.01274905
H 3.89604084 3.44248051 5.41440329 0.00155128 -0.00862187 -0.00187766
H -0.40335093 1.37738071 11.01272355 0.00343934 0.00105677 -0.00865649
H 1.27989358 6.24301482 6.02681602 -0.00223732 0.01902575 0.01272553
H 4.05038753 6.68661857 10.40121605 0.02682525 -0.00490504 -0.00427403
H 4.00744256 1.79595011 7.19005798 0.01881004 0.02048985 -0.02481088
H 0.83808901 2.68834332 1.43313991 -0.00257218 -0.00640821 0.01513438
H 1.35877658 8.23748265 4.55297257 0.00361189 0.01162377 -0.02232730
H -2.10221624 5.38218279 35.29704929 0.01009295 -0.00105068 -0.00231877
H -0.06588794 0.51701137 6.10584006 -0.02204575 0.00844978 -0.00498077
H 2.41945876 4.21805012 12.01661864 0.00166047 0.00176241 0.00951961
H 5.43466096 8.96901651 5.64364285 0.00318079 0.00368722 -0.00492972
H 2.47226640 6.88825903 1.73070724 0.00413188 0.00244364 -0.01093991
H -0.01767113 1.97913671 4.34880057 -0.00644260 0.00804029 0.01520207
H 2.36601305 2.16083068 10.67738971 0.00078748 0.00527640 -0.01359168
H 5.22212981 7.14960450 7.34702896 0.00623607 -0.03612797 0.02005913
H 5.09857594 4.67992313 9.59548033 0.00192928 -0.03839291 0.04070098
H 3.02372098 0.16753301 8.36180743 0.00237406 -0.00757849 -0.00036691
H -0.01384341 4.58753804 2.28624142 0.01142183 0.00735730 0.00634544
H 2.43675560 10.06502433 3.85113571 -0.00249818 -0.00224663 -0.02572447
H 6.83487856 2.52917671 8.70571054 -0.00691155 0.02201717 -0.02068429
H 0.32434343 7.16709129 8.93606954 0.01762428 0.01732490 -0.00789431
H 18.59769367 6.59170953 4.00845197 -0.00336795 -0.03238423 0.01158334
H 4.42436253 1.01528352 1.52834888 0.00100775 0.04522078 -0.00065276
H 0.44814455 3.96897528 6.98103927 -0.00253351 -0.00661950 0.00571548
H 1.00226800 8.11194856 10.20137877 0.00545716 -0.00510254 0.00027660
H 6.47768074 6.02719656 3.72442447 -0.00716976 -0.02673040 -0.01636623
H 2.58985018 0.85495052 2.01293729 -0.00781942 -0.01225741 0.00258972
H 19.46854349 3.81160893 7.86490183 -0.03552388 0.01210068 -0.02464593
H 2.14199845 7.50039705 9.06101952 -0.01481261 -0.00120465 0.00092491
H 5.05349042 6.78308143 3.42311429 -0.01514159 0.03121583 0.02047866
H 3.54522951 2.15107923 2.44280778 -0.00043903 0.01920343 -0.01506815
H -1.44782642 8.91592511 14.55317854 0.01019930 0.00711908 0.01122423
H 1.16048414 3.92345880 15.00199810 -0.01017130 0.00054582 0.00247691
H 4.04639032 0.67751028 20.84174944 -0.00523560 -0.01318478 -0.00043137
H 0.89977518 5.49542023 20.34868094 -0.00585087 0.00978994 0.02404911
H 4.13370506 8.49074327 12.23685166 0.00396294 -0.03580469 -0.00351926
H 2.12619072 3.42365406 17.11347534 -0.00360500 0.01303908 0.00836704
H -1.86878851 1.41286224 22.50887560 -0.02979465 0.00274949 0.00126403
H -0.15890878 6.15988060 18.32860406 0.00785453 0.00660428 0.02200989
H 2.43543426 6.50151085 22.32711782 -0.01315664 -0.00529454 0.01829271
H 2.11632239 1.79679280 19.09957808 0.01015026 0.01168850 0.00541329
H -0.36774676 2.97076789 12.76718931 -0.01157313 0.02206081 0.00823207
H -0.04334286 7.66446341 16.39663400 -0.01057594 0.02487493 -0.03050129
H 1.22067998 5.31824829 11.68179220 0.00537636 0.03145217 0.00506118
H -1.75836579 0.47950793 17.93095138 0.02642130 0.01062357 0.01603241
H 1.05015306 4.05797272 23.80980344 0.00258470 0.00453621 0.00535140
H 3.92290342 8.98189401 17.69154478 0.01083727 0.01655494 -0.00333887
H 1.13908857 6.93732681 13.57161867 0.01034759 -0.01960611 -0.01937649
H -1.72886380 1.86684679 15.96796103 -0.01679889 -0.00923202 0.03273750
H 1.05120405 2.49839378 21.73139192 -0.02245341 -0.00448006 -0.00967415
H 3.79749728 7.51771648 19.45684281 0.00004523 -0.00196053 -0.00115022
H 3.44515791 4.64852343 21.34578829 0.00435574 -0.01025485 -0.01771810
H 1.27794384 28.80832105 19.87493141 0.02229802 -0.01212686 0.00652124
H -1.39058008 4.77000172 13.93520346 0.01728765 0.02721175 -0.00173180
H 0.96103355 9.46269104 15.43767712 -0.02999087 -0.00765100 -0.03157600
H 4.61937649 2.84338011 19.98947002 0.00561583 -0.00289126 0.00761987
H -0.01755893 7.48191820 21.26862396 -0.00375409 0.01824481 0.00535886
H -2.04899210 5.31599393 16.00514112 0.00086702 -0.00151252 -0.01009531
H 2.51745219 0.19610822 13.13931941 -0.01927930 -0.01398155 0.00364472
H 17.93218844 3.14093413 20.05860658 -0.00113796 0.00999314 -0.00357154
H -1.15514042 8.41875118 22.18461979 0.00117505 0.00538158 0.02197955
H 2.71281991 6.18516143 16.13535575 -0.00095991 0.02100626 -0.00763836
H 1.31505464 1.15822762 14.07553051 0.01511234 -0.01304944 -0.01697460
H -1.02453484 2.61789870 20.23527437 0.00894533 -0.00329233 0.00892724
H 0.43374778 9.11016283 21.96386920 0.02484497 -0.00359021 0.00561993
H 4.32962486 5.41419244 16.40300909 -0.01145531 0.00697543 -0.01554235
H 2.99509129 1.78514527 13.75762784 0.02249007 -0.00326141 -0.02982042
H -3.48916992 8.91747181 26.44554007 -0.01577483 -0.00877376 0.01230621
H -0.15700558 4.28409811 27.06827751 0.02379462 0.00299499 0.02632040
H 2.10176776 0.60204044 32.57656539 0.01050588 -0.00890514 -0.03401923
H -0.53321135 5.49148807 32.26500544 0.00564571 -0.01933735 0.00403577
H 2.51602929 8.15735059 24.11990147 0.01268506 0.00680751 -0.01627588
H 0.95311935 3.22826823 28.98574549 0.00070088 -0.00882522 -0.00904238
H -3.72021276 1.30243120 34.92909193 0.01929911 0.00668148 0.01269132
H -1.74278056 6.32279027 30.44535676 0.00149202 -0.00525720 -0.03087896
H 0.93974297 6.78594108 33.95113079 -0.00277855 -0.03538447 0.00587878
H 0.53765564 1.96732622 31.17216802 0.01098834 -0.00949197 -0.00796325
H -1.83345544 2.98187240 24.52074272 -0.02161905 0.01486373 -0.00185151
H -1.85344337 7.92728751 28.47611082 -0.01471818 -0.03058963 0.01255614
H -0.46816262 5.50337035 23.55460078 -0.00141560 0.02421391 -0.00285780
H -3.31431678 0.63777528 29.67560306 0.00157712 0.03147012 -0.02186000
H 3.94028856 4.12857624 0.07406945 0.01667420 -0.01642854 0.00200687
H 2.25757525 8.97500211 29.24379075 0.01869193 0.00169749 -0.01617472
H -0.47463020 7.21155534 25.21948807 0.00269134 -0.00031934 -0.00528902
H -3.25795306 2.48507051 27.98487624 0.00217035 0.00873823 -0.00722922
H -0.89191659 2.38906426 33.86553750 0.01565434 0.00584331 -0.02222393
H 2.28888297 6.99627138 30.88376984 -0.00684844 0.01820814 0.05095626
H 1.89521125 4.77173911 33.05997605 0.01068099 0.00878670 0.00994517
H -0.35133201 0.04092731 31.85549425 -0.00936452 0.00320289 -0.01042411
H -2.73918702 4.55304249 25.54986813 -0.01628383 -0.00324890 0.01187362
H -0.89489931 9.39617220 27.26616918 0.02206812 0.02253890 0.00183390
H 3.58957625 3.77227598 30.83763710 0.00278320 0.00865591 -0.05636936
H -2.18372372 7.54827034 33.06837395 -0.00908219 0.00302592 -0.02027488
H 15.31734633 5.90857321 27.78208649 0.00852564 0.00495440 -0.00798725
H 0.56231753 2.28325998 26.29330188 0.00909591 0.02461726 0.00566708
H -3.77387111 2.74558665 31.82904180 -0.01063359 -0.01418514 -0.00823087
H -2.39572387 8.94156705 34.08246415 -0.01919739 -0.02751799 0.02097233
H 2.16917304 7.28353838 26.82218276 -0.01517978 0.02000626 -0.01468931
H 1.58255095 1.32164552 25.27935855 0.00535624 0.00852816 0.01920712
H -2.29512831 3.67547495 31.17455125 -0.01067852 0.00305035 0.02138974
H -0.69117699 8.58028263 33.39411576 -0.01319535 -0.01440801 -0.00260663
H 1.98397586 5.86012103 27.89270860 -0.01501448 0.00934003 -0.01982867
H -0.12968666 0.93041139 25.39841488 -0.00477394 -0.01575178 0.02110220
H -0.28417020 18.86094991 2.60214893 0.00759366 -0.02012170 -0.01479674
H 2.73663812 13.93205493 3.55675331 -0.01549485 -0.01040110 -0.01264959
H 5.62831736 10.29901298 9.09855204 0.01279888 -0.00594406 -0.00041341
H 2.51090713 15.31265413 8.50231080 0.00330405 -0.02503503 0.00911528
H 5.69613217 17.86686021 0.84215945 -0.00969197 -0.00671534 -0.00083261
H 3.93046045 13.19373715 5.56994088 -0.02064997 0.01414577 -0.00127708
H -0.35243402 10.71229120 11.03305628 0.00101635 0.00036374 -0.01275263
H 1.40302138 16.00597516 6.66193901 -0.00158074 0.00280057 0.03734030
H 4.00239051 16.18012708 10.70138921 -0.00177061 -0.00463836 0.00871258
H 4.20172162 11.37200484 7.08520149 -0.00096551 -0.00203099 -0.02016154
H 1.08444932 12.44499982 1.53617586 -0.01420868 0.00110316 0.00360403
H 1.49801711 17.57930403 4.65114807 0.02439265 -0.00926794 -0.02164790
H -2.03113579 15.13664563 35.42923907 -0.00140065 -0.00363478 0.00966307
H 0.17641145 10.05913512 6.19984606 -0.00898760 0.02035642 -0.01724444
H 2.64599384 13.90107660 11.73361841 -0.01688374 -0.00367609 -0.01035975
H 5.41257012 18.86365951 5.82081658 0.00747562 -0.02238312 0.00221879
H 2.61123903 16.86673985 1.91493650 -0.00271646 0.00985982 0.02833852
H -0.04435165 12.01080332 4.48285861 0.00913215 0.01136481 -0.01493071
H 2.67365308 12.19097237 9.91799736 0.00929522 -0.00537916 0.01447037
H 5.39398186 17.04631377 7.58884664 -0.00428713 0.00752020 -0.01084054
H 4.99332187 14.63541630 9.48500146 -0.00687102 -0.02780077 -0.00964672
H 2.93975860 9.41460496 8.24504884 0.00190690 -0.00216891 0.00618095
H 0.29470442 14.46732809 2.44769547 -0.02030528 0.01362946 -0.00865091
H 2.31510485 19.54814814 3.89079268 -0.00638296 -0.00419279 0.02026215
H 7.94521386 12.77603273 8.12150909 -0.01464759 -0.00520469 0.00716453
H 1.26740819 17.48146245 9.41572217 0.03592088 -0.00087344 0.00687104
H 19.74272423 14.99596058 4.65880177 0.00196154 -0.00015331 0.00224708
H 3.97805763 10.06147000 1.18512166 -0.00424315 -0.02186402 0.01646917
H 0.84961555 13.15015753 7.79028457 -0.01087133 -0.02759700 -0.00622275
H -0.06639139 18.21781708 10.24101043 -0.00536441 -0.01858210 0.00730942
H 5.19588195 16.57632937 3.29660409 -0.00647921 -0.01212812 -0.00261440
H 3.71112214 11.57366076 2.20451245 -0.00676830 0.00228246 -0.01908971
H -0.62170128 14.12563292 7.34101383 0.01152236 0.01024169 -0.01089463
H 1.59881458 18.92061094 10.41144264 -0.02140008 -0.00983153 -0.00802102
H 4.95475128 15.48082801 4.56632466 -0.00515595 -0.01359620 0.00849406
H 5.34205556 11.13652699 1.72230192 0.01775158 0.00896796 -0.00542465
H -1.80156332 18.44759083 14.62690182 -0.01256434 0.00464815 -0.00375460
H 1.26932471 13.54820559 15.05233331 -0.01295027 -0.03318330 0.01050612
H 3.73972088 10.34071269 20.89685381 -0.00159456 0.00672182 0.00286526
H 1.07893488 15.10583006 20.40723356 0.01241221 -0.00030409 -0.01942711
H 3.86007604 17.76334769 12.55129466 -0.01786959 0.00735624 0.01112243
H 2.35645672 12.82131743 16.97699272 -0.00889221 -0.01857798 -0.00020798
H -2.03953514 10.99965483 23.11659249 0.00898731 0.00048953 -0.00857694
H -0.20025101 15.89506405 18.68531963 0.00816672 0.01010444 -0.00654330
H 2.74615708 16.41989862 22.29862046 0.02093373 -0.00273976 0.02758955
H 2.08155071 11.45801936 18.95595836 0.03091210 0.00460370 -0.00725021
H -0.36150996 12.26915765 12.89591017 0.00855617 0.00887701 0.01605195
H -0.27266281 17.53861598 16.76831635 -0.01622267 0.00018246 0.00692882
H 0.87532848 14.69203980 11.94507330 -0.02431729 -0.01211149 0.01334862
H -1.81724039 10.25185032 17.84236808 -0.02417868 -0.00759454 -0.01259011
H 0.86775142 13.91690887 23.68868200 -0.00227640 0.01607995 0.00321801
H 3.89217327 18.56284899 17.53056024 0.01541453 0.01862679 0.01882268
H 0.87021087 16.42593258 13.86659182 0.00961164 0.01168036 -0.02546926
H -1.73351076 11.73311189 15.99448089 0.01104669 -0.01444823 -0.00265291
H 0.81177384 12.13725443 22.11171317 0.00952855 -0.02475562 0.01348779
H 3.81038770 16.86889369 19.25831193 0.00770460 -0.01041244 -0.01083663
H 3.41775469 14.30872606 21.82160712 0.01609758 0.01007657 0.00867398
H 1.29350881 9.56987255 19.81319681 -0.01900008 0.01562781 -0.00634429
H -1.27573428 14.23334484 13.99107777 0.00812469 0.01493873 -0.02341133
H 0.81021012 18.99530867 15.35351881 0.01833070 0.00418182 0.00619803
H 3.70632427 13.83661157 19.64931809 -0.00006327 0.00719527 0.00903912
H -0.77786053 18.35866926 22.12839045 -0.03017157 0.02539312 -0.01094897
H -2.00971709 15.07239294 15.81449709 -0.00844860 0.01529129 0.01288438
H 1.88054296 10.79600116 13.75391946 -0.00555833 -0.00219291 -0.00647505
H -0.98830224 13.29562179 19.17795158 -0.01318810 0.00447487 -0.02252001
H 0.64857709 17.57964975 21.34053309 0.00933782 0.02809837 -0.00888951
H 4.62185842 15.09739888 16.01684593 -0.01484422 0.00569229 0.00565779
H 2.67737926 12.09068922 14.51896807 0.00228143 0.00073114 -0.02955434
H 17.99474778 13.93092007 19.47230051 0.01929142 0.00338515 -0.00392374
H -0.97132525 16.98439141 21.06641596 0.00527460 -0.00302043 0.01861760
H 3.73436165 16.47487918 15.34537360 0.01317956 -0.01262151 -0.00194458
H 3.55750099 10.88716201 13.58882472 0.00466868 -0.01064894 0.00124671
H -3.43990150 18.58178752 26.41712022 -0.02906492 0.00462171 0.00921861
H -0.52037437 13.76949945 26.77099390 -0.00305190 -0.00473752 -0.00608790
H 2.31357648 10.38504136 32.61529524 0.02031852 0.00644836 -0.00372184
H -0.64051052 15.02407475 32.22301253 -0.00626273 -0.02257471 0.00739313
H 2.40913956 17.75706570 24.42651690 -0.00448955 -0.00750751 -0.01382543
H 0.68230215 12.99779045 28.57190422 -0.01613026 -0.02243561 -0.01160754
H -3.35679990 11.16399954 35.00451043 -0.01322828 0.00528014 -0.00091543
H -1.87422551 16.01028672 30.34790747 0.01000430 0.00234494 -0.00005107
H 0.89904953 16.31887702 34.46397689 -0.02617438 -0.01429813 0.01220973
H 0.59319033 11.66530069 30.64102564 0.01153518 -0.00363071 0.03170229
H -1.97561684 12.73917670 24.83940150 0.01745474 -0.01043601 0.00975490
H -1.94389912 17.65998795 28.54014861 0.00992422 -0.02793384 -0.02532234
H -0.20959334 15.39028422 23.61215331 -0.00928001 0.00725975 0.01973079
H -3.28206592 10.14064436 29.67029941 0.02929739 -0.00595804 0.00847095
H 4.21364164 13.79461349 0.27770614 -0.00914311 0.01604757 0.01397774
H 2.21763688 18.51107620 29.36142109 -0.00556580 -0.00753384 0.02505625
H -0.49248284 16.83840649 25.61294334 0.02307911 -0.01819734 -0.03225176
H -3.44451378 11.84803790 27.85341630 -0.00051356 0.01132138 0.03556259
H -0.46751593 12.41036440 33.72435997 -0.00605010 0.00958763 -0.00190504