2160
Time=46000.00000003 pbc="T T T" Lattice="20.60889031 0.00000000 0.00000000 0.00000000 29.14196421 0.00000000 -4.70623942 0.00000000 35.21763041" energy=-13802.98775148 virial="-91.09144133 -21.19186774 50.66575397 -21.19186774 -46.69892297 9.11934743 50.66575397 9.11934743 -46.26392198" stress="-0.00201954 -0.00094387 0.00240909 -0.00094387 0.00004978 0.00040868 0.00240909 0.00040868 0.00010201" Properties=species:S:1:pos:R:3:vel:R:3
O 0.95384594 8.79594744 2.55634299 0.00333595 -0.00151418 -0.00176847
O 1.91265614 3.76723997 3.40709847 0.00434387 0.00207531 -0.00387528
O 4.73269880 1.10798986 9.15633651 0.00233232 0.00121827 -0.00253691
O 3.23895186 5.95303489 8.36534078 -0.00393143 -0.00123561 -0.00077983
O 1.18001159 4.63611135 9.48253766 -0.00012629 0.00004125 -0.00250160
O -0.15029213 9.48055077 7.96375630 0.00645480 0.01026771 -0.00034810
O 4.03829873 4.97263317 2.30009654 -0.00302733 -0.00556685 0.00077335
O 5.63988922 0.35260412 3.67719723 -0.00240346 -0.00065656 -0.00935449
O -0.87608172 8.51780079 14.23186936 -0.00187568 -0.00134268 -0.00423952
O 0.23703657 3.65003842 15.30182098 0.00418166 0.00148048 0.00266942
O 3.27496003 1.48812904 20.98490021 -0.00250545 -0.00215594 0.00417595
O 1.56598095 5.60647866 19.82668120 -0.00596919 -0.00284821 -0.00148269
O -0.16959734 4.62719869 21.44599182 0.00275102 -0.00293056 -0.00206253
O -1.92262673 9.51906925 19.89148781 -0.00052919 -0.00164972 0.00697297
O 2.33286621 4.70729707 13.96858333 -0.00067507 -0.00225847 0.00161377
O 3.87602591 28.93028599 15.16400614 -0.00009536 0.00032568 -0.00460530
O -2.41904236 8.65334561 25.74059515 -0.00016671 0.00205411 -0.00027786
O -1.21400725 3.81391634 26.71868128 0.00192269 0.00599333 0.00801506
O 1.55373038 1.08686888 32.79439201 -0.00501837 0.00018990 -0.00134130
O 0.38012027 6.06640349 31.77182217 -0.00325681 -0.00031801 0.00093471
O -1.60350077 4.96094777 32.89807532 -0.00524367 0.00729521 0.00262675
O -3.25098918 9.89644967 31.48829090 -0.00094482 0.00033262 -0.00420982
O 0.84588000 4.91574641 25.64681431 0.00061193 0.00437937 -0.00071197
O 2.56969440 28.82573841 26.99618081 0.00197490 0.00189468 -0.00211511
O 0.51938888 18.38793599 2.31768002 -0.00492761 0.00101531 -0.00388425
O 1.72913816 13.68449930 3.46206242 -0.00536196 0.00369212 -0.00288004
O 4.72126048 11.03691640 9.32228160 -0.00066499 -0.00285824 -0.00154709
O 3.49099591 15.98371076 8.26767206 0.00445856 0.00032351 -0.00410047
O 1.31521085 14.88105319 9.08156362 -0.00430051 0.00087346 0.00256659
O -0.20166468 19.83639237 8.43680277 0.00117067 -0.00892747 0.00689246
O 3.85019578 14.43106849 2.00647789 0.00492894 0.00042329 0.00166829
O 5.58940273 9.63222563 3.82827388 -0.00253332 0.00022855 0.00279379
O -0.86847905 18.19484756 14.19789755 0.00227398 0.00254535 -0.00087918
O 0.40731881 13.23724477 15.25476807 0.00038643 -0.00316779 -0.00331982
O 3.03562131 10.86589795 21.08706552 0.00097962 0.00170483 -0.00570066
O 1.67408710 15.72131592 20.27039330 0.00459046 0.00191902 0.00346161
O -0.16987360 14.68622074 21.44576291 -0.00394860 -0.00123829 0.00347211
O -1.86925644 19.42006837 19.66201009 -0.00380607 -0.00393282 0.00676572
O 2.53889769 14.30265830 14.28201848 -0.00021457 0.00019923 -0.00253163
O 3.91787669 9.31087412 15.26909486 0.00895775 -0.00158806 0.00122787
O -2.49240543 18.31478980 26.25926737 -0.00086641 0.00418237 0.00264312
O -1.11766495 13.56703882 26.89855959 -0.00715057 -0.00168621 -0.00253418
O 1.70569557 10.64924379 32.88365957 0.00351820 -0.00332147 0.00308419
O 0.33269361 15.67321521 31.67556322 0.00400314 -0.00245755 0.00369257
O -1.83061618 14.32065535 33.01259867 0.00332771 0.00007144 0.00005285
O -3.58994684 19.32294927 31.53344704 0.00063800 0.00095821 -0.00206599
O 1.07236203 14.38463903 25.93402903 0.00487983 -0.00125792 -0.00213949
O 2.21182835 9.58349190 26.79582600 -0.00671958 -0.00229436 0.00157961
O 0.60311959 28.13013840 2.59498040 0.00362073 0.00290944 -0.00059384
O 1.79256684 23.33807992 3.62088075 -0.00636913 0.00586106 0.00325309
O 4.52668224 20.61745242 9.26887439 -0.00395887 -0.00178691 -0.00392597
O 3.30753202 25.64667244 8.33473589 0.00562852 0.00472872 0.00079227
O 1.36948445 24.42479074 9.39509163 -0.00376082 0.00527371 -0.00241646
O -0.18741737 28.99540286 8.08453480 0.00136661 -0.00002034 -0.00009353
O 3.95325123 24.56489821 2.39223932 -0.00489087 0.00100327 0.00223165
O 5.23904251 19.66716609 3.50453720 -0.00201851 -0.00393119 0.00485625
O -0.85918302 27.99898311 13.94849396 -0.00220051 0.00328966 -0.00108924
O 0.46533642 23.00081841 15.08780602 0.00344992 0.00109946 0.00756956
O 3.05219551 20.37184194 21.11893375 -0.00060611 0.00137767 0.00234252
O 1.87180277 25.24361733 19.76016559 0.00174278 -0.00409191 -0.00246507
O -0.17971255 24.16490682 21.05020228 0.00397094 0.01030197 -0.00698970
O -1.80571571 28.91260314 19.90900231 -0.00266720 0.00147660 -0.00342671
O 2.43345030 24.22239940 14.00509351 0.00528880 -0.00471174 -0.00317967
O 3.99377464 18.99031680 15.28494028 -0.00151714 0.00458329 0.00076715
O -2.32615266 27.81060034 25.77330276 0.00056744 0.00336239 -0.00161597
O -1.47142925 23.28463859 26.74879723 -0.00282061 -0.00557546 0.00046435
O 1.37242573 21.08952312 32.62264289 -0.00243405 0.00429103 -0.00087341
O 0.15752347 25.38264952 31.74222790 -0.00538933 -0.00399791 0.00443865
O -1.88500163 24.38193750 32.92962444 0.00518254 0.00191182 0.00059048
O -3.16723099 0.43099158 31.57549237 0.00083149 -0.00108446 0.00546322
O 0.96110318 23.95662106 25.84799467 -0.00041966 0.00606512 -0.00403477
O 2.41098223 19.34168052 26.89327794 0.00940564 0.00162405 0.00442700
O 7.61494307 8.60007649 2.36318041 0.00216061 -0.00490990 0.00517579
O 9.08416157 3.74136988 3.27140078 -0.00179620 -0.00189577 -0.00495722
O 11.39534344 0.87424791 9.27926397 -0.00469202 0.00573924 -0.00026886
O 10.21489331 6.03750251 8.36641926 -0.00088115 -0.00761339 0.00231930
O 8.16907313 4.84915888 9.47573633 0.00168789 0.00022923 -0.00546979
O 6.58701605 9.68224476 8.25572186 0.00274093 -0.00140324 0.00650197
O 11.13486097 5.14942869 2.14789369 0.00848729 -0.00606788 0.00249261
O 12.48528164 28.71584095 3.63810417 -0.00088289 -0.00129741 0.00254041
O 6.18775910 8.72583595 13.98691183 -0.00195833 0.00661506 -0.00569089
O 7.17829462 3.69118469 15.26253041 0.00304498 0.00484374 0.00277278
O 10.02718866 1.12838831 21.10205174 -0.00712636 -0.00138638 0.00151818
O 8.52473761 5.79233072 20.04320105 -0.00092538 -0.00314506 -0.00201035
O 6.65401357 4.75464048 21.45254587 0.00545401 0.00566355 -0.00261916
O 4.86632533 9.62296753 19.73306189 -0.00075266 -0.00035503 0.00045816
O 9.26308895 4.65901222 13.86612707 0.00359059 0.00473673 -0.00136913
O 10.75891961 0.11064029 15.25938975 0.00033513 0.00465834 -0.00645936
O 4.35531800 9.05999127 25.65862415 0.00396467 -0.00076297 0.00216138
O 5.61178767 3.80658437 27.02644150 0.00269125 -0.00473909 -0.00158439
O 8.57792267 0.93758223 33.07532444 -0.01084178 0.00411163 0.00730942
O 7.11456829 5.97704039 31.84504438 -0.00236565 -0.00098406 -0.00106029
O 5.12366574 4.69854190 32.97002779 -0.00510142 0.00245729 -0.00285983
O 3.62080727 9.86362591 31.41129041 -0.00458161 0.00168653 0.00269620
O 7.62185737 4.81369537 25.67380936 0.00550347 -0.00100674 -0.00018723
O 9.28178037 28.86278046 26.94481249 0.00398538 0.00470119 0.00129891
O 7.39791202 18.46978155 2.44042281 0.00217597 0.00216304 0.00323709
O 8.73296415 13.32873016 3.39603910 0.00043124 -0.00035811 0.00448888
O 11.46552358 11.17593795 9.53867176 0.00178095 -0.00514642 -0.00102695
O 10.06245571 15.91312368 8.31164430 0.00020200 -0.00236477 0.00340535
O 8.05511197 14.57205503 9.39254485 -0.00377297 -0.00024152 0.00707456
O 6.77456731 19.90741290 8.35501793 0.00245883 -0.00243599 -0.00280401
O 10.51011230 14.27014191 2.04221139 0.00023405 -0.00042538 0.00093489
O 12.39093568 9.70646361 3.55467995 0.00041285 0.00139980 0.00267367
O 6.25515249 18.31527884 14.16001599 0.00112225 0.00068741 0.00220114
O 7.17606687 13.46321669 15.35911869 0.00273985 -0.00268209 0.00192454
O 9.92846000 11.00159546 20.74382640 0.00677799 0.00409336 0.00403502
O 8.46534919 15.67798487 20.21524621 0.00668591 0.00038843 -0.00149799
O 6.69146578 14.43983510 21.48534048 0.00676205 -0.00279601 0.00070066
O 4.97771391 19.22395079 19.77680751 0.00497500 0.00189178 0.00078952
O 9.40985877 14.40308763 14.33517248 -0.00251251 -0.00362737 0.00253635
O 10.86880505 9.60482951 15.57934517 -0.00327275 0.00003693 -0.00024496
O 4.51235155 18.28799391 25.96629020 -0.00294690 -0.00080880 0.00119571
O 5.61493095 13.49743905 26.80238565 -0.00488004 -0.00459003 -0.00002995
O 8.80819846 11.03635813 32.36740939 0.00461374 -0.00084906 -0.00073432
O 7.02245064 15.86769799 31.95029575 0.00117616 -0.00242950 -0.00170085
O 5.18555471 14.62838761 33.10611645 -0.00321636 0.00197492 -0.00308576
O 3.44849278 19.91463191 31.75672807 0.00344596 -0.00397693 -0.00236486
O 7.74215328 14.38626314 25.70904056 0.00128030 -0.00162235 0.00622991
O 9.34321437 9.57837420 27.15684384 -0.00301060 -0.00093650 -0.00073015
O 7.61059040 28.21210428 2.52346118 -0.00026279 -0.00597599 0.00040436
O 8.84402574 23.25278141 3.53074667 0.00788022 0.00299913 0.00027703
O 11.32558200 20.81968577 9.32835668 -0.00463642 -0.00276981 0.00389300
O 10.11699816 25.57071262 8.36436175 0.00536986 -0.00650477 -0.00323772
O 8.12635358 24.46156001 9.50204133 0.00458005 0.00341248 -0.00584298
O 6.76062671 29.13023607 7.98501465 -0.01233099 0.00488772 -0.00777448
O 10.75033746 24.49262945 2.28888373 0.00539033 0.00092673 -0.00024676
O 12.27702720 19.60505974 3.54454573 0.00084421 0.00359240 0.00057864
O 5.95300189 27.70554734 14.32486758 0.00100021 -0.00081073 -0.00784917
O 7.08380704 23.16810487 15.01877953 -0.00268443 -0.00569375 -0.00076368
O 9.64481881 20.56140203 20.89222599 -0.00133155 0.00559208 0.00167186
O 8.78509951 25.63326503 20.30764625 -0.00221114 0.00050918 -0.00239033
O 6.61278320 24.36025211 20.79392774 -0.00360103 0.00215811 -0.00231080
O 5.20288078 0.03641433 20.07813430 -0.00454457 0.00057389 -0.00315453
O 9.11078787 24.38560726 13.86108463 -0.00481191 0.00297049 0.00414670
O 10.82909076 19.10068948 15.23282834 0.00298646 -0.00111878 -0.00213178
O 4.46731451 28.01825265 25.61307918 -0.00439301 -0.00745318 -0.00350084
O 5.64661756 22.95011685 26.63032527 0.00682519 0.00397103 -0.00098542
O 8.17607940 20.33972510 33.06168651 -0.00228792 0.00190658 0.00172778
O 7.07182676 25.42166281 31.85145607 -0.00065725 0.00074055 -0.00058766
O 5.02292397 24.48939098 32.87276747 -0.01010601 -0.00134835 -0.00202636
O 3.75310930 0.21389846 31.70237540 0.00139201 0.00312957 0.00268004
O 7.61139403 24.27910653 25.82114722 -0.00285630 0.00074197 -0.00809087
O 9.14885577 19.10163156 27.08123033 0.00035081 0.00043893 -0.00238894
O 14.48530380 8.60140030 2.27688663 -0.00053539 0.00640819 0.00220269
O 15.72862833 3.42940187 3.38213569 0.00125535 -0.00197823 0.00093337
O 18.37042754 0.98998304 9.20194799 0.00244159 0.00539392 0.00512592
O 16.97901601 5.75333355 7.87325908 0.00398553 -0.00048077 -0.00633612
O 15.05045780 5.05625687 9.41277772 -0.00513870 -0.00416806 -0.00300208
O 13.59212319 10.03737396 8.46961252 0.00604334 -0.00081390 -0.00155301
O 17.71505145 4.90262978 2.21292757 0.00324173 0.00118026 0.00033702
O 19.31564165 29.13860639 3.99421997 0.00530566 0.00647558 -0.00325413
O 12.79870356 8.58437338 14.19548185 0.00022043 -0.00239234 -0.00495944
O 13.99303326 3.63804025 15.12003196 0.00225337 0.00822492 0.01131654
O 16.96078272 0.86942102 21.25844201 -0.00455750 -0.00039409 0.00384115
O 15.41437438 5.93674746 19.97283468 -0.00437179 -0.00022388 -0.00556236
O 13.35843513 4.77723877 21.14462424 -0.00021609 0.00100301 0.00063549
O 11.82656939 9.57348273 19.76472063 -0.00633411 -0.00063804 0.00085029
O 16.09644299 4.69567017 13.83974088 0.00920385 0.00129115 -0.00201195
O 17.61587891 28.45683141 15.36676948 -0.00293092 -0.00491421 -0.00405886
O 11.29767475 8.53973621 25.86524710 -0.00073063 -0.00452466 0.00762777
O 12.48177419 3.83546162 26.86437668 0.00238491 -0.00542359 0.00290548
O 15.15924129 0.81082604 32.95167881 0.00141912 0.00470358 0.00736071
O 14.26890686 5.95113787 31.54378264 0.00397267 -0.00550465 0.00211861
O 12.08768956 4.80638153 32.94119613 -0.00142997 0.00453491 -0.00161007
O 10.54219100 9.35238979 31.31590346 0.00239947 -0.00206284 0.00732117
O 14.46231777 4.78634676 25.55587178 0.00165545 -0.00255805 -0.00199868
O 16.21230561 29.12277567 26.73403511 -0.00858443 0.00188332 -0.00026637
O 14.36344046 18.37597375 2.51496935 0.00067850 -0.00280551 0.00387769
O 15.43876345 13.55199134 3.54490540 0.00100306 0.00425810 -0.00354344
O 18.41921348 10.70774293 9.20556098 0.00285333 0.00091429 -0.00344482
O 17.19590383 15.27398431 7.86583077 -0.00301274 -0.00364786 -0.00142239
O 15.15952472 14.62344388 9.34780447 0.00601062 0.00107189 -0.00282666
O 13.49098956 19.75320127 8.55509003 0.00552898 -0.00099625 0.00110233
O 17.60222911 14.35491122 2.24351579 0.00198343 -0.00350947 0.00011938
O 19.33829623 9.78997748 3.64499985 0.00233277 0.00152194 -0.00152333
O 13.20277888 18.26120657 14.20731669 -0.00103775 -0.00436485 0.00200714
O 13.98565019 13.29264624 15.36638623 -0.00604722 -0.00235097 -0.00279716
O 16.90279689 10.97139803 21.00224719 -0.00144132 0.00033767 -0.00314011
O 15.55779825 15.52076194 19.75937152 0.00740947 -0.00365611 -0.00434916
O 13.25820479 15.07350234 20.88365161 -0.00155854 -0.00181781 -0.00214609
O 11.87745065 19.63375781 20.13171847 0.00536841 0.00493812 -0.00532930
O 16.23613145 14.33268584 14.34262109 -0.00318706 0.00524076 0.00275227
O 17.52453639 9.34242016 15.41243353 0.00049900 -0.00339531 0.00384997
O 11.35801404 18.52173791 25.68995368 -0.00074237 0.00245504 0.00143713
O 12.51699051 13.66136486 27.05543697 0.00271143 0.00047313 0.00786824
O 15.22967002 10.92300322 32.88153309 -0.00169272 0.00156161 -0.00465282
O 14.08781272 15.60474570 31.46664552 -0.00105570 0.00239192 -0.00096457
O 11.94042970 14.91002194 32.81760360 -0.00929785 0.00465702 0.00245392
O 10.33230993 19.49880881 31.57183666 0.00064944 0.00086778 0.00531707
O 14.63496978 14.80687503 25.71600953 0.00217920 0.00199276 -0.00020660
O 16.10135383 9.89376581 26.94765938 0.00077905 0.00559378 -0.00053556
O 14.47601593 27.97762553 2.33551862 0.00441430 -0.00289071 -0.00344095
O 15.51827027 23.29137461 3.79477708 -0.00276163 -0.00017878 0.00372528
O 18.16937132 20.23913549 9.68345935 0.00146414 -0.00464102 -0.00154112
O 17.11992152 25.22447214 8.41104170 0.00054108 0.00324984 0.00267348
O 15.11884375 24.11092816 9.56159174 0.00185214 0.00236430 -0.00178911
O 13.54640344 28.97884285 8.24872854 -0.00100962 0.00190637 0.00393277
O 17.75376961 24.15631551 2.68553340 -0.00157893 0.00328351 -0.00536830
O 19.09606193 19.32609441 3.57809918 0.00050117 0.00063954 -0.00002704
O 13.02131595 28.09921074 14.14787136 0.00055904 0.00055917 -0.00806478
O 14.08671467 23.58918057 15.45765841 -0.00305069 -0.00069707 -0.00416886
O 16.70628493 20.45512428 21.09091112 -0.00145663 0.00303709 0.00374769
O 15.66511547 25.08133809 20.01408770 -0.00063622 0.01238479 0.00376217
O 13.32159281 24.02796449 21.19707866 0.00058508 0.00127989 0.00077717
O 12.14878687 29.06315030 19.81008749 -0.00216380 0.00311782 -0.00645206
O 16.10567305 24.09854954 14.11067888 0.00272777 -0.00135808 -0.00159496
O 17.62929746 19.20067205 15.28045884 0.00492369 0.00634973 -0.00091966
O 11.45558715 27.83461507 25.95806887 0.00195487 -0.00800344 -0.00097682
O 12.30047408 22.97400485 26.84616917 -0.00497569 0.00006563 -0.00507156
O 15.06506032 20.52673977 32.86173272 -0.00199477 0.00437451 0.00014387
O 14.20143528 25.79703999 31.86553226 -0.00104254 -0.00352840 0.00000161
O 11.98162787 24.24740134 32.87198745 0.00006295 0.00021545 -0.00368865
O 10.54107817 0.26027134 31.56689546 0.00439488 0.00492634 -0.00349111
O 14.49190193 24.01730388 25.95560613 0.00153735 0.00520109 -0.00120955
O 16.06554994 19.80589517 27.02415596 0.00012090 0.00234113 -0.00159198
H 0.10085731 9.21305114 2.75987477 0.00537691 0.00750824 0.00284485
H 2.75303125 4.33906213 3.34565999 0.02075891 -0.01327363 -0.02129822
H 5.63453411 0.71958980 8.88741397 -0.00749165 0.00979503 -0.01732357
H 2.38658499 5.44512941 8.57940832 -0.01221688 0.02145555 0.02376206
H 5.69430192 8.23856425 0.63861659 0.01281131 0.00746587 0.00822455
H 4.01669739 3.32437317 5.02406418 -0.02326847 0.00714732 -0.01204312
H -0.35771912 1.14511735 10.98640694 0.01350136 -0.02430678 0.01502992
H 1.35500498 6.33961015 6.54333011 0.01385639 0.03213097 -0.01012335
H 4.27202651 6.76287926 10.46527561 0.01315982 -0.00792711 0.00706807
H 3.86894344 1.87475934 7.03745931 -0.01203138 -0.00633068 0.01891841
H 1.37874970 3.28098328 0.87389860 0.01334768 0.01480620 -0.00463312
H 1.49772444 7.86017623 4.71680422 -0.01877867 0.01018056 -0.00420800
H -1.85170883 5.53113563 35.14484137 -0.00526360 0.00925283 -0.01487858
H -0.07496289 0.57315997 5.93498357 -0.00702934 0.03478125 -0.01325940
H 2.39736215 3.95697602 11.64587260 0.02029716 0.00599305 0.00334171
H 5.48310528 8.88833843 5.84566829 -0.00597980 0.01479111 0.00951727
H 2.95710361 7.28021852 1.73596711 -0.00156199 0.02360322 -0.01485329
H -0.09403026 2.22417793 4.12784405 0.00130373 0.00756230 -0.00228189
H 2.65417002 2.54064273 9.74571466 0.02273520 -0.02145508 0.02836625
H 5.38204669 7.12312742 7.59955312 -0.00045339 -0.01280735 -0.00252345
H 5.10851633 4.65259449 9.80564726 0.00731100 0.01047119 0.00863222
H 2.87160220 0.20530663 8.03588480 -0.00597485 0.00284395 -0.00225162
H 0.25920326 5.00363430 1.94951882 -0.00891615 0.00494434 0.00905361
H 2.49229863 9.83159655 3.73338201 -0.02463213 0.00011514 -0.00930833
H 5.83665159 4.61442234 7.45674646 -0.01170604 0.02019722 -0.01898654
H 1.03910281 9.07035237 10.38705342 -0.02340522 0.00239545 -0.00133000
H 19.87037726 5.52396136 4.43444447 -0.00575461 0.00693683 0.00234996
H 4.44477923 2.43124865 2.37431820 -0.01542275 -0.01976624 -0.00298487
H 19.04325008 3.80023032 7.96142616 -0.01907959 0.00229046 0.00241163
H 2.51132664 8.43791727 9.68672055 0.01474142 -0.00153266 0.00252339
H 4.91560350 5.70125800 4.59097633 0.01723673 -0.01168338 -0.00212921
H 4.81853393 1.14790759 1.42713380 0.00181661 0.01562438 0.00047988
H -0.37014970 2.49712337 8.35816331 -0.01752887 -0.00130857 0.00982877
H 0.84994573 7.64718881 9.48531872 -0.03229086 -0.01458152 0.00957630
H 6.71074036 5.76367546 4.02833786 0.00620677 0.01544551 0.01048877
H 3.07550526 1.38854188 1.99543820 -0.00639234 0.01821570 0.01317497
H -1.74120007 8.97722713 14.29996399 0.01735807 -0.01043844 0.00437894
H 1.09432084 4.11737108 15.11627531 -0.00250493 0.03407314 -0.00242504
H 3.91251551 0.72490187 21.08132150 0.00261045 -0.01708026 0.00208224
H 0.72671498 5.54080639 20.31681942 0.02408023 0.02215272 -0.00713983
H 4.10950475 8.31078827 12.44002058 -0.01529597 -0.00898344 0.00478581
H 2.04352819 3.49899112 17.10980490 0.01229728 -0.02198705 -0.01020395
H -1.82641255 1.36123911 23.02316702 0.00702273 0.02213156 0.00795781
H -0.44501618 6.74827399 18.60535094 0.03554959 0.00493970 0.01597714
H 2.54016305 6.77946125 22.27692830 0.01161927 0.00204020 -0.01228202
H 2.24970436 1.86046552 18.84760284 0.01365375 0.01126023 0.00815014
H -0.49682600 2.60734383 13.00416642 0.00555571 -0.01386477 -0.01616672
H -0.25906584 8.12784295 16.59540027 -0.00638637 -0.00222397 0.00088828
H 1.12093950 5.20482351 11.81768974 0.02669747 -0.02111335 -0.00845737
H -1.64045574 0.40675119 17.72101923 0.00023244 0.00677044 0.00984864
H 1.02283665 4.31682182 23.77274218 -0.00249233 -0.00020598 0.00219624
H 3.88147133 8.98747511 17.51073247 0.02235810 0.00777495 0.02805231
H 1.11124042 6.99847696 13.48296802 0.00349710 -0.01788637 0.00198655
H -1.81917465 2.11417474 16.05266584 -0.00129914 0.01604379 0.00713969
H 1.15162268 2.90720620 21.64214583 0.01111328 0.00735558 -0.01011937
H 3.83376241 7.07772255 19.31093411 0.00799978 -0.01370320 0.01332407
H 3.46626924 5.12519065 21.30509744 0.04308881 -0.00016158 -0.01194114
H 1.39470362 29.06839698 19.85533752 -0.02114938 -0.00330908 0.00184873
H -1.37633417 4.53701820 13.92608476 0.00224028 -0.00411665 0.01974037
H 0.95860474 9.92623621 15.59448463 0.00116803 0.01794314 0.01453543
H 6.11171002 3.55292965 19.37473367 0.01095783 0.01530183 -0.00046809
H -0.69436601 7.39585726 21.14248182 0.00375051 0.02093103 -0.01862549
H 18.19326699 6.72694161 15.02851064 0.01017666 -0.01937278 -0.00742013
H 3.11563662 1.01425955 12.97512336 0.02493379 -0.00091384 -0.01507003
H -2.30266277 4.12525701 19.15241869 -0.00507468 0.00859795 0.00088903
H -1.32321611 8.73985688 22.19167717 -0.02014569 -0.00041408 0.00498229
H 4.35069166 5.34073118 16.24992975 0.00836492 -0.02763563 0.00099998
H 1.50326275 1.51223282 13.82801158 0.01285802 -0.00439512 -0.00304939
H -1.73526749 2.58139088 20.05790829 -0.00433638 -0.00906128 0.02985750
H 0.47449943 8.52155237 21.73415660 -0.00951220 0.00169876 -0.01419017
H 4.29026703 6.84675568 15.28405100 0.03789620 0.00491668 -0.01803133
H 2.97332102 2.15439763 14.22036321 0.00503641 -0.00110278 0.00306068
H -3.33637125 8.94732254 25.94120794 0.01410220 -0.00482994 -0.00069740
H -0.39323973 4.38662646 26.42531359 -0.00797535 0.01636757 -0.02143718
H 2.38787567 0.67572525 32.51759912 -0.00688596 -0.00093006 -0.00244224
H -0.46895126 5.67783605 32.09593369 -0.00211097 0.01761894 0.01371799
H 2.31210817 8.30940853 24.06210552 -0.01117920 -0.02737650 0.01618439
H 0.81948749 3.27765808 28.04048482 0.01972919 0.00179650 0.00576802
H -3.36028261 1.63846307 34.49699891 0.00775484 -0.01739347 -0.02592273
H -1.72364610 6.32834002 30.25153785 -0.03153815 -0.00625557 0.00333138
H 1.00895455 6.75742121 33.97213712 0.03126374 0.01650523 0.01251492
H 0.89629557 1.83493753 30.15309465 -0.02374260 0.00687088 0.00404897
H -2.04575885 2.82089397 24.89070541 -0.00838453 -0.01439439 -0.00618818
H -1.71999226 7.79357068 28.21166996 -0.00377743 -0.01032841 -0.01269997
H -0.37358344 5.39492664 23.44569631 0.02866348 -0.01427778 -0.02085258
H -3.10947930 0.77046282 29.48501925 -0.01168254 0.00208512 0.01875599
H 4.22537380 4.27175886 0.16630497 0.02044036 -0.02808284 -0.00198448
H 2.16861816 9.29908263 29.09215674 0.02002257 0.00050519 0.01215085
H -0.39255330 7.16966147 25.22858779 -0.01185689 0.00799314 0.01939259
H -3.21155911 2.27447741 27.51439184 0.02883584 0.00682860 0.01514048
H -0.54700772 2.53513949 33.57495166 0.01271969 0.01664609 -0.01704079
H 2.19140534 7.64751204 31.10286655 -0.01759604 0.00579707 0.00844276
H 1.99056400 5.10912339 32.75298432 0.01260579 0.01338518 -0.00184034
H 0.00513977 0.06700545 31.51511704 -0.01803442 0.00361226 -0.00011199
H -2.97701495 4.87056516 25.61141549 -0.00678514 -0.01003691 0.00364403
H -0.93469178 9.64239305 27.29060149 0.00600737 -0.01752089 0.00208317
H 2.58860719 3.95866745 31.21211233 0.02798247 0.00464581 -0.03444813
H -2.77224064 8.64625793 33.70786731 0.01035784 -0.00732578 0.03045379
H 16.43324834 6.93939883 26.72940490 -0.00841187 -0.01155611 -0.01529406
H 1.66787093 2.04457440 26.00715707 0.01763145 0.01098944 -0.01810042
H -2.90527761 4.02663626 30.71717693 0.00172165 -0.00875686 0.01183334
H -1.05627376 8.34154671 33.40437396 0.00342035 -0.00123078 0.00814111
H 1.14681160 5.92223280 27.88371127 -0.00512180 0.00255296 -0.03262437
H 1.91857324 0.83271635 24.75352522 0.01658940 -0.01443788 0.00644207
H 16.30174835 3.55463538 31.64722488 0.01714496 0.01602040 -0.00936933
H -2.31416679 7.54276478 32.49130139 -0.02447504 0.02120557 -0.02110262
H 2.83461383 5.52248213 28.04363059 0.02760403 0.01878623 0.00964468
H 0.26594542 1.11761744 25.22263822 0.01038399 0.04363818 -0.01544439
H -0.34072200 18.86052317 2.65283473 0.00927949 0.00960862 -0.02481005
H 2.58742082 14.07651316 3.13365081 0.01506332 0.01100629 0.00361051
H 5.62402770 10.51108000 9.22550425 -0.00351279 -0.01012527 -0.01236405
H 2.63878019 15.48841408 8.40916555 -0.01846115 -0.00143724 -0.00432785
H 5.47499459 17.96249390 0.52600521 0.00535067 0.02441839 -0.00819544
H 3.71516349 13.31693138 5.08831707 0.00406510 -0.01169530 0.00878085
H -0.23313195 11.21587250 10.84071632 -0.00271992 -0.00087296 -0.00592536
H 1.63122406 16.09007238 6.63015718 0.00810874 0.00701841 -0.02212525
H 3.97017816 16.36708800 10.80101520 0.00835201 0.00298075 -0.00555023
H 3.79044299 11.82970437 7.02286856 -0.02274177 -0.00360427 0.00740160
H 1.25593193 13.14665659 1.12991751 0.02466791 -0.01728180 0.02716511
H 1.48180185 17.49602902 4.52501431 -0.00933917 0.00183487 -0.01975994
H -1.94022985 15.39184118 35.04558290 0.01004520 0.03642067 0.00337362
H -0.10781479 10.28507234 5.81832185 -0.01604954 0.00360521 -0.00302434
H 2.51613651 13.93010369 12.10498783 -0.00335958 -0.01591086 -0.02247810
H 5.15465106 19.25513132 5.62630166 -0.00701153 0.01010742 0.00125084
H 2.64801669 16.97118775 1.57983125 -0.02101601 -0.01605921 -0.01698610
H -0.25675247 12.00619559 4.21481403 0.00586939 -0.01247582 -0.00948385
H 2.72135234 12.53724303 10.15729040 -0.01288027 0.02092452 0.01209686
H 5.38410009 17.57792505 7.63650819 0.01753902 0.03418133 0.00339383
H 4.82996636 14.71145029 9.56122965 -0.00938304 0.01462830 0.01195023
H 3.11521543 9.77374670 7.75627485 -0.02208623 0.01091829 0.02871172
H 0.12601127 15.03065138 2.22749044 -0.01948957 -0.01249018 -0.00204334
H 2.10362879 19.39433086 3.60149424 0.00008628 -0.01923690 0.00346941
H 7.14481345 13.36513717 7.17562078 0.01236709 -0.00706172 -0.01105112
H 1.13817578 18.54063579 10.47509954 -0.01429353 -0.00412743 0.01520925
H 18.25332662 16.59804056 3.85474671 0.01768470 0.00051062 0.02608720
H 5.11737088 11.14780097 1.70701064 -0.01131355 0.01900294 -0.01174520
H 19.57992167 13.28451228 7.56392264 0.01421182 0.00269105 0.00437156
H 1.93045064 17.53405247 9.18189089 0.00988246 0.01094832 0.01957733
H 5.13991145 15.72122940 4.23257084 0.01248579 0.00622181 0.00205178
H 3.62702747 10.07893511 1.58736695 -0.00165692 0.02014830 -0.01274864
H 0.33342834 12.44097837 8.33549554 -0.03890247 -0.00916535 0.01616067
H 0.20714466 17.44509083 9.39994851 -0.01877607 0.00475755 0.01357182
H 6.13330648 16.46954652 2.89745453 -0.00244768 -0.00745637 -0.00960340
H 3.52369312 11.53179168 2.48023807 0.02909965 0.01683960 -0.01668675
H -1.84183584 18.48668611 14.40993283 0.01422579 0.02564067 0.01487408
H 1.36987873 13.67128435 14.97747638 0.00452486 -0.01012922 -0.01117767
H 3.97064864 10.43976371 20.84665922 0.00471318 -0.00943896 0.00028349
H 0.80354032 15.26241314 20.43484961 0.00688743 0.01379108 -0.01198075
H 4.17901985 17.99653864 12.51790225 0.00809701 0.01576860 0.00615338
H 2.22511197 13.14389386 17.08384934 -0.01693783 0.01379004 -0.01308761
H -1.73540455 11.42943407 22.46573405 -0.00656086 0.02511230 -0.01233017
H -0.05486306 15.62928281 18.39662414 0.01889615 -0.01622338 -0.00882683
H 2.65170364 16.47021092 22.27848756 0.01917828 -0.02171475 0.00081042
H 2.09115998 11.90060237 19.15819337 0.01616505 -0.00512764 0.00602360
H -0.38687883 12.74849865 12.81505831 -0.02573090 -0.00155214 -0.00996610
H 0.07238999 17.22786837 16.31175370 0.01110553 0.00686794 0.01724395
H 1.25362377 15.25055012 11.39169165 -0.00788284 -0.02825547 -0.00583100
H -1.69956550 10.17406694 17.68312343 -0.00229714 0.02745865 -0.01090080
H 1.24081235 14.11745480 23.69570548 0.00947417 -0.01586719 0.00187193
H 3.68769971 18.82402328 17.59078052 0.00126958 0.00696974 0.00343951
H 1.30141583 16.83615575 13.25020169 -0.01336129 0.01701949 0.01487742
H -1.75427551 11.93894508 16.05653390 -0.00659223 -0.00052421 0.02383259
H 1.02064603 12.56630546 21.85692690 0.01056997 0.00006120 -0.02748272
H 3.56460762 17.36943548 19.65511957 0.00593650 0.01602251 0.01681774
H 3.59756594 14.55310424 21.44738783 -0.01415459 -0.01014491 -0.01741996
H 1.25562496 9.77184716 19.98025277 0.02721511 0.00794158 0.01073158
H -1.29612994 14.50488400 13.66947674 0.00014211 0.00910321 -0.00293949
H 0.79019876 18.97690573 15.45501736 -0.01870362 -0.01210785 0.03806283
H 4.25466946 13.76427959 19.55395403 -0.01018037 -0.02184447 0.03283403
H -1.34067587 18.06303469 21.90126874 0.02180501 -0.01276757 0.00492501
H 17.39190664 15.63783864 16.29335259 -0.01312771 -0.02599922 0.00743316
H 3.53093705 11.69016434 14.02446327 0.00709064 -0.02189057 0.01635529
H -1.03859567 13.64436275 19.20661822 0.00051673 -0.02849960 0.00379741
H 0.16858264 18.83119308 22.01692850 -0.02069712 -0.00495688 0.00818923
H 4.73074235 16.40275151 15.47119485 -0.00706084 -0.02116739 0.00797315
H 2.59224224 10.36077890 13.06222045 0.03294792 0.02773165 0.00911746
H 17.96616024 13.65576277 19.63060089 0.01206546 -0.00662782 0.00315041
H 0.13430112 17.40299597 20.90013267 0.00381349 -0.00555980 0.00873112
H 2.99441145 16.67851401 15.41808444 0.00413432 0.00607390 -0.00483652
H 1.78899694 11.54582750 14.09762380 -0.00802608 -0.00201196 -0.01325746
H -3.29241807 18.65302835 26.67380634 0.01703331 0.01125862 0.00149453
H -0.23794441 14.01138807 26.70085867 -0.01835831 0.02285002 -0.00299091
H 2.58294322 10.54168917 32.47845455 0.02436061 -0.02458640 0.01197848
H -0.55488744 15.11815791 31.86363675 -0.01848864 0.01175553 0.02407095
H 2.61832549 18.15217008 24.06853385 0.00700341 0.00739356 0.02352749
H 0.90443286 13.00862860 28.55250718 0.02268429 -0.00479993 -0.00310292
H -3.33730279 11.60224836 34.41128137 0.01042382 -0.00579639 0.02269450
H -1.77724546 16.24770929 30.19521741 0.01115876 0.00851070 0.00425966
H 0.89421466 16.40969678 34.06327244 0.00378972 -0.00599442 -0.00965431
H 0.76566555 11.69705726 30.58185282 -0.00529557 0.01929835 0.00180859
H -1.78273485 12.76644387 24.63585307 0.00774924 -0.00459132 0.00080636
H -1.75300590 17.51037789 28.27525587 -0.00702773 -0.00007507 0.01300051
H -0.28802063 15.51634073 23.46293983 -0.01299015 0.00640285 -0.00703089
H -3.11784589 10.25718910 29.37074678 0.00740614 0.00048394 -0.00884477
H 4.05665608 13.73848416 0.03307288 0.01039156 0.00489250 0.01246697
H 2.30210557 18.75067449 28.96468587 -0.01600615 -0.00137496 -0.01232343
H -0.31682913 17.26111250 25.26990602 0.00233579 0.00732416 -0.02577276
H -3.14456296 11.99059170 27.59096453 -0.01043971 0.01736368 0.00842687
H -0.41472792 12.00556058 33.35531405 -0.00109509 -0.01542056 -0.01700458