2160
Time=90000.00000003 pbc="T T T" Lattice="20.70060291 0.00000000 0.00000000 0.00000000 28.81824376 0.00000000 -4.72498592 0.00000000 35.49875603" energy=-13803.88278198 virial="-98.51863441 -1.80463758 45.56667117 -1.80463758 -51.62181133 -25.37427699 45.56667117 -25.37427699 -92.14730043" stress="-0.00234349 -0.00013395 0.00209501 -0.00013395 -0.00017717 -0.00119491 0.00209501 -0.00119491 -0.00209299" Properties=species:S:1:pos:R:3:vel:R:3
O 0.74652229 8.56256333 2.21941626 -0.00390940 0.00235866 -0.00930965
O 1.82181495 3.76435949 3.48935079 -0.00038071 -0.00369220 0.00172831
O 4.51791219 0.77804794 9.38066351 -0.00110385 0.00411205 -0.00154144
O 3.38992996 5.77146579 8.33173721 -0.00579997 0.00156252 0.00088844
O 1.17295818 4.87689642 9.13277755 0.00037596 0.00026039 0.00118517
O -0.04813300 9.68588134 8.39316643 0.00275614 0.00057551 0.00602793
O 3.92395045 4.70960631 2.39019200 -0.00351898 -0.00169796 0.00112153
O 5.73623268 28.55970782 3.75764026 -0.00167730 0.00041658 0.00387669
O -0.83298584 8.55629487 14.03766241 -0.00197073 -0.00643363 0.00186697
O 0.34633108 3.66749319 15.41668368 -0.00273895 0.00142403 0.00480702
O 3.09791603 1.25605717 20.99320192 -0.00335905 -0.00178539 -0.00182953
O 1.81629705 5.61954670 19.78382623 -0.00014395 -0.00439404 0.00039529
O -0.14808558 4.81641028 21.62757580 0.00208137 0.00264925 0.00126167
O -1.80655441 10.05915086 19.84129969 0.00354860 0.00054369 -0.00189725
O 2.43957468 4.52800425 14.07772014 -0.00680161 0.00259162 -0.00098051
O 3.91596909 28.55107028 15.62543091 0.00703250 -0.00428473 0.00335614
O -2.27493315 8.72729782 26.12613803 0.00625690 0.00811249 0.00275611
O -1.11479946 3.85006791 27.21656443 -0.00026299 -0.00341252 0.00124989
O 1.33676983 0.80322038 33.29566763 -0.00343576 -0.00282268 0.00160112
O 0.33168165 5.63586244 31.66200144 -0.00097936 0.00117394 -0.00228988
O -1.96617028 5.06616854 32.93952754 0.00269714 0.00245016 -0.00140345
O -3.57849631 9.80606314 31.70033058 0.00056261 -0.00001810 -0.00167090
O 0.82938855 4.69066162 25.79237638 0.00147789 -0.00663879 -0.00153920
O 2.52285213 0.03648493 27.38813989 -0.00714956 -0.00449941 -0.00020976
O 0.79651669 18.20265184 2.34749522 0.00386868 -0.00076071 0.00222784
O 2.06529440 12.99019329 3.46273382 0.00009878 0.00089585 0.00173329
O 4.78407924 10.56430395 9.52422176 0.00232654 0.00126184 0.00063189
O 3.73487173 15.38124376 8.32772614 -0.00298566 0.00022353 0.00676579
O 1.55509712 14.47633237 9.50774066 0.00482577 -0.00526144 0.00114117
O -0.20165810 19.16285251 8.20779999 -0.00267541 -0.00017104 0.00012157
O 4.06716560 14.29301408 2.36147788 -0.00734049 -0.00159840 0.00270964
O 5.69704827 9.34284086 3.51723403 0.00326042 0.00011472 -0.00046490
O -0.55667454 18.25598446 14.06993270 0.00150481 -0.00525154 0.00164594
O 0.66860186 13.39200789 14.85190996 0.00329955 0.00181797 -0.00312976
O 2.66184870 10.73827399 21.39845415 0.00067594 0.00035710 0.00527472
O 1.79024699 15.61170485 20.34226197 0.00149018 -0.00200995 0.00624201
O -0.26173343 14.35178256 21.37185794 0.00572817 -0.00040256 -0.00118682
O -1.67700805 19.47722984 19.85875165 0.00200317 0.00279940 -0.00386105
O 2.66976137 14.83521101 13.87168828 -0.00140202 -0.00042475 -0.00284599
O 4.16144571 9.46214235 15.32983489 0.00562232 0.00263910 -0.00080688
O -2.44569839 18.25520856 26.22260384 -0.00651149 -0.00176773 -0.00655106
O -1.18777712 13.55056546 27.17202281 -0.00002345 0.00357967 0.00315851
O 1.44788308 10.64713603 33.10823993 -0.00134973 -0.00315311 -0.00480314
O 0.08831750 15.76423120 32.40792117 -0.00679773 0.00989105 -0.00904808
O -1.73247560 14.33609398 33.35541358 0.00846838 0.00169531 0.00088015
O -3.67156686 19.33263837 31.74106643 -0.00479900 0.00017291 -0.00463646
O 0.78652695 14.68336040 25.92071914 -0.00293140 -0.00642961 -0.00222672
O 2.41831675 9.58543055 26.83132077 0.00368093 -0.00126364 -0.00257638
O 0.73881351 27.59256091 2.63483203 0.00314537 -0.00489058 -0.00098492
O 1.74064078 22.62172867 3.64119961 0.00124172 0.00699548 -0.00052528
O 4.65026751 20.16144090 9.11141419 0.00118045 -0.00042330 0.00363299
O 3.37952948 24.84446647 8.15466297 -0.00188306 -0.00633774 0.00329244
O 1.42406691 24.07906231 9.59120639 0.00212992 0.00367916 -0.00029342
O -0.36464500 28.69819664 8.08114648 -0.00098085 -0.00183154 0.00589753
O 3.81714543 23.65093089 2.25453897 -0.00082800 0.00410805 -0.00157496
O 5.70979542 19.20986128 3.72616344 0.00212247 0.00834515 0.00039245
O -0.96009601 27.65862683 14.32153045 -0.00046336 -0.00347368 0.00057554
O 0.59539800 23.05757967 15.30032028 -0.00101112 0.00058886 0.00277603
O 3.12804068 20.49108008 21.09866363 -0.00144794 0.00179545 0.00756281
O 1.89343632 24.65381424 20.15306669 0.00069302 -0.00048746 0.00133525
O -0.36515322 24.08182858 21.31137174 0.00316164 -0.00120959 0.00342420
O -1.88165211 0.34216164 20.11544224 -0.00006285 -0.00438386 -0.00026183
O 2.47326850 23.76603899 13.79862884 -0.00129814 -0.00144551 -0.00316533
O 4.12434504 18.96591077 15.63333741 -0.00126364 -0.00090535 0.00086369
O -2.28314791 27.95072388 25.82492479 0.00356803 -0.00017770 0.00286643
O -1.17198122 22.85361824 26.84592126 -0.00218409 0.00407565 0.00737946
O 1.13568180 20.15706561 32.97785810 -0.00350875 -0.00306289 -0.00102981
O 0.19258523 25.05918705 31.87424560 0.00363159 0.00580425 0.00330678
O -1.99280386 24.44841736 33.10023537 -0.00144419 0.00373457 -0.00253592
O -3.47568978 0.26115615 31.84224661 -0.00598220 0.00183072 -0.00200063
O 0.66431991 24.15731083 25.70736021 0.00253103 0.00463036 0.00701788
O 2.42633718 19.20364091 27.50737018 -0.00430686 0.00145204 -0.00029385
O 7.90749054 8.56068470 2.09061021 0.00024305 0.00436609 -0.00279780
O 9.03709819 3.51550449 3.33659379 -0.00199805 0.00885383 -0.00389615
O 11.71057448 0.86415600 9.69067398 -0.00153141 0.00704369 -0.00181365
O 10.24586273 5.95478582 8.51090801 0.00054272 0.00127840 -0.00169373
O 8.20017307 4.59309832 9.36057400 0.00668287 -0.00275111 0.00103065
O 6.69857961 9.16382717 7.94693739 0.00886775 -0.00420404 0.00164721
O 10.96056902 4.68742701 2.25190599 0.00705463 -0.00422227 0.00104611
O 12.36269492 0.16579823 3.82956053 -0.00120665 -0.00038659 -0.00101495
O 6.05721350 8.43541480 13.91134171 -0.00263575 -0.00235273 0.00119516
O 6.96352457 3.80784075 15.68528013 0.00000616 -0.00423774 0.00344212
O 9.90814387 1.01845231 21.37368789 -0.00001213 0.00218759 0.00324091
O 8.69078750 5.79457431 19.96850112 0.00055559 0.00004059 0.00379280
O 6.69480200 4.82284979 21.24691730 -0.00097678 -0.00013994 0.00385804
O 4.84167574 9.82781521 20.02824407 0.00223754 0.00111686 -0.00553519
O 9.37131300 4.36411022 14.31848373 0.00823604 -0.00023803 0.00434759
O 10.67346615 28.60987782 15.38787097 -0.00073605 -0.00716340 -0.00050368
O 4.84910413 8.79731712 25.79752661 0.00122955 -0.00421683 -0.00043812
O 5.61988392 3.94575049 27.04244549 0.00371333 -0.00385214 -0.00181852
O 8.50307756 1.09058740 32.90065030 0.00253617 -0.00306977 -0.00417147
O 7.25428872 5.72095590 31.75194459 0.00180770 -0.00238571 -0.00334669
O 5.03297334 4.90762495 32.89878431 -0.00284491 0.00559383 0.00368949
O 3.65665208 9.64162772 32.10169794 0.00000766 -0.00035239 0.00060660
O 7.83447127 4.74229965 26.04499379 -0.00024067 0.00408074 -0.00119704
O 9.38719685 0.03311886 27.07331281 -0.00111935 0.00541680 0.00021524
O 7.63480700 17.91079138 2.78964253 -0.00133701 0.00447209 -0.00598694
O 8.81490832 13.42648868 3.62532532 -0.00205869 0.00195940 -0.00347521
O 11.49283840 10.55238847 9.73528813 0.00426437 0.00200024 -0.00154779
O 10.43403947 15.42614044 8.46395861 0.00470097 -0.00021846 0.00747204
O 8.30052784 14.37109265 9.61931325 0.00456976 0.00117672 -0.00342774
O 6.96455577 19.27313905 8.21928551 -0.00433654 -0.00691403 0.00188999
O 10.89391836 14.31861537 2.41653802 -0.00373816 -0.00323943 0.00085634
O 12.40524764 9.62359289 3.59877061 0.00000105 0.00346069 -0.00732456
O 6.07889296 18.08412974 14.40379623 -0.00159584 0.00102544 -0.00157907
O 7.30967830 13.26754002 15.37143067 -0.00092696 0.00604034 0.00823228
O 10.00909695 11.10374746 21.18827700 0.00547820 -0.00513584 -0.00604254
O 8.57631445 15.43368798 19.79957954 -0.00319229 0.00081571 -0.00003744
O 6.59790696 14.80504738 21.27496548 -0.00193630 0.00517762 0.00365218
O 5.14251892 19.26314345 19.99015945 -0.00418714 0.00670639 0.00700332
O 9.37224452 14.31340741 14.37399542 -0.00001413 -0.00330507 0.00942356
O 10.87603324 9.70983430 15.50978170 0.00247020 0.00077031 -0.00352922
O 4.42064009 18.62612966 25.74260167 0.00206301 0.00081819 0.00453386
O 5.54178723 13.11387218 26.91498594 -0.00242648 0.00185106 0.00097534
O 8.31910131 10.74183049 33.18706008 0.00075360 0.00353376 0.00070833
O 7.14345882 15.52117212 32.25942837 -0.00233018 0.00511642 -0.00270765
O 5.04677812 14.36952916 33.26870980 0.00192555 -0.00062759 -0.01192165
O 3.30989048 19.10559161 32.01483253 0.00577013 0.00075344 -0.00307644
O 7.47996547 14.58971829 25.90223329 -0.00130070 0.00361100 -0.00166199
O 9.34267410 9.66023550 27.44427184 -0.00142804 0.00003214 -0.00388155
O 7.72858548 27.34751387 2.67392486 -0.00798660 0.00546688 -0.00471176
O 8.80928824 22.87305204 3.25154875 0.00239819 0.00568814 -0.01066327
O 11.56798483 20.29698135 9.24963973 -0.00286973 0.00541255 -0.00091654
O 10.39472344 25.05984985 8.36400930 0.00308792 0.00604853 0.00391835
O 8.06739009 24.16285934 9.38795893 -0.00628570 0.00059864 0.00021501
O 6.66438024 28.76665162 8.21046570 0.00240630 -0.00460211 -0.00017482
O 11.05694568 24.10215625 2.42112571 -0.00392251 0.00471483 -0.00075644
O 12.26687120 19.26358713 3.68162195 0.00238241 -0.00025243 0.00036268
O 5.90018197 27.46436905 14.27947023 -0.00389335 0.00400929 0.00197753
O 7.22945443 22.78473168 15.12686510 -0.00531507 -0.00336443 0.00083202
O 9.84088531 20.29919125 21.33684849 0.00231096 -0.00106755 -0.00374964
O 8.62671477 25.15550849 20.22602581 0.00651683 0.00428609 -0.00054629
O 6.71156471 23.82419849 21.53335840 -0.00349265 -0.00162753 0.00003921
O 5.03328951 28.68797563 20.00553091 0.00206225 -0.00369997 -0.00005159
O 9.47062227 23.74842932 14.15081417 0.00643933 -0.00262007 -0.00284568
O 11.08252013 19.24644958 15.54830345 -0.00527052 0.00219361 -0.00285726
O 4.56994848 27.91901117 25.90454569 -0.00552647 -0.00087558 -0.00634152
O 5.45940585 23.11539353 27.32299059 0.00152423 -0.00102454 0.00441493
O 8.19115953 20.26188879 33.20669556 -0.00047556 -0.00086295 -0.00537698
O 6.99508879 25.20606417 32.17457076 0.00201172 0.00343003 0.00128859
O 4.86606654 23.99135571 33.09176157 -0.00041560 -0.00156429 0.00234971
O 3.38656598 0.15066050 31.77143759 0.00746517 0.00225835 0.00633564
O 7.77734426 23.99836022 26.10007051 -0.00337149 0.00363782 -0.00039698
O 9.27892961 19.12592220 27.38366141 0.00057742 0.00044942 -0.00087668
O 14.47592064 8.56610449 2.43384906 0.00606536 0.00392973 -0.00065963
O 15.82193386 3.43728789 3.32367742 -0.00511391 0.00345450 -0.00544603
O 18.15103408 0.84443876 9.36171824 -0.00324354 -0.00390795 0.00925582
O 17.19083554 5.85203219 8.28638662 -0.00002871 0.00924593 -0.00468695
O 15.11466263 4.74687598 9.62961461 0.00285445 -0.00279713 -0.00485848
O 13.52722777 9.87486086 8.37063777 -0.00598904 -0.00022436 0.00114240
O 17.63639665 4.96307728 2.17792242 0.00135485 -0.00692362 -0.00043779
O 19.42479288 28.51222742 3.69321750 -0.00135455 0.00198776 -0.00170299
O 12.93200321 8.53369242 14.47595587 -0.00706331 -0.00289485 0.00185462
O 14.21815861 3.71995400 15.53143450 0.00152247 -0.00584306 0.00243279
O 16.82797349 0.88857759 21.52684607 -0.00142294 -0.00096428 0.00020129
O 15.48209268 6.10661396 20.19780248 -0.00114257 -0.00022549 0.00694407
O 13.52388623 4.76480861 21.35288475 0.00209242 -0.00121914 0.00299452
O 11.89535934 9.88867142 20.14608547 -0.01349594 0.00894261 -0.00136725
O 16.12512859 4.57051651 14.04461720 -0.00122119 -0.00125334 0.00320358
O 17.76880516 0.07543924 15.60156794 -0.00091019 -0.00556879 -0.00902047
O 11.30823786 8.47331455 26.23021987 0.00136874 0.00082411 0.00877176
O 12.72088801 3.51489935 27.12141046 0.00336698 0.00374330 -0.00091184
O 15.09190723 1.18778109 33.20289473 -0.00325148 -0.00035868 0.00415832
O 14.06132117 6.00780892 32.01925408 -0.00003921 0.00833434 -0.00838808
O 11.79301516 4.90674460 32.93385420 0.00329331 -0.00448894 0.00199382
O 10.37210379 9.69871121 31.77071296 0.00319474 0.00004654 -0.00105994
O 14.58710605 4.92127777 25.89935312 -0.00550116 0.00481045 -0.00120116
O 16.41678864 28.72075148 27.37787702 -0.00777507 -0.00632312 -0.00183368
O 14.47539761 18.35063737 2.61453081 0.00285885 -0.00256623 0.00235653
O 15.69413670 13.42809416 3.42573772 -0.00365513 0.00719442 -0.00357045
O 18.45122420 10.85726093 9.21841793 0.00358658 0.00389810 0.00160611
O 17.24311933 15.36053169 8.48632901 -0.00630837 -0.00416433 0.00458367
O 15.21069495 14.41229207 9.99869966 0.00367760 0.00091081 -0.00093665
O 13.50791512 19.12448821 8.01247174 -0.00398165 0.00212920 -0.00144412
O 18.06218756 14.05359399 2.57370312 -0.00459741 0.00122210 -0.00255786
O 19.37167827 9.57069778 3.62672406 0.00060443 -0.00141849 0.00041968
O 13.09422008 18.32207115 14.45879174 -0.00077364 -0.00252681 -0.00572160
O 14.20296250 13.47388040 15.23401049 -0.00305176 0.00051261 0.00026124
O 16.65663062 10.48956027 21.28704876 0.00178739 -0.00139478 0.00020087
O 15.61788071 15.54712165 20.52691470 0.00295755 -0.00284740 -0.00213322
O 13.54046324 14.20667742 21.52328290 -0.00478059 -0.00271613 0.00687363
O 11.99234257 19.09940146 19.98613226 0.00385226 -0.00301599 -0.00774616
O 16.49255263 14.45142679 14.08744038 -0.00647601 0.00081874 0.00191937
O 17.86969741 9.56321622 15.29231987 0.00052852 0.00512441 -0.00231353
O 11.33816279 18.32942645 25.97856076 0.00508814 -0.00155109 -0.00415815
O 12.44529564 13.50906180 27.22272780 0.00536981 0.00334601 0.00127491
O 15.16490790 10.62193363 33.17739387 -0.00150721 -0.00534941 0.00718735
O 14.06116262 15.30838742 31.71557573 -0.00145944 0.00099682 0.00492413
O 11.96659076 15.12821985 33.36810808 -0.00644343 -0.00174465 0.00291066
O 10.25676522 19.42802623 31.94960036 -0.00035098 -0.00204007 0.00093029
O 14.55492120 14.46725612 26.00763909 0.00096129 0.00433282 -0.00346845
O 16.32635024 9.81580809 27.34082543 -0.00119471 -0.00375509 -0.00033193
O 14.51773987 27.87436748 2.50034141 0.00506103 -0.00497171 -0.00015591
O 15.97860578 22.85091159 3.22413141 -0.00065736 -0.00728034 -0.00382368
O 18.54796031 20.04481671 9.56280801 -0.00148185 -0.00101837 0.00216272
O 17.01307721 25.26760096 8.61133818 -0.00175725 0.00129258 -0.00460465
O 14.90075164 24.23687250 9.50280140 0.00103219 -0.00430865 -0.01042872
O 13.48292021 28.64471350 8.05314019 0.00313008 -0.01051450 0.00289202
O 17.83897425 23.97921746 2.12820731 0.00102577 0.00354805 0.00309092
O 19.40540817 18.87633939 3.64392158 0.00104203 0.00189243 0.00362210
O 12.93628993 27.84464987 14.11340872 0.00385441 -0.00488923 -0.00134245
O 14.29882319 22.67222553 15.36531419 -0.00306649 0.00499526 0.00293218
O 16.98203830 20.07564546 21.40305829 0.00072452 0.00197955 0.00368245
O 15.67468400 25.14338011 20.22972142 -0.00181219 0.00194950 -0.00341770
O 13.54940271 24.24287844 21.33549843 0.00259312 0.00178776 -0.00153492
O 12.06177219 0.03300012 20.00309372 0.00200600 -0.00051844 -0.00230743
O 16.28569320 23.77018970 14.02233385 -0.00005054 0.00103051 -0.00604490
O 18.02454809 18.99371462 15.77695785 0.00033466 -0.00168474 -0.00451827
O 11.54811911 28.06742099 25.74297337 0.00474750 -0.00403438 -0.00387776
O 12.48504308 22.97173564 27.16051973 0.00092533 0.00032468 -0.00162460
O 15.05733343 20.40080207 33.10103068 0.00007867 -0.00323771 -0.00339597
O 13.89358056 25.34106589 32.23312438 0.00461998 0.00073752 0.00096635
O 11.97777292 24.05991840 33.46103620 0.00004780 -0.00414979 -0.00033171
O 10.43882594 28.56938545 31.76109676 -0.00118428 0.00260139 -0.00461843
O 14.45641260 23.96621933 25.92850714 0.00081304 0.00349037 -0.00044906
O 16.02275389 19.38934888 27.32794120 -0.00620585 0.00173106 -0.00569724
H -0.12452032 8.90964739 2.52667969 0.01621809 -0.01035330 -0.01598367
H 2.74732136 4.05481091 3.25555513 0.00581821 0.00022239 -0.02760734
H 5.43530340 0.41220209 9.10080670 -0.01556502 -0.01444135 0.00566273
H 2.51768736 5.38457181 8.57481215 0.00117052 -0.00991107 0.00731755
H 5.88700044 8.07470030 0.53170400 0.01527711 -0.00283610 -0.00052251
H 3.78999353 3.28965812 5.27654531 0.00789447 -0.00134725 0.00866883
H -0.55625590 1.00127061 11.03272785 0.02233813 -0.01436349 -0.00438698
H 1.40952766 6.08395014 6.53254893 0.01399820 0.00271033 0.00113576
H 3.99962218 6.12048423 10.67225771 -0.00018728 -0.01955448 -0.02341110
H 3.81017487 1.60776899 6.86895725 0.01629123 0.01938069 0.00687021
H 1.05497648 2.88534966 1.44296806 0.00529276 -0.00389440 0.03134031
H 1.49299717 7.70005689 4.64260785 -0.02096787 0.00398601 0.00531606
H -2.07710383 5.14100377 35.29351800 0.03302601 -0.02056599 -0.01063029
H -0.22779320 0.57113123 5.85469085 0.00608379 -0.00305350 -0.00775159
H 2.57070998 4.07895653 11.82469907 -0.00439871 0.02157549 -0.00501886
H 5.61959419 8.70101447 5.66910961 -0.00763260 0.01606453 0.00682715
H 2.64810378 6.97485378 1.66086908 -0.01600125 0.02928267 0.00690798
H -0.06295278 2.07342923 3.91885579 0.01756642 0.02173722 0.00850408
H 2.41177240 2.39317058 10.06499179 0.01097502 -0.01316740 0.00440248
H 5.54053027 7.04120236 7.40621310 -0.00106478 0.01044398 -0.00653985
H 4.99081709 4.47774301 9.53430446 -0.00086183 0.00955306 0.00913655
H 2.79864295 28.73987470 8.09079610 0.00352233 0.00698437 -0.00227034
H 0.13808703 4.89593564 2.34206190 0.01281529 -0.00632625 0.01585238
H 2.51597630 9.46985126 3.63254759 0.01204046 -0.01094874 0.00855155
H 6.85903876 4.22260343 6.90544195 -0.01129478 -0.00248768 -0.00608915
H 1.75707916 7.45806047 9.51447088 -0.02289497 -0.00943626 -0.01003937
H 18.33730356 6.21513967 4.46172427 0.00653840 0.01149498 0.03857090
H 5.31916403 0.76458698 1.57471977 -0.00559144 -0.01349825 0.00691444
H 19.37687180 2.92385121 8.56562466 -0.01758819 0.01256627 0.00298921
H 0.45878013 8.27317050 10.34450271 -0.00938158 -0.00953875 0.00337186
H 4.78926157 6.92825800 3.39168906 0.00246245 0.00673769 0.02248328
H 3.54873504 0.67875637 1.58999764 0.00522966 -0.00873651 0.00187749
H 0.44959305 2.79190857 7.96449052 0.02834131 -0.02164941 -0.00529128
H 2.12047633 8.98472608 10.53290870 0.00872287 0.00739148 -0.01117114
H 4.85078274 5.51503533 4.43428349 -0.00051031 -0.00646540 -0.01586609
H 4.47363329 2.10803229 2.48333610 -0.00561576 0.00327611 0.02122309
H -1.68939573 8.94671853 14.33249736 0.01021884 -0.02163172 -0.01479488
H 1.28009153 3.93829540 15.06764415 -0.03597142 0.02100079 0.01210035
H 3.97850276 0.89107552 20.76432362 0.01201866 -0.00970143 0.00240830
H 0.93168317 5.47656558 20.22866030 -0.00512544 0.05304719 -0.01308942
H 4.01010253 7.68136231 12.58771285 0.00371428 -0.00933062 -0.00276369
H 2.26067276 3.30276360 17.11359150 0.03039509 -0.00063986 -0.02393960
H -1.67689267 1.79518014 22.89147489 -0.00973745 -0.00849641 -0.00113096
H -0.29610363 6.41075899 18.34976349 -0.02853358 0.00590351 0.00286674
H 2.56638476 6.48520893 22.69171438 0.00295931 -0.01194607 -0.01268027
H 2.26620782 1.58171105 18.89083822 -0.00150906 -0.00012108 0.00581926
H -0.34766715 2.76124503 12.88320157 -0.00096275 -0.00107837 0.02433519
H -0.15960645 8.05157833 16.38935383 -0.00018925 0.01360221 -0.02063348
H 1.06011626 5.25826149 11.68628012 0.01661703 0.02266674 -0.00966264
H -1.70890798 0.52340857 17.96422368 -0.02652418 0.03928726 -0.00457322
H 1.12930707 4.22662173 23.72628288 0.01898808 -0.01188922 -0.00564303
H 3.91281329 8.72672947 17.55304724 -0.00262312 0.01701097 -0.00469532
H 1.13746229 7.03935934 13.46132365 0.02327677 -0.01114259 -0.01793082
H -1.69018090 2.28910140 16.13487087 0.02139851 0.00817942 0.00654092
H 1.00748099 2.45583069 21.86193143 -0.00077315 -0.00738548 -0.02503969
H 3.70038285 7.42046851 19.49740371 0.00372270 -0.00367014 0.01293558
H 3.46817534 4.74121809 21.53312576 0.01297729 -0.00297171 0.01393880
H 1.27632866 28.58284977 19.84579504 -0.01410523 -0.00864712 0.00081852
H -1.44108587 4.41376921 14.05694506 0.00764445 -0.00732619 0.01122747
H 1.05754777 9.56504562 15.13254763 -0.01536348 0.01834815 0.01179971
H 5.53946000 3.83612429 18.98578293 0.03111503 0.00750450 0.01077460
H 0.67653807 8.59348038 21.35446013 0.01041973 0.02557479 0.00138100
H 16.58724900 5.87136964 15.97167907 0.00776360 -0.01838186 0.00425939
H 3.52985142 1.15946958 13.58209558 -0.01589590 0.00591949 0.02057241
H -1.01769271 3.50278930 19.44458149 0.00348831 -0.00842907 0.00311465
H -0.94490461 7.80798263 20.84358759 -0.00487583 0.01904800 0.02293295
H 4.19233484 4.82924058 16.35069579 -0.01268916 -0.00003045 0.00941954
H 1.66792981 0.95054705 13.52387236 0.00676808 -0.01546888 0.01038599
H 17.91377713 3.69263346 19.96310551 -0.00281469 0.00048196 0.01822806
H -0.80085016 8.99354866 22.13611223 0.02128038 0.01346208 -0.00950397
H 4.85692892 6.11660474 15.36571660 -0.01338810 -0.01635441 -0.01856727
H 2.40671930 2.03856004 14.73417981 0.02191117 -0.01314388 -0.00105226
H -3.16301783 9.24627994 26.39116515 -0.00133675 -0.01109809 0.00298017
H -0.21402284 4.11755582 26.82408985 0.00319948 0.01062091 0.02119875
H 2.17288171 0.43590437 32.89387402 -0.00055625 -0.00091012 0.01633197
H -0.58728091 5.44535197 32.07774102 0.00242878 -0.03179279 -0.02453065
H 2.75775130 8.19837147 24.39508474 -0.00472783 -0.00078926 0.01991850
H 0.83999728 3.33400727 28.90045303 0.00287324 0.02259491 0.01295441
H -3.73943208 1.29325818 35.02381510 0.04230185 0.03682206 -0.01340027
H -1.57321757 6.08440423 30.06591387 -0.00051871 -0.01232335 -0.02068275
H 1.01164900 6.45140634 34.28139191 0.00490713 0.00293483 0.01914235
H 0.73927275 1.73161559 30.69476851 0.00486086 -0.01618348 -0.00182400
H -1.73004315 3.26692734 24.82958254 0.00984700 -0.03899061 0.00764721
H -1.75181267 8.06183274 28.38178998 0.02887048 -0.01201379 -0.00719169
H -0.24094121 5.68790252 23.36080809 0.00531643 -0.04181443 -0.02934492
H -3.21356566 0.59863136 29.50474414 -0.01456481 0.01138863 -0.00939938
H 4.10975692 4.14616251 0.14106525 -0.00991557 -0.00307499 0.01637648
H 2.34642561 8.92335462 29.27557447 0.00598620 -0.00739819 -0.01905291
H -0.35953182 7.16296487 25.35680074 0.00861343 0.01081270 -0.01391631
H -3.21706806 2.13089237 27.65831677 -0.02896779 0.01801086 -0.00990203
H -0.75585785 2.34900970 34.04075468 0.01289933 0.00824419 0.02198651
H 2.45732574 7.29985092 30.94858130 0.02222975 -0.00828504 -0.02374472
H 1.91704527 4.41528423 33.33623203 0.01954525 -0.01531605 -0.01221244
H -0.31989916 0.23853604 31.87176234 -0.02389459 0.01319374 -0.00294282
H -2.82048162 4.88764947 25.96964218 0.01406865 0.01585814 -0.01047053
H -0.74259047 9.62407752 27.25359373 -0.01016950 -0.00255834 -0.00645955
H 2.55021770 3.01811341 31.85542435 0.02426631 -0.00211202 0.01194914
H -1.16870895 8.44103093 33.44637632 -0.02574531 0.00089860 0.00906855
H 16.61002477 5.90470764 28.21338418 0.00891149 -0.00143134 -0.01269790
H 0.29406676 0.32931181 25.17814136 -0.00738385 -0.01365454 0.02557534
H -2.74781270 3.58106190 30.83928928 0.01247985 -0.00994270 0.00422149
H -2.53653760 7.37424742 32.70895884 0.01592075 0.01275511 -0.00733242
H 1.33149370 5.97591238 27.99688599 -0.00461025 0.01182486 -0.00199666
H 0.46253841 1.98108803 26.03655184 -0.01124451 0.00156497 0.01124019
H 16.36804479 3.29211727 31.84975134 -0.01354129 0.02003145 0.01017584
H -2.83367847 8.65714908 33.96721887 -0.00805370 -0.00362426 0.01287400
H 3.16852821 5.92849332 27.71859986 -0.03684957 -0.00202380 -0.00712888
H 1.96843814 1.29413006 25.20573406 -0.00613001 0.00511030 -0.02744079
H 0.00378092 18.41226012 2.80388825 -0.01492980 0.02601783 0.00605172
H 2.95445933 13.46137639 3.21826854 -0.01430394 -0.01951020 -0.00197562
H 5.69170628 10.10270812 9.31658610 -0.00231052 -0.02373763 0.00128843
H 2.89997974 14.83478322 8.59301383 -0.02093145 0.00434664 -0.01854831
H 5.87278807 17.98985792 0.87208442 0.00550568 0.00904914 -0.02976455
H 3.96678729 12.75436492 5.22713786 0.02927350 0.00090151 -0.02452017
H -0.34027654 10.95770088 10.99583512 -0.01662989 -0.00194558 0.01388517
H 1.82807645 15.45512607 6.42113910 -0.00184201 -0.01521477 0.00118477
H 4.08865652 16.42736218 10.71728976 0.00641982 0.00408053 0.02611880
H 3.80065719 11.65139431 7.33357631 0.00759010 -0.00782930 -0.00795409
H 1.23606530 12.58324503 1.25040578 0.02046269 -0.00437955 -0.00807536
H 1.66248205 17.03066303 4.77056986 -0.00806343 0.00292065 -0.01127987
H -1.96924170 14.96414252 35.46026850 0.00900512 0.00757138 0.00200194
H 0.15882950 9.89734297 6.23972290 -0.02569322 0.01833886 0.01458509
H 2.77379834 13.80654179 11.89542802 0.02296488 -0.00983065 -0.00563855
H 5.38821508 18.78533208 5.71072897 0.03177373 0.00113665 0.02211356
H 2.63602287 16.70357696 1.80845438 0.00486128 -0.00090601 -0.00570464
H -0.03759831 11.52306425 4.32216165 0.00629505 0.00354129 0.01538434
H 2.72857489 12.05073628 10.16358717 0.00204017 -0.00161861 -0.02326315
H 5.64754593 17.14073427 7.62541811 -0.00519366 0.00513815 -0.01776867
H 5.14040715 14.36665601 9.74419926 0.00597989 -0.01150253 0.00150250
H 3.12996473 9.48884144 8.18217287 0.01589143 0.02524502 -0.00237052
H 0.35004889 14.20631460 2.32643113 -0.01057016 -0.00299076 -0.00731130
H 2.66440529 19.06928150 3.58590709 0.03913054 -0.00279448 -0.01507585
H 7.60958952 13.30342714 7.44425009 -0.00641630 -0.00231257 0.01634626
H 1.99981111 18.28675462 10.22566882 0.00217722 -0.00720297 -0.00730913
H 18.70851092 16.31583312 3.65858671 -0.00484253 -0.02263286 -0.01683404
H 3.07268066 10.86453911 2.18127123 0.01619523 -0.00493073 -0.03121153
H 0.61867506 13.34169597 7.15029706 0.00425811 -0.00580188 -0.01136785
H 1.26787141 16.95631652 9.31954568 0.01264535 0.03146811 0.00378103
H 6.63744095 15.57182158 3.93352435 -0.01395404 -0.00294604 0.00470219
H 4.53494581 11.80592497 2.65706755 -0.00801320 0.00788816 0.00540565
H -0.90705562 12.97231832 7.92608144 -0.01206708 -0.00169959 0.01194820
H 0.33509525 17.98847344 10.38452748 0.01931572 0.00588812 0.00828618
H 5.18092236 16.54432383 3.51503596 -0.00137834 0.00914377 -0.00763614
H 4.70936444 10.44607623 1.46780755 -0.00534983 -0.01529477 -0.01600040
H -1.46077072 18.67564696 14.29978313 0.02105685 0.01842895 0.01623621
H 1.53338372 13.80494047 14.68291312 -0.00562231 0.00704144 -0.01132916
H 3.54426489 10.30724042 21.05609581 -0.01649351 -0.03085288 0.00461578
H 0.97835637 15.07240428 20.36090248 -0.00268907 0.02729323 -0.00003078
H 4.15263116 17.86502561 12.69782806 0.00753118 -0.00204036 -0.00449553
H 2.56030661 12.85402463 16.60200011 -0.03356554 0.00986317 0.01245739
H -1.86069491 11.40172655 22.62869378 0.00190805 -0.02576511 0.00761896
H -0.11467891 15.73193333 18.42438607 -0.00926501 0.02104002 0.00043589
H 2.38482345 16.35161006 22.39614182 -0.01270321 0.00933050 -0.00894681
H 2.19700208 11.82510376 18.84072466 0.04265845 0.00249639 -0.02783828
H -0.25645128 12.49900064 12.93243951 -0.00198634 0.00808228 -0.00803085
H 0.03078227 17.18052753 16.38314398 0.00296023 0.00807632 -0.00510512
H 1.36059314 14.97993951 11.42935099 -0.00158605 -0.01048894 -0.00271887
H -1.49919353 10.46537262 17.76880658 0.00104473 -0.00545539 0.01562624
H 0.95836524 14.08437708 23.91564504 -0.01063940 0.01772435 -0.00242925
H 3.69573118 18.76501309 17.77332011 0.02006739 -0.00049434 -0.00811863
H 1.38130556 16.39995521 13.46267615 -0.00170883 0.00457101 0.00109898
H -1.40979442 12.06343386 15.65395458 -0.01035827 0.00210440 -0.00465798
H 0.75564066 12.15806459 22.19919904 0.01495886 0.01109294 0.01618155
H 3.75146729 17.16412496 19.77355844 0.00545108 0.01373946 0.00291030
H 3.48539600 14.29895434 21.49153301 0.02340598 0.00692897 -0.01267027
H 1.34458500 9.81818437 19.65358683 -0.03225483 0.00389758 0.02601006
H -1.07799555 14.57539410 13.92140689 -0.00449883 0.02197208 -0.00549654
H 0.88915973 19.33055054 15.63203035 0.00379356 -0.00074116 0.00401487
H 4.42133948 13.47464088 19.36911532 0.02636831 -0.00704119 -0.02314558
H 0.66747877 18.16743197 21.71447979 0.00498808 -0.02094632 0.00751502
H -1.59311305 15.98076501 15.28314721 -0.00892856 -0.00018604 0.01375253
H 2.10859582 9.71720959 12.92958223 0.02769964 -0.00843450 0.00801725
H 17.78617654 13.28240785 19.90190553 0.02253062 -0.02675738 -0.01118439
H -0.54955261 17.15520192 21.10680077 -0.02014763 -0.00959892 -0.00368320
H 4.34633592 16.61075517 15.37520623 0.02300214 0.01473679 -0.00208190
H 2.02105840 11.23374363 13.68965688 0.01852119 -0.02161821 0.00210881
H -1.24923015 12.73761263 19.66970455 0.01955099 0.00886782 0.02619150
H -1.08576926 18.39504162 22.18736280 0.01950448 -0.01443624 -0.02819799
H 3.38112872 15.53215842 16.35195602 -0.01339245 -0.00978771 0.01500811
H 3.60979188 10.58000827 13.14393669 -0.00486040 0.01436177 0.01668043
H -3.32185318 18.60289329 26.47128044 0.01885206 -0.01152338 0.00342736
H -0.31139232 13.96763494 26.88218979 -0.02419900 -0.01664274 -0.00807790
H 2.30409463 10.22922009 32.75242226 0.02368761 0.00361905 -0.00832945
H -0.62145978 15.13041853 32.60172050 0.01985886 0.00030953 -0.01204491
H 2.38491676 17.98587798 24.12517325 0.00928774 -0.00925787 -0.01357146
H 0.77777920 12.92119390 28.87320596 -0.01648293 -0.01916117 0.00444415
H -3.53329549 10.86718421 34.84295117 -0.00761603 0.00240201 -0.00088508
H -1.76809344 15.90598944 30.63812010 0.00284555 -0.03638329 0.01054745
H 0.95686603 16.37918322 34.47753618 -0.00586307 0.00272554 0.00238204
H 0.73763382 11.21958935 30.50069130 0.00474289 0.01400284 -0.00021829
H -1.95521506 12.81275001 24.62422868 0.01873588 -0.01901235 0.00044730
H -1.83121861 17.62783742 28.84527660 -0.00176497 0.00633062 -0.02109073
H -0.36360330 15.11311577 23.71017299 -0.00453740 0.00249612 0.01247897
H -3.48775436 10.58899082 29.75841192 0.01074433 -0.02756339 -0.00225212
H 4.15132168 13.68521638 0.10565317 0.02094074 0.00923880 0.00966152
H 2.26583283 18.56100512 29.66200287 0.01432390 -0.00103701 -0.02835851
H -0.30373838 16.84629195 25.47356021 0.01935208 -0.00018907 -0.02141554
H -3.34609074 12.12956978 27.81386891 0.00855753 -0.00427160 -0.01730161
H -0.69538455 11.85513902 34.02248375 -0.00370553 -0.01975142 0.02199066