2160
Time=4000.00000000 pbc="T T T" Lattice="20.56675653 0.00000000 0.00000000 0.00000000 28.89554984 0.00000000 -4.71736479 0.00000000 35.38433345" energy=-13801.94855928 virial="-25.30172654 3.09838959 63.48038691 3.09838959 -2.71136027 -33.74498895 63.48038691 -33.74498895 30.24542485" stress="0.00192891 0.00014018 0.00334578 0.00014018 0.00174596 -0.00160726 0.00334578 -0.00160726 0.00341050" Properties=species:S:1:pos:R:3:vel:R:3
O 0.79486856 8.63966258 2.48913026 -0.00270833 0.00294069 0.00375896
O 2.03408557 3.72061540 3.38528616 -0.00331437 0.00787032 0.00219602
O 4.52696250 1.30307085 9.23362682 -0.00086244 -0.00212643 -0.00223834
O 3.30007545 5.92677437 8.45886790 -0.00032144 -0.00479325 -0.00051436
O 1.22282518 4.76473881 9.55206697 -0.00324556 0.00318880 0.00460939
O -0.25053619 9.63835794 8.02339567 0.00082869 0.00018237 0.00153092
O 4.14741455 4.81808391 2.55964296 -0.00126182 0.00082907 0.00401705
O 5.56729529 28.85366710 3.43202305 0.00645213 -0.00464281 0.00037532
O -0.64322058 8.71866786 14.13612299 -0.00414993 -0.00144652 -0.00437471
O 0.28161947 3.64060017 15.33565255 -0.00224285 -0.00054508 0.00081867
O 2.73329656 1.06646777 21.14089402 -0.00455334 -0.00199612 0.00327156
O 1.94546552 5.66640380 20.10191113 0.00229727 -0.00285816 0.00144714
O -0.32873536 4.94346216 21.24814463 -0.00314807 -0.00488718 0.00183807
O -1.78972514 9.47144099 19.95779086 -0.00300190 0.00222810 0.00199474
O 2.31031347 4.56805088 14.15725570 -0.00527367 -0.00195530 -0.00118845
O 3.85976253 0.04226777 15.34958442 0.00632287 -0.00130578 -0.00300722
O -2.30254922 8.35552230 26.27399862 -0.00256639 0.00236239 -0.00013599
O -1.20423931 3.85181832 27.00195279 -0.00221579 -0.00187885 -0.00095512
O 1.37308060 1.19439096 32.99845646 -0.00078806 -0.00086238 0.00010481
O 0.35078132 6.15274698 32.08470048 -0.00231067 -0.00128421 -0.00119234
O -1.81492325 5.10782581 33.08161354 -0.00628875 -0.00058424 0.00888873
O -3.36132173 9.63599506 31.89378104 -0.00006776 0.00307580 0.00525119
O 0.89142887 4.65483787 25.93588320 0.00648803 0.00239752 -0.00097701
O 2.29434082 0.07806822 27.16805441 -0.00301491 -0.00077604 -0.00276239
O 0.93881599 18.35609027 2.37557235 0.00006453 0.00090818 -0.00542752
O 2.13687675 13.31303575 3.37871827 -0.00104922 -0.00016601 -0.00205642
O 4.61540485 10.68510078 9.22830957 0.00371699 0.00167275 -0.00067191
O 3.44498597 15.48941019 8.47999443 -0.00280201 -0.00250693 0.00098810
O 1.29830117 14.43264017 9.40360543 0.00458206 -0.00201545 0.00172216
O -0.24875442 19.11864149 8.06369770 0.00320073 0.00163015 -0.00078392
O 4.16227205 14.53974914 2.34407375 -0.00061230 0.00217681 0.00010663
O 5.63897595 9.74697685 3.94614069 -0.00485682 0.00219379 0.00260320
O -0.95378157 18.02753698 14.20183865 0.00176864 0.00030356 0.00113519
O 0.29868578 13.42243813 15.46279829 0.00113324 -0.00160385 0.00400800
O 2.87409814 10.72926644 21.31206878 -0.00081985 0.00246260 -0.00046578
O 1.64384831 15.91798062 20.40604167 -0.00062502 -0.00056114 0.00660070
O -0.28115458 14.53355927 21.39885177 0.00265453 0.00364827 0.00037098
O -2.04294155 19.50094418 19.89778577 -0.00058247 -0.00327022 0.00399724
O 2.44081978 14.32286820 14.14958443 0.00219684 0.00083086 0.00309665
O 4.05808545 9.76103654 15.66110251 -0.00373420 0.00170108 -0.00269889
O -2.50953739 18.35774331 25.91699340 -0.00209980 0.00091972 0.00020510
O -1.40635066 13.31519375 27.11747744 0.00023739 0.00049130 -0.00326430
O 1.33110194 10.36391889 33.22472613 0.00186084 -0.00164399 -0.00567310
O 0.25308350 15.67852505 32.04862401 -0.00086150 -0.00032254 -0.00003263
O -1.59874821 14.33476163 33.08646624 0.00317311 0.00140938 0.00129558
O -3.25175410 19.65780290 31.93337711 0.00370470 0.00052467 0.00568614
O 0.84239894 14.15833602 26.12153899 -0.00463736 0.00112107 0.00123237
O 2.47658134 9.60499315 27.31526149 0.00150093 0.00305185 0.00175785
O 0.68791656 27.78852356 2.35752967 0.00850550 0.00246478 -0.00161100
O 1.88150761 22.97155793 3.49631653 -0.00042043 -0.00062156 0.00169966
O 4.55784392 20.28710238 9.18661037 -0.00444075 -0.00140128 -0.00034702
O 3.35302701 25.28776665 8.33452129 -0.00010864 0.00524615 -0.00185030
O 1.33973720 24.24933819 9.41507101 0.00060283 -0.00295674 -0.00059025
O -0.21215014 0.19403358 7.95814227 0.00251903 -0.00107937 -0.00143201
O 3.85638627 23.99433627 2.22984642 -0.00290678 -0.00312819 0.00010542
O 5.63775267 19.03212476 3.59524681 0.00121728 -0.00212484 -0.00190116
O -0.93060712 27.71747913 14.30868441 -0.00138765 -0.00348567 -0.00100195
O 0.28717131 22.75650826 14.98996648 0.00191935 0.00134848 0.00288649
O 2.89347456 20.44959778 21.00136214 0.00467253 0.00271301 0.00304580
O 1.84032656 25.08517489 20.16809244 -0.00363689 0.00112050 0.00248247
O -0.32909162 24.16539552 21.51454200 0.00252490 -0.00231409 0.00314150
O -1.95663730 28.83460566 19.89652220 -0.00315388 -0.00151973 -0.00130946
O 2.40356154 23.90843132 13.98720019 0.00006932 0.00286613 -0.00253839
O 3.80010371 18.99861948 15.26102855 0.00428120 0.00204747 0.00116000
O -2.52741160 27.83127243 26.24533423 -0.00431466 0.00383627 -0.00027524
O -1.40532027 23.11584378 26.88823928 0.00659872 0.00784384 -0.00030638
O 1.47320542 20.29132927 32.99552205 -0.00550234 -0.00348824 -0.00335606
O 0.25277205 25.20286526 31.73495086 0.00000178 0.00015567 -0.00173809
O -1.91117337 24.17047399 33.14751428 -0.00048191 -0.00346577 0.00261435
O -3.41059067 0.10492783 31.68657597 -0.00135520 0.00055714 -0.00053495
O 0.59271472 24.24522259 25.80162914 0.00096655 -0.00469840 -0.00075473
O 2.23431795 19.11435503 26.99932630 0.00582767 0.00011030 0.00360427
O 7.58839863 8.53759563 2.58170470 0.00126927 0.00002038 -0.00445695
O 8.91029107 3.63621623 3.53146275 0.00004041 -0.00669370 -0.00356322
O 11.56061271 0.93249357 9.45573917 0.00135335 0.00276467 0.00538821
O 10.08459692 5.86189439 8.51019104 0.00781384 0.00311121 0.00351477
O 8.19183410 4.64902026 9.88939123 0.00280788 -0.00260768 -0.00491027
O 6.69367865 9.50141629 8.14802134 0.00234226 -0.00235896 0.00304391
O 10.86993678 4.82419698 2.31423891 -0.00124575 -0.00120312 -0.00384677
O 12.33450694 28.62922700 3.50457320 -0.00138678 0.00170066 0.00257306
O 6.02049069 8.56942551 14.30467630 -0.00220114 -0.00121472 0.00088425
O 7.15480679 3.54026854 15.24505769 -0.00160214 0.00429295 0.00040829
O 9.72046939 1.20850780 21.05976372 0.00261086 0.00033579 -0.00094578
O 8.66288632 5.79453908 19.99167526 0.00203502 -0.00012741 0.00025801
O 6.53362558 4.99820941 21.22094403 0.00164644 0.00287276 0.00126238
O 5.05501169 9.76589950 20.12645621 0.00200242 -0.00056619 -0.00233945
O 9.24597952 4.59031652 14.00813867 -0.00182198 -0.00026750 -0.00290382
O 10.80378863 28.75653765 15.42495559 -0.00231261 -0.00277330 -0.00247098
O 4.41208106 8.51406618 25.95742460 -0.00412657 0.00025611 0.00296703
O 5.77645497 3.79086982 26.94250262 0.00228676 0.00166187 -0.00146881
O 8.36677518 1.06176089 32.93657761 -0.00027031 -0.00414380 0.00236977
O 7.20329648 6.02077440 31.85085746 0.00135219 -0.00027752 -0.00090416
O 4.99747993 5.07794902 33.15474195 -0.00161576 -0.00113852 -0.00199863
O 3.40137660 9.77431328 31.70478367 0.00206573 -0.00122296 0.00333145
O 7.75650663 4.94712596 25.78802665 -0.00392164 0.00135089 -0.00275208
O 9.09089575 28.81740332 27.11424752 -0.00253514 0.00038455 0.00123191
O 7.71730002 18.37646827 2.18821265 -0.00089535 0.00175441 0.00018863
O 9.04081617 13.19412657 3.50708471 0.00091460 0.00094759 -0.00038152
O 11.39820093 10.65336886 9.63480607 -0.00060492 0.00179596 -0.00185294
O 10.41899286 15.48646469 8.13555486 0.00192644 -0.00073832 0.00502735
O 8.12650626 14.58003827 9.22431657 -0.00352679 -0.00606447 -0.00273867
O 6.65833725 19.49350611 8.05413388 0.00110656 0.00298336 0.00164059
O 10.81059166 14.71323760 2.32832922 -0.00154333 0.00096132 -0.00063843
O 12.51849201 9.55739916 3.86860716 -0.00201955 -0.00353007 -0.00112161
O 6.00697000 18.18308578 14.11165593 -0.00172880 0.00628360 -0.00064335
O 7.16227644 13.41094925 15.29658452 -0.00344450 0.00089498 0.00104870
O 9.84417193 10.75689210 21.19303793 -0.00347564 -0.00074286 -0.00026449
O 8.54662109 15.91831058 20.38722371 0.00399267 0.00245819 -0.00170854
O 6.57420375 14.51216447 21.32644527 -0.00158418 -0.00078508 0.00029755
O 4.89921806 19.34428736 19.74464962 -0.00045362 0.00257467 0.00119942
O 9.17151059 14.50468251 14.16364880 -0.00061553 0.00477017 0.00057870
O 10.85475675 9.67280128 15.46672516 0.00298136 0.00506401 0.00557602
O 4.43178972 18.13902853 26.16089415 -0.00065832 -0.00170138 0.00263681
O 5.72847290 13.36090508 27.17204336 -0.00098065 -0.00168180 -0.00321329
O 8.23638946 10.77837240 33.06059323 -0.00189950 0.00145602 -0.00318820
O 7.19370507 15.77094595 32.23486400 0.00308087 -0.00585759 -0.00054245
O 5.16824956 14.36780900 33.15979088 0.00856732 -0.00300889 -0.00143110
O 3.45451805 19.36677672 31.71026312 -0.00032703 0.00258724 -0.00108008
O 7.77088418 14.50232199 25.96508645 -0.00507692 -0.00368712 -0.00362164
O 9.23363933 9.63259090 27.06046349 -0.00477999 -0.00134912 -0.00146021
O 7.60415618 27.53415627 2.48725812 0.00474892 0.00531631 -0.00020792
O 8.70238581 22.89988479 3.26830475 -0.00226814 0.00025096 0.00149347
O 11.49542690 20.26718269 9.32480158 -0.00097092 0.00133525 0.00253883
O 10.24420976 25.12670452 8.32723180 0.00184853 0.00116575 0.00015659
O 8.13661302 24.17806055 9.51510120 -0.00027029 0.00054816 -0.00184177
O 6.62124721 0.12582525 8.29751501 -0.00493476 -0.00261340 -0.00263844
O 10.83219561 24.02764318 2.22322148 -0.00183245 -0.00498461 -0.00309321
O 12.43308751 19.04977604 3.49812891 -0.00409094 -0.00063889 0.00699704
O 5.88681104 27.60454393 14.38668576 -0.00411151 -0.00022859 0.00113224
O 7.24087219 22.69792948 14.87543063 -0.00241133 -0.00307503 -0.00085252
O 9.65910641 20.33924522 21.18946549 -0.00286420 0.00497816 -0.00473401
O 8.74498979 24.79399029 19.95360429 0.00359977 -0.00322557 0.00250883
O 6.41165580 24.23296429 20.99658094 -0.00154836 0.00569180 0.00054260
O 4.99088660 0.08991531 20.01876013 0.00463819 -0.00218085 -0.00109553
O 9.28684578 23.94287489 14.04594779 0.00103290 -0.00007958 -0.00088056
O 10.76019713 19.18940054 15.30506406 0.00128824 -0.00017255 0.00221374
O 4.28520998 27.96591228 25.84406335 0.00326440 -0.00168567 0.00013853
O 5.67713314 22.91192264 26.85422017 0.00063465 0.00505230 0.00001981
O 8.39519847 20.42026138 32.84622189 0.00371422 0.00010080 -0.00012480
O 6.94679085 25.10421903 31.61948779 0.00020464 0.00078870 0.00494072
O 4.95221877 24.07315493 32.95597283 -0.00071991 0.00266392 -0.00067522
O 3.48076662 0.37293649 31.92226693 0.00014559 -0.00388402 0.00448177
O 7.73652150 24.25618200 26.04054177 0.00045663 0.00253533 -0.00333302
O 9.15853650 19.15736730 27.17876148 -0.00027772 -0.00007829 0.00028710
O 14.44354194 8.65030850 2.42050894 0.00627983 0.00385768 -0.00231448
O 15.64649298 3.72137537 3.62979390 0.00306675 -0.00161724 -0.00190344
O 18.38110471 1.07499758 9.27078060 -0.00176784 -0.00226338 -0.00025225
O 17.05819748 5.89047512 8.24436819 -0.00013141 -0.00115366 -0.00172167
O 14.95597513 4.90502401 9.51562661 0.00081797 0.00079517 0.00359678
O 13.46307158 9.79898298 8.33098138 -0.00070864 -0.00062221 -0.00124305
O 17.69033311 4.61217405 2.42041276 0.00263083 0.00022435 -0.00436198
O 19.20576324 28.46783126 3.65767975 -0.00082992 0.00477948 0.00231576
O 12.73026540 8.58160217 14.01228769 0.00027908 -0.00243753 -0.00262157
O 14.11512767 3.74555587 15.24670708 0.00116076 0.00397113 -0.00170549
O 16.70553306 1.17372325 21.26580945 -0.00374001 0.00057635 -0.00561922
O 15.34033501 5.81484469 19.88820680 -0.00200421 0.00104809 0.00436875
O 13.34103290 4.83305920 21.27172784 -0.00383215 0.00403057 -0.00269524
O 11.91722531 9.66173817 20.01796766 -0.00318016 0.00064331 0.00039219
O 16.09918397 4.74175187 14.00704018 0.00136892 -0.00079227 -0.00146135
O 17.64990197 28.77114718 15.49894575 0.00336404 -0.00082983 -0.00293190
O 11.40394793 8.57318918 26.01549307 -0.00078645 0.00157552 -0.00016112
O 12.45577227 3.67426109 27.00243972 0.00285799 -0.00064971 0.00300946
O 15.16577506 1.35521445 32.76644929 -0.00239141 0.00356393 0.00035137
O 13.91342793 6.05471044 32.06308287 0.00629368 -0.00239944 -0.00000223
O 11.79739611 4.98498432 33.03345543 -0.00114395 0.00005071 -0.00583286
O 10.29248102 9.95210098 31.82362475 0.00350056 0.00105360 0.00296448
O 14.54287350 4.77731102 25.84857941 0.00210432 0.00351590 0.00077705
O 15.94757456 0.07679777 27.27236012 0.00022548 -0.00528466 -0.00278137
O 14.69852294 18.46602012 2.30401528 0.00313590 -0.00217697 -0.00607201
O 15.60589246 13.33036097 3.45504612 -0.00445477 0.00052402 -0.00704106
O 18.29485540 10.68270965 9.30447721 0.00010513 -0.00225938 0.00177331
O 17.10610813 15.57596440 8.26253123 0.00141117 -0.00259918 -0.00035766
O 15.12939298 14.43389948 9.52448445 0.00135825 -0.00377049 0.00152726
O 13.49490376 19.25698382 8.09940377 0.00408039 0.00452335 0.00211060
O 17.82902358 14.35863795 2.68235668 -0.00099529 -0.00201751 0.00075299
O 19.27165272 9.45606607 3.70348446 0.00452333 -0.00175507 0.00302673
O 12.76053094 18.04217745 14.21331951 -0.00000584 0.00319766 -0.00310853
O 14.02054941 13.44481940 15.39459451 -0.00220721 -0.00126685 -0.00162572
O 16.80000052 10.66156913 21.02012202 -0.00331149 -0.00324161 -0.00183539
O 15.38614942 15.49606045 20.25024993 0.00430205 -0.00368666 0.00941542
O 13.49165686 14.45705915 21.43932996 0.00108510 -0.00402224 -0.00312910
O 11.84328393 19.52358951 20.12232666 -0.00151399 0.00075331 0.00088041
O 16.19538674 14.09775460 13.98767098 0.00084553 -0.00022774 0.00257299
O 17.85052879 9.57561217 15.26947068 -0.00257260 0.00015087 -0.00314718
O 11.32521485 18.14482569 26.15040257 0.00364449 0.00075088 0.00438501
O 12.54026020 13.35033643 27.02840781 -0.00061506 -0.00271874 0.00543102
O 14.98499932 10.53422213 33.24167142 -0.00148774 -0.00141796 -0.00323428
O 14.07746740 15.67801160 32.01484685 0.00166687 -0.00058133 0.00005301
O 12.02396747 14.46570522 33.27696653 0.00249998 0.00109536 0.00054714
O 10.50020747 19.24984895 32.01144428 0.00497042 -0.00322248 0.00034874
O 14.51039448 14.43528237 25.83022571 -0.00318031 -0.00260262 -0.00084237
O 16.27036325 9.54690005 27.29311572 0.00274919 -0.00066265 -0.00087644
O 14.39788854 27.63643595 2.26681212 0.00053493 -0.00464289 -0.00334512
O 15.65361444 22.63989266 3.12816727 0.00014760 -0.00127713 -0.00502543
O 18.44746375 20.62763553 9.04667611 0.00156977 0.00159510 0.00238597
O 17.01771045 24.96140910 8.42004600 0.00099747 0.00088445 -0.00314148
O 15.02679032 24.00752926 9.58956088 0.00239072 0.00464791 -0.00272344
O 13.39771244 28.71809892 8.02757791 0.00013069 0.00024733 -0.00132244
O 17.58832926 24.03769816 2.13381568 -0.00224485 0.00542587 -0.00253325
O 19.33919274 19.23781542 3.63994107 -0.00238746 0.00054741 -0.00330881
O 12.87654012 27.71481526 14.27563596 0.00447087 0.00173509 0.00075216
O 14.08356703 22.87640789 15.11957950 -0.00599670 0.00350480 -0.00383961
O 16.55699487 20.27779379 21.30033089 0.00194652 -0.00413374 -0.00170643
O 15.54040736 25.02996423 20.10727906 0.00648130 0.00115586 0.00084613
O 13.31936736 24.19413930 21.24143025 0.00166701 -0.00054480 -0.00227413
O 11.72034370 28.83241128 20.00259349 -0.00026869 0.00229283 0.00159869
O 16.15322261 24.12089437 14.08968680 0.00398660 -0.00304349 -0.00032107
O 17.71569005 19.07916045 15.44365645 0.00119673 0.00064937 -0.00035566
O 11.28324956 28.05940284 25.73786294 0.00372082 0.00018989 -0.00092954
O 12.33406185 22.86365282 26.99502436 -0.00034683 -0.00097611 -0.00666444
O 15.19516357 20.31373042 33.12636529 0.00074744 0.00069709 -0.00384271
O 13.88531217 25.37318161 32.07877724 -0.00288831 -0.00285168 -0.00483032
O 11.73660046 24.20526687 32.82987617 -0.00035095 -0.00320165 -0.00188414
O 10.36643279 28.84837981 31.65332596 -0.00387327 -0.00329575 -0.00198331
O 14.43386997 24.07448199 25.85329872 -0.00374094 -0.00096978 -0.00004182
O 16.07297062 19.46673383 27.18335677 -0.00378620 -0.00181692 0.00479291
H -0.16466912 9.00071438 2.68310427 -0.03090415 0.00259486 0.00518974
H 2.86985581 4.26852173 3.23659473 -0.01274906 0.00194260 0.01168554
H 5.32516067 0.85826106 8.99408289 0.03050245 -0.00743904 -0.00387207
H 2.33862656 5.47131750 8.74177796 0.00544518 0.01091476 0.00530378
H 5.54249206 7.98270715 1.07141702 -0.00562107 -0.00171452 0.01361898
H 3.96065600 3.45195170 5.17831039 0.02674187 0.04391612 0.00044241
H -0.33187790 1.37282252 11.04314279 -0.01462836 0.02130927 0.00478828
H 1.41340114 6.25559672 6.80390518 -0.01238447 0.02421338 -0.01351246
H 4.05519112 6.71606445 10.63789699 -0.01296371 0.02653355 0.00241365
H 3.93006878 1.84540199 7.06725028 0.00646698 -0.00047535 0.02427451
H 1.21670600 2.93448455 1.09728400 -0.00523484 -0.01711925 -0.01355555
H 1.49165309 7.63770547 4.81149604 0.01775380 0.01698650 0.01222341
H -2.04127276 5.40462289 35.32211422 -0.00324582 -0.01025489 0.00283872
H 0.04411013 0.49437115 5.88639082 -0.03407021 -0.00368276 0.01664502
H 2.54983896 4.14116583 12.01146815 0.04199720 -0.00812068 -0.01257553
H 5.38739723 9.02450806 5.80049756 0.02440942 0.02427401 0.00104130
H 2.74476106 7.04765033 1.92853101 0.01904089 0.01984555 0.00860086
H 0.08761915 2.18010066 3.87617950 -0.01259666 0.01455448 -0.02693142
H 2.49257462 2.53660043 10.14141950 -0.01169683 -0.01750400 -0.00700011
H 5.40884763 7.44663442 7.67829850 -0.00481995 -0.01062768 -0.00776536
H 5.02059883 4.79804429 9.56709580 -0.06844534 -0.02985094 -0.02050269
H 2.86831222 28.84561121 8.00405248 -0.02680644 0.01227844 -0.02681798
H 0.36352594 4.61619744 2.21828964 -0.01999427 -0.00832465 -0.00795845
H 2.52745082 9.23067138 3.61485086 -0.02937981 -0.01897025 -0.01055722
H 5.73446292 3.47338850 8.11415440 0.02777436 0.00335960 0.00928664
H 0.65431165 8.59325655 10.24958440 -0.00486572 -0.00611383 0.02146987
H 18.48067823 5.48736866 4.65498207 -0.00088805 -0.01064711 0.00474461
H 3.01918484 1.13954949 1.93848218 0.06183261 -0.00166476 0.00661689
H -0.09455686 2.68731742 8.52584696 -0.00423660 0.02912727 0.02174773
H 2.21326257 8.34856145 9.62873557 -0.01335652 0.00619369 0.00857090
H 5.48348055 7.04111843 3.62201158 -0.01032518 -0.01821090 0.02624612
H 4.12847583 2.36078885 2.58937939 -0.00708338 -0.03348328 -0.01809757
H 0.21555916 3.77868147 7.37543243 -0.03460590 -0.01138021 -0.00908611
H 0.79320793 7.34688282 9.08434551 -0.02590793 0.01136182 0.00443212
H 5.43369287 5.75976431 4.77468257 0.00152091 -0.01078575 0.00633528
H 4.84131796 1.32274632 1.46075354 0.00863686 -0.00121818 0.00330660
H -1.50641632 8.99019134 14.67078129 0.00749062 -0.00211258 -0.03880004
H 1.10975060 4.05638836 15.12135148 0.00324849 -0.00343034 0.00882633
H 3.59126055 0.64946816 20.82100625 -0.01563950 -0.00135968 -0.00858892
H 1.04326632 5.46323429 20.59456584 -0.00034211 0.01082525 0.00503381
H 3.98213331 8.00436852 12.84734222 0.00054012 0.01950805 -0.00088349
H 2.23173519 3.24686007 16.98031556 -0.00606963 0.00384220 0.02238794
H -1.81864242 1.44847781 22.87223589 -0.00516676 -0.00591124 0.00651355
H -0.17913968 6.21761089 18.58517902 -0.01251511 0.00714572 -0.01659832
H 2.32883186 6.61644610 22.49354314 -0.00113736 -0.00182190 0.00314636
H 2.17254005 1.75719164 18.95412346 -0.00820888 -0.00273478 -0.00625789
H -0.34359689 2.98681217 12.90734370 -0.02211908 -0.02167458 -0.01891242
H -0.06374514 7.58041006 16.53280025 0.00979523 0.00614126 0.00451985
H 1.09924418 5.33912670 11.62508156 -0.02518013 0.00457495 -0.00412076
H -1.74118182 0.51166404 17.68850960 -0.00429779 0.01600705 -0.01679263
H 0.91894751 4.41262321 23.65145386 -0.03892091 0.03310553 0.02803736
H 3.79806346 9.13593960 17.68913280 -0.02648523 -0.02759284 0.00614976
H 1.18635790 6.94651914 13.57922873 0.01206388 -0.00629470 -0.01152018
H -1.68919351 2.20404600 15.95392572 -0.00865243 0.01504129 0.00862893
H 0.89297150 2.73398695 21.86972197 -0.01635801 0.00937082 0.00568499
H 3.91770291 7.45624509 19.58865892 0.01285124 -0.00057227 -0.00754352
H 3.38821192 5.22080256 20.96388924 0.06230645 -0.01849171 0.04397280
H 1.18762557 28.62836785 19.77184251 -0.04494626 0.03432218 -0.01920076
H -1.28610022 4.69373252 13.98060906 -0.04629593 -0.00598579 0.00204523
H 0.91784676 9.67324575 15.63437901 0.03615889 -0.01866521 0.03659000
H 4.42743446 2.98382019 19.85558027 -0.01053771 -0.00414167 -0.00978229
H -0.30732629 7.37894669 21.09644418 0.00858014 0.01335085 -0.00332498
H 17.62745891 6.81158270 15.39254995 -0.00275753 -0.00494384 0.02125534
H 1.33658233 0.91901268 13.47921231 -0.03836550 -0.01362464 -0.02962986
H -1.15702890 2.91694761 19.84978166 0.01851946 -0.01697143 0.01757472
H -1.05021602 8.49614909 22.07880621 -0.02476800 -0.01664772 -0.00075529
H 4.85230895 5.88760037 15.66132707 0.02256631 0.00018173 0.00655967
H 2.13927400 2.24403611 14.39758365 0.00485754 -0.04320268 -0.00828998
H -1.58400636 4.28277333 18.86925635 -0.00491178 -0.01192649 0.02098457
H 0.77504572 8.81578751 21.88212460 0.03012276 -0.00086485 0.02297099
H 3.35599909 6.86113875 15.21142732 0.01915375 -0.07531670 0.01697440
H 3.03123478 1.16863586 13.23679216 0.00692516 0.00742629 -0.01083801
H -3.09360970 8.86936645 26.54324708 0.02792848 -0.01881390 -0.01751911
H -0.22428281 4.22444928 26.64176373 -0.02097117 -0.02622778 0.00139815
H 2.23812178 0.77853799 32.80771712 0.01112034 -0.00428766 -0.00408813
H -0.51197378 5.77031363 32.34620762 -0.00262363 -0.00117396 0.01777943
H 2.53146154 8.31813157 24.23662386 -0.03123426 0.01892222 -0.02293016
H 0.81023145 3.54133176 28.80673399 0.00060889 -0.00343997 -0.00558914
H -3.36076874 1.69839695 34.43159982 0.00821806 -0.01010569 -0.00133930
H -1.66353050 6.50958291 30.48782911 -0.00852655 0.00230098 0.01078776
H 0.82551355 6.50685387 34.50941438 -0.00603006 -0.00249366 -0.00164576
H 0.73503341 1.96988786 30.62757103 -0.00020735 -0.01245583 -0.00657214
H -1.99985962 3.03635829 24.89715331 0.01552991 0.01341207 0.00321575
H -1.60355115 7.59930291 28.39162356 0.00929460 -0.00323080 0.00551626
H -0.57633721 5.23657806 23.49610718 -0.00871953 -0.00487231 -0.00315232
H -3.26546362 0.65727536 29.55583606 -0.01493139 -0.00210514 0.00859313
H 4.23568462 4.27308585 0.26130587 -0.01795939 -0.00906530 -0.00861132
H 2.31186028 9.20312461 29.25764272 -0.03414686 -0.01604174 0.00693574
H -0.52661464 6.67121976 25.47529390 0.02480896 0.00751169 0.01096882
H -3.30072740 2.27729327 27.79755641 -0.01198151 0.02111717 -0.01286215
H -0.52831086 2.72359373 33.70383172 0.02883286 -0.01750806 0.01309476
H 2.32125058 7.82876179 31.32867805 -0.00907682 -0.00012776 -0.01132788
H 1.96874622 4.86197985 33.25455797 -0.03381975 -0.00093601 -0.01458531
H -0.17101925 0.40516700 31.74686421 -0.01542775 0.00282656 -0.02119046
H -2.93206645 4.57067773 26.02789120 -0.02161846 -0.00271201 -0.02855922
H -0.69675589 9.70654423 27.28367433 -0.03035775 0.02361711 -0.01061852
H 2.79639279 4.62945259 31.05282515 0.04625042 -0.04237133 0.02836688
H -2.28034663 8.68908271 34.11612014 0.00184319 -0.02881232 -0.00056415
H 15.71761990 7.36739303 26.89957903 0.01976726 -0.01699483 -0.00053634
H 0.85795827 2.28746938 26.04653840 0.00224397 -0.02153183 0.01373771
H 16.38848808 4.51142142 31.02826556 0.02837642 -0.01458377 0.01552138
H -0.69274169 8.38485078 33.30141571 0.03551058 -0.00477783 -0.00423660
H 2.76522917 6.98574717 26.97200016 0.02048493 -0.00918060 -0.02572842
H 1.50556183 1.13526854 24.96205273 0.00358413 0.00092967 -0.02361317
H -3.59606525 3.10107298 31.83160044 -0.01665467 0.01166209 -0.01606354
H -2.28303192 7.48156061 33.01853915 0.03555521 0.02708287 0.01622585
H 1.51260487 6.15446153 28.10023990 0.00022613 -0.00927788 0.00366623
H -0.19535116 1.14513777 25.34557255 -0.03902145 -0.01603068 -0.00235966
H 0.08469817 18.85364244 2.63692465 -0.00918316 0.01743150 -0.02334291
H 3.02779423 13.73189002 3.17525054 -0.01868101 0.01592826 0.00621658
H 5.43641261 10.12722769 9.14935026 0.03188419 -0.03336216 -0.01288921
H 2.57511518 15.08609862 8.82347215 0.01398859 0.01269425 0.01615206
H 5.75538080 17.88573103 0.69003837 0.03650224 -0.01897054 0.00293699
H 3.97313833 12.98975750 5.17457596 0.01477550 0.01188817 -0.00464902
H -0.13136392 11.14120642 10.97361259 0.00503953 0.01899744 0.00976055
H 1.50195793 15.85499888 6.81132247 0.00868186 -0.00522368 -0.00351996
H 4.12758495 16.18776914 10.55280587 -0.02563044 -0.02048047 -0.00302042
H 3.94912804 11.23613424 7.01652367 0.00517097 -0.00136791 0.00712675
H 1.33205566 12.67881471 1.26223600 -0.00394366 -0.02397370 -0.00758921
H 1.66042854 17.28794154 4.74711976 0.00577363 0.00684290 0.01623644
H -1.69163992 15.09621879 35.29608031 -0.00479999 -0.00646474 -0.01358549
H 0.00284923 10.12892828 5.77332227 -0.02693091 0.00357705 -0.00311538
H 2.57052079 13.79945591 11.89346531 0.05132328 -0.03070837 -0.00853784
H 5.65713603 18.48708100 5.88041163 0.00984606 0.00801585 -0.00923539
H 2.90846459 16.72370012 1.77881720 0.00787190 0.01341348 -0.01357896
H 0.11074053 11.92018072 4.10946541 0.00547027 -0.00277197 -0.00175634
H 2.55564182 12.20449110 9.86316548 0.00292978 0.00561351 0.02709740
H 5.51217643 16.94214656 7.82451347 -0.02580247 -0.00717311 -0.01017150
H 4.94818226 14.68965053 9.48224854 0.01270308 0.01056318 -0.01362731
H 2.97732583 9.65703736 8.08027103 0.07293493 0.02213503 0.01716276
H 0.42007048 14.75367460 2.14880596 -0.02657159 -0.02330329 -0.03012631
H 2.52914559 18.88508485 3.62696873 0.04865298 -0.00188154 0.02039784
H 5.36149277 13.20817441 7.84105971 0.02252552 -0.00225976 -0.00429375
H 2.50742022 18.03261594 9.61076582 0.00352743 -0.01446692 0.02046710
H 19.45964496 16.56815698 3.74659024 0.00172509 -0.02442148 0.01610110
H 4.92230589 10.64697667 1.59265901 0.02634677 -0.00950990 -0.03115596
H 0.63819328 13.34789359 7.20341019 0.01207415 -0.00163764 0.00453107
H 0.96702652 16.85349575 9.16009596 -0.00433904 0.03159843 0.00696213
H 5.72284077 16.67209173 3.54405870 -0.00886944 -0.01642293 0.01743866
H 3.12191822 10.37799449 1.99813373 -0.04812322 -0.01881374 -0.02055553
H 19.41195519 13.69055681 7.39448513 -0.04968940 0.00973456 -0.00664639
H 0.74764856 18.18681235 10.39499797 0.02325509 -0.00378124 -0.02892746
H 5.12846815 15.40290909 4.56603466 0.03933671 0.01131841 -0.03965610
H 4.18724467 11.80629645 2.76281148 -0.00287819 0.04717507 0.01351767
H -1.87795126 18.37164933 14.47431072 -0.00817139 0.03005920 0.02205549
H 1.11725424 13.83355048 15.09122138 -0.01649779 -0.00237101 0.00207817
H 3.75791720 10.33941786 21.09206233 0.01039652 0.01317544 0.01023516
H 0.95673807 15.40065342 20.69732411 -0.00067081 0.00975021 0.01017205
H 3.88422431 17.56596580 12.56841183 0.01000051 -0.00514780 0.00218208
H 2.11103716 13.24868453 17.28231602 0.01451055 -0.00913788 -0.00953302
H -1.77732648 10.87773784 22.76666370 0.00636823 -0.01229207 0.00745484
H -0.34302727 16.04868236 18.59028140 -0.00657502 0.00882163 0.01703971
H 2.45633673 16.41204925 22.50726022 0.01757643 0.00130934 0.00940006
H 2.24077042 11.51384240 18.94711408 -0.01254830 0.00972709 -0.00814216
H -0.30944461 12.47278367 12.95718475 0.02659239 -0.01069157 0.01292057
H -0.25733238 17.30258485 16.49462970 -0.00410182 0.00471105 0.00241685
H 1.12555925 14.96956647 11.52333613 0.00278621 0.00410746 -0.00945888
H -1.73988450 10.15660696 17.81319421 -0.03469806 -0.03083013 0.01403965
H 0.93110175 13.86472427 23.82782594 -0.00374795 0.01401418 -0.00090093
H 3.68865868 18.49055279 17.44420789 -0.03242185 -0.00006158 -0.00559656
H 1.09000922 16.49285276 13.50752782 -0.00506293 -0.00928047 -0.01197530
H -1.72035240 11.76317506 16.01313239 0.00823119 0.00970718 0.00842059
H 0.92630053 12.39717967 21.95527892 0.00726940 0.00612651 0.01195894
H 3.66285958 17.32409090 19.44479580 0.02855889 -0.00700140 -0.00889769
H 3.39736520 14.59360209 21.30838308 0.04633265 -0.00160366 0.01279632
H 1.35338415 9.74117850 19.95579667 0.04227859 0.00927174 0.00794236
H -1.25721367 14.11010556 14.19763877 -0.01093079 -0.00099637 0.00130542
H 0.67334174 18.88386713 15.21311715 0.06683782 -0.00462081 0.03864830
H 4.23060392 14.05196349 19.25372830 0.00663626 0.01181990 0.01537700
H -1.58971437 18.07710711 21.91205775 -0.01537407 -0.01097266 -0.00778093
H 18.31876217 14.92772896 16.29533795 0.01584099 -0.02785354 0.04842485
H 2.22505508 11.67498752 14.32890235 -0.01092989 0.01360699 0.00353576
H 17.74961867 12.90795096 20.01117573 0.03279939 -0.00854179 -0.00941890
H 0.09759366 18.82233328 22.10818963 0.01679249 -0.00107378 0.02365527
H 3.19455939 15.61339186 16.27121057 0.00024323 -0.00988305 -0.01373236
H 3.48238844 10.67668794 13.44800743 0.00610163 -0.00846663 -0.01072796
H -1.18834577 12.18195530 20.44224369 -0.01627685 0.02669758 0.00145172
H -0.12019300 17.44444321 21.11399746 -0.01159835 0.00302221 -0.00192773
H 5.02635674 15.12154951 15.84989918 0.04482981 -0.00504742 -0.01290603
H 1.69964061 10.20932025 13.60702196 0.01175953 0.02398118 0.00240268
H -3.38877394 18.77920383 26.17572006 -0.00665411 0.01604398 0.00407391
H -0.52889355 13.65195919 26.85124871 -0.01290974 0.01496298 -0.00064472
H 2.26259891 10.18440706 32.64809083 -0.00116288 -0.00706876 -0.00562064
H -0.57985990 15.17859461 32.33545008 0.02846007 -0.00624785 -0.01231437
H 2.50174768 17.87345878 24.45629475 0.00171070 0.01498960 0.02344158
H 0.62282211 13.04154857 28.83362350 0.00141233 0.00585458 0.00627733
H -3.47770951 11.05718685 34.80122051 0.00271511 0.00064567 0.01020213
H -1.74377131 15.88968754 30.30039665 0.01768847 -0.00319645 0.00099130
H 0.90684201 16.13313876 34.29051943 0.01962395 0.00763594 0.01993662
H 0.83112167 11.45190098 30.53797600 -0.00978693 -0.00840031 0.01313503
H -1.77758852 12.44015212 24.72134784 -0.00555263 0.00309187 -0.01587848
H -1.85114314 17.52999992 28.45862553 -0.00102488 0.00269428 -0.01820700
H -0.48864026 15.12802258 23.46840085 -0.00468240 -0.00942528 0.01039720
H -3.18987952 10.21464550 29.90932911 0.01681680 -0.01342017 0.00087605
H 4.21060309 13.79930848 0.17367244 0.01365818 0.01231732 0.00640914
H 2.13607643 18.86999342 29.32300955 0.03017758 0.01804392 0.00737939
H -0.51318868 16.79230775 25.31958611 -0.03051203 -0.00104646 -0.01543980
H -3.35252689 11.81600723 28.01642902 -0.02480092 -0.00591755 -0.00484921
H -0.59905157 11.93141779 33.92387859 -0.01429186 0.00061538 0.00655935