2160
Time=60000.00000005 pbc="T T T" Lattice="20.55390178 0.00000000 0.00000000 0.00000000 28.99075450 0.00000000 -4.72611420 0.00000000 35.51571146" energy=-13801.28888184 virial="-55.75187842 24.96582758 78.68653800 24.96582758 -17.60274720 -15.08218888 78.68653800 -15.08218888 -57.98014363" stress="-0.00026916 0.00117552 0.00377829 0.00117552 0.00142640 -0.00064877 0.00377829 -0.00064877 -0.00054423" Properties=species:S:1:pos:R:3:vel:R:3
O 0.80877944 8.60903396 2.47856998 0.00225793 0.00447640 0.00538222
O 1.89218660 3.75269383 3.90605269 -0.00356777 0.00001023 0.00147390
O 4.63958713 0.72822124 9.78425413 0.00330716 0.00418002 -0.00241164
O 3.69004909 5.67316964 8.33593229 -0.00504560 0.00187302 -0.00114795
O 1.51918994 4.65620748 9.75288429 -0.00131458 0.00013124 0.00202858
O -0.19124179 9.67716090 8.02323311 -0.00544234 0.00214598 0.00194099
O 4.00648387 4.54822552 2.71617251 -0.00529524 -0.00376346 0.00373779
O 5.69930951 28.81796649 3.67519612 0.00066116 -0.00399814 0.00456076
O -0.75294209 8.44833334 14.45163267 -0.00318030 0.00204526 0.00049152
O 0.42316255 4.13212784 15.61115282 -0.00619611 0.00030131 0.00916075
O 3.25305681 1.39010243 21.25031887 0.00322026 0.00263439 -0.00308081
O 1.79855416 5.97738703 19.90827528 0.00172775 0.00311136 0.00267316
O -0.08083951 5.16992780 21.45209437 0.00223204 -0.00173733 0.00483113
O -1.51229324 9.76754949 20.17654647 -0.00349992 -0.00515102 -0.00416114
O 2.50777267 4.64462865 14.08739717 0.00132977 -0.00150705 -0.00328509
O 4.09297208 28.86793607 15.44303616 0.00496734 -0.00214769 -0.00409133
O -2.29394756 8.69444755 26.31308343 -0.00047559 -0.00030306 -0.00043811
O -1.40665548 3.95093891 27.29070076 -0.00353317 0.00181031 -0.00376350
O 1.01692293 1.24435881 33.00744814 0.00216245 -0.00802790 0.00305714
O -0.19177215 6.30764491 32.38652140 -0.00172965 0.00203473 -0.00182727
O -2.08013855 4.80168035 33.41856169 0.00259764 -0.00651240 0.00483216
O -3.68658141 9.61009210 31.61888476 0.00535240 0.00705382 -0.00334911
O 0.92156622 4.50321336 26.22624242 -0.00222316 0.00183935 -0.00267165
O 2.30754749 28.91490186 27.35652313 -0.00485297 -0.00127257 -0.00447631
O 0.97368858 18.22058072 2.40948824 -0.00210954 -0.00458329 0.00229293
O 1.69532983 13.81449459 3.53124543 -0.00377006 -0.00023682 0.00299733
O 4.55368986 10.88103031 9.37365081 0.00300553 0.00113210 0.00558893
O 3.50651249 15.35778216 8.42177128 -0.00225597 0.00062636 -0.00197325
O 1.32869520 14.54104006 9.51304432 0.00287151 -0.00282864 0.00024936
O -0.44215357 19.63405671 8.19193874 -0.00039147 -0.00837473 -0.00273958
O 3.90246369 14.45141884 2.09236577 0.00276353 -0.00017525 -0.00147312
O 5.50793446 9.56756118 3.79079023 -0.00327479 0.00595629 0.00619141
O -0.71073933 18.28647987 14.17222866 0.00235142 0.00092378 -0.00000091
O 0.14341312 13.43223179 15.38711984 0.00525183 0.00361012 0.00372015
O 3.24014980 10.91341550 21.44964951 -0.00629453 0.00012566 0.00334902
O 1.74189095 15.44839415 20.25713210 -0.00094803 0.00302763 0.00327316
O -0.22421724 14.37645923 21.53336995 -0.00012441 -0.00566210 -0.00144808
O -1.92494333 19.79474276 19.92972098 -0.00215324 0.00597157 0.00566802
O 2.37775810 14.09742638 14.33935273 -0.00188007 0.00194643 -0.00368138
O 4.15939977 9.40117622 15.15845369 0.00340307 -0.00147247 0.00141096
O -2.56318113 17.99863621 26.31607488 -0.00195701 0.00019478 0.00109566
O -1.29203591 13.22084790 27.12740922 0.00426394 -0.00478238 -0.00077093
O 1.17592250 10.49047745 33.17444179 -0.00036090 -0.00196830 -0.00364150
O 0.05410158 15.90158099 32.02906014 -0.00251257 0.00476480 0.00890831
O -1.78975500 14.47554585 33.10587773 0.00239302 -0.00031512 -0.00608867
O -3.40085876 19.11395219 31.50458155 0.00147999 -0.00055440 0.00163060
O 0.89749426 14.46272574 26.32595779 0.00529811 0.00374171 -0.00327267
O 2.42724722 9.48425822 27.49783935 0.00056690 -0.00078275 0.00363181
O 0.50797205 28.03231735 2.25673283 0.00141690 -0.00293187 0.00208538
O 1.66440129 23.00948542 3.14614997 -0.00574344 0.00214690 0.00299679
O 4.33417420 20.36189391 9.11861217 -0.00030014 -0.00616483 0.00120905
O 3.55861690 24.90796533 8.15279470 0.00370930 -0.00238561 0.00518733
O 1.28324997 24.22021999 9.48748267 0.00044170 -0.00092019 -0.00014604
O -0.17225139 0.14678384 8.49855787 -0.00000706 0.00297371 -0.00326539
O 3.74782789 24.36514557 2.22997134 0.00269535 0.00559558 0.00030221
O 5.73079263 18.97081071 3.53407718 0.00374961 0.00056820 -0.00595279
O -0.90006896 27.48082029 14.61450487 -0.00072327 0.00308385 -0.00405254
O 0.48044182 23.23046198 15.35148921 -0.00139493 -0.00305639 0.00348860
O 3.02941833 20.45391239 20.96392067 -0.00381421 -0.00108511 0.00097630
O 1.77294793 25.17738580 20.30501136 0.00222511 0.00251094 0.00320466
O -0.36323684 24.12593446 21.47021331 0.00904024 -0.00111556 0.00133203
O -1.67176789 0.28770479 20.02264151 -0.00761306 0.00602064 0.00088398
O 2.54094731 24.08233040 13.99196860 -0.00120662 -0.00460084 0.00211363
O 4.13655166 19.29895552 15.69544858 0.00224824 -0.00273930 -0.00110785
O -2.73510138 27.73715584 26.18476447 -0.00193227 -0.00012010 -0.00106146
O -1.19276456 23.30888066 27.37357574 0.00240519 0.00741235 0.00107557
O 1.39875428 20.33084203 33.12597572 0.00056992 -0.00316430 0.00049158
O -0.11101324 25.43395550 32.03897355 -0.00384212 -0.00495195 0.00213836
O -2.06252858 24.24883580 33.19318533 -0.00309081 -0.01026442 -0.00035681
O -3.64435990 28.84018007 31.78664732 0.00664816 -0.00414415 -0.00034427
O 0.73743078 24.02865282 25.71222569 -0.00149306 -0.00119849 -0.00431291
O 2.12575373 19.54056359 27.24178816 -0.00020674 -0.00041806 0.00022461
O 7.66648316 8.57617330 2.53862666 -0.00458118 -0.00059415 -0.00287545
O 8.83174191 3.62877073 3.39007321 -0.00377565 0.00347922 0.00218299
O 11.37249339 0.59072390 9.86601107 0.00051452 0.00225380 0.00741211
O 10.36730639 5.99577004 8.50784461 -0.00295249 0.00129052 0.00003829
O 8.17327347 4.79748446 9.38933365 0.00010040 0.00344141 0.00230457
O 6.48133342 9.49373284 8.29994060 -0.00194080 0.00389333 0.00152732
O 10.75851344 4.96556238 2.29589756 0.00270526 0.00497866 -0.00474605
O 12.37462655 28.90374562 3.90034558 0.00508074 0.00052018 -0.00357912
O 6.17195231 8.90761726 13.67548624 0.00442207 -0.00587892 -0.00104045
O 7.33428891 3.86465054 15.61517911 -0.00967120 0.00033166 0.00205725
O 10.06314069 1.26399051 21.20426789 0.00364373 0.00385587 -0.00312813
O 8.66032984 5.97903367 20.04276736 0.00284516 0.00267413 -0.00462031
O 6.58744332 4.84561944 21.32867577 0.00109592 0.00143718 0.00325463
O 5.08165346 9.83449884 19.91987925 -0.00346672 -0.00660697 0.00223834
O 9.35578256 5.02488307 14.04920756 -0.00165592 -0.00118748 0.00541305
O 10.70684846 28.51495291 15.19365303 0.00287467 0.00154462 0.00392406
O 4.37417966 8.38381206 26.13571837 -0.00248523 -0.00012604 0.00232885
O 5.54641663 3.88110346 27.60253553 -0.00338665 0.00164211 -0.00184123
O 8.01446735 1.06462777 33.03579386 0.00155103 -0.00469791 0.00266036
O 6.97178902 5.62184828 31.85611066 -0.00040810 0.00689849 0.00577269
O 4.98664924 4.93855582 33.34453743 -0.00197296 0.00068631 -0.00274661
O 3.43752057 9.74977492 32.03716714 0.00045820 -0.00363574 -0.00276705
O 8.01329744 4.42019713 26.29572908 -0.00071895 0.00256990 0.00230162
O 9.20286790 28.91505370 27.53819848 0.00202074 -0.00638202 0.00478816
O 7.91826465 18.43640460 2.22998063 0.00142990 -0.00133398 -0.00052347
O 8.62263131 13.52724825 3.68877598 -0.00020484 -0.00220942 -0.00528428
O 11.33954635 10.78654561 9.35240006 -0.00626946 0.00160917 0.00127865
O 10.52798998 15.50078198 8.40374724 0.00664366 0.00746357 -0.00248151
O 8.40696194 14.54676487 9.57876451 -0.00397397 0.00533818 0.00138909
O 6.53846654 19.41111468 8.22261062 0.00102206 -0.00012825 -0.00130995
O 10.93177280 14.24041956 2.46541557 0.00027245 -0.00098306 -0.00226842
O 12.37635239 9.74603748 3.65051556 -0.00036220 0.00190324 -0.00860417
O 5.97248647 18.59741685 13.91883435 0.00189208 0.00416204 -0.00224175
O 7.39972811 13.15076987 14.93587164 -0.00469045 -0.00167114 0.00057964
O 9.85417281 10.95727229 21.35633237 0.00289778 0.00313349 0.00024399
O 8.64056578 15.42530128 19.95194912 0.00540000 0.00331745 0.00403751
O 6.40035921 15.01642127 21.27655595 -0.00151823 0.00314541 -0.00112350
O 5.14601323 19.44283909 19.80054075 -0.00666445 0.00705115 0.00044906
O 9.36825856 14.60031318 13.96274628 -0.00234936 0.00283857 0.00315082
O 11.09055658 9.69986812 15.36994444 -0.00066731 0.00746452 -0.00526891
O 4.21614995 18.65424035 26.08728775 0.00230818 -0.00673541 -0.00310188
O 5.38510536 13.75735930 27.54981891 0.00533659 -0.00174608 -0.00062960
O 8.23650474 10.88856122 33.06128594 -0.00299058 0.00451493 0.00710394
O 7.12612353 15.71910781 32.05692350 0.00175169 -0.00247952 -0.00236361
O 5.16599441 14.54076845 33.18937088 0.01065288 0.00099080 0.00533321
O 3.62094958 19.25004077 31.62213586 0.00986783 -0.00555242 0.00253317
O 7.45441170 14.51412344 25.87948613 -0.00205104 0.00123589 -0.00533030
O 9.05664595 9.26411644 27.18925422 0.00100457 0.00228106 0.00308207
O 7.62707062 28.17737069 2.07924408 0.00407529 -0.00278630 -0.00557508
O 8.45206901 22.91559718 3.25067900 -0.00017348 -0.00163996 0.00498590
O 11.26121731 20.31927711 9.49827259 -0.00066709 0.00512904 0.01035842
O 9.93096231 25.24929027 8.41142334 0.00596941 0.00170352 -0.00228264
O 8.08724042 23.94031015 9.46296528 0.00740139 0.00084976 -0.00115038
O 6.60967130 0.09608296 8.09954144 -0.00037834 0.00365854 0.00264753
O 10.70422032 23.75451321 2.21736319 -0.00017616 -0.00169324 0.00301075
O 12.32561079 18.98718061 3.41463545 0.00157531 0.00726633 -0.00890781
O 5.85281090 27.59115676 14.23810488 0.00468869 0.00627156 -0.00140606
O 7.38924223 22.96776459 14.95321602 0.00742281 0.00061559 -0.00234718
O 9.86624162 20.51299925 21.16537498 0.00043304 0.00124647 0.00220656
O 8.70416056 25.11374871 20.17279940 0.00414143 0.00449505 -0.00276217
O 6.62732534 24.14140095 21.25558042 0.00039549 0.00025857 0.00118922
O 5.08694085 28.90283836 20.13149786 0.00193604 -0.00542377 -0.00174406
O 9.46154710 24.32392815 14.12635161 0.00854169 0.00278358 -0.00013018
O 10.97263843 18.99155704 15.40754082 0.00368451 0.00638801 0.00862007
O 4.44331009 27.80227406 25.96703564 0.00294134 0.00422164 0.00550877
O 5.48816476 23.02828263 26.85332467 0.00146879 0.00081363 0.00474884
O 8.25954668 20.54511873 32.82446700 -0.00375475 0.00089925 -0.00003050
O 6.94253844 25.09773243 32.02646939 -0.00367117 0.00240986 -0.00057486
O 4.74200365 24.17663123 33.27484090 0.00193755 0.00021976 0.00072255
O 3.45747956 0.30520002 32.32976021 0.00088212 -0.00590296 0.00290120
O 7.47883421 24.10725865 25.82693213 0.01120088 0.00987190 0.00414451
O 9.00240502 19.27821460 27.18489570 -0.00163404 -0.00234243 -0.00249480
O 14.58651266 8.67357637 2.39729197 0.00930360 -0.00475419 -0.00202226
O 15.49304419 3.61595848 3.51864382 -0.00467370 0.00463984 0.00566817
O 18.36299929 1.17260463 9.61916874 0.00182981 0.00327305 -0.00079151
O 17.33072346 6.06151205 8.33366697 0.00102136 -0.00443415 -0.00011345
O 14.99295752 5.13087517 9.25175635 -0.00418601 0.00018435 -0.00206846
O 13.44388501 9.58749110 8.34386794 -0.00223955 0.00167334 0.00511275
O 17.75902514 4.75847175 2.53697037 -0.00190365 -0.00642673 0.00260793
O 19.27674180 0.12939352 3.76160086 -0.00149506 0.00414918 -0.00135187
O 13.04522324 8.54787470 14.10948304 -0.00184069 0.00323801 -0.00062236
O 14.00149130 3.78875693 15.43646052 -0.00132341 0.00083131 0.00068527
O 16.82267614 1.41372608 20.91847326 0.00318851 -0.00032825 -0.00583065
O 15.53791071 6.23569201 20.50632366 -0.00445247 -0.00502306 -0.00006523
O 13.49186543 4.89093951 21.42277980 -0.00557146 -0.00121752 -0.00096083
O 11.98714555 9.91567155 20.30932178 -0.00062575 -0.00003871 -0.00022666
O 16.07826924 4.66029466 14.18927044 0.00733042 0.00388300 -0.00302837
O 17.80687018 0.01185509 15.65926986 -0.00134378 -0.00549761 0.00263702
O 11.51696497 9.12047174 25.88813378 0.00186989 -0.00155185 0.00396699
O 12.66821904 3.57635930 27.29001598 0.00255782 0.00110142 -0.00495958
O 14.97621903 1.14482148 33.42361138 -0.00235127 0.00104706 -0.00021888
O 13.68713745 5.71622137 32.10471984 -0.00227930 0.00256472 0.00647859
O 11.85008765 4.51246010 33.54646151 0.00055655 0.00104112 0.00246349
O 10.10957832 9.49595206 32.05459829 -0.01127419 0.00361042 0.00033751
O 14.79702812 4.50299525 26.09066955 0.00549015 0.00056186 0.00049499
O 15.94990847 0.18900349 27.62538689 -0.00095474 -0.00426290 -0.00206127
O 14.57754855 18.01985486 2.51228621 -0.00340023 -0.00147005 -0.00353134
O 15.58233167 13.59049449 3.55324946 -0.00124378 0.00180228 0.00583358
O 18.32680914 10.54802818 9.77250639 0.00471992 -0.00100040 -0.00004580
O 17.04883126 15.64732250 8.26891371 0.00320415 0.00612171 0.00034227
O 14.87053799 14.67909292 9.30734245 -0.00520110 0.00513042 0.00454083
O 13.43103589 19.46625253 8.18965541 0.00692136 0.00583346 -0.00285624
O 17.84365564 14.58917693 2.35483152 -0.00413996 0.00290535 0.00379080
O 19.33835386 9.72025676 3.59906793 -0.00024400 0.00212132 0.00349461
O 13.15666015 18.28814603 14.10028795 0.00061804 -0.00330293 -0.00089897
O 13.90140201 13.53924184 15.59877968 0.00090428 -0.00396701 -0.00417776
O 16.70648718 10.58412365 21.07295413 0.00087102 0.00085537 0.00044056
O 15.45501153 15.46452294 20.23015533 -0.00482766 -0.00362264 0.00724732
O 13.31938823 14.71772383 21.60999835 0.00596829 0.00093176 0.00199621
O 12.04756487 19.06318510 20.15289531 -0.00076031 -0.00811341 -0.00563200
O 16.01682105 14.25623843 14.43697359 -0.00487939 0.00108556 -0.00199329
O 17.79630901 9.60356548 15.55277527 -0.00282192 0.00391727 0.00476462
O 11.33011382 18.59842979 26.20926416 -0.00396497 -0.00188175 0.00293520
O 12.51178899 13.11421296 27.19649756 -0.00512195 0.00316631 -0.00033892
O 15.06781389 10.78067791 33.07596014 0.00047583 0.00164744 -0.00538525
O 13.83768546 15.31178858 31.43374620 -0.00034606 0.00278770 -0.00260677
O 12.05237045 14.72209400 33.04717902 0.00445158 0.00194139 -0.00283164
O 10.33492204 19.54783617 31.81543760 0.00216275 0.00069968 0.00324525
O 14.70165324 13.93330699 26.17580802 -0.00346967 -0.00275633 -0.00136921
O 15.98530839 9.32591707 27.55370366 0.00644473 -0.00160979 0.00169704
O 14.20840687 27.67979005 2.57341055 -0.01089586 0.00344375 0.00490543
O 15.53516443 23.06232763 3.43242043 0.00204613 0.00097360 -0.00208231
O 18.12709189 20.44958217 9.65849287 0.00259425 0.00129982 0.00454424
O 16.98051088 25.35050342 8.28668998 -0.00284756 -0.00210026 -0.00427107
O 15.07179615 24.01805341 9.58872190 -0.00301180 -0.00519420 -0.00713273
O 13.37613429 0.04433926 8.42323767 -0.00103847 0.00210360 -0.00318067
O 17.55123777 23.95171310 1.99787587 0.00243024 0.00272694 0.00491254
O 19.18291888 19.07084991 3.37096554 0.00087161 -0.00063452 -0.00431428
O 13.01382041 28.01192633 13.97180332 -0.00191689 0.00329406 -0.00877097
O 13.95727051 22.95012772 15.30253139 -0.00217493 0.00163871 0.00460655
O 16.58536176 20.63067584 21.15084558 0.00945935 0.00586549 -0.00313509
O 15.36798168 25.39361258 20.03238736 0.00422315 -0.00243581 0.00190196
O 13.36878468 24.41503860 21.25963730 -0.00216971 0.00451418 0.00068708
O 11.93971280 28.93721844 20.07011300 0.00274008 0.00271486 0.00239344
O 15.97079795 24.08462909 14.18016594 0.00360157 -0.00038523 0.00789282
O 17.71571790 19.14636121 15.76803726 0.00493461 0.00333989 -0.00839945
O 11.05813629 27.95552174 26.16331402 0.00100639 0.00455353 0.00252105
O 12.10881302 23.32842409 27.07728768 -0.00027891 0.00596817 0.00074873
O 15.19156056 20.35483208 32.69806691 0.00680228 0.00738195 0.00047840
O 13.98301326 24.97706702 31.86991765 0.00310883 0.00176867 -0.00013603
O 11.73476421 24.19049895 33.01226143 -0.00160041 -0.00311188 -0.00122538
O 9.94664164 0.00688793 31.78219359 0.00784728 -0.00519108 -0.00657807
O 14.50936984 24.41794814 25.88105232 -0.00223762 0.00509689 0.00016111
O 16.13217688 19.44274265 27.26264637 -0.00069733 -0.00277657 -0.00261305
H -0.04510820 9.19665667 2.80710430 0.00024888 -0.00187920 0.00378432
H 2.77677988 4.05811711 3.68619753 -0.02699504 -0.00563806 0.01272382
H 5.51025594 0.46385422 9.36113796 0.02317762 0.02384812 -0.01705827
H 2.76498701 5.44780398 8.85054737 -0.00012725 0.00478305 0.00225419
H 5.55603813 8.02890266 1.07032610 -0.00124316 -0.00610091 0.00492531
H 3.91590815 3.35417901 5.60944862 -0.01318145 -0.00340013 0.00142410
H -0.47512791 1.27610408 11.50482317 -0.01162876 -0.00554216 -0.04358377
H 1.59727209 6.03089346 6.74440301 0.02245839 0.01393689 -0.01078197
H 4.17544488 6.29924193 10.58245209 0.02170552 -0.01514334 0.02285646
H 3.98044474 1.28590562 7.02424829 -0.01615653 0.00275405 0.01197698
H 1.30877222 3.15489936 1.34215553 -0.00784741 0.03039835 -0.01124523
H 1.39296455 7.94747872 5.23488202 0.01729893 0.00640592 -0.00004124
H 2.57752661 5.39430069 0.05931542 0.01468073 0.02259471 0.00955750
H -0.15244752 0.42365867 6.25448351 -0.00793910 -0.01202137 -0.01561452
H 2.57039527 3.97236394 12.19658354 0.00944882 0.00756280 0.00188193
H 5.43940722 9.02502264 6.09293026 -0.00212160 -0.01624399 0.02467555
H 2.74946812 7.11230372 1.67023762 -0.01603500 0.01215919 -0.01748187
H -0.15823738 2.11496719 4.50852549 -0.00623989 0.00187690 0.00455408
H 2.50823014 2.09245822 10.62940681 -0.01001152 0.00790714 -0.02195068
H 5.70254725 7.26712790 7.58443586 -0.00677624 -0.01707003 -0.00008132
H 4.97799959 4.59755572 9.54740922 0.01338651 0.01608004 0.00064104
H 2.98231784 28.58038949 8.14118602 0.00130340 -0.00597517 0.00928257
H 0.25356232 4.89741853 2.54644893 -0.02149698 0.01529866 -0.00268977
H 2.37142346 9.56963756 3.98919334 -0.00484916 0.01746357 -0.01389275
H 7.15802325 4.01188991 6.90266266 -0.00872815 0.02344230 0.02423884
H 2.40595453 8.26063383 9.26964561 0.00756366 0.00654791 0.01257425
H 19.46886366 6.99885384 3.67345626 -0.00030320 0.01218433 -0.01420580
H 3.36733122 0.66016403 1.49734518 0.01955256 0.00551573 0.02674647
H 0.65764658 3.72729239 7.48160033 -0.00819364 0.00357580 -0.01703061
H 0.77791091 7.60225634 9.11635353 -0.00264118 0.00156385 0.00739247
H 5.47896791 5.35280675 4.80554592 0.00168442 0.01196620 0.00312899
H 4.00156064 2.00555556 2.60997196 0.01863456 0.02249021 0.02327790
H -1.00768977 3.83167309 8.03104015 0.01603572 -0.00796202 0.00273360
H 1.05846575 8.85998187 10.35056446 0.00144726 -0.00731762 0.03051439
H 6.48546031 6.39867163 3.81434294 0.01249392 0.00298584 0.01802656
H 5.07317981 0.99319675 1.54094693 0.01313421 -0.00229124 0.00763663
H -1.63773319 8.87722251 14.51560824 0.01036472 -0.01138085 0.01192056
H 1.18212871 4.30215216 15.04536881 0.00402120 -0.00616317 0.01235115
H 4.06442590 0.87789741 21.13581963 -0.00512438 0.00556881 0.01045873
H 0.95993922 5.68552620 20.35263169 -0.02520628 -0.02108761 -0.00693391
H 4.04560621 8.08782473 12.42611002 0.01626214 -0.00686469 0.00508857
H 2.37645889 3.66381812 17.16455267 -0.01219744 0.01695711 -0.00305333
H -1.83181523 1.26907855 22.71384173 0.00219582 -0.01972970 -0.01359900
H -0.26994940 6.52443587 18.35492185 0.01951123 0.00521644 -0.02111304
H 2.38158742 6.63049200 22.44688931 -0.00209753 0.02002700 -0.01484333
H 2.63936974 1.58562126 18.68288393 0.01239148 0.01601918 0.00620839
H -0.29514752 3.25554608 13.27183668 0.01372277 -0.00252835 0.00131743
H -0.11255155 7.84477198 16.32172984 -0.01091515 0.00100109 0.00954873
H 1.33134299 5.35708132 11.83987712 0.00414191 0.00838893 0.00330050
H -1.37127207 0.59401503 17.73722569 -0.00373082 -0.00570568 -0.00788029
H 0.95300025 4.10967198 24.03601234 -0.00959393 0.00756713 0.01392457
H 3.90825043 9.16767351 17.55231032 0.00155697 0.01765184 -0.01937236
H 1.29549887 7.02721006 13.66454084 0.00130602 0.01216104 0.00872946
H -1.60705033 2.60700166 16.28136748 0.01053474 0.02838638 0.01111089
H 1.10459641 2.93379787 22.01078190 0.01044163 -0.00485248 -0.01033071
H 3.81704019 7.76655739 19.33015063 -0.01057841 -0.01255225 0.00262215
H 3.43709612 5.19317167 21.15559306 -0.02311265 -0.00950005 -0.00469677
H 1.40632386 28.87791322 19.72512257 0.00978367 -0.00382239 -0.00729201
H -1.39215966 5.10354587 14.31880430 0.00604850 -0.00045247 -0.01975148
H 0.87140463 9.78741335 15.25772546 0.03351905 -0.04640374 0.04366356
H 5.99665723 4.02079822 19.01339454 0.00685177 -0.01177430 -0.00319339
H -0.81741927 7.78829116 21.53833651 0.01109768 -0.00658863 0.00191355
H 16.78950324 6.20165976 16.20417051 -0.01718160 -0.00738461 0.00598739
H 2.05829469 1.96014248 14.49076265 0.01133530 0.00468424 -0.01932671
H -0.65786663 3.92042859 19.39075127 0.00172157 0.00596035 -0.00032622
H 0.02193306 9.06181871 22.46611847 -0.01922101 0.01635157 0.01383214
H 4.95394844 5.97760359 15.66629204 0.00598942 -0.02147460 -0.00372691
H 3.62704974 1.58836214 13.86104886 0.00244289 -0.00691655 -0.00850360
H -2.43113975 4.17446364 19.56002049 0.01185611 -0.01310086 0.01289175
H 0.88212107 7.95290949 21.53745437 0.01901949 0.00643669 -0.00361434
H 3.65179073 7.04281657 15.04254464 -0.00009588 0.00078725 -0.00347341
H 2.26333391 0.63220228 13.27006363 -0.00679779 0.00059053 0.00898477
H -3.23105673 8.82890262 26.67141940 -0.03466970 -0.01263889 -0.00106174
H -0.51947686 3.97434806 26.75056418 -0.02209779 0.01306431 -0.00083051
H 1.90657217 0.90294810 32.74276910 0.00162436 -0.01524381 -0.01019756
H -0.78870951 5.56688046 32.28630954 0.00596172 -0.03520132 -0.00177822
H 2.55304594 8.33415231 24.24317789 0.01401131 -0.02691144 -0.01132777
H 0.53550440 3.55275930 29.10938191 0.01300353 0.02492437 0.00412462
H -3.72899266 1.23770941 35.25264762 0.02631439 -0.00999467 -0.01670122
H -1.87074787 6.31372181 30.49805623 -0.02045064 0.00951545 -0.02098321
H 0.89394390 6.74211679 34.55661336 0.00288924 0.02624571 -0.00505172
H 0.43335556 1.81559399 30.97524135 -0.03396226 0.00901316 -0.01789175
H -1.83942099 2.63518177 24.82276938 -0.00549739 -0.02631834 -0.00125175
H -1.92724848 7.79113428 28.54113496 0.01409914 -0.02237433 -0.00483853
H -0.05724851 5.72105254 23.65369653 0.00594396 0.02270322 0.00784344
H -3.59867622 0.70731351 29.60945100 0.00098083 0.00586993 0.00665149
H 4.13160444 4.40162435 0.34571464 -0.01370260 0.00914709 -0.00601100
H 2.13454847 8.97319233 29.52633162 -0.01910277 -0.00902486 0.01255050
H -0.26789447 7.15863962 25.64755181 -0.01044727 0.00804541 0.00486853
H -3.42524451 2.14131524 27.86800888 -0.00769956 0.00694572 0.01030958
H -0.97322149 2.90727734 34.00796691 -0.01608503 -0.01583013 0.00097445
H 2.03652986 7.70461409 31.60823802 -0.00322163 -0.01001760 0.01988967
H 1.78265014 4.97580779 33.31271006 0.00013820 0.00280194 -0.01882444
H -0.54253917 0.16422012 31.84460462 -0.00539968 -0.00175249 -0.01928429
H -2.60900483 4.63898924 25.87843344 -0.00244059 -0.02881611 -0.00219144
H -0.72539138 9.58093673 27.34574244 0.00620839 -0.00784004 0.02482265
H 2.94271747 4.41654593 31.11146881 -0.00605702 0.01001634 -0.00992535
H -3.42029235 8.40860053 33.83302082 0.00056377 0.00526998 0.01795683
H -3.48337610 5.30955052 28.15624544 -0.01003805 -0.00871200 -0.03090230
H 0.65342438 2.17580496 26.04196327 -0.01460921 0.00660709 0.02281268
H 16.19081228 3.59489875 31.46710195 0.01472631 -0.00398784 0.00613542
H -1.59896496 8.59256983 34.03606103 -0.01196918 -0.00655759 -0.02020960
H 2.44852822 6.87330634 27.52276306 -0.00513679 -0.00031206 -0.01192776
H 1.97351649 1.24531920 25.29179400 -0.01965968 -0.02082534 0.01833655
H -3.46468521 2.51876794 32.42459770 -0.01020298 0.00494701 -0.02098259
H -2.31503031 7.49646548 32.81198223 0.01178805 0.00732508 -0.01835665
H 1.00457273 5.97515703 28.20340776 -0.00844563 0.00468228 0.01138323
H 0.21775854 0.72933229 25.11217027 0.00659968 0.00117120 -0.02041440
H 0.17991545 18.78255411 2.66829340 0.00768483 0.00443812 -0.00118061
H 2.62924476 14.06680121 3.17121619 -0.01803592 0.02280901 0.00090021
H 5.33251043 10.31504265 9.21561654 0.00707066 -0.00037818 0.01045100
H 2.64543423 15.03376153 8.83031258 -0.01151640 0.00356854 0.01564002
H 5.92319102 18.01028575 0.68202020 0.00271307 0.02142159 0.01339017
H 3.67523665 13.58846671 5.31139700 -0.00143018 -0.01328833 0.00701919
H -0.22777995 11.28029431 11.34791547 0.04458768 0.00909396 -0.00044173
H 1.52947324 15.76661104 6.72697177 0.00023491 0.00400875 0.02206900
H 4.09419166 16.41067954 10.47247339 -0.01017379 -0.02252591 0.00582181
H 3.80065564 11.91595422 7.11667598 -0.00519443 0.02833220 -0.01338489
H 1.21238672 12.78052734 1.06424794 0.00559139 0.00157799 0.00653857
H 1.52881104 17.66555953 5.07523191 -0.02300108 0.00363628 -0.03678962
H -1.80493721 15.31893595 34.99891621 -0.00831712 -0.02580854 -0.00148218
H 0.00489519 10.43226259 6.05217727 0.02856178 -0.01381103 0.00793679
H 2.46612907 13.89332029 11.93135121 0.01006569 0.01354262 0.00935452
H 5.59380028 18.42996872 5.82450003 -0.02138803 0.01530917 0.02206672
H 3.11628491 16.84132931 1.41993242 -0.00159436 0.00142860 -0.00015126
H -0.04183613 11.99063564 4.06715491 0.01008288 0.01552644 0.00928335
H 2.59407000 12.35056621 9.88221887 -0.00932957 -0.03571527 0.01821944
H 5.61593338 16.75693723 7.68340387 -0.00946445 -0.04198232 0.00932101
H 5.21330607 14.39919306 9.45705797 0.00369387 0.00746450 -0.00294935
H 3.06065636 9.83617884 8.11592340 0.00229583 0.01381215 -0.00866814
H 0.39745414 14.43475538 1.99876770 0.02249669 -0.00275993 0.01450057
H 2.58454697 19.35419380 3.87905679 -0.02005633 -0.01803471 -0.01270201
H 6.11790259 13.59090689 7.54166878 -0.01653971 0.00393156 0.00792484
H 1.53080697 18.82362750 10.32386923 -0.01346154 0.00631954 0.00615756
H -0.39319999 16.32552916 3.55514822 0.01060852 0.02902565 0.00697117
H 2.83369017 10.38800104 2.09069011 -0.00514749 -0.00764566 0.00856656
H 0.74697324 12.86087188 7.82736144 0.01102709 0.00022933 0.02724467
H 1.80693361 17.50489372 9.13776585 0.00051050 -0.00609318 0.00663856
H 4.98786999 16.71540872 3.21077084 0.00962619 0.01892092 -0.02511690
H 3.68693638 11.77509858 2.54987839 0.00504976 -0.01505323 -0.00407004
H -0.67522086 13.76046165 7.34661817 -0.01237122 -0.00897366 0.00738176
H 0.17981070 17.85434201 9.86703145 -0.00208112 -0.00177376 -0.02001274
H 4.57531336 15.41163652 4.24790700 -0.00386228 0.00951537 -0.01683754
H 4.53772966 10.46832080 1.54623206 -0.00376018 -0.00684407 0.01941927
H -1.64024323 18.42537400 14.46942208 0.01254676 -0.01717098 0.00824841
H 0.99945111 13.75040825 15.04265260 0.01800462 -0.02843500 0.01704203
H 4.02874766 10.48966779 21.12639236 0.01350267 0.00011595 0.01086700
H 0.88953622 15.12595990 20.57530106 -0.01413715 -0.01302499 -0.00568317
H 4.12599139 18.12758542 12.24185902 -0.01589556 0.00116845 -0.01513855
H 2.25530501 13.14284866 16.83558421 0.02798896 0.02584608 -0.00305881
H -1.82755241 11.14196744 22.47673536 -0.01030208 -0.00518263 -0.01599654
H -0.10488544 15.78484204 18.54003361 -0.01764487 -0.01289284 -0.00019509
H 2.33546823 16.38448351 22.71501676 -0.00243823 0.01385046 -0.01872300
H 2.47048211 11.45244351 18.67075834 -0.00570626 0.00933647 0.00437732
H -0.36550486 12.86709235 13.11203517 -0.00108733 -0.00182879 0.00037124
H -0.08741705 17.33438622 16.57572018 -0.02043806 -0.00233059 -0.01456283
H 1.24354596 15.23548235 11.45578940 -0.00268132 -0.01568388 -0.00068890
H -1.46544231 10.17120152 18.03940328 0.01684980 0.01312773 0.01325124
H 0.85211911 13.64748472 24.16040302 -0.00758816 -0.01194980 0.02886694
H 4.02606220 18.41442356 17.60767490 0.01047812 -0.00937950 -0.00615962
H 1.37937037 16.94988070 13.38031141 -0.00137420 0.00394267 0.00374372
H -1.70189822 11.72370849 16.05668774 -0.02261141 -0.03045160 -0.01832605
H 1.17439542 12.10049653 22.25089440 -0.00259707 0.00551496 0.00159432
H 3.79737300 17.09692807 19.61248347 0.00452435 0.01220219 -0.02331296
H 3.39390701 14.49449522 21.85190875 0.01541792 0.01150014 0.00520302
H 1.56636064 9.95171610 20.16336769 0.00539452 -0.00504941 -0.00392903
H -1.36931630 14.66858041 14.00391331 0.00797531 -0.01238245 0.01127328
H 0.86815881 19.25854954 15.68173892 -0.02733530 -0.00306543 -0.00858599
H 5.14004149 12.33557646 20.50995328 -0.00457162 0.00101133 -0.00739223
H -1.50612294 18.32155227 21.93038646 0.00824873 -0.00245105 -0.00678928
H 18.04501229 16.55340882 15.53505596 -0.02177629 -0.00993403 -0.00517864
H 1.61304939 11.05268525 13.81301517 0.00680193 -0.00884022 0.00247020
H 17.77840491 13.53281467 19.80185559 -0.00099887 -0.01472456 0.02373615
H 0.25093454 18.34857810 21.78789864 0.00452950 -0.00662515 -0.02010517
H 4.86098468 15.08833015 16.07734954 -0.02207243 0.01226541 -0.00689042
H 3.13499837 11.86550923 14.22175972 0.00182842 -0.02869503 0.01438586
H -1.89281317 12.08494752 20.40285285 -0.01175860 -0.00104855 0.00255245
H -0.65756852 17.05678446 20.93065272 0.02664611 0.00438707 -0.02436862
H 3.82526190 16.42814400 15.55019058 -0.01531297 0.00681005 0.01749497
H 3.11037161 10.63496203 13.00714193 0.00106961 -0.02263007 -0.00578072
H -3.46529148 18.36696778 26.33315483 0.00498724 -0.00408608 -0.00978390
H -0.49960128 13.86222238 26.99135954 -0.00761912 -0.00134117 0.00170775
H 2.04521397 10.10241958 32.81136362 0.01737398 -0.00706386 0.00597330
H -0.73741241 15.39634964 32.31924001 -0.01742494 -0.00362058 0.00771316
H 2.26616147 17.84885696 24.59828464 0.03050265 0.00778845 0.00075946
H 0.63794174 12.96527282 28.82023998 0.02707522 0.00937213 0.00426386
H -3.39670577 11.43424209 34.55173047 -0.00373456 0.00508332 0.00121172
H -1.96008639 16.29054067 30.35053981 -0.00095468 -0.01251639 -0.00679057
H 1.05571357 16.30785001 34.36615320 -0.01010795 -0.00812415 -0.00644764
H 0.53608315 11.46767162 30.79130062 0.00406197 0.00922714 0.03483490
H -1.91881094 12.43142528 24.75270660 -0.01553198 -0.00046023 -0.00926519
H -1.74822431 17.35541199 28.21116472 -0.00652844 -0.00268243 -0.00571013
H -0.49789296 14.91463564 23.69344790 0.00698893 0.00125507 0.00489679
H -3.44330909 10.35627276 29.82862761 0.00929413 0.01511245 -0.00742870
H 3.99973910 13.84289017 0.05484559 0.03785084 0.00069098 -0.00101371
H 2.01871979 18.99226357 29.44438989 0.00786957 -0.00369129 0.01842445
H -0.41724460 16.44190304 25.63207687 0.01376967 -0.01181765 0.00732549
H -3.28344091 11.68908328 27.74204552 -0.00473050 -0.00933431 0.01236318
H -0.71422287 12.23941567 33.70005522 0.02751236 -0.03068606 -0.00453249