2160
Time=8000.00000000 pbc="T T T" Lattice="20.60675598 0.00000000 0.00000000 0.00000000 28.84187807 0.00000000 -4.72451735 0.00000000 35.49171552" energy=-13800.80853516 virial="-36.53864738 17.80426012 85.59063858 17.80426012 -50.78844896 -34.82480061 85.59063858 -34.82480061 -30.75076443" stress="0.00105592 0.00088557 0.00430285 0.00088557 -0.00041316 -0.00161806 0.00430285 -0.00161806 0.00060621" Properties=species:S:1:pos:R:3:vel:R:3
O 0.78173705 8.41617870 2.51084775 0.00341266 0.00561762 -0.00286653
O 2.04626451 3.64427705 3.44172033 0.00176239 -0.00313684 -0.00514353
O 4.50943666 1.01764470 9.51609061 -0.00186345 0.00242698 -0.00233057
O 3.44664482 5.93662592 8.54777202 -0.00126331 0.00451004 0.00510829
O 1.33031372 4.95951413 9.57025555 -0.00094982 0.00360406 -0.00221099
O -0.13019281 9.48497961 8.26157317 -0.00569147 0.00159680 0.00111773
O 4.17947454 4.81222175 2.37013385 -0.00190393 -0.00511051 -0.00463468
O 5.53783658 0.02241645 3.58479934 -0.00236912 0.00525856 0.00039757
O -0.94432028 8.62390817 14.18366745 0.00039056 -0.00704637 0.00169068
O 0.49467202 3.58462500 15.10174785 0.00238682 -0.00687080 0.00440594
O 2.89941901 1.21678731 21.44624737 -0.00045292 0.00318169 -0.00011327
O 1.87900827 5.80313743 19.96135161 0.00271864 -0.00007496 0.00167807
O -0.08544258 5.10019692 21.61302897 0.00143038 -0.00437766 0.00067431
O -1.90102761 9.58943813 19.84579861 0.00324218 0.00088958 -0.00352688
O 2.44653953 4.74058048 14.05670418 -0.00111689 0.00191152 -0.00126140
O 3.80374232 0.03113639 15.53483669 0.00590960 -0.00042853 0.00631118
O -2.27277722 8.99326091 25.96026297 -0.00404522 0.00235002 -0.00106841
O -1.13310136 3.57122839 26.92396372 0.00332774 -0.00087694 -0.00058097
O 1.32172041 1.17650901 33.16289119 -0.00014167 0.00401708 -0.00314606
O 0.27473991 6.36549792 32.36588120 -0.00425602 0.00332504 -0.00007202
O -1.74077814 4.90401253 33.25013822 -0.00235345 -0.00216803 0.00431218
O -3.41576028 9.56690232 31.74703777 -0.00129489 0.00043635 0.00639252
O 0.78031152 4.96788959 26.02303394 -0.00451544 0.00130173 -0.00067193
O 2.44174262 0.22589594 27.39143729 0.00159026 0.00325931 0.00146003
O 0.78321895 18.07344375 2.56416002 -0.00424496 -0.00111304 0.00138635
O 1.80716441 13.27751189 3.63336457 -0.00206467 0.00011471 -0.00160117
O 4.53867897 10.65164399 9.38535025 -0.00493719 -0.00087040 0.00402275
O 3.36080858 15.48182109 8.32813133 -0.00332848 -0.00122976 0.00005685
O 1.20027480 14.46254283 9.42237771 0.00040848 -0.00021005 -0.00176082
O -0.21555697 19.38154742 8.07158969 0.00373438 -0.00425907 0.00488383
O 3.91962500 14.31113714 2.25136296 -0.00174678 0.00107569 0.00107102
O 5.43097782 9.11263478 3.52883585 0.00311556 0.00004203 0.00328851
O -0.86539380 18.27894132 14.24195261 -0.00439335 -0.00165023 -0.00408166
O 0.36719032 13.27694925 15.18126200 -0.00133768 -0.00149705 0.00147551
O 2.94879570 10.76687992 21.09449341 -0.00219060 -0.00391789 -0.00663859
O 1.67805561 15.57356945 20.06806669 -0.00228547 0.00116166 -0.00085558
O -0.31138212 14.43468584 21.28844725 -0.00013889 -0.00107519 0.00216759
O -1.87254061 19.07546005 19.95173082 0.00060450 0.00072241 -0.00264905
O 2.26005553 14.48984640 13.88008918 0.00038925 0.00294302 0.00430981
O 3.79659969 9.45840017 15.26488327 0.00155553 0.00140430 -0.00124829
O -2.32945724 18.41708163 25.72968160 -0.00392787 -0.00333174 0.00439423
O -1.25060792 13.49838088 27.23831812 0.00108008 0.00035630 0.00033577
O 1.50052173 10.74192385 33.07812327 -0.00035518 0.00422378 -0.00097939
O 0.19888245 15.67518371 32.14159088 -0.00154006 -0.00388959 0.00060579
O -1.84007640 14.54536481 33.32801674 0.00266802 -0.00214571 -0.00093963
O -3.46350970 19.33129010 31.80045793 0.00204372 -0.00115445 -0.00331455
O 0.70216027 14.36115968 25.85451514 -0.00149717 -0.00266626 0.00530760
O 2.22343185 9.37545496 27.13153618 0.00114341 0.00218439 -0.00395336
O 0.91814294 27.85769852 2.26297069 0.00391476 -0.00383598 -0.00146645
O 1.86389996 22.99291393 3.55044328 0.00139450 -0.00195571 0.00047606
O 4.49883012 20.25535541 9.50301169 0.00113710 0.00077887 0.00089187
O 3.43984655 25.19741249 8.60674099 0.00133880 -0.00163140 -0.00551192
O 1.32712310 24.05048892 9.60633416 0.00099476 -0.00132539 -0.00218940
O -0.33000223 28.79395012 8.17840201 0.00209387 0.00218728 -0.00043591
O 3.97710569 24.01298881 2.35523198 -0.00067733 0.00164554 -0.00033521
O 5.66109339 19.19627412 3.76920369 0.00406425 -0.00182384 -0.00336498
O -0.92261702 27.55021654 14.26890859 -0.00118450 0.00323555 0.00162085
O 0.40411040 22.92484666 15.41430053 0.00159858 0.00316040 0.00339885
O 3.16902255 20.59738876 21.26838673 0.00779998 -0.00158019 0.00668092
O 1.95294799 25.17897521 20.21296471 0.00271810 -0.00359227 0.00016054
O -0.24368510 24.20090470 21.44866370 -0.00422157 -0.00048327 0.00508815
O -1.71390706 28.72111454 19.84433677 0.00005520 -0.00502046 -0.00656740
O 2.51760744 23.87537861 14.19493755 0.00146566 -0.00556866 -0.00181435
O 3.76413624 18.89592465 15.25174582 -0.00302413 0.00457343 -0.00044329
O -2.38529935 27.80130604 26.20146015 -0.00144498 -0.00050783 -0.00537844
O -1.21533524 22.93687219 27.18789018 0.00411270 -0.00407482 -0.00164796
O 1.37848651 20.24435064 33.25483999 -0.00033461 0.00161318 0.00292215
O 0.18433253 25.11615385 31.99855642 -0.00255849 -0.00210490 -0.00089536
O -1.97382094 24.19796195 33.00511402 -0.00032903 -0.00064116 -0.00052859
O -3.45286606 28.76260703 31.64037818 0.00504934 0.00127726 -0.00302907
O 0.81935978 24.02594419 25.92371033 0.00541305 -0.00197675 0.00043718
O 2.38395335 19.35179632 27.30072400 0.00193982 -0.00170694 0.00887278
O 7.67402582 8.55611200 2.52865187 0.00257943 -0.00197115 0.00549933
O 8.88849797 3.60499931 3.37352998 0.00283962 -0.00303277 0.00116002
O 11.49390646 1.13601028 9.40746351 -0.00034827 0.00114350 0.00023023
O 10.21752605 5.89603816 8.48808019 -0.00315409 -0.00276010 0.00583165
O 8.15341120 5.04447069 9.62883992 -0.00283739 0.00353379 -0.00101238
O 6.79879128 9.76520034 8.50928341 0.00192818 0.00476542 -0.00167779
O 10.86949776 4.83485297 2.08181907 0.00011669 0.00279039 0.00761483
O 12.33438178 28.82798546 3.42346628 0.00024884 0.00090319 -0.00344065
O 5.93877065 8.28761323 14.52938436 -0.00255695 -0.00083296 0.00243327
O 7.23748585 3.64332856 15.23054788 0.00387422 0.00203127 -0.00262646
O 9.75176690 1.02647632 21.24792223 0.00000377 0.00224260 -0.00197517
O 8.47285331 5.54167241 20.02407488 -0.00401048 0.00202252 -0.00007404
O 6.42328501 4.82614624 21.41087678 0.00161993 -0.00581710 0.00123899
O 5.02981549 9.63159674 20.22146543 -0.00074934 0.00156233 -0.00216988
O 9.38616594 4.68407439 14.16745520 -0.00281395 -0.00343944 -0.00243693
O 10.89830339 28.74796683 15.35273496 0.00681097 -0.00016348 -0.00114272
O 4.49519307 8.76554206 25.94600046 -0.00224087 -0.00166439 -0.00399245
O 5.53435780 3.81491723 27.21016298 0.00606281 0.00206713 -0.00187681
O 8.24032695 0.96088075 32.92684921 0.00117594 -0.00291966 -0.00521446
O 7.06800172 6.03732110 32.12519539 -0.00250736 -0.00498938 0.00126956
O 5.04449991 4.91837818 33.16994927 -0.00114667 0.00343755 0.00129467
O 3.50033401 9.77039279 31.78998650 -0.00005765 -0.00297729 -0.00041573
O 7.53974504 4.84451880 25.78159624 0.00543205 0.00107854 0.00009175
O 9.26610251 28.77764579 27.21332841 -0.00229491 -0.00377819 0.00589995
O 7.66085541 18.09232672 2.62293292 0.00328379 0.00047631 -0.00127241
O 8.76916377 13.21925019 3.64140591 0.00408517 -0.00100265 0.00175175
O 11.48024249 10.72270981 9.53140295 -0.00184185 0.00180312 0.00025618
O 10.24575271 15.39757120 8.34839023 -0.00124424 0.00333187 -0.00637937
O 8.30373695 14.25915064 9.58667068 -0.00059184 -0.00131349 -0.00364244
O 6.66656402 19.34299037 8.44834170 0.00256331 -0.00920866 0.00240818
O 10.89407255 14.13796740 2.59113841 0.00230937 0.00022131 0.00416095
O 12.36136866 9.42852590 3.69582235 -0.00115920 -0.00042236 0.00197419
O 5.92949384 17.97674314 14.27495735 0.00182095 -0.00042920 -0.00408698
O 7.20068687 13.31594165 15.47212139 -0.00009718 -0.00014666 0.00324129
O 9.87509820 10.56616068 21.20718408 0.00389621 0.00405097 0.00150929
O 8.66491453 15.61308274 20.27864597 -0.00228983 0.00439592 -0.00276485
O 6.63412986 14.41968587 21.47953817 -0.00223332 -0.00175491 -0.00574470
O 5.07956893 19.54374923 19.83835170 -0.00039056 0.00190147 -0.00023294
O 9.18111647 14.42003467 14.12091662 -0.00317655 -0.00383299 0.00312758
O 10.87715937 9.49185989 15.57185200 -0.00522826 0.00013725 -0.00349606
O 4.21833805 18.02909984 26.12426280 -0.00368432 0.00307414 0.00275634
O 5.71139327 13.10769056 26.93929589 -0.00242177 0.00092207 -0.00390253
O 8.30816204 10.93905288 32.97508587 0.00055698 0.00325411 0.00110836
O 7.07204983 15.66341986 31.99970549 -0.00256734 -0.00101116 0.00071800
O 4.79645654 14.87266012 32.87295121 -0.00749121 -0.00151660 0.00125358
O 3.63081181 19.65476108 32.00676524 0.00017907 0.00088132 -0.00017934
O 7.63793649 14.38946124 25.73623286 0.00010272 -0.00334864 0.00481562
O 9.33112874 9.55390522 27.41485668 0.00094505 0.00397773 0.00098446
O 7.56835732 27.80861976 2.32210745 -0.00157344 -0.00221827 -0.00095947
O 8.77963137 22.74492750 3.37015724 0.00260552 0.00174544 -0.00373688
O 11.47379425 20.42269272 9.14339682 -0.00184872 -0.00514470 -0.00267371
O 10.24591042 25.03515376 8.25045628 -0.00236416 -0.00212926 0.00259992
O 8.23444818 24.22426989 9.60765928 0.00773877 -0.00566458 0.00055438
O 6.71192479 0.22368150 8.27518824 0.00094603 0.00101624 0.00191742
O 10.79471445 24.13518817 2.41763919 0.00047083 -0.00339834 0.00300555
O 12.34899511 18.72694222 3.42274646 0.00480143 -0.00060394 -0.00466725
O 5.92382575 27.72514490 14.45416540 -0.00116498 0.00115067 -0.00289165
O 7.38368672 22.61128091 14.85459566 -0.00010324 0.00052309 -0.00442076
O 9.72848980 20.57517431 20.98752357 -0.00474807 0.00092913 0.00222100
O 8.78681866 25.01799249 20.07747850 -0.00394424 0.00381797 0.00255335
O 6.79830406 24.20759989 21.71375522 0.00549954 -0.00343153 0.00025334
O 4.95884438 0.22732455 20.10400941 -0.00197457 0.00290781 0.00124564
O 9.24641280 24.08502039 13.83672983 -0.00508171 -0.00117101 -0.00005300
O 10.73615703 19.18038974 15.38902343 -0.00232084 -0.00208015 -0.00250635
O 4.40580018 27.94341448 26.15537790 -0.00341144 0.00219189 0.00780673
O 5.61839343 23.02337107 27.19291163 -0.00528507 -0.00277279 -0.00190640
O 8.07364906 20.38006366 33.15735244 0.00442408 -0.00006788 0.00016455
O 7.24874055 24.83060715 31.76291272 -0.00093465 0.00302960 -0.00120263
O 5.07275608 24.26083870 33.05213012 -0.00077308 -0.00446160 0.00109462
O 3.33799494 0.28810598 31.87043261 -0.00306193 0.00746951 0.00421463
O 7.61848975 23.98157320 25.86437118 0.00041073 0.00156370 -0.00132350
O 9.24973962 19.31420757 27.22359598 0.00234590 0.00071490 0.00098818
O 14.63958801 8.57242649 2.44813947 0.00329832 -0.00346683 -0.00241661
O 15.65651375 3.53433248 3.12493847 -0.00337300 -0.00018481 0.00201827
O 18.24295516 0.92210575 9.45823391 -0.00348086 0.00575465 -0.00294553
O 17.12831965 5.90784414 8.20358983 0.00484759 -0.00806058 0.00352903
O 15.05430674 4.96800858 9.41441751 -0.00523461 -0.00393117 -0.00230474
O 13.54177532 9.75034913 8.30800139 0.00022649 -0.00127165 -0.00158080
O 17.91623219 4.52925945 2.31229573 -0.00027948 0.00248596 -0.00203577
O 19.22941929 28.68978178 3.52571742 -0.00113387 -0.00239717 -0.00052636
O 12.91789348 8.60974944 14.06829071 -0.00338370 0.00682998 0.00247123
O 14.28031081 3.63616420 15.25649470 -0.00304055 -0.00380875 -0.00103028
O 17.01555694 1.04464071 21.09535094 0.00290560 -0.00223459 0.00280497
O 15.72953405 5.78879362 20.16271460 -0.00769897 0.00325563 0.00241806
O 13.48808301 4.68865894 21.40499908 0.00096603 -0.00260177 0.00034289
O 11.84293227 9.51714906 20.06644030 0.00001876 -0.00185498 -0.00456417
O 16.23901008 4.92038579 13.98747681 -0.00378340 -0.00093815 -0.00043063
O 17.72109565 28.65139698 15.55845419 0.00453185 -0.00492854 0.00103271
O 11.30688149 8.49082648 26.07936568 0.00245406 -0.00181936 -0.00061473
O 12.49240017 3.97673346 27.33561660 -0.00487753 0.00662051 -0.00254217
O 15.31546302 1.26432293 32.83511179 -0.00079538 -0.00145611 0.00046307
O 13.82953128 5.87175704 31.92818125 -0.00125335 -0.00092175 -0.00407055
O 11.84721951 4.88217405 33.22037355 -0.00506765 -0.00456560 0.00078453
O 10.30985514 9.82885953 31.85642538 -0.00103178 0.00233120 -0.00099993
O 14.54229536 4.52782716 25.74626652 -0.00129562 -0.00557706 0.00581599
O 16.10207678 28.77959478 27.11728413 -0.00328608 -0.00477033 0.00308838
O 14.68761918 18.13081872 2.48366067 -0.00485278 -0.00132424 0.00397999
O 15.82324425 13.13221696 3.48276063 0.00377077 -0.00596563 0.00209479
O 18.28781117 10.59996408 9.33171804 -0.00435748 0.00287346 0.00072645
O 16.99552031 15.61522233 8.42154705 0.00196767 0.00247516 -0.00256342
O 14.94260176 14.15963234 9.51536234 0.00375294 0.00141520 -0.00260447
O 13.53566372 19.16313753 8.08938148 -0.00048476 -0.00005655 0.00042576
O 17.74713784 14.58990220 2.39499485 -0.00110104 0.00549555 -0.00303322
O 19.44019214 9.69444136 3.72859249 -0.00104182 0.00215428 0.00222928
O 12.76937993 18.21010492 14.02715855 -0.00228734 -0.00117073 -0.00330944
O 13.99728404 13.48261663 15.58658560 -0.00074954 0.00443279 0.00091730
O 16.68322106 10.67646568 21.09751797 -0.00049461 0.00278403 -0.00264707
O 15.41526880 15.57676280 20.28526558 -0.00127205 -0.00328093 -0.00679468
O 13.37052615 14.43249679 21.21899216 -0.00382759 0.00325596 -0.00099978
O 11.86895945 19.31907734 20.08116810 -0.00237060 0.00130687 -0.00210993
O 16.17997450 14.15141501 14.31485354 -0.00308923 -0.00069477 0.00310569
O 17.69429358 9.53384795 15.60483374 -0.00199671 0.00564962 0.00125025
O 11.35132052 18.13393429 26.02922719 -0.00174051 -0.00260193 -0.00086582
O 12.42447568 13.25961298 26.90737558 0.00235450 -0.00621431 0.00300117
O 15.27653208 11.08661289 32.82366531 0.00473108 0.00380551 0.00162505
O 13.98611728 15.48406157 32.00946171 -0.00208340 0.00259375 0.00100324
O 11.65360733 14.48644286 33.21920771 -0.00120820 0.00032610 -0.00006665
O 10.32546253 19.42419487 32.22588164 -0.00079096 -0.00406747 0.00034498
O 14.42106340 14.27325040 25.83120834 0.00100030 0.00176652 -0.00126362
O 16.05556271 9.69583589 27.34336389 0.00111379 -0.00064266 -0.00610940
O 14.43237080 27.83656838 2.31977848 0.00075487 0.00113740 0.00054681
O 15.73062718 22.83945459 3.36383690 0.00449080 -0.00182367 0.00784374
O 18.24492176 20.48237022 9.20371037 0.00787463 0.00422937 0.00115530
O 17.13946372 24.87231294 8.15102323 -0.00187918 0.00071833 -0.00344682
O 14.94285163 24.10581388 9.45063240 0.00416056 -0.00113110 0.00031499
O 13.49965460 0.29005093 8.10881771 0.00052584 -0.00553300 0.00016761
O 17.83412239 24.08666296 2.35837129 0.00202470 -0.00301180 -0.00167283
O 19.43418238 19.21401214 3.80267516 -0.00257894 0.00041509 -0.00079001
O 12.89840027 27.73953843 14.25134948 0.00140553 0.00463046 -0.00167992
O 13.92936458 22.87184226 15.35340491 0.00024860 -0.00404141 0.00020437
O 16.95042744 20.49035183 21.26342298 -0.00440196 -0.00738101 -0.00165187
O 15.52031825 24.85821960 20.00917815 0.00072563 0.00246142 0.00389063
O 13.68374745 24.06223075 21.70554583 -0.00529612 -0.00193112 0.00045185
O 11.92806305 0.35536358 20.16222602 0.00033993 0.00266887 -0.00231665
O 16.23207448 23.78679281 14.22763664 0.00009379 -0.00017856 0.00084948
O 17.65082268 19.15671632 15.38595607 -0.00083539 0.00175049 -0.00140719
O 11.34808639 27.79667070 26.18613267 -0.00289464 0.00239272 -0.00260741
O 12.38424842 22.96337160 27.25859138 -0.00313520 -0.00235032 0.00383312
O 15.15018356 20.13515768 33.34197532 0.00203070 -0.00291776 -0.00511585
O 13.93658692 25.02651120 31.87876775 0.00066250 -0.00464373 0.00615531
O 11.78565994 24.34991559 33.07185088 0.00309511 -0.00024764 0.00170914
O 10.31147510 0.03927960 31.74258807 0.00157475 0.00277922 0.00120838
O 14.65924626 23.83390257 26.07329893 0.00144137 -0.00227436 -0.00043521
O 16.26427531 18.98411903 27.29443861 -0.00001833 -0.00029712 -0.00006718
H 0.00167396 9.00870331 2.93874771 0.01447301 -0.01155274 0.00586731
H 2.92317950 4.11582554 3.24599756 -0.04670537 -0.01328119 0.01046420
H 5.46541016 0.72695265 9.02174824 -0.02675424 0.00344998 0.01022362
H 2.54925705 5.51047220 8.91096120 0.04732902 -0.00840319 -0.01535014
H 5.80789155 8.48261828 0.71444309 -0.01206063 0.02854278 -0.00652302
H 3.93789202 3.29795130 5.37342539 -0.01489503 -0.00041185 -0.02490437
H -0.28361349 1.40561584 10.93836381 0.01460099 0.00047489 0.00692472
H 1.41914222 6.16425316 6.90528183 0.00044394 -0.00115235 -0.01063571
H 4.07840297 6.49699741 10.82820510 -0.00356347 -0.00826036 0.00872822
H 3.68843419 1.87788068 7.26286534 0.01328271 0.00176838 0.00696960
H 1.24559712 2.93195891 1.12192868 0.01059338 -0.01352790 -0.00176107
H 1.51545100 7.63774252 4.83423527 -0.00241396 -0.00181770 0.00380007
H -1.85869648 5.37690825 35.40599909 0.03083063 -0.02598304 -0.00750444
H -0.20307912 0.47767932 5.85360114 -0.00852996 -0.00597145 0.02003037
H 2.60378931 4.21051125 11.87611967 -0.01744577 0.01703230 0.00463879
H 5.28690336 9.05105037 5.91879249 -0.00412933 0.01043509 0.00750247
H 2.90495009 7.05684767 1.73112292 -0.02203756 0.00395405 -0.01402991
H 0.05912805 1.99825613 4.03309856 -0.00136184 0.02261698 0.00744675
H 2.61851505 2.68828775 10.10616273 -0.00391643 0.00527201 -0.01152078
H 5.46709730 7.42514637 7.80508314 -0.01842923 -0.02024723 -0.02319225
H 4.89754378 4.73126955 9.80108305 -0.05464005 -0.00913086 -0.01931559
H 2.77510310 0.08221870 8.12859513 -0.04355562 0.00174484 -0.01265666
H 0.39087519 4.84496869 2.28582878 0.02054499 -0.00030814 0.01777561
H 2.32526148 9.70766249 3.92906931 0.02436465 0.00040168 0.01449794
H 5.66076045 3.71298617 8.10698121 0.02067395 -0.00462204 -0.00717253
H 2.52409447 8.47372058 9.91924188 0.00267505 0.00589139 0.00575430
H 19.75161511 6.81560416 3.43897586 -0.01003561 -0.01813930 0.00294733
H 2.91540788 1.07135490 2.19461399 -0.03847218 -0.01072888 -0.00564408
H 19.43806405 3.68487492 7.87351486 -0.00412877 0.00558145 -0.01395524
H 1.26648023 7.30019597 9.48837398 -0.01622131 -0.01173710 -0.01882746
H 4.81851592 6.57004071 4.09791091 0.00238885 -0.01183788 0.01393115
H 4.25215909 2.30812990 2.73992559 0.00401034 0.00680113 -0.00599404
H -0.07239280 2.62472825 8.68348676 -0.00596539 -0.03001269 0.02559068
H 0.74820562 8.50493370 10.65264127 -0.02159699 0.01582056 0.01441644
H 5.74307280 5.24555431 4.75576166 0.01071443 0.03658885 -0.00503727
H 4.60893300 1.11849235 1.54165225 -0.00556704 0.01976104 0.01294981
H -1.78792857 9.08489848 14.54690017 -0.04606057 0.02394246 0.01387089
H 1.31099035 4.05172419 14.74149210 0.01563428 0.01777532 0.00767299
H 3.75813026 0.77966726 20.97702360 0.02761923 0.00683862 -0.00314638
H 1.03542517 5.50914845 20.37521646 -0.02573285 0.00912439 0.01606893
H 3.92953339 7.86390324 12.81339373 0.00579661 -0.03218057 0.00209482
H 2.56745464 3.08568616 16.81255703 -0.00455857 0.01706025 -0.00824132
H -1.67435495 1.52482815 22.73951008 0.00118096 0.00872399 0.00473460
H 0.03544149 5.90264195 18.16014647 -0.00864212 -0.00078631 -0.00372497
H 2.40665530 6.69033525 22.37458661 0.00093130 -0.01394573 -0.02643869
H 2.46618310 1.69834571 18.71120025 -0.00000684 0.01040828 -0.00309272
H -0.41067495 2.67756071 13.11299228 0.00177139 -0.01928618 -0.00168165
H -0.27454279 7.80479730 16.58216980 -0.00217776 -0.00106733 0.02443671
H 1.09792307 5.19788685 11.73662380 0.01640641 -0.00773048 0.01297704
H -1.56693671 0.74208238 18.07911594 0.01197393 0.00143864 -0.00775718
H 0.97200034 4.27067927 24.07694787 -0.02727603 0.01701044 0.01773855
H 3.76280665 9.02412311 17.47867807 0.00191056 -0.02715162 0.00777253
H 1.14720688 7.08018603 13.60356646 0.00928686 0.00114688 -0.02072520
H -1.60112504 2.30664242 16.01574220 0.01019561 0.00958628 0.01186293
H 1.06147986 2.81029981 22.10739015 0.02159024 0.00952077 0.01608393
H 3.68584864 7.60299221 19.45146224 0.00490669 0.00879042 -0.01229777
H 3.23792713 4.99663858 21.34943341 -0.00479543 0.00177852 -0.01187456
H 1.40309841 0.35726942 20.05403563 0.03625582 0.01650632 0.01876351
H -1.23817479 4.48508778 14.07614600 0.03055189 0.01148899 -0.00236486
H 0.71683408 9.62236304 15.53080217 0.01448219 0.02687682 -0.00883979
H 4.08607256 4.03679017 19.43300928 0.02967386 0.01462304 -0.00376445
H -0.41489602 7.47255444 21.06489517 -0.01446150 -0.01306606 -0.02886451
H 17.00475661 5.80996289 16.31857310 -0.02651151 -0.00574817 0.00023064
H 2.85525430 0.78477448 13.20052026 0.03017950 0.00560235 -0.03128172
H -2.04405404 4.32066773 19.26450707 0.00632815 0.00859639 0.00340565
H -1.37620314 8.68766596 22.19699634 0.01608200 0.00437416 -0.01710108
H 3.72264163 6.88222345 15.40890193 0.01507069 -0.01848333 -0.01148391
H 1.12762759 0.76001280 13.76531371 0.00919245 -0.01269347 -0.00395564
H -1.80178040 2.92627706 20.34026178 0.00426206 0.00477823 -0.03167872
H 0.41600029 8.68883598 21.98027271 0.00840754 -0.00494775 -0.01191968
H 3.15063448 5.57065047 16.38994380 0.00334052 0.01927476 -0.02537787
H 2.27361102 2.09407575 14.26213603 0.00261364 0.04708330 0.01396665
H -3.14848581 9.31384706 26.27723892 0.00185518 0.01013538 0.00107430
H -0.40412221 4.17174022 26.74446659 0.01864044 0.00253089 0.00005103
H 2.12919538 0.74881432 32.80022608 0.02109978 0.00807894 0.00345923
H -0.44853623 5.73624393 32.66908150 0.00043625 0.00982814 -0.02949745
H 2.43743246 8.35561287 24.36140191 -0.00387819 0.00863606 -0.00184657
H 0.71774907 3.47645537 28.95424365 0.01609306 0.00084342 0.01743776
H -3.46679671 1.30940611 34.63486677 -0.01426761 0.01945495 -0.00163473
H -1.73876503 6.30029315 30.68169257 -0.00133629 0.01980128 0.01507492
H 1.07916524 6.75589159 34.39836922 -0.00324447 -0.00010986 -0.03083767
H 0.67909718 1.95803403 30.84629012 -0.00951860 -0.00693942 0.04137706
H -2.01255895 2.84448585 24.91667310 0.05070362 0.00126047 0.01703359
H -1.80193432 7.71878560 28.65672575 0.00531773 0.00358356 -0.01024020
H -0.50463391 5.39943967 23.77085322 0.01184071 0.01992743 0.01077937
H -3.21922898 0.40668581 29.48905770 -0.02573427 -0.00996475 -0.00156106
H 4.20173587 4.39472036 0.20976693 -0.02044945 0.03532414 0.00425766
H 2.21405166 9.04845761 29.31985453 -0.01025701 -0.00560237 -0.00047150
H -0.38064329 7.16375516 25.53532203 0.00893169 -0.01354376 -0.01870263
H -3.16105094 2.03185771 27.64867582 -0.02433158 -0.01871732 0.00380682
H -0.67341114 2.59609110 34.00693485 -0.02021532 0.00694249 -0.00885988
H 2.26429235 7.61711448 31.33044763 0.01677300 0.00313826 0.01839541
H 1.94411518 4.88920734 33.62083708 -0.00699612 -0.02868362 -0.01490601
H -0.26136138 0.29211618 31.86846330 0.00562212 0.01435668 0.00951437
H -2.92175287 4.77315184 25.80143903 -0.00087909 0.01988031 0.02446540
H -0.90493795 9.52741186 27.52187144 0.01806416 -0.00950011 0.00287496
H 3.10875931 2.77260781 32.11079784 0.02696322 0.03873233 -0.02577002
H -0.92406077 8.68011282 33.61604946 0.01986926 -0.00267168 -0.03120460
H 16.65505264 5.33866258 28.01964729 0.00116222 -0.01532908 0.00252346
H 1.89095162 1.10136815 25.18387001 -0.02858800 -0.01244839 0.00891737
H 16.28775762 3.58016849 31.63412960 -0.02049278 0.00361720 0.00603118
H -2.19976025 7.45097695 33.18224593 -0.00428600 0.01056431 -0.00564842
H 1.38308409 5.99411380 28.25072475 -0.00266102 -0.00085198 0.00288678
H 0.18271535 0.60052138 25.14823958 0.00184197 0.01055008 -0.01489877
H -2.97268029 2.57547867 32.30621703 0.00958394 -0.01414155 0.03194354
H -2.72488004 8.71570693 34.14273537 -0.02563894 0.02428796 0.03903110
H 3.06295069 5.50209088 28.07939150 -0.00331322 0.01451234 -0.01079579
H 0.53892705 2.12673352 25.94875110 0.02897961 0.00230995 -0.02796664
H -0.06498007 18.51512920 2.72808626 -0.01432667 -0.04572543 0.00895130
H 2.67075757 13.68023706 3.35066818 -0.01202380 -0.00571516 0.00499932
H 5.40212457 10.28202623 9.24405971 -0.00265797 -0.00014163 -0.00504492
H 2.54528258 14.89334768 8.54681294 -0.03810229 -0.02038036 0.00620768
H 5.66267740 17.93854729 0.76856775 0.02712005 0.00666946 -0.02573099
H 3.94436981 12.97410471 5.26228310 0.00282562 0.00180841 -0.00422321
H -0.28582365 11.01149448 11.01847754 0.01359822 0.00475723 -0.01318815
H 1.27935139 16.01181035 6.78734063 0.01069389 -0.00661705 -0.01752173
H 4.29534556 16.18916369 10.40706508 0.01024466 0.01503637 0.02739978
H 3.98303075 11.48858530 7.22984400 0.00871005 0.00083145 0.01474398
H 1.06910242 12.45344499 1.24427106 0.00617228 -0.01052572 0.01198080
H 1.33596550 17.41838743 4.75601968 0.03143113 0.01738780 -0.00191886
H -2.05059885 14.92983265 35.28848163 -0.00668206 -0.00400804 0.00430687
H -0.02372225 10.09419534 6.30242229 0.00297773 0.01795719 0.02764700
H 2.73450994 13.99437715 11.71552523 -0.00847167 0.00792483 -0.00047805
H 5.30886857 18.77032269 5.91958418 0.01294794 -0.00093954 -0.00800404
H 2.79578846 16.55608241 1.66831970 -0.00506685 0.01001361 0.00457656
H -0.13500773 11.52164564 4.41305084 0.02160521 -0.00519727 0.00019728
H 2.42270326 12.30698647 10.08077865 0.00726432 -0.00640104 -0.00118132
H 5.35449880 16.98430861 7.70318511 0.00310112 0.00319292 0.01204147
H 5.19791459 14.41423993 9.41337227 0.01083927 0.00846683 0.02425833
H 2.97714369 10.00259127 8.60826184 0.04635035 0.01694734 0.04765762
H 0.24115479 14.28357283 2.24054706 -0.03329412 0.00477327 0.00331346
H 2.43838143 19.20763129 3.58474037 -0.00494143 -0.01144789 0.00107947
H 6.07331196 13.53632274 7.38309506 -0.00056151 0.00394167 0.03136140
H 0.90162838 18.53980042 10.52269807 0.01616404 0.00950254 -0.04007529
H 18.85653924 16.72593929 3.70000392 0.00034585 0.01396455 0.03654446
H 3.60763972 11.75156201 2.93531761 0.01504809 -0.02959295 0.00541601
H 0.08102233 13.64993582 7.03025312 -0.00640444 0.00273595 0.01289760
H 2.28999426 17.90687336 9.57496484 -0.03415838 0.02089359 -0.01532204
H 5.73858186 16.45396251 3.43112560 -0.00766654 0.00095483 0.00571629
H 5.01670685 11.10085175 2.01227765 0.03297222 0.03101255 0.01695458
H 19.06873041 13.65103813 7.94496088 -0.00168107 0.00852532 -0.00914295
H 0.68648060 17.12675285 9.35544757 0.01444377 0.01913146 0.00282554
H 4.51713640 15.66140173 4.27991589 0.01700755 -0.02244272 -0.01656532
H 3.37014406 10.35010189 1.78804853 0.03469806 -0.00060529 0.02836128
H -1.76685984 18.67567381 14.52130968 0.00347319 -0.00560034 0.00135822
H 1.21789401 13.76528888 14.95879196 0.01606448 0.00578712 0.00923665
H 3.74481220 10.42288905 20.72504228 -0.02091543 0.01623551 0.00825357
H 0.81266605 15.10408007 20.26282925 -0.02866889 0.00466090 0.01740542
H 4.03196975 17.64600775 12.53566674 0.00936412 0.01612329 0.01995846
H 2.39410109 13.00121974 17.05405125 0.00676905 0.00893899 -0.00668452
H -1.97775733 10.98140658 22.84396970 -0.00344980 -0.01620077 -0.02684695
H -0.41672946 16.11462432 18.47349927 0.01210429 0.00271003 0.02495640
H 2.50059740 16.48279575 22.24007972 -0.01994189 0.00806658 0.01373043
H 2.28682445 11.15628274 18.88344963 -0.00725891 -0.00296004 -0.00354101
H -0.25997547 12.62303862 12.83588857 -0.01520608 -0.01798141 -0.01587037
H -0.34992433 17.44898914 16.48661828 -0.01742681 0.00402783 0.01105151
H 1.17752395 15.15256495 11.72890229 -0.00387818 0.00246089 -0.01595550
H -1.71861324 10.25227843 17.81915161 -0.00733511 0.01009100 0.00188974
H 0.99273162 13.97138899 23.54534116 0.00059118 -0.00353770 -0.01467144
H 3.68421863 18.76482639 17.52405697 0.02730845 0.00622485 0.02093991
H 1.24946886 16.91336895 13.35558750 -0.02626672 -0.01041182 -0.00949392
H -1.55808554 11.77321958 15.93084782 0.01185847 -0.00336609 0.02032484
H 0.93617167 12.30913164 21.72766102 0.01532490 -0.02339746 0.01987565
H 3.78271724 16.95083641 19.13240277 0.04522446 0.01090566 0.01167467
H 3.57139760 14.63990672 21.32890102 -0.01337461 0.00525863 -0.02716641
H 1.23267304 9.52103604 19.74547305 0.03993366 0.00095560 0.02991291
H -1.25408328 14.31134325 13.89098194 -0.02203117 0.00042629 -0.00482760
H 0.75256762 19.08554992 15.28348710 -0.03889781 -0.00319454 -0.03556402
H 5.27678204 12.33158926 20.11474599 0.01670511 0.02629647 0.00278354
H 0.09073650 18.79214772 22.43501323 -0.00754442 -0.01148819 -0.00842197
H 17.13153963 16.46592030 15.34878199 0.01183783 -0.02219521 -0.00565169
H 2.41608145 10.47935643 13.03171247 0.02536700 0.00497851 0.01750900
H -1.08939823 13.43978286 19.03361632 0.00668349 -0.01446233 -0.03490924
H 0.16435671 17.19727123 21.39164480 0.00948406 -0.02307923 -0.01557311
H 2.64407948 15.51190328 16.11147238 -0.01591036 -0.03234009 -0.01355105
H 1.41346985 11.32846050 14.24212067 -0.00570592 0.02557839 0.00418491
H 17.80081746 13.64096980 19.48458088 0.01342226 -0.01177607 0.02736141
H -1.41129312 17.96024223 22.05591205 -0.00230867 0.01104783 -0.00538471
H 4.37412352 15.01355932 16.29783839 -0.00627158 0.00877236 -0.00769687
H 3.15601014 11.62719856 14.14800871 0.03447837 0.02859260 0.02072614
H -3.10601647 18.55799774 26.27442067 0.00225015 0.01374447 0.00806534
H -0.32884598 13.86198173 26.85612589 -0.00093754 -0.00391686 -0.00448370
H 2.40343739 10.32581639 32.74943900 0.01177785 -0.00949798 -0.01349355
H -0.74319548 15.30449951 32.49098504 0.03306266 -0.00454342 -0.02236576
H 2.50128132 18.00670424 24.21089403 0.00256783 0.00851345 0.00295069
H 0.76436923 12.85786966 28.63464040 -0.00683038 -0.00938551 -0.00208370
H -3.50798921 11.10044290 34.69627791 -0.00516903 -0.00300998 0.00026807
H -1.71447502 15.83327331 30.37414054 -0.03477145 -0.01667207 0.01247012
H 0.98464628 16.59296298 34.23366477 0.00065467 0.00054218 -0.00884977
H 0.77603411 11.50812834 30.67774760 0.00012561 0.00266283 0.00013142
H -1.99826051 12.56214298 24.66547287 -0.01965445 -0.00285450 0.00616324
H -1.59554581 17.45094442 28.33252802 0.02189728 0.00808515 0.01441487
H -0.53480473 14.99111093 23.48073832 0.02525059 0.00143765 -0.01451548
H -3.35495495 10.35218062 29.69284024 0.00905117 -0.00032155 0.00004715
H 4.04859543 13.89912521 0.09779832 -0.00333548 -0.00089839 0.01187295
H 2.30526086 18.60397781 29.46877952 0.00475831 -0.00348213 -0.00031762
H -0.47475859 16.69355711 25.29140216 0.00326268 0.01853846 0.01799712
H -3.37562287 11.98863561 27.95926431 0.01549107 0.00549166 0.02294412
H -0.63203867 12.05908274 33.76987100 0.01356578 0.00932513 -0.00581018