2160
Time=77000.00000008 pbc="T T T" Lattice="20.60023524 0.00000000 0.00000000 0.00000000 29.07141857 0.00000000 -4.72396673 0.00000000 35.48344333" energy=-13801.75330269 virial="-47.68256678 -9.70154996 85.36849641 -9.70154996 -44.41259503 -7.36729345 85.36849641 -7.36729345 -21.05322862" stress="0.00009349 -0.00054785 0.00405801 -0.00054785 0.00027605 -0.00033688 0.00405801 -0.00033688 0.00124468" Properties=species:S:1:pos:R:3:vel:R:3
O 0.77930792 8.56239208 2.05499297 -0.00199846 0.00734917 0.00517009
O 2.14086612 3.52395657 3.20922381 0.00653189 -0.00028220 -0.00043295
O 4.51371156 1.28960394 9.03302161 -0.00188678 -0.00169048 0.00357710
O 3.24248780 6.17394285 8.33126962 0.00174572 -0.00131501 -0.00207876
O 1.34018506 4.82658895 9.43817992 -0.00601228 0.00934693 0.00337934
O -0.26944023 9.87770750 8.32094358 0.00324438 -0.00032959 0.00550592
O 3.90566056 5.05256958 2.11546523 0.00564565 -0.00154147 0.00228789
O 5.42935477 29.05098112 3.60817069 -0.00402823 0.00391612 0.00138072
O -0.70570330 8.44027958 14.11765753 0.00137320 -0.00437194 -0.00087135
O 0.31344079 3.92598824 15.27132847 -0.00370955 -0.00064263 0.00261991
O 3.01022483 1.12940327 21.16259017 -0.00014165 0.00305841 0.00123006
O 1.47539650 5.99656319 19.89491471 0.00164988 0.00272486 -0.00167535
O -0.39576642 5.03571033 21.29194454 -0.00340812 -0.00058747 -0.00053090
O -1.81644083 9.86369492 20.17798620 -0.00034475 -0.00116889 0.00173177
O 2.56760183 4.64585897 14.07732033 -0.00239924 0.00175513 0.00054975
O 4.25147809 28.72711831 15.09851215 0.00350896 -0.00194005 -0.00022384
O -2.39685397 8.70586177 25.85591010 0.00254299 -0.00264940 0.00263432
O -1.31373052 3.75292715 27.15423727 0.00057068 0.00194222 -0.00678149
O 1.26502172 1.08838195 33.29443981 0.00337477 0.00012384 0.00111166
O 0.16322941 5.76976977 31.97029357 -0.00083900 0.00588772 0.00083062
O -1.74159680 4.67354541 33.23751471 -0.00077525 -0.00089428 -0.00059894
O -3.46860872 9.55734432 31.77952481 0.00001672 -0.00778313 0.01012427
O 0.85549171 4.59061483 25.94586268 0.00029015 -0.00101303 -0.00046739
O 2.44050735 29.03606874 27.24905904 0.00324840 -0.00027088 -0.00315098
O 0.83758742 18.21003422 2.49244683 -0.00180718 -0.00021265 -0.00128841
O 2.11473485 13.39927979 3.51953015 -0.00201930 -0.00108370 0.00360757
O 4.44452035 10.77823280 9.56766154 0.00108700 0.00026629 -0.00472912
O 3.46514718 15.44515040 8.88187883 0.00032005 0.00101840 -0.00178137
O 1.20939104 14.50218166 9.78538966 -0.00004100 0.00030797 -0.00629865
O -0.21879967 19.22598431 8.32906218 0.00513565 0.00113892 0.00317528
O 4.11337188 14.17866884 2.17402621 0.00013408 -0.00498876 0.00235252
O 5.51937616 9.67439151 3.18639317 0.00457161 -0.00348691 0.00254725
O -0.85589097 18.47133849 14.15099710 0.00052593 -0.00439883 0.00410816
O 0.32703074 13.54406588 15.34015627 -0.00279969 -0.00188590 -0.00567770
O 3.07014876 10.82590336 21.17215009 0.00073910 -0.00125520 0.00217294
O 1.52204578 15.93166765 20.30788186 -0.00000359 0.00452175 -0.00099884
O -0.47872300 14.68669938 21.44808737 0.00009444 0.00434133 -0.00663557
O -1.69321052 19.91065069 19.93893684 0.00341617 -0.00019254 -0.00021729
O 2.20779295 14.74761001 13.96120454 0.00108110 0.00106541 -0.00393909
O 3.78425697 9.59587518 15.30659641 -0.00086098 -0.00057346 0.00144608
O -2.37572485 18.50513678 26.08414026 -0.00208930 0.00156504 -0.00335532
O -1.21375057 13.21152083 27.12645102 -0.00543545 -0.00392663 0.00392374
O 1.25248308 10.64612623 32.86331989 -0.00286252 0.00285765 0.00031252
O 0.31009597 15.71467337 32.07563425 0.00150212 0.00123352 0.00202047
O -1.79489818 14.50691781 33.22809914 0.00446265 0.00194039 -0.00696675
O -3.09705107 19.04729228 31.76595638 -0.00081254 0.00173930 0.00139854
O 0.70499910 14.27528612 25.91265540 0.00298736 -0.00305461 -0.00459079
O 2.23906791 9.59519776 27.29554320 0.00629044 -0.01034157 -0.00257076
O 0.60174237 28.02313976 2.54223243 0.00131380 0.00195025 -0.00039099
O 1.91103368 23.01100816 3.69244431 0.00357390 0.00086078 0.00236069
O 4.59692941 20.35856431 9.42229826 -0.00090623 0.00208630 -0.00441571
O 3.24189940 25.43649612 8.40966995 0.00072428 -0.00255340 0.00453342
O 1.13463264 24.06050125 9.28422272 -0.00254331 0.00293183 0.00825950
O -0.35668209 0.11669555 7.99971100 0.00355214 -0.00308835 -0.00286185
O 4.01516564 24.06068002 2.58345450 -0.00460648 0.00094139 -0.00503988
O 5.87928498 18.87207559 3.85262505 -0.00588792 0.00545830 -0.00360780
O -0.79221890 27.82755202 13.91021367 -0.00543732 -0.00359608 0.00269244
O 0.24851630 23.34165998 15.31991186 -0.00233230 -0.00313032 0.00308921
O 3.20582676 20.57607239 21.36097294 0.00311488 -0.00357766 -0.00556342
O 1.79633372 25.62839861 20.22887134 -0.00059757 -0.00557510 -0.00283845
O -0.17390195 24.19663868 21.52358206 0.00121062 0.00010955 -0.00119794
O -1.61082914 0.33007889 20.00306576 -0.00671444 0.00648342 -0.00413488
O 2.31049798 24.11424341 13.92138238 0.00012759 0.00427421 0.00096106
O 4.22800382 19.40524814 15.57081183 -0.00137579 -0.00130952 -0.00354921
O -2.40072324 28.13697649 26.03931397 0.00100242 -0.00425447 -0.00291968
O -0.95960784 23.28426680 27.51515519 -0.00206743 -0.00520775 -0.00555465
O 1.54572878 20.64451454 33.06394156 -0.00035749 0.00342587 -0.00220576
O 0.31787895 25.51133927 32.08058297 0.00228059 -0.00165594 -0.00112988
O -1.86624685 24.05455732 33.64667940 0.00635854 0.00086679 0.00001577
O -3.54686576 28.82970050 31.85108477 0.00022088 -0.00314608 -0.00393266
O 1.05408788 24.09975411 26.25501428 -0.00140968 0.00366097 0.00754851
O 2.31999612 19.00176251 27.20605944 0.00497704 -0.00171941 0.00444938
O 7.80942148 8.63214046 2.54002802 -0.00226772 -0.00777315 -0.00563894
O 8.74160076 3.84416685 3.63460508 -0.00434548 -0.00217488 0.00354884
O 11.37372042 1.11386731 9.38818589 0.00387653 0.00453545 -0.00531202
O 10.26577595 5.69830102 7.99392933 0.00134515 -0.00156746 -0.00050527
O 8.15529520 4.86920720 9.44213644 0.00113812 0.00344478 -0.00415332
O 6.55958315 10.02797593 8.37111925 -0.00156384 -0.00009603 -0.00301740
O 10.95981057 4.81542983 2.19677203 -0.00196237 0.00477790 -0.00354100
O 12.25819353 28.77085105 3.52078999 -0.00274251 -0.00117376 0.00222346
O 5.96600280 8.47083491 14.18102136 0.00102841 0.00399258 0.00316695
O 7.27189267 3.89797021 15.41582657 0.00382209 0.00063347 0.00242172
O 9.98199709 1.30422769 21.00327503 -0.00661226 0.00052759 0.00422670
O 8.68032788 6.02887115 20.32229644 0.00031804 0.00387035 0.00699517
O 6.58397354 4.83529533 21.45523606 -0.00346472 0.00212688 0.00135116
O 4.94270151 9.53266087 19.99429186 0.00183801 -0.00390483 -0.00195151
O 9.09778790 4.79248975 14.01188162 0.00989522 0.00108564 0.00007484
O 11.20526988 0.11014956 15.53218197 -0.00766055 -0.00037556 -0.00094952
O 4.40399110 8.67003493 26.11396584 0.00116334 0.00362763 0.00492837
O 5.55563322 3.75229341 27.12934633 0.00216826 -0.00398185 0.00055477
O 8.19156622 1.13677401 33.01415270 -0.00470543 -0.00031470 -0.00405340
O 6.96601126 5.97284802 31.88649585 0.00543733 0.00088216 0.00042077
O 5.10787393 4.87896078 33.17284181 0.00099887 -0.00099848 0.00146592
O 3.36454397 9.60982558 31.81825643 -0.00663070 -0.00122553 0.00342651
O 7.60461481 4.67484350 25.92699803 -0.00240985 -0.00376819 0.00378657
O 9.09189525 0.14748029 27.23680161 0.00005956 0.00201563 0.00018146
O 7.69604552 17.89465626 2.35480150 0.00151870 0.00146797 -0.00389163
O 9.02788308 13.25132832 3.48268206 -0.00052962 0.00029022 0.00328135
O 11.45972816 10.64709404 9.33873800 0.00107905 0.00161698 0.00145998
O 10.27209749 15.27059006 8.07097765 0.00216000 0.00016484 0.00237056
O 8.39295600 14.40410695 9.66848018 -0.00501595 -0.00792839 0.00571863
O 6.69624864 19.40914321 8.22019848 0.00608083 -0.00851728 -0.00259942
O 10.72360368 14.47081506 2.12297950 0.00203949 -0.00096364 0.00401393
O 12.46439753 9.56961117 3.58880992 -0.00123716 -0.00034895 -0.00101136
O 6.10692206 18.45278609 14.15935129 -0.00161625 0.00088375 0.00746308
O 7.07172941 13.50517077 15.47375410 0.00538126 0.00064213 -0.00103675
O 9.71329769 10.78749092 21.37302829 0.00077952 0.00434022 -0.00356544
O 8.54769256 15.79941193 20.47202416 -0.00127103 -0.00122127 -0.00026875
O 6.36197795 14.30865246 21.54163419 0.00288556 -0.00174592 -0.00020847
O 4.87134844 19.11460783 20.14576582 -0.00931101 0.00638946 0.00103193
O 9.18329581 14.40670336 14.00851923 0.00497221 -0.00612074 0.00390984
O 10.75096216 9.58578853 15.28121334 0.00315205 0.00119004 0.00012180
O 4.61157155 18.43167492 25.99351891 -0.00041329 0.00318873 -0.00063793
O 5.39164143 13.50091966 27.38274043 0.00035283 0.00641939 0.00191992
O 8.25913743 10.63444979 33.07727615 -0.00192797 0.00729399 0.00088923
O 7.23837492 15.64557936 31.77624541 0.00345967 0.00746696 0.00023337
O 5.01150025 14.49709803 32.82702350 -0.00870627 0.00105527 0.00817578
O 3.40883627 19.35635551 31.96697299 0.00398517 0.00279807 0.00388524
O 7.55951779 14.61103289 25.97705935 -0.00356916 -0.00399862 0.00599244
O 9.19859446 9.50969130 27.14633938 0.00259260 -0.00662878 -0.00132181
O 7.58649669 27.93592270 2.56702219 0.00175039 -0.00080594 0.00185018
O 8.85058316 22.98399933 3.57292556 -0.00124792 0.00631340 -0.00136939
O 11.56750268 20.23177368 9.55843749 0.00047864 0.00448241 0.00511162
O 10.37891050 25.36454239 8.18417272 -0.00092287 -0.00321015 -0.00025086
O 8.08539016 24.34958373 9.27818136 -0.00309950 0.00707231 -0.00015001
O 6.54748651 0.05097833 8.34805174 0.00583304 0.00191497 0.00526617
O 10.85495051 24.15597320 2.58896791 -0.00512264 0.00799350 -0.00187657
O 12.40714903 19.19394997 3.81079078 0.00180868 -0.00757141 0.00266040
O 6.41898843 28.19300765 13.79700570 0.01105071 0.00255459 -0.00120162
O 7.28973362 23.00803945 15.67581530 0.00003266 0.00481915 0.00214710
O 10.10229791 20.30200166 21.71329786 0.00631819 0.00450855 0.00273732
O 8.79104512 25.25513044 20.00331121 0.00175344 -0.00606576 0.00156801
O 6.62535827 24.92980659 21.28143703 0.00021297 0.00313195 -0.00058179
O 5.16065816 0.47563219 20.12756407 -0.00473477 0.00783279 0.00336939
O 9.23208746 24.02011497 14.15610786 0.00031449 0.00175212 0.00109797
O 10.81374341 19.28842556 15.73854049 -0.00184468 -0.00261137 -0.00013074
O 4.50442891 27.81794520 26.29274406 0.00034614 -0.00185697 0.00250975
O 5.53720383 23.57302801 27.91170638 0.00228798 -0.00319734 -0.00512858
O 8.33883993 20.23081381 33.36099808 0.00197905 -0.00322542 -0.00123459
O 6.93249948 25.48256685 32.15417333 0.00018554 0.00337443 -0.00596790
O 5.02733264 24.14078644 33.29334469 0.00184513 -0.00173504 0.00722129
O 3.52655435 0.50681791 32.17324662 -0.00314236 0.00103782 0.01002575
O 7.67732755 23.80014447 26.28717662 0.00063018 -0.00464547 -0.00145839
O 9.20306770 19.46551282 27.20827401 -0.00033431 0.00443425 0.00175727
O 14.63969210 8.19822926 2.54869929 0.00115230 -0.00236610 -0.00435596
O 15.75514480 3.63298128 3.39584426 0.00041301 -0.00088889 0.00578203
O 18.17450208 1.14101099 9.18905993 -0.00277129 -0.00393486 -0.00438012
O 17.21311029 5.99126340 8.21491278 0.00488811 -0.00512970 -0.00187613
O 14.95249715 4.83977447 9.26873327 0.00012975 0.00339387 -0.00067581
O 13.70720869 9.94334470 8.20866561 0.00576586 -0.00357325 0.00136432
O 18.03151915 4.35515202 2.28425596 -0.00417148 -0.00246034 -0.00471955
O 19.45794036 0.02204311 4.07456375 -0.00516773 -0.00007282 -0.00377307
O 12.96314522 8.35041753 14.17618116 0.00127326 0.00275662 -0.00296577
O 14.02079898 3.81416629 15.29113021 -0.00548723 -0.00394064 0.00077695
O 16.80772946 1.28234547 21.32958235 -0.00067410 0.00666690 -0.00073874
O 15.51666329 5.91958667 20.03244399 -0.00659093 -0.00054934 -0.00293805
O 13.50653719 4.93558098 21.37808285 0.00655977 -0.00003436 -0.00129360
O 11.85756058 9.90977625 20.07140861 0.00394579 -0.00574780 0.00566193
O 16.25976226 4.60112424 14.23800311 -0.00353041 0.00418901 -0.00053368
O 17.91992580 28.72947814 15.32348582 -0.00242511 0.00557873 -0.00355817
O 11.27548049 8.59961891 25.93763797 -0.00203735 0.00117586 0.00277721
O 12.46599950 3.84149129 27.26256251 0.00546305 -0.00023551 -0.00663862
O 15.01001399 0.54389885 33.20251829 -0.01014209 0.00358457 -0.00251121
O 14.02212247 5.79111156 31.49379631 -0.00017833 -0.00334054 0.00685910
O 11.86796661 4.74650713 33.15310131 0.00305685 -0.00462286 0.00136791
O 10.49729996 9.74461187 31.87043730 -0.00683508 0.00194315 0.00175891
O 14.48323170 4.66786185 25.97014711 0.00350556 -0.00129676 0.00084997
O 16.10202794 29.05073397 27.15885771 -0.00057220 -0.00165497 -0.00391566
O 14.68967503 18.51387667 2.43048167 0.00099148 0.00129450 0.00246176
O 15.79173252 13.40835156 3.58304611 0.00140520 0.00421513 0.00421426
O 18.33168665 10.87104877 9.70717427 -0.00032651 -0.00073706 0.00084471
O 17.21354891 15.93165708 8.54480774 0.00089812 -0.00626741 0.00288211
O 15.02849276 14.89815045 9.43861077 -0.00678221 0.00003736 -0.00121635
O 13.44323263 19.22699914 8.00924652 -0.00624878 -0.00615224 -0.00124559
O 17.68611777 14.38043173 2.23695724 0.00456620 0.00346023 0.00727695
O 18.96956331 8.90088264 3.14830428 -0.00434570 -0.00757733 0.00237903
O 12.44755313 18.40889771 14.04531869 0.00423312 0.00317950 -0.00112635
O 13.90034604 13.39364876 15.22380242 0.00399678 0.00173554 0.00196078
O 16.82263045 11.15254036 21.19593905 -0.00236930 0.00207577 -0.00376905
O 15.54085334 15.67457881 19.91517843 -0.00642552 0.00344229 0.00254095
O 13.32091246 14.76872758 21.24714933 -0.00614998 0.00576221 0.00028565
O 11.81308993 19.21083591 20.22535572 0.00058641 -0.00971577 -0.00029652
O 15.85866344 14.59128132 14.21936278 0.00071869 -0.00143213 -0.00456056
O 17.64163824 10.18054949 16.02168252 0.00033278 -0.00220322 0.00110175
O 11.29389167 18.45797049 25.98751103 -0.00542390 -0.00556483 -0.00402626
O 12.32136878 13.40485044 26.84482132 -0.00210960 0.00030483 0.00843060
O 15.08423086 10.85712393 32.92236493 -0.00116506 -0.00420194 0.00172245
O 13.62994895 15.59221227 31.86513652 0.00004487 -0.00028371 0.00558246
O 11.58170164 14.68734462 33.27234292 -0.00262884 -0.00818751 0.00147531
O 10.44463506 19.96112196 31.83033669 0.00336673 -0.00386865 -0.00359925
O 14.51130118 14.49580236 26.08867621 -0.00123776 0.00499238 -0.00009043
O 16.20219646 9.63803258 27.09433904 -0.00429543 -0.00186350 0.00116086
O 14.57185081 28.17822018 2.44592784 0.00356661 -0.00237014 -0.00128772
O 15.78484215 22.99460219 3.39940659 0.00137869 0.00177757 0.00105943
O 18.26184537 20.41951885 9.32332343 0.00488717 -0.00004343 0.00301702
O 16.92482025 25.05036077 8.19849387 -0.00265629 -0.00390249 0.00606960
O 15.03206607 24.31832666 9.77811316 0.00224005 -0.00196005 -0.00668844
O 13.52255657 0.19515701 8.39156909 0.00546176 -0.00407295 -0.00147424
O 17.72855836 24.10343837 2.15509304 -0.00125126 0.00132843 -0.00685329
O 19.33587408 19.95268453 3.96494425 -0.00538955 -0.00216369 0.00148752
O 13.07665628 28.02444132 14.36511950 -0.00216075 0.00269934 0.00479359
O 14.19487349 23.16410265 15.67054901 -0.00289637 -0.00502196 0.00285989
O 16.83224487 20.58801566 21.37121525 -0.00195509 -0.00226088 0.00219749
O 15.74138522 25.52152407 20.46351360 0.00036852 0.00458241 0.00380732
O 13.57145167 24.73739408 21.58484092 -0.00329001 -0.00170047 0.00474999
O 11.88489142 28.93447624 19.86632357 0.00619783 0.00544724 0.00476686
O 16.05834227 24.05355462 14.08790014 0.00172820 0.00361537 0.00332679
O 17.53023159 19.11834934 15.14646072 0.00234564 -0.00091274 -0.00095483
O 11.20916356 28.15746189 26.28911519 -0.00106225 -0.00599704 0.00438168
O 12.98453076 22.67729139 26.83704731 0.00438051 -0.00219812 -0.00663425
O 15.40735366 20.51824329 32.76890177 -0.00398116 0.00563008 0.00333913
O 13.98344930 25.19517770 31.79966587 -0.00342665 0.00119682 -0.00408422
O 11.65330138 24.64582328 33.07060154 -0.00226203 -0.00208181 0.00277050
O 10.30816839 0.08858341 31.92028326 -0.00236261 -0.00092704 0.00157483
O 14.82031471 24.51642046 26.06176949 -0.00097372 -0.00106969 -0.00060762
O 16.04737230 19.17359816 27.31388391 0.00368994 -0.00186611 -0.00222123
H -0.13361601 8.77651621 2.46072520 -0.00144351 -0.01376316 -0.01710180
H 2.92935790 4.14439716 3.11187205 -0.01647010 0.01869286 -0.02870725
H 5.32399688 0.77757523 8.75273894 0.00750462 -0.01202742 -0.02548379
H 2.42989848 5.63831775 8.62020653 -0.01443656 -0.01702412 -0.00449043
H 5.82998070 8.24233707 1.04788787 -0.00937459 -0.03952386 0.01970427
H 4.13383837 2.72693617 4.68634227 0.01885359 -0.01091990 -0.01150728
H -0.32044979 1.47817181 10.99324270 0.00796456 -0.02033694 -0.00333883
H 1.70819626 5.92806815 6.24801693 -0.00515613 0.00332346 -0.00242519
H 4.13433515 7.06076987 10.44021337 0.00039429 0.00585585 0.00754992
H 4.08336484 1.33209946 6.64471328 -0.01697921 -0.02945234 0.01909239
H 1.41011324 2.68003617 0.94645304 0.03086147 0.01385269 0.02269594
H 1.50724722 7.88794716 4.58055835 -0.00202836 0.00954620 -0.00828317
H -1.96364962 5.34042405 35.08313901 -0.01252469 -0.02561004 -0.00904744
H -0.16585269 0.76623416 6.03183738 -0.01940421 0.01916362 -0.01576170
H 2.70372109 4.38686196 11.91783451 0.01099098 -0.00941847 0.00044142
H 5.40724871 9.18663112 5.69546865 -0.00100955 -0.00801108 -0.02608018
H 2.75040874 7.05384322 1.37717895 0.02669842 0.01317077 -0.01056905
H 0.06865611 2.11333333 3.90732736 -0.00829691 0.00726980 -0.01319130
H 2.63320470 2.88248682 9.72007469 -0.03124739 -0.00624557 -0.00266979
H 5.32452765 7.64847957 7.77536543 -0.02874018 0.01964573 0.00653210
H 5.04531966 5.32695526 9.27503534 -0.00974020 0.00046324 -0.00399321
H 2.88381616 28.95106651 7.82236397 0.01202995 0.00530872 -0.01334176
H 0.55235699 4.37235610 2.13133926 -0.00152253 -0.00661510 -0.00812481
H 2.46657142 9.71347246 3.63950877 0.01488569 0.01367221 0.01326860
H 7.07699881 3.96989726 7.11373306 0.00417597 0.00206039 0.01120748
H 1.67546647 9.06322526 10.37693322 -0.00630604 -0.01927489 0.01199471
H 18.54074083 6.22073128 3.95046780 -0.01649278 -0.00594189 -0.02050752
H 4.45046210 2.08053785 2.24983329 0.02472990 0.02465519 0.01958301
H -0.94203628 2.94895932 8.26691958 -0.00946136 -0.01357298 -0.01649742
H 1.50352773 7.61055465 9.43300394 -0.01073014 0.01387117 -0.02394978
H 6.18968060 6.00004858 4.20062518 -0.00731247 -0.01366731 -0.00156831
H 4.55525082 0.69382984 1.13818575 -0.01529530 0.00238498 0.00142079
H 0.77532304 3.05712677 7.71909398 0.00508139 -0.00256192 0.02193868
H 0.13088075 8.40703693 10.12516066 -0.00676506 -0.00068762 -0.00402244
H 4.70533683 6.90454236 3.96228770 -0.01147372 -0.00269262 0.00113400
H 3.01617000 1.15626413 1.77457009 0.00295248 0.00819816 0.00659456
H -1.37620618 9.13688322 14.01282741 -0.00608821 0.00294057 -0.00834066
H 1.24687414 4.25185779 14.96973854 0.00089360 0.01208643 -0.02058179
H 3.78006084 0.73514154 20.71454755 0.01076248 -0.01079549 0.01884081
H 0.64633549 5.65645752 20.35609206 0.01336737 -0.03855005 -0.01173077
H 3.99912682 8.22760867 12.59708384 -0.01041683 -0.00524177 -0.01056512
H 2.41184677 3.38739753 16.87279532 0.00536265 -0.00724692 -0.01007707
H -1.92948468 1.59351813 22.97603027 0.00527390 -0.00870245 -0.00643065
H -0.26421948 6.23429388 18.07483575 0.01183555 -0.02434298 -0.00200402
H 2.57895986 6.97184544 22.27686027 0.00127603 -0.00688387 -0.02143230
H 2.47148990 1.80190893 18.65656869 0.03208739 -0.00902486 0.00044909
H -0.46117696 2.55645520 12.93156125 -0.02123950 -0.00879075 -0.00728754
H -0.42041882 7.91376615 16.20425053 0.00952073 -0.01246170 -0.02212926
H 1.01150003 5.03662527 11.72330001 -0.00508664 0.01006855 -0.00378708
H -1.49427889 0.51290791 17.75775124 -0.00360109 0.01353306 0.03529889
H 0.96247124 4.08856273 23.73307816 0.01396166 0.00560640 0.00742996
H 3.49574437 9.22494952 17.53315770 -0.01009881 -0.00134619 0.00026137
H 1.02294282 6.65821862 13.61789091 -0.01832166 -0.01781813 -0.01247566
H -1.67033374 2.14014851 16.00981874 -0.00683294 -0.01372325 0.01497629
H 1.06491861 2.63887528 21.72510736 0.02507584 -0.01057453 -0.01357494
H 3.50430997 7.81991825 19.44579139 0.01405454 0.01044323 -0.02440844
H 3.29827052 4.87533115 21.45206056 0.00069166 0.01864901 0.00540563
H 1.44942708 0.06489203 19.63237783 -0.00484355 -0.01530986 -0.02110651
H -1.24375055 4.75393871 14.06666426 -0.02145402 0.00776213 -0.01397747
H 0.67994514 9.58184646 15.32045823 0.03706404 -0.01268031 -0.00977092
H 4.87040821 2.83810653 20.03894162 -0.00607502 0.02600520 -0.01479155
H 0.74684764 8.07021060 21.14517547 0.00953134 -0.01310225 0.01269748
H 17.37149649 5.84091678 16.33190550 -0.00120215 0.00020216 -0.00456372
H 1.94988501 1.75035424 13.97661532 -0.01691170 0.00633772 0.00022831
H -2.32334692 3.07213557 19.77579122 -0.00959858 -0.01863987 0.00028445
H -0.97265547 7.45758165 20.64791051 -0.01057762 0.00996885 0.01845106
H 3.45181440 6.92120403 15.24677482 0.01506349 -0.02709678 -0.00468433
H 3.50407376 2.32957868 14.60266851 -0.00013551 -0.04271413 -0.00100540
H -0.72734346 3.75170238 19.36218873 -0.01930966 0.01006522 -0.00662547
H -0.66011243 8.43647946 22.14804282 -0.01091777 -0.00737347 0.00290100
H 3.64840586 5.65037606 16.35706817 -0.00007642 0.00247433 0.01942545
H 3.58719740 1.40131201 13.17393485 0.00285710 0.00169907 -0.00948850
H -3.30738559 8.87085335 26.25347000 0.00444396 -0.04311215 -0.00596243
H -0.46759278 4.07651620 26.81696439 -0.01649873 -0.00451078 0.02705835
H 2.18883866 0.75932489 32.92328257 -0.00247600 -0.00651487 -0.02334274
H -0.56877514 5.22742239 32.26837562 -0.01260477 0.02265177 -0.01073913
H 2.55946386 8.46260144 24.25378538 -0.00807751 -0.00290510 -0.01665224
H 0.55038844 3.35258374 28.86186423 -0.00481145 -0.01758857 0.00927660
H -3.41951898 1.05492460 34.54971025 -0.00834282 0.00993755 -0.01086079
H -1.86891417 6.06962778 30.30090431 0.01498498 0.00357515 -0.02788998
H 1.03945648 6.59366362 34.61004713 -0.01619588 0.00964620 0.03226817
H 0.56761718 1.63865963 30.59985183 0.00201382 -0.00780733 0.00500335
H -1.94103017 3.45399929 24.73187189 0.02658734 0.00326966 -0.01865219
H -1.92294505 7.58291505 28.37491136 -0.00176334 0.00712567 -0.00857533
H -0.43205153 5.62104917 23.35681659 -0.01442239 0.00833541 -0.00514180
H -3.49747885 0.66761248 29.81758932 -0.02045081 0.00704921 -0.00418875
H 4.04251505 4.32258627 0.31231197 0.00382469 0.01538678 -0.00568080
H 2.02451667 8.98472622 29.21415915 -0.00633184 -0.01205677 0.02697330
H -0.35411817 7.31697492 25.01324856 -0.00713182 -0.01567112 0.00030344
H -3.40863167 2.32746858 27.84894902 0.01169047 -0.00661779 -0.01664947
H -0.69459383 2.61293770 33.98266394 0.01400201 -0.00928954 -0.03073919
H 2.05808615 7.35444760 31.21442394 0.00025932 0.00231191 -0.02265893
H 1.94306600 4.96140350 33.67008712 -0.02076297 0.01251197 -0.01892044
H -0.36203532 0.13597757 31.86346998 -0.01208375 0.00782444 -0.00271457
H -3.02828331 5.25269404 25.75572340 -0.00462562 0.01061385 0.01272468
H -0.99500144 9.55676734 27.30258088 -0.05380377 0.00663662 -0.00934332
H 3.27442055 2.85836726 32.10485032 -0.01981241 0.00230529 0.00568540
H -2.88096531 8.70136625 34.17337924 0.01917471 -0.00625699 0.03923672
H 15.14648504 6.96443118 26.81768881 0.01912690 -0.01899756 0.00749621
H 1.29436458 0.62101018 24.90977395 0.00388593 -0.00187380 -0.00249296
H -4.17503284 3.41554743 31.57778567 0.02294592 -0.00562170 -0.01110694
H -1.24654599 9.30820678 34.05536165 -0.00057809 -0.00758910 0.00949185
H 1.50204547 6.78781129 27.04676898 0.02609003 0.01620223 -0.00892476
H -0.11546229 1.24937068 25.85391879 0.00597294 0.02405405 0.00072972
H -2.84650415 2.39057659 32.10852984 0.02328458 0.00432777 -0.01661257
H -1.57170267 7.78811749 33.25553631 0.01024898 -0.01774255 -0.00067785
H 1.83911284 5.54662454 28.16638858 0.04106784 -0.00118583 0.00365483
H 1.57481368 2.13768613 25.82991586 0.01078531 0.02496470 -0.02140139
H 0.07706731 18.84571863 2.62318180 -0.00052059 0.00720860 -0.00488430
H 2.99766823 13.78089602 3.30227264 -0.01785336 0.01000948 0.00465468
H 5.34078286 10.46368333 9.18102614 0.00194886 -0.00763451 -0.01841087
H 2.54254300 15.15110616 9.08869303 -0.01139175 -0.00635976 -0.00181361
H 5.73409280 17.61005275 0.66332891 0.00497242 0.00216571 -0.00212282
H 3.94712298 13.11302420 5.33541766 -0.01081839 -0.00765275 0.00827312
H -0.42834445 11.22338528 11.43818700 0.00084228 -0.00880306 0.03150409
H 1.63843603 15.71174514 7.04543236 0.01586139 -0.00579631 0.00206102
H 4.15735202 16.46350737 10.73105590 -0.01054542 0.01924174 0.02406391
H 3.92286149 11.49228147 7.07824818 0.00674639 0.01566366 0.00759178
H 0.90638050 12.37434560 1.31584965 -0.02614517 0.00457473 -0.00459281
H 1.72657355 17.23067681 4.96400310 -0.01222376 -0.00984316 -0.01915402
H -1.91622900 15.13560067 35.14872644 -0.01429097 0.00494489 -0.01556240
H 0.00759840 10.16009517 5.82127554 0.01936275 0.00294913 0.00228002
H 2.52911196 14.14653972 11.88545600 -0.01459189 0.00819334 0.01278175
H 5.76169212 18.24733947 6.07649227 0.01306561 -0.00708963 -0.01604991
H 2.79853394 16.54328003 1.75616064 0.00354323 0.02159683 0.01002737
H 0.02046228 11.81576932 4.09455969 0.00385889 0.00197287 -0.01894745
H 2.43675325 12.10897218 10.30531778 -0.00365867 0.00956617 -0.01173958
H 5.61759020 16.79965732 7.98793123 0.00186474 0.02264319 0.02713844
H 5.23233893 14.53407390 9.62836475 -0.00020733 0.00114868 -0.01973424
H 2.84608550 9.48402842 7.95165389 -0.01383258 -0.00614314 0.01330279
H 0.22757758 14.68246647 1.99884720 -0.00434353 0.02441432 -0.02879972
H 2.73061965 19.13392794 4.08782906 0.01690826 -0.01563283 0.00591449
H 7.30106519 12.17227910 8.44953196 0.02333000 -0.00098468 0.00922547
H 0.37093254 18.17694141 10.38216798 -0.01918206 -0.02069719 -0.02514674
H 19.94248079 16.52460970 3.36134456 0.01183714 0.00184089 -0.00730781
H 4.24723617 11.84742821 2.19166291 -0.00221951 -0.00433989 -0.01430011
H 19.30452877 13.17376626 8.08531316 0.00282799 -0.00522092 0.01682623
H 2.18860666 18.57537574 10.27297433 0.02805153 0.02793879 0.01272905
H 5.08268865 16.46144814 3.01814737 -0.02963161 0.01612982 0.00850498
H 4.13276731 10.42804757 1.00374912 0.01124685 0.02456229 -0.00347265
H 0.40151862 12.49785787 8.24735685 0.00409952 0.01666917 -0.02302723
H 1.40169178 17.11969272 9.50625129 0.02066516 0.01432782 0.00341311
H 5.21192352 15.30827894 4.39607448 0.00037591 0.03254913 -0.00750373
H 2.70490884 10.88443526 2.02427113 -0.02145499 -0.01036966 -0.00287923
H -1.73294422 18.97529559 14.37640466 0.01726991 0.00248385 0.01076773
H 1.12299758 14.07930723 15.12317929 -0.00446292 -0.01873278 -0.00906964
H 3.92196123 10.25963490 21.08746954 0.02365629 0.01702977 -0.00300666
H 0.69038997 15.39478076 20.55949779 0.01137706 0.00168366 0.02125423
H 4.12689990 17.97497725 12.43725375 0.00628634 0.00163851 -0.00676333
H 2.31974730 13.31439508 17.04389140 -0.01340797 -0.00048884 0.01189658
H -1.79799560 11.48688959 22.96190990 0.00810813 0.01071903 -0.00572730
H -0.33804440 16.18515495 18.40630770 0.02712909 -0.00326170 0.00837011
H 2.23760470 16.24741751 22.75267918 -0.02308985 -0.01111639 0.01372054
H 2.30914051 11.75658153 18.97442161 -0.00963716 0.01397492 0.01264614
H -0.62782934 12.67692918 13.30353208 -0.01449682 -0.03287263 0.03160279
H -0.11229318 17.59906907 16.37187781 0.00817857 -0.01761047 -0.00895396
H 0.81810119 14.91114108 11.89665264 -0.00052938 -0.01053319 -0.01840580
H -1.72204957 10.43234524 18.07087302 -0.00127967 -0.01120195 -0.02436390
H 0.83397417 13.62032205 23.93500327 -0.01833060 0.00513328 0.00660888
H 3.78380416 18.80275119 17.77836709 0.00889804 0.00951925 -0.02786649
H 1.09580129 16.78371772 13.53042186 0.01396554 0.00189407 0.01837599
H -1.68338226 12.06652932 16.22860754 0.00719825 -0.00073429 -0.02432695
H 0.88409725 12.30581999 21.85185520 0.01387096 -0.02792082 -0.00456030
H 3.59285179 17.31388435 19.65778093 0.00181696 0.00467002 0.00773133
H 3.15793221 14.47110673 21.62813561 -0.00353232 0.01985200 -0.00171181
H 1.43406214 9.90641338 20.05916024 0.03833074 -0.00526986 0.02930137
H -1.53432424 14.74086028 14.34895258 -0.00804475 0.00824911 -0.01198961
H 0.98281885 19.23991852 15.42163060 -0.00481618 0.02253341 -0.00206517
H 4.18130040 12.69108964 20.13814437 -0.01325420 0.00987335 0.00381590
H 0.58819471 18.16159070 21.44568964 -0.01685486 0.00551096 -0.01397969
H 18.08495587 16.74168323 15.25219357 0.01369818 0.00749873 0.00878405
H 3.13544459 10.80680826 13.20033476 0.02863837 -0.05040237 -0.00965061
H -1.26988381 13.99483834 19.08389765 0.00837524 -0.01179284 0.00994514
H -0.87814116 17.43431247 20.75476782 0.00327543 0.01009170 -0.00468356
H 4.43388557 15.76129614 16.10277195 0.00447561 -0.00899995 0.01917762
H 1.43562402 11.20955972 13.57987494 0.01277137 0.01131839 0.01651336
H 17.55559540 14.10261101 19.49356213 0.01166023 0.01933600 -0.00850378
H -1.01070972 18.59748381 22.18191618 -0.01840644 0.01394728 0.01452923
H 3.86620583 17.06083999 14.91114636 0.00312839 -0.01693399 -0.00513142
H 2.51963640 12.01383210 14.50837247 0.02229707 -0.00963595 -0.00757942
H -3.27877782 18.74373286 26.52748089 -0.01530460 0.01577105 -0.01904385
H -0.28203397 13.60980702 26.86369972 0.00675150 -0.01721347 -0.00475241
H 2.13900065 10.21733872 32.66915036 0.00062232 0.01003438 0.00757094
H -0.56237035 15.30617963 32.27215203 -0.00459541 0.00006216 -0.00450413
H 2.52944689 18.03093369 24.37141012 0.02377011 0.01030182 0.00590057
H 0.70008869 12.91422733 29.02622537 0.00043007 0.03001183 -0.01158429
H -3.61228360 11.03088984 34.67377150 -0.01566474 -0.02297249 -0.01614574
H -1.78947653 16.25778335 30.42561139 -0.02122378 -0.02075051 -0.01536403
H 1.01639844 16.24230069 34.10926971 -0.02113568 -0.03902300 -0.00837462
H 0.76166435 11.31558972 30.72360707 0.02683354 0.02679540 0.00099009
H -1.97198400 13.03447945 24.85865147 -0.00495532 0.01658148 0.02467930
H -1.73187193 17.79617458 28.43940398 0.01491815 -0.00186898 -0.01571409
H -0.88892510 14.91197645 23.68029286 0.00882173 -0.00654517 0.00084332
H -3.26411552 10.27479004 29.83439294 -0.00745997 0.00091023 0.01000061
H 4.15977846 13.83276266 0.23216690 0.03478954 -0.02079523 -0.01482867
H 2.46688124 18.56589097 29.34622558 -0.01063936 -0.01569786 0.00679563
H -0.45298998 16.60217949 25.39582045 -0.00031959 -0.00019305 -0.02256055
H -3.31563468 11.88895504 27.98182996 -0.00080492 -0.02321132 0.01121663
H -0.64984144 12.30098358 33.73916620 0.00235460 0.02121981 -0.01238524