2160
Time=58000.00000005 pbc="T T T" Lattice="20.66201430 0.00000000 0.00000000 0.00000000 28.91921698 0.00000000 -4.74569588 0.00000000 35.81062532" energy=-13800.17830455 virial="-42.34111551 -0.34467348 95.82360164 -0.34467348 -48.73043947 4.86738519 95.82360164 4.86738519 -70.65815350" stress="0.00037480 0.00006871 0.00447937 0.00006871 -0.00009603 0.00021456 0.00447937 0.00021456 -0.00102038" Properties=species:S:1:pos:R:3:vel:R:3
O 0.83726648 8.55440997 2.66773713 0.00227762 0.00031198 -0.00138870
O 2.10785457 3.64913960 3.40962749 0.00454870 0.00109074 -0.00129514
O 4.62668202 1.25701208 9.36694002 -0.00307833 -0.00698254 0.00112217
O 3.41547372 5.50297293 8.07582958 -0.00782805 -0.00215067 0.00114131
O 1.33524854 4.53173887 9.63856813 0.00067102 -0.00230303 -0.00224589
O -0.26112889 9.68816490 8.33964595 0.00569727 0.00088657 -0.00309712
O 4.09153203 4.98750282 2.35895259 -0.00236707 -0.00991575 -0.00304075
O 5.77213163 0.05991266 3.59265926 0.00327636 -0.00319744 0.00693858
O -0.84420508 8.06700068 14.42871505 -0.00237308 -0.00373003 0.00183150
O 0.27850619 3.70387350 15.42218020 0.00022088 0.00239001 0.00233340
O 2.71203687 0.80842748 21.68487857 -0.00354107 -0.00563787 -0.00010431
O 1.88009333 5.61465482 20.27398261 -0.00126625 0.00081018 -0.00098445
O -0.36590937 4.80066915 21.15695818 -0.00301163 0.00070249 0.00105635
O -1.89777924 9.98632320 20.36787962 0.00121522 0.00033853 0.00918614
O 2.53296248 4.64696565 14.35352276 0.00644148 -0.00053835 -0.00292360
O 3.99857400 28.78063852 15.59409793 0.00130438 -0.00405976 -0.00343070
O -2.19876284 8.96588587 25.44287811 0.00820251 0.00380368 0.00672360
O -1.11754408 3.75387567 27.43812998 0.00644482 -0.00273180 0.00290956
O 1.28221416 1.35500837 33.24870014 0.00223688 -0.00100711 -0.00193085
O 0.12877418 6.06127665 31.68069652 -0.00422788 -0.00103606 0.00206920
O -2.07230181 5.27631051 33.28532013 -0.00732537 0.00173939 -0.00303828
O -3.31552005 10.00488524 32.02418050 -0.00025543 0.00311331 0.00262688
O 1.07305666 4.69735778 26.37885105 0.00221864 0.00012185 0.00347929
O 2.37362118 28.63316887 27.35627182 0.00035088 -0.00417507 0.00397897
O 0.57523378 18.46047901 2.22562252 -0.00068833 -0.00584998 0.00231962
O 1.83143345 13.71732149 3.73539096 0.00085120 -0.00207434 -0.00514074
O 4.65095787 10.86543184 9.42421251 -0.00050779 0.00191994 -0.00100100
O 3.17196704 15.94479271 8.34030498 0.00465718 -0.00272773 0.00458454
O 1.35354410 14.74338379 9.65514517 -0.00070155 0.00258247 -0.00016223
O -0.25834971 19.26002271 8.09881463 0.00216710 0.00245058 -0.00172085
O 4.00959444 14.28366117 2.58822894 -0.00196708 -0.00275373 -0.00096912
O 5.51252721 9.57700779 3.78164873 -0.00037898 -0.00265567 0.00273382
O -0.88082736 18.11659570 14.53397075 0.00039102 -0.00125119 -0.00161672
O 0.11856032 13.60365698 15.65653951 0.00275180 -0.00380561 -0.00154625
O 2.81100598 10.65192160 21.36544969 -0.00157821 0.00583730 -0.00026185
O 2.25156638 15.00825400 20.19290373 -0.00033318 0.00608720 -0.00855382
O -0.08417231 14.86866877 21.76489583 -0.00128464 -0.00760790 -0.00146922
O -1.97251642 19.62572926 20.62230927 -0.00202155 -0.00126271 -0.00897302
O 2.43931177 14.03476655 14.38514959 -0.00121282 -0.00525968 0.00582176
O 3.92292234 9.29389176 15.72350003 0.00070805 0.00777035 0.00060643
O -2.50546857 18.30701317 26.55458772 -0.00359332 0.00053139 -0.00461482
O -1.38407695 13.80503033 27.35283872 0.00079976 0.00139537 0.00260207
O 1.41045826 10.87200932 33.41991924 0.00398481 0.00059797 0.00644174
O 0.22342423 15.73871037 32.52154058 -0.00144556 0.00261949 -0.00087394
O -1.74953582 14.48440543 33.70106015 0.00184798 -0.00341218 0.00365617
O -3.38097098 19.80837130 32.69547203 -0.00810273 0.00068698 -0.00187025
O 0.92229178 14.28533038 26.10789690 0.00002813 0.00385935 0.00121263
O 2.23995570 9.56371160 26.92507096 0.00014825 0.00087154 -0.00498707
O 0.93760878 28.04325728 2.47206879 0.00020419 -0.00468385 -0.00272110
O 1.80700889 23.01029321 3.23649813 -0.00522970 -0.00205658 -0.00533944
O 4.38197103 20.26424862 9.32916224 0.00062972 -0.00002488 0.00548156
O 3.24150165 25.04798331 8.15067620 -0.00451136 0.00346143 -0.00963772
O 1.15323120 24.47207539 9.54801754 -0.00531774 0.00371400 -0.00240081
O -0.11009197 28.78354440 8.16142329 -0.00168123 0.00342813 0.00046983
O 4.11922047 24.09914909 2.21346794 -0.00332921 0.00099909 0.00528937
O 5.54983256 19.48149263 3.54075405 -0.00578218 0.00386800 -0.00269712
O -1.02310366 27.81452166 14.34250001 0.00239028 -0.00231562 -0.00256124
O 0.14998546 23.14881947 15.64730171 -0.00199242 -0.00099957 0.00298409
O 2.91084722 20.24741714 21.57113793 0.00238088 -0.00254258 0.00368252
O 1.73694046 24.94769969 20.02468436 -0.00385440 -0.00265585 0.00415969
O -0.16830946 23.97926703 21.50745767 0.00059729 -0.00207719 0.00324955
O -2.03585640 0.25238526 20.04573443 0.00104596 -0.00373075 0.00312202
O 2.37866355 23.66513980 14.31102859 -0.00067092 -0.00615304 -0.00146649
O 4.00952850 19.09600621 15.69849865 -0.00317476 -0.00370826 -0.00091524
O -2.28245427 27.62301203 26.36160171 -0.00115127 0.00347828 0.00346076
O -1.15768208 22.73383407 27.37159863 0.00660710 0.00558386 0.00431341
O 1.32394270 20.08523554 33.65787290 -0.00148199 -0.00125296 0.00340780
O 0.32760266 24.83012756 31.79796619 0.00326948 -0.00050247 0.00321978
O -1.73870814 24.47303297 33.42234152 -0.00002134 0.00083867 0.00339032
O -3.53609011 0.39366010 32.26165793 -0.00142962 0.00288650 -0.00095458
O 0.69799866 24.10567089 26.22670243 -0.00273222 -0.00521405 -0.00222049
O 2.29594732 18.99577362 27.57893083 0.00126528 0.00540255 0.00462672
O 7.70611813 8.70999677 2.42580211 0.00208527 0.00101078 -0.00191119
O 8.68887035 3.83593245 3.39948601 -0.00799526 -0.00228487 -0.00582880
O 11.32834776 1.25850599 9.39307381 -0.00343679 -0.00503014 -0.00123281
O 10.29651171 6.09925383 8.42799313 -0.00705843 0.00304950 -0.00797930
O 8.27616257 4.79277987 9.67349343 0.00005018 -0.00387703 -0.00094810
O 6.73887428 9.76895821 8.28435058 0.00534579 -0.00448170 0.00143243
O 10.94105499 4.62946271 2.25147712 0.00017074 -0.00254035 0.00330191
O 12.56091914 28.73124604 3.36293751 -0.00447565 -0.00598423 0.00656273
O 5.84660759 8.46082145 14.20048328 0.00059596 -0.00074198 -0.00440546
O 7.13424598 3.59264347 15.61620137 0.00170999 0.00275173 -0.00112183
O 9.86848908 1.10789866 21.46644692 -0.00430149 0.00198439 -0.00261490
O 9.02174462 5.59752789 20.33603494 -0.00113931 0.00424212 -0.00285433
O 6.59240676 4.99803824 21.40793002 -0.00401306 0.00303512 0.00355225
O 5.00332429 9.66469130 20.07165717 -0.00337992 -0.00547565 0.00018739
O 9.47013588 4.63359338 14.39672087 -0.00303056 -0.00283547 -0.00887900
O 10.79786652 28.81734715 15.56298445 -0.00971435 -0.00102234 -0.00877449
O 4.53671691 8.75714956 25.95323849 0.00021032 0.00247419 -0.00109349
O 5.71082336 3.86921934 27.65592365 -0.00639370 -0.00374972 0.00870926
O 8.43137051 1.36951229 33.07037925 0.00610798 0.00518440 0.00311826
O 7.35273008 5.77021807 32.01184428 -0.00130528 0.00748155 0.00203084
O 5.14421297 5.21541257 33.39230893 -0.00128972 -0.00166593 0.00618525
O 3.59070310 10.03412493 32.02435369 0.00647829 -0.00188131 -0.00046486
O 7.76635889 4.80051777 26.30207470 -0.00188525 0.00710716 -0.00089952
O 9.28310603 0.00156000 27.58383436 -0.00123659 0.00123600 0.00172676
O 7.56285607 18.08334768 2.65510950 0.00031789 -0.00475749 -0.00150229
O 8.67394062 13.71344121 3.85997797 0.00234759 -0.00113825 0.00349684
O 11.38151361 10.78629783 9.42189320 0.00196310 -0.00210672 0.00498511
O 10.24188090 15.69111258 8.67458626 -0.00058180 0.00091178 -0.00205594
O 8.07181391 14.71781210 9.73785162 -0.00423333 -0.00105338 0.00148497
O 6.51478395 19.47515542 8.32091688 -0.00711982 -0.00209233 0.00435558
O 10.83410696 14.06974761 2.45782683 -0.00575464 0.00237711 0.00815864
O 12.63001081 9.39999885 3.88509381 0.00010742 0.00582861 -0.00103463
O 6.01779448 18.32512499 14.33230486 0.00134754 -0.00579048 -0.00258431
O 7.31120336 13.27784492 15.41240160 0.00328958 -0.00035869 0.00035607
O 9.87154231 10.47715417 21.61688779 0.00133724 0.00130998 -0.00221104
O 8.80303949 15.31306889 20.08250145 -0.00303146 -0.00013955 -0.00069811
O 6.71647094 14.54500146 21.37576120 0.00292915 -0.00167286 0.00751329
O 4.97959974 19.29764287 20.17973620 -0.00036982 0.00218360 0.00104913
O 9.18612587 14.32544550 14.25300503 -0.00461781 0.00204720 0.00227859
O 10.75930877 9.54628605 15.75558690 0.00132642 0.00108460 -0.00463725
O 4.38599428 18.27239943 25.99375544 0.00706196 0.00122745 0.00188006
O 5.68491214 13.43337501 27.18181839 -0.00225180 0.00284922 0.00080406
O 8.29518355 10.70928582 33.28657221 -0.00515189 -0.00263012 -0.00075332
O 6.92731998 15.57065925 32.59010772 0.00043657 -0.00328651 0.00245051
O 5.07103377 14.33619249 33.80744468 0.00537150 0.00663662 -0.00568555
O 3.49626207 19.36874061 32.23033126 0.00123285 -0.00321168 -0.00354901
O 7.93599870 14.20678009 26.30130465 -0.00037450 0.00046490 -0.00287248
O 9.16106920 9.51358823 27.02760402 -0.00431780 0.00677851 -0.00143822
O 7.73517392 27.92744448 2.01537117 -0.00155003 0.00032614 -0.00581739
O 8.85789634 22.87696006 3.41989295 0.00624976 0.00081340 0.00601858
O 11.32256195 20.20534188 9.70571359 0.00167381 0.00013859 0.00693148
O 10.17276382 25.15504569 8.11665902 -0.00346046 -0.00002245 0.00419425
O 8.06601189 24.18763269 9.53114525 0.00212847 0.00070300 0.00239660
O 6.57277754 28.77660767 8.06753833 0.00493013 0.00028048 -0.00408861
O 10.87567393 24.09664168 2.49289190 0.00396254 -0.00095746 -0.00366551
O 12.42572096 19.10570956 3.79736398 0.00107763 -0.00159053 0.00069335
O 5.99959495 27.91615850 14.24068120 -0.00009965 -0.00584893 0.00979701
O 7.01060488 23.13719320 15.62561540 -0.00109102 0.00333209 0.00098713
O 9.66673213 20.34873517 21.41336346 -0.00439530 -0.00324261 -0.00466019
O 8.68670987 24.88388868 20.16268217 -0.00234076 -0.00485115 -0.00081943
O 6.73420370 24.18977838 21.72513556 -0.00171106 -0.00081056 -0.00250232
O 5.10608105 28.90035675 20.54039740 -0.00224232 0.00202968 -0.01099216
O 9.24388797 24.00255118 14.06146653 -0.00198955 -0.00329539 0.00457173
O 10.73819611 19.44890972 15.70471519 -0.00758847 0.00805881 0.00354218
O 4.56820225 27.79753161 26.38971379 -0.00606940 0.00099293 0.00080040
O 5.51756659 23.15158986 27.82507077 -0.00184770 -0.00361777 -0.00301219
O 8.58825749 20.49323381 33.39219438 -0.00069978 0.00135696 0.00130438
O 7.18285513 24.96601215 32.05296262 0.00215637 0.00242332 0.00503798
O 5.07203390 24.16703182 33.33984447 0.00038512 -0.00300488 0.00207117
O 3.54666011 0.18730630 32.37815854 0.00355648 -0.00454210 0.00168332
O 7.76280036 23.65169568 26.32688921 0.00466063 -0.00347021 -0.00088324
O 9.40968025 19.06626822 27.85550188 -0.00018353 -0.00286487 -0.00207189
O 14.47909974 8.64072236 2.30989328 -0.00498753 -0.00040386 -0.00797306
O 15.85766629 3.66041583 3.49363277 -0.00452152 -0.00070693 -0.00287678
O 18.68110256 1.12642976 9.28137479 0.00065609 0.00065944 0.00212554
O 17.26803099 5.72187712 8.12128825 -0.00487460 -0.00055682 -0.00040736
O 15.03699633 4.95084327 9.54798669 0.00774583 0.00109576 0.00539514
O 13.66923873 9.92867508 8.51849236 -0.00118941 -0.00062358 0.00086408
O 17.85831665 4.77421511 2.39127875 -0.00296258 0.00330443 0.00096339
O 19.46546585 28.89469131 3.87978241 0.00570418 -0.00530207 -0.00185550
O 12.79024186 8.35399013 14.72681916 0.00009126 -0.00237274 -0.01068868
O 14.02372946 3.51348479 15.34802737 -0.00174655 0.00525621 -0.00696842
O 16.49980446 0.77917888 21.67145996 0.00663676 0.00282057 0.00311883
O 15.85879324 6.00013147 20.46278503 0.00137874 -0.00178054 -0.00261763
O 13.56984364 5.10651718 21.52354357 0.00218978 0.00031740 -0.00008941
O 12.12074896 9.59181447 20.18024832 -0.00070819 0.00031853 -0.00268784
O 16.16793112 4.47391109 14.14776186 0.00844444 -0.00545715 -0.00450488
O 17.53422857 28.73638385 15.37424829 -0.00233205 0.00520580 -0.00357104
O 11.44047517 8.41450251 26.47504260 0.00329078 0.00038970 0.00122902
O 12.50852622 4.00883108 27.57194878 0.00129407 -0.00337294 0.00363070
O 14.99587528 1.14219798 33.45933681 0.00180543 0.00369338 0.00409949
O 14.00644428 5.89579746 32.29132967 -0.00189201 0.00194835 -0.00189379
O 11.71066129 4.65947748 33.53571028 -0.00408246 0.00310730 0.00057555
O 10.47082253 9.71570174 31.89665824 -0.00200032 0.00006103 0.00066167
O 14.91158536 4.50125887 26.59492542 0.00172865 0.00053443 0.00365988
O 16.17438803 28.63233423 27.17737916 0.00189122 0.00216468 -0.00749863
O 14.41013017 17.92548461 2.71882773 -0.00076088 0.00560936 -0.00212789
O 15.66892388 13.43428186 3.51784207 -0.00495925 0.00236918 -0.00177464
O 18.27994882 10.88841997 9.26677848 0.00658781 0.00200304 -0.00383670
O 17.08498480 15.72888832 8.66205544 0.00278248 0.00551368 -0.00795238
O 15.15863039 14.59141450 10.07381380 -0.00195134 0.00292418 0.00084591
O 13.50400447 19.33795163 8.65244070 0.00096599 -0.00249382 0.00013381
O 17.79722012 14.50433456 2.39245586 -0.00220385 0.00249557 0.00412863
O 19.35911979 9.58648841 3.56588447 -0.00060832 -0.00002214 0.00304572
O 12.89937539 18.65914179 14.41103048 0.00304204 0.00153889 -0.00638326
O 14.07350163 13.70826549 15.62046958 -0.00277591 0.00678398 0.00230748
O 16.69473220 10.83690789 21.54665783 0.00416254 -0.00259347 -0.00275732
O 15.82255274 15.97287956 20.66451683 -0.00591218 0.00145388 -0.00029573
O 13.56155127 14.82711966 21.22471906 0.00284627 0.00497312 -0.00392693
O 11.72942388 19.38893897 20.23611870 0.00064830 -0.00173799 -0.00098554
O 16.30766753 14.17369885 14.28574319 0.00374804 -0.00132357 0.00076218
O 17.73502157 9.18559469 15.45561565 -0.00043979 0.00150290 0.00031990
O 11.37540732 18.20107131 26.39098808 0.00151541 -0.00035473 -0.00105700
O 12.55354274 12.89556898 26.85766793 0.00132774 0.00018195 -0.00097374
O 15.16230989 10.82320323 33.31694921 0.00224700 -0.00214309 -0.00511308
O 14.06018808 15.12452875 32.22161504 0.00076290 -0.00075515 0.00861453
O 11.78498166 14.55162686 33.51817115 0.00020996 0.00071458 -0.00751649
O 10.52617564 19.05376745 32.34957226 -0.00080555 -0.00113887 -0.00217396
O 14.48318623 14.53859090 26.02403896 -0.00290014 0.00714461 0.00554750
O 16.57465670 9.14230236 27.35190043 0.00895405 -0.00097107 0.00414661
O 14.62217667 27.93518086 2.13882971 -0.00269227 0.00219970 -0.00235154
O 15.54166448 23.10757958 3.91979110 -0.00066520 0.00330621 -0.00094915
O 18.41085964 20.32452680 9.41524182 0.00379772 0.00137622 0.00207322
O 17.10261349 25.02614643 8.26514772 -0.00241796 -0.00127236 -0.00005736
O 14.79496148 24.42359111 9.18852956 0.00323790 0.00420920 0.00150104
O 13.39930537 0.12989964 8.22380638 -0.00042599 0.00505737 -0.00161143
O 17.69438393 23.79969761 2.70270903 -0.00552440 0.00298071 -0.00416564
O 19.09879801 19.10752649 3.68017274 -0.00453944 -0.00176436 0.00502198
O 12.86128848 28.02437569 14.07583293 0.00377956 -0.00608978 0.00197331
O 14.06829883 23.07598817 15.48671645 0.00693027 -0.00884142 -0.00610990
O 16.42337344 20.35509206 21.49904857 0.00239186 0.00162443 0.00684839
O 15.60886893 25.12553533 20.25426554 0.00644801 -0.00315910 -0.00188437
O 13.42969431 24.43625687 21.62154003 -0.00699349 0.00254958 -0.00094685
O 11.88207714 28.83601306 20.20991762 0.00130905 -0.00385674 0.00349188
O 16.12264421 23.98270046 14.14001411 0.00453697 0.00067585 0.00527634
O 17.58923489 19.18834439 15.41164592 0.00810419 0.00134583 -0.00036460
O 11.34920793 27.66284129 26.60673830 -0.00548868 0.00599636 0.00353858
O 12.56326839 22.80253159 27.55525773 0.00624373 0.00052704 -0.00459826
O 14.92756733 20.28265869 33.59917034 -0.00168543 -0.00040810 0.00546226
O 14.00868087 25.06894206 32.24584911 0.00035909 -0.00069539 -0.00479424
O 11.74121330 24.26501935 33.12002926 0.00261252 0.00475865 0.00238325
O 10.46026342 0.39309457 32.01879910 0.00365847 -0.00310484 -0.00102920
O 14.73172409 23.99208687 26.66244571 0.00249520 0.00240770 -0.00668113
O 16.01488113 19.09551695 27.60782795 0.00270875 -0.00854306 -0.00018375
H -0.10961728 8.89170712 2.96309985 -0.02720550 0.03577321 0.01191078
H 2.82584078 4.30034182 3.29028043 0.01300441 0.01106922 0.03034294
H 5.38937692 0.62392981 9.30562327 -0.00502953 0.01515832 0.00032052
H 2.51132927 5.36540081 8.47512486 0.02715935 0.00798273 0.00670009
H 5.85795813 8.50375649 0.71818468 0.00121317 -0.01761679 0.01448751
H 3.95837822 3.64857091 5.55406632 -0.03012518 -0.02178552 -0.00482222
H -0.19777955 1.34330994 11.11739042 -0.00365302 -0.02117729 0.00398503
H 1.59154490 5.97625646 6.50157566 0.01386066 -0.00840148 -0.00770559
H 3.94272586 6.40924434 10.64578035 -0.01360802 0.00816700 0.00191190
H 4.00021768 2.00937333 7.14597701 0.00338797 0.02355802 0.01157057
H 1.47431003 3.09305181 1.14433422 0.00323300 -0.00953466 0.01788722
H 1.36879815 7.95773597 5.03846825 0.01342985 -0.02435648 -0.00911292
H -2.05055282 5.65780243 35.52400362 0.00899876 0.00815187 -0.01096793
H -0.03311374 0.78920303 6.06651423 0.00123071 0.01556232 -0.00784231
H 2.60816132 4.24619415 12.09054404 0.00353124 -0.00567265 -0.00554529
H 5.45292516 9.01537593 6.18839568 -0.03029451 -0.00939695 -0.00103374
H 2.76104670 7.11832243 1.66998702 0.00854007 -0.01047818 -0.02280820
H 0.09586207 2.26360667 4.20042489 -0.02471007 0.00441763 0.00691685
H 2.63624180 2.62693321 10.26434137 -0.00976969 0.01423636 -0.00302173
H 5.42315258 7.27203583 7.70050565 0.01276638 0.01073640 0.01269614
H 5.18167598 4.93367546 9.40194187 0.00127562 -0.01395341 0.00720179
H 3.07124194 0.06023133 8.05477382 -0.00736588 -0.03194438 -0.01608428
H 0.35575855 4.86822692 2.28513032 0.01842691 0.04977026 0.00106364
H 2.38524384 9.78146984 3.90330258 0.00022982 0.00255185 0.00482389
H 7.18377689 3.99466535 7.29775039 0.00356685 -0.01764465 -0.00479198
H 1.43881825 8.84703627 10.59529123 0.00347025 -0.00023007 0.00381127
H 18.41921807 6.82300828 3.80874974 0.00460745 0.01632377 -0.01209753
H 3.47844253 0.49886273 1.47277662 -0.02988059 0.00305730 -0.01097143
H 0.79344616 3.48523216 7.51006469 0.00303452 0.00735664 0.00501306
H 2.29630693 7.95882823 9.33833402 0.00027648 -0.00556295 -0.00541342
H 5.12749239 7.16970736 3.47274603 -0.03058719 0.00769164 -0.00202205
H 3.67597212 2.00092854 2.39949713 0.00381302 -0.01256855 -0.02070929
H -0.89227707 4.19393849 7.46271600 0.00412904 -0.01849209 0.00563648
H 0.56916368 7.58887023 9.74337504 0.01547622 0.01386937 0.00481345
H 5.30280630 5.77771494 4.60419769 0.02125627 -0.01554685 -0.03186802
H 5.05367663 1.41929804 1.43066725 -0.01524183 -0.00323214 -0.00497440
H -1.64452096 8.61551456 14.62479853 -0.02642572 -0.01595343 -0.00359322
H 1.15930544 4.08674911 15.21205988 0.00322558 0.01824272 0.00340768
H 3.55566735 0.44248141 21.37128673 -0.02175668 -0.00099880 0.00364856
H 1.08325703 5.14001576 20.64681773 0.02194217 -0.00762167 -0.01214791
H 3.97827717 8.22542620 12.30702893 0.00599262 0.00703426 -0.00166920
H 2.08464906 3.43008011 17.14708381 -0.01159462 0.00305055 0.01535330
H -2.07828659 1.21963460 23.17928028 -0.00396719 -0.02201491 0.01117513
H -0.15806137 5.97832789 18.62357288 -0.00011242 -0.00486804 0.00102432
H 2.55084560 6.57901689 22.50412381 0.00286198 -0.01165938 0.01713185
H 2.17817394 1.58254998 18.96469256 -0.00415607 -0.00983283 0.03209962
H -0.33692620 2.70781835 13.18087801 -0.00214397 -0.00194691 0.00533080
H -0.26458563 7.45802845 16.85093661 -0.02841774 -0.00217758 0.00566858
H 1.13680932 5.15089972 11.63991800 0.00340918 -0.00392793 -0.02273875
H -1.84556874 0.61528946 17.98746798 0.01862653 0.02311307 -0.00028409
H 1.09434906 4.26372936 23.97987185 0.01278928 -0.01336978 -0.00277455
H 3.75518298 8.81801230 17.76266076 -0.01237103 -0.00136263 0.00211188
H 1.11092900 6.80236662 13.67545423 0.02541101 -0.00441663 0.00705935
H -1.82383855 2.20571404 16.03910709 0.00628423 0.01057950 0.00405089
H 0.83705152 2.55422933 22.32728422 -0.00986337 -0.03369624 0.01459017
H 3.91476005 7.33503979 19.60381394 -0.02826249 0.00748440 -0.00427672
H 3.62951205 5.21871056 21.20415183 -0.01356845 -0.00852673 0.00706890
H 1.15731602 0.11725947 19.99049316 0.01346232 0.00750213 0.00533226
H -1.43731363 4.31202515 14.22672720 0.00700367 0.01091362 0.01554692
H 0.64208669 9.29031627 15.61327474 -0.01936765 -0.03113700 -0.02280879
H 6.20946582 3.14967530 19.89763962 0.00178518 -0.01138414 0.00613984
H -0.36194719 9.69206840 22.66428722 -0.00358581 0.00998392 -0.02768314
H 17.08394789 5.52198114 16.43202250 -0.01189425 0.00837564 -0.01155560
H 1.42971099 1.14483784 14.14817974 0.02042531 -0.00004864 0.03211845
H -1.10071035 2.55389140 20.12460031 0.01626407 0.00306608 0.00394762
H 0.63839986 8.53502020 21.57712549 -0.01798297 0.00870658 0.00148405
H 4.03183380 6.82559896 15.55339188 -0.01396027 -0.00088937 0.02783086
H 2.66521244 2.23266178 14.74743904 0.00950408 0.01004763 0.00809049
H -1.72156846 3.75365840 19.04673392 -0.01945381 -0.01824563 0.00154343
H -1.05154480 8.10636073 22.02421059 -0.02958871 0.01767854 -0.01718863
H 3.19446073 5.50676748 16.59049677 -0.01319728 0.00918228 0.00393654
H 2.96602918 0.94327006 13.42006651 -0.00001403 -0.00290159 0.00593070
H -2.86944346 8.96923720 26.21184811 -0.00400150 -0.02813873 0.00477413
H -0.20846609 4.07108427 27.08378145 -0.03748128 -0.00862418 -0.02140198
H 2.11750477 0.98650134 32.84205817 -0.01433854 -0.02899174 -0.01256622
H -0.74877567 6.05064543 32.18539308 -0.00764239 -0.00801517 -0.01763336
H 2.54969854 8.16610992 24.74544329 -0.01676513 0.01100793 0.00443038
H 0.74029390 3.61972698 29.08282754 0.00996851 -0.02292723 -0.01691680
H -3.37466890 1.74010097 34.72109470 0.01076087 0.00160417 0.00069253
H -1.76364102 6.31142305 29.97421003 -0.00172702 -0.04339818 0.00173375
H 1.00250152 6.85070850 34.52308766 -0.01780910 0.00713028 0.04859918
H 0.70418739 2.05616469 31.18812244 0.04260750 0.00115524 0.01266626
H -1.96066345 3.00842873 24.95649018 0.02565606 0.00953858 -0.00387898
H -1.84191123 8.17167743 28.09912482 -0.01603828 0.00523533 -0.00025201
H -0.22603862 5.52521371 23.16889320 -0.00925594 0.00436348 0.01681371
H -3.19126798 0.70815296 29.94202310 0.00120019 0.00150813 0.01046446
H -0.47378161 4.64239802 35.80605901 -0.00820161 0.02665250 0.00895485
H 2.11428718 9.26828322 29.15520901 0.00416608 -0.00148288 -0.00793030
H -0.23073586 7.41507479 24.85857163 -0.00331711 0.00550282 0.00849324
H -3.06657778 2.49424908 28.16781371 0.00215535 0.02298335 0.01425802
H -0.58979065 3.05750097 33.85514772 0.00304910 0.00408236 0.00815126
H 1.95582663 7.66231911 31.14487252 0.02017304 -0.00131204 -0.00400593
H 1.98695688 5.00062962 33.54958053 0.02338403 0.00146562 -0.00651138
H -0.46290161 0.18666431 32.35013547 -0.02234069 -0.00780141 -0.00503841
H -2.79952412 4.82459466 25.90274775 -0.00045403 -0.01455878 -0.01297335
H -0.90201198 10.11253091 27.34799653 -0.02660254 0.00317543 -0.02394523
H 3.71803122 4.92688504 31.02696339 -0.01187078 -0.03193705 0.02345724
H -1.02047100 8.00606010 33.13448561 0.00047588 -0.01510155 0.00750511
H 16.27046473 5.43551834 28.71800113 -0.01007355 -0.01242845 0.00430656
H 1.72159643 0.89842626 25.28914660 0.00282295 -0.00591246 -0.00412106
H -2.80077682 2.83714692 32.53244162 0.00369407 -0.03738895 -0.00702374
H -2.62855114 7.93957873 33.61486059 0.03162681 -0.01169112 0.01723891
H 3.69107985 6.27229254 27.69062215 -0.00992812 0.01009726 0.01653103
H -0.06551834 0.41048583 25.55404777 -0.00246252 -0.00189403 -0.02614603
H -3.14132590 4.03907534 31.32871613 0.00950785 0.01198393 0.01405345
H -1.61366749 9.22685594 34.22966426 -0.01698214 0.03643234 -0.00483021
H 2.03740537 6.84634073 27.38603134 0.00565798 -0.00160945 -0.02127399
H 0.79143479 2.05937709 26.13522138 -0.02437899 0.00270037 0.01487476
H -0.32258761 18.76489652 2.65676271 0.01950769 -0.00659156 0.02709264
H 2.76585059 13.99502226 3.50355212 -0.00458675 0.00357987 -0.00929937
H 5.53657255 10.57198726 9.01792567 0.00469406 -0.01219410 -0.00112801
H 2.33099658 15.49663739 8.68418712 0.00375448 -0.01521138 0.00997806
H 5.49343691 17.64139080 0.99937885 -0.01010509 -0.02175195 0.01320228
H 3.87904577 13.10100741 5.14369973 -0.00572458 0.01708577 -0.01313973
H -0.38985588 11.34796513 10.81338244 -0.01018308 -0.01786969 0.00334343
H 1.16337550 16.38175458 6.61952729 -0.00747921 0.00869067 -0.01703676
H 3.87916139 16.46800065 10.86682836 -0.00365670 -0.00092778 0.00216102
H 3.90304874 11.49342805 6.96205390 -0.00348848 0.00873739 -0.01616644
H 1.13757753 12.54056086 1.21451467 0.00504525 -0.03040406 -0.01076739
H 1.20268428 17.75552170 4.63547012 0.01030049 -0.03627272 -0.01705198
H 2.64539154 14.95501504 0.13739202 -0.01750889 0.01005799 -0.00036094
H -0.16156937 10.33077297 6.18136214 -0.01559121 0.00320569 0.01129445
H 2.63301621 13.79030574 12.27995948 0.00024921 0.01845783 0.00191633
H 5.28997925 18.87163168 5.51526319 -0.02168204 -0.00701227 0.00753362
H 2.59699532 16.71033225 1.80337547 -0.01649760 0.00173285 -0.01050813
H -0.30645205 12.10294625 4.43657943 -0.01762121 -0.01298387 0.00215513
H 2.61991023 12.31070565 10.16489046 0.01838701 0.00828651 -0.00595334
H 5.35038217 17.36119374 7.42419507 0.02739787 -0.01689006 -0.00800329
H 4.95693268 14.80719895 9.59732026 -0.01158940 0.01122761 0.00316291
H 2.89806865 9.74811199 8.10335161 0.00100514 0.00879090 0.00270189
H 0.25826283 14.19381586 2.25774534 -0.01557646 -0.00689389 0.00730155
H 2.37926326 19.14321045 3.23274313 -0.02545396 -0.00904502 0.00850921
H 5.54867366 13.31605169 8.30934166 -0.03420509 -0.01017833 -0.01937954
H 0.68607888 18.52974167 10.45655428 0.01222519 -0.00354814 -0.02676036
H -0.23365537 15.51314612 3.99950599 -0.01888833 -0.01238991 -0.01724417
H 4.14302332 11.72288357 2.74141758 -0.02552003 0.02772261 -0.00404367
H -0.94352268 13.98824702 7.56448756 0.00217519 0.00299781 -0.01869647
H 2.40933792 18.49821621 9.92981358 -0.00606703 0.01130146 -0.01102855
H 6.62026536 15.95782387 3.60971874 -0.00581034 0.01402671 0.02543215
H 4.79497393 10.63770928 1.50881770 -0.00235094 0.00710016 -0.00658141
H -0.31470515 12.59865978 8.45441470 0.00441847 0.00995498 -0.00369261
H 1.26982281 17.23913327 9.38275572 0.02022573 -0.01132619 -0.02276304
H 5.04526986 16.71105934 3.54145757 0.01855868 0.00601321 0.00615910
H 3.11945078 10.55787110 1.89062791 0.00118600 -0.00105082 0.01246533
H -1.76210156 18.47419419 14.77762063 0.01516289 0.04362576 0.00304061
H 0.93358136 13.85753100 15.14137027 -0.01511814 0.00314426 -0.00518919
H 3.80482141 10.39287540 21.02985387 0.01357611 0.00405090 0.01496226
H 1.38718062 14.95756477 20.75816133 0.02475532 0.00509766 0.00439341
H 3.96826055 17.74775596 12.87505810 -0.01018623 0.02869414 -0.01333655
H 2.30564098 12.86818760 16.88930486 0.01510446 0.01283499 0.00217903
H -1.98573405 11.40169789 23.15999481 -0.00136205 -0.00189645 -0.02015747
H 0.09561527 15.94650720 19.12950995 0.00703265 0.00934035 -0.00905180
H 2.51358902 15.91001619 22.57473685 0.00599867 -0.00820294 0.02671905
H 2.32776376 11.27660156 18.93341399 -0.02322902 -0.00878906 -0.02352199
H -0.31044878 12.54613285 12.81355567 0.01462615 -0.00951918 0.00207343
H -0.01687567 17.19049525 17.17892708 -0.02049858 -0.02193954 0.01923325
H 1.14632058 15.22093347 11.85065853 -0.00511390 -0.03223536 -0.00376852
H -1.81013102 10.30688655 18.19331951 0.00469595 -0.00312224 0.00222795
H 1.09374590 14.05952662 23.86007667 -0.00298594 -0.01946590 0.02219984
H 4.12291218 18.39093343 17.55072376 -0.02298654 0.01010121 -0.00881885
H 1.14999474 16.85034110 13.77472078 0.00960563 0.01401812 0.01771607
H -1.92186453 12.27107402 16.59554683 -0.00489143 0.00791932 -0.01415364
H 0.91817074 12.49332357 22.03135090 0.00945716 -0.01075389 0.01314928
H 4.23577866 16.82605049 19.58335431 -0.02792600 -0.01108624 0.01068592
H 3.63003435 14.40027449 21.39605929 0.00438767 0.00950612 -0.00460393
H 1.31096093 9.46429008 19.90192505 0.00165724 -0.00658979 -0.00232187
H -1.24192363 13.97816006 14.23341277 0.00567865 0.00307976 0.00659064
H 0.87466704 19.31962515 16.16877713 0.00248297 -0.00803799 -0.01159378
H 5.89716826 12.54282013 19.76483705 -0.01592519 -0.01074817 0.00097235
H -1.34280598 18.02778204 22.39271396 -0.00676202 0.00471506 -0.01054381
H 17.14135189 15.45713760 16.48978234 0.00699464 -0.02084125 0.00422879
H 1.43300463 10.57218039 14.01583194 -0.00604448 -0.00869044 -0.01858094
H -2.18628780 12.84235382 20.51574797 -0.00846951 -0.00903611 -0.00680577
H 0.40336227 18.11090612 22.09870875 -0.02768502 0.00509943 0.00341486
H 3.34303158 15.20008653 16.43801449 -0.00071512 0.00218889 0.00099894
H 2.71628088 11.62217733 14.52349573 0.01871230 0.00114659 0.02144216
H -0.55160832 13.21490411 19.96972805 0.00370201 0.01788238 -0.03131057
H -0.54810157 17.09384850 21.04231640 0.00187593 -0.00167744 -0.01094948
H 4.98209959 15.55594323 15.74177141 0.02092257 -0.02895950 -0.01757904
H 3.01974352 10.38322912 13.38869964 0.01427296 0.01004315 -0.01227556
H -3.37126780 18.63296384 26.84389455 -0.00587212 0.01394834 -0.01987693
H -0.54690661 13.89416584 26.87354262 0.00048013 -0.00089533 0.01878911
H 2.26896451 10.53036519 33.02957005 -0.02067377 -0.02249984 0.02192902
H -0.64845490 15.39055769 32.86240797 -0.00497855 0.01108248 -0.02282240
H 2.48349619 17.66400700 24.35149883 -0.01213028 0.01815204 -0.00376526
H 0.64215797 13.39075210 28.91618413 0.00394404 -0.00741326 -0.00653358
H -3.74648476 10.90594475 35.11565804 0.01310789 -0.00519389 -0.00568126
H -1.76770571 15.89558762 30.90710273 0.00069672 0.01437765 -0.01422349
H 0.98888334 16.34770359 34.68596394 -0.00830027 -0.00060549 0.00095768
H 0.71088658 11.95005024 30.80525450 0.00865185 0.01880131 0.02304421
H -2.18502612 12.65574748 25.19315507 0.01149004 0.03357986 -0.00807567
H -1.93961112 17.36373201 28.97985921 -0.00439607 -0.00496936 -0.00684039
H -0.39921766 15.09960104 24.01601045 -0.02927471 0.00274949 0.00331252
H -3.17655670 10.43998793 29.93498154 -0.02885023 -0.00783894 -0.00774506
H 4.24065425 14.00720387 0.29777220 0.00424891 0.00736749 0.00742187
H 2.09876696 18.71916281 29.60685096 -0.01194950 -0.01367995 0.00470070
H -0.47770654 16.65234570 26.04705504 0.00218628 -0.00747646 0.01716909
H -3.36512144 12.00455183 27.93327621 0.01972211 0.00692769 -0.01507430
H -0.65062171 12.11566837 34.20176881 0.00342768 -0.00339930 0.02218117