2160
Time=37000.00000002 pbc="T T T" Lattice="20.57627797 0.00000000 0.00000000 0.00000000 28.96265314 0.00000000 -4.73787715 0.00000000 35.69272346" energy=-13805.05319190 virial="-5.97537074 -5.43789160 36.02191596 -5.43789160 -20.77179098 -8.69041750 36.02191596 -8.69041750 -57.12259054" stress="0.00202390 -0.00033034 0.00175396 -0.00033034 0.00129644 -0.00045356 0.00175396 -0.00045356 -0.00033950" Properties=species:S:1:pos:R:3:vel:R:3
O 0.77860327 8.45593679 2.54643204 -0.00448182 0.00408514 -0.00719841
O 1.78426572 3.50457475 3.56679221 -0.00055928 0.00075158 -0.00095834
O 4.53618325 1.13440874 9.44617455 -0.00098496 0.00325749 -0.00386410
O 3.37613194 6.05366351 8.41011365 -0.00088218 0.00390994 0.00232398
O 1.67990102 4.77168811 9.80962362 0.00049453 -0.00428837 -0.00563175
O -0.24370240 9.86335803 8.34559504 -0.00408760 0.00136329 -0.00088724
O 3.95406334 4.62597350 2.49990190 -0.00250362 0.00632842 -0.00385245
O 5.54223640 28.88483046 3.85883483 0.00536605 -0.00153210 0.00066549
O -0.89724693 8.68272794 14.20266886 0.00126654 -0.00026680 0.00101538
O 0.51311477 3.59431305 15.56853311 -0.00195046 -0.00346779 -0.00056971
O 3.17905872 1.13401656 21.37024029 -0.00361755 -0.00375990 0.00131800
O 1.86331873 5.95427774 20.24241430 -0.00252196 -0.00039192 -0.00060479
O -0.39176615 5.28367858 21.20397153 -0.00041798 -0.00377873 -0.00388635
O -1.86493829 9.94959453 19.91776304 0.00564848 0.00190619 0.00508243
O 2.34487350 4.66808911 14.18054610 0.00213754 0.00128558 0.00131616
O 3.87198487 28.93870886 15.50422515 0.00311244 0.00178613 -0.00320225
O -2.51998299 8.62002659 26.21580847 -0.00551109 -0.00050811 -0.00411521
O -1.26275981 3.76017391 27.32341066 0.00335112 -0.00033738 -0.00004399
O 1.41755713 1.34281398 33.37312493 -0.00283080 -0.00509011 -0.00230241
O 0.13708597 6.02597150 32.23034795 0.00055178 0.00618396 0.00349829
O -1.89121096 4.60391776 33.53958517 0.00029427 0.00346939 -0.00092788
O -3.52302310 9.54109993 31.87104769 0.00057736 0.00304574 0.00090094
O 0.78415992 4.67206127 26.05038223 0.00394268 0.00548216 0.00225673
O 2.36629880 0.29166212 27.59873217 -0.00343177 0.00158362 0.00188312
O 0.92606849 18.34647286 2.59602714 -0.00017631 -0.00132451 0.00007340
O 1.96607362 13.37786901 3.53194516 -0.00014044 -0.00567422 -0.00155615
O 4.71461686 10.66775804 9.73892475 0.00023985 0.00817008 -0.00060292
O 3.35086572 15.64453957 8.35877816 0.00307162 0.00090519 0.00090401
O 1.42261960 14.45750995 9.64860870 -0.00381523 -0.00105162 0.00498500
O -0.15825449 19.22345958 8.38797889 -0.00109021 -0.00247353 0.00429544
O 4.02336474 14.36050397 2.15572711 0.00331980 -0.00398261 -0.00259699
O 5.34998483 9.36630393 3.63768959 -0.00522806 0.00164172 -0.00362129
O -0.98795731 18.01168998 14.46188702 -0.00136074 -0.00648622 0.00042105
O 0.48967774 13.36628409 15.25098363 -0.00334945 0.00122172 0.00908375
O 2.95537306 10.27896459 21.69265890 -0.00057954 0.00415448 -0.00508912
O 1.92152703 15.59959681 20.20011941 -0.00397446 0.00097591 0.00015367
O -0.21116675 14.35445983 21.16344726 0.00171854 0.00060827 -0.00045017
O -1.67316175 19.37039680 20.00006072 0.00403759 0.00366390 0.00172827
O 2.48167800 14.61358647 14.17901655 -0.00389370 -0.00282437 0.00121195
O 4.14335664 9.42207666 15.55959658 0.00197325 -0.00072586 -0.00324111
O -2.23347541 18.29464545 25.81442831 0.00024728 -0.00158317 -0.00723408
O -1.00229031 13.47887306 27.44442781 0.00185898 -0.00168023 0.00718027
O 1.41986888 10.95488054 32.91035794 -0.00142774 -0.00537602 -0.00121190
O 0.22238859 15.21917961 32.15332612 0.00455904 -0.00351737 -0.00179376
O -1.83393235 14.75612287 33.62285067 -0.00719279 0.00213356 0.00214969
O -3.51923617 19.39413674 31.99919197 -0.00633545 -0.00106617 -0.00186143
O 0.73077430 14.38654741 25.73392119 0.00558656 -0.00253474 -0.00679481
O 2.29722038 9.48756406 27.39781371 -0.00156070 0.00384141 -0.00036084
O 0.67066014 27.81976948 2.53561321 -0.00405891 -0.00490189 0.00397228
O 1.81270450 23.18643531 3.79275761 0.00241698 -0.00246656 -0.00008299
O 4.56394590 20.14342278 9.49800079 0.00735527 -0.00335911 0.00316401
O 3.40496831 25.17266779 8.56602713 -0.00249642 -0.01093389 -0.00126139
O 1.17563055 24.08875847 9.24778401 -0.00103736 0.00378448 0.00342746
O -0.11436122 28.84693697 8.50054453 -0.00159690 -0.00079762 -0.00667812
O 3.70525635 23.75497247 2.16656471 -0.00809971 0.00600716 -0.00196053
O 5.79910985 19.28853523 3.77613249 -0.00267366 -0.00074725 0.00046286
O -0.88308844 27.77916632 14.04921319 0.00083263 -0.00485002 0.00347650
O 0.71550628 23.09174542 15.27386221 -0.00220003 0.00544743 0.00157476
O 2.92138358 20.44006304 21.44877143 0.00288332 -0.00088559 -0.00202597
O 2.01309649 25.13996370 20.14854966 -0.00288441 -0.00310024 0.00046597
O -0.34182593 24.49458736 21.11946379 -0.00090984 -0.00289186 -0.00303184
O -1.90106283 28.78402499 20.14027638 -0.00494809 -0.00040932 -0.00066836
O 2.51275700 24.33142806 13.92741909 -0.00299565 0.00424446 0.00337336
O 3.99958694 19.10449429 15.49179770 -0.00091381 -0.00685700 0.00212794
O -2.39879145 27.78658958 26.25308388 0.00099787 0.00169448 -0.00378016
O -1.52077341 23.18457661 27.24832576 -0.00372024 0.00037370 -0.00276985
O 1.31543238 20.27517863 33.21413343 -0.00242763 0.00415370 -0.00025639
O 0.08317379 25.39899960 32.09370258 -0.00257537 0.00024749 0.00309054
O -2.09609166 24.26493194 33.21019778 -0.00196957 0.01101441 -0.00124115
O -3.53301316 28.92535421 31.97317236 -0.00180059 -0.00060999 -0.00359162
O 0.88421686 23.91307420 26.28955984 0.00284320 0.00267312 0.00390330
O 2.39789490 19.31673346 27.49942952 0.00296397 0.00087445 -0.00007393
O 7.75976745 8.52588317 2.82882426 -0.00161405 -0.00023057 0.00629962
O 8.60629162 3.94387410 3.56750784 0.00580160 -0.00241169 0.00103607
O 11.70785984 1.03158101 9.48845184 -0.00723062 -0.00130465 -0.01056321
O 10.20740454 5.94211713 8.43248039 0.01083587 0.00203798 -0.00030395
O 8.26243127 4.79693969 9.61034462 -0.00071948 0.00340385 -0.00014554
O 6.73317250 9.68460574 8.38033597 -0.00334380 -0.00196537 0.00145959
O 10.71437367 4.94182658 2.33824491 0.00352219 -0.00253586 -0.00478106
O 12.33171822 0.09004890 3.70216313 -0.00451242 -0.00405792 -0.00559820
O 6.33569036 8.44899368 14.35415544 0.00164523 -0.00333922 -0.00111335
O 7.39594703 3.67375086 15.18582085 -0.00657728 0.00328125 -0.00531066
O 9.90161689 0.90489333 21.62975458 -0.00076837 0.00022909 -0.00204619
O 8.60509976 5.81257073 20.66088361 0.00077533 0.00198111 0.00059179
O 6.59268664 4.72181638 21.74501659 -0.00340018 0.00939469 0.00040013
O 4.90762172 9.59847137 20.14566231 -0.00335642 0.00409255 -0.00353949
O 9.52211941 4.51183103 14.20373580 0.00184356 -0.00392206 0.00178777
O 10.97935696 28.58339891 15.37305980 -0.00177892 0.00198477 0.00176330
O 4.38045934 8.55551808 26.20287000 0.00140338 -0.00238222 -0.00326718
O 5.58089583 3.83774895 27.44850139 -0.00289534 0.00633606 0.00313335
O 8.36846199 1.28582066 33.37518522 -0.00018130 0.00084484 0.00319403
O 6.98987255 6.18207593 32.09160190 -0.00672895 -0.00235237 0.00312166
O 4.74675290 5.44202926 33.36377657 0.00191679 0.00192246 -0.00390021
O 3.50959743 10.23696034 31.65425760 -0.00044134 0.00082232 0.00042456
O 7.69088779 4.96766717 26.08161084 0.00271066 -0.00276662 -0.00045380
O 9.10765593 28.84652822 27.49184919 0.00277441 0.00367971 0.00332315
O 7.65301104 17.91214880 2.40600535 -0.00296433 0.00022761 0.00444953
O 8.56345097 13.36046088 3.58875067 -0.00430527 -0.00355257 -0.00074803
O 11.53707745 10.81294365 9.63849623 -0.00053892 -0.00427393 -0.00211417
O 10.27138441 15.64501364 8.53002615 -0.00462518 -0.00077835 0.00635308
O 8.10874865 14.72883612 9.58706921 0.00157062 -0.00341206 0.00565715
O 6.68328698 18.96567028 8.11806928 -0.00071062 0.00194715 0.00413001
O 10.89019365 13.93278218 2.48598967 -0.00240817 0.00072132 0.00244766
O 12.42090303 9.46876057 3.72620159 -0.00037666 -0.00250213 -0.00577746
O 6.12296689 18.04430376 14.49022233 -0.00457376 -0.00052377 0.00411122
O 7.51144569 13.13585327 15.65667377 0.00446142 0.00222784 0.00501081
O 9.91067662 10.66294552 21.39080092 -0.00102512 -0.00236728 0.00060106
O 8.80256412 15.46245155 20.16370595 -0.00309796 -0.00206749 -0.00434930
O 6.75821303 14.79025438 21.57214441 0.00062176 0.00008980 -0.00422757
O 4.95066619 19.49932520 20.13051251 -0.00311945 -0.00123996 0.00321194
O 9.18501406 14.19893069 14.26765680 0.00001232 -0.00544442 -0.00296765
O 10.93099935 9.31563863 15.87183417 -0.00118105 -0.00416730 -0.00446916
O 4.26826916 17.91175933 26.39568106 0.00168695 -0.00611212 -0.00168976
O 5.53993282 13.60806096 26.96250373 0.00605283 0.00412497 -0.00264661
O 8.31933336 10.74330321 33.05430734 -0.00098816 -0.00027241 0.00248537
O 7.01283139 15.39671316 31.86949903 -0.00539289 0.00644491 -0.00013369
O 4.98074448 14.61245040 33.31162385 -0.00032712 0.00414638 0.00165324
O 3.43263189 19.27817375 31.90911067 -0.00230945 -0.00559175 -0.00231646
O 7.78098848 14.51209103 26.00093023 0.00750468 -0.00330154 0.00778284
O 9.21103706 9.63777433 27.08700443 -0.00149293 0.00443158 -0.00306819
O 7.36395499 27.54596900 2.67934974 0.00294506 0.00042017 -0.00095528
O 8.50147101 23.00741104 3.48863884 -0.00150509 -0.00063087 0.00002882
O 11.27371957 20.35106555 9.48547104 0.00373503 -0.00186642 0.00146797
O 10.45666877 24.92222935 8.13819610 -0.00426396 0.00029608 0.00422623
O 8.20205019 24.13988562 9.59469474 -0.00490801 0.00297696 -0.00265119
O 6.65334978 28.80964223 8.08163752 0.00091712 0.00154921 0.00454115
O 10.66976971 24.17847963 2.50955036 0.00249719 0.00790766 0.00328702
O 12.40177590 19.38720179 3.79052151 -0.00730716 0.00037505 0.00239850
O 5.89972436 27.65991334 14.38232127 -0.00237933 0.00399522 0.00082365
O 7.24621620 23.08808077 15.51600846 0.00209748 -0.00508524 0.00240559
O 9.87244625 20.37469608 21.29093319 0.00353952 0.00569516 -0.00157722
O 8.61452638 25.42488853 20.15827389 -0.00283481 0.00248680 -0.00334896
O 6.60096298 24.60197519 21.54515573 0.00138813 0.00030646 0.00545198
O 4.92183310 0.10810353 19.71948616 -0.00104488 -0.00530062 -0.00145664
O 9.23283727 23.91328551 14.18986920 -0.00161196 -0.00177785 0.00341412
O 10.73258218 19.51722033 15.50487805 -0.00402869 -0.00113755 -0.00588269
O 4.39710866 28.10995220 26.36677688 0.00087265 0.00093993 -0.00717822
O 5.63286621 23.15371345 27.42039784 0.00010815 -0.00568308 0.00636884
O 8.13636785 20.22796978 33.59642076 -0.00080513 -0.00204926 -0.00334630
O 6.97979346 25.41472925 32.35483435 -0.00435105 -0.00055473 0.00549036
O 4.90874119 24.11796375 33.40860972 -0.00017285 0.00061285 0.00125476
O 3.31392955 28.81916264 32.14485912 -0.00002778 -0.00210271 0.00350848
O 7.80983324 24.04168363 26.20710997 -0.00643889 -0.00048516 -0.00240942
O 9.27947494 19.42503764 27.48442225 -0.00414242 0.00519642 -0.00234441
O 14.40193140 8.77423931 2.20902272 0.00312720 0.00133479 -0.00283647
O 15.47241542 3.61713171 3.50833040 -0.00616941 -0.00064140 0.00307340
O 18.38763062 0.87090075 9.87934049 -0.00233625 -0.00545064 0.00114787
O 17.22114756 5.74547803 8.36121681 -0.00349660 0.00155980 0.00088606
O 15.00204948 4.66406542 9.56234566 -0.00259386 0.00217532 -0.00176143
O 13.47232206 9.82094873 8.20860887 -0.00131005 -0.00148678 -0.00341279
O 17.56459810 4.64758911 2.47785302 -0.00381744 0.00552863 -0.00148122
O 19.07920961 28.49130788 3.71648469 -0.00005180 -0.00186989 -0.00054412
O 13.04838351 8.45723943 14.23309131 0.00812701 0.00153045 -0.00257935
O 14.26144014 3.63794764 15.61648579 -0.00024974 -0.00120722 0.00390658
O 16.75285885 1.24216001 21.34497905 0.00002812 0.00187138 -0.00297230
O 15.58404510 6.02528127 20.46327035 0.00182507 0.00010288 0.00103075
O 13.28874500 4.62317353 21.64845130 0.00199983 0.00651101 0.00063679
O 11.88414834 9.61855333 20.05721332 -0.00030195 0.00192562 0.00120591
O 16.25038483 4.81140641 14.46216017 -0.00049034 0.00352759 -0.00657977
O 17.89803709 28.74164665 15.57171021 -0.00227491 -0.00493773 0.00231946
O 11.27050125 8.63750409 26.03032964 -0.00236342 -0.00195479 -0.00611929
O 12.52551306 3.84463816 27.32442920 0.00406191 0.00121562 0.00124379
O 15.22211158 1.32294355 33.17788291 -0.00173739 0.00093578 0.00085077
O 13.73355019 5.70026514 31.64476240 -0.00726274 0.00029787 0.00281970
O 11.88712326 5.09360519 33.33569060 -0.00439653 -0.00224519 0.00280468
O 10.31428777 9.78189116 31.75882166 0.00533798 -0.00227048 -0.00139682
O 14.50822202 5.11773281 26.25948894 0.00285134 0.00498575 -0.00314836
O 16.05131893 28.88943376 27.48620680 0.00288698 -0.00146141 0.00349560
O 14.22932182 17.84828535 2.69099786 -0.00097995 0.00078477 -0.00052062
O 15.73963385 13.15445841 3.25829803 -0.00071658 -0.00371173 0.00288157
O 18.28596838 10.65851123 9.73892218 -0.00364737 0.00096416 -0.00155348
O 16.96563184 15.53423507 8.30519881 0.00155123 -0.00478779 0.00749225
O 14.94140680 14.63978474 9.60774311 0.00582005 0.00365571 -0.00356991
O 13.47328246 19.45273368 8.33075096 -0.00587097 0.00324420 0.00072301
O 17.70483195 14.39670213 2.22051685 -0.00060594 0.00237228 0.00067293
O 19.27581476 9.38233434 3.57451049 -0.00265854 -0.00266566 0.00397615
O 12.75882767 18.26437062 14.37979664 0.00370704 0.00270766 0.00864618
O 14.22844193 13.23077595 15.37158114 0.00368640 -0.00516591 0.00098316
O 16.68924927 10.80044730 21.22875699 0.00499542 -0.00038693 -0.00074050
O 15.65582277 15.50489744 20.13460807 0.00208361 -0.00095555 0.00867096
O 13.55601807 14.57333358 21.63286162 -0.00089346 -0.00061613 0.00297479
O 11.99850540 19.19965644 20.18749214 -0.00370210 0.00013369 -0.00233354
O 16.06976745 14.61702142 14.23137017 0.00390798 0.00105241 0.00161015
O 17.51268323 9.28704923 15.33757620 -0.00167387 -0.00684265 -0.00519676
O 11.12893195 18.09778053 26.25322744 -0.00379991 0.00040882 0.00077918
O 12.38053818 13.59800142 27.17904954 0.00522006 0.00346731 0.00314017
O 15.06104845 10.99577245 33.07744572 -0.00362910 0.00207702 0.00434246
O 14.35766040 15.55593611 31.99090239 -0.00370830 0.00718955 0.00107332
O 11.90282960 14.70631436 33.37451381 -0.00457284 -0.00156615 -0.00124888
O 10.26336161 19.78680769 32.15938165 -0.00422157 -0.00079039 -0.00271113
O 14.62028903 14.59105213 26.08016630 0.00113745 -0.00189553 -0.00566724
O 16.24464633 10.02362264 27.58976381 0.00604836 -0.00108671 -0.00296977
O 14.27068944 27.85043459 2.61278572 -0.00200356 -0.00297267 -0.00583101
O 15.61444884 23.02113525 3.55963159 -0.00575619 -0.00855513 0.00139682
O 18.26947253 20.05847528 9.60143103 0.00148244 -0.00388550 0.00225318
O 16.81810959 25.15886369 8.38813720 -0.00222354 0.00111905 0.00452235
O 15.03795179 24.00390418 9.60788424 -0.00011056 0.00186964 -0.00279074
O 13.63946066 0.06713295 8.35070432 -0.00076920 0.00336620 0.00059200
O 17.51641273 24.00056402 2.27092779 -0.00181624 0.00154036 -0.00134173
O 19.22995030 19.24230017 3.72930240 -0.00288422 -0.00370558 -0.00025956
O 13.11741402 27.96074311 14.09207744 -0.00262193 0.00140466 0.00361493
O 13.87299677 23.13426571 15.46936727 0.00176205 0.00288012 -0.00094096
O 17.05481601 20.45549473 21.27004358 0.00083551 -0.00025292 -0.00443360
O 15.19178233 25.21022705 20.11416489 0.00746130 -0.00068724 -0.00321791
O 13.25087311 24.11229969 21.50097543 0.00099672 -0.00135133 0.00739102
O 11.91096437 0.11858445 20.06053397 -0.00496542 0.00188472 -0.00697595
O 16.16450434 23.64268503 14.26126657 0.00411785 -0.00011970 -0.00117398
O 17.46238278 19.50147807 15.23078093 -0.00161644 -0.00083114 0.00094006
O 11.21833269 28.05117908 26.09206757 0.00222920 -0.00423975 0.00295345
O 12.54220957 23.23051691 27.33248733 -0.00070968 -0.00438178 -0.00072912
O 14.90052416 20.31037914 33.34624051 -0.00540679 0.00306594 -0.00212283
O 13.72887990 25.39929620 32.34946353 -0.00619492 -0.00202166 0.00424609
O 11.70574109 24.17221123 33.54647267 0.00320428 0.00039131 -0.00027455
O 10.44222044 0.28282716 32.30412578 0.00659227 0.00362543 0.00356146
O 14.49483369 24.14024394 25.69251556 0.00406125 0.00401135 0.00844661
O 15.98606704 19.45397349 27.40653813 0.00010551 0.00095248 -0.00302946
H -0.12827252 8.84308622 2.72312864 0.02768921 -0.00610078 0.02139307
H 2.63047707 3.98740307 3.31307402 -0.02013132 0.00727965 -0.03407761
H 5.35698681 0.62031149 9.11766174 0.00271356 0.00078356 -0.01741531
H 2.58915773 5.59314387 8.66358298 0.01241903 0.01445139 0.00314565
H 5.60401544 8.38674470 1.28471981 -0.00870894 0.00504600 -0.00537537
H 3.80159765 3.24342556 5.33412013 -0.00759724 -0.02084507 -0.00161983
H -0.10023307 1.65678512 11.24160439 0.01393993 0.00332923 -0.00370991
H 1.23014608 6.40860008 6.71859545 0.00598835 -0.01130307 0.01749223
H 4.23339805 6.76254664 10.74594428 -0.01353399 -0.01092136 -0.01071657
H 3.76605332 1.93061240 7.29939584 -0.01328861 0.01438285 0.01573711
H 1.00182379 2.98532017 1.32048710 0.01126268 -0.00571820 -0.00764007
H 1.21023908 7.91312471 4.97682539 0.01276309 -0.01232487 0.00718676
H -1.96189103 5.54369658 35.34998624 0.01967690 0.00035574 0.00186807
H -0.22505338 0.51297669 6.21397515 -0.01240892 0.00431856 0.02297101
H 2.47734175 3.83799215 12.31788061 -0.01660591 0.01146011 -0.01510192
H 5.21724194 9.24724483 5.83352276 -0.02998737 -0.02253913 -0.02008579
H 2.71622928 6.89196401 1.77221925 0.02953912 -0.02396466 0.00196283
H -0.07621554 1.97775055 4.19711203 -0.02046818 0.01210642 0.00272738
H 2.71723519 2.62973466 10.14387854 0.01144204 0.00578863 0.03048037
H 5.33275030 7.64849809 7.60169299 -0.00058502 -0.00095104 0.00985655
H 5.13037126 4.83850232 9.69714475 0.01192711 0.01427822 0.02278002
H 3.05787397 0.14155507 8.43283494 0.00395255 -0.00661446 -0.00094045
H 0.08273032 4.78017702 2.18775915 0.00669623 0.01179653 -0.02154671
H 2.26309987 9.49589030 3.50733939 0.00334704 0.02557149 0.00911362
H 7.11646292 2.52116455 8.45988482 -0.00555659 -0.01309668 0.01333570
H 1.98685479 8.86801432 10.53117584 -0.01310243 0.01773881 -0.00982448
H 19.13032526 5.02018635 4.86048236 -0.00419673 -0.00918198 -0.01071217
H 5.03293265 1.21842515 1.75325043 0.01801081 -0.00017817 0.00258622
H -0.50445256 3.98181219 7.59134575 -0.00401940 -0.01535384 0.00969115
H 1.52129925 7.59609004 9.40912454 0.00539425 -0.00307000 -0.02379978
H 5.56782668 5.50784971 4.74435559 0.02433596 0.00720722 0.03253324
H 3.56155044 0.12437562 1.43433008 -0.03088619 0.01531363 -0.00484463
H -0.20835378 2.60821533 8.71305812 -0.01467252 -0.00519828 -0.01228215
H 0.30383313 8.37694395 10.42629636 -0.00013906 -0.01447359 0.01520680
H 5.91331301 6.86976062 3.78005524 0.00236137 0.00365633 0.01674519
H 3.53535446 1.72177057 2.33529865 0.00310083 -0.01347085 0.00447086
H -1.87673750 8.92990743 14.48253378 0.00952836 -0.00085342 -0.00976329
H 1.31417501 3.84024975 15.04513071 0.01077954 -0.03198736 -0.00607374
H 3.97359627 0.64147158 20.91422632 0.02338062 -0.02012161 0.01229270
H 1.03063759 5.58109489 20.48176333 0.03411329 -0.00725166 0.00654917
H 4.24475514 8.05504730 12.92970828 -0.01940488 0.00036712 -0.02315949
H 2.39176698 3.37053913 17.44550505 -0.00491672 0.00118122 0.00180971
H -1.93909638 1.44972524 23.27318684 -0.01691861 -0.01489508 -0.01452237
H -0.10663959 6.32806026 18.58153709 0.01872263 0.01363633 -0.02401514
H 2.57488907 6.66047904 22.42991274 0.00667947 -0.00725675 0.02444538
H 2.46543254 1.48214494 18.97376883 0.00479439 0.00714457 0.00765852
H -0.24481075 3.41832540 13.17110604 -0.00958138 0.00001814 -0.00107758
H -0.22728201 8.12591728 16.94037421 0.01393657 -0.00763992 0.00704690
H 1.25799519 5.37746128 11.99307108 -0.01313480 -0.02242886 0.02855225
H -1.62476320 0.46988472 17.92791007 0.03442091 -0.01331044 -0.00047101
H 0.95807044 4.31093234 23.69751619 -0.01307870 -0.01644819 -0.00314100
H 3.83350187 9.06139525 17.71079679 0.00834451 0.00952583 0.00012866
H 1.04956604 6.89988974 13.86716462 -0.01996921 0.00983256 -0.00100069
H -1.55015129 2.05931189 16.15700710 0.01557128 0.00736927 0.01514421
H 1.12669925 2.73477375 21.90950541 -0.01894300 0.00467829 0.01691639
H 3.83282014 7.43274089 19.61129083 0.00794640 -0.00912241 -0.00294460
H 3.48526708 4.79512089 21.50483349 0.02755075 -0.01589479 0.00801418
H 1.33424817 28.77985703 20.01850443 0.03122676 -0.02907378 0.00299853
H -1.22318385 4.98466077 14.01921335 0.01831492 0.01955651 0.00443221
H 0.86685481 9.59798144 15.50849484 -0.01002927 0.00521642 0.02156912
H 4.16131509 3.56372705 19.82548986 0.01049979 -0.02604782 0.00243530
H 0.21391171 8.33964772 21.78512297 0.01657365 0.02413951 0.00482788
H -2.06088010 6.77434841 15.72339664 -0.00792775 0.03372702 -0.02346967
H 2.50368554 2.23461848 14.45542804 -0.00758664 0.02426977 0.02686878
H -1.53420056 2.61447489 20.85172569 -0.01619188 0.03660072 -0.00182469
H -1.43052371 7.72179424 21.22372214 -0.01742469 -0.04398342 0.01134264
H 4.74680064 5.81151659 15.94332997 0.03911385 0.00753015 0.01997192
H 2.81410289 1.06161190 13.26640752 0.00366390 -0.02392728 0.00684505
H -1.25673657 3.66284093 19.33315344 -0.00267844 -0.00288407 -0.00540828
H -1.24312594 9.20439701 22.29078319 -0.04400903 0.00043300 -0.01081088
H 3.82258623 6.99593186 15.15491437 -0.01303886 -0.00423198 -0.02301498
H 1.16716515 1.11692503 14.00213480 -0.02702023 -0.01696557 0.01905332
H -3.42615465 9.05369255 26.34123304 0.01210229 -0.01197403 -0.00762550
H -0.31720968 4.13657414 27.01489532 0.00885804 0.00838372 0.00067031
H 2.14268385 0.69845673 33.29208576 0.02576128 0.01444272 0.01944367
H -0.60372199 5.50875924 32.61366348 0.00729914 -0.00610597 0.00575256
H 2.44484829 8.24133869 24.28238601 0.01938528 0.02586623 0.00656771
H 0.50452034 3.73672755 29.30882415 0.01036329 -0.02408460 0.01391805
H -3.46961685 1.57394962 35.08945149 -0.01369124 -0.03410202 0.00562588
H -1.97109307 6.23581753 30.64410518 -0.01145956 0.00877416 -0.00131510
H 0.81004604 7.04098036 34.91904401 0.01165944 0.00104067 -0.00378939
H 0.44690488 2.13576384 31.12720661 0.02990471 -0.01164449 0.01395770
H -2.06735169 3.16564077 25.13521185 -0.00249497 0.00222924 -0.00660218
H -1.97046290 7.71799265 28.67983802 0.01768747 0.00075312 0.01439988
H -0.34118908 5.51170223 23.71590771 -0.01151189 0.00595102 -0.01875711
H -3.14381269 0.40489203 29.87102777 -0.01974815 0.02287368 0.02035323
H 4.11914669 4.43918392 0.16577162 0.01954354 -0.00732160 0.01261558
H 1.91912188 9.18217547 29.54631520 0.00889592 -0.02591382 0.01120447
H -0.44708797 7.13133782 25.68913497 0.00137725 -0.01096966 -0.00009310
H -3.21728453 2.03066837 27.85347983 -0.01248134 -0.00774717 -0.01211762
H -0.70544579 2.63741465 34.24448243 -0.01759674 -0.00024329 -0.00632106
H 2.12944945 7.44045412 31.38046245 0.00855897 0.00948037 -0.01699429
H 1.66649826 5.01860710 33.88033135 0.00428398 -0.01355515 -0.00950272
H -0.37696402 0.16489887 32.17437085 -0.00716143 0.00879863 -0.00114735
H -2.93433029 4.76793505 26.14993974 -0.01327165 -0.01539281 0.02040955
H -0.89828349 9.58110031 27.51726867 -0.01083143 -0.00326643 -0.00424667
H 3.90220834 3.95909672 31.28716535 -0.00923839 -0.00602786 0.00297912
H -2.63429855 8.53385105 34.17179715 -0.00813779 0.00890442 -0.00086192
H 15.42391376 7.17911615 27.45318809 -0.01301102 0.02291486 0.00286705
H 1.75975841 1.20955029 25.24555819 0.00216587 -0.01281373 0.00530940
H -2.65712964 3.64666908 31.24366643 -0.00975205 0.00295844 -0.01751304
H -0.94894671 8.49608118 33.48466239 -0.01368473 -0.01689699 0.01150250
H 2.39930698 5.63706147 28.28009097 -0.01999011 -0.00830266 -0.02171451
H 0.12340385 0.53471085 25.26021171 -0.00995171 -0.01466131 0.00542398
H 16.13319127 3.82844932 31.65655314 -0.01320226 0.00086081 0.00668767
H -2.20374870 7.31865210 33.02791550 -0.00707895 -0.01259280 -0.00231816
H 2.84823543 6.90303885 27.12748761 0.00423937 -0.00732458 0.01284022
H 0.64115461 2.22573133 26.01203888 -0.01916768 0.01737746 0.02857144
H 0.19187147 18.88906127 2.85830112 -0.00229851 -0.01140280 -0.00465602
H 2.78671996 13.75383203 3.07079547 -0.00849492 -0.00483824 -0.00188365
H 5.57932364 10.31915995 9.37892938 0.01337950 0.00554366 0.01977977
H 2.42362891 15.28012768 8.60209852 0.00361031 -0.02860864 -0.02083912
H 5.82767260 17.98972044 0.60627295 0.01152976 0.00321985 -0.01860613
H 3.93385950 13.04717062 5.29006055 -0.02758385 -0.01766218 0.00209729
H -0.14948349 11.38006142 11.13018161 0.01026189 0.00146115 -0.00921138
H 1.41848459 16.23377845 6.78280131 -0.00628505 -0.01544156 -0.00379607
H 3.88857389 16.09791660 10.95594095 -0.02185075 -0.01042258 -0.01178107
H 3.91114470 11.53533996 7.26287640 0.01484240 0.01062284 -0.02598184
H 1.19518432 12.41047781 1.26173105 0.00352841 0.00381545 -0.00915488
H 1.52107950 17.47535373 4.81142008 0.00366059 0.01939797 -0.01349328
H -1.91218350 15.23354762 35.66765236 -0.00443708 -0.00851714 -0.00796389
H 0.05547610 10.07327940 6.03808624 0.00054713 0.01585791 0.02766813
H 2.51702312 13.68351929 12.16543195 0.00783158 0.04507657 -0.00985020
H 5.35155428 18.94203122 6.06781958 0.02725200 0.00330565 0.02574224
H 2.76397280 16.57613166 1.98604048 -0.00402467 -0.01261052 -0.02094248
H 0.12359103 11.60315933 4.09000651 -0.01401299 0.00447468 -0.00645995
H 2.62048606 11.94153073 10.45207732 -0.00050876 0.02000607 -0.00187170
H 5.38734182 17.18116116 7.80507430 0.00130843 0.02032788 -0.02597330
H 4.94914181 14.42841649 9.85502860 -0.00959737 -0.01221437 -0.02538759
H 2.91527275 9.66160921 8.24302068 0.00405983 0.00397231 -0.01031783
H 0.29621682 14.28826841 2.22475110 0.01409134 0.00902760 -0.00713521
H 2.58569343 19.29786444 3.63878286 -0.01952695 0.01915825 -0.01078600
H 7.50404572 13.23463265 7.60650560 -0.00093590 0.00416005 0.00967399
H 0.84728107 16.80980944 9.24660472 -0.01804828 0.01410570 0.01525021
H 19.29450137 14.96935460 4.66125140 -0.00212502 0.03696215 -0.01574685
H 2.98416786 10.81164657 1.76570630 0.01620581 -0.00757022 0.00528266
H 0.86429814 13.67339283 7.24859265 -0.00992749 -0.00293657 -0.00586296
H 0.62593251 18.05046646 10.60039513 -0.00489171 0.01477174 -0.00215515
H 5.90599904 14.95209402 4.47149455 0.02762326 0.00159992 -0.00473627
H 4.63595061 11.45249005 2.17493093 0.00146298 -0.00171018 -0.00704913
H -0.98459079 13.69555516 7.63928197 -0.00091059 0.00605359 0.02061431
H 2.24191295 17.72637822 9.84398714 -0.01033476 0.00640193 0.00296227
H 6.45827807 16.17529062 3.42757704 0.00204484 0.00631769 -0.01657659
H 4.46184260 9.89297030 1.15656789 0.00307144 -0.00801828 0.00617576
H -1.73306555 18.65100043 14.86172332 -0.00586885 -0.00014233 0.00123309
H 1.18538311 14.00334137 15.15774962 0.02106862 -0.01108633 0.00236950
H 3.78503101 9.97523762 21.12917355 -0.00398444 0.01430110 -0.00020761
H 1.17146524 15.08573049 20.45285931 0.00662469 -0.01316854 0.00317494
H 4.06549657 17.79835102 12.88789728 0.00710111 0.00526335 0.02464790
H 2.28758366 13.21289653 17.08551390 0.00882875 -0.01638225 0.02061875
H -1.90673132 11.30600441 22.85229000 0.03025744 -0.00684608 0.00211771
H -0.10291174 15.80111014 18.43735089 -0.00594830 -0.02915328 -0.01699335
H 2.68158161 16.24531192 22.33511900 -0.00656840 -0.00259524 -0.01629913
H 2.29785577 11.61969195 19.11681414 -0.00267331 -0.00320581 -0.00852771
H -0.41993792 12.67750483 13.26671460 -0.00470998 -0.01152343 0.00790581
H -0.11605400 17.78114966 16.71791901 0.00915132 0.01397084 0.01936362
H 1.18758393 14.90595019 11.93414814 0.02021971 -0.01192487 -0.02671311
H -1.36292828 10.01290744 17.76272739 -0.01366478 -0.00156542 -0.00386354
H 1.07563769 13.88992386 23.67274456 -0.02770244 -0.00970016 0.00586572
H 3.79498468 18.82452029 17.72092657 0.01341806 -0.01374017 -0.01992428
H 1.12957855 16.66737378 13.77605420 0.03813599 -0.01397178 0.00281412
H -1.44115089 11.46694939 15.84644776 0.01700314 0.02523137 0.00680060
H 1.00269449 12.23651771 21.96962084 0.01383329 0.01971066 0.01889792
H 3.79268786 17.28107759 19.68516326 0.00138220 -0.00421398 0.00541341
H 3.55068716 14.54262496 21.47621167 0.00736032 0.01208199 -0.00174382
H 1.30102635 9.73337831 20.17309354 0.01315523 -0.00388856 0.05157074
H -1.35490118 14.49255502 14.03868248 -0.00617211 0.01428895 0.00399110
H 0.82308276 19.19155960 15.67416272 -0.00041600 -0.00729641 0.01345330
H 4.30213804 13.22444461 19.93107000 -0.01522036 -0.00017425 -0.02654591
H -0.75626062 18.59053595 22.38346250 0.00345920 -0.00105064 0.00001049
H -1.91145777 15.80490565 15.67693373 0.01422031 -0.01603089 -0.00183574
H 2.10183906 10.05775059 13.33173616 0.01034550 -0.00646296 -0.00525433
H 17.83868942 13.81576523 19.40105873 -0.01051795 -0.00836337 0.00502143
H 0.88110313 18.27343971 21.71885089 -0.02123493 0.00152955 0.00815691
H 3.67462197 15.63884605 16.58861274 0.00875475 0.00662145 -0.02266753
H 2.23125350 11.51687456 14.32644208 0.00909966 -0.01223976 -0.01206018
H -1.96058521 12.30680293 19.86032249 -0.00405069 -0.00855638 -0.01992866
H -0.62228472 17.25661484 21.35260933 0.00089552 0.01210949 0.00264613
H 5.12555911 15.73182572 15.64299955 -0.00424475 0.00186548 0.00600163
H 3.62513310 10.88394290 13.60165057 -0.01207057 0.00424871 -0.00530107
H -3.12565352 18.40174233 26.18088966 0.00569865 0.01816014 -0.01777740
H -0.23878826 13.67973534 26.78817239 0.01167911 -0.03294402 -0.01274409
H 2.29343771 10.63590930 32.65390838 -0.01265901 0.00844567 -0.02830206
H -0.66152636 14.92895244 32.54817590 0.00796917 -0.03744493 0.00395970
H 2.48998263 17.70488127 24.36014570 -0.02245254 -0.00475451 -0.02809370
H 0.89441835 13.02001477 29.05520833 0.01414323 0.01288686 -0.00654513
H -3.50305400 11.05153431 34.97543494 0.01809697 0.04301047 -0.02794916
H -1.90355024 16.09572019 30.78490002 -0.00190513 -0.00632598 -0.00312097
H 0.97805405 16.41049105 34.29068815 -0.00606623 0.00662745 0.00729457
H 0.77854160 11.23632213 30.92526184 -0.01507791 -0.00854690 -0.03166421
H -2.03218741 12.60888801 24.80338125 -0.01224975 -0.01271301 0.00720550
H -1.76184551 17.42442846 28.64091481 0.00997882 -0.00994413 -0.03498308
H -0.25104939 14.99185609 23.33804643 -0.01021558 -0.02077374 -0.00473600
H -3.35036926 10.63469074 30.07193317 0.03011127 -0.00958019 -0.00485080
H -0.58019773 13.97967857 35.52482057 0.00552489 -0.02082484 0.02772229
H 2.34014987 18.32682953 29.36201972 -0.02564182 0.02233528 0.00214329
H -0.22600415 16.67792794 25.01505179 -0.02011930 -0.00301450 -0.01655591
H -3.28502663 12.34120777 28.25582603 -0.01552222 0.00305938 0.01117053