2160
Time=36000.00000001 pbc="T T T" Lattice="20.63839791 0.00000000 0.00000000 0.00000000 29.02504331 0.00000000 -4.74280446 0.00000000 35.76700173" energy=-13799.18082273 virial="-52.92038068 5.61405976 79.39404265 5.61405976 -52.09550907 6.92906811 79.39404265 6.92906811 -42.02880226" stress="-0.00017398 0.00026485 0.00377118 0.00026485 -0.00028325 0.00028632 0.00377118 0.00028632 0.00021770" Properties=species:S:1:pos:R:3:vel:R:3
O 0.88914806 8.38651635 2.49864135 -0.00008525 0.00060107 0.00387163
O 1.98303403 3.66820569 3.52628386 -0.00308290 -0.00188671 0.00476362
O 4.69200467 1.35477944 9.28959327 0.00497821 -0.00234103 -0.00076656
O 3.36165849 5.67255766 8.11015906 0.00171711 0.00190585 -0.00045868
O 1.35418296 4.80924039 9.59631167 0.00323860 0.00197459 -0.00455627
O -0.15774689 9.82382044 8.65241688 -0.00111552 0.00019973 0.00343035
O 3.97395781 4.65292365 2.41111063 0.00009491 -0.00138991 -0.00023123
O 5.38362457 28.77574979 3.36871725 -0.00286316 -0.00098209 0.00136365
O -0.83371365 8.59469496 14.31732893 0.00157078 -0.00409161 0.00033438
O 0.36309589 3.52279527 15.28285288 0.00504758 -0.00531350 -0.00063695
O 2.82638473 1.15809147 21.36491147 -0.00655350 -0.00105083 0.00236633
O 1.76527234 5.81298470 20.21001326 -0.00144645 -0.00374305 0.00526843
O -0.35775683 4.79455150 21.53653323 -0.00239305 -0.00412913 -0.00264058
O -1.65516238 10.29088901 20.55958758 0.00385667 0.00020350 0.00008805
O 2.46141520 4.77977122 14.33580467 0.00476395 -0.00520211 0.00148994
O 4.13670186 0.23236787 15.95330947 -0.00407635 0.00162231 -0.00739293
O -2.45792380 8.64725982 26.01166766 0.00209952 0.00208517 0.00181720
O -1.28213540 3.73293020 27.58151539 -0.00221751 -0.00172037 -0.00170106
O 1.53618502 1.27897436 33.07566609 -0.00247727 0.00339354 -0.00042244
O 0.16038582 6.19567868 32.24948164 -0.00500539 0.00283447 0.00743692
O -1.98039454 5.07888675 33.30877316 -0.00192200 -0.00380008 -0.00059321
O -3.58564995 9.73240877 31.95258146 0.00316787 0.00204368 -0.00124913
O 0.96653783 4.41525479 26.57512692 -0.00955117 -0.00020583 0.00165078
O 2.33986614 28.75024219 27.60535670 0.00565738 0.00136386 -0.00179181
O 0.69654206 18.26072948 2.53015823 0.00353603 -0.00007704 0.00309366
O 2.20217223 13.54264627 3.88305065 0.00499166 -0.00111630 -0.00204646
O 4.50480550 10.82040129 9.62852107 -0.00535194 -0.00284375 -0.00379048
O 3.32767249 15.67234746 8.80847472 -0.00203671 0.00328809 0.00192344
O 1.24226958 14.44800097 9.89924953 0.00058257 0.00004570 -0.00002201
O -0.27017562 19.32784906 8.33719772 0.00506006 -0.00080394 -0.00025859
O 4.03109771 14.47996636 2.21103264 -0.00012630 -0.00161434 0.00194813
O 5.55689134 9.69768212 3.81889894 -0.00044765 0.00446988 -0.00086513
O -1.00560018 18.48998390 14.27141599 0.00213375 0.00435149 -0.00298686
O 0.33063763 13.73239286 15.62215774 -0.00176251 -0.00071010 -0.00334547
O 3.04868133 10.53528293 21.63437596 -0.00453429 0.00196065 0.00448653
O 1.76105438 15.93528737 20.35534636 -0.00159488 -0.00204432 0.00155798
O -0.25910688 14.42591879 21.52344912 -0.00122895 -0.00047489 0.00041054
O -1.72664044 19.33544322 19.97172626 -0.00147409 0.00010166 0.00330741
O 2.35729914 14.78014570 14.20002397 -0.00299601 -0.00167196 0.00711021
O 4.00997662 9.80513680 15.62417146 0.00377528 0.00381295 -0.00110116
O -2.41592700 18.26876167 26.00893436 -0.00066697 0.00237331 -0.00584682
O -1.31578443 13.24223755 27.21432274 -0.00063111 0.00229974 0.00282951
O 1.25975489 10.75311767 33.39040826 -0.00006634 -0.00225630 -0.00426470
O 0.33803616 15.46428077 32.01708951 -0.00372403 0.00223068 0.00321730
O -1.77813271 14.87843239 33.38262430 -0.00222522 0.00241154 0.00182935
O -3.40020853 19.38843567 31.80864089 -0.00354993 -0.00325397 0.00243743
O 0.99653948 14.23612753 26.30243993 0.00056494 0.00332273 0.00802146
O 2.35765300 9.84936405 27.22060534 0.00187879 -0.00410025 0.00272816
O 0.65448400 27.96803549 2.17997629 -0.00315149 -0.00300935 -0.00597354
O 1.87020286 22.65907990 3.18426532 -0.00150539 -0.00008808 -0.00114582
O 4.48899534 20.59363091 9.43235949 -0.00561758 0.00081776 -0.00177329
O 3.42730971 25.46098816 8.35587516 -0.00404908 -0.00342831 0.00275398
O 0.99793065 24.64380727 9.29687243 0.00348508 -0.00027556 0.00057312
O -0.10737284 0.16325661 8.17318880 -0.00904546 0.00163778 0.00106970
O 3.95607540 24.03887642 2.26163843 -0.00113528 -0.00019925 0.00262076
O 5.30114239 18.82728876 3.69518080 -0.00392672 0.00106882 0.00198156
O -0.89370785 27.77604111 14.32647333 -0.00260734 0.00011112 0.00029087
O 0.23049236 23.20806509 15.43031638 -0.00127269 0.00897690 -0.00058219
O 3.03171691 20.97271927 21.20777696 -0.00142397 -0.00251451 0.00043775
O 1.62950381 25.62718605 20.50728380 -0.00041928 0.00143602 0.00324068
O -0.49275536 24.45078978 21.20341097 -0.00024647 0.00154007 0.00045295
O -1.91677951 28.98834401 19.97057631 0.00203937 0.00322322 -0.00717115
O 2.19596015 24.21305159 14.07547931 0.00151564 -0.00075524 0.00343723
O 3.94042501 19.51304654 15.50861500 0.00586042 0.00096241 0.00451674
O -2.31939172 27.72606311 26.25244345 -0.00096432 0.00413845 -0.00613057
O -1.06762064 22.84224020 26.99413113 0.00073748 -0.00049260 -0.00467020
O 1.47160084 20.50595288 33.27861556 -0.00424414 -0.00159591 0.00167450
O 0.21501165 25.23537291 32.31224046 0.00139665 -0.00028802 0.00065805
O -1.64226783 24.19662776 33.71279714 -0.00303776 0.00176138 -0.00212845
O -3.48228702 28.82666311 31.98628289 0.00239871 -0.00495480 0.00219243
O 0.99791753 24.27844555 26.24511425 0.00187087 0.00301363 0.00138137
O 2.42017421 18.81942962 27.13690242 0.00123606 0.00761778 0.00144550
O 7.29609554 8.40481134 2.67754169 -0.00202473 0.00002984 -0.00211517
O 8.97356677 3.61116805 3.21433433 0.00232394 0.00048575 0.00024176
O 11.30584491 1.31649137 9.41335193 0.00467312 -0.00467008 0.00127299
O 10.49295014 6.15532767 8.69144880 -0.00138897 0.00122636 -0.00415085
O 8.32181503 4.99058275 9.35623904 -0.00487106 -0.00104352 -0.00264863
O 6.78146188 10.00568385 8.48313765 0.00149294 -0.00122482 -0.00008259
O 10.88029663 5.05615295 2.24998036 0.00332558 -0.00186126 -0.00174363
O 12.39517590 28.99161096 3.77409694 0.00070904 0.00412072 -0.00659872
O 6.12281417 8.87321380 14.05157383 0.00066210 0.00327575 0.00859853
O 6.98856558 3.66558073 15.55577437 0.00340106 0.00139640 0.00417986
O 10.04454095 0.88050207 21.16138742 0.00463989 -0.00067633 0.00063489
O 8.59662138 5.96677395 20.39679725 0.00033321 -0.00267714 -0.00090649
O 6.52215156 4.93997941 21.55725752 -0.00332387 -0.00894695 -0.00091737
O 5.08893461 9.63458842 20.29783487 -0.00446439 0.00121324 0.01059163
O 9.13802092 4.91645928 14.31173413 -0.00242281 -0.00061268 -0.00058455
O 10.74672883 28.89347319 15.71280070 -0.00178512 0.00359481 -0.00181936
O 4.29303342 8.52387081 26.29525575 0.00301727 -0.00187818 0.00171729
O 5.31726888 3.92180223 27.30274800 0.00173910 0.00457080 0.00492318
O 8.25248116 1.01475698 33.30436520 0.00383416 -0.00305688 -0.00080613
O 6.85029913 5.42931454 32.03840859 0.00371957 0.00291733 0.00339958
O 4.91463756 5.02235935 33.60500577 -0.00181396 -0.00616193 0.00302297
O 3.44470470 9.68706591 32.26057797 -0.00195125 -0.00121171 -0.00352200
O 7.39117580 4.59702010 25.81635983 -0.00185450 -0.00853428 0.00181493
O 9.20851997 28.97713590 27.30591239 -0.00709671 -0.00333600 -0.00195755
O 7.43097019 18.27425467 2.28235724 -0.00222367 -0.00111357 -0.00015137
O 8.86642629 13.44163962 3.79321358 -0.00483828 -0.01019345 -0.00361469
O 11.75451713 10.78393367 9.84090920 0.00444566 0.00089764 -0.00109236
O 10.35805936 15.54190979 8.57047747 0.00649904 0.00022225 0.00229135
O 8.12522275 14.68635334 10.02377628 -0.00221022 0.00187398 -0.00378863
O 6.55897237 19.69478092 8.40431789 0.00180631 0.00645945 0.00423816
O 11.11108824 14.22242805 2.65406247 0.00176958 -0.00022336 0.00227179
O 12.41159109 9.32556744 3.55233685 -0.00423183 -0.00269451 0.01019149
O 5.76960589 17.98148399 14.83996386 0.00950603 -0.00764830 -0.00123431
O 7.19617363 13.35126975 15.60009234 -0.00232719 0.00171146 -0.00452750
O 9.73060005 10.71732472 21.26246635 0.00072357 0.00270928 -0.00317467
O 8.61596107 15.64140133 20.44524886 0.00327073 -0.00089743 0.00070549
O 6.52966653 14.31299209 21.31985573 0.00086981 -0.00109991 -0.00320971
O 5.08641851 19.63654756 20.30570130 -0.00052435 -0.00268383 -0.00185085
O 9.11166391 14.44089161 14.43506239 -0.00290981 0.00230641 -0.00021815
O 10.83743940 9.34590795 15.62286258 0.00150961 0.00041569 0.00368879
O 4.58160979 18.08611588 26.00560167 -0.00190581 0.00011844 -0.00248057
O 5.66381861 13.25578957 27.44648888 -0.00194087 0.00042226 0.00011058
O 8.26045551 10.69558215 33.59342567 0.00483340 -0.00068685 -0.00203397
O 7.12883010 15.70280558 32.21559884 0.00118464 -0.00585727 0.00660605
O 5.15473849 14.46290709 33.64412608 -0.00050804 0.00150682 0.00371972
O 3.53747412 19.29811344 32.01034182 0.00154275 0.00231634 0.00299132
O 7.65391700 14.31549696 26.28975373 -0.00042118 0.00347934 0.00473031
O 9.34052481 9.25737140 27.45757959 0.00474706 -0.00048693 -0.00462849
O 7.64384220 28.09036189 2.32138100 0.00553002 -0.00238755 -0.00068028
O 8.77318421 23.06970971 3.54151277 0.00007184 0.00187252 0.00094180
O 11.25508634 20.43322481 9.69016461 -0.00465530 0.00293012 0.00836474
O 10.28843333 25.42068200 8.39293576 0.00154020 -0.00115692 0.00094060
O 8.08499613 24.42339796 9.55346622 -0.00452672 0.00113707 0.00632229
O 6.65524016 0.13689292 8.05728469 0.00112997 -0.00121239 0.00352462
O 10.87565824 24.20197740 2.25161128 0.00043031 -0.00378162 -0.00200507
O 12.32713831 19.05573907 3.54530626 -0.00484308 0.00157882 -0.00235963
O 5.93308091 27.76869035 14.49938853 -0.00163747 0.00113407 0.00227950
O 7.03665431 23.47982002 15.78206150 -0.00961822 -0.00736665 0.00159917
O 9.91808672 20.64779443 21.19016827 -0.00085504 -0.00323039 -0.00259922
O 8.46125261 25.39845921 20.56410225 0.00246069 0.00209435 -0.00150769
O 6.51732528 24.09038718 21.58253971 -0.00100952 0.00805061 -0.00210579
O 5.01732212 0.26722279 20.52489715 -0.00302721 0.00266101 0.00111224
O 9.12780450 24.47757323 14.36303633 -0.00255666 0.00211937 0.00385325
O 11.08204056 19.27654154 15.84419105 0.00911164 0.00039793 0.00303168
O 4.43308911 28.11816527 26.35198411 -0.00162613 0.00313673 0.00043599
O 5.87002730 23.15978561 27.53916891 0.00261466 0.00192797 0.00661271
O 8.37758504 20.71449415 33.33980003 -0.00349872 0.00076042 0.00067863
O 7.19634160 25.33474115 32.25273105 0.00355869 -0.00331307 -0.00630049
O 5.13532220 24.34396903 33.45885856 -0.00146642 0.00207062 -0.00365441
O 3.48373545 0.03757010 32.06889304 -0.00458175 -0.00049911 0.00164494
O 7.87911029 24.16750991 25.98792410 -0.00027546 0.00236619 0.00383559
O 9.19691313 19.44995904 27.42002387 -0.00249166 0.00545000 -0.00765990
O 14.56803942 8.90067380 2.13510974 0.00249171 0.00250717 -0.00517689
O 15.68209653 3.83537931 3.50376780 0.00561110 0.00224918 -0.00171007
O 18.55177660 0.82336293 9.53098655 -0.00505521 -0.00250444 -0.00403286
O 16.87082298 6.28071086 8.65284040 -0.00016231 0.00465915 0.00049981
O 15.17135330 4.57396369 9.78877902 -0.00361970 0.00530086 0.00511575
O 13.38071642 10.04147661 8.02702017 0.00337495 0.00104229 -0.00009609
O 17.65745477 4.94652522 2.24182203 0.00417576 0.00277278 0.00506826
O 19.33151779 0.07363656 3.70221857 -0.00146834 -0.00445415 -0.00206002
O 12.95826481 8.35236573 14.54728261 0.00454544 0.00606870 -0.00178129
O 14.12462134 3.62683819 15.15789745 -0.00177390 -0.00102008 -0.00085875
O 16.79059159 0.87004739 21.67140502 0.00013722 -0.00713611 0.00190381
O 15.48860671 6.11489150 20.40732661 -0.00080704 -0.00259754 0.00140726
O 13.34991140 4.81372730 21.61871374 -0.00366707 0.00126400 0.00651463
O 11.93933053 9.86968430 20.17725328 0.00107891 -0.00147827 -0.00163259
O 16.35830172 4.70103616 14.04425269 0.00058879 0.00500955 -0.00005643
O 17.85543979 28.74664163 15.61570833 0.00370751 -0.00476286 0.00626373
O 11.36619324 8.48260615 26.22320200 -0.00388589 0.00003625 -0.00054574
O 12.44678546 3.78843673 27.02441204 0.00422655 -0.00035649 0.00160553
O 15.03349490 0.95684279 33.30442858 0.00523327 0.00225767 -0.00109426
O 14.04396134 6.16368910 32.42724502 0.00013772 0.00137813 -0.00665575
O 11.93100602 4.90050689 33.52385130 0.00019405 0.00071228 0.00086036
O 10.37750108 9.71127729 32.10382100 -0.00645622 0.00144221 -0.00655473
O 14.66916754 4.82781176 26.12481247 0.00420615 0.00582747 0.00894275
O 16.29897847 28.78282599 27.40440710 -0.00118872 -0.00148728 0.00033730
O 14.47831661 18.37084899 2.38582005 -0.00065110 -0.00099022 -0.00035754
O 15.88426593 13.44716561 3.21290901 -0.00044651 0.00088559 -0.00577321
O 18.31314589 11.02351437 9.45314462 -0.00036109 0.00034079 -0.00247546
O 17.07500954 15.79297561 8.66558587 -0.00305227 0.00185786 -0.00154763
O 14.98649380 14.55537981 9.72632812 -0.00243870 -0.00025149 -0.00947273
O 13.38956740 19.45423367 8.43707729 -0.00663886 0.00840767 -0.00342365
O 17.74079214 14.87366315 2.24009096 0.00260977 0.00319065 -0.00178967
O 19.42495538 9.48777010 3.78928599 0.00375146 -0.00009926 0.00004903
O 12.98289456 18.51449325 14.25546202 0.00065277 0.00238737 0.00534680
O 14.16881653 13.44213951 15.49736739 -0.00130938 0.00217497 -0.00571523
O 16.74915532 10.83499335 21.31904449 0.00046983 0.00107573 -0.00639298
O 15.49118898 15.68713378 20.44783719 -0.00039159 -0.00159778 0.00345170
O 13.49869692 14.28571072 21.90845554 0.00062971 0.00277615 0.01003797
O 11.88726594 19.34097267 20.24358543 0.00068606 0.00521145 0.00142332
O 16.17494155 14.49150431 14.33939377 -0.00019270 0.00412939 0.00271551
O 17.76940515 9.65900219 15.62236780 0.00209051 0.00286428 -0.00081034
O 11.15147978 18.34644306 26.17356368 -0.00351438 0.00415300 -0.00797679
O 12.28832557 13.22185824 27.11303426 0.00151930 -0.00238297 -0.00183550
O 15.06224316 11.05955927 33.31327388 0.00591021 0.00322944 0.00005820
O 14.17245127 15.45653620 32.09449218 -0.00275927 -0.00627874 -0.00302299
O 12.05111118 14.69370310 33.50780541 -0.00717330 -0.00066167 0.00029847
O 10.52569465 19.64988345 32.13338554 0.00017118 -0.00311011 0.00214918
O 14.58121794 14.28074307 26.28490435 0.00008040 0.00153686 -0.00570345
O 16.10940728 9.42040160 27.38321742 0.00305655 0.00303063 -0.00440333
O 14.53506353 27.88240599 2.47584281 0.00061659 -0.00377460 -0.00011490
O 15.63610758 23.35968909 4.01375220 0.00646526 0.00265135 -0.00398856
O 18.17338802 20.55118521 9.52400273 -0.00006173 0.00245883 -0.00356564
O 17.07079613 25.53032603 8.64196346 -0.00157333 -0.00337285 -0.00023208
O 14.87680027 24.49247881 9.39889383 -0.00566717 0.00246343 -0.00201701
O 13.78359097 0.79043462 8.41166547 0.00123092 0.00066153 0.00398965
O 17.72589551 24.00535306 2.45819818 0.00525795 -0.00082394 0.00475973
O 19.07410371 18.96532482 3.61371494 -0.00278102 -0.00445309 0.00103513
O 12.89997529 28.30200241 14.17524858 -0.00484381 0.00011173 0.00346508
O 14.14122661 22.94586167 15.45705313 0.01148030 0.00321810 0.00231272
O 16.99577189 20.48539783 21.25396212 0.00023183 -0.00972247 0.00060047
O 15.23083416 25.44169942 20.42969701 0.00280425 0.00303210 -0.00122609
O 13.58639798 24.00949709 21.72129565 -0.00154370 -0.00288056 -0.00078338
O 12.19099427 28.80646973 19.89807716 0.00442069 -0.00307731 0.00105101
O 16.10827239 24.37561593 14.18945928 0.00609940 -0.00264308 0.00028693
O 17.64756854 19.47314453 15.79156952 0.00064853 -0.00563680 0.00255065
O 11.44038065 27.87537381 26.42296247 -0.00397203 0.00321593 0.00088002
O 12.54336549 23.11067904 27.30272077 0.00221859 0.00590022 0.00088926
O 15.13536146 20.63239141 33.08999036 0.00405555 0.00306772 0.00565103
O 14.01810490 25.07291736 31.98628432 0.00281608 0.00177544 -0.00073326
O 11.94260159 24.43460507 33.47878824 -0.00204214 0.00379698 -0.00025042
O 10.53323279 0.22971349 32.10513304 0.01055489 -0.00762623 0.00390585
O 14.77917176 23.98178687 25.95323332 -0.00192125 0.00325223 -0.00299380
O 16.37247578 19.25948783 27.46911573 -0.00384985 0.00937287 0.00091851
H 0.08008661 8.95099676 2.93895331 0.00858270 0.01491566 0.01112280
H 2.82416162 4.08661553 3.27692058 0.01795267 -0.01499869 0.00054678
H 5.46901999 0.73230769 9.02133677 0.00297706 0.01487063 -0.00654455
H 2.44698968 5.39462396 8.40440397 -0.02011149 0.00011366 -0.00426703
H 5.28421539 7.90474882 1.05815939 -0.00444762 0.03070614 0.01568678
H 4.16178804 3.23459980 5.15739471 0.00399876 -0.03045751 -0.01140705
H -0.08546740 1.32605529 11.20722269 -0.00958558 0.00939743 0.02200293
H 1.40753135 6.13858676 6.34986614 -0.01120457 -0.02613059 -0.00592526
H 4.04922395 6.91471595 10.60198348 -0.00323913 0.01979221 -0.03926580
H 4.12750650 1.59603400 6.97926630 -0.00349116 0.01047869 0.01193503
H 1.12378531 2.86545855 1.26324628 -0.00925686 -0.00492196 -0.01095663
H 1.48599061 7.86564728 4.61509855 0.00596676 -0.01061373 -0.01433433
H -2.10720010 5.00830849 35.68282997 -0.00904200 0.03535647 0.02044471
H 0.14290320 0.37684283 6.03833384 0.02627429 0.00782075 -0.02078153
H 2.54097742 4.21926011 12.20630012 0.00960060 -0.03559041 0.00571530
H 5.26213768 9.26363319 6.11379404 0.01084528 0.01683584 -0.00216633
H 2.76658160 6.73414806 1.75635379 0.03506644 0.00535056 -0.02430990
H 0.14988988 1.97489632 4.18160730 0.00516221 0.00230145 -0.00010433
H 2.55375692 2.37725937 10.39978767 0.02521214 -0.00454990 0.00073146
H 5.07871902 7.44046370 7.86847215 0.01167587 0.01513219 0.01205796
H 5.18121548 4.94641584 9.44003487 0.02511190 -0.00316439 0.02934515
H 3.05796671 0.23366115 8.40698121 0.00106525 -0.02034660 0.00540776
H 0.17059755 4.62409777 2.37970878 -0.00824861 0.01864397 -0.00717785
H 2.35527986 9.77499792 3.92379026 0.00356126 0.01504574 -0.00235874
H 7.05129095 2.57351015 8.65481591 -0.03357188 0.00443240 0.02451926
H 2.21071530 9.32258364 10.61656690 0.00731412 0.01942136 -0.00375995
H 18.50630931 5.72966585 4.42172860 -0.02346260 -0.00685395 0.01242861
H 4.53348201 0.89886275 1.39041784 0.02234580 -0.00420890 -0.01214562
H -0.27534119 2.61626251 8.57734712 0.02125721 -0.01667854 -0.01444313
H 1.77881701 7.83852540 9.74413622 0.00676238 -0.00511976 -0.00403595
H 6.60803203 5.83276479 4.01450349 0.00336537 0.01207538 0.01252355
H 2.90274505 1.34866857 2.09767416 -0.00776601 0.00419814 -0.01663760
H 0.56618779 3.62920600 7.49501110 0.00253906 0.01251898 -0.01966522
H 0.55339751 8.67708254 10.81870341 0.01426123 0.01804038 0.01337441
H 5.21848021 6.78138829 3.86897787 0.01890933 -0.02562846 0.00145183
H 4.26559320 2.21053783 2.56112960 0.00094968 -0.00230906 -0.00438480
H -1.64300927 9.06617239 14.54100178 -0.01685176 -0.01820675 0.01448581
H 1.13543445 4.10976559 15.20350194 -0.01856612 0.00021852 -0.00307254
H 3.68570519 0.67219747 21.09800491 0.01221737 -0.01072403 0.00245872
H 0.94368264 5.38853115 20.47568682 0.03114720 0.01719603 -0.01917209
H 4.01615515 8.26469201 12.49955218 0.01642109 -0.00126497 0.02111365
H 2.17400830 3.71143731 17.18295594 0.01371398 -0.00175180 -0.01304411
H -1.69538083 1.61469392 23.04193521 -0.00898489 -0.00698919 -0.00812297
H -0.00841369 5.96179210 18.25237223 0.00323836 -0.00265584 0.02076163
H 2.33112453 6.62510387 22.68101406 0.00178156 0.02480052 0.01256007
H 2.25388826 1.78421395 19.10126818 -0.00847837 0.02641091 0.00974725
H -0.05522455 2.99770455 12.79745633 -0.02035989 0.00197057 0.01341533
H 0.07019284 7.68531779 16.47563112 -0.01535196 -0.00115038 -0.01568942
H 1.11049252 5.38944730 11.68205391 -0.01942751 0.00663570 -0.01920204
H -1.63618180 0.45419644 17.83597493 -0.00069670 -0.02278249 0.00101206
H 1.03574378 4.42549877 23.99947896 0.02362705 -0.00939965 -0.01622458
H 3.81942669 9.05772457 17.79976197 0.00964733 -0.00731118 -0.02461092
H 1.05455654 7.02514421 13.74800760 0.01617725 0.02065545 0.02124619
H -1.66414081 2.17104296 16.03369424 -0.00926531 -0.00854953 -0.01896291
H 0.85606349 2.67359344 22.26904269 0.00272031 -0.00443473 0.00388030
H 3.74292465 7.41021133 19.67901376 -0.01851649 0.02566242 -0.01295631
H 3.35432200 5.03262760 21.54281068 0.02863533 -0.02902335 -0.00124036
H 1.01312263 0.20487360 20.35163039 0.00424038 -0.00679958 0.01308895
H -1.09129869 4.60419609 14.05321075 -0.00268769 0.01144088 0.00458569
H 0.91253179 9.60553647 15.65328229 0.00416967 -0.01174122 -0.01723904
H 4.02600521 3.48701866 19.92848176 -0.00829938 0.01098531 -0.02148608
H -0.73576130 7.52975667 20.94320850 -0.00309075 0.01146732 -0.00893365
H -1.87735120 5.99951039 15.80788824 -0.01976477 0.00170191 -0.02479507
H 3.27226318 2.39236171 14.69962648 0.01131276 -0.04695081 0.00130597
H -2.51240324 3.03067225 20.17125066 0.01276750 0.02040181 0.00105394
H -1.07706091 8.70148348 22.43449623 0.02458253 0.00999458 -0.00851458
H 3.46868202 6.13277290 16.28033824 -0.00471266 0.00973025 -0.01115943
H 3.50200501 1.02663864 13.48687296 0.00928797 0.02257694 -0.01404324
H -0.93910114 3.56730009 19.48223739 -0.00958489 0.00941370 -0.00376149
H 0.63121063 8.58151416 21.72179940 0.00260205 -0.02139989 -0.01003698
H 5.23522853 5.75830791 15.84317012 -0.00525693 -0.02008632 -0.00083351
H 1.88536838 1.55377235 14.06878656 0.00506353 -0.00663183 0.01367466
H -3.29837079 8.87386350 26.38538985 0.01558090 0.00682943 0.01551204
H -0.39995406 4.12745820 27.32110444 0.00967839 -0.00601287 0.00758254
H 2.31747479 0.61192340 32.94047833 -0.00873007 0.02096952 -0.00059342
H -0.65734951 5.66886917 32.41520251 0.01201384 -0.00141062 -0.00734342
H 2.30632906 8.17810807 24.63859825 -0.02598240 0.00891540 0.00272533
H 0.76403856 3.10457912 29.14901591 -0.00902186 0.00257511 -0.02303193
H -3.51198595 1.46230578 34.95634845 -0.00902174 0.00580081 0.01502754
H -1.85952320 6.50471295 30.47760576 -0.00159250 -0.01385041 -0.00411397
H 0.67805435 6.66881541 34.71359814 0.01109689 0.01133190 -0.01746586
H 0.88176388 1.54991185 30.89407624 0.00839353 -0.00580386 -0.01822350
H -1.75532396 3.26702940 24.90531990 0.01107143 -0.00056131 -0.00770594
H -1.86198935 8.13354270 28.66098122 -0.00349487 -0.00343669 0.02249923
H -0.54258809 5.45161580 23.49806095 0.00101521 -0.00789120 0.00562182
H -3.24419202 0.30809321 29.91898984 0.00839482 0.01167644 0.00028735
H 3.99192420 3.95438190 0.11698567 -0.00286677 0.00128165 0.02592839
H 2.05104790 9.39443546 29.78869291 0.01209476 0.00322022 -0.01474043
H -0.39567057 7.30191756 25.28221015 -0.02517941 -0.00508995 0.00017302
H -3.31378306 2.06028628 28.03928814 0.00888388 0.01498571 -0.00599684
H -0.65680369 2.31801642 34.04020633 -0.02620142 0.01611950 -0.02126834
H 2.11852689 7.85177513 31.69228191 0.01015024 -0.02410127 0.00283752
H 1.77973113 5.07507888 33.60956514 0.01155365 -0.01223806 -0.02058951
H -0.32708485 28.94336957 32.15149828 0.00057772 0.00996122 0.00054969
H -2.78594061 4.92092988 26.00544022 0.02759638 -0.00727779 -0.00313003
H -0.75485005 9.59703043 27.33623546 -0.02268820 0.00496520 -0.00612006
H 2.63435937 4.40172260 31.55005553 0.01507401 -0.00643591 0.00366619
H -3.12339311 8.46697696 34.01680074 -0.01390140 0.01920130 0.00259849
H -3.44894133 5.30200566 28.06749506 -0.00904283 -0.03395749 0.01053014
H 0.93215066 0.51163781 25.22804853 -0.00262091 -0.02460584 -0.03466642
H -3.47816449 2.44727700 32.71674186 0.00122890 -0.00255654 -0.00990506
H -1.38797316 8.96508712 34.13958718 0.00293729 -0.01124380 0.00496637
H 3.38466054 5.62931086 28.07556085 0.02363993 -0.01325626 0.01521060
H -0.03634170 1.49231856 26.27493592 -0.01093349 0.01193936 0.01800492
H -2.32467144 3.30267131 31.69431925 -0.00014562 -0.00320138 -0.00106285
H -1.89737305 7.61943157 33.12076033 -0.01873810 0.00177630 -0.00213754
H 2.64385505 6.94589160 27.23828239 -0.02522998 -0.00549177 0.00004969
H 1.73058264 1.80488728 26.16291297 0.00084416 0.00626758 -0.00823337
H -0.22494211 18.72403243 2.78904764 -0.00995019 -0.01050388 0.00471639
H 2.99001616 13.82861245 3.33412097 0.00539924 -0.00537532 0.01319453
H 5.40135203 10.48409432 9.34044896 -0.00333939 0.00270676 0.00900893
H 2.53164367 15.19528394 9.10339943 0.01774816 -0.00847934 0.00106964
H 5.58082337 17.81184903 0.41283130 0.00625887 0.00495316 -0.03346773
H 4.10410279 12.85685915 5.41459075 -0.00043201 0.01801198 -0.02266782
H -0.40911341 11.23188872 11.07617870 0.01534524 0.00786961 -0.01263370
H 1.24810888 15.95088444 7.16705821 -0.00162775 0.00580754 0.02153474
H 3.97734876 16.56872748 10.92049299 0.00165945 -0.02074653 0.00859239
H 4.04442633 11.39989933 7.35535358 0.02136153 -0.01524553 0.01517032
H 1.04548150 12.47474910 1.43904851 -0.01242624 -0.01822595 -0.00699451
H 1.18486946 17.10064727 4.96550466 -0.01169915 -0.00750688 -0.02094966
H -2.00398370 15.15412350 35.74236357 0.01341950 -0.01098203 -0.00991067
H 0.01296582 10.32421166 6.25525603 0.01241965 0.01123826 -0.00443451
H 2.54501146 13.88718180 12.48975119 0.00504472 -0.00962448 -0.00645186
H 5.09445395 18.64275601 5.86607442 0.01970485 0.02548586 -0.01036109
H 2.64762629 16.63837755 1.95358366 -0.00158814 0.01475715 0.01695557
H 0.03589296 12.07452956 4.58894895 -0.00560289 0.02815253 0.00965649
H 2.47112073 12.21658951 10.54329846 0.02566453 -0.01655246 0.00390625
H 5.30974835 17.16201955 7.79638545 0.02242513 -0.01442811 -0.00464150
H 4.98260365 14.75984271 9.79858831 0.00327659 0.01286595 0.00090019
H 2.95327175 9.74492056 8.41008716 -0.00664708 0.01999191 -0.01245368
H 0.26546929 14.44847116 2.25762242 -0.01137965 -0.01126029 -0.01037016
H 2.16876397 18.86710509 3.63759118 -0.03132135 -0.01052126 -0.02455378
H 5.91675526 12.76330752 8.81175922 0.01142473 0.02474947 -0.01966546
H 0.61837496 17.95007377 10.28365358 0.00111965 0.03738219 0.00481731
H -0.26405078 15.52559743 4.00614125 0.02129336 -0.00354796 -0.00246599
H 2.73072695 10.73786798 2.27595485 0.01385054 0.00646610 -0.00129106
H -0.69015420 13.96052626 7.51553431 0.01372487 -0.00113303 0.01418671
H 0.99147999 19.66634036 10.88572318 0.01452309 0.03266901 0.01175888
H 5.75711114 16.60273721 3.49650164 -0.00606492 -0.00223794 0.01056024
H 4.21361741 11.82756949 2.49457205 0.01130708 0.00505717 -0.00859707
H -0.60466036 12.55571050 8.66889121 -0.00786920 0.01393369 0.00420105
H 2.28751067 18.61766520 10.36839351 0.01195788 -0.02496234 0.00775808
H 4.47748587 15.62547659 4.37183476 0.00029413 0.00802646 -0.02428273
H 4.41672697 10.46778269 1.43539480 -0.00758169 -0.00106069 0.01674627
H -1.91844338 18.74867638 14.49820615 -0.02699859 -0.00771285 -0.00204943
H 1.12846321 14.02218398 15.07378931 0.01401915 -0.00577336 0.00745607
H 3.93376408 10.24567821 21.20804711 0.00602916 0.01368389 -0.02210696
H 1.18187413 15.17140642 20.44766127 -0.00426472 0.00109806 0.00395134
H 4.16448796 18.24814598 12.89303697 -0.01161384 -0.00683721 -0.00397745
H 2.30485401 13.15176601 17.20576291 -0.02154334 -0.00176236 -0.00967892
H -1.77512420 11.21243283 22.97610466 -0.01169780 0.01692060 -0.00797845
H -0.11685978 16.08041206 18.41334481 -0.00841375 -0.00895851 0.02864705
H 2.56739860 16.39787728 22.47914924 -0.02428625 0.00307222 -0.01804706
H 2.19403158 11.49611087 18.96914909 0.01823947 0.00619429 -0.00625335
H -0.32964244 12.93140420 13.01656373 -0.00626163 -0.00672903 0.03976555
H -0.03679681 17.50104450 16.42681300 0.02243361 0.00488179 -0.00754223
H 0.97115624 15.24997774 11.48011963 -0.00285250 0.02753577 0.02447890
H -1.69412236 10.40813211 17.93313121 -0.02250251 -0.00235045 0.00069618
H 1.13745171 13.94902794 23.87244574 0.00930574 -0.02442929 0.02358262
H 3.89021860 18.92885291 17.76489919 -0.02076222 0.01195728 0.00927649
H 1.20935216 17.05104068 13.19983488 -0.02580606 -0.00858084 -0.01318958
H -1.75947808 12.28351084 16.10666624 0.00658744 0.00258979 -0.00717218
H 1.07423206 11.90802399 22.22987262 -0.00546170 -0.02364512 0.00386815
H 3.75577150 17.32827030 19.67339691 0.00283440 0.02085428 0.03625326
H 3.28434158 14.46117459 21.55091371 -0.00294565 0.00483245 -0.00791100
H 1.15502548 9.66912594 19.77590120 -0.00473234 0.01041554 -0.01224133
H -1.36357276 14.76033865 14.03055016 -0.00006009 0.00065079 0.00429198
H 0.88993645 19.27357972 15.40205134 -0.00023402 -0.00272347 0.03618882
H 4.16099109 12.53498974 20.29162736 -0.02628257 0.04571313 -0.00592203
H -0.29058497 17.13054874 21.19731572 -0.00327952 0.00153030 -0.00780852
H -2.09494023 15.20947049 16.13355440 -0.01277444 -0.01125052 0.00947597
H 1.42710252 10.95831948 14.07636484 -0.00639568 0.00991117 0.01001113
H -0.97841823 13.24285346 19.33162498 -0.00044191 0.01741791 0.01107728
H -1.05797175 18.25138704 22.28035199 0.00188967 0.00353523 0.02559334
H 2.89761546 15.63133705 16.40932747 -0.00868572 -0.00732303 -0.02354369
H 2.90855349 11.94503904 14.33548297 -0.01187061 -0.01759134 0.02684484
H -2.51760156 14.16467648 19.34352277 -0.02194507 0.01211870 0.01538378
H 0.72062727 18.37493433 21.86261311 0.01837870 0.01826611 0.00828991
H 4.54647708 15.14192777 16.48359888 -0.01018173 0.00131173 -0.01223165
H 2.98121360 10.55128953 13.25834358 0.00343704 0.00127325 0.01935535
H -3.27227009 18.76913294 26.25174554 -0.00003627 0.00593880 -0.02212800
H -0.33993597 13.54817850 27.08634033 0.00971841 0.01008023 0.00400499
H 2.11640246 10.28891091 33.13229539 0.01279543 -0.01835072 -0.01248333
H -0.53506429 15.23036939 32.41592327 -0.00751586 0.02309788 -0.01837407
H 2.87692635 18.15244858 24.04704113 -0.00996861 0.00256398 0.02662125
H 0.71615362 12.79789811 28.84395371 0.02928805 0.00961423 0.00996046
H -3.78753153 10.88687506 35.06670088 -0.02127367 -0.01082966 0.01728614
H -1.67449349 15.69941337 30.25440632 -0.00650237 -0.02537148 -0.00658047
H 1.10506205 16.34503523 34.40414876 0.00732101 0.00205319 0.01112337
H 0.64411048 11.64058308 30.88500441 -0.00415830 0.00350688 0.00921352
H -1.87780620 12.82900115 24.97499923 -0.01618409 -0.00286825 0.00170665
H -1.52701745 17.39776540 28.29379959 0.00440384 0.00363642 -0.00243387
H -0.30463900 15.25403243 23.53431252 -0.02245849 -0.01136370 0.00045854
H -3.29888923 10.41511386 30.03023983 0.00354186 -0.01067689 -0.01483545
H 4.35014582 14.01546075 0.15692867 -0.01323405 0.00039233 0.00416686
H 2.26030701 18.73791832 29.70971519 0.01897776 -0.01580827 0.03318507
H -0.50430226 16.82807717 25.38159926 -0.01782176 0.00118386 -0.01514416
H -3.51164101 12.00548240 28.17254538 0.00237381 0.00483272 0.01036955
H -0.66167800 12.39100613 34.28556778 -0.01521194 0.00771925 -0.00430041