2160
Time=47000.00000003 pbc="T T T" Lattice="20.63509741 0.00000000 0.00000000 0.00000000 28.98786759 0.00000000 -4.72357408 0.00000000 35.47754483" energy=-13801.95259225 virial="-47.12353406 4.17811346 85.17515903 4.17811346 -46.11568832 -3.26808663 85.17515903 -3.26808663 -41.68803211" stress="0.00008902 0.00018244 0.00399087 0.00018244 0.00018813 -0.00011422 0.00399087 -0.00011422 0.00042288" Properties=species:S:1:pos:R:3:vel:R:3
O 0.56892797 8.40747964 2.40000641 0.00072586 -0.00192253 -0.00154524
O 1.74939405 3.79918401 3.58343429 -0.00423589 -0.00085788 0.00370346
O 4.69430658 1.00415493 9.45366731 -0.00422993 0.00296015 0.00214360
O 3.50641799 5.99566196 8.47010053 -0.00384102 0.00331235 -0.00699038
O 1.50506725 4.98658895 9.70850994 -0.00136048 -0.00036248 -0.00064807
O -0.38977608 9.66296917 7.96053794 -0.00248449 0.00560345 0.00035605
O 3.97116888 4.59776402 2.38110194 0.00156258 -0.00254812 -0.00377308
O 5.59476002 0.47617632 3.92911422 -0.00317508 0.00228950 0.00050007
O -0.64625164 9.00649544 14.19672055 -0.00716673 0.00253831 -0.00185599
O 0.28582058 3.75539293 15.24923061 -0.00420475 -0.00073305 0.00537433
O 2.81821034 1.15139247 20.90757455 -0.00196578 0.00166651 0.00445773
O 1.93341323 5.93777793 20.22639348 0.00047323 0.00116088 0.00223470
O -0.29414781 5.00366090 21.18217962 -0.00737011 -0.00754802 0.01000177
O -1.80795051 9.47522377 20.06953120 -0.00406402 0.00464506 0.00169019
O 2.26858141 4.97062216 14.33302096 -0.00760490 -0.00173755 0.00441487
O 4.14590499 0.12597465 15.73715642 0.00063406 0.00405071 0.00045665
O -2.24762966 8.95607766 25.75987575 0.00703738 0.00332316 0.00143915
O -1.05935954 4.10640626 26.95902772 0.00061139 0.00275657 -0.00424881
O 1.45844471 0.89478001 33.10022866 -0.00139976 -0.00255855 -0.00120565
O 0.36224917 5.98069836 31.86222264 -0.00164835 0.00554414 -0.00441168
O -1.76487875 5.05410538 32.86799029 0.00157189 -0.00344194 -0.00513284
O -3.37388610 9.68437146 32.04781056 0.00156696 0.00233163 -0.00056480
O 0.86449801 5.22406606 25.60405796 0.00773981 -0.00055307 0.00376439
O 2.46644558 28.97493586 27.26457592 -0.00472447 -0.00089017 0.00151892
O 0.66743372 18.10173022 2.51291441 -0.00888699 -0.00168664 0.00371114
O 1.85445389 13.04103701 3.04730471 -0.00387538 0.00393089 -0.00134434
O 4.49931195 10.43328516 9.29771549 0.00352455 -0.00483798 -0.00151440
O 3.22960601 15.69812478 8.46019630 0.00289408 -0.00005881 -0.00101616
O 1.27024067 14.54014512 9.63341169 -0.00387424 0.00278646 0.00144734
O -0.35381258 19.19644352 7.84980880 -0.00306141 -0.00011994 -0.00355691
O 4.02351153 14.19734022 2.51826252 0.00073313 -0.00097048 0.00292800
O 5.58584313 9.72354327 3.66235404 -0.00336869 0.00299080 -0.00130366
O -0.75439987 18.05107206 14.47670230 -0.00056535 -0.00507386 0.00126051
O 0.14988190 13.69584320 15.67478551 -0.00603092 -0.00568987 -0.00330408
O 2.85967068 10.74332603 21.32968621 0.00198900 -0.00334502 0.00094838
O 1.85819372 15.17950951 20.13099680 -0.00154980 -0.00096974 0.00083344
O -0.43253386 14.57180481 21.29566876 -0.00227876 -0.00154194 -0.00239124
O -1.50999307 19.80917538 20.30851100 0.00139582 0.00193287 0.00054571
O 2.36009883 14.35353125 14.01296805 0.00160042 0.00078467 -0.00221775
O 3.93185500 9.64287939 15.57685248 -0.00093129 0.00613685 0.00074730
O -2.29642638 17.99891075 26.22257061 0.00066782 -0.00809031 -0.00351065
O -1.35538628 13.73697304 27.56312604 -0.00348844 -0.00030816 -0.00211767
O 1.53967547 10.93742259 33.02727354 -0.00316467 0.00309707 -0.00031992
O -0.15730190 15.66231409 32.22072284 -0.00124198 0.00303352 -0.00177560
O -2.07802672 14.23201659 33.29599736 -0.00103893 0.00094109 -0.00005973
O -3.40546158 19.44681255 32.07345985 0.00249564 -0.00224276 -0.00350839
O 0.62129705 14.43696913 25.95938905 -0.00298184 -0.00156088 -0.00017063
O 2.40595019 9.45115771 27.02044447 -0.00423000 -0.00175642 -0.00049945
O 0.87840553 27.95426782 2.46965361 -0.00233870 -0.00210013 -0.00135282
O 2.13047267 22.72129713 2.97904484 0.00166359 -0.00018123 0.00636486
O 4.56493946 20.62416614 9.29036485 -0.00131416 0.00208821 0.00220282
O 3.22170311 25.29264260 8.39661889 -0.00405731 0.00103994 0.00429948
O 1.36573660 24.08432769 9.67462813 -0.00022188 -0.00058024 -0.00528671
O 0.03299768 0.33628717 8.42315806 -0.00320973 0.00521585 -0.00414340
O 4.07213354 24.59582307 2.46481080 -0.00119140 -0.00043398 0.00128431
O 5.42876666 19.01879418 3.44542672 0.00035088 -0.00166671 0.00143775
O -0.71895429 27.62884138 14.39741199 0.00393867 -0.00027716 0.00564458
O 0.34138938 23.01380047 15.25321595 -0.00055059 0.00140203 0.00005418
O 3.14104166 20.46458334 21.17740250 0.00135669 -0.00194738 -0.00875395
O 1.88939647 25.28884645 20.35139886 -0.00882382 0.00251566 0.00250262
O -0.01406210 24.20453243 21.71878053 0.00202809 0.00217767 0.00857184
O -1.98129531 0.13839704 20.07476813 0.00239307 0.00273953 -0.00140937
O 2.59619337 24.09812800 14.26408578 -0.00080177 -0.01012831 -0.00239373
O 4.11153139 19.00512262 15.50839376 -0.00477224 -0.00044115 -0.00448287
O -2.28873302 28.16027959 26.11247210 0.00448736 -0.00138239 -0.00247234
O -1.18221659 23.00766717 27.57449415 -0.00287051 -0.00338221 0.00211373
O 1.20533639 20.37162369 33.33052430 0.00002270 -0.00208065 -0.00165968
O 0.07056581 25.09700607 31.85500686 -0.00742684 0.00583215 -0.00053280
O -1.76052334 23.87045213 33.19289199 0.00117498 0.00066593 -0.00081935
O -3.33047482 0.19445769 31.51498788 0.00118620 -0.00224516 0.00021605
O 0.85716920 23.89272542 26.24759819 -0.00327214 -0.00728677 -0.00269718
O 2.45641860 18.99925669 27.50392838 0.00542734 -0.00403336 0.00281693
O 7.44703730 8.34625559 2.61371243 0.00342976 0.00201949 0.00432334
O 8.76387331 4.00855568 3.55798933 -0.00065769 -0.00423070 -0.00118102
O 11.63938538 0.94813717 9.46355936 -0.00221698 0.00630009 0.00291278
O 10.25192996 5.85735157 8.37798601 0.00631488 -0.00537004 -0.00363857
O 8.15924820 4.90591976 9.60316004 0.00046414 0.00046834 -0.00268708
O 6.67297749 9.52554191 8.02647857 0.00138338 -0.00236286 -0.00441409
O 10.99165859 4.83504575 2.55623796 -0.00031497 0.00094732 -0.00642281
O 12.39940509 0.18097068 3.61609680 -0.00151837 -0.00255876 -0.00247248
O 5.94613292 8.47320639 14.39412163 0.00020774 -0.00154105 0.00074294
O 7.05556809 3.82452444 15.46065893 -0.00005030 0.00382326 -0.00654951
O 10.02516693 1.14795620 20.95249323 0.00143054 -0.00348888 0.00091982
O 8.50393787 6.07134748 20.34854699 0.00940456 -0.00638662 0.00183631
O 6.72614198 4.51324465 21.37465945 -0.00090627 0.00092251 0.00000833
O 5.09587524 9.96870195 20.28073077 -0.00076343 -0.00171016 0.00554664
O 9.26788623 4.44245596 14.15398676 -0.00731040 -0.00290460 0.00693708
O 10.87593460 28.90535898 15.57279270 -0.00968615 0.00311634 0.00429683
O 4.63671330 8.59472939 26.01401334 0.00196988 0.00578557 0.00087269
O 5.64520873 3.82786536 27.12486757 -0.00461766 0.00166745 -0.00221045
O 8.31632798 0.96728465 33.34131764 -0.00438266 0.00376632 0.00528870
O 7.08978894 5.85002160 31.96411966 0.00144579 -0.00272208 -0.00222965
O 5.03701572 4.74242236 33.20716480 0.00340289 -0.00291402 -0.00414463
O 3.40822837 9.53285359 31.83445774 0.00053802 -0.00091125 -0.00707802
O 7.73769390 4.67082550 25.76863645 -0.00716865 -0.00231780 -0.00266412
O 9.19125384 28.93013538 26.96905855 0.00418659 -0.00352625 -0.00144683
O 7.67174316 18.13457695 2.67094401 -0.00438458 -0.00405035 -0.00251908
O 8.48656486 13.90813339 4.08586783 -0.00457228 0.00361275 -0.00396736
O 11.49907755 10.96468901 9.28778685 0.00215898 0.00237756 0.00039024
O 10.17624656 15.58647227 8.50053172 0.00082781 -0.00280665 0.00141444
O 7.96455109 14.53276754 9.18341423 0.00209095 -0.00284960 -0.00245741
O 6.65333522 19.28303668 8.04935450 0.00841049 0.00241115 -0.00148484
O 10.66156233 14.40301939 2.42264227 0.00242334 0.00715648 -0.00345535
O 12.42874266 9.29495376 3.52539318 0.00584722 -0.00166150 0.00532994
O 6.20552797 18.35169113 14.08932202 -0.00372834 -0.00151378 -0.00334321
O 7.28246209 13.24497724 15.17222008 -0.00061084 -0.00103672 -0.00109095
O 9.89419768 10.72764692 21.17404187 -0.00354699 0.00185508 -0.00871528
O 8.82810889 15.72918612 20.25570391 0.00393100 -0.00253787 0.00105791
O 6.75409622 14.60980353 21.32599720 0.00359936 -0.00023189 -0.00479714
O 5.02194068 19.24462896 19.84474733 -0.00179415 -0.00138822 0.00441870
O 9.10550116 14.65768504 13.81297466 -0.00052020 -0.00034892 0.00213527
O 10.67898559 9.59885776 15.61196429 -0.00097079 -0.00314543 0.00507918
O 4.40154300 18.52032310 25.70124630 -0.00409983 -0.00316586 -0.00229663
O 5.43064411 13.32660604 27.02481548 0.00595984 -0.00155115 0.00369234
O 8.12897960 10.66662456 33.24486752 -0.00305325 -0.01076013 0.00923257
O 6.84642986 15.71729508 31.83315671 -0.00703272 -0.00060582 0.00247351
O 4.94637764 14.32739387 33.25574714 -0.00331321 -0.00016989 0.00374554
O 3.42922007 19.79990550 32.18437827 -0.00218756 0.00219686 -0.00093472
O 7.60533554 14.80372904 25.75204530 -0.00483419 -0.00211607 0.00464835
O 9.45364334 9.88082115 27.24100338 -0.00173829 0.00202271 -0.00762695
O 7.40874692 27.99660443 2.46446804 -0.00396623 -0.00133106 0.00337806
O 8.75602701 22.83296630 3.34992146 0.00020999 0.00043286 0.00014694
O 11.45462774 20.57932254 9.25151085 0.00152805 0.00228474 0.00282386
O 10.33355576 25.17864031 8.26442895 0.00094637 0.00104381 0.00366395
O 8.29096963 24.35607524 9.46671623 -0.00528398 0.00607442 0.00235041
O 6.77750264 28.97524334 8.03434231 -0.00285449 0.00115101 -0.00603772
O 10.65640593 24.07308914 2.18438118 -0.00267533 0.00510377 0.00083389
O 12.53159797 18.87068486 3.68196416 0.00079887 0.00209173 0.00535630
O 5.87855001 27.71010675 14.33482873 -0.00468810 -0.00572273 -0.00018979
O 7.27191313 23.10908968 15.37876294 -0.00149117 -0.00443049 0.00506416
O 9.84635397 20.41017393 21.18784634 -0.00870943 -0.00358677 0.00045493
O 8.54711521 25.33612934 20.22669646 -0.00087546 -0.00055268 -0.00063648
O 6.60935871 24.29029540 21.37589625 -0.00592605 -0.00244333 0.00495549
O 5.02064375 0.19032953 20.18499321 0.00731907 0.00177979 0.00202128
O 9.27235938 24.14272440 13.94626113 0.00067482 -0.00129929 -0.00158562
O 10.86463150 19.36657672 15.28775666 0.00311367 0.00167648 -0.00023642
O 4.67156220 27.97185909 26.20325809 -0.00250552 -0.00188722 -0.00262300
O 5.68854396 23.07676767 27.04065844 0.00018462 0.00180367 -0.00246638
O 8.21128139 20.57769499 33.00931554 -0.00404425 -0.00049052 -0.00250436
O 7.30696977 25.36848602 32.00140890 0.00232380 -0.00128282 0.00757958
O 4.97717364 24.51479016 32.85776013 -0.00297143 0.00271318 -0.00368265
O 3.48120124 0.12933865 31.82734531 0.00180372 0.00653703 0.00479729
O 7.73555329 24.15688002 26.14592014 0.00704869 -0.00013431 0.00105209
O 9.20186161 19.41854029 27.27784364 -0.00802390 -0.00351769 0.00089787
O 14.71600197 8.58334001 2.53595670 0.00471756 -0.00678288 0.00640498
O 15.87940559 3.82420599 3.74449644 -0.00470881 0.00414776 -0.00213262
O 18.55075625 0.93283866 9.67197017 0.00790526 0.00006809 -0.00089995
O 17.09169188 6.10272734 8.71050867 -0.00024507 0.00311913 -0.00354884
O 15.04380322 4.91201492 9.94960714 0.00441989 -0.00089357 0.00098762
O 13.29341216 9.57149802 8.10309461 0.00612830 0.00326252 0.00061392
O 17.85621161 4.68906820 2.15431987 -0.00221561 0.00542103 -0.00235615
O 19.41173575 0.14184991 3.73073765 0.00340277 0.00409675 -0.00283183
O 12.73897807 8.60806654 14.31511471 -0.00341604 -0.00294496 0.00187577
O 13.95461692 3.72646849 15.19199106 -0.00430252 0.00406500 0.00234599
O 16.41033609 0.70042995 21.26747211 -0.00071560 0.00137129 -0.00558251
O 15.36909794 6.02701961 20.31318596 0.00124282 0.00164558 -0.00088233
O 13.55059861 4.65694586 21.40982198 0.00084060 0.00041555 -0.00065214
O 12.01424718 9.98553535 20.11045535 -0.00123213 0.00763141 -0.00048753
O 16.37821364 4.67346104 14.22385314 0.00020172 0.00143511 0.00189912
O 17.83860013 28.81187089 15.44834482 0.00277288 0.00242732 -0.00499581
O 11.50106699 8.73418673 25.97060023 0.00181193 0.00173157 -0.00751516
O 12.35012603 3.64282029 27.11785975 -0.00641530 -0.00327568 0.00274978
O 15.28202924 1.16695481 32.79564721 -0.00014886 0.00253182 0.00234429
O 13.74556192 5.77214630 31.61538828 -0.00262941 -0.00144810 0.00521671
O 11.91501366 4.79619929 33.12163756 0.00082026 -0.00030778 0.00043296
O 10.24182786 9.94259850 31.92169050 0.00589452 -0.00263989 -0.00282114
O 14.57048679 4.48223358 25.78507665 0.00092976 -0.00594758 -0.00265397
O 16.14173860 0.04081732 27.25857642 0.00131299 -0.00147162 0.00220461
O 14.49927631 18.11028071 2.21599775 -0.00665460 -0.00499437 -0.00093521
O 15.48749778 13.20659580 3.34586669 -0.00225609 -0.00002094 -0.00233393
O 18.23840887 10.84432558 9.09931473 -0.00179999 0.00118441 -0.00198359
O 17.21347576 15.47424783 8.34815224 -0.00368725 -0.00949702 0.00059107
O 14.97726601 14.68298188 9.38822064 0.00378646 0.00458975 -0.00215700
O 13.74320744 19.08612299 8.24498034 0.00162884 -0.00211144 0.00010045
O 17.53389234 14.33922978 2.18756609 0.01124875 -0.00408007 -0.00215262
O 19.39145410 9.39429061 3.78328051 0.00084413 0.00166616 -0.00020828
O 13.00199107 18.33205019 14.30082950 -0.00417329 0.00359091 0.00443867
O 14.21389292 13.54319486 15.27441698 -0.00721751 0.00989035 0.00125415
O 16.91437911 10.71529718 21.15149716 -0.00072625 0.00154667 0.00387973
O 15.48933519 15.70092625 20.40358961 0.00398746 -0.00041559 0.00187002
O 13.46775497 14.57060484 21.39573549 0.00016806 0.00070188 0.00020342
O 12.04063023 19.34620815 20.09074116 0.00401980 0.00080176 -0.00606397
O 16.10909527 14.58453913 14.04436287 -0.00426135 -0.00003973 -0.00217583
O 17.80418074 9.52234437 15.48696342 0.00126537 -0.00136963 -0.00079881
O 11.34486518 18.16306105 26.23305204 -0.00104152 -0.00463742 0.00240072
O 12.51648958 13.57576729 27.37585172 -0.00034096 -0.00184510 0.00545181
O 15.14291002 10.60672742 33.03287138 -0.00332588 0.00465522 0.00039486
O 14.09546372 15.35283090 32.05544707 0.00031399 -0.00353108 -0.00269320
O 11.81033027 14.47604623 32.96038022 0.00128761 0.00431917 0.00124224
O 10.16542260 19.35423072 31.79644793 -0.00037409 0.00183479 0.00379751
O 14.52924271 14.13301442 26.00475849 0.00120357 0.00299316 0.00041436
O 16.42059059 9.62594157 27.21654538 -0.00148086 -0.00411832 -0.00410985
O 14.29832561 27.55730712 2.74112139 -0.00391437 0.00031266 0.00280809
O 15.52301224 22.78005494 3.47746854 0.00218840 0.00113258 -0.00664943
O 18.48392356 20.68486154 9.25859319 -0.00107496 0.00153017 0.00493335
O 17.35619374 25.29838178 8.30768193 -0.00203545 0.00275374 -0.00515289
O 15.21538795 24.50582017 9.48498525 0.00391479 0.00309023 -0.00337307
O 13.58323393 0.00885440 8.25628621 -0.00301452 -0.00024339 -0.00498300
O 17.69109239 23.94474209 2.38654190 0.00420230 -0.00199921 -0.00285920
O 19.18478705 19.06834366 3.73519507 -0.00192552 0.00227954 0.00391243
O 12.95438583 27.92649447 14.39647787 0.00332995 -0.00282342 -0.00208247
O 14.23338381 22.95132370 15.25262113 -0.00124618 -0.00606179 0.00862340
O 16.85618958 20.42599467 21.16530488 -0.00117603 0.00067363 0.00472396
O 15.79515945 25.32929559 20.13311793 -0.00048653 -0.00288558 -0.00144155
O 13.48531299 24.43936787 21.10632740 0.00234228 -0.00068052 0.00053073
O 11.74406908 28.67477335 19.59592600 0.00267083 0.00046857 0.00009845
O 16.34570490 24.38724434 14.09359053 0.00065823 0.00280224 -0.00227256
O 17.81097205 19.30610339 15.40960535 0.00027141 0.00393173 0.00094737
O 11.40796866 27.75566737 25.96644826 -0.00211411 -0.00571294 0.00261184
O 12.67241391 22.78656323 26.97894282 0.00010752 -0.00339580 -0.00607713
O 15.11944821 20.47337978 32.94140255 -0.00230382 0.00384416 -0.00174270
O 14.02864494 25.35551566 32.00973826 -0.00158429 0.00270751 0.00127630
O 11.82892885 24.39698027 33.11406449 0.00174419 -0.00336642 0.00212062
O 10.42861603 28.86073315 31.84308931 -0.00066147 0.00455389 0.00358796
O 14.74200184 23.89620510 25.88788934 -0.00702996 0.00403823 -0.00310598
O 16.04862623 18.85597033 27.03244392 -0.00328216 -0.00006287 0.00589159
H -0.26190174 8.92113724 2.81425283 -0.02208656 0.01664115 -0.00611683
H 2.57661630 4.30640658 3.32696770 -0.00429726 -0.00439814 -0.01445955
H 5.59732050 0.53060787 9.15665282 0.00339395 0.00524079 -0.00234755
H 2.61762132 5.64407377 8.82214303 0.00921330 -0.00380684 0.00563897
H 5.64154277 8.36498522 0.71710142 0.00011502 0.01814208 -0.01571762
H 4.06189863 3.38223403 5.14864599 0.00249364 0.00767468 0.00635692
H -0.19098218 1.27348525 11.25305330 -0.01162328 0.00774052 0.03416639
H 1.43509798 6.15198961 6.84571755 0.00171438 0.02154315 -0.02698240
H 4.11046398 6.99578271 10.54342504 0.00217807 0.00886873 0.01948143
H 4.05257036 1.94239294 6.93327304 0.00254670 0.03745742 -0.00622126
H 1.41328056 3.28164032 0.88758568 0.00307777 0.00720837 0.00494173
H 1.51024042 7.73784445 4.75847423 -0.00080180 -0.01315870 -0.00177951
H -1.98231702 5.50104791 35.23293635 -0.00531576 0.01066452 0.01153269
H -0.00105429 0.67871993 6.25891791 -0.00217016 -0.00346281 -0.01154677
H 2.59646372 4.25076133 12.07829893 -0.02037382 0.00012886 -0.01585243
H 5.49550696 8.95810311 5.66260485 0.00825559 -0.00229095 -0.01641173
H 2.62977005 6.99878784 1.76504216 -0.01080871 -0.02128592 0.03228214
H -0.07755257 2.24349983 4.28027662 -0.01686697 -0.01368245 0.00588305
H 2.63019207 2.64742389 10.20222429 -0.01818525 0.00082588 -0.01003722
H 5.41819497 7.43785857 7.64397175 0.01015940 -0.02952040 -0.01134499
H 4.97267021 4.75992924 9.72838548 -0.00057735 -0.00506387 -0.01568275
H 3.15759677 0.02391203 8.04492637 0.00404491 0.01862759 0.00213798
H 0.33445386 4.64203651 2.06429564 -0.00197945 -0.02366388 -0.00668811
H 2.39081979 9.30204513 3.59888864 0.02143766 -0.01669139 0.00466844
H 5.76235542 3.09018282 8.50940893 0.00225334 -0.01282606 -0.00726047
H 2.10822268 8.20460560 9.32291072 0.00422342 -0.01597727 0.00881864
H -0.56336429 5.21206933 4.24158266 0.01568651 0.01711343 -0.02133683
H 4.24803506 2.40570747 2.51800578 -0.00905957 -0.02110430 -0.00998560
H -0.43403348 2.82864150 8.32992876 -0.01068512 -0.00860234 0.01740446
H 0.60335413 7.30740267 8.84103251 -0.01914855 -0.01397359 0.00129831
H 4.93421534 5.82583258 4.57145902 -0.00381737 0.02379290 -0.01623173
H 4.64686216 1.09122119 1.42155671 -0.01175409 0.03448825 -0.00225857
H 0.87721682 3.94109150 7.62860590 -0.00531478 -0.00453390 0.01971706
H 0.50381470 8.43802253 10.17133950 0.00112399 -0.00359220 -0.00381941
H 6.57077215 5.85390077 3.86499888 -0.01026476 0.02222587 -0.02047204
H 3.00212382 1.23052148 2.08574954 0.03479034 0.02043190 -0.00121253
H -1.48819667 9.30232654 14.51601156 -0.00285302 -0.02299942 0.01085184
H 1.07705730 4.34277408 14.93643220 -0.04289380 -0.01487101 0.02000250
H 3.67735043 0.63631364 20.79819887 0.01723427 0.01531109 0.00802603
H 1.11759012 5.50077023 20.43840285 -0.00823348 -0.01072710 -0.00232302
H 4.02766870 8.22524669 12.65882816 0.02522670 0.03436380 0.03733016
H 2.19911865 3.51548543 16.90763125 0.00074238 0.01333622 -0.00396406
H -2.13440168 1.43148797 22.40522243 -0.00064168 -0.00138655 -0.00044720
H 0.14865433 6.09611026 18.46556555 0.02497472 0.00908934 -0.01056070
H 2.64671647 6.69680611 22.49492849 0.00960634 -0.01225032 -0.01135879
H 2.20566058 2.15850093 18.98605881 0.00708464 -0.00412118 -0.01438989
H -0.08852456 3.00116106 13.13294874 0.00420627 -0.01275113 0.01157054
H -0.10166731 7.75956176 16.60793031 -0.01073226 0.01395572 0.00046022
H 1.23726645 5.69331063 11.70721264 0.03098013 0.02548544 0.03880078
H -1.55234699 0.57836487 17.75297938 -0.00924811 0.02119230 -0.00189600
H 0.94754664 4.25197297 23.65643770 -0.00549414 0.01403560 0.00754267
H 3.71871943 9.31255265 17.74593901 -0.00683094 -0.00844468 -0.03253659
H 1.31665155 7.31934585 13.63007302 -0.04537746 0.01595020 -0.00266587
H -1.76039978 2.28256805 15.95596366 0.01127534 -0.01050913 -0.00770695
H 0.92121376 2.83935797 21.54825931 -0.00740667 -0.02912232 0.01779862
H 3.58864015 8.04304462 19.91117472 0.00700256 -0.00935152 -0.00220234
H 3.62758248 5.08569304 21.28180187 -0.00213686 0.02465495 -0.00523546
H 1.22309695 0.67928136 20.17210500 0.01335134 0.00070984 -0.00358116
H -1.18190473 4.74842910 14.26341600 -0.00374868 -0.00299864 -0.00823087
H 0.86961220 9.42839467 15.47471408 -0.03704546 0.01748720 0.00651337
H 4.89180964 2.53254387 20.08190000 -0.03284041 0.01192067 0.01446316
H 0.67627186 9.01883129 22.06631576 0.00665726 -0.00841728 -0.02477240
H 17.21152580 7.13268830 14.95445712 0.00068295 -0.00649575 -0.00948425
H 3.33319076 1.16993222 13.45203533 0.00210100 0.01179826 0.00652481
H 17.73587496 3.43343070 19.92193283 -0.02526745 0.02339803 -0.00304910
H 0.04531236 7.48630768 21.35584970 0.01020337 -0.02127743 -0.01375159
H 4.81045076 5.54876463 16.24474953 -0.00620594 -0.00269005 -0.01906361
H 1.65459464 0.34091344 13.71989888 0.00333992 -0.00526298 -0.02828075
H -1.43402805 2.57234147 20.44852577 -0.00307777 0.00311867 -0.00063756
H -1.15498067 8.41405955 22.24584041 0.00356396 -0.00643511 -0.02672794
H 3.98392401 7.01377013 15.55213725 -0.00547114 -0.01120063 -0.01617023
H 2.18071619 1.93507465 14.46598058 -0.01524233 0.01011184 -0.01756112
H -3.07435984 9.21592800 26.15194038 -0.00755526 -0.01512383 -0.00010649
H -0.13443220 4.49813004 26.92161004 -0.00106333 -0.00971199 -0.00304510
H 2.40401427 0.68243473 32.74573356 -0.01925211 0.00321341 0.00539985
H -0.49129204 5.57068185 32.23619637 -0.01032141 -0.00683097 0.00975402
H 2.73546527 8.23977571 24.45345480 0.01817180 0.00681188 -0.00745501
H 0.82577949 3.79042969 28.88577611 0.01865567 0.00367093 -0.00543540
H -3.36270408 1.45628001 34.51477198 0.00408444 0.03531189 -0.00534888
H -1.61844795 6.19390252 29.96168310 -0.00597776 0.01297038 0.02100593
H 0.96967015 6.85974917 34.11521620 0.00109722 0.00770520 0.03489029
H 0.86993364 2.03167856 30.49322442 -0.02079896 -0.00114356 -0.01584106
H -1.81633108 3.04589759 24.25733499 -0.02059967 -0.02197798 0.01735454
H -1.65261375 7.75953274 28.33441812 0.01085130 -0.02116024 0.00123528
H -0.42673455 5.44920781 23.41310953 0.01440729 -0.01347802 -0.00800248
H -2.95781187 0.62557745 29.27173261 0.01442672 -0.00893200 0.00205475
H 4.18677768 4.02499496 0.01086682 0.01740267 -0.00925986 0.02782641
H 2.25507876 9.14037133 29.20171565 -0.00766486 0.00983452 0.02402682
H -0.24245431 7.17417924 25.24730437 -0.01670615 -0.01469241 0.00771590
H -3.14099136 2.53325001 27.57669989 0.02512555 -0.00582620 -0.00490067
H -0.48083782 2.37697130 33.69197312 0.01828009 0.01286694 0.01134484
H 2.31698403 7.52944680 31.10061126 0.00063073 -0.01059747 0.00022878
H 1.93984318 5.16415609 32.94158256 -0.01286832 -0.00100546 -0.01796652
H -0.15219698 0.47503697 31.61958779 0.01960299 -0.02638891 -0.00943522
H -2.95838597 4.77035140 25.82831625 -0.00480938 -0.00825232 0.00558019
H -0.61615591 10.00712048 27.26071757 0.02209863 0.02628314 -0.00621929
H 4.23208117 4.25696874 30.77554145 -0.01462246 0.01711844 0.02835047
H -0.77503728 8.70755498 33.74001823 -0.00571290 0.01200652 0.00251296
H -3.65756699 5.78596320 27.60814883 0.00086155 -0.00337982 0.00980510
H -0.04655406 1.57413678 25.80238510 -0.00544291 0.02274700 0.04235185
H -2.77142054 3.73224133 30.64324677 -0.01198545 -0.00492837 -0.00654295
H -2.06809355 7.51699490 33.20284439 -0.01356820 0.00984409 -0.00097929
H 1.94306730 5.82100365 27.90988499 -0.01645747 0.03081926 0.00837720
H 1.32406866 2.34263754 26.42946932 0.00357849 0.00723231 -0.00395468
H 16.40146556 3.24419152 31.74537657 0.00287609 0.01702257 -0.00631380
H -2.44128134 8.85897123 34.32693851 0.00738666 -0.02238119 0.00412122
H 3.62243103 6.03702171 27.07426281 0.00670953 -0.00257369 0.02024687
H 1.66318023 1.05828849 25.18962175 0.00034662 0.00956585 0.01067688
H -0.18474542 18.40907245 2.77573712 0.02536222 0.00026221 -0.01107023
H 2.71361554 13.55963925 3.07143699 0.00848213 -0.00469250 0.01471179
H 5.33367062 10.16606080 8.87319075 -0.00392989 0.01256568 -0.01690077
H 2.44697990 15.16352305 8.75760252 0.00417950 0.01324039 0.01447860
H 5.84715734 17.94201294 1.11681651 -0.00839284 -0.01634847 -0.00277054
H 3.79036811 12.82915167 4.96439019 -0.01737694 0.01063070 0.00824793
H -0.53070055 11.14356653 10.88250713 0.00266633 0.01570634 0.01479395
H 1.35871918 15.68245265 6.53017361 0.00256677 -0.00550934 0.01655637
H 4.10535616 16.57193369 10.46729090 0.01409824 -0.00208280 -0.01687207
H 3.72313898 11.32069406 6.73445575 -0.00277731 0.03565786 0.00766498
H 0.99617288 12.75209335 0.99534729 -0.02115429 -0.00146276 0.00946973
H 1.36346845 17.19161418 4.45002566 0.00118700 -0.01021859 0.01109718
H -2.16135808 14.88314063 35.27069690 0.01694617 0.00835404 0.00759528
H -0.34578921 10.20390550 5.88470017 0.01745997 -0.01927768 -0.00607675
H 2.44936084 13.70223869 11.89981043 0.02621519 -0.00738138 0.03956607
H 5.13951923 18.67197900 5.68491638 0.01470980 0.01322825 -0.00473792
H 2.77342993 16.64952142 1.44493943 0.00707613 -0.01582180 0.01986389
H -0.23231244 11.68781662 3.81172399 0.00337482 -0.00511151 -0.00817161
H 2.53928693 12.10361467 9.77743620 -0.01908986 -0.00529178 0.01708330
H 5.16232874 17.21165965 7.76885854 -0.00194606 -0.01306895 0.00273457
H 4.79792794 14.78807150 9.34563454 -0.01779981 -0.01489400 -0.03322515
H 2.76256878 9.56349114 7.88135885 -0.01132062 -0.00550421 -0.00500385
H 0.10841376 14.25675973 2.16981221 -0.01983512 0.00504475 -0.00277392
H 2.30314686 18.95091284 3.44087165 0.00377046 -0.00387422 -0.01534996
H 6.86512940 13.34840093 7.19101166 0.00010489 0.00362576 -0.01604925
H 0.67147080 18.56692170 10.21197379 -0.00151831 0.00260769 0.00919299
H 18.43076758 16.55465444 3.40562219 0.01890360 -0.00104310 0.01622934
H 3.09542258 10.34991830 1.73958452 -0.02018715 -0.02282412 -0.01853697
H 19.30544939 13.13937345 8.19942474 -0.01501132 0.02650858 -0.02286586
H 2.14109030 18.10785641 9.41382660 -0.02246219 0.00875512 -0.00675532
H 5.41763687 16.57388773 3.63225830 -0.01927915 -0.00254614 -0.00480152
H 4.24320384 11.66129261 2.33409956 -0.00983130 -0.01358104 0.00921918
H 0.25620801 12.24486344 8.53171857 -0.00220468 0.00465966 -0.00496513
H 0.69599698 17.03487093 9.34687815 -0.00412671 -0.00448108 0.00314422
H 4.66494239 15.35842209 4.57218847 0.00469801 0.00513430 0.00355918
H 4.89492854 10.29128058 1.33480584 -0.01581021 -0.02591265 -0.02799106
H -1.58681283 18.55016803 14.72249735 0.00497040 -0.00306662 -0.01906172
H 1.07634893 13.88515686 15.28014590 0.04395205 0.00861488 -0.02549865
H 3.74932220 10.52966565 21.08857611 -0.01304600 -0.01069651 0.01029426
H 0.92391476 15.10241716 20.45809017 0.01425725 -0.00867870 0.01310174
H 4.11151142 17.94275216 12.58065063 -0.00860802 -0.01744171 0.01339302
H 2.13069983 13.19496629 17.22151191 0.00267306 0.01337251 -0.00844154
H -1.83530816 11.07185238 23.02867189 0.02801130 -0.00609531 -0.02673609
H -0.21338622 15.90220002 18.54607687 0.01385205 -0.00078497 -0.00392442
H 2.52073879 16.12825357 22.34898301 -0.02483778 -0.00294847 0.00125510
H 2.35731636 11.48004642 18.87871342 -0.00358486 0.00761883 -0.00062203
H -0.52781079 12.69182659 12.86171275 0.01005168 -0.04170078 0.02254826
H -0.10436882 17.38312324 16.64057520 -0.00835437 0.00670907 0.01561460
H 1.20147783 15.32952918 11.50928297 -0.01139788 -0.00138259 -0.00878128
H -1.57627607 10.15392915 17.92269017 -0.01043921 0.00353920 0.00826776
H 0.88572741 14.24628928 23.62436119 -0.01356759 -0.01749799 -0.01336253
H 4.07236448 18.12544159 17.55260856 0.00452358 0.00040417 0.00846037
H 1.21253484 16.52613282 13.56293266 0.00355405 0.01408616 -0.02129198
H -1.72803472 11.87682209 16.07701246 0.01818770 0.02102532 -0.01459047
H 0.93315864 12.54473819 21.81744989 -0.00989930 -0.00354034 0.00514522
H 3.76407940 16.77228743 19.59975378 -0.00505969 0.02098966 -0.00827467
H 3.47091536 14.49749570 21.43875039 -0.02689032 -0.00438108 -0.02265919
H 1.32068481 9.66533839 20.07472581 0.00170778 -0.00527878 0.00771228
H -1.37680469 14.21717583 14.04361688 0.00001505 -0.01302506 0.01348698
H 0.96612286 18.85292572 15.35745032 -0.00672831 0.02267116 -0.01080155
H 5.92823170 14.03971024 18.93421254 -0.01690367 -0.02119277 -0.02652567
H 0.83074631 17.59386295 20.82658045 0.00138794 0.02685503 -0.00814504
H 17.06574243 15.40425917 16.40805648 -0.00118320 -0.00274736 0.01640498
H 3.28670623 10.80634463 13.35805738 -0.00252465 -0.01594065 -0.00249091
H -0.89684161 13.31192918 19.27693317 -0.01279914 -0.00484919 -0.00712465
H -0.96548947 17.15681094 20.90060710 0.00132581 -0.00751227 -0.00745954
H 3.65686081 16.51656300 15.21885009 0.00606889 0.00387300 -0.03455990
H 1.67575099 10.64535849 13.67585854 0.02216224 -0.00651107 0.01106374
H 17.89241464 13.42119863 19.35047764 -0.00038155 0.01012467 -0.01379512
H -0.27069852 18.25235125 22.14782800 0.00400230 0.02681879 -0.00543607
H 3.44066891 15.16067999 16.24922681 -0.01421557 -0.00351672 -0.03026005
H 2.51459075 11.93491234 14.56701472 0.00013800 0.03028192 0.00315199
H -3.21120977 18.38902963 26.63141415 -0.01853552 0.01412378 0.01660812
H -0.47822514 13.94772094 27.11070089 -0.01615182 -0.00679213 -0.01280838
H 2.27816067 10.28048113 32.99850590 -0.01530434 -0.00697947 -0.00348545
H -1.12523161 15.28022888 32.36436594 0.00390218 0.01305399 0.01142659
H 2.41253422 18.03589695 23.85118443 -0.00106976 -0.00111500 -0.01109725
H 0.54156790 13.37146567 29.24376171 0.00231896 -0.03381335 0.01163173
H -3.45315068 11.25403719 34.50509551 0.01195136 0.00222048 -0.03397726
H -1.88550874 15.85285635 30.26880453 -0.00962525 -0.00060114 -0.00973306
H 0.91409610 16.28291076 34.69453477 -0.00917463 -0.00683029 0.00626323
H 0.60067251 11.42567288 30.91252466 -0.03076369 0.00463855 0.02283304
H -1.88799804 12.61019246 24.82363552 -0.01212611 0.00389602 -0.00063080
H -1.66538420 17.42879415 28.40919206 -0.01003647 -0.00711216 0.01335813
H -0.49045279 15.02993199 23.38712542 -0.01377933 0.00723219 0.01008778
H -3.43338671 10.37890547 29.67704084 0.00120505 0.00672731 -0.00620680
H 4.13180158 13.76453815 0.24311763 0.02951686 0.00025075 -0.01641011
H 2.15682299 18.73673766 29.63361444 -0.01972529 0.03331816 -0.02287303
H -0.35075072 16.66257816 25.18748307 0.00805187 -0.00713138 0.01409316
H -3.38914187 12.06380902 28.05460327 -0.00116766 0.01071851 0.01607915