2160
Time=67000.00000006 pbc="T T T" Lattice="20.61227581 0.00000000 0.00000000 0.00000000 28.93555355 0.00000000 -4.73056759 0.00000000 35.58267557" energy=-13804.20431888 virial="-69.84117011 -7.78976444 54.12521405 -7.78976444 -20.09754338 -9.00265998 54.12521405 -9.00265998 -26.87055235" stress="-0.00088674 -0.00030146 0.00262298 -0.00030146 0.00123634 -0.00047430 0.00262298 -0.00047430 0.00095758" Properties=species:S:1:pos:R:3:vel:R:3
O 0.90908390 8.61398812 2.57426522 -0.00377014 0.00261037 -0.00259263
O 1.92366389 3.52752967 3.54627502 0.00213387 0.00146470 -0.00110445
O 4.45731440 1.37531929 9.42738318 0.00120563 0.00213669 0.00126382
O 3.19097083 6.06958281 8.47084833 0.00100162 0.00181971 -0.00227441
O 1.27800981 5.00866346 9.87141063 -0.00083798 -0.00090394 -0.00351647
O -0.35756705 9.69331435 8.36941291 0.00495302 0.00432147 -0.00084510
O 3.89758210 4.62568112 2.42551969 0.00162504 -0.00678949 -0.00002269
O 5.58764183 28.68783211 3.58377733 -0.00464320 -0.00156088 -0.00189409
O -0.94502788 8.59124955 14.70393309 0.00223824 0.00158887 -0.00056560
O 0.59017267 3.88986443 15.73903816 -0.00171141 -0.00101267 0.00160461
O 3.02899493 0.76999193 21.09191516 -0.00384571 0.00801776 -0.00489729
O 1.94558617 5.77869021 20.23983754 -0.00119766 0.00075177 -0.00175782
O -0.28965609 4.93542494 21.53994901 -0.00111615 -0.00065952 0.00296228
O -1.81565472 9.68047255 19.96041761 0.00429420 -0.00546129 -0.00103120
O 2.48249541 4.93782809 14.25410962 0.00030896 -0.00424273 0.00391676
O 3.81857047 28.61102118 15.22742172 0.00456459 0.00085660 0.00489203
O -2.34476646 8.54141321 26.29500135 0.00296459 -0.00195530 0.00421913
O -1.16873556 3.67188994 27.08253530 -0.00173590 -0.00022954 -0.00378210
O 1.61881342 1.07936827 33.26242883 0.00299893 -0.00448543 -0.00448053
O 0.52950161 5.99984309 32.18966456 0.00381306 -0.00212380 0.00122953
O -1.64763029 5.11734792 33.40618756 -0.00112527 0.00102900 -0.00561866
O -3.38368026 9.81355375 32.03352928 -0.00240532 -0.00373186 0.00240040
O 0.86023247 4.54432638 25.67947807 -0.00030298 0.00523280 -0.00372450
O 2.45650837 28.83401951 27.27420420 -0.00190649 0.00536853 0.00209200
O 0.67430342 18.24413797 2.21304889 0.00383176 0.00567980 0.00314873
O 1.79486693 13.47948607 3.63549396 0.00145547 0.00091104 -0.00282974
O 4.46187055 10.84580333 9.49646736 -0.00043467 0.00485495 0.00510842
O 3.14102725 15.38037577 8.46128046 -0.00121234 0.00317085 -0.00010296
O 0.88429358 14.26122647 9.78725514 -0.00407628 0.00194571 0.00419755
O -0.27710532 19.20028712 8.02681584 -0.01164687 -0.00413273 -0.00526422
O 3.92178905 14.30064648 2.06437412 0.00150519 0.00091392 0.00338151
O 5.47567107 9.86801207 3.89912292 0.00457990 0.00293115 -0.00795140
O -0.73582732 18.47625803 14.18303620 0.00177222 0.00129654 0.00489665
O 0.55031246 13.27707289 15.34802025 -0.00128933 -0.00446463 -0.00052634
O 3.17147228 10.79797357 21.17470954 0.00157602 0.00173346 0.00207075
O 1.63374385 15.88427704 20.33767956 -0.00073249 -0.00621250 0.00222994
O -0.30869441 14.33280061 21.15826156 0.00491316 -0.00731203 -0.00272651
O -1.69051670 19.57809757 20.35956109 -0.00042661 0.00120520 0.00415118
O 2.20311195 14.58880452 13.99779995 0.01205632 -0.00371154 0.00168307
O 4.06632966 9.95084230 15.94100693 -0.00377903 0.00525696 -0.00429856
O -2.19764213 18.21912203 25.95274987 -0.00735088 0.00271292 -0.00045609
O -1.25078512 13.58117151 27.28994341 -0.00027417 -0.00271991 0.00091448
O 1.37083937 10.40284584 33.07308952 -0.00444452 0.00459504 0.00019282
O 0.18146492 15.71775259 32.04318308 0.00336528 0.00037246 0.00348779
O -1.86937544 14.52810532 33.05662394 -0.00680297 -0.00492414 -0.00487941
O -3.44659255 19.15472073 32.10645677 -0.00294255 -0.00219264 0.00307641
O 1.05687456 14.10180498 26.27719198 -0.00246890 0.00251580 0.00854292
O 2.49666079 9.16690636 27.14212140 -0.00625566 0.00205581 0.00494458
O 0.84644618 27.65314985 2.40342880 -0.00069888 0.00375770 0.00261008
O 1.72702112 23.07460798 3.51341855 -0.00187295 0.00213440 0.00314070
O 4.47335342 20.37180226 9.31554131 -0.00198353 0.00331379 -0.00060005
O 3.22750500 25.08765737 8.17589772 -0.00267535 0.00119864 0.00241472
O 1.32497040 24.17617118 9.52794848 0.00157038 0.00451177 0.00018812
O -0.24393545 0.11897960 8.40697838 -0.00048874 0.00420572 -0.00642769
O 4.07738968 23.86790253 2.60778162 -0.00274108 -0.00478806 -0.00258907
O 5.39259878 19.02444417 3.88829685 -0.00457133 -0.00501336 0.00305640
O -0.90535130 27.86216730 14.00951171 -0.00252773 -0.00064351 -0.00908176
O 0.36351351 23.10450638 15.28122592 -0.00283321 -0.00252419 0.00268194
O 2.88572092 20.40753795 21.19617944 -0.00037415 0.00176690 -0.00367099
O 1.90894305 25.08995905 20.12151281 -0.00484990 -0.00005890 0.00209576
O -0.48053654 24.32355621 20.84606147 -0.00523680 -0.00246400 0.00181124
O -1.81549523 0.02119474 20.13447510 0.00063249 -0.00259721 0.00496306
O 2.41803259 24.10697404 14.01373438 -0.00367858 -0.00057673 -0.00040186
O 4.06227188 18.91629519 15.38341792 0.00487742 -0.00105278 -0.00064341
O -2.25168277 27.94874835 26.00598063 -0.00299531 -0.00310902 0.00139555
O -1.29369790 22.89394136 27.25931387 0.00327930 -0.00708130 -0.00276546
O 1.29317193 20.33319323 33.43418257 -0.00111854 0.00039880 0.00353177
O 0.09691822 25.29218848 32.17135432 -0.00191264 -0.00359007 0.00269246
O -1.93320212 24.08411193 33.32502199 -0.00034618 -0.00451346 0.00292835
O -3.27679878 0.03261367 31.81069220 0.00259559 0.00121405 0.00242127
O 0.86730896 24.18121820 25.89939843 -0.00238197 0.00584957 -0.00475376
O 2.42020908 19.54690733 27.33871160 0.00367073 0.00102006 0.00621203
O 7.54949132 8.58398282 2.71525576 0.00391760 -0.00027092 -0.00220871
O 8.62263361 3.76913308 3.82011414 0.00015059 0.00284104 0.00053273
O 11.63070663 1.62618453 9.03559492 0.00857165 0.00303248 0.00435393
O 10.24151595 6.02150976 8.80593800 -0.00441460 -0.00292759 -0.00327299
O 8.09127662 5.04700662 9.90961985 -0.00025380 0.00171719 -0.00080735
O 6.52434788 9.86064243 8.25708607 0.00048680 0.00330945 0.00262040
O 10.94889253 4.87674341 2.41815631 0.00478292 0.00311686 0.00573142
O 12.35670818 28.69373746 3.35671914 -0.00012884 0.00202517 -0.00191420
O 5.74497002 8.79608135 14.45451302 -0.00445294 0.00027335 0.00151154
O 7.20521186 3.70282118 15.43460469 0.00430212 0.00154762 0.00020303
O 10.08655357 1.01203648 21.30615577 -0.00740649 -0.00357244 -0.01036633
O 8.70593985 5.97241389 20.41902739 -0.00520031 -0.00806255 -0.00223612
O 6.72866028 4.73016857 21.38574035 0.00124462 -0.00347201 0.00094978
O 5.21941442 9.61558612 20.21814346 -0.00535069 0.00015569 -0.00490434
O 9.14228936 4.69232459 14.15833878 0.00137529 -0.00112577 0.00110610
O 10.92277590 0.28094448 15.50955281 0.00504168 -0.00047376 0.00025835
O 4.80669264 8.60849874 26.05392792 0.00345749 0.00278022 0.00077453
O 5.96362753 3.66464696 26.84617733 -0.00195756 -0.00516565 -0.00684476
O 8.31269840 0.97876329 32.96753311 0.00313562 0.00259264 0.00033820
O 7.04264066 5.84743814 31.94021350 -0.00084748 -0.00325137 0.00169255
O 5.18231558 4.90954105 33.70221060 -0.00112595 0.00072636 -0.00155679
O 3.67602888 9.84627004 32.01248836 -0.00573680 0.00320700 0.00372142
O 8.01067938 4.89766575 25.89904089 -0.00717474 0.00118489 0.00094365
O 9.33254557 0.08937312 27.33141332 -0.00005379 -0.00218854 -0.00026963
O 7.39803386 17.97756035 2.58140823 -0.00765698 0.00357693 0.00155951
O 8.81430552 13.07509713 3.36648904 0.00256204 -0.00084536 -0.00046377
O 11.19805871 10.83775306 9.43501902 -0.00978988 -0.00401626 -0.00295972
O 10.07012253 15.62712703 8.32816773 -0.00159665 -0.00670903 0.00123961
O 8.04641439 14.57373808 9.37170126 -0.00290839 -0.00137487 -0.00423358
O 6.43828356 19.11160593 8.09816666 0.00023458 -0.00349248 -0.00478128
O 10.83864406 14.38448022 2.18594492 0.00270812 -0.00672633 -0.00225107
O 12.36800192 9.46622722 3.82138049 0.00188715 -0.00165765 0.00253327
O 6.18034784 18.14768154 14.27669285 0.00086864 -0.00281531 0.00199427
O 7.28545118 13.21324184 15.37488035 0.00208910 -0.00381248 0.00037342
O 9.95049228 10.64692242 21.79695629 0.00322361 0.00056929 0.00718030
O 8.78803294 15.82657973 20.25339723 0.00047962 -0.00065574 0.00216713
O 6.81228862 14.67853800 21.48064369 -0.00030461 0.00008113 -0.00229852
O 5.05982631 19.54987504 20.20830649 -0.00047259 0.00354779 -0.00547522
O 9.40851914 14.30442877 14.39381792 0.00233880 -0.00081599 -0.00484034
O 10.82206086 9.87175170 15.75873125 -0.00050691 -0.00003522 0.00140430
O 4.26808805 18.36172509 26.06669525 0.00464257 0.00167178 0.00272645
O 5.54176638 13.46004513 27.40557644 -0.00552429 0.00438478 -0.00409759
O 8.25635478 10.41404068 33.38275081 -0.00083289 -0.00272819 -0.00338743
O 6.86099994 15.69233037 32.25666355 -0.00009148 0.00627188 0.00044837
O 4.97686945 14.57641436 33.58259173 -0.00017098 0.00096307 0.00000868
O 3.33974029 19.52302281 32.20020936 -0.00188352 -0.00051877 -0.00305076
O 7.68374466 14.23087863 26.21165500 0.00542845 -0.00207440 -0.00156366
O 9.27459803 9.30308410 27.19244025 -0.00127480 -0.00762150 -0.00089360
O 7.73308808 28.03618311 2.15755959 0.00319305 -0.00092768 0.00590999
O 8.82323852 22.88154814 3.49956686 0.00025787 -0.00362387 -0.00241475
O 11.47143007 20.40994032 9.43288111 -0.00599535 0.00894550 -0.00241522
O 10.18386203 24.97477811 8.16180198 -0.00139236 0.00018243 0.00048184
O 8.21976653 24.20574612 9.59334545 -0.00116502 -0.00408660 0.00126523
O 6.65872943 0.19707823 8.36113677 -0.00073865 0.00652655 0.00126714
O 10.93960541 23.90556881 2.31742831 -0.00724140 -0.00160858 0.00003330
O 12.46267213 19.43535969 3.77800162 -0.00285733 -0.00396641 -0.00629542
O 6.19231393 27.94055983 14.04122139 0.00005588 0.00256068 -0.00908270
O 7.04503726 22.98227189 15.43264194 -0.00810984 -0.00196419 -0.00052135
O 9.67211154 20.50226832 21.04756470 0.00159800 0.00025472 -0.00776061
O 8.81547050 25.16831105 19.86081378 0.00321559 -0.00037075 -0.00618199
O 6.59295951 24.21183488 21.30839976 -0.00181953 0.00144563 -0.00136642
O 5.10403629 28.71347482 19.90106589 -0.00098129 0.00362658 -0.00306026
O 9.19887939 23.93646942 14.24848650 0.00019829 0.00167765 0.00051678
O 10.72442588 19.25649205 15.23133053 0.00189277 0.00299922 0.00216571
O 4.53190898 27.69367014 26.21434456 -0.00473714 0.00286294 0.00413249
O 5.76473822 23.24683870 27.77356648 -0.00579305 -0.00353040 0.00406153
O 8.08550999 20.22121761 33.18029067 -0.00431041 -0.00158963 0.00303617
O 7.15819434 25.24537565 32.18025479 0.00512095 -0.00132315 0.00349199
O 4.92031978 24.40539932 33.05926565 -0.00232702 -0.00151795 0.00124962
O 3.49972439 0.45550335 31.63647399 -0.00337286 -0.00333198 -0.00332812
O 7.68972037 23.73998238 26.18409755 -0.00689450 -0.00019183 0.00313468
O 9.12967540 19.28184894 27.31943704 0.00388632 -0.00402433 -0.00150801
O 14.28212173 8.32745818 2.57320455 -0.00065329 -0.00073779 0.00129053
O 15.78588113 3.77214276 3.56176506 0.00242426 -0.00237409 0.00020268
O 18.35646595 1.38716334 9.54843453 -0.00387603 0.00024415 -0.00360755
O 17.06095649 6.01290775 8.48190049 0.00043320 -0.00349209 0.00594084
O 14.86343287 5.18067488 9.55898328 -0.00688806 0.00062242 -0.00142777
O 13.45746146 9.73728872 8.39629211 0.00367543 0.00521763 0.00048477
O 17.75197011 4.94987393 2.35887910 0.00135901 -0.00454281 0.00182489
O 19.53124987 28.50263383 3.81120478 -0.00511516 -0.00312032 -0.00696331
O 12.80692074 8.74679135 14.35249179 -0.00342345 -0.00845042 -0.00082309
O 14.22018696 3.77518092 15.60848963 -0.00060918 -0.00084210 -0.00213255
O 16.78268506 0.91415271 21.42267826 -0.00259677 -0.00072646 -0.00251203
O 15.62613350 5.99842288 20.37596226 -0.00081206 -0.00320438 0.00750680
O 13.22474918 5.28833348 21.03650887 0.00729008 0.00006946 -0.00170272
O 11.85655626 9.85472565 20.30096077 -0.00093234 0.00057688 0.00096268
O 16.10442193 5.25719444 14.26552939 -0.00007313 -0.00249937 -0.00205015
O 17.89381669 28.90371420 15.44886460 0.00218875 -0.00331761 0.00367648
O 11.52979965 8.62107472 26.04255797 0.00519409 0.00640793 -0.00408864
O 12.61005027 3.80876506 27.34818910 0.00006460 0.00236445 0.00044263
O 15.45199869 1.24029210 33.23861349 -0.00193219 -0.00067667 -0.00241732
O 13.98012745 5.79917009 32.07398210 0.00591554 0.00144652 -0.00556500
O 11.88328323 4.83667175 33.48253745 0.00387919 0.00329253 -0.00707313
O 10.21245141 9.49892719 31.77554040 0.00225681 -0.00434470 0.00433336
O 14.44926969 4.62663812 25.80671642 0.00190936 0.00547382 0.00888541
O 16.20221669 28.51999220 27.17281058 -0.00563466 0.00027719 0.00071807
O 14.23469504 18.16755071 2.43108981 -0.00556001 0.00442577 0.00187590
O 15.56399028 13.29062436 3.58673305 0.00392891 0.00281345 0.00026114
O 18.25037836 10.39553140 9.93789415 -0.00311322 -0.00266237 0.00808090
O 17.01938617 15.65038076 8.45886049 -0.00362119 0.00041302 -0.00159623
O 14.88248433 14.41537712 9.75837031 0.00191884 0.00342825 -0.00113365
O 13.58726721 19.36874193 8.21980960 -0.00357060 -0.00074384 0.00043181
O 17.61787994 14.18634451 2.32852493 0.00105062 -0.00083063 0.00296721
O 19.17039549 9.64247166 3.63689194 -0.00426723 -0.00742372 0.00060503
O 13.13513577 18.51882625 14.09347461 -0.00164263 -0.00835659 0.00202900
O 14.04874045 13.59872002 15.46728657 -0.00054835 -0.00001114 0.00033427
O 16.89277688 10.82498504 21.18083610 0.00119481 0.00553678 -0.00331366
O 15.35349922 16.00625906 20.23985538 0.00470999 0.00164881 -0.00085791
O 13.42437216 14.53060850 21.45919631 -0.00483902 0.00027116 -0.00038409
O 11.90869834 19.78183023 19.89972780 0.00079643 -0.00039951 0.00113784
O 16.11269289 14.60858060 14.19917846 0.00028884 0.00008727 0.00130997
O 17.43176907 9.67768592 15.59780383 0.00502334 -0.00101748 0.00344321
O 11.36600336 18.21874363 26.39379406 -0.00148033 -0.00162398 -0.00273313
O 12.46911054 13.41781472 27.30704456 0.00129578 0.00394987 0.00032258
O 14.98487255 10.45461817 33.21873153 0.00515645 -0.00201228 0.00006603
O 13.84170882 15.45271962 31.81310054 0.00088608 0.00370477 0.00054479
O 11.91653914 14.57112008 33.45493037 0.00392081 -0.00135431 0.00564563
O 10.21280463 19.43089329 31.60365951 0.00294320 -0.00475493 -0.00190184
O 14.50777313 14.61550942 25.92569944 -0.00537924 0.00256372 0.00293046
O 16.19331639 9.50773495 27.31545263 0.00547015 0.00451137 0.00107700
O 14.68994289 27.90429016 1.91301224 0.00134904 0.00370601 -0.00066576
O 15.57353943 23.02134962 3.35183315 0.00104845 -0.00310485 -0.00292569
O 18.40204244 20.55353906 9.06569713 -0.00117449 -0.00401695 0.00609608
O 17.01444159 25.05831408 8.29055504 -0.00049449 -0.00628940 0.00170319
O 15.20270464 24.24572446 9.83510160 0.00294916 0.00251211 -0.00634647
O 13.40891273 0.02114464 8.04559888 0.00393363 -0.00482656 -0.00395945
O 17.63660861 24.10704943 2.14706998 0.00638576 -0.00394917 -0.00198739
O 19.20733352 19.13314643 3.49857067 -0.00346626 -0.00135231 0.00226779
O 12.63125949 27.84637550 14.23372020 -0.00149785 -0.00027430 0.00069898
O 14.16461844 23.07046409 15.09782677 -0.00760632 0.00196564 -0.00693952
O 16.58919064 20.39916434 21.34786918 0.00164730 0.00075511 -0.00040917
O 15.69688562 25.09628258 20.15390872 -0.00376467 0.00382835 0.00143321
O 13.41967920 24.37648168 21.13446403 0.00098862 0.00646567 0.00800876
O 12.04848585 28.78009038 19.94286327 -0.00008856 -0.00149071 0.00037028
O 16.19153431 24.08418711 13.94925351 0.00237127 -0.00401319 -0.00166319
O 17.80927467 19.34678834 15.45948778 -0.00126694 -0.00678622 0.00071992
O 11.37526668 27.78451483 26.09941169 -0.00057380 -0.00219894 0.00936371
O 12.43050423 23.02892748 26.95512128 0.00228703 0.00218141 0.00119365
O 15.15928665 20.48203978 32.88774815 -0.00269080 -0.00146400 0.00416138
O 13.96430910 25.19513150 31.99773141 -0.00641114 0.00076172 0.00034419
O 11.93209237 24.16979234 32.94427893 -0.00053708 0.00307398 -0.00135154
O 10.42458527 28.78782136 32.01840744 0.00218672 0.00148406 -0.00597272
O 14.73509949 24.13394318 26.03847768 0.00316236 -0.00281598 0.00870314
O 16.23880005 19.26073908 27.28714672 -0.00288713 -0.00471684 -0.00109585
H -0.06471410 8.83193910 2.81068466 0.00789045 -0.00218034 -0.01270594
H 2.90062869 3.89290370 3.29344495 0.04035151 -0.00796483 0.00219106
H 5.31540699 0.94496092 9.14300201 0.01576709 0.02260944 -0.00295206
H 2.31503790 5.94851093 8.97528411 0.00110539 0.00460638 -0.00471483
H 5.65052624 8.34837891 0.91669294 -0.02023381 0.01561644 0.00825680
H 4.06015566 3.17321791 5.49730494 -0.01809155 0.00104638 -0.00128599
H -0.32039282 1.76124504 11.35134024 0.00236138 0.00768325 -0.00919497
H 1.42795759 6.14737214 6.68281669 0.01375455 0.00178661 0.00750290
H 3.85893667 6.62697764 10.81964426 -0.00922507 0.01777234 0.00244648
H 3.82886358 1.66796065 7.27273397 0.01200602 -0.00378207 -0.00798114
H 1.04885899 2.82834636 1.69435208 0.00536511 -0.02077917 -0.00126086
H 1.69966958 7.31960881 4.37897225 0.01789308 0.00277820 -0.01331996
H 3.03344398 5.52382285 0.03933767 0.01935225 0.00474699 -0.00400355
H -0.17400368 0.66433386 6.09450934 -0.00133661 -0.00749046 0.00778066
H 2.50922844 4.49971944 12.00798980 0.02817056 0.00365119 -0.00788231
H 5.23505560 9.20894642 6.00255026 -0.00578225 0.01061670 0.00361526
H 2.84330217 7.05126616 1.92382725 -0.01515304 0.01442796 -0.00904521
H 0.10816601 2.02013039 4.19036634 -0.01760099 0.02044275 -0.00540274
H 2.82362217 3.17160330 9.81514235 -0.01556081 0.00247255 -0.01226787
H 5.40603841 7.59345978 7.76482143 0.02838330 0.01443964 0.01331981
H 5.05747382 5.47298541 9.45412789 -0.01120591 -0.00345202 -0.00619775
H 2.84620023 0.00948900 8.35100494 0.00698268 -0.01671777 0.00222203
H 0.31970661 4.96293112 2.46846652 0.00672370 0.01016063 0.02056666
H 2.35836606 9.52938281 3.77890672 -0.00973453 0.01493186 0.01803903
H 7.54615107 3.34688892 8.08001521 -0.00867997 -0.00779456 0.01952332
H 0.49855417 8.56788201 10.51976780 0.00678061 0.00475462 -0.00663026
H 19.89673843 5.87649759 4.66345320 -0.00430871 0.00130909 0.01482824
H 5.00899950 1.62108575 2.04492697 -0.00163271 0.01385236 -0.05517160
H 0.48023701 3.91831344 7.53307450 -0.00454255 0.01281356 0.00396098
H 2.11415275 9.29008763 10.26659365 0.00566751 -0.00421818 0.01544111
H 4.21508000 5.75250937 4.48207425 -0.00049474 0.00267292 -0.00427597
H 3.89637983 0.55125333 1.25445902 0.01840899 0.01348001 0.01645416
H 19.37715256 3.64862671 8.33273742 0.03124108 0.02719938 -0.00533650
H 1.64122867 7.69624261 9.70448975 -0.04022741 -0.03032053 0.00410173
H 6.07156005 5.81495150 4.52975776 0.01904500 -0.03491492 0.02763298
H 3.29515210 1.60959280 2.54352403 0.00535884 -0.00032821 -0.02487108
H -1.84248165 9.00046882 14.93405476 0.00560396 0.00612511 0.01752028
H 1.48132501 4.10086116 15.45879194 -0.00128168 -0.01129732 0.02836658
H 3.87480309 0.34950259 20.82768644 -0.00346037 0.01310372 0.00424324
H 1.02533182 5.49542475 20.60686184 0.01124745 0.00128519 -0.00089689
H 3.73254971 8.24984606 12.71057637 0.00289442 -0.01072874 -0.01503883
H 2.56590815 3.33967339 17.38489001 -0.02267772 0.00018867 0.01022183
H -1.69145101 1.75297882 22.83370118 0.00541616 -0.02919096 -0.00924212
H -0.13489928 6.51135692 18.55926017 0.00934556 0.00743393 -0.03213167
H 2.70893557 6.87694562 22.58165200 0.01325823 0.02355982 0.03041428
H 2.40814181 1.90237926 19.27723536 -0.00035301 -0.01415041 0.01972634
H -0.48228084 3.22109927 13.26575912 0.01509218 0.02412732 0.01352352
H 0.08876397 7.59923175 16.51477604 0.04443523 -0.01172680 0.01439207
H 0.96960746 5.59413478 11.90286765 -0.01637148 -0.00021703 -0.00812321
H -1.58564317 0.67441437 18.11954603 -0.01253495 0.00203235 -0.01480225
H 1.29415437 4.25336656 23.52108467 0.01086557 0.00557726 0.02509500
H 4.02653947 9.00132444 17.83540591 0.02245738 0.02683045 -0.00324092
H 1.00973551 6.96657186 13.95117081 -0.00998860 0.03018992 0.02808823
H -1.31475566 2.22006546 16.24743543 0.00181529 -0.00488502 0.01245091
H 1.18141791 2.51831095 21.51168152 -0.00169197 0.01167779 -0.00951113
H 3.76727768 7.66789301 19.81196536 0.01460280 0.00214934 0.01382680
H 3.70058361 5.14273266 21.11861239 0.01126495 0.00508465 0.00076846
H 1.29866412 28.90930094 20.40085805 -0.01605709 0.00925717 0.02813995
H -1.34015011 4.74987838 14.38576241 -0.00166653 -0.00835626 -0.01042023
H 0.97384147 9.74097186 15.67985879 0.02869845 -0.02834579 0.01230594
H 4.06279602 3.84988677 19.67251792 0.01033199 0.02403889 0.01061824
H -0.59040530 7.51076993 20.99862823 -0.00047832 -0.00945547 0.02154110
H 16.71566060 6.26632132 16.41163735 -0.00598301 0.01456296 -0.01267966
H 3.26741650 2.15343020 14.71897666 0.00283875 -0.01082111 -0.00032948
H 18.02018022 4.29819920 19.21191696 0.01277272 0.00121606 -0.00802713
H -1.09703735 8.84070539 22.10532755 0.00006543 -0.01237741 0.01332986
H 3.07871107 5.93645717 16.55225302 -0.00738786 -0.00707837 0.01037631
H 2.88843513 1.26431585 13.31900862 -0.00109972 -0.01168083 -0.01246052
H -1.73646637 2.93617649 20.05471641 0.02654461 0.00063645 -0.00668301
H 0.65082265 8.45607327 21.65345517 0.00697980 0.01060434 0.00073437
H 4.88238958 6.20233755 16.15684696 0.00220024 0.01443100 -0.01081297
H 1.52875945 1.77135743 14.53942263 -0.00579648 0.00031760 -0.01551392
H -3.19938926 9.00316750 26.57160357 -0.00587263 -0.00213139 -0.00713674
H -0.26316080 4.01318121 26.66261588 0.00198781 -0.01551415 -0.00603508
H 2.40300961 1.00314111 32.66767910 0.01835195 -0.01323383 0.00977027
H -0.39176255 5.56733805 32.44804169 0.00219067 -0.01347347 -0.00002140
H 2.62685318 8.17202943 24.50578736 -0.01335874 0.02266271 0.00179962
H 0.85260410 3.51265274 28.89476579 0.01290057 -0.01993577 -0.02549751
H -3.46214870 1.50597738 35.28360606 -0.00791962 -0.00328716 0.00591908
H -1.38573618 6.08056453 30.60598635 0.01197349 -0.00288001 0.01253234
H 0.94392660 6.86210180 34.50928243 -0.00236110 0.00362924 -0.01304553
H 0.70593484 2.13664384 30.87061861 -0.01018377 -0.01670182 0.00961207
H -1.77012715 3.28000576 24.71775763 0.00179555 -0.01095498 -0.02566301
H -1.57214233 7.58543018 28.54821776 0.01542469 -0.00973234 -0.00561670
H -0.43532359 5.53689212 23.50727736 0.01137937 0.00711472 0.01859234
H -3.16598064 0.60650520 29.87415804 0.03108440 -0.00967460 -0.01251340
H 4.16250158 4.20016531 0.26913867 0.00968412 0.01658470 -0.02264240
H 2.21531391 9.39592405 29.64629258 -0.00726124 0.00815419 0.00881769
H -0.32661501 6.85614700 25.52074711 -0.00721415 -0.00111992 0.01355972
H -3.12194752 2.18986304 27.83435138 0.00919420 0.01765829 -0.00973728
H -0.47606927 2.54792061 33.87757776 0.03312314 0.00359670 -0.00848794
H 2.48374574 7.59605434 31.39728939 0.02411357 0.01421413 -0.03835137
H 2.01468272 5.15868947 33.36456802 -0.01513265 0.00405165 0.00373920
H -0.14794923 0.01272319 31.72355379 0.01768194 0.00799010 0.00218311
H -2.95522564 5.06443382 25.75962049 0.00113925 0.01131494 0.02060424
H -0.75472840 9.45754813 27.33010877 0.06462178 0.00214266 -0.00794564
H 2.98774787 3.07079138 32.16359753 -0.01252176 0.01381232 0.01727231
H -0.79165088 8.61811959 33.65716271 -0.00414813 -0.00634556 0.00386131
H 16.96721022 6.43343462 27.35681949 0.01319068 -0.00188226 0.00309379
H 1.82776857 1.19803233 25.28860092 0.01074278 -0.01665832 0.01225582
H -2.21600340 3.45922124 31.41451303 -0.00767239 -0.02742605 0.00086178
H -1.97326293 7.43643209 33.19109990 0.04356300 0.00450788 -0.00968194
H 2.35960332 6.70806496 27.02865392 -0.00297508 -0.02531022 0.02035759
H 0.25758103 0.67132429 25.24769987 0.01406957 -0.00034018 0.00895172
H -3.93262028 3.84091464 31.50621261 0.02363062 -0.00472650 -0.00666507
H -2.54316205 8.76429837 34.29690477 0.00380301 -0.00664198 0.01152169
H 1.48157816 5.56484775 27.93055289 0.00765192 -0.00956200 0.00306310
H 0.54448249 2.08357662 26.23542543 -0.00239998 0.01036429 -0.01771407
H -0.14328790 18.51595784 2.64031866 0.00507157 -0.01000324 0.01645628
H 2.70217952 13.90692783 3.53304511 -0.01952790 0.00119556 0.00377567
H 5.30371863 10.34525252 9.27648257 0.02040965 -0.00209755 -0.01333228
H 2.23644673 15.08959390 8.69831528 -0.00071477 -0.01052725 -0.01606787
H 5.41596843 17.70170394 0.79957315 -0.00216372 -0.00153379 -0.00439352
H 3.64980809 13.06449490 5.20268282 0.01874481 -0.02723928 -0.00037355
H -0.26567756 11.19891727 11.37116302 0.01001917 0.00261608 -0.01070696
H 1.22459453 15.78392398 6.72216146 -0.00120797 0.00678192 0.00388114
H 4.13414885 16.43930089 10.70818351 -0.00323313 -0.00300433 0.02703406
H 3.84852739 11.55373419 7.06219166 -0.00279835 0.02221304 0.00012126
H 1.00158844 12.29223066 1.14748084 0.01429337 0.01710079 -0.00751807
H 1.32165401 17.31156726 4.90998169 0.01120886 0.00732357 0.00832961
H -2.18488060 14.76239381 35.46322514 -0.00946799 0.01167736 -0.01544485
H -0.35571887 10.50339605 6.26208289 -0.00310739 -0.00658865 0.01333203
H 2.56045959 13.94229709 11.95729973 0.00652453 -0.01540056 0.00762568
H 5.33820188 18.57142451 5.96461858 0.01663656 0.01181548 0.00474730
H 2.73514469 16.45804738 1.61707219 0.01021575 0.00641380 0.00829688
H -0.33713451 12.07643062 4.45288879 0.01023635 0.01384630 0.01057117
H 2.51404778 12.19979926 10.16837229 -0.00015169 -0.01657874 0.00994264
H 5.41115164 16.77113943 7.58762106 -0.01863159 -0.00136059 -0.02169135
H 4.94797103 14.48745303 9.62033541 -0.01079123 -0.00531911 -0.01739944
H 2.82379877 9.65424682 7.98810564 -0.01506090 0.00575354 -0.00527923
H 0.10882567 14.31081841 2.12054271 -0.01340057 0.00837803 -0.01213361
H 2.28428602 19.17631268 3.83029978 -0.01018718 -0.00380098 0.03056859
H 6.88442984 13.37455769 7.26347012 -0.00934795 0.00102164 0.00209302
H 0.55388398 18.37867136 10.33145949 -0.00096306 0.00371632 0.02496097
H 19.24470632 16.43821006 3.22861964 0.03197868 -0.01982840 0.00879831
H 4.84698749 11.06146635 1.71696218 -0.01786343 -0.00051424 -0.01711032
H -0.29544114 12.21729499 8.48853808 -0.01866567 -0.00616264 -0.02358305
H 2.22132341 17.94231023 9.73570931 -0.01650651 0.00103949 -0.00014440
H 4.56358041 16.27468193 3.66404458 -0.01898087 0.00630430 0.01724333
H 3.13019185 10.93390506 1.89441970 0.01888360 -0.00023620 -0.00485275
H -0.31268474 13.56451521 7.36670248 0.00563553 0.01096268 0.00950760
H 0.67666426 17.03513372 9.19300719 -0.01972461 0.01856418 0.00353138
H 5.39740588 14.96082040 4.56620958 0.00293784 0.00592426 -0.01614765
H 3.87128361 12.12568669 2.85868613 -0.01261519 0.01723576 0.00562317
H -1.64987253 18.84220286 14.54071192 -0.01723087 -0.02109424 -0.02112441
H 1.38122314 13.82205979 15.12159478 -0.00031904 0.00738536 0.01198433
H 3.95056079 10.22338448 20.88444947 -0.00796571 -0.00436710 0.02837115
H 0.84878630 15.28084710 20.40621362 -0.02002270 0.00579096 0.00535007
H 4.15052244 17.72770551 12.71231317 0.02347231 0.00419692 -0.01354511
H 2.34766966 13.28547097 17.04808388 -0.00051556 -0.01952992 0.01651058
H -1.91237143 11.07664560 23.00903341 0.00645356 0.00671309 -0.01771189
H -0.14594708 15.91842733 18.49995717 0.02177456 0.01040118 -0.01073289
H 2.43679165 16.06837994 22.66181035 0.02148944 -0.00705835 -0.00154972
H 2.28882066 11.60870618 19.11612183 -0.01593819 0.01506534 -0.00818688
H -0.37803595 12.78737742 13.13534926 -0.00123053 -0.00395854 0.00383842
H -0.17161597 17.27862892 16.48579044 0.02027477 -0.00280971 -0.01096731
H 0.80851956 15.17609316 11.67900697 0.00311470 -0.00541010 -0.00317153
H -1.56573473 10.28598438 17.90668045 -0.01411849 -0.00025814 -0.01644536
H 1.08410620 13.73613005 23.83750259 0.01185495 0.00670825 -0.00301757
H 3.86517955 18.64035778 17.50555582 -0.00953962 0.00332801 0.01176243
H 1.00618297 16.59599140 13.59958464 -0.01795910 0.01425948 -0.01383593
H -1.41745584 11.78231787 15.81047212 -0.02497672 -0.00064884 -0.00070108
H 0.99986750 12.01527737 22.06121467 -0.00635576 0.00569004 -0.00071612
H 3.75739319 17.15131495 19.29980001 -0.00938045 0.00891494 -0.01070871
H 3.56477264 14.51262250 21.48344605 -0.00379081 0.00417191 0.00259432
H 1.33762551 9.73754691 20.09467504 -0.01106551 -0.02744217 0.00985516
H -1.34903155 14.54924988 14.20621556 -0.00077447 -0.01978384 0.00515484
H 0.84186151 19.13753516 15.34131544 0.02915161 -0.00175716 0.00175026
H 4.46871684 13.46713467 19.75910830 0.00555781 0.00469206 0.01003518
H 0.75473431 18.28169551 21.97130033 0.01616592 -0.00693245 -0.01032578
H -2.02617980 15.32738901 15.96961131 0.00037061 0.00279429 -0.00294033
H 1.85261484 10.39877051 13.57668589 0.00791018 -0.01646874 -0.00985270
H 17.91946591 14.15116087 19.07359859 0.00712952 0.00469843 -0.00088637
H -0.26863990 17.04491201 21.02403276 0.00462856 0.00640949 0.00995593
H 4.05693541 15.09507087 16.38601613 -0.00730024 -0.02964149 0.00364888
H 2.39552493 11.87416603 14.32903294 0.01640417 -0.01948699 -0.01141619
H -2.37625863 12.60316367 20.02013639 0.01654071 -0.00367886 0.01833048
H -1.08093890 18.11297985 22.25310144 -0.00912934 -0.00001919 0.00196406
H 4.14653873 16.61510261 15.35595633 -0.01000126 0.00945491 -0.01889672
H 3.61970313 10.72751908 13.58769994 0.00318918 -0.01869633 -0.01327667
H -3.09737385 18.62276117 26.14430636 -0.00714829 0.01182389 0.01781336
H -0.39922214 13.73039601 26.78623270 -0.01208900 -0.00126037 -0.01950500
H 2.33674042 10.09371773 32.85320631 -0.00936594 0.00223992 -0.02067220
H -0.62656373 15.10765576 32.18378159 -0.01172008 -0.00418504 0.02658713
H 2.35096760 17.74010018 24.36772705 -0.01512711 0.00013139 -0.00973616
H 0.78983783 13.02148892 28.92511398 -0.01518876 -0.00352962 -0.00223133
H -3.66313550 10.89456489 34.85597110 -0.00958886 -0.02330342 0.00544077
H -1.51572868 15.68255419 30.04125865 0.00319731 0.02185806 -0.01347470
H 0.93682417 16.33481759 34.28200486 0.01515323 -0.01684821 -0.01469542
H 0.75149424 11.48421942 30.71602685 0.01227307 0.00991300 -0.01062886
H -2.04483353 12.66358904 24.90386282 0.00075125 -0.02083281 0.00162291
H -1.68223094 17.57211541 28.37036716 0.00041144 0.00598169 0.02680208
H -0.25877209 15.14099269 23.35072163 -0.02732247 0.00968886 -0.00310752
H -3.17263674 10.15775862 29.72729001 -0.00886055 0.00022481 0.00034077
H -0.49108297 13.75890972 35.38513482 0.01825836 0.00218656 -0.01534652
H 2.29951126 18.92757637 29.65681378 0.01616880 0.00260710 -0.02435470
H -0.25701025 16.49629794 25.26539308 -0.00587773 0.00247716 0.00471810
H -3.03880740 11.76421973 27.67941124 0.00726201 -0.02194726 -0.01359231
H -0.74698476 11.96302404 33.88178043 0.00270839 -0.01006445 -0.00121741