2160
Time=87000.00000006 pbc="T T T" Lattice="20.65088884 0.00000000 0.00000000 0.00000000 29.03230131 0.00000000 -4.72340074 0.00000000 35.47494110" energy=-13801.36253428 virial="-76.95555311 -2.71397478 63.54594029 -2.71397478 -42.88986632 -21.55504771 63.54594029 -21.55504771 -11.27419660" stress="-0.00121931 -0.00016932 0.00304712 -0.00016932 0.00032488 -0.00109098 0.00304712 -0.00109098 0.00171829" Properties=species:S:1:pos:R:3:vel:R:3
O 0.64798063 8.31454192 2.35847425 0.00284355 -0.00142386 0.00624736
O 1.79066401 3.54800732 3.58781655 0.00801652 0.00725982 0.00336524
O 4.36151440 1.12892800 9.20095362 0.00169857 0.00332719 -0.00228000
O 3.43240084 5.87793225 8.38745942 0.00055997 0.00173346 0.00187425
O 1.35532313 4.75569117 9.50419737 -0.00270899 0.00173733 -0.00340918
O -0.28421186 9.77019536 8.05200952 -0.00208162 0.00563384 0.00024523
O 3.92272173 4.53410327 2.37498113 -0.00695633 0.00317020 0.00236761
O 5.38666450 28.87876627 3.78471842 0.00403138 0.00140584 -0.00606884
O -0.73757090 8.67578532 14.19786470 0.00124448 0.00143592 0.01177221
O 0.25657510 3.64734819 15.33755944 0.00098292 -0.00011427 -0.00440436
O 3.21046727 1.51358505 21.05252598 0.00160073 0.00091234 0.00043026
O 1.83350925 6.36233104 20.12432943 0.00149523 0.00194729 -0.00394344
O -0.18172657 4.97239693 21.09164493 -0.00150158 0.00362668 -0.00408033
O -1.87007097 9.78182155 19.76123291 -0.00113401 -0.00737510 0.00233516
O 2.47773694 4.78032946 14.14564632 -0.00369333 0.00218229 0.00206026
O 4.07920945 28.96639379 15.37521726 0.00827073 -0.00085997 -0.00143288
O -2.42469930 8.52511437 26.09655679 0.00549410 -0.00625062 -0.00469964
O -1.17064009 4.11693622 27.28158695 -0.00513628 0.00435061 -0.00281611
O 1.20006510 0.81483988 32.95967828 0.00481100 -0.00268644 0.00118465
O 0.12003256 5.63050831 31.48106271 -0.00122988 -0.00001788 -0.00026007
O -1.79622449 5.07478085 32.80774911 -0.00052488 -0.00685008 0.00262924
O -3.60466519 9.82780534 31.83961833 -0.00214353 -0.00122102 -0.00337091
O 1.09844497 5.14550066 25.98019233 -0.00126221 0.00200155 0.00132836
O 2.45322156 0.15018874 27.14288080 0.00180003 -0.00192495 -0.00155049
O 0.83171634 18.18789165 2.45849154 0.00139390 -0.00203326 -0.00246370
O 1.89960737 13.61890888 3.51890434 0.00347983 0.00209720 0.00119117
O 4.79244271 10.68678614 9.14205210 0.00369139 0.00199961 -0.00422211
O 3.55724962 15.44565894 8.43905323 -0.00352102 0.00275697 -0.00041954
O 1.24178440 14.49810059 9.38370179 0.00133211 -0.00227815 -0.00063898
O -0.03389690 19.41846259 8.47078927 -0.00361376 0.00358796 -0.00101445
O 4.01557116 14.20017369 2.23882438 -0.00741710 0.00769640 -0.00150571
O 5.55775564 9.36270491 3.41323192 0.00327087 -0.00051942 -0.00221937
O -0.83870645 17.85507560 14.41392151 -0.00049283 -0.00325133 0.00355822
O 0.49620222 13.55088108 15.34184114 -0.00109910 0.00014423 0.00184998
O 2.97262269 10.83275279 21.27351408 -0.00193646 0.00330117 0.00613438
O 1.64328862 15.69882549 19.98031135 -0.00336942 0.00564151 0.00211191
O -0.31289882 14.66635327 21.42903274 -0.00121750 0.00256348 0.00068637
O -2.17541983 19.78204077 19.98064239 0.00082133 0.00302261 -0.00081229
O 2.27602340 14.39843352 13.89042638 0.00402880 0.00019243 -0.00761251
O 4.18614540 9.71973221 15.37641253 0.00759909 0.00096245 -0.00079792
O -2.60495698 18.17390018 26.05561973 0.00361694 0.00194876 0.00715665
O -1.21899474 13.37866422 27.07059204 0.00508293 0.00173891 0.00219460
O 1.47338250 10.54316308 33.07606229 -0.00058253 -0.00254048 0.00084977
O 0.10303564 15.65163019 32.19591807 0.00293215 -0.00330497 0.00090791
O -1.78128613 14.30796392 33.39563412 0.00305580 0.00429240 -0.00518013
O -3.57522589 19.26854825 31.82073117 -0.00230220 0.00520146 -0.00175487
O 0.77828023 14.54761810 25.95957091 0.00130797 0.00439669 -0.00566196
O 2.22123057 9.53473955 27.28496065 -0.00009041 -0.00289083 -0.00044343
O 0.74997491 27.73273845 2.38897014 -0.00177899 0.01310680 -0.00062622
O 1.96044876 23.25125666 3.82734048 -0.00164115 0.00266996 -0.00198944
O 4.73799622 20.66124358 9.54510981 0.00485734 -0.01017453 0.00086161
O 3.56065038 25.62212050 8.76403228 0.00427306 0.00276697 0.00173299
O 1.43849232 24.27785633 9.74369580 -0.00131668 0.00669161 -0.00197644
O -0.36243558 0.07091983 8.27854315 -0.00087377 -0.00398341 0.00047882
O 4.06136374 23.85277168 2.47286980 -0.00009837 0.00474257 -0.00068591
O 5.73821320 19.01351708 3.57578822 0.00160279 0.00615510 -0.00572459
O -0.89252389 27.88058900 14.33719022 0.00235924 -0.00007214 0.00378035
O 0.10328734 23.53027208 15.52815626 0.00477532 0.00047715 0.00483463
O 2.98283477 20.55923515 21.13858552 0.00154176 0.00499678 -0.00474664
O 2.03357084 25.37275904 20.08073858 -0.00002891 -0.00425165 -0.00024172
O -0.12620503 24.51978358 21.18372662 0.00075272 -0.00353453 0.00356357
O -1.92029184 0.32969207 20.02524153 -0.00345642 0.00128727 0.00549719
O 2.47794872 24.19651278 14.15284040 -0.00230859 0.00174002 -0.00035161
O 3.90515836 19.23491823 15.16582333 -0.00159479 0.01051969 0.00241663
O -2.26848618 27.92999392 26.02576827 -0.00220597 -0.00587337 -0.00075964
O -1.28096861 23.21653640 27.40461053 -0.00105892 -0.00052621 0.00155885
O 1.27684437 20.32118144 33.37138353 -0.00197074 0.00642888 0.00302967
O 0.52236726 25.36493317 31.86514691 -0.00137867 -0.00157332 -0.00008322
O -1.76144418 24.23554438 32.98635605 0.00361280 -0.00048663 -0.00259828
O -3.20387562 0.14162775 31.91583089 -0.00035962 0.00978100 0.00359119
O 0.87420345 23.96754902 25.91030924 -0.00475543 0.00437746 0.00428976
O 2.16993653 19.13131824 27.19089425 0.00081569 -0.00043270 -0.00175501
O 7.56290147 8.16982210 2.26215868 0.00283173 -0.00199905 0.00557105
O 8.69958184 3.59531976 3.32508547 -0.00337602 0.00308852 -0.00605832
O 11.20700099 1.08469715 9.59825755 0.00418712 0.00073505 -0.00295474
O 10.37222403 5.71138357 8.28212140 -0.00860639 0.00827427 -0.00180241
O 8.25389306 4.94987848 9.80692704 -0.00501406 -0.00146808 -0.00133679
O 6.63055189 9.40916723 8.03404962 0.00540364 -0.00266731 0.00232162
O 10.96539754 4.72491108 2.16554597 0.00084121 0.00655625 -0.00095168
O 12.20731112 0.00597261 3.71838723 0.00489238 -0.00217079 -0.00184618
O 6.22665643 8.90971345 14.11112535 0.00410765 0.00223038 0.00149667
O 6.88374101 3.79519494 15.42452006 -0.00586839 0.00107442 -0.00089029
O 9.97434877 1.26134528 21.39537713 -0.00226569 0.00025318 0.00374603
O 8.81818611 5.90795437 20.44097462 0.00257134 -0.00972821 -0.00498960
O 6.86918543 4.99946772 21.55842790 0.00109141 -0.00252794 0.00180321
O 5.28638696 10.01995457 20.25936898 -0.00172623 0.00196226 -0.00450573
O 9.29725868 4.83110452 14.21124765 -0.00292538 0.00667677 -0.00164055
O 10.97509738 0.41565567 15.71039938 -0.00163490 0.00616454 0.00687436
O 4.38477977 8.61882601 26.09423879 -0.00260867 0.00086291 -0.00247068
O 5.70636323 3.83762840 27.47394224 -0.00027805 -0.00829936 -0.00134497
O 8.54747902 1.08839719 33.09084618 0.00184652 -0.00523834 0.00161617
O 7.10277215 5.77426789 31.99215247 0.00973923 -0.00228341 -0.00325139
O 4.87785075 4.53538323 32.82790585 0.00159840 0.00561504 -0.00507625
O 3.48849874 9.51566182 31.66873752 -0.00019289 -0.00163411 -0.00328705
O 7.86253523 4.51888759 26.09034787 -0.00017793 -0.00206692 0.00296951
O 9.35187366 0.18849442 27.34758746 -0.00227605 -0.00199498 -0.00472831
O 7.91380452 17.76567238 2.61440112 -0.00410337 0.00115869 -0.00365609
O 8.63608083 13.54226568 3.87878234 0.00163982 0.00097434 -0.00492992
O 11.41623305 10.52281317 9.46731874 -0.00548660 0.00102730 -0.00016892
O 10.28094743 15.32399702 7.94947254 -0.00144196 0.00338865 0.00190378
O 8.39906496 14.42317634 9.46187653 -0.00456986 -0.00330786 -0.00519062
O 6.89771774 19.58962004 8.44455943 0.00051057 -0.00026240 0.00144935
O 10.83526971 13.94868102 2.52350630 -0.00027056 -0.00169288 -0.00181725
O 12.33697142 9.51197748 3.71583460 0.00008329 0.00065981 -0.00071430
O 5.97238247 18.05037559 14.35047911 0.00095792 0.00418392 0.00587711
O 7.16270584 13.36996385 15.20491467 0.00152303 0.00748655 0.00154520
O 9.97895875 10.84137747 20.92167921 -0.00198601 0.00259776 -0.00492773
O 8.51908667 15.58925811 19.67494149 -0.00059993 -0.00335252 0.00646600
O 6.57618678 14.73316532 21.03455111 -0.00137549 -0.00507233 -0.00214114
O 5.07637814 19.50300444 19.87370712 0.00494262 -0.00361326 0.00395903
O 9.31533494 14.76017209 13.90720734 0.00178451 -0.00081145 -0.00203704
O 10.68192211 9.45900578 15.54101676 -0.00143794 0.00647966 -0.00579676
O 4.26487721 18.29118902 25.87068008 0.00483942 0.00273393 -0.00388520
O 5.55319711 13.34687415 27.10571442 -0.00242896 0.00313707 0.00727775
O 8.07392837 10.37869593 33.12892256 0.00068574 0.00054059 0.00189609
O 7.07392766 15.83263414 32.12043863 0.00080150 -0.00760216 -0.00075255
O 5.12934736 14.41915929 33.10591487 0.00254809 0.00558717 -0.00297635
O 3.41519690 19.47811222 31.98941693 0.00693447 -0.00269099 -0.00355915
O 7.54768916 14.43624056 25.58468416 0.00081034 0.00023888 0.00502301
O 9.08663945 9.54771820 27.25937311 -0.00095185 -0.00228868 0.00098864
O 7.73093273 27.88380887 2.36740726 0.00468172 -0.00139988 -0.00156716
O 8.89399703 23.11449939 3.69472153 -0.00111258 -0.00226264 0.00077846
O 11.59978593 20.47649941 9.82265056 0.00380831 0.00022427 -0.00021472
O 10.26285210 25.61372553 8.75778868 0.00110104 -0.00081667 -0.00002297
O 8.30128621 24.36834175 9.73618155 0.00151452 0.00589512 -0.00351820
O 6.60472957 0.11728435 8.18084360 0.00400015 0.00551993 -0.00239473
O 10.97794012 24.07699867 2.38927874 -0.00589609 0.00229004 -0.00234831
O 12.66509531 19.40527604 3.58952977 -0.00450215 0.00239845 -0.00539383
O 6.28152626 28.11829142 14.37868245 -0.00071891 -0.00256518 -0.00642555
O 7.25987081 23.13995055 15.25586027 -0.00234732 0.00247462 0.00182478
O 9.83377591 20.50862507 20.97147196 0.00431346 -0.00443041 -0.00126015
O 8.77816026 25.06230678 19.98847725 -0.00302293 0.00476732 -0.00646096
O 6.59661842 24.33867031 21.14857437 -0.00308087 -0.00266742 0.00092578
O 5.34177692 0.15531592 20.36202494 0.00034268 -0.00151399 0.00314476
O 9.38927759 24.26550894 14.38993982 -0.00308004 -0.00088451 -0.00301132
O 10.80962599 19.60949729 15.22463765 0.00616127 -0.00356919 -0.00208260
O 4.70879045 28.31942181 25.89400925 -0.00552173 -0.00341358 -0.00503915
O 5.56795061 23.08301122 27.14170694 0.00239124 -0.00560936 -0.00172502
O 8.15842479 20.28995504 33.05999784 0.00020676 -0.00197822 0.00172567
O 7.19013735 25.26298879 32.16449980 -0.00615714 -0.00084366 0.00083965
O 5.04199607 24.09772340 33.18139908 -0.00292618 0.00220494 -0.00101161
O 3.56271917 29.00920978 31.90406581 0.00039235 -0.00197418 -0.00309819
O 7.82439165 24.10893224 25.83156077 -0.00025347 -0.00740819 -0.00236555
O 9.14514744 19.20055440 26.95949973 -0.00422806 -0.00123467 -0.00262021
O 14.32659368 8.35011476 2.45200395 0.00294638 0.00079842 -0.00003639
O 15.89294649 3.80301158 3.76651775 0.00438801 0.00205696 0.00215720
O 18.28053346 0.81711691 9.75798082 -0.00139483 -0.00435049 0.00391338
O 17.04875606 6.34362769 8.59380537 0.00586731 0.00210417 0.00503215
O 15.15877798 4.95677263 9.65233299 -0.00121637 0.00317869 -0.00040119
O 13.40794438 9.76835714 8.04720774 -0.00050076 -0.00419851 -0.00220823
O 17.73450542 5.01801289 2.26269823 0.00381289 0.00175246 -0.00299854
O 19.19449847 28.90074808 3.28441167 -0.00225939 0.00109269 -0.00055422
O 12.86626408 8.67303484 14.13224413 0.00656448 0.00139793 -0.00006664
O 14.23841726 3.57830710 15.09400556 0.00054739 0.00143384 -0.00150133
O 16.58459343 1.44312786 21.20083423 -0.00000290 0.00585388 -0.00273097
O 15.48103326 6.17858465 20.24929357 0.00036109 -0.00489617 -0.00313033
O 13.58415648 5.09091397 21.52016137 0.00699522 0.00325841 -0.00277772
O 12.16766646 9.62652871 20.03444481 -0.00479954 0.00203490 -0.00106703
O 16.06888100 4.81155256 14.03539642 0.00218267 0.00111065 0.00582419
O 17.87665471 0.00927946 15.68256816 0.00022800 0.00129074 -0.00696211
O 11.37305529 8.96970172 26.31607748 -0.00364888 0.00079044 -0.00221384
O 12.74858637 3.49970203 26.98283097 0.00330875 0.00104876 -0.00217552
O 15.16332512 1.16370944 32.89474172 -0.00169796 -0.00078868 -0.00382364
O 13.87507946 6.03237847 31.79411262 0.00002660 0.00471973 0.00217356
O 11.84994992 5.24852350 33.05254144 0.00203861 -0.00542614 0.00253381
O 10.26334006 9.57455458 31.56539632 0.00412687 0.00082570 -0.00033695
O 14.85763404 5.04452186 26.17564358 -0.00025177 0.00033723 -0.00405357
O 16.14385760 28.76442078 26.99742658 0.00523984 -0.00631943 0.00173373
O 14.61303498 18.27688984 2.20586727 0.00171132 0.00295003 0.00361174
O 15.62678672 13.44831146 3.42894291 -0.00449938 -0.00660838 -0.00247664
O 18.22327313 10.84259553 9.03615363 -0.00079037 0.00727055 0.00083300
O 17.11132228 15.76890771 8.39550582 -0.00208889 -0.00310239 0.00513631
O 14.95932364 14.77796654 9.38589583 0.00613896 0.00116734 0.00301202
O 13.70017502 19.63867380 8.55036824 -0.00897377 0.00550364 -0.00797083
O 17.75295013 14.39720737 2.27354674 -0.00043280 -0.00259058 0.00011607
O 19.40970557 9.48412080 3.65648530 -0.00020257 -0.00217736 -0.00300307
O 12.82239373 18.00896532 14.33726031 0.00233318 -0.00014818 0.00494189
O 14.10824292 13.50933894 15.43258885 0.00227011 -0.00192906 0.00227041
O 16.85640605 10.53655054 21.49404663 -0.00835170 0.00451064 -0.00158925
O 15.46715094 15.71337502 20.30517958 -0.00372707 0.00554295 0.00153406
O 13.33674419 14.33260333 21.24051658 -0.00180212 -0.00206844 0.00201159
O 11.73855871 19.28086244 20.01146546 0.00188534 0.00180589 -0.00812514
O 16.28539165 14.26604109 14.09605973 -0.00306749 0.00103702 0.00171797
O 17.65181453 9.46044403 15.36357644 -0.00435964 -0.00161861 0.00055305
O 11.45903599 17.96531872 26.12753455 -0.00085325 0.00032799 -0.00439920
O 12.35891909 13.55933981 27.05119186 0.00227946 0.00309934 0.00727246
O 15.08855890 10.97471225 32.88486318 0.00245835 -0.00581872 0.00095636
O 13.96473501 15.62522731 31.90840504 -0.00358032 0.00154758 0.00149285
O 11.82348591 14.49767078 32.80418866 0.00042587 -0.00858879 0.00181185
O 10.30773293 19.70889118 31.80495273 0.00190710 -0.00151333 0.00085160
O 14.60221194 14.23443132 25.94949521 0.00253283 -0.00189903 -0.00107866
O 16.22910547 9.82939435 27.43337136 0.00570148 0.00118682 0.00056764
O 14.32122210 28.08731591 2.46968370 0.00677626 -0.00356108 0.00658513
O 15.79542686 23.07651831 3.69517699 0.00210723 -0.00138837 -0.00369434
O 18.56189134 20.87724046 9.20996701 0.00062742 0.00282811 0.00626329
O 16.97105110 25.19793213 8.18108802 -0.00370775 0.00362728 0.00619454
O 15.14970753 24.31621184 9.78456768 0.00018975 -0.00021230 -0.00260366
O 13.33588351 0.12587410 8.31052738 -0.00667921 0.00263578 -0.00479347
O 17.74626519 24.10497056 2.11827198 0.00087914 -0.00807861 -0.00304142
O 19.35899607 19.36447669 3.61091404 0.00189860 -0.00016427 0.00566240
O 12.89697154 28.06017327 14.42094084 0.00424458 -0.00294932 0.00240588
O 14.22623884 22.89380807 15.31407440 -0.00309310 -0.00588262 0.00186770
O 16.64456096 20.14138358 21.61681346 0.00521284 -0.00641467 0.00143720
O 15.59149381 25.23042952 20.41534569 0.00368764 0.00259145 0.00057491
O 13.38058480 24.13208929 21.55224000 0.00216442 -0.00047490 0.00214551
O 11.99153671 0.21825046 20.03785675 -0.00279320 -0.00246434 -0.00281185
O 16.17400522 24.01505661 14.20671781 -0.00509190 0.00323857 -0.00666431
O 17.68651106 18.91789345 15.45359070 0.00271421 -0.00106855 -0.00037456
O 11.46664225 28.20345971 26.12861885 -0.00019132 0.00327008 -0.00408976
O 12.58857688 23.04599045 26.92487536 -0.00448878 -0.00043642 0.00007868
O 14.98029554 20.48233115 32.89529972 -0.00128729 -0.00350427 0.00042551
O 14.10269933 25.62098652 31.99356772 -0.00423932 -0.00238974 -0.00022703
O 11.87592404 24.63539012 33.14664770 0.00019307 0.00226252 0.00408702
O 10.27881838 28.85433537 31.67179183 0.00340057 -0.00645733 -0.00133427
O 14.66610058 24.02530015 25.88799541 -0.00478773 0.00366160 -0.00401787
O 16.05600201 19.47253601 27.17347198 -0.00756660 0.00096593 0.00230623
H -0.28099323 8.63176458 2.62427027 -0.01335773 -0.00095532 0.00174333
H 2.63868946 4.04013170 3.30612979 0.00074314 -0.00436453 -0.00043936
H 5.21722502 0.59695365 8.99016540 -0.02409090 0.01670632 0.00555617
H 2.57541801 5.48686783 8.69067179 0.01661748 0.00238621 -0.00310374
H 5.58217445 7.86441041 0.55947258 0.01385638 -0.00308249 0.01514026
H 3.93327499 3.12807114 5.30972147 0.00740620 -0.01160940 0.01603637
H -0.64431695 1.11984258 11.62324394 -0.02521209 -0.00855694 0.02026031
H 1.47757851 6.06190514 6.59941274 -0.00007843 0.00797737 0.00852154
H 4.06671987 6.75556107 10.62604970 0.00605183 -0.00431826 -0.00215993
H 3.79684434 1.78108960 7.19499350 0.01636922 0.00904433 0.00152706
H 1.17311494 2.75734155 1.15522784 0.01471328 0.00368654 -0.00099162
H 1.53315193 7.68290868 4.60873354 -0.00346911 0.02894748 -0.01197062
H -1.89162106 5.65624831 35.05113715 0.00822108 0.03597489 0.01195031
H -0.10120342 0.33808738 6.03425027 -0.03089075 0.03357194 -0.00173657
H 2.57934374 4.23026458 11.95834629 -0.01110942 0.01487328 0.00044224
H 5.50783418 8.80927475 5.53550225 -0.01724370 0.00373060 0.02737234
H 2.73059867 7.23274272 1.33960009 0.00061458 0.00947252 0.02412318
H -0.23839283 2.08880627 4.26771884 -0.00228316 -0.01489605 0.00805586
H 2.51290773 2.76484961 9.87841596 -0.00139932 -0.01430295 0.00766033
H 5.40845327 7.46573447 7.63038145 -0.00422134 -0.00061079 0.01031825
H 5.05622619 4.82708481 9.83170821 0.01120398 0.01834274 -0.01442662
H 2.72054416 28.97897980 8.34110991 0.00715247 -0.00410119 0.01463881
H 0.24180870 4.71098844 2.13033654 0.00549536 -0.00062002 -0.00253532
H 2.38655796 9.50903380 3.65644813 0.01073952 0.00786658 -0.00219418
H 5.89611376 3.43877166 8.20329291 -0.00536769 -0.00726367 -0.01578529
H 0.25263816 8.31681630 9.96031208 -0.02779546 -0.01063883 -0.01088819
H 18.73715193 5.64355722 4.64452460 -0.02210040 0.00964270 -0.01936124
H 2.94767508 1.63389453 2.63679424 0.03666521 0.01449103 0.01097032
H -0.40446403 2.93896242 8.26436757 0.00624730 -0.01053320 -0.01300162
H 1.60408046 9.22749027 10.42555024 -0.00317700 -0.01122361 -0.00930621
H 5.18334532 6.77767325 3.33596159 0.00255827 0.01195416 -0.00618219
H 4.49620518 1.88848092 2.26256357 0.01280304 -0.00039220 -0.00209486
H 0.76758173 3.92437354 7.26634914 -0.02801659 -0.01360734 0.00146221
H 1.87198979 7.84650874 9.19458375 0.00763618 -0.01314989 0.02563557
H 4.94555231 5.53004174 4.58408345 -0.00487152 -0.00687054 0.00898751
H 3.81781450 0.50503324 1.38752234 0.00994812 0.01931339 -0.01673775
H -1.60200977 8.97244799 14.58141633 -0.01336979 -0.01795791 0.00601012
H 1.19483426 3.82865685 14.89662245 0.02349373 -0.00752257 0.01470298
H 3.94140412 0.83558058 20.93220370 -0.01116685 -0.00662395 -0.00233255
H 0.98284461 5.87240456 20.26049449 0.00669523 -0.01098828 -0.01496223
H 4.10454585 8.50255244 12.65293687 -0.03495958 -0.01804613 -0.00263978
H 2.26410354 3.25406452 16.74666144 -0.00573274 -0.03402139 0.01610231
H -2.07451361 1.30230320 22.90282654 -0.01689586 0.00920894 -0.03254005
H 0.08129927 6.38731320 18.14292101 0.00758046 -0.00585126 -0.00851661
H 2.71696823 6.86640194 22.23468596 -0.00701025 0.01537090 -0.00466168
H 2.19034614 1.87874173 19.06804856 0.00643687 -0.00630734 0.00309058
H -0.52550709 3.03296843 13.32858686 0.02206381 0.02621698 0.02121507
H 0.19654716 7.65265002 16.15766882 -0.00523157 0.00391083 -0.00879627
H 1.22001072 5.52337601 11.66172811 -0.01401039 0.01471573 -0.01382430
H -1.57516302 0.44377181 17.94258313 0.01265582 -0.01080811 0.02394410
H 1.32817177 4.62684574 23.86709674 -0.00999286 -0.02172253 0.00898933
H 3.94080345 9.22402104 17.43345344 0.01049580 0.00680375 -0.01329144
H 1.07721985 6.92187940 13.71988455 -0.00990984 0.00174707 0.00579682
H -1.67682923 1.97588692 15.79137912 -0.00683472 -0.00460424 0.00462587
H 1.19410294 3.01641493 21.90833790 -0.02409664 0.01767334 0.00395189
H 3.85939017 7.80915787 19.40180679 0.01037915 0.00176181 0.00214078
H 3.64523934 5.17775364 21.26717009 -0.00184999 -0.01526801 -0.02182996
H 1.19701538 0.25461005 20.12083968 0.02144296 0.00664181 0.00495023
H -1.42045604 4.96462677 13.92882039 0.00863383 -0.01896870 -0.02607254
H 0.97334477 9.64998089 15.22449943 0.01124794 0.00912771 0.02008853
H 5.04967931 3.11169594 20.09478895 0.02070417 -0.01406288 -0.01033777
H 0.15487881 8.89600389 22.08703972 -0.00038608 0.02153775 -0.00095037
H 17.80131447 7.08650410 14.94617169 -0.01829815 -0.00383095 -0.00638140
H 3.30202361 0.84972345 13.09675078 0.00057550 0.01217947 0.02996371
H 17.95816515 4.60937642 19.26746832 0.01764190 -0.00189910 0.00568456
H -0.15229632 7.52813199 21.04019957 0.00536760 -0.00876431 0.02717827
H 3.42277979 5.91021384 16.29504541 -0.03091524 0.01864123 0.01846320
H 1.60689290 0.84561244 13.52472312 -0.00221566 -0.01103752 0.00612616
H -2.30883179 3.01403533 19.93781568 0.00748207 -0.00887295 0.02353055
H -1.49547592 8.39785921 21.80593674 0.00498449 -0.00523514 0.03742650
H 5.06791892 5.40154861 15.97496601 0.00149709 -0.00450911 -0.00147232
H 2.70007077 2.08218572 14.18870566 -0.01518904 -0.03038489 0.00037425
H -3.30336448 8.74968083 26.36768412 0.02780411 0.00316809 0.00810381
H -0.29988703 4.42750440 26.94152955 -0.01260394 0.02524908 -0.00747038
H 2.10171839 0.46922938 32.65856099 -0.00466152 -0.01169312 0.01112244
H -0.75771888 5.39159590 31.95064439 0.02251428 -0.00399040 0.02655817
H 2.34237835 8.21801941 24.33528387 -0.01150206 0.00359716 -0.02148831
H 0.82534525 3.58987214 28.75919402 0.02378579 -0.01179618 -0.00977147
H -3.63914269 1.13208017 34.88080373 0.01225587 0.03190788 0.01305782
H -1.84334244 6.30560009 29.93605925 0.02021137 0.00628185 -0.01748523
H 0.76002018 6.16493897 34.20941477 -0.00717517 -0.01251189 -0.00329936
H 0.90104095 1.78442639 30.51764001 0.02177670 0.00197387 0.00947787
H -1.89070695 2.65086031 24.94468573 0.00315587 -0.00481473 0.01305581
H -1.88334208 8.17284500 28.32497622 0.00090554 0.01917309 -0.01756535
H -0.21538189 5.58940567 23.39954533 0.01184372 -0.00387723 0.01598718
H -3.28021097 0.91296065 29.79532439 0.00679625 -0.03502533 -0.01154602
H 3.83686804 3.67881146 0.28475799 -0.01368799 -0.01786124 -0.00394019
H 2.06880479 9.08113960 29.44384567 -0.01443260 -0.02788906 0.01975207
H -0.32406179 7.22973564 25.20719495 0.00063255 -0.00113121 -0.01685541
H -3.20142237 2.61054275 27.93834289 0.02358930 0.01100457 -0.03309610
H -0.77698518 2.42594988 33.62456447 0.00049141 0.00171274 -0.00839496
H 2.01703198 7.39030229 31.26982540 0.00466198 -0.00333758 -0.00704416
H 1.70419843 4.61093420 33.14960975 -0.02970826 0.01196829 0.00472665
H -0.07074240 0.13802179 31.66865273 0.01034278 0.01704478 0.00469341
H -2.59628986 4.71220641 26.07390040 0.01616605 -0.04306482 0.01033082
H -0.80990035 9.91963496 27.25279347 0.00899521 0.02324996 0.02541731
H 2.88161442 4.06327574 30.67213274 0.00386373 0.00317857 0.00641113
H -2.10850244 7.41229404 32.92371508 -0.01734356 -0.01241648 -0.00726225
H 16.03626439 7.21688752 27.40910065 0.00308128 -0.01960484 0.01562101
H 1.79295288 1.64549533 25.39220900 0.01005440 -0.01410474 -0.01001645
H -3.32244848 2.80936013 31.66831049 0.00225691 0.00765848 -0.01686284
H -2.98182200 8.56219659 33.99991403 0.00940703 -0.02005377 -0.00853698
H 2.47138676 5.45088067 28.35312895 -0.00014602 -0.01264565 -0.02980112
H 0.67507290 0.36189026 24.94434908 0.00685863 0.01524515 -0.03312419
H -2.53051698 4.09452121 30.73732904 -0.00607338 -0.00574947 0.02589495
H -1.24541384 8.72574165 33.77340702 -0.02819475 -0.00968865 -0.01670336
H 3.68951341 6.51571765 27.57008186 0.03225495 0.00221725 0.02572183
H -0.01707534 1.70725319 25.83696519 0.03458204 -0.01539514 -0.00724432
H -0.09461303 18.46285048 2.73914204 0.01494904 0.00513392 0.02901295
H 2.77188759 13.78073930 3.08368089 -0.01037455 0.01149170 -0.00380608
H 5.52515110 10.13719512 8.81000384 -0.00511759 -0.01724933 -0.01858805
H 2.71561254 14.90529267 8.52137869 0.00453830 -0.00426319 0.00441380
H 5.81371717 17.52555768 0.98416391 -0.02184106 -0.01505527 0.00070429
H 4.08631402 12.90613423 4.97989206 -0.00427004 -0.02623777 0.02129111
H -0.49371357 10.89739423 10.79986149 -0.03280929 -0.00541287 0.00398861
H 1.55541807 15.96036995 6.76685436 -0.00292197 -0.00696908 -0.00482487
H 4.28256206 16.31497527 10.46594112 0.00370720 0.01144615 -0.01327453
H 3.98234187 11.22817815 6.78137517 -0.02623120 -0.00939450 -0.01987896
H 1.09166012 12.30259830 1.23831139 -0.01929054 -0.01600954 -0.01408479
H 1.47115766 17.49320165 4.99602349 0.01957413 0.00275995 0.00967149
H 2.75988929 14.82579349 0.12284879 -0.00087506 0.01176918 -0.00065672
H -0.21457451 10.47139091 6.02633053 0.00594919 -0.00736218 0.00499115
H 2.47572251 13.58573048 11.57724022 0.02738205 -0.00583256 -0.01646684
H 5.66081968 18.49188635 5.78590506 -0.00472130 -0.03273474 0.02080172
H 2.86872940 16.51685804 1.87137673 0.01928816 0.00401743 -0.03255569
H -0.20698919 12.22077331 4.16573566 0.01545635 0.01311772 -0.02296655
H 2.69157711 12.16312713 9.71768141 -0.00087222 -0.00639188 0.02178032
H 5.60047737 16.77183568 7.56362877 0.00507707 -0.02146044 0.01062047
H 5.22090801 14.80745848 9.45218629 0.00886787 0.00515445 -0.00786057
H 2.89536545 9.57569042 7.88912127 0.00905282 -0.01843866 -0.00535848
H 0.29167302 14.18405150 2.37406042 0.00359517 -0.00497175 -0.00439602
H 2.58159002 19.14087650 3.87396881 -0.01960500 0.02567234 -0.01294192
H 5.84897391 13.55337352 7.61757007 0.01100377 -0.02306806 -0.00323826
H 2.24874149 18.20706919 10.36543950 0.00385885 0.01264941 0.00197825
H -0.32708102 15.84359403 3.75171973 0.00410485 -0.02867478 -0.02791858
H 2.88898666 10.34248030 1.81365309 0.00307754 0.01077049 -0.00964882
H -0.72531207 12.39582762 8.28815015 0.00345694 0.01971478 -0.00200957
H 1.48819161 16.91245318 9.35212581 0.01388931 -0.00584699 -0.02075547
H 4.62562223 15.74769256 4.11621090 0.00798186 0.00125311 -0.00390528
H 4.17079422 11.55684110 2.06658074 -0.00288290 0.02476253 -0.01576983
H 0.75659123 13.11788243 7.52381785 -0.00468960 0.00731447 0.01502307
H 0.45352019 17.96989976 10.40651804 0.02944573 -0.00617744 -0.01157066
H 6.13015754 14.91184077 4.32949722 0.01188324 -0.00305306 0.01566603
H 4.54144895 10.02856726 1.08684074 -0.01432385 0.01613196 -0.00365069
H -1.69677205 18.28876438 14.72431267 -0.01803571 0.00842773 -0.02436645
H 1.38065161 13.55464593 14.99298377 -0.01637282 -0.00985835 -0.01450693
H 3.84470847 10.27839379 21.06341599 -0.00259737 0.00655827 0.00026574
H 0.69473906 15.51710547 20.31380301 -0.01300546 -0.02054777 -0.00596302
H 4.12143952 17.82073843 12.57885839 -0.00488726 0.00960968 0.02280089
H 2.58664743 12.82527322 16.78109676 0.03090396 0.00763613 -0.00748464
H -1.84177754 11.04183028 23.08600893 0.00310450 0.00275619 -0.00656364
H -0.49164043 16.56619177 18.66662355 0.01015963 0.00199052 0.01974131
H 2.32070587 16.34244317 22.37477503 0.01299221 0.01350583 -0.01642355
H 2.26740928 11.51164415 19.01612003 -0.01904952 0.00574352 -0.00515862
H -0.29833514 12.38607358 12.79539182 -0.00012887 0.02605948 0.03215442
H -0.36669980 18.06505745 16.69550428 -0.01238227 -0.00826271 -0.01760523
H 1.18374861 15.07157628 11.55805049 0.00197870 0.00943484 0.00538422
H -1.69107998 10.37389526 17.57317587 0.01498853 0.00073548 -0.03088312
H 0.82606643 13.91115724 23.89240876 0.00791380 0.00289449 0.00274003
H 3.86927241 18.70068968 17.28612145 -0.01387494 0.01774249 -0.01191781
H 1.26055560 16.61346645 13.37596879 0.00611352 0.01274162 0.00395150
H -1.45309100 11.96227957 15.85305004 0.00252613 -0.01424341 0.00270956
H 1.03632116 12.34521729 21.94210377 -0.00684020 -0.02621259 0.00497703
H 3.81013251 16.92073541 19.00438982 0.01330805 0.01426209 0.00441708
H 3.49729704 14.26354510 21.60993386 0.00269647 -0.02093008 0.01211813
H 1.36759233 9.98024523 19.86423202 -0.04658311 -0.02243593 0.01474170
H -1.19424775 14.02018176 13.99321119 0.01958314 -0.00964224 -0.00387226
H 0.84180008 19.73447295 15.42096269 0.00396633 0.00392997 -0.00040596
H 5.51302444 12.27949015 20.45481181 0.00491403 0.01610796 -0.00409398
H 0.16390308 18.84389435 21.94662213 0.00640651 0.01200220 -0.01939067
H 17.21822041 16.15968993 15.69684154 0.00269645 0.02530690 0.00819125
H 3.80058879 10.72642157 13.26091880 -0.00571662 -0.01426821 -0.01378960
H -2.02044970 12.75922739 19.86124579 0.01500307 0.01009418 -0.00509273
H -0.68684861 17.52145809 21.23001174 0.00192483 0.01487720 -0.01776841
H 3.62020387 14.96476205 16.20226269 0.01434055 -0.01294969 0.00324195
H 2.00996896 10.37459786 13.04423449 -0.02872472 -0.00157951 -0.03186670
H -0.70089440 13.68730885 19.14307898 -0.01543179 0.02524617 -0.01252980
H -1.53538404 18.62464006 22.09977548 0.00056957 -0.00221903 0.00658827
H 4.98700471 15.66034741 15.35171088 -0.00265787 0.00534678 -0.01065427
H 2.49786740 11.77113604 13.83370452 0.00650633 -0.02258965 0.01933875
H -3.42373793 18.53996275 26.43050584 0.02647102 -0.00026919 -0.00673596
H -0.31373750 13.83085877 26.97225903 -0.01844856 0.01870505 0.01144569
H 2.31075596 10.24574710 32.59694342 0.02752011 -0.00682550 -0.04678490
H -0.61401907 15.03109883 32.45323621 -0.00769737 0.00573613 -0.00400788
H 2.35634742 17.85793226 24.28772559 -0.01705076 0.00233875 -0.00894500
H 0.50741821 13.30670996 29.08113791 0.00153150 -0.01234731 0.00070145
H -3.38596747 11.10700409 34.73265365 -0.01110631 -0.00526197 0.01574879
H -2.03315151 16.06553157 30.57424866 -0.01560374 0.01493098 0.01470884
H 0.91906136 16.12669133 34.48405055 -0.02509916 0.01210782 0.01623404
H 0.44591690 11.94117266 30.92717922 0.00838125 0.00844545 -0.01823996
H -2.05125669 12.62868289 25.12245664 0.01018164 0.02295099 0.00843706
H -1.94460311 17.76112410 28.70493055 0.00666693 -0.00755724 0.01909242
H -0.58535153 15.09202647 23.42154707 0.00185603 0.01023306 -0.01169015
H -3.44204379 10.51222683 29.75842920 -0.00835412 -0.00236310 0.01161258
H 4.12429935 13.58194987 0.19663954 -0.00398736 -0.00075939 0.01132460
H 2.14294909 18.70183649 29.50205796 -0.01252637 0.00691759 -0.00974794
H -0.48044009 16.73512759 25.42057604 0.00990107 -0.02298428 -0.01653874
H -3.29627481 11.93807908 27.73083402 0.01738043 0.00083167 -0.00505585
H -0.45514368 12.21386222 33.58262225 0.00464039 0.02087092 -0.00779141