1728
Time=67000.00000006 pbc="T T T" Lattice="22.14837927 0.00000000 0.00000000 0.00000000 28.90615318 0.00000000 0.00000000 0.00000000 27.23920883" energy=-10389.49170065 virial="25.51037543 20.70056148 11.27492728 20.70056148 1.23090936 6.34986572 11.27492728 6.34986572 -2.89754403" stress="0.00377335 0.00109604 0.00057463 0.00109604 0.00254516 0.00038983 0.00057463 0.00038983 0.00260651" Properties=species:S:1:pos:R:3:vel:R:3
N 0.21593009 5.65295236 1.10687231 -0.00424204 -0.00213277 0.00057684
N 1.71940548 3.98172446 5.66214362 0.00137172 -0.00537096 0.00240545
N 2.20336491 8.98650159 7.81651733 -0.00492235 -0.00550009 -0.00003266
N 3.55972156 0.69361221 4.04346920 -0.00136082 -0.00001936 0.00242651
N 1.47131466 3.74300952 1.42225078 0.00013944 -0.00577713 0.00307916
N 0.48363367 5.99442634 6.14146252 -0.01048507 0.00946821 0.00444406
N 3.45891068 1.50816626 7.65702172 0.00201222 -0.00071389 0.00212481
N 1.96944880 8.26451431 3.38280847 0.00837372 -0.00431688 -0.00053021
N 0.38733327 5.67271195 10.32816850 -0.00674954 -0.00340852 0.00274968
N 1.45019817 4.24101476 14.78292146 -0.00428880 -0.00094834 0.00004210
N 1.96734637 8.74263582 16.82314501 0.00476968 -0.00409452 -0.00043264
N 3.71793398 0.71674667 12.14282827 0.00720118 0.00410859 -0.00057737
N 1.50179363 3.62819483 10.43428624 0.00088799 0.00018795 -0.00184930
N 0.38657259 6.34325613 15.04598060 0.00173881 0.00258980 0.00114357
N 3.12065372 1.17198250 16.85607925 0.00389308 0.00055903 -0.00032433
N 2.17105166 8.25166317 12.44420087 0.00022734 -0.00305134 -0.00561827
N 22.01621844 5.50730638 19.01011147 -0.00238221 -0.00063022 0.00026490
N 1.65758933 4.03263431 23.59926179 -0.00011597 -0.00609849 0.00304470
N 1.88304456 9.23185817 25.70318998 0.00087246 0.00681415 -0.00395676
N 3.18740318 0.62159475 22.01236587 -0.00322660 0.00381328 -0.00071519
N 1.15453838 3.65130051 19.43973016 -0.00241857 0.00137200 0.00079785
N 0.43058117 5.96277891 23.70992747 -0.00441244 0.00055524 0.00615433
N 3.41023022 1.08367562 26.06540963 0.00382369 0.00509027 -0.00009852
N 1.92726280 8.36684699 21.04682067 0.00678110 0.00037129 0.00191433
N 0.01786746 15.05951052 1.48080088 0.00815540 -0.00138766 -0.00066421
N 1.48945178 13.86648686 5.31519407 0.00170150 0.00800296 -0.00517470
N 2.32962865 18.34696864 7.78921548 -0.00254603 -0.00718644 -0.00324843
N 3.31057816 10.08401330 3.07812975 0.00007802 0.00082769 0.00427598
N 1.70105848 13.38618783 1.45576120 0.00618000 -0.00074675 -0.00210465
N 0.45146824 15.92900377 5.71329293 0.00185239 -0.00537889 0.00080794
N 3.10667079 11.06519767 7.37042815 0.00091867 -0.00327661 -0.00262986
N 2.49850991 18.07162175 2.79937159 0.00357540 0.00036001 0.00217079
N 0.46479110 15.66152500 9.93875796 0.00080264 0.00627591 -0.00823302
N 1.59281000 13.59922623 14.38115612 -0.00516104 -0.00743482 -0.00165951
N 1.77768089 18.81542994 16.84587327 -0.00869153 -0.00399823 -0.00383106
N 3.21462415 10.37743776 12.54452425 -0.00182416 -0.00239456 -0.00502559
N 1.26594022 13.42176743 9.97502856 0.00121688 0.00129299 -0.00074508
N 0.35127281 15.48648443 14.65743290 -0.00062086 0.00067288 0.00124227
N 3.14417828 10.76161076 16.60098186 -0.00123092 0.00562650 -0.00445399
N 2.46259617 17.88764866 12.15086636 0.00378087 -0.00429919 -0.00377678
N 0.26292253 15.30833411 19.12622857 -0.00101173 0.00403705 -0.00412610
N 1.48002409 13.55690428 23.88783217 0.00015990 0.00015682 -0.00078065
N 2.37628117 18.49353549 26.37025619 0.00039083 0.00003390 -0.00602528
N 2.95618351 10.38301772 21.27854905 -0.00539138 -0.00182302 -0.00361019
N 1.47657733 13.44693205 19.65662425 0.00597727 -0.00551189 -0.00595458
N 0.58268357 15.67338240 24.11072270 0.00650790 -0.00155195 -0.00405923
N 3.23429647 11.04423899 25.91461897 -0.00520384 0.00525524 0.00067303
N 2.31367859 18.01237833 21.46769368 0.00176026 0.00240150 -0.00402284
N 0.58719595 24.98058610 0.53563202 -0.00179591 0.00848196 0.00379595
N 1.83231269 23.40420887 5.48964271 -0.00039825 0.00352148 0.00192756
N 2.47176839 28.35689003 7.86616535 0.00172450 0.00482346 -0.00595297
N 3.71622567 19.91579007 3.17514428 0.00153359 0.00070121 -0.00212036
N 1.64852217 22.95296717 1.13717555 0.00175395 0.00216810 0.00416628
N 0.75811752 25.42704402 5.80430436 0.00206409 0.00305715 -0.00483181
N 3.37014126 20.43353790 7.56860806 -0.00099408 0.00281182 0.00279800
N 2.42069588 27.58500746 3.73810061 0.00250194 -0.00334238 -0.00908926
N 22.13137812 24.72705149 10.07929313 0.00012605 -0.00011691 -0.00509818
N 1.69579643 23.55221832 14.63904863 -0.00189593 0.00722170 0.00379511
N 2.04170597 28.09652705 17.12135565 0.00207216 0.00311886 0.00350822
N 3.55687062 19.86507624 12.59627137 0.00189880 -0.00067656 0.00142121
N 1.52721866 23.01090720 10.38295836 0.00248718 0.00219336 0.00287843
N 0.72405751 25.61305591 15.14973281 0.00126491 -0.00112495 0.00430155
N 3.07350382 20.69623967 16.78183507 0.00250040 0.00355198 -0.00117644
N 2.21168760 27.84292178 12.03963467 0.00566336 0.00328118 -0.00182396
N 0.17956373 24.74539340 19.46142694 -0.00198450 -0.00666873 0.00829075
N 1.53849654 23.43504159 24.02733209 0.00193440 -0.00346066 -0.00138986
N 1.96483724 28.32274833 26.73352753 0.00021146 -0.00030380 -0.00152345
N 3.14129493 20.07916446 21.74364312 -0.00319110 0.00370460 0.00066564
N 1.42439582 22.90395114 19.84614887 -0.00322251 -0.00072781 -0.00519825
N 0.15743621 25.20773956 24.34803482 0.01115560 -0.00168016 -0.00822648
N 3.49388351 20.51829222 26.12554816 0.00455054 -0.00209395 0.00451962
N 2.15311279 27.60397709 21.54761262 0.00448938 -0.00670074 0.00258417
N 4.05884443 5.42174263 1.15477082 0.00050577 -0.00200737 -0.00322198
N 5.51285874 4.25342867 5.62979923 0.00642932 -0.00218747 0.00591993
N 5.73105984 8.98209850 8.04857442 0.00089667 0.00579013 0.00318242
N 7.78351025 0.95300825 3.89550159 0.00564756 0.00575886 0.00084493
N 5.26695068 3.51538428 1.53750862 0.00290033 -0.00396870 -0.00482607
N 4.06120523 6.05673974 6.00626183 -0.00011647 0.00344925 0.00294680
N 6.95105049 1.22833597 7.67212737 -0.00241957 -0.00333421 -0.00227794
N 6.20192884 7.97272004 3.53362111 0.00072271 -0.00514665 0.00370369
N 3.73055163 5.58222742 9.94901236 -0.00154199 0.00663367 -0.00470260
N 5.13473546 3.84012601 14.81818739 -0.00121411 0.00166964 0.00346275
N 6.14347945 8.57648911 17.07318189 -0.00409805 -0.00123661 0.00800492
N 7.41902182 0.46225259 13.20936090 -0.00609058 -0.00441330 0.00115644
N 5.33540873 4.01154353 10.67958486 -0.00238995 -0.00140164 0.00186096
N 4.12051503 5.85317909 15.14473773 -0.00392679 -0.00053255 0.00013085
N 6.67618101 0.96736867 17.06771436 -0.01050863 0.00573297 0.00500067
N 6.01778256 8.47401206 11.82912166 -0.00345231 0.00909984 0.00532453
N 3.79758532 5.21695275 19.30010248 0.00018669 0.00162596 0.00116133
N 5.28579918 4.19225518 24.21184907 0.00673833 0.00556610 -0.00470214
N 5.41526155 8.91403931 26.27694835 -0.00045965 0.00339639 -0.00329899
N 7.16698868 0.53080999 21.92631836 -0.00000481 0.00296324 0.00124133
N 5.18523042 3.38154887 19.85424003 0.00262176 -0.00187021 0.00129930
N 3.91410305 6.03737788 24.28474795 -0.00082198 0.00385598 -0.00602256
N 6.67308981 1.29517980 26.05151018 -0.00254552 0.00881532 -0.00216102
N 5.76804762 8.51499918 21.28507414 0.00466802 0.00141186 -0.00440756
N 3.94595119 15.07996600 0.81161318 0.00315286 -0.00193538 0.00174748
N 5.17105345 13.54598490 5.37797028 -0.00286251 0.00264815 0.00038068
N 5.76560812 18.49321700 7.92858676 0.00073628 -0.00094222 0.00436924
N 7.61410839 9.78312359 3.46518612 -0.00446594 0.00343905 -0.00445215
N 4.99893473 13.11431331 1.39794055 -0.00211793 -0.00173759 0.00086671
N 3.95144365 15.41520240 5.84572567 -0.00011172 0.00164356 -0.00099164
N 6.94047734 10.90915363 7.55487948 0.00210647 0.00204275 0.00364326
N 6.04445443 17.91447282 3.04848213 0.00333276 0.00081897 0.00270961
N 3.97930384 14.92986556 10.42227705 0.00367106 -0.00140452 0.00134679
N 5.45641340 13.61380287 15.16466328 -0.00022574 -0.00313581 0.00278298
N 5.61125371 18.60762651 16.96692945 -0.00280707 -0.00216085 -0.00013746
N 6.93763788 10.43878089 12.59976610 0.00444377 0.00766214 -0.00299576
N 5.30377409 13.07997570 10.83557855 0.00063062 -0.00131584 0.00034183
N 4.02090977 15.40414702 15.13542150 0.00605842 -0.00115967 0.00107478
N 7.03707686 10.70725248 16.97858668 -0.00351815 0.00241451 -0.00349973
N 6.05278547 18.27372153 12.04279525 0.00066330 0.00321425 0.00134443
N 4.24128275 15.16437023 19.33326882 -0.00900224 -0.00196961 0.00140838
N 5.44949433 13.43033864 23.38529645 -0.00319831 0.00357488 0.00077716
N 5.69154032 18.54827638 26.10383635 -0.00734677 -0.00466803 0.00855121
N 7.00077142 10.48790980 21.66623952 -0.00436285 0.00005038 -0.00364702
N 5.10595875 12.98558742 19.66362697 0.00240891 -0.01180166 -0.00122913
N 4.42747496 15.42461241 24.07472983 0.00126669 -0.00016790 0.00125199
N 6.80471250 10.69685885 25.71211564 -0.00086483 -0.00174621 0.00192818
N 5.72993037 18.16380687 21.30994303 -0.00609665 -0.00638900 -0.00673960
N 3.85534286 24.93722949 1.36959119 -0.00394567 -0.00712026 0.00021438
N 5.64113359 22.97135223 5.73343214 -0.00250480 0.00786970 -0.00125791
N 5.99232413 28.21804211 8.52179721 0.00148677 -0.00864969 -0.00062707
N 7.57400567 19.65731075 3.22959005 0.00400948 -0.00596933 -0.00027520
N 5.15954221 23.02142529 1.65719641 0.00088819 0.00227362 -0.00027819
N 4.22259654 24.79252281 5.98947192 0.00326231 0.00460115 0.00411057
N 7.18721743 20.24541983 7.69427998 0.00812728 -0.00405938 0.00086435
N 6.29437179 28.14393070 3.47616700 0.00062521 -0.00314660 -0.00307126
N 4.07169881 25.14060807 10.14149719 -0.00491096 -0.00318740 0.00489249
N 5.04295186 23.68649896 14.94888828 0.00192399 0.00307804 0.00444428
N 5.52960083 27.85494612 17.55561014 0.00546335 0.00268206 0.00149799
N 7.17580870 20.18077141 12.49412000 0.00487837 -0.00399407 0.00036552
N 5.13623254 23.16123983 10.68853183 -0.00216463 0.00181908 0.00254859
N 3.85797801 25.61106606 15.15411634 -0.00861895 -0.00002167 -0.00149954
N 6.85477266 20.57737808 16.98873405 0.00229545 0.00922176 0.00564144
N 5.84461903 27.79571528 12.65864277 0.00160301 0.00309546 0.00169670
N 3.98516675 24.74533696 19.47438906 -0.00242050 0.00006294 0.00444185
N 5.43827686 23.98229462 24.01459256 -0.00059529 -0.00270494 -0.00019720
N 5.70370421 28.16634222 26.39442048 0.00107269 0.00365436 0.00214207
N 7.00297514 20.07022544 21.87485370 -0.00521763 0.00209904 -0.00294492
N 5.15686056 22.83120312 19.90921596 -0.00080352 0.00336638 -0.00113608
N 3.97776120 25.68298547 24.36704685 0.00277635 0.00226135 0.00533860
N 6.85924682 20.46482036 25.84538256 0.00421429 0.00135237 0.00071786
N 5.77804523 27.72863322 21.35075744 -0.00505034 0.00231933 -0.00301817
N 7.94356034 5.56492386 1.32607377 0.00623849 -0.00612672 -0.00050607
N 9.17176271 4.11475728 5.76782679 0.00037232 -0.00013510 -0.00164322
N 9.24176981 8.80542502 8.68359143 0.00038660 0.00187851 0.00258779
N 11.23381082 0.42682607 3.56186819 -0.00307345 -0.00250239 0.00118465
N 8.77030006 3.42897418 1.59026476 -0.00324369 -0.00605182 0.00386665
N 8.09122535 6.02152649 6.34686684 0.00388893 -0.00878703 -0.00620000
N 10.59595153 1.29679060 7.54565631 0.00080127 -0.00108886 0.00286681
N 10.17526005 8.44964778 3.17126004 -0.00170876 0.00553578 0.00087755
N 7.89529397 5.40813348 10.02245476 0.00201770 0.00555375 -0.00314743
N 8.94256180 3.87701882 15.01041317 0.00227918 0.00241596 -0.00674815
N 9.33946768 8.65027866 17.23871261 -0.00069770 -0.00065260 -0.00159756
N 10.99821151 0.45790355 12.42007346 0.00470205 0.00046587 -0.00149790
N 8.94936505 3.55324806 10.88550422 -0.00428279 0.00608502 -0.00051623
N 7.60560234 5.76403631 15.20354687 0.00004740 -0.00548887 -0.00153240
N 10.61907551 1.14671597 16.63610932 -0.00030270 0.00377490 -0.00115069
N 9.75375877 8.58109616 12.55995442 0.00087504 -0.00129743 -0.00618152
N 7.41297262 5.51646537 19.68316936 -0.00110608 0.00460746 0.00249562
N 8.95550686 4.18626058 24.25254918 -0.00437620 -0.00290905 -0.00048865
N 9.42430967 9.06352318 26.53519235 -0.00204785 -0.00024303 0.00500286
N 10.65567817 0.53412385 21.28382852 -0.00033133 0.00519766 0.00469287
N 8.65263303 3.61654305 19.79249117 -0.00619565 0.00303718 -0.00116481
N 7.67109456 6.08842986 24.47076978 0.00418032 0.00317418 0.00528950
N 10.64477103 1.17364359 25.70252603 0.00223824 -0.00569899 0.00692489
N 9.56341520 7.96512667 21.39314979 0.00562184 -0.00325147 0.00047904
N 7.58413496 14.51610969 1.08966835 0.00018217 0.00201586 0.00370151
N 9.19249219 13.55383079 5.49477691 -0.00369666 -0.00128307 0.00075764
N 9.66115065 18.18636269 8.06784268 -0.00724561 -0.00263121 -0.00524082
N 11.36401903 10.35227378 3.78321597 -0.00109032 0.00154893 0.00597454
N 8.79964204 12.57047794 1.44862973 -0.00832103 0.00563615 0.00567098
N 7.99056382 15.44560763 6.04380563 0.00481601 0.00179108 -0.00323714
N 10.24954731 10.76680139 7.83257548 -0.00347222 -0.00061044 -0.00074305
N 9.94974957 17.83902793 3.19870850 -0.00254534 0.00189988 -0.00130082
N 7.51147955 15.36241351 10.31015507 0.00828697 -0.00299509 -0.00324305
N 8.73942193 13.81711406 14.85986190 -0.00093478 0.00026548 -0.00022958
N 9.52700187 18.36582557 17.11459468 -0.00076362 0.00374021 0.00697744
N 10.93471582 10.51959251 12.92491710 0.00442485 0.00387309 0.00427754
N 8.64704696 13.44327100 10.60200166 -0.00011803 0.00057127 -0.00109748
N 7.49367926 15.79107734 15.00633320 -0.00339773 0.00739409 -0.00929242
N 10.54840197 10.55582200 16.85133036 0.00063620 0.00455420 -0.00116323
N 9.39507934 18.04836150 12.08433801 0.00507340 0.00082396 0.00322319
N 7.61489265 15.03988173 19.50780590 -0.00397477 0.00628778 -0.00372325
N 9.05682640 13.93747096 23.81411595 -0.00046691 0.00033466 -0.00386954
N 9.46460520 18.56308620 26.33330213 -0.00303089 0.00979149 0.00169207
N 10.34139241 10.11245051 21.60379000 0.00310771 0.00327345 -0.00403222
N 8.72366102 12.98158553 19.72702034 0.00011594 -0.00555634 -0.00437242
N 7.82730167 15.72503159 24.30183152 0.00264961 0.00964664 -0.00233194
N 10.90350460 10.62306302 25.77352323 0.00117765 -0.00079335 0.00028136
N 9.41517042 18.24046365 21.19685666 0.00078845 0.00260650 0.00467186
N 7.59174924 24.61216966 1.60423396 0.00075108 0.00918133 0.00386449
N 9.07113482 23.09015688 5.94129183 0.00664329 -0.00270759 -0.00865845
N 9.65867624 28.16079663 8.01674180 -0.00073795 -0.00060485 -0.00095903
N 11.29738354 19.68153093 3.61017061 0.00289146 -0.00438482 -0.00841992
N 8.98260655 22.82610316 1.66495703 -0.00146590 -0.00520429 0.00071174
N 7.76372680 25.01387550 6.37339527 -0.00284765 0.00204947 0.00035048
N 10.63654439 20.19402352 7.64285828 0.00222394 0.00547236 -0.00209340
N 9.82500980 27.52630428 3.24516645 -0.00151714 0.00115334 -0.00258326
N 7.62173380 24.96678416 10.40945307 0.00274844 -0.00111276 0.00051857
N 8.84566908 23.49810699 15.23329475 0.00440170 -0.00230023 0.00365919
N 9.23663188 28.26693602 16.80892579 -0.00383444 -0.00283546 -0.00852755
N 10.66312003 19.94372933 12.24908538 -0.00674293 -0.00151378 -0.00701728
N 9.02692498 23.19522544 10.93313830 -0.00580792 0.00002702 -0.00138430
N 7.48605858 25.33803616 15.09234981 0.00196699 -0.00207435 0.00224094
N 10.36964932 20.44083330 16.81066932 0.00331303 0.00634528 0.00301923
N 9.54382189 27.57687427 12.19596688 0.00138601 -0.00359205 0.00008179
N 7.46465031 24.74833704 19.78687570 0.00302549 0.00376412 -0.00100518
N 8.74762654 23.56271929 24.28972009 0.00487289 0.00193818 0.00119171
N 9.76345335 27.98296951 25.97942831 0.00004281 0.00473204 0.00108166
N 10.88191038 20.00423949 21.71048500 -0.00064464 0.00342858 0.00086954
N 8.67223556 22.81126480 19.75650783 -0.00150113 -0.00110315 -0.00274641
N 7.72145629 25.59793973 24.69306622 0.00536163 0.00264164 -0.00469476
N 10.76086145 20.43273572 25.98645755 0.01007074 -0.00443627 -0.00660722
N 9.43073299 27.57995236 21.30715355 -0.00278408 0.01030250 0.00035028
N 11.10074387 5.19094170 1.14274630 0.00396253 0.00159481 0.00180073
N 12.92811509 4.21408785 5.75799137 -0.00560986 0.00446011 0.00218332
N 13.40673838 8.77206016 8.04647023 -0.00243043 -0.00094587 0.00121079
N 14.91886592 0.78322658 3.27924156 0.00164007 -0.00834515 0.00244300
N 12.52540179 3.22372357 1.53134533 -0.00377558 0.00095278 -0.00360437
N 11.62479433 6.10080993 5.99111924 0.00282087 -0.00134178 -0.00032698
N 14.18319251 1.13750859 7.34817282 -0.00619741 -0.00288663 -0.00162579
N 13.80627783 8.75363787 2.72077841 -0.00436058 -0.00076825 0.00593883
N 11.27150746 5.85463452 10.37247173 -0.00034579 -0.00160188 0.00022705
N 12.56749082 4.08417547 15.03429483 -0.00233737 -0.00190145 -0.00127079
N 12.90200916 9.15605811 17.01293588 0.00027580 -0.00168991 -0.00028640
N 14.16036782 1.04683115 12.24111445 -0.01353747 0.00343275 0.00198326
N 12.49439750 3.92773797 10.60753296 0.00675462 0.00296823 0.00373728
N 11.13352785 5.83340127 15.41990617 -0.00001706 -0.00029432 0.00697289
N 14.39702245 1.09421323 16.74986966 0.00500410 0.00239595 0.00096509
N 13.13986582 8.59784748 12.00739807 -0.00022796 0.00275959 -0.00627349
N 11.06352124 5.30740856 19.69956551 -0.00453946 -0.00228202 -0.00035201
N 12.88602635 4.26959094 24.08499463 0.00713072 -0.00033903 0.00623164
N 13.21526996 9.06856490 26.04947407 -0.00731969 -0.00085160 -0.00027489
N 14.55828693 0.30295418 21.23606031 -0.00064458 -0.00273721 0.00072687
N 12.47829814 3.44194636 19.51024390 0.00497307 -0.00115047 -0.00602627
N 11.46602021 6.00963355 24.48919687 0.00069896 -0.00265313 0.00206393
N 14.39699833 1.06030699 25.51449406 0.00036307 0.00558702 0.00170280
N 13.09529174 8.71081887 21.21981014 0.00280681 -0.00233911 -0.00003783
N 11.51777471 14.74056532 1.17874714 -0.00222537 -0.00015622 0.00164084
N 12.97877783 13.73084269 5.41165011 -0.00300122 -0.01019920 -0.00157088
N 12.98887193 18.38258873 7.73799550 0.00133732 -0.00189864 0.00018629
N 14.81193863 10.58769466 3.58409721 -0.00075560 0.00507434 -0.00449760
N 12.43943124 12.63964849 1.18503801 -0.00288961 0.00136043 -0.00285344
N 11.55009163 15.29928698 6.22722293 -0.00725583 -0.00023630 -0.00365091
N 14.27918416 10.82958022 7.43109379 -0.00438312 0.00103316 0.00733398
N 13.90452220 17.90014867 2.96204442 -0.00685961 0.00268094 -0.00121175
N 11.14755272 14.96438306 10.44648293 0.00226846 0.00242740 0.00104465
N 12.59630802 14.07126256 15.04867190 0.00219748 -0.00150516 0.00229339
N 13.33222728 18.60712467 16.74306900 -0.00277533 -0.00298544 -0.00066950
N 14.60416015 10.28081917 12.50677870 -0.00418050 -0.00092793 -0.00368191
N 12.71181455 13.13208409 10.63079484 -0.00439760 0.00100309 -0.00558380
N 11.17741034 15.99038241 15.07263095 -0.00412385 0.00407216 -0.00630270
N 14.17030441 11.06787590 16.61588674 0.00484214 -0.00374810 -0.00068550
N 13.33320297 18.49381234 12.05180197 0.00737526 0.00172034 -0.00796313
N 11.02783214 14.99320471 19.26363236 -0.00256569 0.00881634 0.00063594
N 12.62821934 13.98629515 23.81552675 0.00237334 -0.00228701 -0.00024286
N 13.22454493 18.54684916 26.14033908 -0.00518965 -0.00256813 -0.00902685
N 14.56421367 10.52625593 21.50926365 0.00178153 -0.00035735 0.00332344
N 12.42080720 13.13945917 19.65873096 0.00122779 0.00542544 -0.00226386
N 11.43102711 15.85564629 24.02311889 0.00255382 -0.00148748 -0.00041251
N 14.39184843 10.98626262 25.33820933 -0.00202796 -0.00052851 0.00131267
N 13.21754877 18.24050642 21.25708102 0.00499212 -0.01177414 0.00458581
N 11.30014984 24.57550730 1.31058800 -0.01006379 0.00363050 -0.00014322
N 12.92595183 23.30231516 5.84119906 -0.00110914 0.00392143 -0.00173561
N 12.79681056 28.18862584 7.67019201 0.00157499 0.00230875 0.00264222
N 14.68764360 19.96951987 3.76721915 0.00217642 -0.00412628 -0.00358168
N 12.63016589 22.67400526 1.26836716 -0.00123194 0.00428205 -0.00492648
N 11.35506538 25.11375629 5.76511552 -0.00427220 -0.00369408 -0.00305824
N 14.30534393 20.15315707 7.50825098 -0.00071385 0.00826498 -0.00047222
N 13.94864048 27.67062202 2.84808378 -0.00089417 0.00373242 0.00470654
N 11.31101902 24.99463862 10.27931253 0.00440182 -0.00046690 0.00071609
N 12.26052698 23.31224533 14.91554964 0.00916816 0.00119410 -0.00331425
N 12.95234477 28.20580483 16.92082312 -0.00230285 0.00521544 0.00249219
N 14.22448262 20.47502571 12.62333046 0.00931525 0.00201448 0.00141194
N 12.10256596 22.73641923 10.51350525 -0.00186601 -0.00483298 0.00070908
N 11.32972018 25.37992499 15.19806319 -0.00395531 0.00710261 0.00415428
N 14.49136278 20.64052067 16.83081892 -0.00499367 -0.00194035 0.00507488
N 13.49858654 27.74254926 11.96214134 -0.00677635 -0.00563049 0.00159745
N 10.96002921 24.79678636 19.10279930 -0.00549803 0.00304215 -0.00553731
N 12.75866269 23.38799259 24.18295210 -0.00000711 0.00423225 -0.00913714
N 13.12143811 28.09219018 26.08407857 0.00168155 -0.00020333 -0.00753955
N 13.87835313 20.36192585 21.58998477 0.00417416 -0.00174978 -0.00058033
N 12.23827906 22.96012928 19.93887530 0.00059864 -0.00153010 0.00126624
N 11.43773691 25.18986837 24.36008666 0.00552848 -0.00611764 0.00177654
N 14.57241865 20.40336639 26.02795009 0.00035621 -0.00014943 -0.00669923
N 13.14104522 27.40863602 21.49234694 0.00682076 0.00493583 0.00197567
N 14.84902639 5.27886942 1.23498345 -0.00025921 0.00463272 0.00131304
N 16.60361062 4.10688591 5.66135952 0.00563323 -0.00089566 -0.00090603
N 16.80331572 9.04560447 7.83795613 -0.00808711 0.00486264 -0.00259227
N 18.38655126 0.48799558 3.33545839 -0.00018791 -0.00584815 -0.00315006
N 16.48047552 3.68865860 1.31763879 -0.00187472 -0.00055629 -0.00245717
N 15.34133193 6.10415238 5.87218485 0.00366049 -0.00331859 0.00083103
N 17.71097672 1.03362386 7.73123200 -0.00393283 -0.00140379 -0.00451416
N 16.93074296 8.28200571 2.91518375 -0.00596073 0.00619687 -0.00400661
N 15.14960586 5.83391252 9.78123204 0.00107622 -0.00234382 -0.00267134
N 16.35362272 4.39746718 14.74179662 -0.00687373 0.00287277 0.00719596
N 16.78132757 9.11371016 16.83505759 -0.00187293 -0.00205529 0.00309210
N 18.17161565 0.81219123 12.73930755 -0.00699333 0.00543687 -0.00038113
N 16.10431124 3.83352418 10.39170655 0.00345583 -0.00187162 0.00326496
N 14.93386834 6.23458243 15.05596350 -0.00632270 0.00226524 0.00275212
N 18.08167636 1.07474368 16.45999585 -0.00124229 0.00180295 0.00300886
N 17.01852808 8.60012149 12.08346845 0.00213916 -0.00434186 -0.00072543
N 14.86839118 5.48157480 19.10717337 0.00286684 -0.00341334 0.00326458
N 16.45613787 4.33071325 23.67076794 -0.00289534 -0.00218258 0.00115647
N 17.04618104 9.03047148 25.69054039 -0.00139818 0.00398015 0.00469264
N 17.93839333 0.68493493 21.65102767 0.00011236 0.00185859 -0.00206235
N 16.06722937 3.53707932 19.53995218 0.00874027 -0.00302609 -0.01379771
N 15.12710822 6.18042768 24.11569087 -0.00194520 0.00476993 -0.00152850
N 17.74821604 1.34460344 25.44172113 -0.00739845 -0.00312329 0.00524833
N 17.16234129 8.55947261 21.06866575 0.00661335 0.00039466 0.00699864
N 15.75596485 15.15328390 1.13914015 0.00173838 0.00476662 -0.00557114
N 16.65877954 13.90735988 5.76333414 -0.00189146 0.00541065 0.00421162
N 17.49792133 18.43658642 8.00485930 0.00480752 -0.00018040 -0.00021071
N 18.10382966 10.19474116 3.37689510 0.00318934 -0.00344912 -0.00005447
N 16.34938700 12.92155026 1.13923805 0.00408388 0.00183175 -0.00164270
N 15.19182000 15.71646083 5.91136686 0.00422984 -0.01023934 -0.00891290
N 17.82150481 11.09587392 7.45133788 -0.00158580 0.00205441 0.00265902
N 17.12988274 18.51112628 3.01917733 -0.00561071 -0.00091277 0.00466741
N 15.20711035 15.41439255 10.17588740 -0.00043768 -0.00345736 -0.00564025
N 16.47392424 14.08343609 14.49113223 -0.00093512 -0.00459346 -0.00241495
N 17.07961498 18.73769857 16.95939404 -0.00139375 -0.00414195 0.00241369
N 18.32938164 10.49068424 12.54828038 0.00557081 0.00025785 0.00255737
N 16.36546957 13.46739472 10.33181850 -0.00376264 -0.00000793 0.00357383
N 15.01617421 15.86608560 15.12784498 0.00038444 0.00584377 -0.00094058
N 17.90813054 11.19576790 16.37353634 0.00613091 0.00104603 0.00270374
N 16.96466107 18.26270247 12.04793045 0.00239940 -0.00395939 0.00299687
N 15.00263343 15.40982768 19.32386657 0.00423537 -0.00033034 -0.00238699
N 16.41113282 13.91208844 23.67412697 0.00256378 -0.00653229 -0.00284568
N 17.18356416 18.44352148 26.18150056 0.00632812 -0.00078773 -0.00477545
N 18.42398494 10.52952078 21.22328243 0.00270222 -0.00265787 -0.00084311
N 16.09780349 13.38473339 19.42151885 0.00226424 -0.00064326 -0.00387989
N 15.37023462 15.97668333 24.03908446 -0.00029950 -0.00089124 -0.00008891
N 17.95419680 11.04237816 25.43435621 -0.00052323 0.00649768 -0.00458103
N 17.17209588 18.13319196 21.31662674 0.00783105 0.00207435 -0.00090189
N 15.27853251 24.60993264 1.30796106 0.00045215 0.00284902 -0.00358026
N 16.14477435 23.37402036 5.88442209 0.00574888 -0.00288526 0.00107344
N 16.67371959 27.95638791 8.27236264 -0.00044588 -0.00087849 0.00142871
N 18.62298048 20.19928595 3.48988778 0.00077022 -0.00321140 -0.00159173
N 16.48437491 22.64619711 1.44532229 -0.00191586 0.00366251 -0.00732493
N 15.20570614 25.48171968 5.73856608 0.00003826 -0.00198533 -0.00346508
N 18.29291461 20.60455626 7.58157148 0.00498185 0.00267121 -0.00121268
N 17.20022043 27.49628192 2.81664097 0.00357230 0.00420758 -0.00119739
N 15.25079767 24.77573949 9.81915192 -0.00765167 0.00035051 0.00658449
N 15.93616359 23.55888893 14.69192730 -0.00466182 -0.00104018 -0.00286392
N 16.62648798 28.17391768 16.97623006 0.00170881 -0.00673871 -0.00366504
N 18.19222855 20.03902608 12.15291074 -0.00209634 0.00885887 0.00266037
N 16.12339898 22.71895064 10.28453182 -0.00082224 -0.00247969 0.00050350
N 14.62908048 25.44059809 15.08934234 0.00014811 0.00248405 0.00116998
N 17.89957818 20.75664222 16.50769844 0.00787781 -0.00032054 0.00078895
N 17.03740881 27.84868182 11.85718948 -0.00323630 0.00267779 0.00069673
N 15.20392985 24.88481851 19.23309007 0.00892319 -0.00315453 0.00211245
N 16.33681711 23.30995621 23.70815178 0.00288080 0.00299145 0.00326381
N 16.98609920 28.15664440 26.16111968 -0.00212187 0.00689626 0.00440047
N 18.47784326 19.93649691 21.85501164 0.00613154 0.00096316 0.00537290
N 16.18794071 22.78029607 19.78050910 -0.00264744 -0.00451533 0.00110539
N 15.41334365 25.41248703 24.06733028 -0.00680733 0.00453543 -0.00203386
N 18.25726175 20.44713169 25.76454031 0.00492415 -0.00370423 -0.00312704
N 17.06218542 27.55087703 21.18724772 0.00626088 -0.00169252 -0.00378683
N 18.85208672 5.40021677 0.78540670 -0.00114820 -0.00254531 -0.00328315
N 20.07549779 3.91187260 5.25866266 -0.00133551 -0.00194208 0.00145698
N 20.31814959 8.92491478 7.86052342 -0.00573743 -0.00257382 0.00121542
N 21.52737505 0.90110213 3.47216434 0.00537650 -0.00896055 -0.00875219
N 19.92619923 3.36785585 1.12030093 0.00626896 0.00152362 -0.00159939
N 19.08160762 5.94528295 5.74872306 0.00160791 0.00795791 0.00317868
N 21.71070665 1.42693993 7.35136964 -0.00365080 0.00653871 -0.00270087
N 20.55282471 8.44538278 2.89433512 -0.00262449 -0.00126447 0.00504502
N 18.59667466 5.69914244 10.15003632 -0.00142906 0.00648738 -0.00149870
N 19.80831640 4.26667649 14.47036968 0.00164426 0.00656402 0.00068456
N 20.39112779 9.33601604 16.85017252 0.00097438 -0.00215209 -0.00598315
N 22.13328234 0.65872922 12.23542505 -0.00325599 0.00902457 -0.00498792
N 19.71132068 3.65275247 10.36490276 -0.00074700 0.00165095 -0.00146017
N 18.69435972 6.19749843 14.82211890 0.00162907 -0.00225111 -0.00500264
N 21.55117914 1.11653040 16.19777581 0.00397707 -0.00395769 0.00169657
N 20.45306945 8.46392809 11.85927147 -0.00117832 -0.00811150 -0.00677234
N 18.68949208 5.59432418 18.90215261 0.00219817 0.00286635 0.00680565
N 19.94778624 3.86594001 23.32834462 0.00037440 0.00269071 -0.00302437
N 20.45155183 8.84145620 26.22421825 0.00354236 -0.00726833 -0.00034068
N 21.64035669 0.84524509 21.59445451 -0.00505836 0.00651600 -0.00605733
N 19.72345541 3.59099799 19.25545235 0.00520904 -0.00192654 -0.00482217
N 18.82791705 5.86152069 23.97103790 0.00425089 -0.00209198 0.00009749
N 21.76246999 1.41735122 25.51126928 -0.00061911 0.00346788 0.00383223
N 20.58660358 8.39688353 20.82119035 -0.00061388 -0.00429882 0.00409176
N 18.87958612 15.00926149 1.12079855 -0.00606734 0.00017404 -0.00552338
N 20.17437234 13.64803314 5.47519834 -0.00172645 -0.00272509 0.00248288
N 20.52232694 18.70009144 7.73308307 -0.00107049 -0.00086703 -0.00067636
N 21.65775911 10.32054965 3.52251600 -0.00239290 -0.00565376 -0.00048114
N 20.07364581 13.16843615 1.59301646 0.00121431 0.00194318 -0.00382151
N 19.08709763 15.61654498 6.11653240 0.00160246 0.00132377 -0.00045903
N 21.75749339 10.58848070 7.26095252 -0.00232699 0.00345717 -0.00166651
N 20.79799343 18.19360154 2.93928479 0.00234631 -0.00415583 -0.00420395
N 19.15194735 15.36755779 9.75754581 -0.00168426 0.00435912 -0.00022935
N 20.00410317 14.02695187 14.44838054 -0.00468683 0.00008172 -0.00483313
N 20.62152479 18.62168758 16.89678064 -0.00130682 -0.00123534 -0.00201233
N 22.05375082 10.05353222 12.36430227 0.00291023 -0.00544021 -0.00338494
N 19.80271518 13.19146613 10.33764255 0.00975847 0.00189454 -0.00452131
N 18.71489445 15.83131606 14.71365335 -0.00612352 -0.00465353 0.00061454
N 21.50994882 11.26287992 16.52466792 0.00635848 -0.00280350 0.00022974
N 20.90475646 18.04543855 12.50214878 0.00415804 -0.00166322 -0.00077468
N 18.37567627 15.36827053 19.10802383 0.00339548 0.00281864 -0.00584777
N 20.26952542 13.86258717 23.83257927 -0.00219598 -0.00339978 0.00396161
N 20.61696446 18.43165720 25.61175797 -0.00437008 0.00187660 0.00519867
N 21.53934381 10.39000926 21.38853283 0.00291160 0.00355423 0.00231649
N 19.85634533 13.59976697 19.23716356 0.00308771 -0.00548348 -0.00487269
N 19.06839664 15.82835363 23.73201253 -0.00470560 -0.00326875 0.00458085
N 21.52238324 10.85033354 25.89520998 -0.00234653 0.00088757 0.00195455
N 20.44593004 18.17457938 20.83138057 0.00081963 -0.00775357 0.00186399
N 18.81183863 24.61486855 1.41306719 0.00764581 -0.00138168 -0.00767254
N 20.50960767 23.57147895 5.88492991 0.00280103 0.00680535 0.00456742
N 20.75540034 28.31747682 8.00735795 -0.00265840 -0.00288849 0.00039062
N 0.01839798 20.06670079 3.03661284 0.00002141 -0.00393191 -0.00243888
N 20.14527305 22.78379682 1.46022410 0.00191112 0.00207082 -0.00487924
N 19.15788684 25.49626204 5.88951230 -0.00045671 -0.00064315 0.01340379