1728
Time=19999.99999999 pbc="T T T" Lattice="22.05020466 0.00000000 0.00000000 0.00000000 28.69393315 0.00000000 0.00000000 0.00000000 27.29203161" energy=-10388.73527396 virial="2.72168473 6.73521622 -10.36195388 6.73521622 35.80145593 9.47537992 -10.36195388 9.47537992 20.05443795" stress="0.00250122 0.00028620 -0.00052230 0.00028620 0.00467637 0.00062584 -0.00052230 0.00062584 0.00428032" Properties=species:S:1:pos:R:3:vel:R:3
N 0.22825469 5.36443587 0.99086694 -0.00297718 -0.00663500 0.00004855
N 1.37311440 3.82199946 5.67939321 0.00325526 0.00651962 0.00083717
N 1.89926181 9.24530720 7.64574892 -0.00207395 0.00365821 -0.00275157
N 3.28221303 0.45446713 3.41284894 0.00086904 0.00562315 0.00287075
N 1.03156673 3.25739758 1.61860964 0.00423813 -0.00706221 0.00162405
N 0.44048780 5.86275973 6.04419158 -0.00466585 0.00047649 0.00144708
N 3.31633207 1.65305043 7.80093669 0.00307905 0.00027192 0.00203569
N 2.14767341 8.34894933 3.16168340 -0.00552002 -0.00390662 -0.00315537
N 0.13770253 5.40188153 9.94938436 0.00177474 0.00083921 0.00189644
N 1.66678109 4.09554716 14.81249233 -0.00215770 -0.00720447 0.00012444
N 2.32617063 8.81585049 17.09543755 0.00534297 -0.00529103 0.00600936
N 3.71696578 0.58883165 12.48089418 -0.00543895 0.00071887 0.00095636
N 1.24574192 3.50822757 10.69239784 0.00286003 0.00314211 -0.00293277
N 0.44110135 5.97020402 15.15243498 0.00119786 -0.00305415 -0.00093059
N 3.31984781 1.25324875 16.58363455 -0.00037801 0.00248412 0.00076201
N 2.04793498 8.34555868 12.49237204 -0.00794186 0.00684150 -0.00232414
N 0.28065705 5.33096779 19.39298325 0.00145883 0.00701135 0.00680404
N 1.71853653 4.04694100 24.10032623 0.00439786 -0.00366499 -0.00248022
N 2.07914282 8.94698196 26.21929393 0.00981543 -0.00090425 0.00579296
N 2.96292282 0.96940668 21.50399370 -0.00083915 -0.00416845 -0.00984135
N 1.45210682 3.44996900 19.61694922 0.00603693 -0.00204069 0.00745722
N 0.40862606 5.93545978 24.31213578 -0.00079456 0.00227128 -0.00348854
N 3.49854464 1.01683631 25.83152134 -0.00164726 -0.00182189 0.00738606
N 2.34250411 8.30683212 21.11949106 -0.00076542 -0.00017111 0.00722375
N 0.11851547 15.03000314 0.95310353 -0.00103994 -0.00194446 0.00337517
N 1.10117952 13.69828561 5.53358335 0.00433832 -0.00458525 -0.00293050
N 2.49271675 18.27602304 7.81157849 0.00254527 0.00261443 -0.00033307
N 3.61318715 10.08441274 3.09118029 0.00148634 -0.00261713 0.00372210
N 1.39220916 13.19531880 1.33413878 -0.00699511 -0.00003034 0.00398819
N 0.39994932 16.01670954 5.60784835 0.00596666 -0.00011193 0.00255584
N 3.55075469 10.80796692 7.34871447 0.00251904 0.00485227 0.00552978
N 2.36744533 18.10909001 2.96175361 -0.00215581 -0.00233528 0.00148585
N 0.35772326 14.89695557 10.31619226 -0.00099501 -0.01171141 0.00077465
N 1.50336796 13.77389821 14.70533650 0.00224933 0.00505742 -0.00440663
N 2.04232115 18.42353567 17.00601911 -0.00077928 -0.00173057 0.00306564
N 3.48227798 10.22606000 12.29460770 0.00209098 0.00580240 0.00016031
N 1.60942616 12.88157126 10.32538874 0.00247281 0.00023483 -0.00543146
N 0.52432874 15.84246854 15.08809804 -0.00810659 0.00248018 -0.00622106
N 3.47996256 10.80658613 16.75319869 0.00125189 -0.00050054 0.00128356
N 2.34053055 17.85133024 12.11723032 0.00131852 0.00117680 -0.00111910
N 0.25946622 14.73426263 19.40003187 0.00397174 0.00540349 0.00592187
N 1.57872168 13.85311023 23.94850592 0.00331399 0.00065768 0.00139839
N 2.06676355 18.52146678 26.31784107 -0.00427773 0.00140149 -0.00228776
N 3.68355130 10.05064190 21.45163718 -0.00045144 0.00555831 0.00074485
N 1.56697157 12.90441737 19.53266634 0.00055042 0.00159032 0.00228199
N 0.27134968 15.73868083 24.41179961 0.00196589 -0.00332728 -0.00005959
N 3.31134625 10.83591696 25.86979711 -0.00423532 0.00487790 -0.00064045
N 2.45640823 17.73981704 21.39764539 -0.00290905 0.00746151 0.00393910
N 21.90784269 24.45504948 1.27212830 0.00401215 0.00029554 -0.00136823
N 1.65760305 23.04091632 5.33801651 0.00522987 -0.00086450 -0.00634467
N 2.36639353 28.11992616 7.88267831 -0.00332812 0.00198040 0.00016449
N 3.40623645 20.16594045 3.51997409 -0.00037301 -0.00221638 0.00676425
N 1.44915945 22.78303767 1.34391863 -0.00262048 -0.00333464 -0.00719235
N 0.52165039 24.84708016 6.30801277 0.00288129 -0.00366749 0.00285025
N 3.21846303 20.45210326 7.58527483 0.00423570 -0.00057130 -0.00137285
N 2.20080092 27.17584096 3.02722813 0.00119443 0.00233606 -0.00155851
N 0.09574234 24.68382701 9.83616736 0.00285601 -0.00777576 0.00626418
N 1.39668457 23.11801614 14.73962224 -0.00295409 0.00034376 0.00205257
N 2.08644063 28.10840404 16.91752203 -0.00109791 -0.00186751 0.00027725
N 3.57479249 19.75648000 12.54626099 -0.00192027 -0.00564520 -0.00275745
N 1.17920507 22.95618414 10.73425914 -0.00275703 -0.00354562 -0.00195540
N 0.22781121 25.05236085 15.22624384 0.00478739 -0.00297905 0.00414408
N 3.43885717 20.20458375 16.73272276 -0.00484734 0.00570550 0.00359461
N 2.51084521 27.37001783 12.00441889 0.01065079 -0.00226795 0.00095815
N 0.01767135 24.41518482 19.52301439 -0.00412793 -0.00367416 -0.00469774
N 1.52478681 23.28947609 24.03954570 -0.00484466 -0.00026241 0.00606086
N 2.30668381 27.90511630 26.16751097 -0.00362912 0.00297969 0.00439077
N 3.43802252 19.83781396 21.68822484 0.00114264 0.00035301 -0.00814196
N 1.44676425 22.61138945 19.76560612 0.00609185 0.00230740 -0.00229553
N 0.31189626 25.33069046 24.09504582 0.00113022 -0.00168104 -0.00154701
N 3.41449271 20.42244664 25.93645712 0.00242695 0.00141433 -0.00335383
N 2.04407677 27.57497090 21.08390403 -0.00117095 -0.00462669 0.00820418
N 3.51626957 5.40948575 1.08514617 -0.00233575 0.00071740 -0.00668571
N 5.44197009 4.11871569 5.41056381 -0.00338085 0.00398826 0.01125836
N 5.65267414 8.77550789 7.66292316 -0.00757959 -0.00374999 -0.00590120
N 6.94893399 0.82926602 3.10794425 0.00012049 0.00364555 -0.00123956
N 4.37640345 3.22312621 1.19681465 0.00227131 -0.00109876 -0.01559897
N 3.88495738 5.69882218 5.99990275 0.00406215 0.00080324 0.00125936
N 7.38142653 1.51517695 7.51123627 0.00475730 -0.00756347 0.00204555
N 6.09843446 7.96826083 2.93147732 -0.00643409 -0.00341449 0.00051078
N 3.85101505 5.56511299 10.13360776 0.00047665 -0.00562471 0.00202765
N 5.10962189 4.25577970 14.62769154 0.00039682 -0.00073115 0.00052843
N 5.61234699 8.90614592 17.19645678 0.00235854 -0.00001665 -0.00022124
N 6.98933075 0.85357781 12.40633501 -0.00641955 0.00002874 -0.00783700
N 5.38423420 3.81554688 10.51385802 -0.00010507 -0.00038551 0.00302545
N 4.38858460 6.22510414 15.12070393 -0.00589388 0.00218164 -0.00533566
N 6.86679411 1.55212066 16.56981271 -0.00155043 -0.00411647 -0.00443141
N 6.33659318 8.42838929 12.16713529 0.00107635 -0.00114558 0.00392587
N 4.02307187 5.34029108 19.36176997 0.00543199 0.00125282 -0.00046781
N 4.80811714 3.90139037 23.73716094 -0.00668819 0.00352455 0.00289338
N 5.90360124 8.89254534 26.19245517 0.00063068 -0.00258412 -0.00598893
N 6.93137567 0.73427335 21.62393226 0.00692579 0.00079943 0.00855556
N 5.44026979 3.52424827 19.78238516 0.00040487 0.00322233 0.00043248
N 4.01990918 6.03622771 24.26684533 -0.00561023 -0.00736620 -0.00251746
N 7.03911498 1.29248537 25.43760750 -0.00282782 -0.00289088 -0.00536392
N 5.87655363 8.10356611 21.14679846 -0.00012170 -0.00196089 0.00129734
N 3.89735770 15.51960306 0.61497612 -0.00079393 0.00025844 0.00067253
N 5.08364932 13.46196625 5.51844634 -0.00005452 -0.00025564 -0.00029246
N 5.63503667 18.36721939 7.83966208 -0.00641258 0.00393244 -0.00079319
N 7.06009687 10.11920565 2.97771689 0.00499213 0.00167265 -0.00662539
N 4.75236117 13.55004270 1.55135030 -0.00516298 0.00033040 -0.00277298
N 4.02286822 15.38399299 5.67359754 0.00205202 0.00469384 -0.00481706
N 6.90613653 10.72881011 7.37998305 -0.00176026 -0.00103513 0.00062996
N 5.93954267 17.92375654 3.36541303 0.00250830 0.00077597 -0.00634445
N 4.07021812 14.85730797 10.25615035 -0.00140543 0.00150891 0.00246750
N 5.36306581 13.68464597 14.93759018 -0.00309786 0.00177042 0.00738337
N 5.58765354 18.46788816 17.15856730 -0.00193456 -0.00678723 0.00203370
N 7.20412309 10.49339646 12.74366370 -0.00321752 0.00893137 -0.00715393
N 5.07869716 12.81667875 10.65348946 -0.00345121 0.00410568 0.00152297
N 4.14377033 15.52687024 15.00505998 0.00374239 -0.00021620 -0.00127348
N 6.93049329 10.81316120 16.82206666 0.00244950 0.00699155 0.00477644
N 5.86185797 17.82469767 12.01064618 -0.00014198 0.00102870 0.00001092
N 3.73530825 14.83002973 19.39693519 0.00092548 0.00081890 -0.00233751
N 5.09950255 13.80965682 23.89095741 -0.00534311 -0.00318146 0.00199378
N 5.76790753 18.63919485 26.24771456 0.00062856 -0.00520676 0.00140187
N 7.31544411 9.87352881 21.76055706 0.00499754 -0.00140757 0.00339298
N 5.17889882 13.07439525 19.88568631 0.00827501 0.00456753 -0.00008175
N 3.83828329 15.74157199 24.25206688 -0.00515420 -0.00061418 0.00015166
N 6.78848420 10.95322650 25.88403068 0.00092141 -0.00472034 0.00460402
N 5.83803756 17.85460017 21.61705983 0.00114048 -0.00443890 -0.00206552
N 4.16120192 24.59194149 0.85558796 -0.00201009 -0.00198789 0.00092514
N 5.25062496 23.21598476 5.90266840 0.00087167 -0.00155862 0.00146141
N 5.93718893 28.44254788 7.71140556 0.00327543 0.00574652 0.00346245
N 7.53016488 19.62200435 3.39339503 -0.00014914 0.00367311 0.00284903
N 5.38648669 22.68338712 1.34975541 -0.00201855 -0.00198022 0.00149822
N 4.36640593 25.25926468 5.81406787 -0.00825745 0.00058669 -0.00861079
N 7.04847188 20.18118452 7.65117998 0.00228784 0.00525454 -0.00121723
N 5.64565829 27.53227188 2.80917297 0.00605381 0.00259405 -0.00364610
N 4.04695135 24.74162516 10.24111789 -0.00263434 0.00170459 -0.00495016
N 5.22293437 23.16414514 14.50470417 -0.00329640 0.00216205 0.00495890
N 5.77500513 28.31709508 16.65766390 0.00055701 0.00275016 -0.00481671
N 7.13800147 19.73596525 12.33996322 0.00537390 0.00368581 -0.00094750
N 5.08775629 22.65963157 10.60735678 -0.00544905 0.00118813 -0.00324675
N 3.88600087 24.97357688 15.13788553 -0.00536493 -0.00032729 0.00231118
N 6.87235709 20.33367068 16.56778101 -0.00408918 -0.00477183 0.00218364
N 6.16901417 27.29290176 12.18028617 -0.00184106 -0.00639682 0.00360937
N 3.57766775 24.42157553 19.22241284 0.00481506 0.00480128 0.00086620
N 5.44131208 23.20822558 23.34488446 0.00171706 0.00718523 0.00053998
N 5.83198832 28.09241679 25.89291687 -0.00182226 -0.00155022 0.00481509
N 6.95618813 19.86673806 21.68107585 -0.00053135 -0.00407661 -0.00164523
N 5.07342084 22.56097603 19.51449308 0.00225861 -0.00101745 -0.00503753
N 4.05868429 24.92862647 23.84329647 -0.00092625 0.00502988 0.00299551
N 7.14161795 20.41752580 25.73460194 0.00267738 0.00622760 -0.00458411
N 5.38695369 27.73032874 20.90146743 0.00219724 -0.00039030 0.00092951
N 7.39474260 5.22331906 1.07663013 -0.00348671 0.00906089 -0.00049436
N 9.02332227 4.44831875 5.52712398 -0.00314204 0.00259400 0.00279029
N 9.27260793 9.13962362 8.12406683 -0.00061590 -0.00203889 -0.00233833
N 10.61032681 0.80138844 3.31391810 0.00521420 0.00413010 -0.00056645
N 8.83805370 3.48289847 1.24552374 0.00580996 -0.00217843 0.00078558
N 7.58606859 6.08603651 6.06959437 0.00127008 -0.00199406 0.00296944
N 10.79732736 1.20719291 7.56421633 -0.00278279 0.00252877 -0.00320543
N 9.57560334 8.19887864 3.19840897 0.00101625 0.00114199 -0.00259688
N 7.96124096 5.32116438 10.27131849 0.00169410 -0.00230690 -0.00396186
N 8.67946891 4.19995939 14.80416332 -0.00034435 -0.00774774 0.00236520
N 9.31154363 9.08593881 17.10979861 0.00219354 0.00341046 -0.00334679
N 10.81103970 0.90567765 12.55858457 -0.00104309 0.00477046 0.00041343
N 9.09424985 3.34331001 10.50860158 0.00338030 -0.00131966 -0.00680765
N 7.69893937 6.30394469 15.03523351 -0.00409276 -0.00350485 0.00232112
N 10.84150578 1.57435159 16.65309390 0.00565385 0.00421501 0.00185547
N 9.52808397 8.60402286 12.28320680 -0.00150692 0.00100692 -0.00525985
N 8.02080153 5.60982367 18.94062317 0.00409679 0.00112611 -0.00056951
N 9.13625329 3.82046487 23.68031253 0.00761771 -0.00441963 0.00026076
N 9.11763805 8.93438550 26.13334533 0.00180217 0.00357117 0.00456981
N 10.86259996 0.61981387 21.55779029 0.00117629 0.00019405 0.00255149
N 8.51329616 3.47214607 19.89290212 -0.00253351 -0.00045659 -0.00296678
N 8.02061262 5.81971096 24.21903912 -0.00276548 -0.00713755 -0.00386059
N 10.59492486 1.46813162 25.73656114 -0.00204918 0.00129191 0.00360591
N 9.75186275 8.19336806 21.41183983 0.00618846 0.00318968 0.00840052
N 7.32021572 15.18159736 1.28161251 -0.00080919 -0.00444969 0.00388825
N 8.86691395 13.32104606 5.88570000 -0.00301707 0.00344358 0.00831204
N 9.74013275 17.95402147 8.04894514 -0.00416456 -0.00332979 0.00157798
N 10.76086261 10.19527324 3.30329679 -0.00183256 -0.00232776 -0.00137282
N 8.49394093 13.13052501 1.67049101 0.00244269 -0.00257732 0.00605783
N 7.69478535 15.21000269 6.30688441 -0.00471024 -0.00379569 0.00164757
N 10.89374155 10.71036182 7.65935585 -0.00179128 -0.00105771 0.00034718
N 9.96499816 17.81403600 2.94296095 0.00057850 0.00317980 -0.00166739
N 7.55821738 15.08065733 10.37219348 -0.01280172 -0.00227126 -0.00531002
N 8.95867439 13.91318657 15.11888768 -0.00162633 0.00217719 0.00189363
N 9.45852961 18.30806203 17.11912854 -0.00882084 0.00079917 -0.00251027
N 10.81576197 10.40261232 12.92397016 0.00325024 -0.00058009 -0.00609776
N 8.86182758 13.20891402 10.47987427 0.00488311 0.00389172 -0.00686864
N 7.77803081 15.85735770 15.42631500 0.00136253 0.00210503 -0.00582973
N 10.66297519 10.97695933 17.08743279 0.00660484 -0.00099358 0.00221667
N 9.97435418 17.55979759 12.18508963 -0.00784630 0.00484770 -0.00375464
N 7.62999440 14.91172113 19.52607145 0.00590884 0.00022824 0.00057981
N 9.00044512 13.75475589 24.05199382 -0.00271783 -0.00059352 0.00014720
N 9.42654679 18.62807180 26.21862918 -0.00198250 0.00089226 -0.00148337
N 10.54616428 10.27054998 21.86088553 -0.00409751 -0.00952396 0.00035851
N 8.90815229 13.15837639 20.03885131 -0.00156402 0.00093955 -0.00598483
N 7.64017518 15.58318013 24.35072854 -0.00218675 -0.00273859 -0.00481892
N 10.34365107 10.84513757 25.75257315 0.00359261 0.00578031 -0.00506358
N 9.48431556 17.82353416 21.13392600 -0.00081338 -0.00440030 0.00225449
N 7.62517758 24.61848733 1.01160448 -0.00626712 -0.00005214 -0.00186241
N 9.03204481 23.46669023 5.71599553 -0.00269529 -0.00411968 0.00287786
N 9.49696444 28.02138992 7.96868989 0.00054235 -0.00150902 -0.00075486
N 10.89286194 19.83681264 3.32699134 -0.00337639 0.00767183 -0.00559413
N 8.78448579 22.66437047 1.32224733 -0.00245303 0.00283490 -0.00842104
N 7.73231437 25.35829840 5.87631254 0.00340449 0.00348307 -0.00155574
N 10.45216200 20.08943748 7.76439446 -0.00459397 -0.00492524 -0.00422603
N 9.29094033 27.57927208 3.13389320 -0.00231263 -0.00184945 -0.00086521
N 7.36905665 24.63826328 10.25159049 -0.00146507 0.00209495 -0.00510266
N 8.90358876 23.07825915 14.76578722 0.00111881 0.00106334 -0.00291134
N 9.37636475 28.40500341 16.94112400 -0.00687893 0.00638862 -0.00627683
N 10.38924428 19.80204699 12.56357244 -0.00190777 -0.00671895 -0.00446770
N 8.59360466 22.71494934 10.71373393 -0.00518993 0.00803204 0.00370043
N 7.88982379 25.06502728 15.15432084 -0.00283460 -0.00011333 -0.00040578
N 10.48953947 20.33827630 16.88993679 0.00499824 -0.00525953 -0.00126475
N 9.68483951 27.65910247 12.03231809 -0.00259156 -0.00384317 0.00177808
N 7.40445487 24.40941951 19.52784330 -0.00140466 -0.00325052 0.00033296
N 8.84411146 23.42583212 23.91449049 0.00154412 0.00060477 -0.00550115
N 9.43084917 28.19746924 25.99864684 -0.00136822 0.00879867 0.00103709
N 10.59591457 19.68460685 21.79230222 0.00470589 0.00025596 0.00444336
N 8.82268738 22.63040549 19.92376699 -0.00017389 -0.00380409 0.00119713
N 7.58178129 25.31355324 24.06795400 0.00015296 -0.00117374 0.00658723
N 10.71160200 20.50428653 25.64142345 0.00469754 -0.00044151 0.00716693
N 9.16495415 27.61325150 21.15366118 0.00015391 -0.00156628 -0.00171126
N 11.14891190 5.40702114 1.30985582 -0.00025159 0.00081837 0.00019105
N 12.62708648 4.27212537 5.79291880 0.00124108 -0.00173019 -0.00807760
N 13.05932248 9.06149249 8.17850906 0.00089968 0.00301551 0.00161781
N 14.40694214 1.06712455 3.41653841 -0.00157476 -0.00224609 0.00206925
N 12.55198157 3.55858976 1.78699141 -0.00445131 -0.00390078 0.00155082
N 11.87630965 6.48737074 6.13896360 0.00654951 -0.00779465 -0.00134343
N 14.24642381 1.45365370 7.82280307 0.00501499 -0.00498510 0.00032800
N 13.22899707 8.34318188 3.25799749 0.00365888 -0.00144478 -0.00253947
N 11.15620447 5.60730765 10.40060038 0.00595455 0.00752962 -0.00069461
N 12.18199856 4.23940081 14.38981523 0.00304883 -0.01353364 -0.00320682
N 13.24921453 9.02404287 17.18230871 0.00836971 0.00726673 -0.00192355
N 14.49908600 0.52771650 12.55687001 -0.00379731 -0.00611401 0.00605176
N 12.73341633 3.90732400 10.75574936 -0.00687988 -0.00069406 -0.00305934
N 11.57405152 6.29149589 15.22887252 0.00044264 0.00186070 0.00161380
N 14.36741327 1.58522423 16.68837075 0.00694401 -0.00531184 -0.00090251
N 13.22485469 8.60631572 12.00106321 0.00020920 0.00209104 0.00627005
N 11.44467384 5.37677837 19.21579399 -0.00140917 0.00061531 0.00266025
N 12.95446516 4.04733816 24.04821129 -0.00043837 0.00677778 -0.00546352
N 12.69104100 8.83926723 26.18253622 -0.00077006 0.00700996 -0.00422960
N 14.62022434 0.70105674 21.54416252 0.00010844 -0.00041603 -0.00566563
N 12.62867691 3.44970736 19.55006621 -0.00074556 -0.00396509 -0.00665571
N 11.76391404 5.74938663 24.51493798 -0.00789339 -0.00662251 -0.01116273
N 14.59567185 1.00308585 25.68105669 -0.00473801 -0.00255745 0.00301295
N 13.23187040 8.03564533 21.56452429 -0.00650395 -0.00108667 0.00951646
N 11.33855920 15.19649890 0.95335779 -0.00274422 -0.00486090 0.00596949
N 12.79661982 13.70234715 5.59401404 0.00272764 0.00450478 0.00323320
N 13.23018508 18.29327965 7.98934673 0.00313419 -0.00565278 0.00187770
N 14.55761657 10.20454944 3.41814046 0.00284381 0.00030341 -0.00061264
N 12.40468064 13.07003686 1.18128906 -0.00483700 -0.00033088 -0.00078586
N 11.42211778 15.55017169 5.86115431 0.00374998 -0.00061038 -0.00148531
N 14.46501906 10.83687132 7.61285795 0.00695731 -0.00697413 -0.00425477
N 13.13942381 17.70919876 2.94795936 -0.00436077 -0.00315681 -0.00177600
N 11.61539449 14.80036029 10.07781984 -0.00741663 0.00234678 0.00194426
N 12.43831874 13.52602424 14.69419626 -0.00264270 -0.00139147 0.00154184
N 12.86178682 18.53806735 16.74344807 -0.00148491 0.00033452 -0.00073217
N 14.71046296 10.13950868 12.86910967 0.00425148 -0.00333250 0.00219664
N 12.48460844 12.75184092 10.72176530 -0.00232216 -0.00083009 -0.00234733
N 11.41463581 15.62181483 15.17140071 0.00257638 0.00147389 -0.00072657
N 14.62767496 10.81094006 16.84357452 0.00018866 0.00857267 -0.00149288
N 13.03078289 17.67400033 11.89395496 -0.00245760 0.00417830 0.00028702
N 11.22899402 15.30267539 19.24795178 0.00057483 0.00166502 0.00901024
N 12.34304179 13.52251478 23.98631755 -0.00307911 0.00183427 0.00338840
N 13.56710223 18.35953491 26.04384520 -0.00202914 -0.00006088 -0.00667859
N 14.33923547 10.14480480 21.62758288 0.00078347 -0.00658567 -0.00039166
N 12.47979521 13.35163549 19.64527591 -0.00024921 -0.00289850 0.00181220
N 11.63424115 15.74289619 24.31366359 0.00138903 0.00398194 0.00649847
N 14.06350582 10.66299052 25.83020066 0.00087768 0.00094454 -0.00730078
N 13.07686211 18.04089797 21.20083433 -0.00207747 -0.00224977 -0.00330802
N 11.29276814 24.77372798 1.49134582 -0.00720615 -0.00439597 -0.00108398
N 12.72409904 23.43607908 5.96506161 -0.00412606 -0.00460918 0.00933774
N 13.17276155 28.08087131 7.89642492 0.00527475 -0.00055698 -0.00089239
N 14.34725685 19.70973692 3.45289629 -0.00039633 0.00258842 -0.00466663
N 12.44871189 22.75389034 1.34514384 -0.00260270 0.00217471 -0.00290812
N 11.38875746 25.33994523 6.09760549 -0.00509332 0.00009234 -0.00643182
N 14.25230170 20.34441670 7.70754222 0.00142962 0.00472442 0.00276601
N 13.10582346 27.83245786 3.44795332 0.00116645 -0.00293935 -0.00797527
N 11.20289830 24.67338280 10.24239878 -0.00417801 0.00480556 0.00039681
N 12.59986671 23.41797457 14.80505484 0.00256124 -0.00647349 -0.00198869
N 13.17200500 28.34065031 17.27682958 -0.00259257 0.00766315 -0.00133614
N 14.22848064 19.58959843 12.30428674 0.00227663 0.00062772 -0.00118402
N 12.39462935 22.65635024 10.50160125 0.00364817 0.00209414 0.00280827
N 11.29611009 25.34765937 15.00030026 0.00141499 0.00084515 0.00000368
N 14.13048483 20.48158636 16.66615845 -0.00769888 0.00363011 0.00507210
N 13.27625783 27.29443123 12.20508214 -0.00399557 0.00644121 0.00078592
N 11.38530727 24.58690204 19.64009399 0.00329270 -0.00401671 -0.00262663
N 12.65574694 23.44477055 24.20111422 0.00008122 0.00302224 -0.00437948
N 13.04290768 28.13609327 26.22460932 0.00729044 -0.00351404 0.00255294
N 14.56821440 19.80880791 21.42402544 -0.00053859 -0.00387514 -0.00476920
N 12.45847780 22.55693940 19.75317644 -0.00537474 0.00275740 0.00320967
N 11.15798269 25.22294303 24.17983323 0.00354108 -0.00107231 0.00098355
N 14.42810117 20.46818358 25.76212880 -0.00047110 0.00030651 0.00031412
N 13.35749521 27.49151693 21.35624449 0.00325142 -0.00150733 -0.00771337
N 15.13571460 5.76216380 1.09698664 -0.00201951 0.00408600 -0.00128847
N 15.95407239 4.29806158 5.36876307 -0.00228843 0.00611639 0.00504313
N 17.10572658 8.81183531 7.88045305 0.00002604 -0.01006380 0.00111553
N 17.56741390 0.55319128 3.12722261 0.00229897 0.00478239 0.00021869
N 15.91673095 3.60540709 0.99862501 0.00154337 -0.00119655 -0.00402593
N 14.95562072 6.36237408 6.13360053 0.00413359 0.00363526 0.00037423
N 17.92816158 1.34446335 7.47100470 -0.00446524 0.00179911 -0.00490894
N 16.89419124 7.98162425 3.23380664 -0.00668901 -0.00329254 0.00010230
N 15.54299241 5.70854621 10.22818922 0.00512573 0.00796206 0.00808327
N 16.32734928 4.24098619 14.60321365 0.00351289 -0.00308667 0.00052632
N 16.76834837 8.89474800 16.92290662 0.00006727 -0.00081374 0.00494747
N 18.56386245 0.50292227 12.45154936 -0.00173945 0.00045121 -0.00374214
N 15.83382249 3.37870104 10.61928159 -0.00411406 0.00773487 0.00477624
N 15.18985467 6.32338859 14.97927135 -0.00761766 0.00004500 -0.00099948
N 18.19825345 1.27158657 16.63108683 0.00494561 0.00739892 0.00022905
N 17.17795418 8.65612707 12.01677025 0.00728414 -0.00302546 -0.00137449
N 15.27164061 5.48279567 19.56049074 0.00201049 -0.00326449 -0.00472735
N 16.45586302 4.18164724 23.95669195 -0.00869574 0.00235891 0.00046357
N 16.77801819 8.98022109 26.13383624 0.00532066 -0.00185683 0.00195380
N 18.01531594 0.69837044 21.41432134 0.00000913 0.00000271 -0.00033223
N 16.23286629 3.45351711 19.57331092 0.00563121 0.00403493 0.00356746
N 14.99516426 5.97624233 24.18107713 -0.00154043 0.00206768 0.00107398
N 18.13040705 1.29718957 25.79269431 -0.00506852 -0.00425098 0.00162961
N 16.79187809 8.41783864 21.43198667 -0.00016264 -0.00087721 -0.00440123
N 15.13294101 15.17103902 0.87730968 -0.00367096 0.01012701 -0.00055697
N 16.50623929 13.72320211 5.29364933 0.00115911 -0.00611201 -0.00583136
N 16.87661568 18.20495775 8.02305092 -0.00870654 0.00508583 -0.00164608
N 18.05841575 10.11448073 3.27262382 0.00221025 0.00678474 -0.00157746
N 16.03760711 13.09783433 1.34183018 0.00076442 0.00204511 0.00013325
N 15.17056645 15.52691331 5.99115837 -0.00016895 0.01028779 0.00279469
N 17.76421506 11.07887905 7.51580941 -0.00190915 0.00561204 0.00199857
N 16.68002080 17.64910612 3.19505682 -0.00161965 0.00356947 0.00338675
N 15.13778350 15.02441223 9.82876903 0.00399215 -0.00052909 -0.00064414
N 15.99761898 13.57554291 14.35399268 -0.00352506 -0.00319053 0.00436728
N 16.60394569 18.52750624 16.76971745 -0.00176284 0.00465630 0.00425988
N 18.24839921 10.63985041 12.60329349 -0.00570699 0.00122983 0.00232918
N 16.42779870 13.15255553 10.47248909 -0.00669441 -0.00028224 0.00080009
N 15.09517508 15.64487058 14.74070219 0.00138345 -0.00317250 -0.00329428
N 18.33483965 10.60751399 16.71948375 0.00195094 0.00029907 -0.00156364
N 16.81445512 17.91465198 12.08454964 -0.00179892 0.00352279 -0.00285589
N 14.77502676 14.84987189 19.10177742 -0.00041085 -0.00615229 0.00616195
N 16.05442407 13.59019750 23.53850134 0.00032045 -0.00121064 0.00709268
N 16.84361424 18.23604449 26.28264185 0.00011484 0.00011620 0.00114578
N 18.30880251 10.19245009 21.53503909 0.00548235 -0.00191654 -0.00193081
N 15.95810372 13.02259326 19.71009313 -0.00392231 0.00445625 -0.00335041
N 14.91189696 15.50323886 24.02598734 0.00245266 -0.00028457 -0.00140332
N 17.99305203 10.95984873 25.91868952 -0.00359217 0.00216694 -0.00124461
N 16.87042084 17.96202943 21.06197667 0.00291464 -0.00386752 -0.00181259
N 14.74679423 24.51454864 1.34240259 0.00972695 0.00278075 0.00020979
N 16.63111948 23.06544474 5.87694276 -0.00054845 -0.00387182 0.00134366
N 16.46973823 28.17725700 7.65253141 -0.00083597 0.00277935 -0.00509278
N 17.93238505 19.61700982 3.78251904 0.00339443 -0.00466336 0.00437091
N 16.13063319 22.61752649 1.48835393 -0.00649451 -0.00322219 -0.00318669
N 15.34631599 25.00546451 6.06339490 0.00270269 0.00056736 0.00254571
N 18.02594056 20.17127805 7.97281519 -0.00206743 0.00016840 0.00735648
N 16.80762055 27.05642069 2.88070285 0.00701014 0.00783961 -0.00417944
N 14.85872827 24.41896744 10.66212708 -0.00477458 0.00402683 0.00498791
N 15.97643082 23.53517989 14.72371246 -0.00393419 0.00457678 0.00072324
N 16.80865666 28.16577169 16.72735584 -0.00283299 0.00421375 0.00426575
N 18.23645812 19.63199791 12.56900323 -0.00088436 -0.00285686 0.00692710
N 16.11744015 22.47150894 10.66844196 0.00202329 0.00082822 -0.00522376
N 14.94886261 25.49886299 15.23414128 0.00369908 -0.00021981 -0.00138089
N 17.51261896 20.63320229 16.66008384 -0.00031810 -0.00404462 0.00098509
N 17.64117929 27.14984282 11.88439896 0.00300016 0.00640857 0.00159878
N 14.79325962 24.57735655 18.95606870 0.00363120 0.00991927 -0.00315543
N 15.97166259 23.22780668 23.90867808 -0.00281285 0.00466622 -0.00420930
N 16.87005596 27.99083909 25.85137954 0.00369920 0.00315722 0.00084290
N 18.05488830 19.86750842 21.51837241 -0.00155732 -0.00457662 -0.00228583
N 16.14103324 22.93725414 19.93681160 0.00101070 -0.00057106 -0.00004825
N 15.19716229 25.32902292 24.11474779 -0.00781717 0.00060310 -0.00064584
N 18.00375963 20.18021957 25.86516988 0.00483632 -0.00821366 0.00714536
N 16.79513094 27.51263451 20.89184855 0.00531415 0.00265781 0.00252372
N 18.51776650 5.17774526 1.08552315 -0.00688803 -0.00054378 -0.00067950
N 19.93960276 3.82893408 5.78274769 0.00134611 0.00544871 0.00181168
N 20.72556101 8.83686420 8.13569444 0.00339652 0.00330657 0.00110570
N 21.89373897 0.43522824 3.96053314 0.00325547 0.00220995 -0.00940075
N 19.76342269 3.28743528 1.55552832 0.00364687 0.00144072 0.00076042
N 18.49342865 5.50091912 6.40204823 -0.00452642 -0.00446104 -0.00055097
N 21.71367283 1.08749875 8.06925388 0.00277022 -0.00892568 -0.00570262
N 20.51545279 8.13449272 3.31550058 -0.00046847 -0.00477578 -0.00203334
N 18.53749299 5.61139127 10.48316019 -0.00553736 -0.00849185 -0.00350954
N 19.84442415 4.01701244 14.76858416 0.00500854 0.00159077 -0.00156140
N 20.88190850 8.85665329 17.17810419 -0.00357443 0.00295479 -0.00262473
N 21.78415785 0.51674480 12.42459172 -0.00113523 0.00052372 0.00096429
N 19.94692285 3.81067883 10.62306887 0.00268665 -0.00099751 0.00207533
N 19.02659542 6.11738844 15.17284527 0.00355086 -0.00056212 -0.00187743
N 21.74964826 1.15568651 16.71331532 -0.00324805 -0.00237999 0.00583921
N 20.88096234 8.20982830 12.16760924 -0.00113983 0.00333724 0.00263518
N 18.81700660 5.36090617 19.37222490 0.00014305 0.00253896 -0.00005597
N 19.86828389 3.97897909 23.87339888 0.00670272 -0.00051906 -0.00676399
N 20.53771045 9.02333218 26.11113910 0.00136010 0.00028837 -0.00089049
N 21.47486904 0.49338341 21.96012876 0.00058347 -0.00735269 0.00082579
N 20.00127258 3.44615842 19.82608249 -0.00135733 -0.00115701 0.00097769
N 18.81859188 5.93492910 24.26853971 -0.00150824 -0.00239076 -0.00170518
N 21.76614830 1.02385976 25.79195476 -0.00440310 0.00714249 -0.00336649
N 20.70675932 8.50928234 21.31215205 -0.00029028 0.00001286 -0.00577043
N 18.57279891 15.01237032 1.33585537 0.00291572 0.00164707 0.00523033
N 19.94746071 13.63156377 5.71895930 -0.00194689 -0.00483312 -0.00219495
N 20.74770583 18.17813961 7.82154066 0.00035782 0.00275536 -0.00073897
N 21.69715019 10.11885797 3.40851452 0.00908569 0.00318633 0.00188731
N 19.80976510 13.08910504 1.61229725 0.00241057 0.00126219 0.01192995
N 18.69422175 15.48884503 5.69415354 0.00412078 0.00165412 -0.00259785
N 21.71444262 10.87456462 7.74522128 0.00133558 0.00311941 0.01288170
N 20.64453868 18.10632685 2.80522484 0.00504661 0.00097045 0.00471485
N 18.80830945 15.33255352 10.33722018 -0.00143206 -0.00320389 0.00118308
N 20.00062978 13.88459994 15.01880830 0.00230691 0.00066131 0.00680376
N 20.09803656 18.78193410 17.05717296 -0.00386560 0.00246202 0.01269667
N 21.51634140 10.39476338 12.55500090 -0.00544751 -0.00603729 0.00015015
N 20.05235031 13.44922496 10.71829923 -0.00422170 0.00040274 -0.00685969
N 18.45646230 15.58893227 15.21651920 0.00241677 -0.00498229 -0.00002493
N 21.79707753 10.88162939 16.75657920 -0.00843031 -0.00547022 0.00029239
N 20.70380447 17.87702400 12.34177629 0.00390939 0.00002652 0.00171783
N 18.55614775 15.11685106 19.40357738 0.00965613 0.00004043 0.00060580
N 19.80944510 13.62396096 24.09969008 -0.00254727 0.00141828 0.00389191
N 20.25797679 18.37743899 26.27004895 0.00373673 0.00537888 0.00027144
N 0.07160391 10.30593894 21.53544718 0.00114053 0.00534018 -0.01004572
N 19.72277811 13.17980367 19.75660890 -0.00083534 -0.00300853 -0.00580256
N 18.40198752 15.55872867 24.12612370 -0.00000316 -0.00654605 -0.00745652
N 21.81914829 10.93317957 25.89487802 -0.00857778 0.00082456 0.00129950
N 20.56874602 17.96499318 21.22344110 -0.00361079 0.00179975 -0.00203026
N 18.98648631 24.39756656 1.26111398 -0.00375530 -0.00142952 0.00247822
N 20.10394918 23.13997000 5.86577806 0.00576781 -0.00362393 -0.00096851
N 20.17536897 28.01558800 8.33073961 -0.00083489 0.00054271 -0.00215266
N 21.88759402 19.96237215 3.28779603 0.00434990 -0.00192948 0.00518695
N 19.70893733 22.22357881 1.65685728 0.00528212 0.00272144 -0.00161270
N 18.93269213 25.14959772 6.11327216 0.00098504 -0.00039894 0.00119402