1728
Time=33000.00000001 pbc="T T T" Lattice="22.09451111 0.00000000 0.00000000 0.00000000 28.90709021 0.00000000 0.00000000 0.00000000 27.38115210" energy=-10388.99418426 virial="22.50533246 0.75598173 1.65821810 0.75598173 27.75888341 27.04911667 1.65821810 27.04911667 -6.57897109" stress="0.00359526 0.00007422 -0.00001049 0.00007422 0.00397523 0.00147167 -0.00001049 0.00147167 0.00246440" Properties=species:S:1:pos:R:3:vel:R:3
N 0.13935559 5.63361768 1.02115938 0.00059349 -0.00676547 -0.00863271
N 1.65152398 4.17722696 6.02449640 -0.00121168 0.00178120 -0.00104248
N 2.40039946 9.20436046 8.01661240 -0.00272051 -0.00267142 -0.00476735
N 3.65066147 0.84110609 3.88285590 -0.00149246 -0.00126410 0.00378718
N 1.30159189 3.78957693 1.49849797 -0.00072269 -0.00555272 0.00029917
N 0.23367233 6.05264784 5.91616057 0.00472472 -0.00142345 -0.00727088
N 3.12276322 1.07003861 7.58541151 -0.00212855 -0.00414279 0.00239404
N 2.00229941 8.52359819 3.11705411 0.00084900 0.00214831 -0.00344126
N 0.32388109 5.35718902 10.39193570 0.00396430 -0.00217954 0.00352726
N 1.49458034 4.16421291 15.19112408 -0.00333818 -0.00077200 -0.00252516
N 1.95458367 9.10996124 17.00416040 0.00285582 -0.00151497 0.00336328
N 3.43079821 0.70779428 12.60755362 0.00409164 0.00758156 0.00043643
N 1.29831801 3.32118353 10.64619603 -0.00280730 -0.00320735 -0.00376762
N 0.17998632 6.06825237 15.21690270 0.00049811 -0.00026781 -0.00300429
N 3.06968844 1.36668666 17.23621489 0.00300799 0.00087312 -0.00221810
N 2.30919109 8.48775448 12.31730649 0.00051500 -0.00275923 -0.00368255
N 0.06667459 5.48060831 19.52322386 0.00102954 0.00255767 0.00434526
N 1.51041499 4.27331212 23.83456163 0.00096984 -0.00678092 -0.00410133
N 2.15833149 8.76997970 26.24512938 0.00136132 0.00241844 0.00542403
N 3.52623159 0.68940751 21.66789494 0.00424345 -0.00408833 0.00624587
N 1.24226243 3.43813578 19.68404657 0.00056627 0.00657996 -0.00044822
N 0.24679922 6.21175477 24.42194317 0.00072539 0.00317280 0.00429591
N 3.09025009 1.42684896 26.07804047 -0.00430217 0.00239783 -0.00159702
N 1.96477370 8.72571196 21.21430756 0.00263873 -0.00225989 0.00015561
N 0.53112163 15.47641133 1.00053014 -0.00727161 0.00574454 0.00213017
N 1.39419538 13.66262302 5.35525826 0.00327703 -0.00291660 -0.00011589
N 2.32530603 18.26060173 8.28387352 -0.00370182 -0.00384322 -0.00432075
N 3.40555128 10.47618069 3.20624631 -0.00226281 0.00963445 -0.00147216
N 1.27593055 13.29553588 1.49989080 0.00601031 -0.00648728 0.00027001
N 0.30295336 15.58096672 6.13742020 0.00102781 -0.00034459 0.00001177
N 3.14071448 11.36742965 7.83209446 0.00576123 0.00054854 0.00229382
N 2.47150592 17.98920808 3.31336817 -0.00617052 -0.00405721 -0.00080963
N 22.08563166 15.09904971 10.37925491 -0.00095538 0.00567283 0.00149513
N 1.65017416 14.10388782 14.93796156 -0.00122584 0.00428581 0.00703937
N 2.11337949 18.30043630 17.12904762 -0.00379823 0.00618983 0.00216912
N 3.41226016 10.52879144 12.54973329 -0.00656360 0.00562496 -0.00382433
N 1.30280792 13.23285009 10.64267391 0.00264418 0.00128333 0.00258309
N 0.26723593 15.84247810 15.02495316 0.00258466 -0.00466848 0.00331618
N 3.22393329 11.01164051 16.84729419 -0.00059019 -0.00640500 -0.00350678
N 1.81798407 18.11936460 12.12158188 -0.00485282 0.00142280 0.00051486
N 0.29292451 15.32953608 19.29956455 -0.00048551 -0.00188342 -0.00235905
N 1.59463800 13.93956863 23.93120387 -0.00683037 0.00237639 0.00330221
N 2.29981186 18.67685581 26.90786535 0.00227901 -0.00231461 0.00740706
N 3.25239765 10.46050256 21.63367542 0.00451282 0.00392832 -0.00254011
N 1.66504006 13.48834190 19.20711102 0.00020619 0.00198374 -0.00242958
N 0.67357339 15.95009516 24.13831344 -0.00643541 -0.00511519 -0.00342672
N 3.27816950 10.71511983 25.93322398 -0.00440338 -0.00080400 0.00013825
N 1.96366376 18.12353083 21.38227210 -0.00252145 -0.00182214 -0.00204431
N 0.87062233 25.13568138 1.05725781 0.00418646 -0.00373745 -0.00183316
N 1.64262583 23.30991035 5.77506892 -0.00335080 -0.00545620 0.00313005
N 1.66219290 28.16088885 8.11138549 0.00263646 0.00163586 0.00303202
N 3.68273781 19.96144706 3.71208323 0.00512621 0.00243267 -0.00080068
N 1.56059205 23.16725671 1.80913992 -0.00252323 -0.00097237 0.00087312
N 0.69242906 25.29608076 6.41923044 -0.00376237 0.00931753 -0.00063444
N 3.03940587 20.39028358 7.83118086 -0.00174012 -0.00150524 0.00005387
N 2.63242299 27.81462794 3.07456149 0.00072792 0.00934559 0.00269339
N 0.49056724 24.79739721 10.14468586 -0.00278693 -0.00285283 0.00091752
N 1.74065181 23.61493436 14.72498537 -0.00097572 -0.00320558 0.00131002
N 1.80805835 28.33488470 17.07005756 0.00066471 0.00225988 0.00180883
N 3.40672308 19.77550992 12.50939854 0.00351418 0.00579638 -0.00034213
N 1.41773240 22.71798893 10.57565535 -0.00845019 -0.00018357 0.00190446
N 0.29777667 25.24664985 15.28761578 0.00299718 0.00454043 -0.00412601
N 3.41325620 20.16865457 16.63596843 0.00077734 0.00114807 0.00493936
N 2.33066914 27.64548129 12.03011473 0.00269341 0.00456505 0.00148996
N 22.06309267 24.75183452 19.34767696 0.00085005 -0.00497916 0.00464050
N 1.60882990 23.37661934 23.99056106 -0.00227774 -0.00417357 0.00065596
N 1.73553803 28.39796442 26.33808747 0.00120210 0.00392427 0.00034393
N 3.66882969 19.76351549 21.76177306 -0.00069885 0.00483702 0.00694595
N 1.35239947 23.04681468 19.91566374 0.00613022 -0.00518696 -0.00080517
N 0.38619916 25.33950373 24.31853128 0.00104938 0.00239726 0.00251519
N 3.73235478 20.31781841 26.07004662 0.00148588 0.00013302 -0.00042151
N 2.39456095 27.63576837 21.35027786 -0.00319807 -0.00186999 0.00269477
N 3.67728457 5.39325014 1.37682619 -0.00451058 -0.00140504 0.00568146
N 5.20844036 4.17179564 5.95984302 -0.00107719 -0.00179258 0.00548432
N 5.62180673 8.74181490 7.80831037 -0.00982816 -0.00164810 0.00530291
N 7.37429576 0.74505969 3.39028576 0.00261622 -0.00367066 0.00038591
N 5.32919725 3.85479695 1.87843089 -0.00492083 -0.00284680 0.00552338
N 4.00423674 6.07669088 6.14949178 -0.00293697 0.00273557 0.00530407
N 6.82023551 1.08819755 7.74437166 0.00544718 -0.00316471 -0.00274133
N 5.91676768 8.50409051 3.17289555 0.00232405 -0.00329033 0.00070861
N 3.48828893 5.30538402 10.58505643 0.00219769 0.00233038 0.00350257
N 5.01641548 4.20419449 14.85427406 -0.00060511 -0.00252926 0.00613165
N 5.39085678 9.07687741 17.17853237 0.00202268 -0.00541515 -0.00037186
N 7.12743200 0.51427514 12.35314896 -0.00000669 -0.00351171 -0.00054692
N 5.14842201 3.64604580 10.47101794 -0.00032986 0.00163317 -0.00901891
N 3.78854417 6.14323980 15.29089456 -0.00407984 -0.00199088 0.00740400
N 7.00196836 1.10088131 16.79920506 -0.00378507 -0.00048103 0.00045862
N 5.60162225 8.58447649 12.12138091 0.00035389 -0.00480271 0.00346906
N 3.98874388 5.82268330 19.73631289 -0.00301219 -0.00133928 -0.00524301
N 5.43143181 4.36241310 24.12643747 0.00282476 -0.00128265 0.00507260
N 5.76643365 9.09653894 26.07945406 0.00501993 -0.00211394 -0.00004768
N 6.89789005 0.81622382 21.69077909 -0.00256709 0.00722281 -0.00149363
N 5.01250343 3.76225520 19.91398230 -0.00676407 -0.00857276 -0.00164490
N 3.84933678 6.00387413 24.34355068 0.00466809 0.00720255 0.00153536
N 7.02182758 1.17937473 26.10899778 0.00015710 -0.00384074 0.00583534
N 5.83171986 8.72628461 21.43487384 0.00903543 0.00541748 0.00114723
N 3.68042477 15.20805386 0.76560312 -0.00053635 -0.00034094 0.00213545
N 4.95658253 13.45523246 5.64196215 0.00532792 0.00000001 0.00095407
N 5.45915078 18.75255257 7.73527186 -0.00646050 0.00232425 0.00790390
N 6.98438469 10.47118329 3.48386144 -0.00129992 0.00229440 0.00281663
N 5.13475257 13.38720966 1.49629007 0.00297368 0.00450457 0.00167999
N 4.09911992 15.59909816 6.03068319 -0.00004647 0.00388534 -0.00082621
N 6.90645467 10.58480049 7.84326506 0.00154406 -0.00136629 -0.00305168
N 6.14560941 18.03874797 3.35524711 -0.00213217 -0.00036077 0.00126734
N 3.89472173 15.14240716 10.32654618 0.00408658 0.00148956 0.00135338
N 5.72040126 13.95962698 14.95525020 0.00959759 0.00018687 0.00024298
N 5.90531162 18.45173379 17.29780432 -0.00152297 -0.00559551 -0.00221179
N 7.26674265 10.07671997 12.92703329 0.00354020 -0.00339348 0.00140615
N 5.22876412 13.33589922 10.89141843 0.00504966 -0.00276653 0.00008350
N 4.08584907 15.73925195 15.05910246 -0.00663364 0.00028002 0.00290215
N 7.03164982 10.59382481 16.75497908 -0.00120694 -0.00054018 -0.00392645
N 5.78301694 17.84645683 12.40730871 0.00348199 -0.00098724 0.01125772
N 4.12231464 15.24494875 19.62833633 0.00202312 -0.00228417 -0.00126476
N 5.14395304 13.75442695 24.19665266 0.00440442 -0.00340084 -0.01390430
N 5.95895481 18.58869045 26.38082239 -0.00497953 0.00716925 0.00500306
N 6.91191897 10.74448010 21.65454666 -0.00477199 0.00340739 0.00655952
N 5.19836525 13.24117577 19.96912332 0.00076224 0.00633489 -0.00057579
N 4.10884041 15.88644692 24.29914321 -0.00428649 0.01058006 -0.00090589
N 6.93404828 10.98762428 25.90422810 0.00597732 0.00111186 -0.00537044
N 5.78681150 17.86066924 21.56514214 -0.00592818 0.00124716 0.00167378
N 4.08410860 24.96311792 0.87892812 -0.00829083 -0.00265419 0.00323543
N 5.48063954 23.51817895 5.43284161 -0.00876344 0.00397051 0.00281129
N 5.69898275 28.11696836 7.85576759 0.00407946 -0.00256235 -0.00261903
N 7.27783870 20.00668991 3.68122241 -0.00304274 -0.00667455 0.00004161
N 5.27754894 23.11604421 1.58086964 0.00303289 -0.00404396 0.00176847
N 4.05307558 25.28753734 5.83421788 -0.00116549 -0.00345739 0.00043336
N 6.95716051 20.49792340 7.46671929 0.00102275 0.00063894 0.00468039
N 6.09016972 27.72433381 3.09356896 -0.00014941 -0.00514399 -0.00596227
N 3.70301240 24.72324329 10.24059302 0.00274233 -0.00265651 -0.00207826
N 5.48276263 23.59986754 14.74670433 0.00666966 -0.00244978 0.00593696
N 5.52419801 28.19693318 16.98341455 -0.01016876 0.00387636 0.00753311
N 6.93972672 19.78171508 12.63911579 0.00450622 0.00044721 -0.00313474
N 5.08816600 22.86032753 10.42032066 -0.00279920 0.00696909 -0.00065932
N 4.11024984 25.46368115 15.10913654 -0.00306190 0.00415141 -0.00337458
N 7.15339856 20.43992381 16.97762683 0.00226642 -0.00064358 -0.00230571
N 5.68469074 27.60250101 12.08127666 0.00253593 0.00059263 -0.00120656
N 3.88905066 24.29286913 19.55200541 0.00157469 0.00271581 0.00195926
N 5.22127756 23.30786518 23.79129998 -0.00113517 -0.00721674 0.00394209
N 5.68385510 28.25659465 26.53589182 -0.00008267 -0.00550403 0.00292321
N 7.06193543 19.82086157 21.90482052 -0.00242275 -0.00425041 -0.00307984
N 5.47335849 22.59590201 19.68581718 0.00387981 -0.00159124 -0.00452778
N 4.01894126 25.21323569 24.23615687 0.00314361 -0.01008811 -0.00200233
N 7.12197262 20.61625056 25.98927671 -0.00566435 0.00315944 -0.00124000
N 5.80727777 27.71846977 21.15558534 -0.01100707 -0.00346456 -0.00803233
N 7.58294044 5.62297504 1.06616859 -0.00350112 -0.00128168 -0.00147118
N 8.86145879 4.16226970 5.75419345 0.00012287 -0.00633687 0.01257386
N 10.22114023 9.04582522 7.82696641 -0.00197499 0.00255545 -0.00255351
N 11.07277100 0.47761586 3.40369294 0.00433986 0.00694454 0.00262712
N 8.88130861 3.63456682 1.44507725 -0.00572628 -0.00383304 -0.00027236
N 7.80085979 6.27168494 6.01473115 -0.00123120 0.00489766 0.00358005
N 10.54390770 1.61172049 7.46544951 0.00377772 -0.00043649 0.00120317
N 9.95057234 8.18963764 3.02945241 0.00050012 -0.00617379 0.00222756
N 7.52051656 5.53914562 10.45425963 -0.00567172 0.00056531 -0.00106632
N 8.50911743 4.07268239 15.04495858 0.00173275 -0.00120481 -0.00165131
N 9.47211809 8.52063762 16.72291667 -0.00087202 -0.00455778 0.00309168
N 10.66619876 0.54365535 12.30784281 -0.00533275 -0.00201048 -0.00145036
N 8.80117895 3.65691204 10.68501234 -0.00025123 -0.00347069 0.00317919
N 7.54276633 6.10873739 15.14033744 0.00585421 -0.00507106 -0.00205547
N 10.46251275 1.20090551 16.55346389 0.00177523 0.00062543 -0.00389655
N 9.65401931 8.50536575 12.09903407 -0.00550818 0.00731634 -0.00237940
N 7.75610400 5.44986828 19.51051282 0.00160396 -0.00598191 -0.00348530
N 8.71102953 4.16584706 24.11628118 -0.00462425 -0.00736335 0.01095108
N 9.47155134 8.95442310 26.10692186 -0.00022170 0.00365334 -0.00552500
N 10.76041464 0.44034069 21.81986883 0.00437258 -0.00106138 0.00047071
N 8.92104795 3.49007790 19.54728872 -0.00617351 0.00323008 -0.00519626
N 7.94313184 6.27510330 24.35816850 0.00466759 -0.00122838 -0.00399171
N 10.41551744 1.30217080 25.94743260 -0.00131169 -0.00287689 -0.00146797
N 9.47545791 8.26694681 21.23389563 -0.00212858 0.00120549 0.00942345
N 7.92648699 15.00909205 1.14564462 0.00008626 0.00457403 -0.00302363
N 8.99565197 13.54279595 5.93198188 -0.00419773 -0.00880890 -0.00354969
N 9.49883159 18.64549492 7.94117858 -0.00041889 0.00266087 -0.00359595
N 10.72693115 10.32041742 3.26594583 -0.00052194 -0.00861803 -0.00569103
N 9.03558502 13.10675719 1.55041668 -0.00555871 -0.00181371 -0.00380621
N 7.95152441 15.61116154 6.04979025 -0.00539361 -0.00328053 0.00432634
N 10.82537825 11.17029375 7.11587266 -0.00081896 0.00106747 0.00013888
N 9.77472480 17.94642272 3.28154255 -0.00354452 -0.00540685 0.00047249
N 7.62245320 14.97658624 10.48650006 -0.00312897 -0.00665236 -0.00089034
N 9.21998479 13.95098933 15.01702757 -0.00155729 -0.00819178 -0.00337471
N 9.44309371 18.67255412 16.85092116 -0.00205019 -0.00477860 -0.00274409
N 10.94231778 10.36712753 12.36189818 -0.00347676 -0.00223759 -0.00166661
N 8.82195035 13.11531712 10.38866400 -0.00019620 0.00154088 -0.00575801
N 7.97813054 15.87893946 15.08473592 0.00387844 -0.00538431 0.00299066
N 10.41441790 10.55012532 16.29261294 -0.00268157 -0.00070820 0.00574250
N 10.44725746 17.86367449 11.92562378 -0.00396158 -0.00298289 -0.00191873
N 7.64508621 15.17869259 19.23057369 -0.00012571 0.00012370 -0.00110560
N 8.77777163 13.82529562 23.78890647 0.00091220 0.00727953 0.00227245
N 9.51117534 18.65480167 25.92910039 -0.00348477 0.00666214 0.00517160
N 10.61506199 10.34852473 21.49864858 -0.00240837 -0.00236232 -0.00251872
N 8.98252948 13.35555845 19.70550943 0.00163213 -0.00150727 -0.00143741
N 7.76828357 15.79634726 24.28253778 0.00258851 0.00126081 -0.00181750
N 10.68087045 10.89071660 25.86720248 0.00403688 0.00441627 0.00286538
N 9.55327206 17.91846221 21.41173608 0.00327067 0.00156792 -0.00208214
N 7.76920735 25.08725295 1.47663063 -0.00187438 0.00128269 -0.00108487
N 9.16006253 23.65296877 6.14416759 -0.00306310 0.00109015 -0.00359338
N 9.42834969 28.58923154 7.88894157 -0.01164061 0.00071908 0.00354611
N 11.09697751 19.84313281 3.33553909 0.00243762 -0.00649882 0.00056311
N 9.11749449 23.22270186 1.82035197 0.00109492 -0.00079280 0.00687173
N 7.71173180 25.46058276 6.27532015 0.00257186 -0.00079076 -0.00026549
N 10.69477954 20.57838665 7.80730284 0.00016994 -0.00303096 -0.00244986
N 9.98139839 27.37349295 3.41107250 -0.00216617 -0.00029475 -0.00014226
N 7.34198022 24.61756637 10.48226596 0.00612299 -0.00221367 -0.00421757
N 8.72186017 23.15357768 15.03498228 0.00376009 -0.00550490 -0.00032971
N 9.43434280 28.16013388 17.00812573 0.00021005 -0.00339983 -0.00578839
N 10.74499125 20.09533928 12.31188887 0.00256636 0.00135406 0.00901408
N 8.61665048 22.76040011 10.71113529 -0.00052892 -0.00420440 -0.00495698
N 7.79711817 25.38956388 15.11807651 0.00156660 -0.00134653 -0.00472469
N 10.74829737 20.50562268 16.69014663 -0.00322449 -0.00074277 0.00175798
N 9.56120250 27.48827941 12.18748935 -0.00327330 -0.00217423 0.00435832
N 7.98988199 24.90196184 19.57778702 0.00203181 0.00163805 0.00013600
N 9.01756157 23.54742546 24.29680134 -0.00015528 -0.00127048 -0.00007948
N 9.07496291 28.36208662 26.53769112 -0.00544901 0.00087031 0.00389111
N 10.87811579 19.79855006 21.56237442 -0.00256622 -0.00192324 0.00553903
N 8.68353124 22.64018647 19.94370039 0.00033101 0.00139125 -0.00384958
N 7.49782237 25.24360465 24.26913528 0.00578661 0.00554039 -0.00219245
N 10.68014518 20.56786883 25.78398240 -0.00134185 0.00638911 -0.00004945
N 9.65892662 27.33411268 21.33863224 0.00308762 -0.00096654 -0.00163904
N 11.42126787 5.26445748 0.93039215 -0.00313632 0.00538987 -0.00002226
N 12.47325044 4.10114229 5.65700795 -0.00359343 0.00193597 0.00486310
N 13.02631652 8.68489899 7.86363901 0.00390915 -0.00228720 -0.00460581
N 14.45875301 0.60368781 3.61340850 -0.00574911 0.00632558 0.00573412
N 12.69130158 3.35449077 1.25987239 0.00744849 0.00142540 -0.00005042
N 11.11551136 5.90243100 5.97170165 0.00342087 -0.00504503 -0.00217506
N 14.12818454 1.26379488 7.30942193 0.00292680 0.00310536 0.00251002
N 13.62162394 8.27864119 3.25940448 0.00297333 -0.00609959 0.00417601
N 11.15214463 5.40207505 10.46642631 0.00533770 -0.00493720 -0.00764248
N 12.57526676 3.95262574 14.98216896 0.00091148 -0.00666308 0.00181922
N 13.36912468 8.77844049 17.02659453 -0.00439084 -0.00134010 0.00724855
N 14.60087099 0.64309084 12.54542118 0.00094920 -0.00002935 0.00329558
N 12.48604466 3.57287880 10.46418652 -0.00367969 -0.00227711 0.00234615
N 11.31105315 5.79273475 15.41868178 -0.00327174 -0.00474706 0.00101331
N 14.20347240 1.21706411 17.05174105 0.00068737 0.00232780 0.00181763
N 13.33285343 8.13179963 12.15825782 -0.00443592 -0.00449865 -0.00373232
N 11.84026143 5.69050771 19.35532559 -0.00237555 -0.00083441 -0.00298413
N 12.60020437 4.20019803 23.96492677 0.00144043 -0.00538478 0.00668831
N 13.26908839 8.93015994 26.34333550 -0.00144981 -0.00260407 -0.00165452
N 14.42621346 0.57677331 21.48235676 -0.00273757 0.00745995 -0.00262159
N 12.50985654 3.51499371 19.84844200 -0.00492894 0.00256768 -0.00365069
N 11.38330672 6.07236662 24.45354537 -0.00251030 -0.00074797 0.00053497
N 14.42272964 1.00164482 25.90193619 0.00491009 -0.00473598 0.00400733
N 13.13544373 8.59672659 21.68662360 -0.00088689 0.00151621 0.00605220
N 11.40521371 15.05424202 1.32703343 -0.00360049 -0.00744412 0.00282364
N 13.00608477 13.64438708 5.76692520 -0.00502562 0.00021429 -0.00182702
N 13.54748810 18.35804822 8.12964842 -0.00332223 0.00247882 0.00036541
N 14.78861522 10.26470359 3.21890434 0.00081069 -0.00058021 -0.00036190
N 12.69129842 13.14355160 1.45838601 -0.00047254 -0.00206233 0.00178660
N 11.60137649 15.47612509 5.97772111 0.00263584 0.00235934 -0.00190442
N 14.31983477 10.57133206 7.56285583 0.00132433 -0.00088016 0.00357875
N 13.35309649 18.01057524 3.21939165 -0.00164911 0.00442470 0.00055221
N 11.68698795 15.18490951 10.00340624 0.00189299 0.00216431 0.00745743
N 12.94893519 13.87588320 14.78057880 -0.00035531 0.00213178 -0.00223624
N 13.27047534 18.60762714 17.05876267 -0.00016083 0.00087990 -0.00442002
N 14.63826731 9.99330547 12.49163136 0.00070684 0.00638806 0.00066069
N 12.44232644 13.06253606 10.38337924 0.00187657 -0.00954366 0.00227201
N 11.76166380 15.80124687 15.03450458 0.00172067 0.00314932 0.00081592
N 14.29138268 10.93022909 16.93783401 0.00050736 0.00478638 -0.00174291
N 13.77022054 17.93823276 12.35978716 0.00141161 0.00278038 0.00423857
N 11.38273698 15.15819810 19.07757040 0.00019478 -0.00443076 -0.00163974
N 12.64514934 13.45672730 24.06272271 0.00268871 0.00538509 0.00218904
N 13.21890612 18.44377046 26.67608333 0.00333472 0.00248114 0.00167741
N 14.43775600 10.43127555 21.86522473 0.00181392 0.00495046 -0.00152704
N 12.35192553 13.15039377 19.61156581 0.00368456 -0.00439928 0.00139946
N 11.27663929 15.34222821 24.13343061 -0.00053425 0.00292850 0.00542595
N 14.48533870 10.78936011 25.86290542 -0.00569118 -0.00312083 0.00028163
N 13.47251759 17.98351032 21.39489776 0.00419273 -0.00299825 0.00380391
N 11.29778450 24.80423241 1.05330370 -0.00524933 0.00093045 0.00043914
N 12.83595370 23.42841822 5.69522372 -0.00243359 -0.00400931 0.00422689
N 12.93002533 28.34322400 8.02733326 -0.00237133 0.00406049 -0.00310973
N 14.39365209 20.08608351 3.66049897 -0.00155287 -0.00244753 -0.00114344
N 12.59381071 22.97598238 1.56429608 -0.00201540 0.00338115 0.00498361
N 11.57698832 25.28519885 6.15823069 0.00145575 0.00114093 -0.00258703
N 14.49220300 20.43701363 7.43551421 0.00790506 0.00169011 -0.00480128
N 13.48824366 27.41529848 3.17533061 -0.00250670 -0.00558552 -0.00551570
N 11.09801779 24.51631007 10.21641694 0.00023157 0.00709464 -0.00033320
N 12.77914948 23.54542237 14.64776700 0.00012776 0.00288134 0.00222437
N 12.84481524 28.24723977 17.18306249 0.00076315 0.00729705 0.00363009
N 14.22187330 20.25939601 12.55335321 -0.00063347 0.00394272 0.00032209
N 12.41114190 22.67048013 10.51505757 0.00516670 0.00247421 -0.00104370
N 11.69782378 25.53475510 14.98245769 -0.00320603 0.00128468 -0.00532671
N 14.21382457 20.60261145 16.73084479 0.00450100 0.00515795 0.00266536
N 13.28078892 27.78286788 12.19599784 -0.00085435 0.00001276 0.00653888
N 11.27633339 24.62992521 19.07830020 0.00614639 0.00489182 0.00794390
N 12.75825843 23.41393831 23.94904534 -0.00347449 0.00352085 -0.00023301
N 13.07312993 28.04239989 26.58011947 0.00190868 0.00520624 0.00240188
N 14.58349669 19.93971940 21.48722595 -0.00598222 0.00335687 0.00586746
N 12.51480840 22.69830377 19.32126545 0.00055772 0.00106086 0.00244878
N 11.40786910 25.20218371 24.45650517 0.00949725 -0.00119545 0.00419305
N 14.19489289 20.40560040 25.89549834 -0.00241758 -0.00221322 0.00435937
N 13.20489596 27.51681819 21.53205665 0.00260226 0.00284219 -0.00485313
N 15.21127938 5.39365129 0.85247351 0.00436402 -0.00107865 0.00131112
N 16.27522507 3.88014389 5.38128125 0.00468130 -0.00162105 0.00486868
N 17.20083989 8.77310068 7.93408387 -0.00205215 -0.00246883 0.00478096
N 18.41796250 0.58175489 3.76679598 -0.00073409 0.00203895 0.00395519
N 16.24465319 3.37890006 1.28295196 -0.00110718 -0.00198430 0.00487644
N 15.10517902 5.90561951 5.67969814 -0.00295274 0.00666059 0.00181988
N 18.04697013 1.08375596 7.83125513 0.00150752 -0.00568193 0.00302267
N 17.11125612 8.33031181 3.03957299 0.00425259 -0.00146750 -0.00288339
N 15.07136666 5.53733811 9.88280399 -0.00401071 -0.00155727 0.00113073
N 16.31229735 4.04641351 14.55994267 0.00317768 0.00246564 0.00128804
N 16.43165891 8.89578832 17.09189769 -0.00243525 -0.00518892 0.00201956
N 18.01498410 0.76509234 12.77550667 0.00295257 -0.00280879 0.00692002
N 16.18133758 3.42924756 10.13342872 0.00419634 0.00005553 -0.00895267
N 15.11460549 6.00954947 14.85879882 0.00051083 0.00040721 0.00093526
N 17.95106907 1.24224635 16.80203747 0.00129851 -0.00120609 0.00212999
N 17.13361162 8.33268175 12.03017263 -0.00854128 -0.00352851 0.00254362
N 14.81973244 5.34024052 19.57094971 -0.00306468 0.00318027 -0.00055630
N 16.29534421 4.18739840 24.05876032 0.00225072 0.00293225 -0.00322343
N 16.82050236 9.21411990 26.23500404 0.00005074 -0.00736989 -0.00296546
N 18.41622042 0.72724251 22.00895744 -0.00044210 0.00400888 0.00260086
N 16.24563192 3.61373950 19.71219304 -0.00298869 0.00521956 0.00408600
N 15.08560246 6.17248787 24.19726103 0.00354232 0.00009316 -0.00143373
N 17.68985843 1.24254358 26.34913564 -0.00305432 0.00987802 0.00025563
N 17.06407362 8.65178664 21.44588611 -0.00458975 0.00035635 0.00243997
N 14.99839175 15.24970011 1.01101801 0.00036562 0.00584655 -0.00004033
N 16.42026008 13.69050196 5.86423318 0.00475655 -0.00094169 0.00322768
N 16.85013433 18.59418078 7.61093385 -0.00323529 0.00623793 -0.00396375
N 17.95663950 10.42245823 3.66496679 -0.00229810 0.00624476 -0.00786065
N 16.06643193 13.30284042 1.48279401 -0.00134163 -0.01167029 0.00167603
N 15.29910145 15.75426452 6.04581644 0.00018517 0.00103621 -0.00300065
N 18.43696621 10.74044454 7.74668659 0.00489323 -0.00209318 -0.00329666
N 16.82731676 18.20149361 2.91356341 0.00427794 0.00695109 -0.00487970
N 14.65200717 14.82227246 10.61147368 0.00651717 0.00534483 0.00505854
N 16.37497618 13.78127702 14.86215095 -0.00342682 0.00210221 0.00125728
N 17.20224925 18.62809610 16.80364143 0.00146190 0.00463534 0.00535495
N 18.18925744 10.35796334 12.38555599 0.00502044 -0.00592016 -0.00205038
N 16.06427778 12.98935517 10.69046565 0.00619786 0.00376846 -0.00601355
N 15.33997406 15.86960759 14.89214457 -0.00062923 0.00147585 -0.00661504
N 17.97536092 10.63737807 16.77121322 -0.00699407 -0.00492316 0.00012096
N 16.82488499 18.02615212 11.94536925 0.00524749 0.00363538 0.00173355
N 14.64304845 14.92274787 19.36185933 0.00298919 0.00010921 -0.00342231
N 16.49522190 13.78977930 23.63638915 0.00230970 0.00021519 0.00466174
N 16.55826446 18.71278240 25.82502145 -0.00137919 -0.00520823 0.00798496
N 18.19917834 10.65630290 21.72425386 -0.00061766 -0.00201458 0.00059707
N 15.79611488 13.05074467 19.64118009 0.00011169 0.00223399 0.00286777
N 15.11172585 15.58120056 24.10148368 0.00686221 -0.00004742 -0.00104947
N 17.92844980 11.24269363 25.86364332 0.00024779 -0.00303945 -0.00800187
N 16.95475737 17.93099206 20.98476361 0.00258129 0.00230480 -0.00222011
N 15.00250015 25.02691639 0.84177385 -0.00933137 -0.00307973 -0.00320739
N 16.24675733 23.45903944 5.45969841 0.00446509 -0.00280363 0.00099881
N 16.52983245 28.27695101 8.02801836 0.00016197 0.00080315 -0.00358961
N 18.21647547 20.07319568 3.20497682 -0.00115612 -0.00028178 0.00011106
N 16.11841109 23.05980204 1.31648142 -0.00168195 0.00347505 -0.00409770
N 14.90107572 25.33684234 5.70684054 0.00332426 0.00016653 -0.00047027
N 17.86788261 20.67394124 7.43562558 -0.00333587 -0.00014751 0.00014530
N 17.24001714 27.55364288 3.28328025 -0.00499150 -0.00096324 0.00436133
N 15.09857188 24.86724296 10.21302046 0.00379919 -0.00480326 -0.00035468
N 16.36483324 23.53277065 14.79563935 0.00347416 -0.00235735 0.00032853
N 16.76768267 28.14583574 17.22251792 -0.00210778 0.00094138 0.00603520
N 18.33829774 19.84607481 12.05831005 0.00169113 -0.00021595 0.01042636
N 16.38263245 22.98204424 10.44305021 0.00177144 0.00263770 0.00567635
N 15.35739962 25.58897196 15.05496867 0.00748677 -0.00271358 0.00309441
N 18.53295372 20.62809920 16.53029632 -0.00434961 0.00227637 0.00453080
N 16.91507507 27.74015279 12.30016602 -0.00460025 -0.00707941 0.00455453
N 14.74808825 24.68515375 19.23919880 0.00149925 -0.00244472 -0.00082081
N 16.29729108 23.52058097 23.76578823 0.00469603 0.00274940 0.00352518
N 16.66871001 28.05718377 26.45789890 0.00097156 -0.00706359 0.00401025
N 18.13131823 19.95874786 21.47113022 -0.00028614 -0.00314035 -0.00262680
N 16.12680182 22.93523213 19.63667020 -0.00312372 0.00610109 -0.00171237
N 15.03234812 25.44899252 24.11717606 -0.00406400 0.00226399 -0.00730969
N 18.00550565 20.57493394 25.65592558 -0.00985755 -0.00202766 0.00014146
N 17.24843709 27.63315295 21.56203100 0.00464608 -0.00309081 -0.00434018
N 18.71771807 5.16234525 1.15909658 0.00675850 0.00268433 0.00131935
N 20.18777862 4.21726313 5.75064754 0.00350268 0.00248021 0.01240172
N 20.83904746 8.69626547 8.10555902 -0.00082401 0.00111185 -0.00105677
N 22.06886165 0.55042593 3.31110583 -0.00226228 0.00096225 -0.00489224
N 19.94173083 3.26425859 1.45505085 -0.00457023 -0.00316243 0.00328560
N 18.65495435 5.89305626 5.90307458 0.00363867 0.00768918 -0.00074530
N 21.30297194 1.31261524 7.68197444 -0.00579567 -0.00043204 -0.00037208
N 21.04775904 8.27945160 3.20869448 0.00275152 -0.00077432 0.00517182
N 18.63119205 5.28308522 10.35012349 0.00049105 -0.00593914 -0.00010715
N 19.87546898 4.07110944 14.89738272 0.00068539 0.00257255 0.00525301
N 20.25599467 9.03354734 17.04651738 0.00081977 0.00225834 0.00266265
N 21.65469557 0.56576615 12.56800691 -0.00193752 -0.00299785 -0.00239190
N 19.70757050 3.23446412 10.64133662 0.00128937 -0.00100989 -0.00727368
N 18.64981010 6.00348483 15.23103705 -0.00771666 -0.00091393 0.00410079
N 21.42735080 1.33484465 16.97017654 0.00273061 -0.00276452 0.00520562
N 20.46122500 8.68003635 12.02225478 0.00364529 -0.00374940 0.00229521
N 18.51042126 5.60901257 19.55524005 0.00006078 -0.00054836 -0.00148364
N 19.95636429 4.32889579 23.89634876 0.00327165 0.00055606 -0.00190655
N 20.30532480 9.12349321 26.21703726 0.00241692 -0.00449777 -0.00543654
N 0.10048038 0.71963592 21.79192378 -0.00239934 -0.00658340 0.00149173
N 19.81034442 3.68425127 19.81297249 0.00024967 0.00002567 0.00109981
N 18.65892020 6.22318800 24.36059975 -0.00337147 -0.00231254 -0.00209809
N 21.46547893 1.24721881 25.79889006 0.00223123 -0.00066412 0.00201262
N 20.43937195 8.54735444 21.26861710 -0.00558581 0.00001798 -0.00090312
N 18.79113517 15.44060526 0.99015569 0.00102386 0.00089541 0.00195781
N 20.07575577 13.84105746 5.85487073 -0.00065441 0.00115001 0.00330339
N 20.29392051 18.52849836 7.99504885 0.00258675 -0.00223363 0.00159771
N 21.81462082 10.43771919 3.71404744 0.00665468 0.00668350 -0.00792834
N 19.87402804 13.49158202 1.28570433 0.00169617 0.00397582 0.00133313
N 18.74453781 15.72326694 6.06227081 0.00705517 -0.00698350 -0.00229611
N 21.43326435 10.90037723 7.62841839 0.00508080 0.00334058 0.00532728
N 20.57128579 17.83259975 3.33886210 0.00036340 -0.00080845 0.00082596
N 18.42160993 14.93881666 10.25991681 0.00604159 -0.00365876 -0.00728994
N 19.37774442 13.55805485 14.66941416 0.00295609 0.00025588 -0.00061968
N 20.69660015 18.67218298 17.17115010 0.00096744 0.00262770 0.00449585
N 21.88003037 10.44809766 12.54928195 0.00398956 0.00414509 -0.00544732
N 19.87279764 13.28010533 10.62097424 0.00459926 -0.00321379 -0.00678331
N 18.93821282 15.73729058 15.12551680 -0.00539760 -0.00381848 0.00076059
N 21.44313589 10.94346814 16.85985707 0.00055078 0.00124931 0.00513589
N 20.44016854 17.92040532 12.43535346 0.00199303 0.00539751 -0.00678307
N 18.66975378 15.37460608 19.31096237 0.00110733 -0.00275083 -0.00277673
N 20.40171007 13.86983632 23.88597699 0.00018860 -0.00029783 0.00593203
N 20.49522244 18.68042567 26.28275532 0.00519046 -0.00045343 -0.00239537
N 21.77280894 10.35051685 21.65662467 -0.00161753 0.00648818 -0.00325197
N 19.91047275 13.44123465 19.75328858 0.00110008 0.00257473 -0.00371951
N 19.13840298 15.80773211 24.32758929 -0.00492248 0.00173389 -0.00054128
N 21.70586044 10.89319032 25.88647153 0.00711759 0.00056065 0.00028074
N 20.60177677 18.17070238 21.32550287 0.00143852 0.00850871 -0.00551695
N 19.00269082 24.72363510 1.14404833 0.00643055 0.00554849 0.00284722
N 19.72642236 23.43474041 5.53505983 -0.00002289 -0.00341423 -0.00674012
N 20.32426348 28.09253123 8.01597169 -0.00334886 0.00163436 0.00317877
N 21.93985535 19.79720601 3.41114402 -0.00254637 0.00480080 -0.00065482
N 19.77170398 22.62528311 1.50720240 -0.00377900 0.00172063 -0.00500588
N 18.86929984 25.46970277 6.43271982 0.00090988 -0.00233183 -0.00665263