1728
Time=43000.00000003 pbc="T T T" Lattice="21.94427656 0.00000000 0.00000000 0.00000000 28.98688998 0.00000000 0.00000000 0.00000000 27.44272256" energy=-10390.67078876 virial="40.20793970 -23.86178649 -3.85160024 -23.86178649 33.81593340 -16.61456439 -3.85160024 -16.61456439 44.69494517" stress="0.00465843 -0.00138928 -0.00017651 -0.00138928 0.00455915 -0.00096452 -0.00017651 -0.00096452 0.00532879" Properties=species:S:1:pos:R:3:vel:R:3
N 0.17388961 5.41459054 1.08221238 0.00146354 -0.00120056 0.00087446
N 1.71615431 4.39122082 5.60422558 -0.00415413 -0.00639416 -0.00434869
N 2.27094546 9.12505188 8.00744770 0.00242973 0.00459650 0.00963526
N 3.65443136 0.33403194 3.62875203 -0.00321011 0.00525809 -0.00034629
N 1.42463475 3.39437368 1.44597213 -0.00960055 0.00461763 0.00550649
N 0.61249425 6.46001774 5.83720149 0.00143962 0.00090896 -0.00033356
N 2.99049398 1.05579046 7.53461878 -0.01136236 0.00052108 -0.00330615
N 2.19314183 8.38819789 3.09445469 -0.00438313 -0.00594123 0.00127562
N 0.14088239 5.29990684 10.38782943 0.00518370 -0.00662187 -0.00190501
N 1.51312696 3.90832830 15.11611138 -0.00050781 0.00662860 -0.00125463
N 1.62427760 8.89984555 16.83509348 0.00489498 0.00112349 -0.00388421
N 3.01425681 0.69367731 12.96828731 -0.00155506 0.00279702 -0.00035685
N 1.33694919 3.38076427 10.79004794 0.00568456 -0.00065252 -0.00026130
N 0.20078335 5.80280841 15.25580509 0.00320989 0.00031115 0.00612626
N 3.04245756 1.10981134 17.24968698 -0.00145443 0.00356995 -0.00050094
N 2.18725494 8.40022901 12.04351675 -0.00430449 -0.00212049 -0.00150085
N 0.31207931 5.95086889 19.27593638 -0.00418318 -0.00020652 -0.00853539
N 1.42956236 4.18552834 23.66515301 0.00266415 -0.00188990 -0.00033871
N 1.93176220 9.01940197 26.25938516 -0.00423280 -0.00658931 -0.00516097
N 3.20439519 0.96414584 21.89916315 -0.00317456 -0.00343361 -0.00216696
N 1.33215651 4.01541493 19.77462598 -0.00165984 0.00364798 0.00196084
N 0.41023940 6.19400942 24.12950590 0.00534259 -0.00163607 0.00388821
N 3.20266181 1.51194691 25.99300502 -0.00020962 0.00207898 -0.00638842
N 1.92640597 8.50741331 21.28441569 -0.00576226 0.00366897 0.00133588
N 0.47705817 15.18749729 0.98008107 0.00619108 -0.00275883 -0.00107872
N 1.43194840 13.83437236 5.72285740 0.00034033 -0.00080842 -0.00000319
N 2.10642007 18.61784006 7.86557311 0.00436353 0.00056124 -0.00248720
N 3.56661480 10.27105069 3.39341365 -0.00420598 0.00507009 0.00064765
N 1.39823819 13.10718296 1.19629973 0.00520894 0.00088993 -0.00201733
N 0.40146154 15.88571225 5.73103162 0.00659302 -0.00795475 0.00355475
N 3.35639165 11.19688778 7.87794570 -0.00454201 -0.00501217 -0.00125564
N 2.33470062 17.90839360 3.08309448 0.00955873 0.00321207 -0.00201815
N 21.86304778 15.08027242 10.29761647 -0.00253669 -0.00341353 0.00708956
N 1.50222722 13.68560668 14.77926032 -0.00463575 -0.00258700 -0.00439982
N 2.09655703 18.68968957 17.30531064 0.00306624 -0.00057270 0.00490907
N 3.49418473 10.26738863 12.44235452 -0.00109918 0.00474428 -0.00326721
N 1.33928190 13.28072421 10.56702622 -0.00512478 0.00547731 0.00292484
N 0.58603524 15.74815301 15.26721643 0.00656828 0.00170315 0.00379945
N 3.13326584 10.61237081 16.73470997 0.00002959 -0.00352849 -0.00073081
N 2.32479163 17.79836060 12.37104685 0.00216813 0.00251172 -0.00936644
N 0.29437701 15.25041288 19.72311623 0.00508657 -0.00404372 -0.00285424
N 1.79981414 14.08489266 24.07216692 -0.00542358 0.00287283 -0.00483201
N 1.74539164 18.86513569 26.63749493 0.00343777 0.00731096 -0.00111875
N 3.32197792 10.31591964 21.66825423 -0.00689182 0.00107225 -0.00128131
N 1.11385367 13.11595405 19.89355849 0.00148557 -0.00200792 -0.00657338
N 0.59917598 16.08541379 24.40087992 -0.00153770 -0.00159170 0.00429518
N 3.09999289 10.99067931 25.87268494 -0.00577400 0.00305826 -0.00007132
N 2.51979810 17.98770845 21.57663995 0.00888441 0.00430919 -0.00375204
N 0.44883918 24.78480249 1.11179949 -0.00001000 -0.00273841 0.00719793
N 1.69552495 23.31970326 5.62189934 0.00199273 -0.00125415 0.00537937
N 2.15230576 28.00858834 8.28300597 0.00043681 -0.00047613 0.00398343
N 3.51394002 19.79029741 3.74747726 0.00270834 0.00664560 0.00280173
N 1.64486793 22.87673353 1.37422521 0.00724511 -0.00134389 0.00717899
N 0.59272213 25.31955951 6.07236509 -0.00381192 0.00699930 -0.00345432
N 3.45821871 20.52063786 7.67868963 0.00818905 0.00060605 -0.00009553
N 2.26845790 27.50005717 3.17606893 0.00707128 -0.00228626 0.01248204
N 0.25324798 24.82942875 10.20222931 0.00384437 -0.00565620 0.00399907
N 1.29621069 23.73620869 14.60105394 -0.00015380 0.00618239 0.00561489
N 1.93907043 28.07084701 17.34766714 -0.00044007 0.00179205 0.00367800
N 3.44542136 19.89205894 12.67353692 -0.00278410 0.00234515 -0.00767430
N 1.15472417 22.65423697 10.46973534 -0.00385979 0.00228195 -0.00221486
N 21.82548712 25.60240278 15.08724515 0.00136191 0.00072013 0.00123398
N 3.05382887 20.76970981 16.78948569 0.00257133 0.00518903 -0.00282485
N 2.28739786 27.48015127 12.53207799 -0.00795747 0.00193154 0.00052299
N 0.51404722 25.10520238 19.45915705 -0.00034886 0.00335364 0.00294778
N 1.79846576 23.82697751 24.10101485 -0.00160233 0.00250704 0.00857909
N 1.89747541 28.57733874 26.55849800 0.00225819 0.00708832 -0.00198421
N 3.75431765 20.03729425 21.71738132 -0.00362102 0.00084957 0.00137759
N 1.45677976 22.98157032 19.60354011 0.00062432 0.00444736 -0.00391823
N 0.69219459 25.69315365 24.76036611 0.00329980 -0.00199504 -0.00131726
N 3.08695081 20.81019900 26.28388817 -0.00157752 -0.00640426 0.00275174
N 2.08927086 27.90872750 21.79712437 -0.00207933 0.00339306 -0.00379012
N 3.85585533 5.20367054 1.40517083 -0.00001557 -0.00164148 0.00451882
N 5.41042054 3.90826268 5.74783171 -0.00340865 0.00025362 0.01250768
N 5.39750075 8.91000197 8.04979612 -0.00557460 0.00160564 0.00360616
N 7.32357304 0.55897198 3.57076315 0.00168385 0.00352848 -0.00604895
N 5.27000267 3.42538406 1.71749432 -0.00566179 0.00133852 -0.00088880
N 4.14032528 5.76296667 6.13556584 -0.00154029 -0.00404028 0.00033912
N 7.08815990 0.81280605 7.72086591 0.00438911 -0.00050948 -0.00464341
N 6.04135067 8.48793754 3.24259314 -0.00333584 -0.00267704 -0.00220708
N 3.97458151 5.24269853 10.56840656 -0.00395086 0.00076457 0.00021893
N 5.01437884 3.99767384 15.43632099 -0.00200570 -0.00080236 0.00280067
N 5.42900705 9.08804608 17.48900454 -0.00188387 -0.00287850 0.00118932
N 6.83495130 0.57720242 12.70423028 0.00713540 0.00190311 0.00536882
N 5.09301372 3.23096397 10.63148168 -0.00241834 -0.00048022 -0.00706320
N 3.80471063 5.87733211 15.50572467 -0.00518867 0.00134924 -0.00246931
N 6.77009792 1.26204061 17.25534284 0.00547858 -0.00782379 -0.00135309
N 5.97485768 8.54848938 12.25211534 0.00510289 -0.00588126 -0.00188120
N 3.79715559 5.58392363 19.98838096 -0.00187807 -0.00036131 -0.00184321
N 4.96139315 4.30843459 24.25218381 0.00417378 0.00267025 0.00356356
N 6.08149468 8.60388758 26.65203544 0.00530072 -0.00188255 -0.01020449
N 7.08876377 0.68421259 21.72320404 0.00424284 -0.00120885 0.00241738
N 4.82303520 3.55692375 20.11391442 -0.00154846 -0.00276806 0.00437975
N 4.10257453 6.41042851 24.39734858 -0.00660949 -0.00840119 -0.00156463
N 7.00738312 1.15893013 25.96900938 0.00781100 -0.00072394 0.00623288
N 5.96808895 8.59274812 21.35591559 0.00354837 0.00293331 -0.00112888
N 3.91362916 15.03376237 0.66766428 0.00567213 -0.00037646 -0.00113608
N 5.01058524 13.42039052 5.75663763 0.00034095 0.00589742 0.00416058
N 5.76168860 18.35856829 8.02756581 -0.00296183 -0.00721253 -0.00619526
N 7.17358097 10.46713791 3.70144166 -0.00148960 -0.00333590 0.00071024
N 5.15274500 13.33413251 1.68206307 -0.00014856 -0.00767860 -0.00119653
N 4.07707693 15.47856532 5.99116845 0.00170381 -0.00150710 0.00444426
N 6.72960029 10.80604508 7.65948044 -0.00260625 0.00022148 0.00226922
N 5.67607046 17.82744131 3.08115032 0.00789542 0.00490054 -0.00118143
N 3.95380214 15.19770262 10.23080240 -0.00110032 -0.00421509 -0.00003272
N 5.07382149 13.79527890 14.95051306 -0.00096506 0.00587114 0.00242986
N 5.57185033 18.83059692 16.92170361 0.00356258 -0.00006621 0.00277584
N 7.22352882 10.48199216 12.57923088 -0.00261030 0.00111979 0.00006303
N 5.14088198 13.28531443 10.74240211 -0.00519221 0.00077620 0.00139959
N 3.94767480 15.75385116 15.29626812 0.00094132 -0.00841720 0.00034913
N 6.63535151 10.95621937 16.81046830 -0.00038161 -0.00161398 -0.00508027
N 5.70360935 17.97467844 12.32975060 0.00632464 0.00049214 0.00068177
N 3.65231516 15.12126060 19.42295811 -0.00612611 0.00293789 -0.00383257
N 5.30635973 14.08870274 24.08348168 0.00677794 -0.00183919 -0.00384249
N 5.69832328 18.80765472 26.04739307 0.00402968 0.00619179 -0.00122533
N 7.05804264 10.56814699 21.90514736 -0.00189921 -0.00132058 0.00556443
N 4.76375885 13.04701169 19.64056103 -0.00242513 0.00439324 0.00492725
N 4.06534872 16.03417957 24.30476922 -0.00247353 -0.00379051 0.00772052
N 6.84407996 10.75853221 26.43201442 0.00487464 -0.00191699 -0.00180923
N 6.02002830 18.17248335 21.07763046 0.00273962 0.00395546 0.00443503
N 4.04978177 24.60193904 1.18822933 0.00230114 -0.00055599 0.00222210
N 5.40648216 23.27750318 5.56136708 -0.00593925 0.00054289 0.00260580
N 5.57723199 28.08086376 7.89131209 0.00020689 0.00808981 0.00471845
N 6.99840336 19.79661435 3.41896953 0.00991359 0.01167702 -0.00301505
N 5.25414296 22.64879817 1.45087477 0.00118181 0.00352518 -0.00674070
N 4.09084841 25.23003756 6.12046144 0.00204562 0.00159924 -0.00607608
N 6.76034395 20.50807132 7.84893508 0.00145181 -0.00236476 -0.00321369
N 6.22261507 27.54809575 3.00405526 0.00284550 0.00133391 0.00214146
N 3.79204317 24.66166718 10.52510627 0.00000869 0.00560563 -0.00132134
N 5.18727981 23.71722041 14.85677811 0.00085704 0.00041177 -0.00430470
N 5.73141884 28.20459846 17.24319958 0.00069874 0.00374825 -0.00285911
N 7.23592806 19.73285177 12.58903345 -0.00465176 0.00045047 0.00103585
N 5.05416588 22.77044879 10.66330872 0.00528552 -0.00527714 -0.00256499
N 3.70612438 25.35691751 15.38765436 0.00667166 -0.00286072 0.00418833
N 6.59132305 20.84056556 16.83244834 -0.00453858 0.00624258 0.00329227
N 5.93883634 27.42832911 12.39544637 0.00144728 -0.00027781 0.00534059
N 3.86756906 25.09814339 19.49795310 0.00601769 -0.00942433 -0.00494327
N 5.46325533 23.69418353 23.95420118 0.00422248 0.00505572 -0.00343968
N 6.36573100 27.99020067 26.39225592 -0.00226049 -0.00029585 -0.00283235
N 7.08532851 20.21239112 21.50297828 -0.00518816 -0.00055340 0.00035100
N 4.97413008 23.07240572 19.79370613 0.00330409 0.00171542 0.00133844
N 4.18097540 25.62440851 24.51938456 0.00267959 0.00416962 0.01064785
N 6.77995190 20.84358446 25.84018655 0.00162330 0.00147845 0.00014034
N 6.05944919 27.60731601 21.60163222 0.00395014 -0.00426012 0.00075500
N 7.67407199 5.58916232 1.45901593 -0.00044821 0.00127939 -0.00112773
N 8.85568305 4.32472507 6.02129387 -0.00157834 -0.00053861 -0.00531471
N 9.38027096 8.89236282 7.88235947 0.00624285 0.00307848 -0.00434717
N 10.93401206 0.66051697 3.31313661 0.00381653 -0.00496968 0.00257706
N 9.14093532 3.89072217 1.60081368 -0.00141824 -0.00469417 -0.00306913
N 7.38825373 6.02455426 6.15950905 -0.00456722 0.00091631 -0.00030999
N 10.78570259 1.19094489 7.47269506 0.00151511 0.00309725 0.00351554
N 9.54805957 8.69225058 3.06542940 0.00117995 -0.00314238 -0.00606013
N 7.15220818 5.33128452 10.64689659 -0.00025635 -0.00613807 -0.00089909
N 8.69591361 4.61382310 15.20408580 -0.00193430 0.00090900 0.00026922
N 9.01517880 8.91953846 17.36023389 0.00544983 0.00010566 -0.00777306
N 10.55510696 0.61732398 12.61124883 0.00402862 0.00640500 -0.00075265
N 8.60758663 3.45319564 10.87135944 0.00039704 0.00198372 -0.01092749
N 7.39569946 6.51489333 15.27973879 -0.00363539 0.00271634 -0.00266287
N 10.56857022 1.53726566 16.96485139 -0.00128916 0.00059792 -0.00017647
N 9.49887038 8.28190735 12.19539775 0.00120220 0.00134644 0.00401208
N 7.17767237 5.72028233 19.52628675 -0.00407245 -0.00225996 0.00053560
N 8.72055454 4.08763267 23.88341687 -0.00171538 0.00015294 -0.00038545
N 9.34916741 8.99333162 26.60125675 0.00263062 -0.00106416 -0.00127816
N 10.77264359 0.76151591 21.32062535 0.00393696 0.00035847 0.00164352
N 8.65894504 3.98925753 19.79542462 -0.00718437 -0.00680781 0.00187703
N 7.59958625 6.03581948 24.59897498 0.00483768 -0.00803366 0.00080977
N 10.48448349 1.40833439 26.11368148 -0.00446595 -0.00512926 -0.00075177
N 9.28320201 8.71050071 21.54203063 -0.00157872 0.00260990 -0.00256158
N 7.59275197 15.00774077 1.39405791 -0.00732023 -0.00219555 -0.00482151
N 8.82210100 13.84030604 6.18085537 0.00416449 -0.00500669 0.00793847
N 9.15036752 18.77606270 7.93302895 0.00088259 -0.00490423 -0.00806645
N 11.07633025 10.32979807 3.53591163 0.00165924 -0.00272924 0.00252836
N 8.92551058 13.15057799 1.62938277 -0.00149897 0.00073161 -0.00239730
N 7.77953880 15.78786872 6.06740793 0.00364815 -0.00423193 0.00631688
N 10.36484506 10.96790165 7.83468983 -0.00385266 -0.00176613 -0.00286711
N 9.47161665 18.10978102 3.29746242 -0.00925548 -0.01073958 0.00111825
N 7.70811217 15.23840302 10.47832097 0.00296334 0.00248320 -0.00127747
N 8.61761832 13.73992776 15.09153099 0.00036981 0.00056859 -0.00198742
N 9.30619444 18.36979968 17.50059583 0.00150035 0.00256604 0.00484773
N 11.02622038 10.00799976 12.41560002 0.00845140 -0.00139786 0.00149630
N 8.86170500 13.24262420 10.55218642 -0.00161859 -0.00453842 0.00280715
N 7.35158498 15.59613110 15.67005349 0.00134811 0.00231747 0.01185844
N 10.54966139 10.65419817 17.12567240 0.00052982 -0.00146684 0.00093305
N 9.49300416 17.79556331 12.48842162 0.00368615 0.00146422 -0.00241436
N 7.55417568 15.37512220 19.45855994 0.00377307 -0.00222513 0.00475817
N 9.06521571 14.06238186 24.50548594 -0.00384220 -0.00834021 -0.00024650
N 9.20820382 18.49816108 26.64642850 -0.00245514 -0.00330191 0.00026866
N 10.76523797 10.37444377 21.73495110 0.00295062 -0.00053688 -0.00328261
N 8.54646812 13.35874762 20.06871673 0.00195505 0.00732523 0.00248363
N 7.69390161 15.92456075 24.54185868 -0.00826813 0.00332842 0.00811527
N 10.63444729 10.84759824 26.12813456 0.00192070 -0.00308080 -0.00058317
N 9.84255273 17.98047043 21.66922598 0.00346172 -0.00533974 0.00100627
N 7.73319591 24.81797567 1.23184423 -0.00186267 0.00673318 -0.00858107
N 9.10125727 23.57798413 5.87794930 0.00010169 0.00283400 -0.00011685
N 9.73883933 28.14192596 7.93595952 -0.00359335 -0.00279663 -0.00271677
N 11.05924958 19.86441718 3.61626688 -0.00448784 0.00081060 0.00819669
N 8.86372056 22.90536364 1.50296862 -0.00081873 0.00216332 -0.00134176
N 8.02022437 25.65164516 5.91866837 -0.00483527 0.00553477 0.00125487
N 10.72573379 20.48026960 7.87085502 -0.00047461 -0.00155072 0.00069802
N 9.69175837 27.75355772 2.86089106 0.00689925 0.00385707 -0.00086569
N 7.42033296 24.63636029 10.45194258 -0.00204926 0.00080097 -0.00051270
N 8.86846949 23.46528124 14.99582397 0.00092723 0.00133740 0.00042270
N 9.89668748 28.31596243 17.34871424 0.00365437 -0.00448521 0.00070953
N 10.68768020 19.86769370 12.53971757 -0.00229493 0.00068230 0.00232633
N 8.74410152 22.80648858 10.98125167 0.00213312 0.00227466 0.00115184
N 7.78631180 25.50781556 15.36232558 -0.00650622 0.01353687 -0.00351266
N 10.67903294 20.16844978 16.96284162 -0.00028908 -0.00115164 0.00325057
N 9.32130025 27.64603507 12.42305400 -0.00259904 0.00291174 -0.00604158
N 7.70183853 24.75036782 19.65260403 -0.00563540 0.00242882 -0.00604411
N 9.27324745 23.18153489 24.21990801 -0.00404712 -0.00672650 0.00351755
N 9.69378623 28.24693806 26.35657377 0.00075089 0.00407968 0.00006592
N 10.74358616 20.00465446 21.99466149 -0.00507660 0.00849368 -0.00414867
N 8.82665791 22.86576016 19.95940515 -0.00448106 0.00077852 -0.00340515
N 8.00066707 25.09827515 24.33155996 -0.00571290 -0.01158858 0.00147853
N 10.71822705 20.24308363 26.38426280 0.00240084 -0.00098281 -0.00093951
N 9.63873580 27.75755579 21.20328231 -0.00373357 0.00057622 0.00745769
N 11.25916422 5.59113621 1.27066811 0.00112539 0.00021151 0.00624418
N 13.01393115 3.98489806 5.62176349 -0.00704970 0.00157189 0.00424616
N 13.23490516 8.88893157 7.77366745 0.00237861 -0.00025186 -0.00270566
N 14.31912949 0.84988460 3.13900589 -0.00022169 -0.00175066 -0.00246508
N 12.42688883 3.60566902 1.58357912 -0.00461735 -0.00270205 -0.00252322
N 11.43910392 5.82226016 5.75207823 0.00702556 -0.00311990 -0.00757333
N 14.46266677 1.22548056 7.52517224 0.00186699 0.00214708 0.00409763
N 13.71286790 8.31314622 2.61122610 -0.00389567 0.01031333 -0.00106193
N 11.24982955 5.45174581 10.25021606 0.00353819 -0.00275652 -0.00375540
N 12.16852315 4.09012945 14.89586997 -0.00489652 -0.00416494 0.00449928
N 13.17093897 9.25167354 17.06457576 -0.00127763 0.00179738 0.00337599
N 14.17390258 0.94511603 12.31890753 0.00143891 0.00614819 -0.00754509
N 12.45403852 3.56034295 10.67851349 0.00753617 -0.00364042 0.00422857
N 11.18916715 6.18696944 15.28789370 0.00048457 0.00421070 -0.00066315
N 14.22574056 1.25162199 16.62024768 -0.00012788 -0.00385853 0.00518367
N 13.36474292 8.38961882 12.07947825 -0.00691544 0.00052559 0.00236059
N 11.17777745 5.54861043 19.66802547 0.00324263 -0.00042240 0.00011422
N 12.45653537 3.97195208 24.06166583 0.00054210 0.00185672 -0.00094096
N 13.06129408 9.18242134 25.93960610 0.00314828 -0.00108995 -0.00218514
N 14.43572747 0.70421813 21.27711513 0.00141521 -0.00270140 -0.00116853
N 12.46601017 3.63336635 19.78500066 -0.00160055 0.00015838 -0.00035586
N 11.32759168 5.94415827 24.31087527 0.00179439 -0.00907539 -0.00402491
N 13.96627986 1.35279071 25.76407007 0.00347561 0.00135037 -0.00679986
N 13.01166040 8.53279967 21.51232176 0.00545484 0.00197997 0.00122588
N 11.30978514 15.09863072 1.47697743 0.00427012 -0.00090301 -0.00381053
N 12.82299491 13.88798998 6.07066705 0.00288287 -0.00219745 0.00741672
N 13.15237198 18.57690995 8.17712782 0.00132329 -0.00267006 0.00101693
N 14.65891332 10.29125856 3.35968349 -0.00039183 -0.00346539 0.00091318
N 12.28232014 12.97531909 1.64641679 0.00340411 -0.00531262 -0.00083450
N 11.43067437 15.71170579 6.19134368 -0.00453680 -0.00559583 -0.00011545
N 14.28360888 10.94999946 7.58695646 0.00028594 -0.00345158 -0.00459392
N 13.27461991 18.13002535 3.29191483 -0.00218128 0.00524304 -0.00369223
N 11.48554691 15.32430038 10.40961575 0.00003785 0.00227790 -0.00120896
N 12.54648852 13.85571600 15.35939953 -0.00323513 0.00268341 -0.00249812
N 13.18761653 18.41270385 17.45172023 -0.00718451 -0.00479030 0.00109214
N 13.97055353 10.44540932 12.71336462 -0.00019539 0.00144029 0.00184544
N 12.54501929 13.32990905 10.58273518 -0.00044622 0.00299926 0.00432016
N 11.12694796 15.58906241 15.22538427 0.00131203 0.00842136 -0.00273930
N 14.41357504 11.17321528 16.78438182 -0.00118611 -0.00210283 -0.00190954
N 13.15418015 17.99562005 12.25864740 -0.00450763 -0.00120333 -0.00206222
N 11.14001756 15.18176808 19.71506921 0.00165412 -0.00177510 -0.00321346
N 12.44087966 14.10539452 24.19982597 0.00020241 0.00290345 -0.00083689
N 13.25537386 18.52937246 26.45073517 -0.00276400 -0.00206989 -0.00108923
N 14.24142161 10.53930551 21.56561685 -0.00638936 -0.00510705 -0.00546354
N 12.32593627 13.19203018 19.63126026 -0.00032280 0.00085654 0.00622039
N 11.40432831 16.06928557 24.77255142 0.00207145 0.00561966 -0.00257117
N 14.45403622 11.04080433 25.70196700 -0.00909874 0.00091263 0.00024532
N 13.25123258 18.25692798 21.56870716 -0.00346476 0.00666781 0.00127383
N 11.65666662 24.75629905 1.45577611 0.00342754 0.00310430 -0.00741243
N 12.62778958 23.28655659 6.01003101 0.00145523 -0.00382920 -0.00240085
N 13.10341318 28.46496629 7.69431796 0.00478358 0.00115747 0.00516223
N 14.57246898 19.95568787 3.59256659 -0.00268339 -0.00136690 -0.00387986
N 12.87619048 22.76670675 1.68604734 0.00015786 0.00304345 0.00016887
N 11.59617377 25.35426531 6.17978496 0.00250127 0.00553099 -0.00455100
N 14.53943963 20.34376041 7.83171096 -0.00015377 -0.00284680 0.00309608
N 13.49047264 27.65904380 2.97489532 0.00241307 -0.00071074 -0.00171093
N 11.21039443 24.72996389 10.69206342 0.00645041 0.00088074 0.00288937
N 12.77256663 23.09597039 14.67886273 -0.00034759 0.00371588 0.00015886
N 12.96743555 28.36310239 16.72138372 0.00077588 -0.00328665 0.00192262
N 14.44643570 19.64240209 13.14281997 0.00209267 0.00161205 0.00062240
N 12.29534258 22.66065188 10.89097539 0.00662769 -0.00156813 -0.00239443
N 11.47942268 25.00548004 15.08041836 -0.00548949 -0.00363308 -0.00246954
N 14.04623496 20.54732591 17.11063756 -0.00179165 -0.00434154 -0.00161017
N 13.18504373 27.89958350 11.95558573 -0.00122654 -0.00382895 0.00054499
N 11.12984929 24.70853731 19.17718814 0.00109297 0.00276394 -0.00418067
N 12.81115314 23.59008434 24.01074291 0.00284209 -0.00534016 -0.00166615
N 12.66290741 28.33990871 25.98293372 0.00262244 0.00298886 -0.00665257
N 14.65475019 20.05640599 21.98951634 -0.00094917 0.00075093 0.00064723
N 12.34560702 22.73282847 19.76423163 0.00265753 -0.00114083 0.00271191
N 11.63398767 25.51914117 24.47959324 -0.00598439 -0.00835442 -0.00135296
N 14.37155266 20.50385861 26.08533283 0.00703559 0.00041989 -0.00636723
N 13.07709920 27.81626432 21.44817795 0.00344726 -0.00196691 -0.00387076
N 15.08688822 5.97973937 0.66757261 0.00284430 -0.00501018 0.00000178
N 16.29667897 4.12917325 5.29987010 0.00574460 -0.00110005 0.00446938
N 16.65250728 8.96068413 7.70242746 0.00191374 0.00913411 -0.00809533
N 18.41240730 0.66454325 3.55777270 -0.00508625 0.00355266 0.00860354
N 16.12520720 3.97442165 1.17937634 -0.00535213 0.00485209 0.00502600
N 15.25996147 5.99645817 5.83323204 0.00404128 0.00482847 0.00525341
N 17.98789906 1.45838764 7.58659049 0.01027673 0.00028496 0.00237071
N 17.02288218 8.19166616 2.98370238 -0.00358319 -0.00519341 -0.00059625
N 14.57309573 5.19314822 9.42980527 -0.00293152 -0.00070546 0.00411552
N 16.07148615 4.17880117 14.73155012 -0.00080886 0.00270268 -0.00436547
N 17.18359955 9.03695901 16.77639595 -0.00475970 0.00129564 0.00272694
N 17.97001099 0.96414112 12.47634225 0.00000317 0.00151934 0.00677559
N 15.95446300 3.70401077 10.51281742 0.00360705 -0.00384914 0.00582243
N 15.04451108 6.19180516 14.95918584 0.00540154 -0.00536169 0.00029144
N 17.82179866 1.06249029 16.54207211 -0.00014303 0.00079559 -0.00546104
N 16.94378215 8.24275075 12.13339933 -0.00395256 0.00254706 0.00099379
N 14.78646798 5.55015463 19.42998460 0.00636083 0.00421391 0.00497789
N 16.17353872 4.19800576 23.86443039 -0.00188018 -0.00737195 -0.00575559
N 16.80295799 9.14560148 26.05705551 -0.00557787 0.00201986 0.00039254
N 18.01432677 0.78878784 22.07496898 0.00245182 -0.00212853 -0.00207941
N 15.86913899 3.65264510 19.71361899 0.00289114 0.00325847 -0.00132621
N 14.99176857 6.16473084 24.20225882 0.00034620 0.00025829 0.00112173
N 17.56585164 1.43143398 26.20682438 -0.00476037 0.00467455 0.00606432
N 16.56330101 8.73431889 20.73040131 -0.00630953 0.00535577 -0.00507736
N 14.99038996 15.09015657 1.22831961 0.00472130 -0.00163396 0.00086738
N 16.13982396 13.57292469 5.55628800 0.00068771 -0.00045251 -0.00328127
N 16.73995256 18.44761990 7.88753527 -0.00000077 0.00333212 0.00460629
N 18.24464900 10.11990427 3.23372905 -0.00035477 -0.00281269 0.00007592
N 16.10426599 13.11169804 1.33164153 0.00243998 -0.00531581 0.00285173
N 15.09126137 15.55067344 6.18930126 -0.00188996 0.00368483 0.00010217
N 17.90925272 10.86548835 7.52508996 0.01011507 -0.00406733 -0.00737760
N 16.86560985 17.82733637 3.02336445 0.00322397 -0.00000939 -0.00574438
N 14.71951321 15.12748260 10.02442450 -0.00225440 0.00166642 -0.00125183
N 16.39872276 14.19198629 14.59613378 -0.00184153 -0.00124146 0.00418861
N 16.41237169 18.67283520 16.93615805 0.00468473 -0.00349548 -0.00140006
N 18.02316563 10.24046753 12.56441908 -0.00452096 -0.00739708 0.00522311
N 15.73980643 13.14649576 10.42899856 -0.00263598 0.00401092 -0.00169044
N 14.78177228 15.74980318 15.07637770 0.00195603 -0.00071970 0.00710907
N 18.12272843 11.10287069 16.52215842 -0.00277731 -0.00455402 0.00494032
N 16.60033390 17.90325481 12.02126617 0.00649464 -0.00307984 0.00127268
N 14.59588614 14.99165289 18.77501045 -0.00300000 0.00408662 -0.00275003
N 16.20038567 13.85983986 23.96609586 0.00140612 0.00141334 -0.00192168
N 16.97126124 18.73942973 26.40622314 0.00060192 -0.00008925 0.00068314
N 17.64115185 10.55782451 21.48137686 -0.00304939 -0.00606524 -0.00039097
N 16.05518150 13.34984492 19.58956353 -0.00044090 -0.00412936 -0.00576671
N 15.41650783 15.93095417 24.48777310 0.00334013 -0.00504596 -0.00405027
N 18.01294586 11.13677240 25.86198359 0.00105414 -0.00026508 0.00498230
N 17.06893277 18.44733295 21.28006613 0.00220524 0.00354470 -0.00873307
N 14.91808510 24.93061450 1.16590468 -0.00521683 0.00258066 -0.00234031
N 16.11839970 23.48024166 5.91689772 0.00054565 0.00099870 0.00651278
N 17.22311698 28.35611861 8.10899590 0.00519712 0.00709657 -0.00029984
N 18.11829899 19.79467995 3.41785468 -0.00643184 -0.00507792 0.00718346
N 16.20143410 23.02030897 1.50381883 -0.00336529 0.00884753 0.00046919
N 15.45483947 25.69543134 6.24056657 -0.00440345 -0.00406823 -0.00677654
N 18.10776098 20.31072746 7.39504907 0.00129116 0.00221605 0.00993552
N 17.23437110 27.66050614 3.20752574 -0.00228136 0.00360683 -0.00686199
N 14.90603902 24.76727315 10.29585889 0.00081938 -0.00167431 0.00872034
N 16.07884528 23.38743704 14.81886744 0.00429766 -0.00280156 0.00393898
N 16.42244615 28.34223852 17.32638423 -0.00535489 0.00467982 -0.00581490
N 17.96603540 19.74712723 12.32587497 0.00299283 0.00159495 -0.00633284
N 15.66042004 22.61029801 10.81578835 0.01109535 0.00114041 -0.00324244
N 15.07932298 25.36668251 15.12698301 -0.00303692 -0.00489442 -0.00409898
N 17.79176419 20.48111234 16.79922016 0.00041142 0.00035928 -0.00593890
N 16.74720701 27.92959627 12.08621927 0.00106113 0.00078944 -0.00389278
N 14.74188382 24.76754996 19.58497131 0.00027854 0.00251734 -0.00276803
N 16.16877664 23.69806665 24.12715014 0.00799721 -0.00087530 -0.00215000
N 16.42709188 28.45634447 26.65173825 -0.00035189 -0.00168391 0.00791105
N 18.46311143 20.21807772 21.60589286 0.00194326 0.00671791 -0.00442676
N 16.32945527 23.14308335 19.82811492 0.00301764 0.00419809 -0.00391354
N 15.35089670 25.79794708 24.62142023 -0.00072307 0.00970582 0.00434184
N 17.83222897 20.83366127 25.97788796 0.00141099 0.00715100 0.00125320
N 17.10265423 27.79920429 21.34330493 0.00030157 0.00283742 0.00423128
N 18.78616248 5.49014708 1.05059057 -0.00042172 0.00026847 0.00235668
N 20.23432335 4.27748372 5.86047879 0.00055588 -0.00039393 -0.00990306
N 20.34697559 9.02917919 7.59861292 -0.00884865 0.00731966 -0.00411615
N 0.09030006 0.73432908 3.60302423 0.00104456 -0.00828206 -0.00005554
N 19.91317576 3.51782795 1.38820204 -0.00370767 -0.00363730 0.00363316
N 18.56279628 6.01879741 5.86331435 0.00216427 -0.00231043 -0.00458498
N 21.48923984 1.10619261 7.75127554 -0.00356712 0.00229508 0.00737721
N 20.61998552 8.35289419 2.81482056 0.00355535 -0.00692780 0.00335743
N 18.63520506 5.64686514 10.10182298 0.00544507 0.00216920 0.00380284
N 19.70617742 4.05309849 14.52811298 -0.00444323 0.00034867 -0.00175862
N 20.38652627 9.16920190 17.42128967 -0.00704987 0.00270350 0.00182152
N 21.61548129 0.35868407 12.42404509 0.00815965 -0.00189274 -0.00770014
N 19.48869552 3.57710795 10.66185429 0.00247695 0.00359757 0.00038341
N 18.48185411 5.91226035 15.10626271 -0.00204946 0.00004933 0.00331501
N 21.15987480 1.29274325 16.56866158 0.00301745 0.00383813 0.00728731
N 20.85761448 8.34335586 12.18003792 -0.00812670 -0.00121208 0.00355474
N 18.41294558 5.68150175 19.37754888 0.00220691 0.00617448 0.00026616
N 19.85114848 4.20534384 23.83794123 0.00175572 0.00656857 -0.00600981
N 20.42494044 8.95955113 26.10436020 0.00106457 -0.00203091 0.00071265
N 21.41942424 0.99660876 21.52919624 0.00450133 -0.00182160 -0.00539146
N 19.60861495 3.69642579 19.47455552 0.00134563 -0.00236349 0.00425239
N 18.52562550 6.08516693 24.03942109 -0.00554238 0.00197278 0.00299285
N 21.51338304 1.38087727 25.73084708 -0.00426708 0.00016147 -0.00429594
N 20.03179014 8.84314857 21.09505951 -0.00005222 0.00613673 -0.00077362
N 18.53724496 15.05363125 1.38916005 0.00380632 0.00390266 -0.00397892
N 19.96623093 13.74924673 5.87804776 0.00072325 0.00102409 0.00503279
N 20.41714226 18.72271859 7.69849975 -0.00522470 -0.00017208 0.00701240
N 21.94270681 10.32444686 3.04253052 0.00755659 -0.00444358 0.00087170
N 19.45997039 13.02209628 1.48494977 -0.00191355 0.00528913 -0.00052612
N 18.64486410 15.55682294 6.15870649 0.00756440 -0.00639617 0.00702405
N 21.61206143 10.92142245 7.68288089 -0.00258193 -0.00650231 -0.00391726
N 20.48717715 18.00576875 3.06429141 -0.00269080 0.00209398 0.00262781
N 18.55532883 15.16452493 10.33479016 -0.00316362 -0.00260642 0.00228032
N 20.12685368 14.17208105 14.99071122 -0.01074356 0.00876808 0.00193679
N 19.94581573 18.59586012 16.89178895 0.00254513 -0.00116585 -0.01115700
N 21.81340865 10.49242239 12.27514696 -0.00399287 -0.00518412 -0.00014258
N 19.33457885 13.06803475 10.83002968 -0.00264812 -0.00020951 0.00075630
N 18.61989740 15.95147535 14.92650550 0.00226787 -0.00387684 0.00005646
N 21.40590157 11.10500338 16.84921564 0.00155249 0.00131886 0.00174774
N 20.37033458 17.75496981 12.05914264 0.00254121 0.00460021 0.00017212
N 18.23724969 15.12949250 19.58759276 0.00329021 0.00063678 -0.00132721
N 20.11473656 14.02046830 23.94965535 0.00127124 0.00461172 0.00110372
N 20.27117937 18.94291033 26.08329858 0.00432585 0.00013684 -0.00499360
N 21.76210241 10.29053267 21.66389617 -0.00409256 -0.00481678 0.00085464
N 19.58461131 13.33411326 19.67460518 0.00002884 0.00709064 -0.00772773
N 19.20656492 16.02027312 24.40519007 -0.00170342 0.00051058 -0.00051922
N 21.86098079 10.70658233 25.37281350 0.00164218 -0.00286508 -0.01022058
N 20.42462556 18.09914894 21.02928803 -0.00058290 0.00640677 0.00430228
N 18.43571839 24.89083076 1.27614236 0.00197675 -0.00000964 0.01006693
N 20.01681341 23.76533855 5.23575031 -0.00142115 0.00578250 -0.00068325
N 20.26603839 28.10414572 7.76099411 -0.00235284 0.00066219 -0.00505428
N 21.70369066 20.07207159 3.16905206 -0.00248922 0.00518605 -0.00720345
N 19.85017279 23.08569115 1.50967044 -0.00142449 -0.00180492 0.00664114
N 18.73781663 25.58352872 5.78987440 0.00121149 0.00055120 0.00185719