1728
Time=11000.00000000 pbc="T T T" Lattice="22.02353042 0.00000000 0.00000000 0.00000000 28.83130375 0.00000000 0.00000000 0.00000000 27.39104743" energy=-10390.51525795 virial="27.06739703 -22.09605193 9.79006566 -22.09605193 41.36240429 20.22282186 9.79006566 20.22282186 12.85278724" stress="0.00376099 -0.00121025 0.00053051 -0.00121025 0.00488827 0.00116842 0.00053051 0.00116842 0.00380096" Properties=species:S:1:pos:R:3:vel:R:3
N 0.06218532 5.29171370 1.42828785 0.00592025 -0.00658375 -0.00158792
N 1.62074578 4.12707976 5.70307207 0.00024803 -0.00538839 0.00646826
N 2.06698947 9.09955731 8.03964324 0.00137938 0.00457258 0.00237547
N 3.51926165 0.76818319 3.28235254 0.00058186 0.00542908 -0.00723123
N 1.26024490 3.32820699 1.62485084 -0.00208718 -0.00596811 -0.00118897
N 0.38261266 6.15917928 5.96052748 0.00356441 0.00407453 -0.00054638
N 3.07411856 1.39756968 7.45747445 0.00002564 -0.00302643 -0.00517777
N 2.34171073 8.24664943 3.05804815 0.00072182 -0.00195713 -0.00114156
N 0.44321541 5.81008047 10.10023198 -0.00233865 0.00353339 0.00211892
N 1.55754858 4.31191371 15.08016599 0.00895621 0.00538141 0.00036946
N 2.10456589 9.09931990 17.15836744 0.00160942 0.01115006 -0.00224916
N 3.45957911 0.79547593 12.32349054 -0.00311578 -0.00240861 0.00069293
N 1.42481459 3.78060785 10.53691925 0.00081923 -0.00318167 0.00261989
N 0.57723307 6.40875047 15.22674661 0.00268782 -0.00504264 0.00418598
N 3.51269148 1.18552911 16.84062001 0.00600713 0.00141003 -0.00795206
N 2.03914223 8.32530601 12.28281070 0.00311862 -0.00888969 0.00508629
N 0.11247776 5.27773035 19.56746963 0.00305699 -0.00185347 0.00719133
N 1.59944377 3.78299788 23.86332499 -0.00371527 -0.00024684 0.00686975
N 1.82080510 8.72360390 26.23434753 0.00311953 -0.00125018 -0.00221822
N 3.16879928 0.73334260 21.88027700 0.00189881 -0.00085137 0.00457323
N 1.57997153 3.52517635 19.53895674 0.00333795 0.00650152 -0.00241974
N 0.25219381 5.74603278 24.28152899 -0.00244749 -0.00156578 0.00270619
N 2.99484248 1.26274095 26.21403715 0.00177705 0.00015901 0.00152129
N 2.43090017 8.21683309 21.25220423 -0.00129583 -0.00560030 0.00233811
N 0.03713843 14.99362690 1.22486719 0.00474850 -0.00323499 -0.00278494
N 1.58708107 14.04108842 5.94482505 -0.00065468 -0.00164622 0.00156122
N 2.40711399 18.51459346 7.86984571 0.00255105 -0.00027942 0.00763242
N 3.48923381 10.14674672 3.29826562 -0.00143684 0.00181806 0.00231031
N 1.63449833 13.24110430 1.50646356 -0.00047507 0.00350327 0.00181954
N 0.23827890 15.91582476 5.97426232 0.00112560 0.00563217 -0.00097720
N 3.36229670 11.03438719 7.64866216 0.00271758 -0.00225010 0.00073032
N 2.14467673 18.35579578 2.98516222 -0.00678148 -0.00096078 -0.00757436
N 0.23877829 15.15252534 10.11647046 0.00471122 0.00175016 -0.00690078
N 1.65846404 13.85473197 14.60055994 -0.00557460 0.00690374 -0.00114667
N 2.01112226 18.43661384 17.03237762 -0.00145354 0.00043566 -0.00461467
N 3.43573405 10.23476491 12.52642086 0.00256704 0.00154692 0.00183724
N 1.24390111 13.10618554 10.49206241 0.00596600 -0.00280224 -0.00391329
N 0.13909856 15.43550053 15.32894552 -0.00025195 0.00749609 0.00161148
N 3.42304084 10.91446750 16.52917470 -0.00275354 -0.00374758 -0.00265399
N 2.21247300 17.88123118 12.35586987 -0.00332366 0.00250844 -0.00267594
N 0.55333020 15.13123171 19.24533195 -0.00119270 -0.00490224 0.00047805
N 1.38170211 13.77447904 24.10476669 -0.00206759 -0.00315831 -0.00814750
N 2.11447754 18.49464000 26.11347391 0.00193228 -0.00281725 0.00086688
N 3.34383357 10.29813312 21.68526237 -0.00028413 0.00170230 -0.00402825
N 1.42926925 13.05199349 19.64704590 -0.00017716 0.00668102 -0.00794848
N 0.36958603 15.86637924 24.19449863 -0.00106596 0.00158472 -0.00408264
N 2.93803700 10.68183338 25.76062385 -0.00414682 0.00154565 0.00238360
N 2.29800433 18.09089782 21.07218335 0.00572361 -0.00123886 -0.00621839
N 0.58516769 24.64150235 1.17731645 -0.00099482 -0.00098973 -0.00150612
N 1.62992794 23.10519012 5.76297011 -0.00158795 0.00685046 -0.00454876
N 1.91163384 28.27911297 7.78026546 0.00639426 -0.00338564 -0.00516884
N 3.59306348 20.19921334 3.46748116 0.00123223 -0.00220898 -0.00102773
N 1.68139090 22.66017459 1.40105738 0.00451798 0.00255594 -0.00126302
N 0.41302272 25.10455945 5.82918178 -0.00240190 -0.00290510 0.00570184
N 3.34797026 20.59857898 7.78016479 0.00780230 -0.00185667 -0.00195042
N 2.24306044 27.68665437 3.12086841 0.00097382 -0.00579619 -0.00668941
N 0.17591448 24.67440772 10.43575219 -0.00182138 0.00141664 -0.00385274
N 1.73426093 23.39816304 14.75272931 -0.00003698 -0.00450093 0.00337394
N 2.12563291 28.17946712 17.14225836 0.00488662 0.00229756 -0.00792454
N 3.66303412 19.69788201 12.59655372 0.00288223 0.00381943 0.00102153
N 1.57029730 22.78617941 10.74449423 0.00176550 -0.00711244 0.00080298
N 0.47725095 25.31177890 15.18588599 0.00327668 -0.00316276 -0.00226471
N 3.25515783 20.32684823 16.71328684 -0.00473799 -0.00011789 0.00350194
N 2.08586872 27.70060893 12.24367725 -0.00290275 -0.00363512 -0.00068451
N 0.63904269 24.70832105 19.44218923 0.00396398 -0.00259383 -0.00038548
N 1.49493249 23.34448467 23.87847028 0.00535627 -0.00287717 0.00237471
N 1.96237116 28.03195096 26.47106103 -0.00360987 -0.00317044 0.00133761
N 3.65714933 19.90430300 21.66106049 0.00021188 0.00035562 0.00526130
N 1.41319849 22.56069163 19.67634679 -0.00588299 0.00103793 -0.00632024
N 0.39459455 25.32614610 24.37275689 -0.00054613 -0.00443031 0.00356600
N 3.46773252 20.37000900 25.84662965 0.00813570 -0.00436853 0.00039331
N 2.15830454 27.51104723 21.39488780 -0.00165089 -0.00065911 0.00495357
N 3.55290470 5.46506325 1.18342499 -0.00172009 -0.00608357 0.00180691
N 5.25776061 4.14825887 5.51795054 0.00367310 -0.00079134 0.00588796
N 5.42690213 9.01386349 7.96540607 -0.00016594 -0.00518059 -0.00594322
N 6.87976778 0.49896002 3.49448789 0.00079860 0.00520388 -0.00083315
N 4.93490444 3.71655201 1.40029098 0.00337103 -0.00325814 -0.00461230
N 4.24915077 6.11949696 6.15904570 -0.00295032 -0.00102704 0.00345160
N 6.96513083 1.46721383 7.93547910 0.00419204 0.00086832 0.00135651
N 5.87061991 8.27951075 3.39193730 -0.00251146 0.00382888 -0.00099851
N 3.75692565 5.74738610 10.40615457 0.00019824 0.00449566 0.00115106
N 4.76712116 4.06185961 14.73186447 -0.00057096 -0.00093943 -0.00389266
N 5.81007744 9.00326894 17.00100280 -0.00070260 0.00439235 -0.00437258
N 6.93642167 0.65350591 12.59407773 0.00324333 -0.00426603 0.00656139
N 5.07635207 3.85104655 10.75734884 0.00186344 0.00268455 0.00026581
N 4.21443976 6.27076474 15.24866604 0.00277752 -0.00132743 0.00146824
N 7.07844242 1.24115807 16.63552510 -0.00367614 0.00116957 0.00336133
N 5.68907724 8.63035293 12.11177900 -0.00237047 -0.00406587 0.00384401
N 4.05490697 5.52828248 19.25037086 0.00368336 0.00354662 0.00999347
N 4.93215127 4.09527098 23.72959404 -0.00440401 -0.00339312 -0.00822700
N 5.55537434 8.98379566 26.02067977 -0.00170099 -0.00540600 -0.00008955
N 6.97511867 0.77399735 21.63799107 0.00834885 -0.00501506 0.00365518
N 5.13568297 3.51901542 19.62899310 -0.00673407 -0.00139333 0.00040342
N 3.88019515 5.94120453 24.20863215 -0.00242210 -0.00685356 0.00202329
N 6.45383582 1.28085441 25.75272577 -0.00104603 -0.00265794 -0.00484437
N 5.75502459 8.38785967 21.21224466 -0.00262369 -0.00065744 0.00131099
N 3.95643372 15.17229159 0.90182884 0.00156558 -0.00506862 -0.00375858
N 5.24478641 13.53632942 5.70890992 0.00051911 0.00074975 0.00585102
N 6.39695636 18.40207124 8.14939341 -0.00016500 -0.00115221 0.00028659
N 6.56398715 10.44603556 3.28165149 -0.00327866 -0.00062164 0.00061908
N 5.01803310 13.08446507 0.93732002 -0.00544405 0.00688932 0.00709066
N 4.12317797 15.55533283 6.01364167 0.00234096 0.00705006 0.00126271
N 7.00043643 10.69093620 7.51497609 0.00275396 -0.00025907 0.00451501
N 5.79413621 18.11304820 3.21581507 -0.00026220 0.00233624 0.00334485
N 3.78767195 14.98828283 10.39073148 -0.00271663 0.00223404 0.00767630
N 5.22036335 13.62258871 14.84319517 0.00242396 0.00152141 -0.00432195
N 5.68463250 18.44055102 17.06269908 0.00054566 -0.00204859 -0.00073570
N 7.21159079 10.34703282 12.55296085 0.00322449 -0.00443618 -0.00008148
N 4.92013669 13.02524506 10.64922704 0.00388789 0.00327838 0.00272113
N 3.86253818 15.54818321 15.27214838 0.00076115 -0.00360904 0.00058844
N 7.27095182 10.69345747 16.77536656 -0.00469738 -0.00563807 -0.00199285
N 5.89845517 17.59320301 12.46534370 -0.00079059 0.00286824 -0.00748281
N 3.97420117 14.91134205 19.59692319 0.00194314 0.00168649 -0.00098973
N 5.15621316 13.40841599 23.84634580 -0.00272423 0.00566718 0.00345906
N 5.83567981 18.45734685 25.93391876 0.00519129 0.00059498 -0.00799111
N 7.05529944 10.19270500 21.47862405 -0.00192851 -0.00050231 0.00297651
N 5.36536280 13.04437598 19.68091504 -0.00134649 -0.00102789 -0.00008816
N 4.04985325 15.41160563 24.12478526 0.00139506 0.00142909 -0.00035666
N 6.85685097 10.90147100 25.94585527 -0.00412265 -0.00076259 0.00436856
N 5.90841652 17.89630547 21.54257642 -0.00125325 -0.00055406 0.00042828
N 3.97921742 24.54976449 1.39677620 -0.00078642 0.00412824 -0.00524296
N 5.29034677 23.35814507 6.03359632 -0.00249672 0.00142549 0.00336791
N 5.65941714 28.42801943 8.28540353 -0.00628749 -0.00789471 0.00219028
N 7.15483832 20.04717016 3.39772053 0.00119394 0.00434877 -0.00076375
N 5.26340538 22.66382304 1.74777366 -0.00898798 0.00172138 0.00319972
N 4.06225951 25.22648421 6.29563503 -0.00202075 -0.00044462 -0.00121938
N 7.25109635 20.60310428 7.84615867 -0.00292227 -0.00209922 -0.00940650
N 5.81884483 27.30853573 3.17086910 0.00003649 0.00056584 -0.00083682
N 3.77532305 24.67830233 10.47119051 -0.00672438 0.00095246 -0.00526135
N 5.41454962 23.28822075 15.09825571 -0.00322801 0.00111979 -0.00551087
N 5.97919002 28.12198654 17.03842077 0.00877608 0.00290471 -0.00435448
N 7.10582314 19.59519415 12.39737469 0.00167721 -0.00271397 0.00474535
N 5.11056483 22.83160237 10.95431169 0.00001934 0.00120914 0.00487036
N 4.10633696 25.20904442 15.17132532 0.00039194 -0.00073601 -0.00229934
N 7.04851828 20.26525020 16.68193698 -0.00089015 -0.00339393 -0.00395594
N 5.69232748 27.65071891 12.06373578 0.00035742 0.00208777 0.00269756
N 3.89481721 24.62742005 19.57850837 -0.00093145 -0.00027940 0.00229571
N 5.53461563 23.42990053 24.32666423 0.00079696 0.00265695 0.00000992
N 5.77452427 28.00289062 26.30470898 0.00685162 -0.00364547 0.00042026
N 7.04699232 19.91350224 21.57292253 -0.00262662 -0.00200486 0.00147049
N 5.21474806 22.72718863 19.53687112 0.00093700 0.00315216 -0.00502274
N 4.06985892 25.20079932 24.31528230 -0.00328399 -0.00754300 -0.00096828
N 7.26125580 20.30557775 25.82181191 -0.00497151 -0.00281689 0.00115430
N 6.10143701 27.45496832 21.53535977 -0.00116940 0.00075882 0.00081067
N 7.51855308 5.38980728 1.08172555 0.00025480 -0.00144255 -0.00440379
N 8.92247214 4.03989346 5.60772177 -0.00228995 -0.00392567 -0.00505103
N 9.31020500 9.14168885 7.77407597 0.00230604 -0.00372532 -0.00382157
N 10.70835475 0.89748163 3.66799714 0.00625275 0.00591206 0.00559259
N 8.43529897 3.33398387 1.28913425 0.00345160 0.00041302 -0.00383966
N 7.64020160 5.85639775 6.27361766 -0.00507818 -0.00528603 0.00037815
N 10.60170825 1.30901917 7.64455523 -0.00263531 0.00598069 -0.00207077
N 9.46396120 8.52603037 3.15209747 0.00534856 0.00256565 -0.00293581
N 7.29377379 5.42963122 10.29005835 0.00008608 0.00307007 -0.00069453
N 8.95203776 4.15101266 14.90577648 -0.00315578 0.00222691 -0.00370735
N 9.64986708 8.92661339 16.93050089 -0.00046613 0.00205249 0.00134695
N 10.70449282 0.46250886 12.42717782 -0.00119877 0.00248829 -0.00268141
N 8.80336031 3.80949425 10.75361757 0.00124076 -0.00398986 0.00308091
N 7.75984191 6.15141151 15.04058285 0.00363429 0.00017913 -0.00827508
N 10.77922057 1.25563090 16.51374587 0.00345623 -0.00096372 0.00330201
N 9.50804120 8.43570512 12.32959226 0.00268872 -0.00018055 -0.00951833
N 7.60527033 5.53962978 19.58175746 0.00004580 0.00015572 0.00955791
N 8.83033800 4.16692446 24.02258341 -0.00144146 -0.00277880 0.01027819
N 9.55372036 8.79171318 26.32893852 0.00256614 0.00159189 0.00319552
N 10.48608765 0.69808681 21.53082738 -0.00379837 0.00480111 -0.00514769
N 8.77505200 3.57051253 19.78713422 -0.00006364 -0.00128781 -0.00162252
N 7.66032026 6.06208263 24.45999771 -0.00179196 0.00620167 -0.00408946
N 10.72186004 1.12080964 25.95917318 -0.00515333 0.00591404 0.00510201
N 9.54681353 8.23862734 21.49215051 0.00273071 0.00292624 -0.00339054
N 8.01288307 15.23550419 1.06706717 -0.00186620 -0.00133480 0.00014605
N 9.00138839 13.57906095 5.73703101 -0.00984199 -0.00081689 -0.00304515
N 9.57248731 18.59081058 7.79141757 -0.00113766 -0.00108493 -0.00352085
N 10.96289262 10.34254323 3.33668955 -0.00267456 -0.00297850 -0.00228764
N 8.76921607 13.11276116 1.62251389 0.00128895 -0.00174848 0.00168248
N 7.72874633 15.50487193 5.99479107 0.00039119 0.00498077 0.00905789
N 10.70090826 10.98506348 7.71047528 -0.00126351 -0.00157513 0.00090253
N 9.35959940 18.27481126 3.01559738 -0.00095923 0.00118350 0.00134056
N 7.49493223 14.95677218 10.35136537 0.00140869 0.00320264 0.01109107
N 9.10563191 13.77068425 15.03852026 0.00419970 0.00089408 -0.00170806
N 9.67014984 18.44182395 17.00340624 0.00282225 -0.00373523 0.00063729
N 10.89073365 10.32952019 12.40787686 0.00003553 0.00048345 -0.00224773
N 8.80047256 13.10158306 10.33374450 -0.00432089 -0.00412649 0.00214178
N 7.73208508 15.62602491 15.45638870 -0.00007068 0.00593361 -0.00291283
N 10.76659641 10.89496036 16.80190853 0.00163842 0.00539307 -0.00122273
N 9.59525119 17.60670629 12.17334716 0.00870963 0.00150534 0.00318534
N 7.74617729 15.07611960 19.61236808 -0.00375644 0.00166204 0.00457839
N 8.88436933 13.72224117 24.08266332 0.00327837 0.00862047 0.00373467
N 9.56589080 18.47681207 26.28169344 -0.00530686 -0.00211888 0.00046135
N 10.84018701 10.18427213 21.48816731 -0.00336219 0.00073936 0.00624927
N 9.08084634 13.14315991 19.81948475 -0.00235276 0.00142673 0.00515450
N 7.60027152 15.65989984 24.28463554 0.00061550 -0.00693196 -0.00272894
N 10.61010517 10.87172587 26.13564289 0.00284960 0.00468894 0.00371497
N 9.72653248 17.87125537 21.34743229 0.00528097 0.00242407 0.00453188
N 7.73357100 24.69155374 1.39392002 0.00867641 -0.00508004 0.00097260
N 8.93786598 23.66977861 5.98754946 0.00183212 -0.00524459 0.00549330
N 9.10477620 28.41807954 8.13600319 -0.00302116 -0.00174325 0.00293622
N 10.94327307 19.88682700 3.64642890 -0.00007445 0.00410345 -0.00546594
N 9.10339433 22.78086330 1.63163816 -0.00535256 -0.00580916 0.00603384
N 7.62573538 25.57194834 6.31399456 0.00630302 -0.00162747 -0.00826362
N 10.72909630 20.62336316 7.51257079 -0.00029807 0.00513101 0.00263688
N 9.32635734 27.92825929 3.23427288 -0.01387584 -0.00087170 0.00580170
N 7.57769294 24.68233866 10.60910400 0.00223291 -0.00169889 0.00181128
N 8.88901588 23.04258029 14.59324902 -0.00250093 -0.00594287 -0.00112478
N 9.62136906 28.11242295 16.93396588 -0.00437487 -0.00358263 -0.00078842
N 10.73133276 19.57924922 12.43234631 -0.00327756 0.00197150 -0.00788937
N 8.93411825 22.78306010 10.72357289 -0.00151845 -0.01037633 0.00722136
N 7.93919187 24.98873598 15.15302573 0.00194336 -0.00316328 0.00067159
N 10.44953222 20.60438594 16.78336651 -0.00346064 0.00650250 0.00386529
N 9.14756330 27.58193153 11.91610845 0.00036613 0.00000129 0.00149033
N 7.64187917 24.62967073 19.46559409 0.00043645 0.00034330 0.00110878
N 8.92983645 23.61635757 24.07006459 -0.00105423 0.00186998 0.00085369
N 9.17412914 28.27577576 26.26130244 -0.00189007 -0.00241011 0.00767377
N 10.77903875 19.88660405 21.69515601 0.00052452 -0.00275615 -0.00231804
N 9.03868963 22.78168803 19.89923567 0.00241605 -0.00200224 0.00326456
N 7.62625657 25.47613568 24.46919524 -0.00675691 -0.00290355 0.00123284
N 10.71266450 20.43023167 25.97462447 0.00025154 0.00518228 -0.00019666
N 9.50158459 27.43510282 21.26292910 0.00803094 0.00556520 0.00305594
N 11.53460276 5.66726816 0.95745933 -0.00730780 0.00530947 0.00170589
N 12.78818591 4.03997940 5.53796056 -0.00005144 0.00062047 0.00046093
N 13.23755043 8.61206668 7.89363942 -0.00102569 -0.00322250 -0.00004509
N 14.31904809 0.78442770 3.57449859 -0.00332929 -0.00037680 0.00111237
N 12.20456428 3.50251373 1.23438628 -0.00209132 -0.00134620 -0.00027313
N 11.34292974 5.88239496 5.82042623 0.00254743 0.00178464 0.00029955
N 13.93826308 1.11512176 7.40687412 0.00747099 -0.00298636 -0.00122507
N 13.39591775 8.59116517 3.03028998 -0.00007149 0.00324719 -0.00130996
N 11.27547137 5.59730129 10.06551819 0.00017792 0.00688950 -0.00119665
N 12.55163162 4.07722787 14.88362291 0.00001078 0.00200534 -0.00126357
N 13.28648562 8.83700298 17.22876370 -0.00234537 0.00018071 0.00123276
N 14.11920411 0.75811571 12.42958287 -0.00041418 -0.00444240 -0.00523913
N 12.33947816 3.61700895 10.60362463 -0.00438711 -0.00154775 0.00400050
N 11.46016205 6.10524743 15.28892274 0.00421124 -0.00260907 -0.00084385
N 14.39831357 1.28103303 16.73734470 -0.00053366 -0.00127785 0.00560057
N 13.43336588 8.04415900 12.30846827 -0.00259245 -0.00366502 0.00156873
N 11.59114200 5.64772322 19.64151522 -0.00009209 0.00193416 -0.00554386
N 12.62293898 4.17232750 24.02252099 -0.00446699 -0.00563596 0.00496232
N 12.82591985 9.23960177 26.57924014 0.00524626 0.00528242 0.00156837
N 14.44877056 0.72265554 21.75923504 -0.00061610 0.00271029 -0.00076839
N 12.57276757 3.56655736 19.87547465 0.00046467 0.00312440 0.00165613
N 11.64173889 6.18893886 24.51769497 -0.00194955 -0.00411965 -0.00501282
N 14.28382972 1.26091503 26.01074070 0.00079371 0.00142981 0.00019754
N 13.34481272 8.16399222 21.54059582 0.00057769 -0.00620384 0.00327024
N 11.33605274 15.22955481 1.36548691 0.00526150 0.00496439 -0.00093723
N 12.65484769 13.81628651 6.00764747 0.00104723 -0.00375437 0.00374674
N 13.21944961 18.49234804 7.85997719 0.00299582 0.00475713 -0.00248921
N 14.59856442 10.47420005 3.47137135 -0.00337040 -0.00233019 0.00360851
N 12.42420886 13.20424343 1.43152513 -0.00157670 0.00218645 -0.00319346
N 11.27329931 15.73232654 5.97653774 0.00057047 0.00096271 -0.00105992
N 14.22265563 10.72486247 7.64375764 -0.00575101 0.00250305 -0.00004700
N 13.15151384 17.81555444 3.03918112 0.00505355 0.00244258 -0.00405402
N 11.84699461 15.07929562 10.26937754 0.00670633 0.00276159 -0.00755959
N 12.65946837 13.72448643 14.77636323 -0.00484328 0.00309428 -0.00440953
N 13.13536520 18.60062696 16.95852564 0.00507900 -0.00048855 0.00260321
N 14.36628035 10.17729242 12.71593086 -0.00404070 0.00195239 -0.00028102
N 12.49583055 12.89679962 10.70727788 -0.00701557 0.00261773 0.00501040
N 11.42454619 15.58316840 15.06682516 -0.00484104 -0.00174434 -0.00107538
N 14.33928842 10.82937071 16.99120392 -0.00745760 -0.00235344 -0.00399527
N 13.27726852 18.26410516 12.25769336 0.00064681 0.00864818 -0.00025821
N 11.32270987 14.76044493 19.54364856 -0.00014569 -0.00115618 -0.00483439
N 12.57338081 13.88133773 24.40240002 0.00177170 -0.00077787 -0.00790028
N 13.21559262 18.45904910 26.24012684 0.00712367 0.00434517 0.00316288
N 14.44396140 10.13382572 21.81766831 -0.00312017 -0.00167495 0.00101065
N 12.85422207 13.07450844 19.93587294 0.00079893 -0.00424354 -0.00249026
N 11.22232605 15.69455290 24.32817156 -0.00133365 -0.00049305 0.00450887
N 14.00257363 10.99423681 25.88372126 -0.00446327 -0.00633314 0.00853007
N 13.29127788 17.99306713 21.20236046 -0.00107068 0.00299800 -0.00255149
N 11.47495194 24.84252998 0.94021518 0.00500268 0.00169772 0.00552544
N 12.65788927 23.60516704 5.61706773 -0.00126705 -0.00466122 -0.00210575
N 12.69152378 28.18920905 8.22772956 -0.00382988 0.00235857 0.00552997
N 14.12169395 19.90015947 3.29582798 -0.00019110 -0.00058843 0.00552558
N 12.02644075 22.65280905 1.27868562 0.00115572 -0.00230160 -0.00005295
N 11.24574416 25.40197570 6.19697122 0.00048741 -0.00146586 0.00096525
N 14.24519139 20.48750513 7.39294946 0.00044355 -0.00613539 0.00265069
N 13.19886448 27.65409167 3.21750776 -0.00557352 0.00150491 0.00683469
N 11.28174531 24.64238511 10.21059000 -0.00804418 0.00349009 0.00141789
N 12.77989996 23.68092271 14.94170737 -0.00298162 0.00133264 -0.00533777
N 13.35119179 28.04611449 17.05063855 0.00243679 0.00265716 -0.00155017
N 14.55156355 20.12169880 12.65327209 -0.00119744 -0.00257452 0.00438033
N 12.33032838 22.55745746 10.48236706 0.00565333 0.00505894 -0.00040309
N 11.45257726 25.55199824 14.76669490 -0.00042360 -0.00017028 0.00113915
N 14.36187095 20.58094393 16.89729620 -0.00037461 0.00430687 0.00044456
N 13.12621577 27.54944563 12.29068675 0.00471654 -0.00019169 -0.00191301
N 11.49608583 24.67539200 19.39108347 0.00258271 0.00394183 0.00252088
N 12.73234008 23.68961887 23.90806210 0.00698193 -0.00149760 -0.00159010
N 12.98850487 28.15477559 26.34964246 -0.00097892 -0.00047343 -0.00407258
N 14.44855872 19.89760837 21.58881778 0.00578192 -0.00431388 -0.00320573
N 12.47240979 22.63387101 19.46115484 0.00962657 -0.00042984 0.00097887
N 11.28268428 25.46074176 24.01390887 -0.00014764 0.00272578 -0.00942561
N 14.44976616 20.38814576 25.90558953 0.00304960 0.00470488 -0.00278821
N 12.89592571 27.93102791 21.25995225 0.00068311 0.00110752 -0.00212309
N 14.95698809 5.58886472 1.24154436 0.00114585 0.00797386 0.00136605
N 15.99325732 4.25054125 5.58686212 0.00099623 0.00407780 0.00024617
N 16.66841100 8.92272726 7.87971176 -0.00596928 -0.00050771 0.00100691
N 18.04387109 0.40317131 3.48160867 -0.00359872 0.00190582 -0.00395757
N 15.82600885 3.46889919 1.71731609 -0.00071962 -0.00562754 0.00993468
N 15.02402335 6.26056714 5.93870224 -0.00448123 -0.01237604 0.00051429
N 17.74975652 1.28062698 7.85293654 -0.00098502 0.00344067 -0.00000852
N 16.73372590 8.58038662 3.13061238 0.00119057 -0.00157399 0.00078596
N 15.28083625 5.61647250 10.25616531 -0.00096616 0.00373264 0.00412840
N 16.56063336 4.15343451 14.85077792 -0.00398955 -0.00129053 -0.00072478
N 16.70864796 8.97794292 17.02114373 0.00012429 0.00131587 -0.00129800
N 18.30891970 0.81739128 12.30500638 -0.00601108 0.00384649 -0.00223953
N 16.05805989 3.40545771 10.49674389 -0.00147883 -0.00498476 0.00087482
N 15.39251111 6.09663262 15.10352550 0.00158291 0.00172013 -0.00047748
N 18.05524318 1.26119837 17.16310772 -0.00211449 -0.00055643 -0.00203872
N 16.72116494 8.51539806 12.03814725 -0.00105665 -0.00013129 0.00195228
N 14.95146666 5.34754779 19.46546519 -0.00200568 -0.00342504 -0.00194140
N 16.51739312 4.11476028 24.01266130 0.00480382 0.00119496 0.00292006
N 16.67011194 9.01515712 26.19294640 -0.00686673 -0.00830378 0.00391414
N 17.88338555 0.56565202 21.83342471 0.00271459 -0.00291568 0.00618135
N 16.34303991 3.53944607 19.59215619 -0.00230867 0.00192909 -0.00204976
N 14.95993517 5.93990683 24.33179188 -0.00050283 -0.00379723 -0.00712104
N 17.68645245 1.09566835 25.74736375 0.00418533 -0.00180818 0.00052453
N 16.82558338 8.49508372 21.43298783 0.00122007 0.00067058 -0.00182042
N 14.59397165 15.12156193 1.00092098 0.00512409 -0.00249917 -0.00009943
N 15.66627981 13.60378112 5.55717330 0.00450308 0.00266354 -0.00198089
N 16.69829405 18.53927750 7.89086131 0.00124527 0.00639143 -0.00527802
N 18.23800672 10.38277436 3.37028542 0.00057751 -0.00165562 0.00876819
N 15.91550364 13.44783720 1.59268175 0.00358595 0.00167005 0.00276948
N 14.99747085 15.70240663 5.93154364 -0.00215413 -0.00275907 0.00139017
N 18.12372712 10.71824717 7.62900997 0.00121676 0.00160744 -0.01080777
N 16.78356803 18.01474445 3.14467113 -0.00540035 -0.00336247 0.00264556
N 14.74083160 14.97314016 10.41560579 0.00232648 -0.00668956 0.00537521
N 16.28809439 13.84257367 14.88048172 -0.00226879 -0.00135884 0.00509234
N 17.05412043 18.52804144 17.26765298 -0.00018996 -0.00376555 0.00235402
N 18.01528573 10.33660361 12.36486337 0.00160489 0.00047941 -0.00199172
N 16.02172676 13.05221641 10.58077444 -0.00511925 -0.00496562 -0.00562618
N 15.05962784 15.77070356 15.18059543 0.00262226 -0.00112333 -0.00268041
N 18.24233546 10.68855998 16.69047234 -0.00055193 0.00534326 -0.00717569
N 16.82277600 17.85956346 12.05395408 -0.00110834 0.00197931 -0.00391803
N 15.14379274 15.05369321 19.22966355 -0.00464123 0.00278349 0.00306925
N 16.30729853 13.89526025 23.89823815 0.00465287 -0.00045721 0.00431721
N 16.97346884 18.66672126 25.97647144 0.00355497 0.00703303 0.00502268
N 18.15827444 10.30301849 21.58761060 0.00404159 0.00675465 -0.00695537
N 16.38078997 13.08630248 19.51703666 -0.00074874 0.00492769 0.00709095
N 15.08133317 15.82894664 24.14066869 0.00292028 0.00578581 -0.00131211
N 17.90680862 10.89380595 25.93132563 0.00212103 -0.00082825 0.00479660
N 16.77238525 18.10352852 21.24071560 0.00337793 0.00413054 -0.00678645
N 14.62676354 24.68675367 1.27988138 0.00075100 0.00210297 0.00184905
N 16.21755962 23.46830721 5.76165901 0.00044376 -0.00116593 -0.00104134
N 16.72916695 28.08190081 8.17018297 0.00386821 -0.00098583 0.00265549
N 18.24732432 19.89040183 3.40159657 -0.00262362 0.00376592 -0.00240146
N 15.95198269 22.84617232 1.60857043 0.00505146 -0.00468969 0.00154767
N 15.23393542 25.44204423 6.15041699 -0.00098371 -0.00206181 -0.00153260
N 18.02188732 20.30666360 7.48748131 0.00232652 0.00218715 -0.00194545
N 16.66798907 27.38855425 3.26544710 0.00115426 0.00111925 0.00087076
N 14.85998502 24.56451838 10.38718692 0.00423948 -0.00091057 0.00574893
N 16.29402837 23.54768977 14.94316445 -0.00047768 0.00398121 -0.00194268
N 16.75632236 28.07589161 17.11741229 -0.00036178 0.00088726 0.00736501
N 17.95108693 19.78513972 12.40330508 -0.00055405 0.00547220 0.00319765
N 16.41998564 22.78542088 10.37944002 -0.00146760 0.00553493 -0.00057849
N 15.12024127 25.46865468 15.32981193 0.00087398 -0.00259511 -0.00224290
N 18.00541821 20.50650622 16.69694857 0.00201433 0.00116366 0.00283560
N 16.88284778 27.75967999 11.96346303 0.00377665 0.00314939 -0.00321527
N 14.73966882 24.76904994 19.62565349 0.00026916 -0.00526532 0.00151345
N 16.22176366 23.43690069 24.20683051 0.00165077 -0.00249007 -0.00112005
N 16.87446484 27.88469895 26.21190048 0.00281379 -0.00482785 0.00427577
N 18.37028991 19.78597667 21.46048077 -0.00093993 -0.00671292 0.00988672
N 16.09521109 22.94907503 19.82605170 0.00118945 0.00107414 0.00413938
N 15.09638586 25.49586033 24.31190794 0.00343051 0.00574510 0.00196976
N 18.16764647 20.53405386 25.81727549 -0.01195120 -0.00397218 0.00233635
N 16.76447696 27.45154932 21.32773648 -0.00265470 -0.00204197 -0.00719631
N 18.39276252 5.24695788 1.26728027 -0.00064030 -0.00356695 -0.00785869
N 20.00808958 4.05068572 5.68808935 -0.00458120 -0.00200387 -0.00211066
N 20.53814821 9.04679980 7.84517227 0.00154116 0.00778279 0.00080624
N 21.75614460 0.31387967 3.30137365 -0.00175341 -0.00313729 0.00142751
N 19.77807250 3.38857435 1.40900388 -0.00200711 -0.00367420 -0.00301481
N 18.71851762 5.97704991 5.95945323 0.00204187 -0.00384652 0.00391576
N 21.51057761 1.21820447 7.85177085 0.00020550 -0.00676770 -0.00514470
N 20.76705624 8.32133448 3.25866019 0.01038409 0.00121521 0.00693304
N 18.24760663 5.51244832 10.41602052 0.00274010 0.00400580 -0.00083564
N 20.15880860 4.40976325 15.20824705 -0.00308892 0.00024657 0.00340624
N 20.63371606 8.96001817 17.34369055 0.00527234 0.00248056 -0.00393172
N 21.53320209 0.88892407 12.52448079 -0.00611024 -0.00120031 -0.00327631
N 19.63615330 3.66802166 10.55951751 0.00300680 0.00221225 0.00134893
N 19.01651955 6.41409556 15.36941769 -0.00672565 -0.00281431 -0.00069719
N 21.69140118 1.17911113 16.73901658 0.00325869 -0.00074673 -0.00144559
N 20.45438934 8.39484767 12.17208730 0.00081793 0.00723552 0.00484901
N 18.63895044 5.59543664 19.50650406 -0.00270690 0.00041231 -0.00039374
N 19.66247727 4.10641298 24.00419027 -0.00533087 0.00520081 -0.00439645
N 20.45301800 8.66422832 26.07856327 0.00099439 0.00035264 0.00022913
N 21.80155085 0.62552383 21.57649214 -0.00600514 -0.00034972 -0.00023005
N 19.41000521 3.49674517 19.99265187 -0.00108547 -0.00273577 0.00054761
N 18.60667353 6.21347134 24.01622154 -0.00874658 0.00605595 0.00674176
N 21.39107359 1.28109025 25.60696084 -0.00083436 -0.00290475 -0.00107636
N 20.60488880 8.20758246 21.66421735 0.00398848 0.00122452 -0.00019927
N 18.58050746 15.29787922 1.06730902 -0.00136657 0.00159840 0.00356935
N 19.76834674 13.63882690 5.41328445 -0.00416652 0.00115879 -0.00243945
N 20.43159609 18.47084250 8.13399682 -0.00187855 0.00165272 0.00190926
N 21.62760923 10.47213511 3.33354684 0.00554940 0.00105233 -0.00238941
N 19.64285397 13.34320517 1.49015916 -0.00464068 0.00185677 0.00992837
N 18.70843103 15.72876298 5.81958524 0.00120839 -0.00154197 0.00134914
N 21.89457599 10.89760549 7.40232773 0.00347112 -0.00517517 -0.00073572
N 20.65164731 18.19473623 3.10607045 -0.00370958 0.00259553 -0.00360511
N 18.45975075 15.09201942 10.12581571 0.00140851 -0.00396842 -0.00072780
N 19.83971238 13.60642635 14.89481790 -0.00100745 0.00075558 0.00076037
N 20.28543417 18.81341050 17.03431984 0.00721517 -0.00338733 -0.00306796
N 21.64982365 10.33956114 12.52912913 0.00008905 -0.00562538 0.00181559
N 19.65684216 13.16282770 10.32674242 0.00368546 0.00288194 0.00053780
N 18.74168207 15.67187539 15.02179085 0.00140948 0.00172563 0.00400444
N 21.43058959 10.96851711 16.71525100 0.00077240 0.00554330 -0.00296578
N 20.53780950 17.89313276 12.21808012 0.00004126 0.00114923 0.00412032
N 18.64926128 14.65816759 19.44597138 0.00613393 0.00333608 -0.00055556
N 19.97362971 13.69019430 24.05804799 -0.00343703 0.00069278 -0.00432066
N 20.44217505 18.62020721 26.34372213 0.00261596 0.00693121 0.00109786
N 21.95409776 10.06637883 21.75751976 0.00054019 0.00726050 0.00075238
N 20.23727430 13.01548874 19.78692504 0.00254283 0.00587943 0.00493329
N 18.75391093 15.60183609 24.43474663 -0.00311564 0.00471357 0.00634660
N 21.57272861 10.71250600 26.07923824 0.00512403 0.00111595 0.00356667
N 20.87090283 17.54340364 21.51407335 -0.00345972 0.00667773 0.00170226
N 18.45115158 24.62178422 1.10168488 -0.00401442 -0.00016839 0.00486302
N 20.15019315 23.34428040 5.93327749 -0.00328059 0.00124271 0.00689019
N 20.59030294 28.01289461 7.98869389 0.00075214 -0.00030915 -0.00236265
N 21.71445221 20.09919022 3.66916524 -0.00172591 0.00204680 -0.00608199
N 19.81882062 22.78120081 1.44901165 0.00116462 0.00395514 0.00000123
N 18.76657596 25.22882003 6.17773055 0.00399749 0.00575231 0.00033283