1728
Time=3000.00000000 pbc="T T T" Lattice="21.91765379 0.00000000 0.00000000 0.00000000 28.99471799 0.00000000 0.00000000 0.00000000 27.44959301" energy=-10386.00180066 virial="8.58082600 -9.16584564 20.03447410 -9.16584564 17.93487176 3.15512658 20.03447410 3.15512658 10.82349377" stress="0.00257323 -0.00054606 0.00121061 -0.00054606 0.00383825 0.00024061 0.00121061 0.00024061 0.00404238" Properties=species:S:1:pos:R:3:vel:R:3
N 0.36941427 5.53941097 0.96260628 -0.00085186 -0.00194156 -0.00197959
N 1.70401478 4.22104154 5.66835057 0.00009105 0.00799830 -0.00094811
N 1.91005520 9.34539008 7.65903835 -0.00548181 0.00162317 -0.00464605
N 3.40899007 0.57627579 3.30201404 -0.00513487 0.00635872 0.00188942
N 1.44207718 3.45177469 1.10407279 -0.00502218 0.00481841 0.00259552
N 0.30721469 6.09801070 5.80012526 -0.00064127 0.00705426 -0.00107002
N 3.32683534 1.36594982 7.56626124 -0.00205941 -0.00290876 0.00089627
N 2.18552406 8.45629672 2.86354452 -0.00233563 0.00164293 0.00066768
N 0.19115920 5.59383031 9.99439343 -0.00469964 -0.00189780 -0.00348495
N 1.60304306 4.09735277 14.46491301 -0.00054684 0.00005003 -0.00478590
N 2.27962153 9.11867372 16.95031537 -0.00438132 -0.00193222 0.00181686
N 3.32666373 0.47169520 12.33142153 0.00026173 0.00647048 0.00645349
N 1.40984773 3.61444309 10.23805041 0.00169283 0.00470569 -0.00477900
N 0.23114272 5.94545530 14.84658039 -0.00492125 0.00307434 -0.00365928
N 3.07995429 1.28171525 16.74069724 0.00467168 -0.00067743 -0.00035531
N 2.15975032 8.43122467 12.17399248 0.00310862 0.00164580 -0.00279558
N 0.53515306 5.27741222 19.54422445 -0.00698363 -0.00059791 -0.00187199
N 1.56939489 4.06318242 23.95847880 -0.00325423 -0.00097060 0.00227519
N 2.08333450 8.79078707 26.38754667 0.00080427 -0.00819310 -0.00317924
N 3.44385619 0.31651041 21.69527624 -0.00187858 0.00594977 0.00544741
N 1.79537153 3.33904712 19.83623867 0.00395107 0.00673046 -0.00204173
N 0.28144770 5.96279123 24.15403795 -0.00484745 0.00113445 0.00486263
N 3.27429447 1.16021433 26.02674102 -0.00196862 -0.00376474 0.00342805
N 2.14750094 8.59926132 21.33606236 0.00434929 -0.00775918 -0.00126550
N 0.01755683 15.08296013 1.37582060 -0.00173680 0.00267839 0.00077097
N 1.67605863 13.81260975 5.82275940 0.00592416 0.00414756 0.00298914
N 1.98096390 18.66979794 8.01890659 -0.00057344 0.00378993 -0.00631613
N 3.52915523 10.20253666 3.40716413 0.00343598 -0.00052487 0.00242092
N 1.67521170 13.44930816 1.70327140 0.00068862 0.00539651 0.00108976
N 0.34366309 15.69160035 6.12539598 0.00643522 -0.00621473 -0.00213656
N 3.30568966 11.11607640 7.49915174 -0.00320847 -0.00772871 -0.00239026
N 2.02740202 17.96845945 3.20192667 -0.00274926 0.00270087 -0.00435812
N 0.50145112 15.42083421 10.21701133 -0.00598171 0.00501941 -0.00563286
N 1.96587259 13.76015127 15.10230667 0.00057805 -0.00046483 -0.00497791
N 1.95921324 18.93798749 17.07670585 -0.00119948 -0.00035584 -0.00529919
N 3.49073151 10.23906255 12.07118621 -0.00970639 -0.00639608 -0.00674816
N 1.67149652 13.51390466 10.62890841 0.00419190 -0.00819164 0.00006994
N 0.70643728 15.68621491 15.36698852 -0.00053306 0.00089265 -0.00105310
N 3.62706629 10.98682159 16.98514427 0.00385627 0.00606298 -0.00804070
N 2.49276218 18.07485334 12.26897274 -0.00203813 -0.00161385 0.00198592
N 0.18748107 15.02572253 19.61492096 -0.00601773 -0.00084345 -0.00620180
N 1.43841578 13.92422250 24.25684300 0.00216683 -0.00045317 -0.00473846
N 1.84902729 18.73937184 26.29413288 0.00185473 -0.00259221 -0.00515359
N 3.58569235 10.30983951 21.82531351 -0.00086472 -0.00246188 -0.00217528
N 1.51733561 13.15523752 19.60340152 -0.00450923 -0.00196402 0.00478227
N 0.16406407 15.75443741 24.57449474 0.00089445 0.00239973 0.00101687
N 3.14602085 10.85740135 25.98021967 -0.00138798 0.00831718 0.00181511
N 2.09249654 17.79509853 21.60057269 0.00111122 -0.00747689 0.00511111
N 0.17640981 24.67129255 0.99565985 -0.00070866 -0.00412284 0.00745516
N 1.53387485 23.43421079 5.51438063 -0.00418170 -0.00052435 -0.00316378
N 2.01923089 28.43469673 7.78391348 -0.00053499 0.00133204 -0.00407053
N 3.40889574 19.84301611 3.20528921 -0.00466438 0.00109832 0.00318601
N 1.43775198 22.78023217 1.47930076 -0.00317551 0.00131095 0.00416116
N 0.35595141 25.39503546 5.85277603 -0.00014603 -0.00613268 -0.00378292
N 3.28173431 20.51782345 7.55991843 -0.00857248 -0.00306684 0.00478338
N 2.03140346 27.66087753 3.03700026 -0.00371943 0.00134020 0.00176909
N 0.10900014 24.78585024 10.29427098 -0.00440049 -0.00038828 -0.00974559
N 1.60910690 23.53390037 14.90286196 -0.00057650 -0.00128241 -0.00218302
N 1.99710334 28.31711720 17.22261887 -0.00221226 0.00668296 -0.00524897
N 3.50788616 20.16341185 12.59254834 0.00015228 0.00190568 -0.00031477
N 1.61444521 23.00143374 10.42501326 0.00205595 0.00037247 0.00625290
N 0.37144962 25.46002727 15.09907483 0.00240904 -0.00046969 -0.00176936
N 3.34545504 20.70272512 16.70657846 0.00185653 0.00378436 -0.00518933
N 2.14235434 27.53009555 12.05471814 -0.00006094 -0.00104897 -0.00467361
N 0.21130761 24.53074543 19.51119285 0.00270252 -0.00062519 -0.01063709
N 1.21175651 23.15565168 23.88674269 -0.00315961 -0.00317082 -0.00481867
N 1.87155308 28.28202219 26.26618374 0.00184580 0.00171589 -0.00279153
N 3.08243368 19.83364820 21.74117618 -0.00045180 0.00012696 -0.00535113
N 1.52273573 22.62746226 19.71142884 0.00110225 0.00411488 0.00412672
N 0.22125132 25.19352921 24.23105067 0.00536280 -0.00115139 0.00077185
N 3.29351651 20.39074588 25.90998653 0.00567895 -0.00116507 0.00000009
N 1.99056837 27.60878528 21.37602178 -0.00443211 0.00241364 0.00060828
N 3.84714894 5.31534385 1.52034760 0.00359047 -0.00238771 -0.00137046
N 4.98531117 4.13001279 5.71252038 -0.00628058 -0.00558621 0.00365548
N 5.81445425 8.99601327 8.12589745 0.00294485 0.00252237 -0.00580084
N 7.16999566 0.74602273 3.47926118 -0.00136869 -0.00304004 0.00140760
N 5.32382140 3.53737007 1.44861596 -0.00032866 0.00302670 -0.00866137
N 4.04702320 6.13696967 6.16179605 0.00173796 -0.00191704 -0.00612425
N 6.84899972 1.38166378 7.82011124 0.00000622 -0.00304392 -0.00110490
N 6.03218206 8.45759954 2.79773689 -0.00324353 0.00075054 0.00389262
N 3.98701998 5.64450627 10.21186751 0.00084618 0.00442577 -0.00025150
N 5.32698102 4.35599413 15.05938854 -0.00249303 -0.00092517 -0.00104859
N 6.06987983 9.05325670 17.18870852 -0.00078457 0.00438878 -0.00058086
N 7.09042423 0.59176490 12.47639101 0.00709362 -0.00637631 0.00076913
N 5.02572155 3.69404610 10.71497291 0.00243932 0.00695649 0.00043346
N 3.74441214 6.11548553 15.19832938 0.00500985 0.00163235 -0.00058389
N 6.77474336 1.28179045 16.81643570 -0.00060108 -0.00675270 -0.00927465
N 5.87435055 8.36695662 12.30736784 0.00386292 0.00109217 0.00479484
N 3.88285871 5.58162340 19.60768281 0.00681217 -0.00073380 0.00100085
N 5.33718220 4.34337599 24.09174514 0.00532529 0.00330832 0.00330927
N 5.71035128 9.14756614 26.44743324 -0.00147152 0.00008489 -0.00325652
N 7.00753538 0.61730456 21.66931995 -0.00191726 -0.00561492 0.00179380
N 5.18302344 3.61595383 20.11535998 0.00458368 -0.00017169 -0.00230250
N 4.01147427 6.17567240 24.65073968 -0.00185559 0.00457117 0.00253077
N 6.87870540 1.16667801 25.88367640 -0.00337481 -0.00302313 -0.00203918
N 5.96490771 8.43697244 21.66432428 0.00018103 0.00467659 -0.00142228
N 4.29538274 15.11477001 1.18276985 -0.00467077 -0.00248085 -0.00738112
N 4.90285058 13.72947910 5.75555686 -0.00967807 -0.00169460 -0.00735058
N 5.74232009 18.82149027 8.05427411 0.00769884 -0.00234918 -0.00789013
N 7.30649269 10.25537445 3.52045589 -0.00014800 0.00422469 0.00778912
N 5.25831008 13.02098767 1.66027062 -0.00038584 -0.00322930 0.00167304
N 4.04202425 15.76728374 6.12319474 -0.00043937 0.00223495 0.00173554
N 6.67905513 11.06643073 7.58309230 -0.00038043 0.00632162 0.00814004
N 5.74677291 17.89652279 2.96913491 0.00041672 -0.00494768 -0.00194412
N 3.83120128 15.49411776 10.51834157 0.00276101 -0.00592985 -0.00003123
N 5.25130945 13.85807392 14.94829674 0.00808894 0.00146560 0.00186336
N 5.64914918 18.76512214 17.26217247 -0.00557827 -0.00236022 0.00040340
N 7.02338451 10.34402274 12.51374807 0.00033024 -0.00439393 0.00124587
N 5.26941320 13.69948772 10.63201482 -0.00643505 0.00377559 0.00496434
N 4.26092301 15.89668959 15.14038094 0.00413631 0.00196310 -0.00141702
N 6.94814330 11.05280535 16.95075694 -0.00287287 -0.00646047 0.00220444
N 5.83240214 18.22827724 12.16984498 -0.00662651 -0.00922011 -0.00113421
N 3.86587222 15.08701801 19.60201348 -0.00240158 -0.00048727 -0.00116335
N 5.08387508 13.62240366 24.27890621 -0.00774890 0.00334276 -0.00150470
N 5.56888361 18.56982199 26.35914418 0.00121294 0.00571016 -0.00307587
N 6.85274937 10.64973527 22.02274233 0.00397715 0.00041586 0.00238862
N 5.34176856 13.32176057 20.02480418 0.00095016 0.00003106 -0.00070222
N 3.82752642 15.62329113 24.47119389 0.00095693 0.00804931 -0.00364507
N 7.05553537 10.98592525 26.04425344 -0.00437073 0.00270695 0.00024051
N 5.66268163 17.89953791 21.47002540 -0.00231218 0.00422242 -0.00726452
N 3.96809979 24.88627602 0.93416755 -0.00482476 0.00477166 -0.00215706
N 5.11975588 23.58322433 5.33961354 0.00103963 -0.00635206 -0.00539917
N 5.58391452 28.46556128 7.88456648 0.00186381 0.00466473 0.00137322
N 7.11560614 19.80828080 3.30816967 -0.00251220 0.00001322 0.00758766
N 5.07832130 22.80056722 1.21620736 0.00439993 0.00107643 -0.00253159
N 3.81706738 25.46534482 5.82528817 -0.00794081 -0.00259032 0.00676227
N 6.75045927 20.83738241 7.63802428 0.00583042 -0.00233526 -0.00255131
N 5.72505665 28.01046301 2.87031543 0.00123079 0.00567814 0.00018355
N 4.11959783 24.90338221 10.09193313 -0.00146600 -0.00031830 -0.00067815
N 5.43523332 23.60052721 14.83093752 0.00137383 0.00573005 0.00554927
N 5.59271978 28.32921044 17.06124398 -0.00475593 -0.00606446 0.00083907
N 7.18560278 19.98423037 12.71654891 0.00192670 0.00055706 -0.00261517
N 5.17533855 22.88837500 10.39650363 -0.00362475 0.00623594 0.00032876
N 4.00998322 25.47535238 15.25913784 -0.00183556 -0.00420906 -0.00602215
N 6.99370058 20.61266733 16.67869515 -0.00205050 0.00466653 -0.00289402
N 5.81581052 27.74565738 12.17153783 -0.00457527 0.00338341 -0.00488906
N 3.77252094 24.74479786 19.60409847 -0.00264174 -0.00525896 0.00486499
N 5.14267463 23.38455092 24.24560953 0.00781802 -0.00836833 0.00809156
N 5.55312300 28.22175861 26.07527454 0.00242754 -0.00397070 -0.00609829
N 6.66416663 19.98293686 21.65917070 -0.00136062 -0.00079088 0.00046762
N 5.13270100 22.98630194 19.99956291 -0.00238904 0.00039017 0.00102545
N 3.83065827 25.35804407 24.34868402 -0.00286883 0.00668385 -0.00538789
N 6.89903132 20.41947633 26.07699262 0.00721715 -0.00657136 0.00890096
N 5.86745628 27.59006685 21.48744310 -0.00414695 -0.00046775 -0.00619785
N 7.83225513 5.64639127 1.43117610 -0.00723663 0.00095809 -0.00853932
N 8.84816820 4.29097189 6.01851464 -0.00414679 0.00042993 -0.00007928
N 9.30870208 8.93838037 8.32247235 0.00355045 0.00058402 -0.00267525
N 10.77627778 0.58394225 3.30959670 -0.00036067 0.00365106 -0.00345599
N 8.85602193 3.48701078 1.62771553 -0.00049646 0.00404124 -0.00333384
N 7.40489476 6.14189704 6.15484187 -0.00257852 0.00348633 0.00240125
N 10.38687606 1.47188246 7.81765404 0.00040469 -0.00617095 -0.00082064
N 9.49564464 8.53703020 3.35764663 -0.00501943 -0.00376726 0.00253730
N 7.71485640 5.64001601 10.37773645 0.00349390 -0.00594843 -0.00370709
N 9.00972513 4.39409102 15.00764542 -0.00001611 0.00185779 0.00188866
N 9.36262327 9.06713251 17.27494853 0.00494474 0.00068596 0.00355829
N 10.97903465 0.61384784 12.56620202 -0.00890581 0.00399235 0.00757162
N 8.84063829 3.70571579 10.84533241 -0.00105936 -0.00319094 -0.00477029
N 7.58547544 6.18079956 15.41256017 -0.00275909 -0.01013003 0.00324492
N 10.32970341 1.07657522 16.64619327 0.00135697 -0.00051023 0.00186350
N 9.43136766 8.58704849 12.52839201 0.00089827 -0.00560785 0.00109247
N 7.36421181 5.81647889 19.58915967 0.00282093 0.00183817 -0.00400931
N 8.80914248 4.31582058 24.01700645 0.00113286 -0.00285136 0.00116991
N 9.43400503 9.15569767 26.51728427 -0.00511578 -0.00644807 -0.00025552
N 10.73134180 0.58964616 21.52856840 -0.00158109 -0.00581384 -0.00000976
N 8.42519744 3.75120215 19.73548873 0.00152649 0.00233059 0.00250760
N 7.81866257 6.30867481 24.63569897 -0.00119062 -0.00154833 -0.00046639
N 10.57706150 1.12569981 26.01668729 -0.00145952 -0.00301162 0.00047926
N 9.15306625 8.25599008 21.36694548 0.00735522 0.00003569 -0.00379111
N 7.58831224 15.09950002 1.41549304 -0.00477302 0.00454418 -0.00916727
N 8.73057771 13.69520902 5.79451615 -0.00636941 -0.00159350 0.00862347
N 9.46903518 18.82699750 7.90601549 -0.00402063 -0.00519520 0.00818455
N 10.83154493 10.40371685 3.69736795 -0.00165597 -0.00039333 0.00023620
N 8.73917109 13.08938995 1.57872663 -0.00174271 0.00152720 0.00235556
N 7.79435841 15.82792129 5.94597788 -0.00533161 -0.00008099 0.00154990
N 10.59878678 10.78051199 7.91241778 0.00800934 0.00549216 -0.00322745
N 9.58015024 17.90417113 3.17627487 0.00248493 0.00317296 0.00539745
N 7.97345280 15.57334900 10.44954311 0.00174724 0.00061684 0.00601355
N 8.94618795 13.84790206 15.08363240 0.00017376 0.00324023 -0.00111778
N 9.39457676 18.69105638 17.27151764 -0.00641533 -0.00285443 -0.00570264
N 10.63177911 10.47272908 12.91038146 -0.00147799 0.00030711 0.00072602
N 8.66237461 13.39291422 10.45803762 -0.00167048 0.00322889 -0.00266196
N 7.59730506 15.72769764 15.31653856 0.00242083 -0.00033985 -0.00216703
N 10.88371758 10.86098697 16.85339756 0.00032460 0.00205517 -0.00053079
N 9.72903640 18.17859792 12.56266942 0.00060003 0.00912662 -0.00214427
N 7.82282910 15.19522335 19.73780437 0.00269468 0.00096899 0.00203835
N 8.88034549 14.04152760 24.38769118 0.00063525 -0.00199873 0.00551721
N 9.31859442 18.76584560 26.34929573 -0.00346209 -0.00233272 0.00522570
N 10.57063876 10.00262781 21.79670648 -0.00366106 0.00174699 0.00012858
N 9.01804750 13.23463289 19.96931556 -0.00162775 -0.00153482 -0.00237090
N 7.56366021 15.84411132 24.61351612 -0.00227376 -0.00268974 -0.00209273
N 10.64106776 11.15443697 26.21915846 -0.00265922 -0.00302697 -0.00845670
N 9.35035224 18.09196349 21.69196461 -0.00252349 -0.00304185 -0.00096890
N 7.46087286 24.86010143 1.15343320 0.00850811 -0.00052225 0.00525156
N 8.74451869 23.62753240 5.67868690 0.00272150 0.00137767 0.00313154
N 9.29432878 28.48073665 8.14461766 0.00253406 0.00175492 -0.00647708
N 10.65387509 19.89091496 3.30356597 -0.00161931 -0.00025857 -0.00146271
N 8.65929124 22.85538278 1.36947269 0.00224020 -0.00723533 -0.00011053
N 7.54983517 25.59690653 5.86102181 0.00268486 0.00474296 -0.00120212
N 10.35395724 20.92402601 7.77611568 0.00061893 -0.00024722 -0.00262157
N 9.46418363 27.69793165 3.27428477 -0.00117615 -0.00050938 0.00564579
N 7.69593158 24.69817602 10.19256537 0.01027853 0.00052046 0.00499574
N 8.90613241 23.49736100 14.74796769 0.00245972 -0.00203343 -0.00244950
N 9.09025581 28.18866337 17.03303210 -0.00151569 0.00457572 -0.00119310
N 11.13855971 19.99881177 12.79908592 0.00227901 -0.00556344 -0.00384049
N 8.55746423 22.65613768 10.64957865 -0.00093537 0.00134463 0.00557740
N 7.63954257 25.26295431 15.35704175 0.00035384 0.00349918 0.00202828
N 10.33119968 20.70495751 16.87324436 -0.00106930 -0.00526964 -0.00412318
N 9.33774659 27.93587062 12.32520458 -0.00189647 0.00321342 0.00060091
N 7.42391518 24.82089983 19.57452682 0.00046779 -0.00276825 -0.00748814
N 8.84465033 23.52692277 24.04597690 0.00493635 -0.00379354 0.00140435
N 9.11929591 28.33755836 26.27919822 0.00546469 0.00875491 0.00006176
N 10.73839549 19.91611645 21.88683096 -0.00136661 -0.00009957 -0.00024870
N 8.67024474 22.98531005 19.71290754 0.00213025 0.00220232 -0.00047439
N 7.66972967 25.46415142 24.35075229 0.00065831 0.00293130 -0.00025085
N 10.63346786 20.63647645 26.33632121 0.00743729 0.00335175 0.00252548
N 9.40012355 27.75661600 21.34932827 0.00426443 -0.00418788 -0.00624618
N 11.10961469 5.50406046 1.61386731 -0.00318455 0.00261849 -0.00542892
N 12.33462627 3.90284845 5.81338420 -0.00377287 0.00082584 0.00922799
N 13.05211390 8.97797983 8.19640793 -0.00425381 -0.00134730 0.00044734
N 14.45724152 0.52467343 3.11630484 0.00929459 0.00080136 -0.00163311
N 12.46794894 3.58028328 1.69892097 0.00314884 -0.00143997 0.00071253
N 11.37295705 5.99755573 6.18967983 0.00113360 0.00597416 -0.00284784
N 14.24078629 1.24838310 7.87499404 -0.00129273 -0.00520767 0.00107695
N 13.08275654 8.37471675 3.27580987 0.00137724 -0.00028465 0.00534043
N 11.15712431 5.39659770 10.49123695 0.00783176 0.00004700 -0.00103274
N 12.60387788 4.13308083 14.98429911 0.00094058 0.00032095 -0.00348879
N 13.35075516 8.62768983 17.34658021 -0.00240126 0.00451808 -0.00398822
N 14.43087124 0.80382377 12.48839702 -0.00025902 -0.00316296 -0.00571840
N 12.64608584 3.66569076 10.79323649 0.00940873 0.00026621 0.00282557
N 11.38418857 6.00668195 15.38495411 -0.00335368 0.00037853 0.00213211
N 14.08354198 1.22855631 16.92124148 0.00624605 -0.00356896 0.00259831
N 13.04284420 8.47309831 12.38406816 0.00107308 -0.00153694 0.00274358
N 11.34457111 5.39407525 19.64817757 0.00417248 0.00023408 0.00199775
N 12.32932245 4.17164106 24.14364337 -0.00242375 0.00053362 -0.00399522
N 12.96507564 8.94558898 26.55059479 -0.00093887 0.00144591 0.00046984
N 14.20921495 0.51261867 21.34221377 -0.00465546 -0.01148612 -0.00167881
N 12.34012946 3.37008078 19.95416376 0.00241452 -0.00029563 -0.00078978
N 11.24350998 6.16086960 24.49226689 -0.00076621 -0.00284964 0.00004054
N 14.24545342 1.30471219 25.66740137 0.00574108 -0.00127802 0.00324542
N 13.12915021 8.35047391 21.66700054 -0.00033228 -0.00232005 -0.00006580
N 11.18823571 15.08813465 1.26777126 -0.00143533 0.00738974 -0.00490898
N 12.67039846 13.94681222 6.00261312 0.00012091 -0.00779296 -0.00291189
N 13.03094811 18.55481024 8.15736494 0.00509384 0.00078729 0.00029834
N 14.46711522 10.31347993 3.57978615 -0.00374983 0.00163590 0.00234164
N 12.60574779 13.23131156 1.58534431 -0.00273721 -0.00044957 0.00402844
N 11.25857659 15.70449809 6.16119906 -0.00071626 0.00433978 0.00181981
N 14.37503440 10.89967144 7.77450062 0.00211117 0.00080953 -0.00114919
N 13.07116791 18.24582126 3.36066805 0.00125150 -0.00561202 -0.00404479
N 10.97684955 15.20959169 10.17698535 0.00083268 -0.00248603 0.00036884
N 12.63885756 13.82406400 14.99466693 0.00448822 0.00779699 0.00461779
N 13.22516641 18.33732957 17.00695368 0.00444027 0.00344110 0.00133200
N 14.27880610 10.37338721 12.47728832 0.00587149 0.00528900 0.00389428
N 12.52494663 13.52680074 10.61618814 0.00178786 -0.00073556 0.00295408
N 11.59734909 15.82347547 15.33720868 -0.00318773 0.00065568 -0.00279152
N 14.32984776 10.72615761 16.80586852 -0.00241169 0.00481015 0.00288042
N 13.43393880 17.92176710 12.23889559 -0.00130016 -0.00024087 0.00151081
N 11.48144040 15.18756159 19.62990749 -0.00035060 0.00139141 -0.00027307
N 12.93402764 13.81893690 24.23537039 0.00356232 -0.00393538 -0.00122017
N 13.22450118 18.61222860 26.37214973 0.00102103 -0.00520260 -0.00436766
N 14.34965832 10.26452572 21.85967047 -0.00251107 -0.00261294 -0.00486557
N 12.51708838 13.16792111 19.87626010 -0.00167041 0.00381728 0.00051268
N 11.52806967 15.72277045 24.47076229 -0.00114387 -0.00130744 -0.00111111
N 14.38866345 10.74292531 26.03273876 0.00075809 -0.00338281 0.00686096
N 13.15125756 18.13061169 21.24782100 0.00330254 0.00411256 0.00037095
N 11.15469657 24.79272597 1.27970940 0.00144903 0.00044400 0.00065157
N 12.38077848 23.74787077 5.89669901 0.00083083 -0.00466849 0.00043186
N 12.82763410 28.47146541 7.88892309 0.00309162 0.00191862 0.00391161
N 14.36055129 20.15160987 3.40181551 0.00300885 0.00166855 0.00403554
N 12.50457890 22.88629550 1.58904561 0.00478011 -0.00408127 0.00158638
N 10.96018825 25.52820509 6.31052497 -0.00177851 0.00672920 0.00365021
N 14.08855359 20.51108815 7.87476287 0.00421983 0.00063617 0.00192624
N 13.00949813 27.73399331 2.82209372 -0.00057420 -0.00262548 -0.00129230
N 11.26138598 25.14955680 10.46432768 -0.00264954 -0.00019509 0.00097137
N 12.55539117 23.40189409 14.79569472 0.00369459 0.00426942 -0.00192721
N 12.77422722 28.29281895 16.78406417 0.00268532 0.00222074 -0.00132402
N 14.74277850 19.83622771 12.70181235 -0.00376577 0.00300759 0.00397863
N 12.44824770 23.16836214 10.70151029 0.00523194 -0.00321397 0.00421723
N 11.37021534 25.38663823 15.10843141 0.00211356 -0.00478666 -0.00266684
N 14.11231475 20.48612869 16.77507698 -0.00062549 -0.00408466 -0.00103024
N 13.18119418 27.81557597 12.20350537 -0.00060440 -0.00145485 0.00596063
N 11.36414523 24.94705069 19.57088850 0.00219592 0.00129369 0.00192300
N 12.42528336 23.48975997 24.10022582 -0.00040130 -0.00547209 -0.00508468
N 13.25680213 28.33909044 26.16657252 -0.00255240 0.00474577 0.00129156
N 14.31412775 20.08245419 21.52747442 0.00166103 0.00098440 0.00524169
N 12.30221538 22.88020530 19.92576066 0.00185029 -0.00775802 0.00300063
N 11.23695058 25.45210012 24.59795238 -0.00213115 -0.00301099 0.00115600
N 14.12793397 20.70843140 25.85430190 0.00607114 0.00667389 -0.00179751
N 13.02863677 27.58941527 21.35634892 -0.00070784 -0.00101753 -0.00684004
N 15.04021189 5.43908421 1.14150166 0.00139641 -0.00458205 -0.00314423
N 16.45413255 4.14726086 5.99451246 0.01018262 -0.00167633 -0.00515611
N 16.78016595 8.98952306 7.70530879 0.00151417 0.00648415 -0.00653734
N 18.10501799 0.47862688 3.29036281 -0.00204317 0.00022123 0.00042227
N 16.02508302 3.43537798 1.54645534 -0.00461319 -0.00251144 -0.00062961
N 15.06210573 5.99306901 5.91424091 0.00093207 -0.00301022 -0.00066616
N 18.04188418 1.18923852 7.71655865 -0.00008276 -0.00338779 -0.00320775
N 16.66779841 8.25590213 3.00347225 0.00493358 -0.00767153 -0.00292530
N 14.90011170 5.74859792 10.19265581 -0.00259548 -0.00008175 -0.00447337
N 16.22007133 4.33837958 14.62524105 0.00013988 -0.00399603 0.00167348
N 16.73374270 9.01868516 16.81719447 -0.00319926 0.00082029 0.00332732
N 18.07212117 0.76168363 12.31410121 0.00257111 -0.00120925 -0.00031104
N 16.15938001 3.90317455 10.65363199 -0.00131531 -0.00585051 0.00070785
N 14.85288073 6.21932116 14.81272096 -0.00183946 -0.00008558 -0.00200243
N 17.60406738 1.32211326 16.41384244 -0.00104650 0.00005777 -0.00175993
N 16.65444878 8.62024412 11.89502223 -0.00588076 -0.00107048 -0.00355936
N 14.67595315 5.30030396 19.52211802 -0.00081251 -0.00187631 0.00232447
N 16.09028905 4.16488105 24.00917178 -0.00284435 -0.00700347 0.00181194
N 16.55843228 8.85439419 26.12337503 -0.00147374 -0.00210978 0.00177938
N 17.85805254 0.79189772 21.51256653 -0.00227935 0.00114055 -0.00725494
N 16.30198410 3.64270413 19.89341938 -0.00075295 -0.00460113 0.00021282
N 14.79993857 6.02318659 24.46984747 0.00167242 0.00304070 0.00572773
N 17.94816634 1.15090597 25.90677643 0.00028018 0.00161679 0.00010620
N 16.75022620 8.31254569 21.17788611 -0.00588471 0.00593345 -0.00464475
N 15.04857242 15.31383414 1.42303000 0.00578238 -0.00966735 0.00465340
N 16.20605505 13.80008317 5.74003935 -0.00112321 0.00082711 0.00738382
N 16.78279703 18.60797858 8.00433576 0.00033480 -0.00309812 -0.00390648
N 18.22037904 10.08720885 3.28482745 -0.00271148 -0.00022361 -0.00433561
N 15.86676792 13.18902654 1.62540720 0.00401805 -0.00626236 0.00387538
N 15.05034392 15.80230135 6.18264492 -0.00276063 0.00034031 -0.00391997
N 17.85347081 11.06832746 7.52258527 0.00090326 -0.00007494 -0.00613854
N 17.06842577 18.09693112 3.13450526 0.00287783 0.00261508 0.00242951
N 15.31228750 15.30541080 10.49875492 -0.00283786 -0.00045994 0.00300152
N 16.54861563 13.80911816 14.92329461 -0.00277823 0.00354962 -0.00124051
N 16.46033633 18.75862861 16.78859994 -0.00593425 0.00068622 -0.00568700
N 18.11318663 10.34124442 12.25315440 0.00764173 0.00495410 -0.00138145
N 16.24662404 13.29518453 10.68072670 0.00125678 -0.00488751 0.00271935
N 15.04916108 15.58543715 15.06255549 0.00075759 0.00338925 -0.00545902
N 18.10918210 10.87278488 16.57895866 -0.00140483 -0.00679185 -0.00287252
N 17.12708001 18.13144095 12.22696846 -0.00016871 -0.00281260 0.00571672
N 14.90627446 15.06852001 19.46048294 0.00045650 -0.00106923 -0.00034058
N 16.13145162 13.79354929 24.22389025 0.00102353 -0.00107267 0.00171033
N 16.53720176 18.66047082 26.21217622 0.00047376 0.01040245 -0.00090431
N 18.23733141 10.01423595 21.55960027 -0.00153665 -0.00236716 0.00311610
N 16.23772374 13.10325016 19.70693686 0.00169148 0.00039575 0.00340039
N 14.94714643 15.81548248 24.39277872 0.00218234 -0.00107537 -0.00469885
N 17.89117243 10.68453516 26.07061504 0.00313419 0.00205327 0.00076091
N 16.55976719 18.02718973 21.33744691 0.00424942 0.00702954 -0.00019589
N 14.82178975 24.73837971 1.16937978 -0.00205766 -0.00287138 0.00357460
N 15.90126521 23.34483211 5.77101528 0.00163544 0.00313184 -0.00147613
N 16.77181324 28.32189642 7.80160773 0.00211852 -0.00003256 -0.00468840
N 17.94659589 20.15023549 3.54670647 0.00418666 0.00045710 0.00515149
N 16.22598430 22.93947221 1.56471161 0.00008878 0.00237430 -0.00185532
N 14.78366258 25.41272731 5.99859689 -0.00525900 -0.00737758 -0.00335045
N 17.72865893 20.64251307 7.63026119 -0.00087482 0.00362797 0.00157069
N 16.81397201 27.51618535 3.21410881 -0.00247035 0.00118536 0.00457987
N 14.85090138 24.73059835 10.29414547 -0.00292223 -0.00144257 0.00065760
N 16.21052530 23.49795501 15.04299797 0.00125118 -0.00833996 -0.00152814
N 16.42729387 28.32442090 16.86338984 -0.00023867 0.00106563 -0.00024477
N 18.50308126 20.07904100 12.30841288 -0.00002035 0.00263694 -0.00005541
N 16.32945406 22.96768086 10.68624776 -0.00287098 -0.00187948 0.00329042
N 14.92727696 25.38809618 15.32663486 -0.00285887 0.00049189 0.00101821
N 18.03626065 20.51672718 16.66558090 -0.00105796 0.00058395 -0.00037516
N 16.86746421 27.79936745 11.98758375 0.00366877 0.00465372 -0.00004110
N 14.98153629 24.96519828 19.21821062 -0.00530383 0.00344327 -0.00533198
N 16.13691071 23.55929808 23.91638362 0.00304176 0.00207870 0.00641374
N 16.66504300 28.27921528 26.35274091 -0.00485999 -0.00037655 0.00092900
N 17.79949405 20.03325376 21.61432371 -0.00685906 0.00356510 -0.00247186
N 16.12200081 22.95844842 19.59715896 0.00414354 -0.00042651 -0.00436456
N 14.91771892 25.44086544 24.14436062 0.00111403 0.00608353 0.00176999
N 17.70396062 20.72279355 25.97290318 -0.00349244 -0.00478721 -0.00570696
N 16.76632366 27.73426845 21.16794753 -0.00368626 -0.00985664 0.00514096
N 18.48688029 5.42742538 0.75397953 0.00458462 -0.00098953 0.00011864
N 19.62357148 3.95064096 5.64465333 -0.00427510 -0.00183317 -0.00801545
N 20.22458939 9.01396941 7.81708480 -0.00070428 0.00127421 0.00086911
N 21.77400801 0.64114868 3.23854437 -0.00012818 -0.00169961 0.00485435
N 19.55027630 3.41986380 1.14767918 0.00579581 0.00039470 0.00029658
N 18.74515812 6.05751053 5.65064601 0.00035753 -0.00255880 -0.00414850
N 21.55863058 1.16047506 7.57717250 0.00218783 -0.00456884 -0.00737113
N 20.64038436 8.66127697 2.85026929 -0.00305221 -0.00129315 0.00420837
N 18.48210478 5.66195801 10.31526937 -0.00858424 0.00709161 -0.00232812
N 19.68187921 4.06120415 14.82400553 -0.00116172 -0.00103037 -0.00092708
N 20.57128906 9.01780302 16.88701001 0.00453602 0.00535283 -0.00449678
N 21.61308890 0.59207307 12.44866159 -0.00013980 0.00634514 -0.00003607
N 19.38360084 3.62811569 10.48281547 0.00110406 0.00090803 0.00210399
N 18.70192603 6.13324275 14.98185634 -0.00484522 0.00057232 -0.00438354
N 21.62081844 1.30203611 16.83393112 0.00686648 0.00485630 0.00111587
N 20.44411313 8.46827735 12.04444625 -0.00128645 -0.00523133 0.00239206
N 18.51083139 5.34674473 19.41142693 0.00242086 0.00476336 0.00141774
N 19.71274012 3.95280057 24.00444411 -0.00672837 0.00321054 0.00306831
N 20.21653565 8.72740167 26.05000044 -0.00181050 -0.00187949 0.00100378
N 21.65879119 0.68587784 21.50255443 -0.00716012 -0.00213448 -0.00592666
N 19.89906717 3.52834060 19.56204278 0.00243277 -0.00037562 -0.00433018
N 18.57883429 6.07150102 24.10659901 0.00832246 -0.00378801 -0.00437853
N 21.56303311 1.16001028 25.94551909 0.00331397 0.00467191 0.00591176
N 20.55208327 8.09248916 21.18914123 0.00244318 0.00661552 -0.00048173
N 18.45928095 14.93792799 1.26121191 0.00403937 0.00034713 0.00261744
N 19.86508269 13.85408950 5.76973743 -0.00208538 0.00249856 -0.00033717
N 20.39932555 18.95112125 8.08186774 -0.00255833 0.00026676 -0.00177507
N 0.10799413 10.45842802 3.42852842 -0.00459108 -0.00458171 -0.00447580
N 19.47577053 12.89941993 1.55549998 -0.00577331 0.00543682 -0.00213518
N 18.64443251 15.81169359 6.14018858 0.00267788 -0.00365089 -0.00212314
N 21.36146936 11.01283623 7.50317260 0.00089597 -0.00296408 -0.00212579
N 20.49338148 18.00066204 3.12793448 0.00094158 -0.00048924 -0.00485875
N 18.57823113 15.26356945 10.24659617 -0.00662370 0.00553584 -0.00084818
N 20.14857904 13.78038598 14.79208339 -0.00102218 -0.00774484 0.00382035
N 20.22533455 18.68770049 16.90589418 0.00149761 0.00019995 0.00162064
N 21.70481810 10.39157869 12.43129329 0.00249829 0.00008373 -0.00195168
N 19.65900046 13.25197562 10.36922525 0.00008563 -0.00217327 0.00175546
N 18.90352564 15.69095373 15.21824082 -0.00740319 0.00606807 0.00424326
N 21.71805618 10.98137334 16.68451502 0.00019551 0.00078798 0.00356742
N 20.65495386 18.08548239 12.42747507 0.00018793 0.00046383 0.00376455
N 18.51507485 14.84545871 19.36544998 0.00087832 -0.00334698 -0.00257362
N 19.78349357 13.58478131 24.13500669 0.00169256 -0.00421904 0.00219973
N 20.48676313 18.44183450 26.62392934 0.00375839 0.00011651 0.00219761
N 21.54874449 10.13280356 21.56084631 0.00064430 0.00110306 -0.00054682
N 19.62923610 12.93800243 19.73109216 0.00060065 0.00284178 -0.00735362
N 18.67679763 15.58592489 24.44890249 0.00246636 -0.00328721 0.00119920
N 21.23698897 10.79796578 25.81057197 -0.00391219 -0.00291182 0.00076556
N 20.20389377 18.05155384 21.36756987 -0.00162588 0.00234101 0.00361175
N 18.53602491 24.97479215 0.96150016 0.00086107 0.00439038 0.00498869
N 19.80395592 23.60022268 5.54048801 0.00142179 0.00531974 0.00077170
N 20.48013512 28.18422354 7.85174569 0.00073345 0.00095635 -0.00249814
N 21.57584831 19.96095204 3.49461637 -0.00452075 0.00580843 0.00855183
N 19.67481298 22.92491227 1.24841871 0.00175556 0.00244661 -0.00278141
N 18.48384709 25.34694830 6.09659995 0.00222777 -0.00223549 0.00039759