1728
Time=89000.00000004 pbc="T T T" Lattice="22.18130193 0.00000000 0.00000000 0.00000000 28.77508988 0.00000000 0.00000000 0.00000000 27.48910987" energy=-10390.22998631 virial="-2.51140656 10.72732734 -23.08274030 10.72732734 20.26260631 -17.75330668 -23.08274030 -17.75330668 3.52374795" stress="0.00223122 0.00054583 -0.00117676 0.00054583 0.00362599 -0.00088540 -0.00117676 -0.00088540 0.00314911" Properties=species:S:1:pos:R:3:vel:R:3
N 0.36188981 5.83004274 0.67562389 0.00147863 -0.00016453 0.00638477
N 1.12642955 3.77276730 5.65651113 0.00131469 0.00189358 -0.00229389
N 2.23480582 8.84565510 8.38097473 0.00335660 0.00113274 -0.00204017
N 3.02502445 0.70579713 3.20881674 0.00130678 0.00113285 -0.00090354
N 1.33344791 3.84017972 1.16660481 -0.00205974 0.00144296 0.00289489
N 0.33384694 5.89996061 6.01104875 -0.00025064 -0.00517717 0.00124677
N 3.07739436 1.11149223 7.72509550 -0.00188088 -0.00038746 -0.00327695
N 2.21501470 8.12793250 3.14183529 0.00469669 0.00662243 -0.00157714
N 0.41050834 5.61381575 10.37334647 -0.00853529 0.00109089 -0.00348268
N 1.71858288 4.17760360 15.03085383 -0.00743522 -0.00042833 0.00568463
N 2.07744005 8.98567757 17.26759735 0.00076653 -0.00199262 -0.00346470
N 3.37779661 0.62051879 12.58650497 0.00438453 -0.00305576 0.00070710
N 1.44122644 3.57159608 10.55044061 0.00148824 0.00327904 0.00011129
N 0.31156558 5.94226863 15.25261596 0.00196733 -0.00137297 0.00005660
N 3.34134725 1.23531390 16.57156074 0.00306225 -0.00024866 -0.00152078
N 2.20609773 8.52349743 12.53249536 -0.00824468 0.00491908 -0.00182137
N 0.14703194 5.40575393 19.62213640 -0.00254697 0.00022754 -0.00178569
N 1.57937250 3.96810412 23.94212232 0.00502473 -0.00329920 -0.00016960
N 2.27246004 8.59179848 26.42273400 -0.00346063 0.00192146 0.00178983
N 3.40484025 0.42040316 21.57865549 -0.00617594 -0.00026838 -0.00935651
N 1.53983481 3.54170566 19.77728112 -0.00648328 0.00241897 -0.00005032
N 0.59640845 6.00023216 24.21024556 -0.00543595 0.01090835 -0.00067488
N 3.20969056 1.59537656 26.12294416 0.00178045 0.00336245 -0.00217725
N 1.98964179 8.27356287 21.47379841 -0.00016980 -0.00527286 0.00979368
N 0.37581768 14.90302152 1.08764715 -0.00548728 -0.00468561 0.00214491
N 1.47568920 13.61891566 5.66464820 0.00509958 0.00366974 0.00238251
N 1.71161728 18.69362624 8.25874415 -0.00627061 -0.00445797 -0.00140460
N 3.41844978 9.98817443 3.61920534 -0.00240819 -0.00549328 -0.00038348
N 1.35915554 12.92611727 1.65081210 0.00546365 -0.00103022 -0.00229840
N 0.27399798 15.54074768 6.12839329 0.00193527 -0.00086387 -0.00496209
N 3.14474664 10.88545205 7.80947648 0.00250519 0.00332044 -0.00450144
N 2.30974601 17.68967346 3.22317835 0.00669490 -0.00197243 0.00164179
N 0.92519627 15.13991001 10.42758574 0.00157383 0.00280385 -0.00788187
N 1.61260954 13.71307915 14.96601408 -0.00286409 -0.00268139 0.00237159
N 2.26066434 18.60701577 16.98826181 -0.00308720 -0.00584647 -0.00260954
N 3.39033423 10.41276737 13.13748772 -0.00307027 0.00410389 -0.00073954
N 1.70333362 13.04537632 10.57823760 0.00154792 0.00399837 -0.00460002
N 0.20969482 15.53626944 15.16715798 -0.00446598 -0.00317742 0.00132335
N 3.28536614 10.95061026 16.85883452 0.00766962 0.00274873 -0.00183565
N 2.30257527 17.84694855 12.37066734 0.00811793 0.00426000 -0.00678393
N 0.37878808 15.03855567 19.41538744 -0.00235381 0.00099255 -0.00281616
N 1.88453702 14.13873457 24.16758693 -0.00350162 -0.00684730 0.00004837
N 1.97605677 18.61272369 26.32560985 0.00117928 0.00493988 -0.00202093
N 3.43352259 10.03271733 21.82591625 0.00173927 -0.00599635 0.00292351
N 1.87791674 13.31184580 19.51454364 -0.00224001 0.00300221 -0.00977510
N 0.23810840 15.78634727 24.31064611 0.00339531 -0.00335340 -0.00081774
N 3.08218336 10.84398820 26.34531490 0.00326038 0.00041299 -0.00021167
N 1.93342114 18.08954197 21.47373981 0.00342508 0.00241518 -0.00312495
N 0.06603335 24.55385420 1.02787418 0.00709033 -0.00847462 -0.00237977
N 1.28395701 23.38464352 5.64300927 -0.00558420 -0.00638796 -0.00795450
N 1.99672322 27.89900257 8.10219843 0.00087283 0.00074330 0.00150682
N 3.59036530 19.66409096 3.30419239 -0.00305072 0.00011645 -0.00539805
N 1.38176199 22.75168494 1.40682508 0.00555718 -0.00627202 0.00141884
N 0.26230343 25.44432719 6.03421678 -0.00515840 0.00412728 0.00735542
N 3.14980455 20.44435207 7.94564918 -0.00182948 0.00132684 0.01183483
N 1.80218521 27.61188314 2.82800795 0.00219527 -0.00413693 -0.00011962
N 0.47221833 24.51630051 10.26729369 0.00016652 0.00682667 -0.00437757
N 1.58186934 23.66605207 14.96347456 -0.00195943 0.00113894 0.00438240
N 1.98631391 28.20582480 16.92351146 0.00675325 -0.00391362 0.00101293
N 3.44771663 19.81071747 12.67466202 0.00483295 0.00251088 -0.00303244
N 1.31707872 22.51234036 10.81344156 -0.00554077 0.00046026 0.00225916
N 0.23679984 25.49029059 15.13027667 -0.00365467 0.00417785 -0.00451606
N 3.51404438 20.45239191 16.70251489 0.00099839 0.00199046 -0.00296492
N 2.30109235 27.29593538 12.34273718 0.00196038 0.00369562 0.00122349
N 0.03669440 24.89392171 19.21892514 0.00522556 -0.00342490 -0.00584527
N 1.92091886 23.53270927 24.01215593 0.00318826 -0.00313285 0.00065312
N 2.24210370 28.26034346 26.26717871 -0.00599503 0.00487347 0.00442434
N 3.10694115 20.14416161 21.56269243 0.00183160 0.00083301 0.00291975
N 1.24227397 22.83872115 19.60826368 -0.00046467 0.00245532 0.00508636
N 0.36643378 25.20362765 24.41644293 0.00160873 0.00411020 -0.00200848
N 3.22609281 20.54387786 26.07359487 -0.00273353 0.00236933 -0.00062876
N 2.23250040 27.19610078 21.62847137 0.00194390 -0.00162513 0.00376878
N 4.01520137 5.39956488 1.05745274 -0.00213066 -0.00411249 0.00287761
N 5.42367940 4.11105751 5.98723804 0.00632231 0.00544200 -0.00010039
N 5.86107566 8.82251671 8.32702019 -0.00130672 -0.00032725 0.00213758
N 6.59250484 0.66466308 3.64817450 0.00561505 -0.00886624 -0.00553818
N 5.29158207 3.46521596 1.34715987 0.00299635 -0.00334914 -0.00427594
N 4.46784750 6.14589235 6.16962656 -0.00085363 -0.00280776 -0.00218308
N 6.80566287 1.25627650 8.28559947 -0.00585567 -0.00284846 -0.00330425
N 6.10195095 8.20653306 3.04691710 -0.00155923 -0.00766651 0.00484053
N 3.71289665 5.37012222 10.64516738 0.00122525 0.00110156 0.00032807
N 5.25098233 3.99788276 15.08240830 0.00112667 0.00345346 -0.00495460
N 5.58670629 9.05509556 17.29803059 0.00380888 -0.00189821 -0.00508005
N 7.27348747 0.66486020 12.92685420 -0.00171135 0.00156924 -0.00212540
N 5.17040703 3.48896911 10.86561457 -0.00073612 -0.00841833 0.00221867
N 4.15522779 5.99582602 15.15652255 0.00404314 -0.00001735 0.00445690
N 7.17841243 1.00718939 16.96050692 0.00403979 -0.00319752 0.00482106
N 6.05129731 8.68498469 12.57106057 0.00044776 -0.00021264 0.01106633
N 3.88442938 5.30624443 19.61390832 -0.00384558 0.00314450 0.00271262
N 5.38477053 3.99915585 24.13152414 0.00502157 0.00135263 0.00102834
N 5.86668200 8.74615338 26.46950690 -0.00280299 -0.00293586 -0.00211708
N 7.31292730 0.28858500 21.86469096 0.00517979 0.00210851 -0.00332683
N 5.31032338 3.53218349 20.01212278 0.00807064 0.00091983 0.00930180
N 4.06195103 5.84944722 24.44823956 -0.00148025 0.00637322 0.00712524
N 7.41373294 1.21710360 26.19284261 0.01112100 0.00153579 0.00444860
N 5.87933310 8.29050734 21.62032201 0.00546738 -0.00278129 0.00245914
N 3.93261735 14.90941251 1.25598853 -0.00175731 0.00249712 0.00144077
N 5.19589168 13.68962176 5.95828314 0.00728408 0.00880298 0.00316613
N 5.53693871 18.62012558 7.97351329 0.00340533 0.00808278 0.01262718
N 7.10572737 10.22314663 3.64557909 -0.00063459 0.00049574 0.00037109
N 5.15075771 13.03319392 1.49045418 -0.00647493 -0.00661952 0.00390701
N 4.11104538 15.62692887 6.56129321 -0.00216211 0.00704679 0.00409715
N 7.04922732 10.71499332 7.61076188 0.00271822 0.00825300 0.00277270
N 5.72400051 17.79032520 3.52010924 0.00062712 0.00909581 -0.00966814
N 4.18738114 15.11900330 10.63665561 0.00119984 0.00172996 0.00858018
N 5.23317497 13.60572609 14.96470169 -0.00412306 -0.00091918 -0.00112207
N 6.11758407 18.44412974 17.41616908 -0.00671477 -0.00164463 -0.00582541
N 7.43638959 10.41952730 12.68814863 -0.00788054 -0.00518078 0.00151617
N 4.93655272 12.97497189 11.05805724 -0.00577040 -0.00475761 0.00329563
N 3.93445380 15.44220689 15.57052283 -0.00220535 -0.00271090 -0.00215522
N 6.95293686 10.81714821 16.88819781 0.00259412 -0.00078967 -0.00202033
N 5.95188251 17.83585923 12.47756216 -0.00152738 0.00158541 0.00001737
N 4.19419688 15.11437318 19.65363505 0.00175220 0.00656992 -0.00800951
N 5.39497775 13.87098944 24.19340193 0.00775055 0.00083769 0.00053189
N 5.50893542 18.81678528 26.74438257 0.00708210 0.00122653 -0.00919296
N 6.73643558 10.44557520 21.91051616 -0.00368247 -0.00360833 -0.00539517
N 5.58763057 13.35379168 20.11168721 -0.00315123 -0.00500274 -0.00213220
N 4.48049776 15.80377715 24.83398406 0.00709987 -0.01271631 -0.00032039
N 6.93903702 10.76182804 26.27089985 0.00195185 -0.00853545 0.00042884
N 6.16701295 18.00150407 22.05030456 0.00120747 -0.00543447 0.00284818
N 3.93666378 24.65402593 1.20153834 0.00115187 -0.00000826 -0.00068900
N 5.12603926 23.26448352 5.58483748 -0.00762820 0.00365669 0.00412474
N 5.87403297 27.96267523 8.37222151 -0.00341704 -0.00221877 0.00489557
N 6.77945193 19.90019357 3.84014043 0.00311123 0.00375845 -0.00706647
N 5.18636269 22.79096468 1.77604311 -0.00193024 0.00214029 -0.00293856
N 4.09316061 25.25088190 6.08315328 -0.00681777 0.00232821 -0.00838056
N 6.79646430 20.52528606 7.91040940 -0.00661062 0.00384550 0.00892484
N 5.73941071 27.32918990 3.22772590 -0.00587814 -0.00254660 0.00809403
N 4.04238235 24.24268867 10.30786936 0.00454027 0.00095634 -0.00219971
N 5.46140703 23.53125493 14.81581244 0.00178943 -0.00385301 0.00666864
N 6.11140499 27.70514281 17.34744688 -0.00070673 -0.00254350 0.00245170
N 7.37522126 19.49658018 13.05724142 -0.00112371 -0.00170348 0.00534960
N 5.50253056 22.42320563 10.77349148 -0.00121112 -0.00606462 -0.00270872
N 4.00058378 25.27759551 15.26389417 -0.00175949 0.00446503 -0.00075613
N 7.12368959 20.41581862 16.93622031 -0.00422244 -0.00024137 -0.00192613
N 5.98982405 27.63906442 12.24322856 0.00111185 0.00132772 0.00274371
N 4.16026871 24.47981620 19.39405922 -0.00105754 0.00082562 -0.00250396
N 5.46295123 23.42457429 24.42250189 -0.00394361 0.00336760 -0.00216878
N 5.81947607 28.43228504 26.85660400 -0.00060132 0.00281537 -0.00275739
N 7.12736122 20.09677847 22.34718308 0.00190678 -0.00906801 0.00564751
N 5.43856772 22.55752897 19.69431368 -0.01048367 0.00806156 -0.00856892
N 4.23817311 25.35949311 24.67060933 -0.00749223 -0.00222137 -0.00037749
N 6.79103024 20.65953969 26.67352432 -0.00184108 -0.00277875 -0.00378108
N 5.93017467 27.18450797 21.63835864 0.00243032 -0.00065091 0.00258291
N 7.53325756 5.40052693 1.16158835 0.00184841 -0.00145311 0.00799908
N 8.89883736 3.92434252 5.87373698 0.00302135 -0.00284878 0.00098568
N 9.39838995 8.74256426 7.97722529 0.01110516 -0.00228726 -0.00472502
N 10.25142160 0.73638879 3.50798285 -0.00197302 -0.00070804 -0.00071103
N 8.84568227 3.56600316 1.73245412 -0.00642919 0.00237461 -0.00356608
N 7.81457027 5.90300809 6.08310045 -0.00362535 -0.00247262 -0.00077900
N 10.24068773 1.34038595 7.70503832 0.00460581 0.00718226 -0.00486162
N 9.80310227 8.53939761 3.01955019 -0.00321286 0.00222420 0.00113544
N 7.39226311 5.51972593 10.39812627 0.00691957 -0.00217884 0.00132786
N 9.08611356 4.03269216 15.00488230 -0.00098470 -0.00366310 0.01078040
N 9.38068210 9.36822821 17.38743212 0.00248616 0.00102623 0.00356498
N 10.79772047 0.52630527 12.48519937 -0.00460556 0.00177200 -0.00268321
N 8.64908593 3.56371067 10.61526670 -0.00285346 -0.00294184 -0.00159307
N 8.13385132 6.08601869 15.46202070 0.00560044 -0.00019049 -0.00205484
N 10.91795937 1.17443320 16.95696983 -0.00333287 -0.00102674 0.00462655
N 9.66074748 8.28403551 12.49783262 0.00578245 0.00040816 0.00627149
N 7.62981406 5.27115565 19.78156865 0.00268167 0.00504318 0.00589736
N 8.80606085 4.11353312 24.19507656 -0.00182798 -0.00101150 -0.00412241
N 9.20053419 8.68493822 26.51820022 -0.00646438 0.00118367 -0.00103062
N 10.96539808 0.62878723 21.75301553 -0.00244601 -0.00068888 0.00144134
N 9.05695932 3.56749445 20.05972465 -0.00055433 0.00049254 -0.00665639
N 7.64957001 6.04597412 24.45961031 -0.00195237 -0.00430683 -0.00354440
N 11.20006259 1.12885005 26.07307167 0.00204417 -0.00006832 0.00061985
N 9.60511712 8.21636562 21.46728948 -0.01043146 -0.00505010 -0.00239141
N 7.39051189 15.02524279 1.57867918 -0.00173971 -0.00438806 0.00526731
N 8.49844982 13.43541770 6.12873864 0.00325963 -0.00362298 -0.00544049
N 9.43459696 18.34223442 8.60431446 0.00343993 -0.00251090 -0.00000314
N 10.54881225 10.57745868 3.70563551 -0.00556077 -0.00170694 -0.00523752
N 8.86755938 13.16290146 1.88664877 -0.00055112 0.00345562 -0.00186298
N 7.82445326 15.60027871 6.63978480 0.00258304 0.00012211 0.00382024
N 10.51534953 10.72173110 7.61765227 -0.00064933 0.00375554 0.00032734
N 9.52791384 17.83038652 3.22257498 0.00397468 -0.00485316 0.00144776
N 7.51023868 15.03941639 10.58359114 -0.00561473 -0.00087029 -0.00718120
N 8.77875095 13.94301249 14.71081504 -0.00477069 -0.00004335 -0.00028601
N 9.59232871 18.43568359 17.25304867 -0.00232296 -0.00210863 -0.00089734
N 11.10826613 10.14208609 12.60233981 0.00355992 -0.00340714 -0.00333435
N 8.78661637 13.16533476 10.42064214 -0.00548731 0.00081736 0.00031824
N 7.41776181 15.72218647 15.37778962 -0.00659633 0.00164794 0.00509397
N 10.68684003 11.21558925 16.75797766 0.00210947 0.00550054 0.00366580
N 9.98622277 18.09119617 12.56071390 0.00475303 -0.00181382 -0.00773693
N 7.77510586 15.50871894 19.76719659 -0.00656871 -0.00681084 -0.00616781
N 9.12819257 13.60819219 24.48795035 0.00753850 -0.00191936 0.00232206
N 9.87228000 18.43638700 26.38499266 -0.00299739 0.00265914 -0.00777662
N 10.30695775 10.33608063 21.80164455 -0.00264481 0.00073267 0.00371289
N 8.89447922 13.50015390 19.86400917 -0.00399202 0.00290287 -0.00061991
N 7.91838838 15.55082048 24.60152839 0.00100204 0.00085769 -0.00917606
N 10.54185777 10.34543000 25.77979768 -0.00034342 -0.00102956 0.00151910
N 9.91468820 17.86857549 21.70935786 -0.00134649 0.00469768 0.00356457
N 7.65843152 24.77333479 1.29494792 0.00179518 -0.00330332 -0.00365559
N 8.81405888 23.06203802 5.93160781 -0.00684808 -0.00168887 0.00723997
N 9.60748533 28.02985647 8.11668121 -0.00151226 0.00350891 0.00493816
N 10.78286518 19.72968405 3.70480033 -0.00112083 0.00078100 -0.00233012
N 8.77298274 22.75347500 1.69209916 0.00050276 0.00180009 -0.00784951
N 7.56002968 24.99996051 6.21897654 -0.00613307 -0.00609143 0.00020203
N 10.56016284 20.21494660 8.05176340 0.00003648 -0.00128682 0.00084973
N 9.11767264 27.56887287 3.17935935 0.00060955 -0.00273538 0.00095140
N 7.98497977 24.56362853 10.54946193 0.00059974 0.00098235 -0.00219143
N 9.28993501 23.25398063 14.98013306 0.00046189 -0.00134468 0.00206471
N 9.45675961 28.09310394 17.08068989 -0.00000825 0.00454471 -0.00202941
N 11.05141703 20.07751224 12.99871505 -0.00148816 0.00768726 0.00757713
N 9.12310732 22.56991766 10.76979239 -0.00118130 0.00411187 0.00062642
N 8.14977306 25.21932974 15.41129117 0.00612498 0.00052158 0.00813834
N 10.82572623 20.29644148 16.87625145 -0.00614132 0.00111608 0.00168277
N 9.49867400 27.37432578 12.29414155 -0.00034098 -0.00191087 -0.00277402
N 7.48812772 24.77679631 19.73766963 -0.00028677 -0.00022588 -0.00338306
N 9.02094183 23.52697771 24.38899649 -0.00606989 0.00219073 -0.00293488
N 9.75515650 28.10261036 26.34015336 -0.00016754 -0.00048289 0.00056343
N 11.21591156 19.79327321 21.64001680 0.00203315 0.00277955 -0.00029596
N 9.11298714 23.04354999 20.03521137 0.00487047 0.00454559 0.00192842
N 7.85093353 25.45937530 24.88022619 0.00164853 0.00810185 -0.00300197
N 11.10846019 20.38868625 26.13229379 0.00396213 -0.00072761 -0.00261617
N 9.82724201 27.38428197 21.43161335 -0.00063622 -0.00032310 -0.00035930
N 11.30881482 5.31972999 1.35163604 -0.00017063 -0.00721306 0.00334982
N 12.81539402 4.57706641 6.02929045 0.00035873 0.00270377 0.00002352
N 12.97495480 9.03211626 7.90538818 -0.00196973 -0.00938436 -0.00556107
N 14.25196892 1.16869435 3.38812229 0.00427513 -0.00091560 -0.00222004
N 12.50252559 3.38265525 1.69545710 0.00244896 -0.00171667 -0.00285062
N 11.30085385 6.34363266 5.98293807 0.00115485 -0.00246751 -0.00001074
N 14.41626360 1.24363336 7.54870598 -0.00114664 -0.00077156 0.00252452
N 13.41236285 8.39510763 3.19702116 0.00326587 -0.00511775 -0.00417852
N 11.48714548 5.64529787 10.50861095 0.00270788 -0.00219214 0.00087064
N 13.06332090 4.43422213 14.94924594 0.00406868 -0.00750509 0.00099420
N 13.18673138 8.97082235 17.09711449 -0.00281381 0.00283282 0.00276629
N 14.68540773 0.94601552 12.39661854 -0.00400629 0.00162217 -0.00290924
N 12.52776838 3.62237260 10.50329598 -0.00378872 -0.00947593 -0.00606352
N 11.47111515 6.14227463 15.50691870 -0.00103296 -0.00250809 0.00348909
N 14.16535299 1.37854634 16.92382215 -0.00659616 -0.00551285 0.00230419
N 13.54939219 8.55202481 12.56790399 0.00218624 -0.00298171 0.00305248
N 11.36483955 5.39009130 19.80212372 0.00406055 0.00759531 0.00259604
N 12.62267959 4.07053823 24.45569883 0.00027356 0.00009748 -0.00145120
N 13.63638218 8.76043159 26.61428581 -0.00107661 0.00027209 0.00058826
N 14.28199124 0.61474203 21.80399564 -0.00389364 -0.00993561 -0.00229526
N 12.39740307 3.39427995 20.01712821 0.00637051 -0.00377449 0.00107675
N 11.35515828 6.02723994 24.65728195 0.00073773 -0.00019916 0.00849118
N 14.46732971 0.98574287 25.91698680 -0.00167468 0.00544815 0.00296830
N 13.50918476 8.50519560 21.53068196 -0.00240205 0.00331891 0.00089328
N 11.17854731 15.00357430 0.79856819 0.00183998 0.00014162 -0.00826270
N 12.45044355 13.52585289 5.45221240 0.00834241 -0.00308749 -0.00050019
N 13.15876976 18.73326032 7.99698438 -0.00345810 -0.00070899 0.00734170
N 14.54069945 10.40190933 3.36568237 -0.00660955 -0.00138037 -0.00115342
N 12.39764686 13.17070674 1.58503745 -0.00345258 0.00492579 -0.00442310
N 11.45627650 15.39986276 6.16613118 -0.00197394 -0.00088854 0.00270871
N 14.42301498 10.84258716 7.77295269 -0.00232776 -0.00438562 0.00750585
N 13.30354061 17.75757990 3.27498395 0.00675805 -0.00622806 -0.00321093
N 11.52382552 15.11966050 9.88336126 -0.00798780 0.00197486 -0.00627609
N 12.76619361 13.65768860 14.80100083 0.00409039 -0.00619673 -0.00585016
N 13.35172658 18.43603665 17.13304406 -0.00235627 -0.00866202 0.00089145
N 14.63459877 10.48822022 12.49443252 -0.00111710 -0.00063130 0.00092142
N 12.59517017 13.10689173 10.48580587 -0.00138733 -0.00267725 -0.00841119
N 11.34096909 15.47641082 15.33074612 0.00323679 -0.00134997 -0.00079844
N 14.16671079 11.03542192 16.80043749 -0.00941760 -0.00755744 0.00171144
N 13.25430156 17.74691770 12.33444612 -0.00284253 0.00069756 0.00104299
N 11.47561609 15.00574672 19.73721098 -0.00068598 0.00385687 0.00156182
N 12.26495558 13.28485555 24.27837092 -0.00085648 -0.00197466 0.00011308
N 13.68240496 18.22889783 26.37861006 0.00068526 0.00313705 -0.00347553
N 14.73271214 10.44949682 21.66986083 0.00863010 -0.00304382 0.00248902
N 12.50206074 12.95871667 19.90021725 0.00173027 0.00036377 -0.00032250
N 11.77204078 15.48837690 24.32012745 -0.00091408 -0.00240918 0.00363308
N 14.48787243 10.89872205 26.29143523 0.00289034 0.00512649 0.00054473
N 13.50894947 18.02779595 21.44855599 0.00386547 -0.00762972 0.00637815
N 11.25929361 24.37915819 1.02497570 -0.00119011 -0.00147844 -0.00022791
N 12.50226046 23.33183954 5.80697271 -0.00021979 0.00397217 -0.00146513
N 12.97888375 28.22669440 7.69146271 0.00128591 -0.00191400 0.00725697
N 14.67545276 19.59753024 3.44606145 -0.00680180 0.00094311 -0.00899129
N 12.56729133 22.68221345 1.79051238 0.00390552 0.00088794 -0.00642107
N 11.42222437 25.28471400 6.05150280 -0.00074608 0.00855559 -0.00622264
N 14.38028934 20.68821474 7.53108364 -0.00275384 0.00352744 -0.00367090
N 13.12557643 28.03381887 2.69791590 -0.00108836 0.00383594 -0.00339569
N 11.23732764 24.88995255 10.88744449 -0.00374465 -0.00039485 -0.00257021
N 12.55903284 23.62790947 14.82332095 0.00401282 0.00272286 0.00024438
N 13.02036379 28.13231392 17.06737851 -0.00261393 -0.00316006 0.00004363
N 14.54449324 19.63398243 12.25861725 -0.00249010 -0.00197562 0.00222882
N 12.52953679 22.94806734 10.35501449 0.00214055 -0.00082353 -0.00588456
N 11.30801278 25.54688962 14.89151781 0.00218782 -0.00090816 -0.00367253
N 14.41252072 20.33870083 16.74648472 -0.00386084 -0.00122074 0.00380128
N 13.36987701 27.80898471 12.11203736 0.00578219 -0.00014417 0.00245519
N 11.46303431 24.66398189 19.35400867 0.00304284 -0.00526017 0.00505580
N 12.78480033 23.19627715 24.18457992 -0.00146298 -0.00015018 -0.00264511
N 13.28158533 27.91145096 26.42968989 0.00365878 -0.00059250 0.00363285
N 14.70121448 19.92707508 21.77591339 -0.00090815 -0.00327564 -0.00427782
N 12.66693908 22.73349486 19.68047980 -0.00188857 0.00213766 0.00464302
N 11.83785424 25.25559577 24.40205088 -0.00769713 -0.00947920 0.00411532
N 14.69048733 20.41827785 26.26742154 -0.00375441 -0.00513520 -0.00091999
N 13.29798102 27.37679053 21.35164284 -0.00289556 -0.00076723 -0.00144136
N 14.69906516 5.22176450 1.03491932 -0.00426549 -0.00506167 0.00140247
N 16.44799350 4.14693634 5.52026199 0.00445914 -0.00156865 0.00228068
N 16.68161314 9.00464664 7.84082388 0.00546898 0.00663870 -0.00397422
N 18.08838686 0.40783378 3.23333742 -0.00555904 0.00436141 0.00349494
N 16.47477080 3.69014606 1.35331760 0.00276696 -0.00334967 -0.00310078
N 15.27033066 6.03526448 5.91928572 -0.00443669 0.00477374 0.00047099
N 17.87128038 1.34924440 7.69363221 0.00516227 0.00024571 0.00035680
N 16.91808022 8.26522922 2.89929009 0.00274574 -0.00103237 0.00554404
N 14.65241958 5.84063287 10.33446838 -0.00366484 -0.00312559 0.00786039
N 16.40966111 4.23349317 14.59529371 -0.00075154 0.00483837 0.00490927
N 17.11822347 9.10870345 17.00004299 -0.00256939 0.00298634 0.00966326
N 18.34464503 0.92783743 12.37998632 0.00161584 0.00285758 -0.00756903
N 16.20921056 4.11657084 10.40792734 0.00437118 0.00410905 0.00597949
N 15.27578158 6.19567749 14.79919147 0.00020538 0.00379302 0.00059368
N 18.07715290 1.08690592 16.78467841 0.00313865 -0.00361387 -0.00427546
N 17.23041650 8.54829550 11.94696939 0.00550822 0.00073542 -0.00203557
N 15.15457672 5.34783477 18.98216022 -0.00340612 -0.00123172 0.00181459
N 16.16622716 3.98047397 23.19301930 0.00218680 -0.00032808 -0.00257414
N 17.12123698 9.19827599 26.26519389 0.00019832 -0.00562045 -0.00351462
N 18.33359570 0.62906111 21.92705714 0.00289692 0.00091220 0.00207671
N 16.27880099 3.31869232 19.37963865 0.00743093 0.00197549 -0.00567719
N 15.13955139 5.65203021 24.42610166 -0.00750727 0.00339923 -0.01127049
N 17.95568509 1.53670496 25.84331540 -0.00791480 0.00321507 -0.00079792
N 17.17474158 8.21742728 21.48145967 -0.00288263 0.00671805 0.00205123
N 15.26922478 15.01561315 0.50275850 0.00524163 0.00306921 -0.00014383
N 16.15829218 13.50691889 5.49756060 -0.00215511 -0.00595353 -0.00647985
N 16.58730983 18.62335769 7.86223741 0.00099934 0.00053957 -0.00154641
N 18.31904004 10.10043202 3.18130645 0.00298774 0.00315237 0.00085713
N 16.58355758 13.26513899 1.44627554 -0.00198003 0.00477550 0.00198603
N 14.93268564 15.45453467 5.91619215 -0.00450471 0.00104445 -0.00473254
N 17.79587972 11.08005096 7.32170767 -0.00371178 0.00211842 -0.00383639
N 16.99241328 17.55407585 3.15375373 0.00509460 0.00151243 -0.00348284
N 14.76543064 15.30182770 9.97614334 0.00178752 0.00233164 0.00646504
N 16.49472054 13.80500837 14.41680444 -0.00003569 -0.00616332 0.00389896
N 17.00886138 18.53552341 16.82342139 0.00054276 -0.00487745 0.00399799
N 18.57256493 10.45045566 12.29547283 0.00276712 0.00369751 0.00137382
N 15.78346339 13.27779702 10.32295310 -0.00654180 0.00240256 0.00200623
N 15.02856473 15.66577885 14.79699611 0.00190016 0.00162505 0.00325470
N 18.38734016 10.91548020 16.63870942 0.00521791 -0.00339246 0.00336365
N 17.11095691 18.06350090 12.15756974 0.00156684 0.00005285 -0.00689676
N 15.05543697 15.14980322 18.87850847 0.00469209 0.00408257 0.00091216
N 16.62504445 13.73026674 23.60318106 0.00055453 0.00445947 0.00936271
N 16.91375667 18.44618658 26.34764325 0.00778173 -0.00123689 0.00203693
N 17.80123152 10.42883329 21.62476389 -0.00009842 0.00309891 -0.00203755
N 16.21003051 13.16931537 19.18180188 -0.00485426 -0.00004747 -0.00291231
N 15.25579020 15.64192556 23.75258846 0.00521525 0.00170414 -0.00115137
N 18.49221219 10.97891872 25.85732359 0.00542713 0.00225575 -0.00187489
N 17.09784950 18.01861533 21.17698872 -0.00172454 0.00190105 -0.00363072
N 14.95927498 24.52245169 0.95179274 0.00135822 0.00195638 -0.00343029
N 16.02049045 23.43287974 5.67719634 -0.00180436 0.00045015 0.00907719
N 16.89120883 28.05635127 8.29394016 -0.00179324 0.00623732 0.00095226
N 18.08739806 19.72515386 3.46263860 0.00184687 0.00188587 0.00027459
N 16.37411197 22.66407614 1.44294749 0.00096064 -0.00439383 -0.00059434
N 14.79887993 25.36670294 5.74586701 0.00413450 0.00461369 -0.00344257
N 17.91416403 20.45263305 7.38328642 0.00371448 0.00176113 0.00028038
N 16.87533136 27.21811214 3.17619816 0.00538294 -0.00333576 0.00016290
N 14.85800983 24.49240551 10.25811075 0.00652223 0.00270976 -0.00243184
N 16.77097613 23.03575017 14.89251763 0.00455291 -0.00178856 -0.00213568
N 16.85274492 27.90083605 16.88716397 0.00350857 -0.00277168 0.00546107
N 18.37429731 19.95100894 12.32315948 0.00279366 -0.00829080 0.00573767
N 16.18929538 22.59487191 10.47926023 0.00405864 -0.00339944 -0.00096917
N 15.69882471 25.07087527 14.92630778 0.00602050 0.00133172 0.00351735
N 18.43835844 20.32005991 16.82815806 0.00413574 -0.00653187 0.00455252
N 17.02316043 27.77618668 12.09128429 -0.00050897 0.00051852 -0.00579000
N 15.01357673 24.72921407 19.45856698 0.00864348 0.00512026 0.00052451
N 16.58487634 23.34726156 23.91726960 -0.00366508 -0.00232553 -0.00066241
N 17.45459292 28.04051385 26.38763619 0.00344135 0.00093441 0.00247170
N 18.14939152 20.06285614 21.43593812 -0.00296744 -0.00182510 0.00179625
N 16.25363670 22.85309626 19.82134471 -0.00256765 0.00054586 0.00341423
N 15.26490674 25.12614438 24.34363945 -0.00068211 -0.00320491 0.00850788
N 18.19463981 20.15044225 25.86064881 0.00039406 0.00735243 -0.00317385
N 16.93843187 27.51679927 21.34347206 0.00599607 -0.00609232 -0.00238580
N 18.89963505 5.76359727 0.96567132 -0.00046910 -0.00174378 -0.00315767
N 19.82683175 4.10773229 5.57483180 -0.00224993 -0.00270972 -0.00084302
N 20.62754825 8.88036054 8.07361945 -0.00367163 -0.00037198 -0.00102845
N 21.51269656 0.76067927 3.24415923 -0.00481248 0.00062185 0.00052489
N 19.95552477 3.81002417 1.56519029 0.00275110 -0.00389441 0.00603643
N 18.44849077 6.01106928 5.91092548 0.01011184 -0.00420860 0.01078030
N 21.77952685 0.92451925 7.57531885 0.00528240 0.00171854 0.00449198
N 20.79841993 8.40436519 3.01384838 -0.00469832 -0.00324963 -0.00258784
N 18.98564130 5.45414601 10.34811064 -0.00464985 0.00287834 0.00498414
N 20.17737171 3.79229465 14.61818893 0.00347024 -0.00054010 0.00298369
N 20.83432123 8.89748385 17.14875500 0.00638454 0.00372964 -0.00066076
N 22.17798115 0.70192862 12.58979573 0.00398872 0.00228565 -0.00558978
N 20.12465109 3.39936417 10.53739870 0.00499367 0.00359503 0.00063371
N 19.11295649 5.79833169 15.31814854 0.00886787 0.00215455 0.00566718
N 21.86573199 1.31825742 16.89641709 -0.00032983 0.00352498 0.00278048
N 20.85581540 8.27013649 12.33524285 -0.00306591 0.00145863 -0.00378497
N 18.65709140 5.59731899 19.61314264 0.00015232 -0.00731400 -0.00113840
N 20.46043444 4.20065820 23.93431835 -0.00431241 0.00347712 -0.00328964
N 20.81621389 9.05637341 26.35148926 0.00144035 -0.00608237 0.00002632
N 22.01856070 0.54742146 21.70772085 0.00362454 -0.00593460 0.00185252
N 19.93510064 3.68469856 19.74062848 0.00620396 0.00052372 -0.00032442
N 19.21182988 6.15551278 24.53271506 0.00103511 -0.00553741 0.00434541
N 21.77701035 1.06686429 25.93734231 0.00113001 -0.00258056 -0.00151651
N 20.76552483 8.65159600 21.53455743 -0.00129454 -0.00103630 0.00046056
N 18.87774354 15.04205538 1.17410041 -0.00265850 -0.00235072 -0.00920276
N 20.07289227 13.68138931 5.68519403 0.00667144 -0.00322986 0.00281710
N 20.36160220 18.63866067 7.59660475 0.00158172 0.00039532 0.00019484
N 21.96495398 10.34738226 3.52391765 0.00292053 0.00361147 0.00263606
N 20.24949327 13.23209738 1.30596746 0.00471341 0.00277248 0.00352241
N 18.51195351 15.32031019 6.01504455 -0.00682860 0.00312957 0.00017750
N 21.55258191 10.97139255 7.61959783 -0.00139288 0.00446041 0.00001404
N 21.02873535 17.80922012 2.50572021 -0.00589768 0.00752134 0.00162993
N 18.34281236 14.99662923 10.25528449 -0.00371352 -0.00376347 -0.00529216
N 20.07119875 13.65415689 14.74111921 0.00039936 0.00017431 -0.00498152
N 20.95349078 18.47368921 16.91472819 -0.00146308 -0.00050126 -0.00572060
N 21.77841309 10.30207084 12.63259959 0.00247027 -0.00256404 0.00522605
N 19.87916124 13.31196134 10.44645766 -0.00657188 -0.00421219 -0.00336408
N 18.68516125 15.51263872 15.05192666 0.00038525 0.00096095 0.00373178
N 22.06017596 10.91779146 16.77480798 0.00059470 -0.00136501 0.01469521
N 20.58725980 17.86328466 11.92309551 0.00595362 0.00798722 0.00305190
N 18.68584825 15.21611314 19.37289313 0.00130276 -0.00495935 0.00058677
N 20.29036897 13.66787144 23.97516189 0.00042947 0.00712784 -0.00043686
N 20.64509568 18.31896235 26.28165774 -0.00731333 0.00259700 -0.00436190
N 0.15918142 10.38663098 21.63229221 -0.00681788 -0.00097273 -0.00243252
N 20.13502492 13.33865213 19.50251161 0.00026340 -0.00514561 -0.00298556
N 18.97439834 15.58919060 24.09528448 0.00020770 -0.00247410 0.00522028
N 21.78411498 11.18130071 25.85777861 0.00850482 0.00499957 -0.00239253
N 20.79160283 18.04924254 21.16352410 -0.00187926 -0.00257516 0.00074511
N 18.57295220 24.34789473 0.66870444 0.00468074 -0.00292270 -0.00556204
N 20.16356292 23.31544619 5.41157272 0.00263522 0.00185460 -0.00149664
N 20.14959308 28.10940089 7.98518948 0.00139837 -0.00290910 -0.00150357
N 22.08756767 19.83345228 3.20138071 -0.00828182 0.00309167 0.00299145
N 20.09337003 22.74346564 1.37238183 0.00087219 0.00368335 -0.00556411
N 18.65650407 24.93625099 5.66878734 -0.00054821 0.00261813 -0.00241025