1728
Time=44000.00000003 pbc="T T T" Lattice="22.12110155 0.00000000 0.00000000 0.00000000 29.04067043 0.00000000 0.00000000 0.00000000 27.25442313" energy=-10388.99054909 virial="5.36201504 -2.47756682 21.74880606 -2.47756682 -5.90522055 -25.56586845 21.74880606 -25.56586845 24.98210507" stress="0.00289211 -0.00001187 0.00116062 -0.00001187 0.00211931 -0.00138407 0.00116062 -0.00138407 0.00412103" Properties=species:S:1:pos:R:3:vel:R:3
N 0.14168124 5.75154148 1.28956039 0.00254125 -0.00340473 0.00297528
N 1.80559131 4.02599846 5.87269739 -0.00114397 0.00264987 0.00440217
N 2.26169929 9.07077036 7.84096270 0.00016238 -0.00418243 0.00621971
N 3.38968522 0.63814950 3.57418663 0.00966643 0.00450252 -0.00217391
N 1.39529921 3.77720294 1.69185892 -0.00503260 -0.00893153 0.00083745
N 0.34657300 5.95920218 5.99927126 -0.01011141 0.00052539 0.00212897
N 3.21911099 1.29903161 8.21548329 -0.01184232 0.00314938 0.00006667
N 2.17176476 8.63087764 3.19373076 -0.00171918 0.00697899 0.00675016
N 0.43174792 5.62543385 10.22141986 -0.00143505 -0.00252292 -0.00138484
N 1.42438874 3.89010679 14.66647763 0.00295489 -0.00228777 0.00117655
N 2.34936266 8.84796096 17.11604885 -0.00272830 -0.00586060 0.00141866
N 3.31067946 0.63726900 12.46071262 0.00419848 0.00275749 0.00635846
N 1.53225098 3.64369277 10.82075925 0.00252210 -0.00497429 -0.00214986
N 0.59287687 6.02361575 15.02236257 0.00183312 0.00096889 0.00094461
N 3.52050337 0.93626054 16.81669720 -0.00282713 0.00382787 -0.00594887
N 2.23505445 8.57476406 12.27475390 0.00334715 -0.00365172 -0.00172028
N 0.23046441 5.37033982 19.16577793 -0.00292433 -0.00255358 -0.00319491
N 1.15132606 3.77775788 23.73699163 0.00280482 0.00398987 -0.00172738
N 2.50602158 9.05567345 26.36884747 -0.00342803 -0.00150075 -0.00135351
N 3.69662886 0.83939448 21.77788208 -0.00000715 0.00577678 -0.00126648
N 1.52506007 3.55967192 19.66487903 -0.00158798 -0.00267388 0.00328708
N 0.47930353 6.05886652 23.94700092 0.00315280 -0.00109700 -0.00038352
N 3.65283517 1.43701596 26.13115370 -0.00429997 0.00416965 0.00353371
N 2.44232902 8.26741104 20.96639742 0.00262502 -0.00089838 -0.00096455
N 0.21304074 15.23298511 1.26563833 0.00112741 0.00109727 0.00251823
N 1.47161280 13.94216626 5.77257594 -0.00199921 -0.00294254 0.00575767
N 2.02629602 18.42638756 7.73282607 -0.00485426 -0.00254435 -0.00434072
N 3.61446412 10.25000978 3.82353873 -0.00508517 0.00066110 -0.00704289
N 1.22549155 13.14753867 1.49505026 -0.00174353 0.00233276 -0.00457977
N 0.16161017 15.91495048 5.92134218 0.00021175 -0.00657570 0.00762292
N 3.40788718 11.10870446 7.47198016 -0.00727081 -0.00145907 -0.00675310
N 1.98111472 18.01317855 2.94671338 0.00270513 0.00153091 -0.00390944
N 0.10649145 15.27657309 10.35169289 0.00067161 -0.00309835 0.00696563
N 1.78339501 14.13266512 15.12351114 -0.00660408 -0.00358917 0.00082632
N 2.32830495 18.86207440 16.92447808 0.00797474 0.00627627 0.00451927
N 3.38236504 10.51020770 12.73356281 -0.00519745 0.00151874 0.00018987
N 1.31677317 13.29034681 10.65153231 -0.00450380 -0.00028835 -0.01007504
N 0.34390627 15.92099585 15.28005840 0.00740843 0.00189030 0.00309757
N 3.31744594 10.90489336 16.81054881 0.00491784 -0.00512004 0.00020878
N 2.02428939 18.31266835 12.34182626 0.00664572 0.00298936 -0.00337149
N 0.75436559 14.90231922 19.44288970 -0.00065596 0.00014125 -0.00659922
N 1.86909719 13.64804086 23.98652387 -0.00074103 -0.00808919 -0.00316565
N 2.57675801 18.34218804 26.25040319 0.00487746 0.00670325 -0.00425669
N 3.87041606 10.10588272 21.63276377 -0.00533305 -0.00275839 0.00135485
N 1.64197949 12.87456104 19.75173231 0.00391684 -0.00037258 -0.00785612
N 0.64201985 15.50132877 24.28545917 -0.00016443 0.00121041 -0.00219762
N 3.44491682 11.09584014 26.15709253 0.00310702 0.00054389 0.00047461
N 2.15791251 17.94629109 21.40159658 0.00356015 0.00563654 0.00384680
N 0.04439194 24.84271916 0.82726270 0.00274580 -0.00091359 0.00149329
N 1.69751180 23.64302560 5.25629593 -0.00389177 0.00004718 -0.00283709
N 1.99591778 28.36152749 8.28271730 0.00823402 0.00777734 0.00341321
N 3.34059624 19.89461208 3.07032249 -0.00754779 -0.00303522 -0.00042466
N 1.40340790 22.98515905 1.23116968 -0.00361485 -0.00235352 0.00193409
N 0.31216247 25.37898911 5.95912848 0.00138447 -0.00092042 0.00060128
N 3.01614339 20.34764335 7.33069175 0.00028959 -0.00174886 -0.00087414
N 1.95296458 27.88079038 3.15062914 0.00116867 -0.00357984 0.00012608
N 0.25503216 25.05711207 10.18612687 -0.00438935 0.00009024 -0.00008558
N 1.64907124 23.94008577 15.07916924 -0.00033800 0.00458873 0.00178496
N 2.21127140 28.07533607 17.03043367 0.00173516 -0.00003593 -0.00639245
N 3.03680685 20.52692405 12.34106288 -0.00072317 0.00477625 0.00054432
N 1.27189130 23.01481667 10.44690722 -0.00022427 -0.00009389 -0.00220971
N 22.05513113 25.55039578 15.11263093 0.00411458 0.00324788 0.00086820
N 3.09956591 21.03946000 16.77963215 -0.00080635 -0.00079260 -0.00368984
N 1.93097937 27.77799770 12.16002165 0.00322591 0.00161816 0.00808930
N 0.18089609 25.32064626 19.38494601 -0.00129388 -0.00187001 -0.00262885
N 1.38394800 23.41938623 23.56781711 0.00238124 0.00031580 -0.00040580
N 2.40720940 28.47057197 26.19604816 -0.00084825 -0.00329309 0.00349622
N 3.18679139 19.97928831 21.63854091 -0.00044351 -0.00456013 -0.00320797
N 0.68853509 23.12757655 19.91373268 0.00331029 0.00515573 -0.00055039
N 0.93225405 25.70714344 24.29143841 0.00081601 -0.00024844 0.00223026
N 3.25569060 20.39141822 25.64033100 0.00705315 0.00542393 0.00064910
N 2.65716789 27.85986543 21.31838754 -0.00102620 -0.00143780 0.00023893
N 3.98917418 5.51203727 1.01831386 -0.00555446 0.00077454 -0.00350084
N 4.86406627 3.93225185 6.01902690 -0.00346755 0.00062664 0.00313526
N 5.62580340 8.97240611 7.94200056 -0.00157571 -0.00189992 -0.00227726
N 6.89598158 0.95964792 3.64235232 0.00334612 0.00195220 0.00139732
N 5.27944104 3.56210860 1.23966877 -0.00072443 -0.00230966 -0.00780369
N 4.11148551 6.15819155 6.04224229 0.00578371 -0.00332339 -0.00670807
N 6.64241727 1.50389301 7.58606428 -0.00196283 0.00183532 -0.00492551
N 5.96000356 8.26774751 3.11362407 0.00010843 0.00350412 -0.00121774
N 4.30752388 5.77070668 10.52459494 0.00774851 -0.00972189 -0.00079692
N 5.49279226 4.02908075 14.83155902 0.00783407 0.00565248 0.00260753
N 5.89250907 9.21196627 16.95375643 -0.00171819 0.00282338 0.00592706
N 7.18354545 0.72747018 12.62950164 0.00748688 0.00621420 0.00993098
N 5.27508465 3.81612654 10.89274799 -0.00662110 0.00363240 0.00336750
N 4.13255494 5.88183457 15.08973390 -0.00217908 0.00370164 0.00582874
N 6.93181388 1.16713357 16.73481504 0.00277102 0.00148654 -0.00944523
N 6.20612281 8.33153996 12.26210236 0.00298920 -0.00418761 -0.00302622
N 4.32781682 5.49539055 18.74263483 -0.00252384 0.00716712 -0.00059860
N 5.49048120 3.99784186 23.71959624 0.00125846 -0.00120164 0.00394960
N 5.43087986 8.78494672 25.61173851 0.00010182 -0.00088063 0.00078556
N 7.41773376 0.59486260 21.67594785 -0.00260863 0.00041787 -0.00194454
N 5.40910821 3.53123840 19.16520258 0.00275002 0.00512757 0.01246224
N 3.96632804 5.68148804 23.95785584 -0.00104703 0.00213123 -0.00591062
N 7.17707195 0.94728408 25.77756561 0.00141384 -0.00145311 0.00415703
N 6.26752785 8.38918276 20.98704619 -0.00227213 -0.00430307 0.00025207
N 3.65564880 14.68333837 1.58292750 -0.00057708 -0.00117769 -0.00084860
N 5.01416527 13.76929799 5.73002838 -0.00005395 -0.00023895 -0.00093943
N 5.85878305 18.80631079 7.97911591 0.00363212 -0.00053522 -0.00057104
N 7.36070788 10.16167830 3.27881135 -0.00772669 -0.00798353 -0.00230131
N 5.04135718 12.85957781 1.41180746 -0.00210430 -0.00510409 0.00039164
N 3.91178078 15.74448146 6.08965864 -0.00626345 -0.00035447 0.00522726
N 6.82055518 10.91818192 7.59242071 0.00110771 0.00477971 0.01583131
N 5.75032681 18.04108221 3.13923733 -0.00178213 -0.00090583 0.00469085
N 3.94396958 15.57167321 10.29517546 0.00381065 0.00132760 0.00407507
N 5.02229050 14.12534345 14.86946367 -0.00461283 0.00124544 -0.00587079
N 5.47743816 18.94342723 17.04657323 0.00541121 0.00117451 -0.00002604
N 7.09374550 10.49377541 12.24230530 0.00586317 0.00470914 0.00243823
N 4.84739687 13.49423925 10.74948437 -0.00476341 0.00118545 0.00203905
N 4.03655260 16.15757534 15.23775900 0.00541579 0.00124297 -0.00215398
N 7.21629904 11.15398851 16.65070620 0.00020594 0.00012589 -0.00158945
N 5.96650152 18.53578217 12.21680427 0.00012646 -0.00315266 0.00064334
N 3.96481242 14.88248417 19.32129106 -0.00713950 0.00077489 0.00431911
N 5.28326363 13.63388172 23.86558890 -0.00047596 -0.00145891 -0.00557173
N 5.56583056 18.35791115 26.15936879 0.00671788 -0.00138677 0.00381308
N 7.49231191 10.27301805 21.47592944 -0.00093526 0.00570715 0.00034273
N 5.50488655 13.14730250 19.63039485 -0.00633794 -0.00067261 -0.00682078
N 4.05511750 15.58794747 24.20255115 0.00418126 -0.00175210 -0.00499066
N 6.82237695 10.52669033 25.70502952 0.00814804 0.00040454 -0.00369615
N 5.49373704 18.13955764 21.16706964 -0.00350924 -0.00468179 -0.00176768
N 4.12842651 24.83754359 1.18353473 0.00494563 0.00549038 -0.00199583
N 5.10366649 23.60632945 5.52644601 -0.00658298 -0.00347856 -0.00169587
N 5.53558038 28.52219712 7.98766967 -0.00155936 -0.01007156 0.00105523
N 7.00124711 20.04380669 3.37445564 0.00020576 -0.00245333 -0.00032377
N 5.20409040 22.74088901 1.10709899 0.00612644 -0.00217244 -0.00618216
N 4.02907705 25.58474479 5.65165575 0.00144163 0.00267371 -0.00339220
N 6.68840175 20.89887439 7.48179080 0.00299757 -0.00399412 0.00038290
N 5.77593883 28.02300844 3.20363340 -0.00813897 -0.00356430 -0.00349750
N 3.80511535 25.16688957 9.89998413 -0.00313228 -0.00138470 -0.00605516
N 5.39113305 23.75263356 14.44643071 -0.00431238 -0.00191617 -0.00105015
N 6.12436929 28.18787957 17.29081816 0.00447842 -0.00052582 0.00146062
N 7.11410142 20.46051915 12.52192236 0.00347581 -0.01035697 0.00174402
N 5.10905979 23.34942767 10.24106424 0.00138832 -0.00527939 0.00310725
N 4.16107862 25.51572973 15.04272189 -0.00627196 -0.00050075 0.00509869
N 6.93623127 20.66953266 16.45983437 -0.00236727 0.00048776 0.00827867
N 6.09081847 27.82321501 12.11963589 0.00282713 -0.00213845 0.00364038
N 4.14470263 24.99684899 19.28316827 -0.00079542 -0.00304754 -0.00002557
N 5.61273665 23.20930775 23.97984680 0.00641824 0.00329769 -0.00332895
N 5.95159218 28.15703766 26.32694980 0.00305710 -0.00055738 -0.00363187
N 7.01688910 19.91027833 21.56525321 0.00340353 0.00356327 -0.00163273
N 5.34357599 22.93353517 19.49945106 -0.00270334 -0.00127080 0.00528291
N 4.29325160 25.16555276 24.23359651 0.00580623 0.00583457 -0.00450478
N 7.21013310 19.98075973 25.73092896 0.00267509 0.00106925 -0.00846415
N 5.98642177 27.90999848 21.23809378 0.00474601 0.00361533 -0.00472926
N 7.95644554 5.71016278 0.91293991 -0.00289146 -0.00019861 -0.00390409
N 9.03328405 4.50561075 5.45631120 -0.00061407 0.00380908 -0.00512708
N 9.39872276 9.21933982 8.33200773 0.00229939 0.00751384 0.00295905
N 10.79093389 0.65270136 3.35451467 0.00295462 0.00026972 -0.00217273
N 9.13610220 3.62424165 1.23427342 -0.00411243 -0.00126229 0.00088902
N 7.84381270 6.45985097 5.94795801 -0.00981272 0.00363811 -0.00412993
N 10.24969901 1.94649042 7.45188763 0.00109303 0.00095315 0.00116075
N 9.68093374 8.37466853 3.30750136 -0.00598475 -0.00057012 -0.00591803
N 8.16928484 5.73373644 10.18306899 0.00099655 -0.00699859 -0.00073440
N 9.08575064 4.08976191 14.75934620 0.00015832 0.00237359 0.00261711
N 9.59064275 9.34608040 16.50701763 -0.00234529 -0.00048576 0.00443819
N 11.05895602 0.84015274 12.11292846 0.00063156 0.00247810 -0.00226462
N 8.79846563 3.58069137 10.41866709 0.00274121 0.00437807 -0.00173961
N 8.01507374 6.11922229 15.09173838 0.00542765 -0.00485016 -0.00032554
N 10.74213925 1.20855560 16.68775283 0.00412899 -0.00494094 -0.00083578
N 9.63400447 8.63636012 12.39017946 0.00165125 0.00706459 0.00733625
N 8.13337805 5.71826533 19.27444043 -0.00597329 -0.00729929 -0.00021891
N 9.10760532 3.96688889 24.03787061 0.00708821 -0.00197778 -0.00686449
N 9.17046314 9.07969236 26.02846596 0.00305695 0.00514246 -0.00669932
N 10.72023305 0.68845411 21.27781395 -0.00789996 -0.00167479 -0.00149362
N 9.12804594 3.60330516 19.46469775 -0.00378975 0.00004127 0.00076518
N 8.07844247 6.02635735 23.94495602 -0.00313627 0.00211199 -0.00061414
N 10.65407073 0.90376854 25.56491776 0.00483251 0.00224020 0.00487183
N 9.68432527 8.24981212 21.11813779 -0.00188214 -0.00073132 0.00660085
N 7.57831583 15.15184928 1.17108078 -0.00000176 -0.00210401 -0.00518628
N 8.81179843 13.85731349 5.65471465 0.00643074 0.00047693 -0.00198225
N 8.83647265 18.88133710 7.60008363 -0.00502699 0.00415369 0.00163153
N 10.50407043 10.47044043 3.75107463 0.00509120 0.00024333 0.00492828
N 8.55151637 13.11981526 1.47901042 0.00501975 0.00877489 -0.00045733
N 7.83265514 16.04103908 6.06089171 -0.00114430 0.00129797 0.00767318
N 10.44800759 11.10862234 7.44775730 0.00360955 0.00038515 0.00617449
N 9.33019337 18.12390186 2.83554929 0.00048356 0.00081441 0.00473627
N 7.51174496 15.79904425 10.27500683 -0.00612403 -0.00027553 0.00657843
N 9.06010325 14.13907577 14.62918898 0.00043056 0.00879396 -0.00313029
N 9.36792392 18.94736676 16.63289169 -0.00654129 -0.00047479 0.00355571
N 11.05977864 10.36392097 12.80881663 -0.00319314 -0.00402435 0.00482674
N 8.56296735 13.79070770 10.40002903 0.00250165 -0.00221467 0.00261856
N 7.67374834 15.88046801 15.01349216 -0.00130929 -0.00056316 -0.00059869
N 10.79323548 11.33721894 16.72594414 0.00582064 -0.00100948 0.00039876
N 9.73980744 18.14995807 12.07469437 0.00096294 -0.00457621 0.00860291
N 7.49347337 15.06234343 19.11934051 -0.00752062 0.00543699 -0.00046026
N 8.92518178 13.60853855 23.81191320 -0.00387534 0.00633178 0.00299166
N 9.58509216 18.28783901 26.14951340 0.00471166 -0.00330119 -0.00505969
N 10.97109431 10.18636986 21.19691711 0.00136722 -0.00268310 0.00463283
N 9.10998761 13.52942553 19.73770102 -0.00075090 0.00379055 0.00091833
N 7.66441151 15.62561430 23.92254054 0.00107974 -0.00424343 0.00229369
N 10.79681483 10.73456157 25.33995115 0.00745832 0.00302388 0.00583029
N 9.58586791 18.02502175 21.23633706 0.00946992 -0.00156946 -0.00201694
N 7.54809381 25.00877223 1.13750560 0.00229543 -0.00101249 -0.00135022
N 8.92326358 23.43179480 5.61805298 0.00017791 -0.00057871 0.00117150
N 9.15785110 28.88066041 7.43990906 0.00097900 -0.01137679 0.00038570
N 10.82507243 19.79362471 3.27623968 0.00395745 -0.00021887 -0.00719281
N 8.80523289 23.05664621 1.38949796 0.00161665 0.00401643 0.00377369
N 7.83073691 25.43091982 5.87137499 -0.00298774 0.00231604 -0.00360898
N 10.41091930 20.71702489 7.43537148 0.00431047 -0.00222895 -0.00047664
N 9.64893677 27.70760680 3.05595914 -0.00444714 0.00611545 -0.00099965
N 7.98836699 25.45587742 10.11290239 0.00407303 0.00371691 -0.00092949
N 8.93034149 23.48641954 14.80295034 -0.00543992 0.00705814 0.00449797
N 9.39867743 28.27704555 16.88548313 -0.00011844 0.00167296 0.00482976
N 10.85181060 20.16426415 12.35988715 0.00119808 0.00588891 -0.00486359
N 8.76811513 23.22421380 10.34973309 -0.00293857 -0.00335513 0.00095495
N 7.59794086 25.41421635 14.75490930 0.01083206 -0.00833164 -0.00883769
N 10.82086186 20.82194721 16.70161633 -0.00607297 -0.00009720 -0.00435882
N 9.43910390 28.13003120 12.05159303 0.00074235 -0.00220192 -0.00173572
N 7.80825084 24.95823798 19.24966911 -0.01043612 -0.00342316 -0.00048340
N 9.11845820 23.19362376 23.84374636 0.00642701 -0.00230249 -0.00049806
N 9.48938468 27.95195998 25.99000964 -0.00634445 0.00223173 -0.00164094
N 10.88084880 19.98359591 21.25285794 0.00230686 -0.00662496 0.00171427
N 8.83031577 22.84790798 19.45922924 -0.00062360 0.00900095 0.00121839
N 7.77246191 25.09700451 23.97984187 -0.00038875 0.00272536 -0.00027723
N 10.53758513 20.38936182 25.83216937 -0.00054453 -0.00447844 -0.00428475
N 9.68740717 27.71807909 21.24251534 -0.00251322 -0.00279114 -0.00176238
N 11.33705254 5.53046876 1.00474312 -0.00139172 -0.00119815 -0.00170991
N 12.94092971 4.56391730 5.40020871 -0.00798379 -0.00313482 0.00024237
N 12.84345236 9.21570052 7.83620204 -0.00395715 -0.00078760 0.00084455
N 14.26429283 0.67346877 3.29442436 0.00548017 0.00450499 -0.00345647
N 12.40312936 3.44596805 1.35900390 -0.00000593 -0.00015074 -0.00733682
N 11.52528460 6.30519842 5.86891011 0.00262875 0.00386589 -0.00506488
N 14.16053011 1.56988031 7.47722746 -0.00033325 -0.00081228 0.00050308
N 13.60696502 8.34516310 3.38557124 -0.00111458 0.00114123 0.00705007
N 11.27327409 5.54568561 10.12027252 0.00798790 0.00164772 0.00828139
N 12.82858971 4.02020528 14.58107088 0.00127686 0.00119478 -0.00719599
N 13.07174771 9.06009020 16.82000566 0.00627799 0.00061818 -0.00445217
N 14.88630519 0.59604397 12.38480693 -0.00088105 -0.00503000 -0.00261646
N 12.79892648 3.80527953 10.24786846 0.00870971 -0.00152607 -0.00059439
N 11.55619380 5.88498402 15.19887871 0.00358991 0.00017560 -0.00245878
N 14.33877980 0.91852464 16.69794499 -0.00212585 -0.00648592 0.00483644
N 13.50940617 8.05178260 11.93211764 -0.00558833 -0.00563600 0.00105172
N 11.65312927 5.43279679 19.17920863 0.00499261 -0.00198330 0.00039517
N 12.60968398 4.42892388 23.76465373 -0.00124833 0.00789512 -0.00299425
N 13.09380630 8.93983256 26.19100381 -0.00076066 0.00109441 -0.00310240
N 14.62292163 0.56261564 21.55732933 0.00113400 0.00175709 -0.00008497
N 12.37995267 3.36135342 19.69776685 -0.00022063 0.00684997 -0.00574589
N 11.57112097 6.39909237 23.96401363 0.00669278 0.00187859 0.00477170
N 13.98540372 1.11192670 25.55319182 0.00040086 0.00548245 0.00054049
N 13.31981975 8.36855065 21.03866679 0.00380231 -0.00297693 0.00138745
N 10.95544540 14.76559974 1.20205481 -0.00243871 -0.00259207 0.00519394
N 12.33010741 13.75434723 5.77168688 -0.00076684 0.00002014 0.00133605
N 12.92526078 18.87489793 7.67820614 0.00527225 -0.00348868 0.00123156
N 14.60116637 10.37940554 3.52488127 0.00183382 0.00733263 0.00213968
N 12.39117361 13.06537555 1.27207249 -0.00053105 -0.00008909 -0.00244586
N 11.30886850 15.87515372 6.00156871 -0.00382962 -0.00353979 0.00201042
N 14.35140713 11.06140064 7.76231136 0.00150031 -0.00003648 0.00396247
N 12.92225604 17.96499338 2.93347218 0.00018132 -0.00358616 -0.00149156
N 11.72633049 15.50433258 10.27376764 -0.00009227 -0.00751539 0.00148141
N 12.86770682 14.26776150 14.78481702 -0.00225549 0.00769730 0.00355073
N 13.05303733 18.82504974 17.10083445 0.00187735 0.00353510 0.00058476
N 14.50011238 10.18401332 12.05869464 -0.00607524 -0.00398713 0.00254729
N 12.10644890 13.25425865 10.67832774 -0.00021850 -0.00160277 0.00171002
N 11.41312424 15.94959982 14.80145522 0.00021507 0.00752122 -0.00516106
N 13.97921898 11.17839213 16.42749509 -0.00719591 0.00046112 0.00353356
N 13.35600396 18.46518117 12.19850289 -0.00171331 -0.00702121 -0.00199235
N 11.36160722 15.06799652 19.21318469 0.00068059 0.00381692 -0.00058758
N 12.89375553 13.84531031 24.01693816 -0.00330157 0.00035074 0.00080676
N 12.85723480 18.65113883 25.86989291 -0.00123241 0.00051299 0.00009653
N 14.59588713 10.30170401 21.23561121 0.00561597 -0.00615393 -0.00601758
N 12.55125457 13.18493985 19.35622869 -0.00442179 0.00040755 -0.00392370
N 11.47141004 15.75532152 24.15032850 0.00581043 -0.00214257 0.00070786
N 14.53004516 10.66552451 25.59019680 -0.00359119 -0.00752988 0.00368128
N 13.11008210 17.82897557 21.32772032 0.00165912 0.00301878 0.00046848
N 11.57937547 24.81900074 1.13843342 -0.00810103 -0.00007975 -0.00274652
N 12.45546306 23.53104631 5.59553733 -0.00334926 -0.00082360 -0.00327380
N 12.82626879 28.77616474 8.09043331 -0.00365576 0.00199856 0.00553053
N 14.45198368 19.71715217 3.00394751 -0.00940168 -0.00403708 -0.00302655
N 12.45124364 22.71943300 1.32265350 0.00028464 -0.00288675 -0.00159401
N 11.40283198 25.52038309 5.95514242 -0.00542685 -0.00195553 -0.00449353
N 14.29614870 20.77392669 7.71240708 0.01201177 0.00056339 -0.00415908
N 13.50887654 27.55118764 3.13721310 0.00136290 0.00051699 0.00297677
N 11.29238620 24.76290963 10.48495977 -0.00029119 0.00013694 -0.00334481
N 12.52956328 23.36557088 14.68442118 0.00122270 0.01244544 0.00158935
N 12.93379170 28.17883699 17.05880935 0.00481835 0.00171121 0.00400351
N 14.68593243 20.26815959 12.69240902 -0.00206662 -0.00033427 0.00057302
N 12.42115872 22.69440263 10.45166197 -0.00855567 -0.00364524 0.00084665
N 11.32002970 25.40593171 15.01981207 -0.00792926 -0.00183339 0.00305242
N 14.21278873 20.74294969 16.79185385 0.00414585 0.00364668 0.00293603
N 13.37818742 27.90615703 12.35298259 0.00220534 0.00114745 0.01140205
N 11.74732940 24.87182405 19.14246523 -0.00395581 -0.00013042 -0.00561722
N 12.63803598 23.01824729 23.62440815 -0.00317222 0.00571780 -0.00375598
N 13.19968369 28.03686774 26.21802736 -0.00048157 -0.00513124 0.00567458
N 13.95676848 20.01385207 21.68079550 -0.00301829 -0.00078942 0.00821366
N 12.67417725 22.92905737 19.72755517 0.00641867 0.00236772 -0.00802495
N 11.50573624 25.08745166 23.86429785 -0.00001696 -0.00088547 -0.00012791
N 14.30796648 20.50885458 25.79590413 0.00223706 -0.00788402 0.00180511
N 13.06748702 27.78061476 21.15328002 0.00609463 0.00223077 0.00432688
N 14.97160915 5.22979009 1.45832875 0.00210149 0.00561009 -0.00038765
N 16.19056270 4.27500692 5.66316472 -0.00197368 0.00167259 -0.00294109
N 16.74675755 9.38536274 8.07503658 0.00139325 -0.00593648 -0.00607936
N 17.44229579 0.73075725 3.66864270 -0.00231924 -0.00533816 -0.00032105
N 16.10332733 3.24530965 1.46565133 0.00315760 -0.00042601 0.00073136
N 15.16546231 6.35269024 6.12779313 0.00265009 -0.00050054 0.00138497
N 18.18813268 1.66631464 8.08053951 -0.00455283 0.00461336 0.00319670
N 17.37142368 8.53238058 3.03122528 -0.00148276 0.00241089 0.00205861
N 15.15493615 5.63735322 10.15716956 0.00273390 -0.00274610 -0.00240087
N 16.30783187 3.82075139 14.51750630 -0.00037941 -0.00153767 -0.00443792
N 16.77553341 8.95496852 16.62707155 -0.00161607 -0.00357890 0.00338750
N 17.99631172 0.77548671 12.41376671 0.00431368 0.00067837 0.00288810
N 16.28146101 3.73039239 10.70653132 -0.00000716 0.00054418 -0.00355311
N 15.15467327 5.87451298 14.75112382 0.00186435 0.00158144 -0.00423470
N 18.01931038 1.18598587 16.91033620 -0.00112668 0.00203562 0.00155988
N 17.23237110 8.48807322 12.32677462 -0.00250851 -0.00135650 -0.00611040
N 15.25444540 5.28962783 18.94429269 -0.00078062 -0.00024512 0.00464891
N 16.56732642 4.08836247 23.89152852 0.00230582 0.00576414 -0.00059882
N 17.14557270 8.55329444 26.23680430 0.00142958 -0.00391955 -0.00332180
N 17.86499685 0.62023661 21.61062028 0.00201559 -0.00092240 -0.00236179
N 16.25384971 3.30340284 19.43062089 0.00773628 -0.00431871 0.00299126
N 15.33660777 6.09013424 23.96086412 -0.00671521 -0.00249204 -0.00147016
N 17.97968716 1.05655044 25.70588542 0.00816553 0.00262361 0.00050305
N 17.10283099 8.40121927 21.18415822 -0.00116892 0.00198424 -0.00509460
N 15.06248644 15.38944108 1.07305634 -0.00322841 -0.00772670 0.01000850
N 16.44556123 14.22650685 5.58336233 0.00783565 0.00387470 -0.00304443
N 16.74978759 18.90374247 7.88454519 -0.00212249 0.00326157 -0.00639087
N 17.80359362 10.76913644 3.36146868 0.00028783 0.00123780 -0.00030209
N 16.20035141 13.49718438 1.75392515 0.00090470 -0.00217866 -0.00391894
N 14.77947502 15.80662139 5.79684483 0.00535351 -0.00536085 -0.00555510
N 18.19050269 11.16815506 7.65712322 -0.00060104 0.00272438 0.00347778
N 16.86451894 18.22018555 2.86704789 0.00209993 -0.00158244 -0.00281216
N 14.87513414 15.40529823 10.24718299 -0.00522107 -0.00248230 0.00380518
N 16.48791843 14.11085632 15.01463236 -0.00575063 0.00510844 -0.00551586
N 16.58817697 18.45763673 17.20937326 0.00087954 -0.00005294 -0.00234686
N 18.10957291 10.64960274 12.41684285 -0.00420693 0.00309938 0.00594076
N 15.71675019 13.32715687 10.57664609 0.00010020 0.00741526 0.00552257
N 15.02295245 15.89802095 14.96840657 0.00484439 -0.00325928 0.00181257
N 17.85501293 11.11333921 16.52368135 0.00570240 -0.00324792 -0.00110188
N 17.24417211 18.24310876 12.00775529 0.00277710 -0.00184250 0.00542073
N 15.05166786 15.09181776 19.47673868 -0.00064164 0.00523835 -0.00363243
N 16.42964914 13.49211352 23.88676268 0.00105461 0.00117866 0.00501206
N 16.81865446 18.59654909 26.01562245 0.00395572 0.00247755 0.00109900
N 18.43451877 10.21503802 21.38025027 -0.00812067 -0.00066052 -0.00255086
N 16.37642189 13.18669635 19.36434510 -0.00248289 -0.00619157 0.00063907
N 15.27725645 15.52595423 24.18922105 -0.00565403 0.00124388 -0.00560169
N 17.71888495 10.82993085 26.03780530 0.00105012 0.00021450 0.00129660
N 17.02365694 17.80824020 21.44860250 0.00004327 0.00111976 0.00131394
N 14.65716118 24.46197183 1.42452816 0.00042863 -0.00009436 0.00581298
N 16.18433058 23.73853564 6.13726961 0.00215868 -0.00433520 -0.00023322
N 16.71950824 28.87183213 7.79720813 0.00306615 -0.00448459 0.00326126
N 18.16934923 20.00799916 3.48939203 0.00006319 -0.00347031 -0.00336304
N 16.07006005 22.63617233 1.61059692 -0.00362847 0.00303595 0.00358389
N 14.83690919 25.62785715 6.38202451 0.00399417 -0.00219872 -0.01076475
N 17.99614239 20.74624114 7.77211053 0.00742185 0.00468319 -0.00134454
N 16.77284724 27.56850707 3.29083252 -0.00180077 -0.00227957 -0.00379471
N 15.03633276 25.06619004 10.64085090 0.00306451 -0.00141601 0.00427765
N 15.95648341 23.51719440 14.97272918 0.00461983 0.00273420 0.00222770
N 16.73660870 28.38301822 16.96982792 -0.00434355 0.00216921 0.00163756
N 18.34753744 20.21409320 12.47321999 -0.00021489 0.00399991 0.00536081
N 16.25063368 23.09437992 10.82322411 0.00558874 0.00160766 -0.00213003
N 14.90146489 25.64562701 15.33182286 -0.00262366 -0.00103921 0.00402817
N 17.98146298 20.27834475 16.64107064 -0.00316076 -0.00485200 0.00003276
N 17.30361133 27.64407710 12.12323090 0.00384785 0.00458260 0.00872373
N 15.00321328 24.82881158 19.46129812 -0.00399746 -0.00225038 0.00351476
N 16.44808273 23.45554412 24.14552522 -0.00048147 -0.00298862 0.00112750
N 17.05565567 28.23439306 26.50090057 0.00151644 0.00058458 0.01005959
N 18.15690336 19.73722120 21.41565478 -0.00383526 0.00477977 0.00416615
N 15.98194142 22.76127867 19.89442852 0.00676022 -0.00323651 0.00168821
N 15.16626143 25.44832090 24.12643411 -0.00405392 0.00450611 0.00091330
N 18.12490350 20.50383100 26.05009452 0.00093493 0.00394396 -0.00210567
N 17.04225477 27.50593285 21.39467369 0.00623150 -0.00101481 -0.00286418
N 18.91290017 5.54913895 1.05663162 0.00161415 0.00596154 -0.00339924
N 19.89561885 4.24305911 5.86860506 -0.00032271 -0.00560967 -0.00195049
N 20.40349752 9.30053350 8.09573013 -0.00251301 0.00019336 -0.00310418
N 21.74373423 0.67830067 3.57052917 -0.00789302 -0.00249515 0.00592917
N 19.53474680 3.39224210 1.66666640 0.00230887 0.00154500 0.00612873
N 18.91026306 6.28117164 6.17895061 -0.00522916 -0.00384189 -0.00175254
N 21.52511731 1.25025432 7.71618170 -0.00515023 0.00044891 0.00531212
N 20.62245858 8.79047139 3.36030948 -0.00236889 -0.00123158 0.00091210
N 18.92560259 5.55183778 10.50354366 -0.00049787 -0.00299196 -0.00569831
N 20.17180563 4.18824325 15.14513310 0.00718873 0.00430921 0.00410890
N 20.95558897 8.52559056 17.07114470 0.00424686 -0.00141536 -0.00053848
N 21.81866981 0.56020243 12.78992987 0.00153131 -0.00074154 -0.00185666
N 19.96304028 3.53436467 10.83984397 -0.00135510 -0.00175363 -0.00142297
N 19.01620487 6.16205342 15.15919151 0.00143884 -0.00570727 -0.00186790
N 21.99775964 0.94763098 16.75545362 -0.00338588 0.00199286 0.00110726
N 20.82990538 8.35518884 12.50273423 0.00220825 0.00310771 0.00058036
N 18.97006928 5.13975537 19.40522551 0.00563220 0.00318550 -0.00684880
N 19.78568934 3.83165496 24.10147128 -0.00096267 0.00093839 0.00344296
N 21.28822202 9.04069631 26.71456896 -0.00898832 0.00195024 0.01234867
N 22.02461564 0.63582563 21.74656252 -0.00633250 0.00126799 0.00222960
N 20.17149557 3.19500786 19.62308867 -0.00125762 0.00502509 -0.00382941
N 19.09480194 6.06729919 24.39165200 -0.00017956 0.00486903 0.00128781
N 21.90293628 1.24823254 25.83419780 0.00085806 -0.00376694 -0.00437183
N 20.61876967 8.30831313 21.55478338 0.00788163 0.00246622 -0.00114030
N 18.61173670 15.32107365 1.02056298 0.00435343 -0.00070986 0.00077965
N 20.01024050 14.17624057 5.92962873 -0.00151684 -0.00123030 0.00042870
N 20.45865269 18.97768850 7.87922647 -0.00011925 0.00430685 0.00338415
N 0.04406860 10.38600697 3.64921839 0.00313555 0.00115243 0.00025262
N 19.84447392 13.45470257 1.52160449 -0.00216452 -0.00672178 0.00131325
N 18.55811974 16.01575738 5.94392908 0.00394472 -0.00167828 -0.00128459
N 21.80236501 11.15619446 7.97225197 0.00216932 0.00064266 -0.00790418
N 20.41255232 18.24132000 3.06498413 -0.00494466 -0.00099973 -0.00038295
N 18.41672722 15.47526307 10.31345072 -0.00041346 -0.00741300 0.00299549
N 20.05088940 13.93010141 15.11743397 -0.00199641 0.00703795 0.00117099
N 20.43821598 18.61433627 16.92949859 0.00125216 0.00467055 0.00022732
N 21.89137381 10.34590156 12.55760400 -0.00290428 -0.00078569 0.00267660
N 19.70333623 13.55434835 10.63097455 -0.00018711 0.00182496 0.00280474
N 18.75599546 15.77471554 15.49116215 0.00338739 -0.00251467 0.00226280
N 21.78005476 10.72612803 17.04874541 0.00034719 0.00272223 -0.00067101
N 20.53416650 18.11952033 12.08716429 -0.00368022 -0.00030352 -0.00386556
N 18.89910117 14.99283358 19.54639415 0.00492902 -0.00003240 0.00149134
N 20.40087579 13.72093652 24.00097516 0.00127357 0.00232399 0.00028748
N 20.48661987 18.50068069 26.14637147 -0.00249308 0.00045244 -0.00070434
N 22.11749258 9.95759921 21.92089080 0.00004730 -0.00143738 -0.01021993
N 20.15904482 13.09315606 20.08598993 0.00721007 0.00058155 -0.00709637
N 18.89953715 15.45373320 24.14321483 0.00046323 0.00080318 0.00110390
N 21.63734154 11.21336611 26.01821382 0.00667953 0.00783155 0.00534039
N 20.99515873 17.63789673 21.37457541 -0.00154964 -0.00393865 -0.00242476
N 18.68024588 24.63306056 1.11775146 0.00594583 -0.00160836 0.00548793
N 20.07498193 23.59237744 5.46769088 0.00085658 0.00399378 -0.00719014
N 20.53294874 28.30743902 8.15673477 -0.01285089 0.00301421 0.00156933
N 21.95461971 19.96656668 3.37474764 -0.00230525 0.00014275 0.00148616
N 20.04860852 22.83747652 1.29625683 0.00285748 -0.00171115 -0.00450614
N 18.70538863 25.43485912 6.10777083 0.00608995 0.00018748 0.00086196