1728
Time=23000.00000000 pbc="T T T" Lattice="22.30365227 0.00000000 0.00000000 0.00000000 28.56914685 0.00000000 0.00000000 0.00000000 27.40269186" energy=-10388.67145336 virial="-9.90863011 -4.41932765 10.84809154 -4.41932765 -2.82878010 1.65562197 10.84809154 1.65562197 -29.93744818" stress="0.00181149 -0.00027067 0.00061996 -0.00027067 0.00240220 0.00020832 0.00061996 0.00020832 0.00105263" Properties=species:S:1:pos:R:3:vel:R:3
N 0.20902923 5.62750504 1.23109749 -0.00236126 -0.00159699 0.00520060
N 1.35832559 4.08038209 5.57680306 -0.00597785 -0.00110640 0.00062529
N 1.89146297 9.16754448 8.01598123 0.00626807 0.00710325 0.00218244
N 3.53549051 0.80156092 3.67319600 -0.00285485 0.00352978 0.00584580
N 1.54922222 3.80586128 1.47727866 -0.00207853 0.00283547 -0.00157614
N 0.11851848 6.07711494 5.94783179 0.00302502 0.00766926 -0.00711845
N 3.08272344 1.47057470 7.59803430 -0.00052919 0.00662807 0.00272707
N 2.54850179 8.38274302 2.79529169 0.00938809 -0.00100628 -0.00839572
N 0.18826707 5.73877921 10.20017865 -0.00196773 -0.00332615 -0.00349213
N 1.45758044 4.24134946 15.33442536 -0.00460520 -0.00517884 -0.00576323
N 1.82420702 9.12581098 16.87433380 -0.00170877 -0.00374281 0.00654222
N 3.61040371 0.79384959 12.61776201 -0.00472867 0.00190908 0.00004857
N 1.23654015 3.88922302 10.98224501 -0.00619467 0.00058741 0.00096304
N 0.37321779 6.22928377 15.28219702 -0.00586712 -0.00154467 -0.00345602
N 3.33764806 1.25920599 16.82122829 -0.00482508 0.00722986 -0.00496244
N 2.01153060 8.40261426 12.02168148 -0.00252205 0.00291668 0.00298123
N 0.25349505 5.60905288 19.50023307 0.00972333 -0.00121454 -0.00217881
N 1.59405804 4.07911370 23.90376450 0.00013557 -0.00215100 -0.00196451
N 2.00000161 9.12362496 26.09980416 -0.00121190 0.00023510 -0.00203876
N 3.48387671 0.65608422 21.50089330 0.00009529 0.00437420 -0.00403502
N 1.72973268 3.94940836 19.89801681 0.00699522 -0.00733504 0.00420913
N 0.32134328 6.03275236 24.38979114 0.00061887 0.00051374 0.00215236
N 3.53336425 0.98410007 26.09920324 0.00141947 0.00528047 0.00364016
N 2.49206017 8.12899358 21.45372811 -0.00183284 0.00189572 -0.00051062
N 0.35653300 15.04032276 0.87009448 0.00027337 -0.00443232 -0.00404142
N 1.55464865 13.28099067 5.23247971 0.00315582 0.00008506 -0.00456909
N 1.68320789 18.27616897 8.15473882 0.00284318 0.00285511 0.00259086
N 3.61853283 10.28073869 3.56015852 0.00324502 0.00511143 -0.00256388
N 1.71816544 13.20653438 1.24022967 -0.00180140 -0.00132947 -0.00332084
N 0.51631342 15.14232483 6.27761775 0.00070731 0.00662742 0.00645417
N 3.05232346 11.00671516 7.41031394 0.00653645 -0.00854463 0.00271013
N 2.06117533 17.73938042 3.01205846 -0.00966583 -0.00081976 0.00389664
N 0.11659910 15.07517777 10.08634277 -0.00558365 0.00120176 -0.00067013
N 1.38243643 13.81890192 14.66880725 0.00294259 0.00720246 -0.00152314
N 2.27352987 18.28376660 17.27768773 -0.00308636 -0.00380072 0.00315815
N 3.37061398 10.15640539 12.51274498 0.00002698 0.00267969 0.00358192
N 1.17261113 13.04342331 10.49002429 0.00319030 0.00381038 0.00580781
N 0.14074201 15.67507102 14.99124314 -0.00010209 -0.00561614 0.00500055
N 3.27965262 11.02221800 16.95774787 0.00381978 -0.00294977 -0.00646882
N 1.99365739 17.98337715 12.00681055 -0.00514843 -0.00559479 -0.00076682
N 0.22638083 15.23434939 19.63944914 0.00641044 0.00738845 0.00441077
N 1.61511631 13.82181461 23.81451652 0.00663298 -0.00741412 -0.00238579
N 2.46469941 18.01565499 26.21731328 0.00263470 -0.00192983 -0.00309896
N 3.55499311 10.16404076 21.80583383 -0.00630434 0.00533959 -0.00840319
N 1.30039755 13.11640273 19.82940786 -0.00377949 -0.00214376 0.00337990
N 0.73176617 15.86047358 24.00902576 -0.00228570 0.00430901 0.00162272
N 3.43120965 10.94603679 25.80274883 0.00214000 -0.00193136 0.00503934
N 2.46811901 17.99494565 21.67601301 0.00777769 0.00086121 -0.00029098
N 0.73451414 24.42092425 1.36991565 0.00390944 0.00345277 0.00060513
N 1.49643884 22.90162496 5.88459978 0.00000035 0.00135575 0.00724067
N 1.63968110 28.47234567 8.29755990 0.00123156 -0.00306337 0.00362168
N 3.11474840 19.67412010 3.58587346 -0.00070140 -0.00209707 0.00046227
N 1.41060691 22.23647818 1.49099592 0.00199371 0.00398548 -0.00271118
N 0.65867893 25.00764632 6.23406816 -0.00577678 -0.00210785 -0.00427258
N 3.32767866 20.02091716 7.69684523 -0.00014936 0.00388054 -0.00394466
N 2.53453347 27.28462622 3.34476818 0.00012422 -0.00563206 -0.00413544
N 0.50621076 24.42752617 10.11362749 -0.00235874 0.00533324 0.00803602
N 1.61201349 23.11301995 14.57893410 0.00225570 0.00315889 -0.00491096
N 2.02948984 27.92425196 17.03474905 0.00446630 0.00391584 -0.00195814
N 3.27563738 19.79734811 12.57277140 0.00432659 -0.00393717 -0.00293772
N 1.52045499 22.38732192 10.74023363 -0.00504362 0.00338341 0.00349430
N 0.30689977 25.01686850 15.06953037 -0.00016545 -0.00273271 -0.00461659
N 3.45894964 20.29291798 16.90600165 -0.00354167 0.00234184 -0.00425987
N 2.59311459 27.38599916 12.23985721 -0.00480318 -0.00659961 -0.00092191
N 0.42706197 24.47357332 19.56529480 0.00320548 -0.00272579 0.00029006
N 1.73183974 22.91722951 24.07575581 -0.00043989 -0.00571634 0.00073554
N 1.95642081 27.79134939 26.38243471 -0.00703568 -0.00120253 0.00317474
N 3.90512794 19.72745321 21.71112413 -0.00294400 0.00656509 -0.00075161
N 1.66765774 22.51546123 19.73871167 -0.00183240 -0.00393269 -0.00100560
N 0.60955001 24.86059567 24.21278162 0.00180114 0.00155505 0.00327737
N 3.22220707 20.18462336 25.85776267 0.00887566 0.00088190 -0.00332425
N 2.15383608 27.37773393 21.11066627 0.00730565 -0.00255615 -0.00157154
N 4.14751117 5.24799316 1.37799293 -0.00252373 -0.00347256 -0.00438454
N 5.29339718 4.09811040 5.84033965 0.00235164 -0.00562661 -0.00939388
N 5.61633095 8.70763149 7.67826277 -0.00421345 -0.00302632 0.00159095
N 7.48505579 0.77930856 3.22844413 0.00124619 -0.00032577 0.00884912
N 5.44575695 3.40488022 1.58487837 0.00013229 0.00247612 0.00610887
N 3.95668349 5.99620410 5.77897990 0.00395314 -0.00296131 -0.00619456
N 7.07586507 1.11187942 7.82773984 -0.00497336 -0.00115142 -0.00021571
N 6.27684725 8.21751610 2.81413385 -0.00501489 -0.00101593 0.00303910
N 3.89008885 5.54700415 10.16544676 -0.00695120 -0.00428791 -0.00269859
N 4.98852110 4.13932859 14.78770075 -0.00139763 0.00618941 0.00314867
N 5.55434224 8.70846868 17.00001406 -0.00069055 -0.00158525 -0.00133763
N 7.46192192 0.21775559 12.28447004 0.00261124 0.00145698 -0.00245070
N 5.08636873 3.59340588 10.39024093 -0.00207427 -0.00308351 -0.00218375
N 3.71905746 6.09884875 15.04775875 0.00563039 -0.00012120 -0.00230085
N 7.28694708 1.46795153 16.72140863 -0.00161504 0.00248194 -0.00075225
N 5.82224629 7.98668086 12.05044397 0.00395557 0.00078802 -0.00029043
N 4.16507921 5.48023423 19.60784605 -0.00125799 -0.00900421 0.00351827
N 5.21690883 4.00745489 24.11541937 -0.00300630 -0.00312012 -0.00547429
N 5.59133628 8.98397530 26.07995551 -0.00068393 0.00459554 -0.00386056
N 7.28634398 0.78305239 21.45497078 0.00107500 0.00324157 0.00608860
N 5.62354021 3.62247053 19.80493925 0.00313278 -0.00641160 -0.00268324
N 4.06412838 5.97048978 24.43511001 -0.00417769 0.00126439 0.00238332
N 7.17275434 1.25282361 25.78725341 0.00383284 -0.00013396 -0.00454536
N 6.01437241 8.32124991 21.47343217 -0.00407480 -0.00309153 0.00445562
N 4.78440750 15.24739583 1.23680243 0.00166913 0.00538767 -0.00100107
N 5.17214738 13.46635213 5.70545105 -0.00360827 -0.00337985 -0.00864934
N 5.79030486 18.14572651 8.04882313 -0.00195009 -0.00491480 -0.00490388
N 7.32684414 10.26699539 3.17109477 0.00310629 0.00134236 0.00273860
N 5.61122080 13.00487665 1.23385641 -0.00041335 0.00297306 -0.00443549
N 3.77292582 15.34372847 6.01764242 -0.00740480 -0.00146631 -0.00541200
N 6.95800337 10.58075115 7.27087666 -0.00273126 0.00085760 -0.00158971
N 5.79702941 17.90074319 3.27692124 -0.00402743 0.00022596 -0.00298394
N 3.72863473 14.83571649 10.42144269 0.00199807 -0.00279829 -0.00373636
N 5.43150669 13.55740369 14.87390779 0.00191031 -0.00213418 0.00126555
N 6.22545084 18.30918137 16.99015884 -0.00084640 0.00021683 0.00396351
N 6.81985266 10.06554374 12.23103582 -0.00099855 -0.00252080 0.00352859
N 5.28151479 13.19693764 10.73607713 -0.00173010 -0.00244638 -0.00693863
N 4.05234627 15.41190944 15.23008273 0.00139505 -0.00073613 0.00186886
N 7.11958840 10.37257763 16.66393099 -0.00504111 0.00377510 -0.00385482
N 5.52100930 17.72998094 12.22018803 -0.00351064 -0.00588149 -0.00078186
N 3.88033333 14.94672554 19.27409290 -0.00017888 0.00362810 -0.00229946
N 5.26498650 13.56727104 24.00731893 0.00218012 -0.00158768 0.00144042
N 5.85247549 18.57241776 25.94530806 0.00014614 0.00185226 -0.00292879
N 7.36860174 10.20636909 21.50414294 0.00238927 0.00123235 -0.00481023
N 5.08131501 13.08214823 19.69061901 0.00065745 -0.00601171 -0.00522219
N 4.04190502 15.44961550 24.35180564 -0.00149028 -0.00050715 -0.00751405
N 7.17412620 10.67826562 25.98631458 0.00343053 0.00549744 0.00110940
N 6.21909398 17.83646082 21.27844111 0.00154075 0.00444109 -0.00029301
N 3.71543109 24.44041943 1.52459589 -0.00193683 0.00376660 0.00377110
N 5.34767087 22.94194882 5.66593946 -0.00446510 0.00844008 0.00324593
N 5.59148655 27.99435397 7.97986184 -0.00095752 0.00511657 0.00002927
N 7.12422588 19.65676109 3.74459707 0.00232101 0.00501758 -0.00338010
N 5.16997952 22.67405222 1.67192679 0.00378790 -0.00187401 -0.00480963
N 4.26163321 24.92112245 6.07496331 0.00080779 0.00155850 -0.00560469
N 6.84377926 20.08870622 7.85107722 -0.00004703 0.00495309 -0.00017364
N 5.90457227 27.64577514 3.15454695 0.00403901 -0.00642114 0.00211282
N 3.78470154 24.65618002 10.50120041 0.00406564 -0.00004042 -0.00317297
N 5.06873119 23.06074774 14.86131947 -0.00889169 0.00239720 -0.00156320
N 6.05435597 28.14931306 16.76014419 -0.00612947 0.00452383 0.00138239
N 6.99240291 19.57305575 12.42953079 -0.00038217 0.00348524 -0.00305795
N 4.99896514 22.73041372 10.74366106 -0.00200596 0.00191443 0.00270104
N 4.10790770 25.05928002 15.12828489 0.00342216 0.00016112 -0.00074147
N 7.28814090 20.35665884 16.94730387 0.00336334 -0.00706171 0.00193365
N 5.89116291 27.18838302 11.88330613 -0.00135886 0.00305640 0.00500783
N 3.98970358 24.52307523 19.63281509 0.00095738 0.00658967 -0.00160101
N 5.08567772 23.25164188 24.04980482 0.00580968 0.00002988 0.00522528
N 6.02228269 27.87423554 26.18821794 -0.00778455 0.00739590 0.00650276
N 7.12313728 19.94524356 21.65352725 -0.00122710 -0.00487190 0.00014300
N 5.42583006 22.75427098 19.86673140 0.00030440 0.00093630 -0.00071531
N 4.15242862 25.34484844 24.36018904 -0.00172495 -0.00047509 0.00790713
N 7.01135606 20.58799108 26.22084540 0.00173066 0.00382614 -0.00187700
N 5.88002344 27.48407350 21.36531207 -0.00198441 -0.00030676 -0.00291025
N 7.76157523 5.48708348 1.06948045 -0.00026313 0.00183127 0.00050980
N 9.05363651 4.06661666 5.45757931 -0.00006440 -0.00256828 0.00573138
N 9.34661480 9.20284580 7.92415458 0.00559751 -0.00047507 -0.00648497
N 11.49837430 0.94367111 4.21433126 -0.00304828 0.00056629 -0.00306195
N 9.08246223 3.67213765 1.36205076 0.00239970 0.00582905 -0.00452909
N 7.81874900 6.01478493 5.98976762 0.00039292 0.00090231 -0.00268680
N 10.92132014 1.67346325 7.88319332 -0.00196542 -0.00238720 0.00983048
N 9.73905118 8.41839848 3.02208658 -0.00400305 -0.00178963 0.00325500
N 7.83207357 5.65035282 10.07766397 0.00230138 -0.00524828 0.00017737
N 8.81695987 3.96197577 14.67078777 -0.00169218 0.00140206 0.00110592
N 9.72369499 8.94939834 16.86973368 -0.00433701 -0.00641697 0.00136180
N 11.02156245 0.50494580 12.37929185 -0.00486144 0.00603111 0.00226673
N 8.79396679 3.61390100 10.64868522 -0.00253981 -0.00599873 0.00618401
N 7.84025996 6.07153512 15.03040790 0.00135941 -0.00050560 0.00220612
N 10.82904029 1.07225812 16.52432783 0.00064618 0.00286294 -0.00430708
N 9.39759488 8.13896919 12.27641988 -0.00073474 0.00779455 0.00060270
N 7.88681633 5.69838300 19.22560078 -0.00475103 -0.00031392 -0.00671896
N 8.85317530 3.92310355 24.06641203 0.00305876 -0.00001535 0.00411541
N 9.53046621 8.77313153 26.18127881 -0.00649906 0.00134975 -0.00386173
N 10.32287651 0.57780728 22.04623478 -0.00420270 0.00509153 0.00358807
N 9.00012569 3.79739278 19.74213330 -0.00038480 -0.00761949 -0.00501701
N 7.60225424 5.88006660 24.27308428 -0.00065706 0.00262303 -0.00354224
N 10.77498015 0.83263441 25.93320958 0.00378016 0.00395673 0.00009530
N 9.53582486 8.28940476 21.25415344 0.00434944 0.00000049 -0.01238723
N 7.73283528 14.92238532 1.05340689 0.00414409 -0.00921304 -0.00059923
N 8.58466339 13.38784982 5.67588521 -0.00460595 -0.00197461 0.00169768
N 9.41967747 18.40405321 7.79795516 0.00473637 0.00469915 -0.00458236
N 10.85505010 10.44346021 3.31090717 -0.00148453 0.00197593 -0.00245425
N 8.96874002 13.00302649 1.35056327 0.00253853 0.00050096 -0.00091893
N 7.59692413 15.47697074 6.03978258 0.00041554 0.00153417 0.00429619
N 11.01427462 10.79419191 7.58165603 -0.00124088 0.00341545 0.00791230
N 9.61117989 17.90888346 2.96979840 -0.00761365 -0.00459708 0.00249501
N 7.64016212 15.23927101 10.21068886 0.00543276 0.00186100 0.00142773
N 8.99946281 13.71974389 14.40720021 0.00269783 -0.00468335 0.00312434
N 9.39465539 18.36110247 17.08514191 -0.00264668 -0.00056817 0.00062640
N 10.39364126 10.20050103 12.52445223 0.00083791 -0.00337941 -0.00052656
N 8.63708281 13.20671071 10.34100867 -0.00493898 -0.00267908 0.00955523
N 7.74855220 15.55108297 15.01982445 -0.00293760 0.00945037 0.00193144
N 10.89829285 10.97883307 16.84410327 -0.00009359 -0.00227377 0.00161483
N 9.52537899 18.11310820 11.91745553 0.00759691 0.00167471 -0.00281138
N 7.52750180 14.80786910 19.10835639 0.00042436 -0.00112901 0.00085867
N 8.99933013 13.67718409 23.80493253 -0.00020783 0.00249615 0.00502738
N 9.65352297 18.28587718 26.12838684 -0.00054344 -0.00092195 0.00236684
N 10.93276261 10.09320825 21.59234864 0.00430250 0.00045607 0.00339263
N 9.09551945 13.14481004 19.52315651 -0.00137033 -0.00248184 -0.00461184
N 7.68291351 15.52556177 24.20528619 -0.00768222 -0.00470893 0.00313317
N 10.76970405 10.69633758 25.79691343 0.00576758 -0.00541819 0.00258469
N 9.72348521 17.87307388 21.12940099 0.00248923 -0.00130076 0.00127690
N 7.60856083 24.46089464 1.24554607 0.00762849 0.00343262 0.00247448
N 9.06916543 23.24010239 5.50692483 -0.00185639 -0.00288635 -0.00088665
N 9.68317069 28.17457037 8.00066025 -0.00301072 0.00137058 0.00232800
N 10.57272962 19.96573656 3.42463542 -0.00457909 0.00197017 -0.00969787
N 8.91694790 22.49046619 1.41167003 -0.00013167 0.00043496 -0.00147214
N 7.95727835 25.22282915 5.73484975 0.00538027 0.00074111 -0.00614675
N 10.80819669 20.28895343 7.76630960 0.00367381 -0.00779202 -0.01247106
N 10.07767774 27.94779532 3.30426956 0.00398496 -0.00236834 0.00156224
N 7.39034064 24.61947489 9.65213039 -0.00521339 -0.00177585 -0.00467433
N 9.06474302 23.05418241 14.89939002 0.00104827 -0.00251815 -0.00102006
N 9.46594338 27.92609844 17.04747217 0.00175078 0.00441337 0.00363160
N 10.55588072 20.07071809 12.58416296 -0.00337805 0.00801845 0.00143345
N 8.47766580 22.75524699 10.40273738 0.00504751 0.00374277 0.00025854
N 7.98995980 25.01728464 15.23045576 -0.00058745 0.00839415 0.00282048
N 10.85747908 20.19923903 16.76084791 0.00000542 0.00182817 -0.00209939
N 9.74022962 27.05009285 12.33202982 0.00370430 -0.00405675 0.00066073
N 7.82260604 24.62741105 19.55880273 -0.00735661 -0.00415612 0.00079153
N 9.05415706 23.11481441 24.08860659 0.00083650 0.00338738 -0.00221054
N 9.91651176 27.49021790 26.71442903 0.00093053 0.00277194 0.00261929
N 10.93710314 19.76564166 21.70399187 0.00559823 -0.00495139 -0.00632212
N 8.85348256 22.62158899 19.68637531 -0.00596199 0.00933496 -0.00354715
N 7.69694024 24.89791623 24.46662851 -0.01062233 0.00545826 0.00228486
N 10.98935675 20.15012405 25.85454377 0.00459019 -0.00131270 -0.00088510
N 9.59598628 26.94257786 21.75262860 -0.00758544 -0.00262483 0.00238855
N 11.92028540 5.61798480 1.18806451 -0.00841403 -0.00177361 -0.00088122
N 12.79224343 4.11996052 5.49578180 0.00226899 0.00376254 -0.00646391
N 13.43827785 8.72313684 8.13138182 0.00533528 -0.00501013 0.00439663
N 15.04624287 0.64364508 3.40796193 -0.00047940 0.00416537 0.00718942
N 12.89717718 3.55467937 1.67634249 0.00555341 -0.00103633 0.00148244
N 11.64135305 6.04252845 5.93501031 -0.00379752 -0.00308537 -0.00232547
N 14.20426117 1.21823449 7.26978262 0.00453590 -0.00107258 -0.00217388
N 13.66321834 8.33179483 3.23733928 -0.00027864 0.00238896 -0.00021070
N 11.35286878 5.34983427 9.97469872 -0.00790842 0.00281063 0.00340614
N 12.63678616 3.77627769 14.55068525 -0.00051171 -0.00327933 -0.00204461
N 13.37364797 9.11437682 17.15871634 0.00020001 0.00529581 -0.00277413
N 14.79306650 0.67027075 12.79467093 -0.00326325 0.00647854 0.01001409
N 12.52701100 3.39621100 10.24183921 0.00590127 -0.00130152 0.00166629
N 11.45046207 5.69432975 15.01380156 -0.00009789 -0.00012072 -0.00049914
N 14.46393315 0.93026175 16.94701081 0.00513365 -0.00047468 0.00068621
N 13.17304583 8.28324429 12.32123118 -0.00321985 0.00212869 0.00284129
N 11.92530609 5.51249017 19.26189895 0.00286007 0.00198301 -0.00359039
N 12.46593502 3.91841237 24.21758621 0.00620510 -0.00379639 0.00608617
N 13.14635697 9.03116480 26.07257402 -0.00120546 0.00624103 -0.00372708
N 14.44835282 0.57324000 21.80136794 -0.00694213 -0.00516353 -0.00555076
N 12.62342078 3.32126993 19.59718314 -0.00355112 -0.00078108 -0.00316808
N 11.30409217 5.84629808 24.26373386 -0.00333170 0.00556911 0.00187179
N 14.24965471 1.21191098 26.06807568 0.00234885 0.00018070 -0.00148054
N 13.25683442 8.53464411 21.69425336 0.00493003 0.00342474 -0.00015150
N 11.71589490 14.91058701 1.10257358 -0.00479617 -0.00355760 0.00330353
N 12.78592677 13.68419399 5.86564365 -0.00207036 0.00231784 0.00378456
N 13.28612669 18.24213728 7.78242774 0.00245194 0.00613573 -0.00171923
N 14.53433714 10.31663754 3.69511229 -0.00134351 0.00016709 0.00759506
N 12.75212784 12.90376060 1.56745035 -0.00173911 0.00121157 -0.00771817
N 11.30545741 15.41650400 6.03348032 -0.00649900 -0.00198669 -0.00345250
N 14.82807078 10.67533097 8.15828676 0.00111211 -0.00339856 -0.00118999
N 13.48815001 17.60960982 3.10443202 0.00549778 -0.00251564 -0.00807931
N 11.28710392 14.86748396 10.34964464 -0.00147663 -0.00237685 0.00054262
N 12.53325957 13.81280550 14.89288964 0.00098699 -0.00402277 0.00391731
N 13.34628905 18.27607365 17.10514192 0.00244670 -0.00010436 0.00608006
N 14.49802699 10.15533297 12.35683631 -0.00303545 -0.00150106 -0.00084276
N 12.56934997 12.97694889 10.81737906 -0.00248767 -0.00018672 -0.00216434
N 11.36829545 15.71766117 15.21242537 0.00444920 0.00499231 -0.00048607
N 14.48331646 10.99113290 16.91909041 0.00039219 0.00112036 -0.00032811
N 13.05294268 17.93441584 12.30945561 0.00261316 -0.00694887 0.00262220
N 11.67631801 15.07122655 19.45626586 -0.00221837 -0.00263798 0.00795951
N 12.96289093 13.60042652 24.09288549 -0.00403384 0.00167924 0.00764375
N 13.43057542 18.32063552 26.32167000 -0.00004704 -0.00313371 0.00191148
N 14.69840633 10.35436879 21.88920136 -0.00232442 0.00642909 0.00329727
N 12.58605074 13.04145861 19.98505136 -0.00518608 -0.00197962 -0.00560728
N 11.74806759 15.51674964 24.53410140 0.00974202 0.00039585 -0.00043402
N 14.45828584 10.88926582 25.92062760 -0.00361636 0.00405875 0.00610269
N 13.30733935 17.96419811 21.39650717 0.00312049 0.00360943 -0.00184181
N 11.22663239 24.43651145 1.17154688 0.00507757 0.00154813 0.00201615
N 12.77340778 23.13121851 5.84860220 -0.00787495 0.00117434 0.00312382
N 13.49761593 27.63114708 7.91412150 0.00167812 0.00763020 -0.00008946
N 14.74676785 19.55815170 3.35326487 -0.00531726 0.00297004 0.00199617
N 12.81886214 22.87604294 1.88575436 0.00756450 0.00367977 -0.00325815
N 11.43391506 24.94624755 6.19524110 0.00036325 -0.00383740 0.00482327
N 14.40595947 20.30835258 7.87830629 0.00754654 -0.00151303 -0.00318894
N 13.58560270 27.47911434 3.16962870 -0.00254976 0.00256720 -0.00336947
N 11.02479594 24.38449622 10.28861025 -0.00092458 -0.00233285 0.00178140
N 12.56200391 22.95283633 14.92234308 0.00397240 0.00296723 -0.00233585
N 13.08991066 27.67264101 17.44316638 0.00723151 0.00185410 0.01062792
N 14.72665942 19.47239810 12.47959400 -0.00544762 0.00000328 -0.00322014
N 12.60041581 22.74584021 10.71032035 -0.00541279 0.00272967 0.00013958
N 11.43476737 24.87010970 15.15011290 -0.00280143 0.00087314 -0.00019883
N 14.65270097 20.13348247 16.83557140 0.00100119 0.00192097 0.00285921
N 13.67680723 27.24765273 12.40975065 0.00063302 -0.00471657 0.01374050
N 11.43239581 24.37700636 19.77012597 0.00034131 0.00122554 -0.00220848
N 13.02195552 22.92739422 24.32280194 0.00133837 0.00218653 0.00024135
N 13.18332850 27.75338702 26.21616577 -0.00200949 -0.00337335 0.00578099
N 14.64936445 19.73989769 21.60002778 0.00578557 -0.00139728 -0.00365970
N 12.81470104 22.55863118 20.01147962 -0.00095983 0.00159644 0.00134774
N 11.58181412 24.70368769 24.75297271 0.00031837 -0.00319844 -0.00232796
N 14.57612813 20.18198738 25.63826824 0.00335372 -0.00014841 0.00326178
N 13.60561445 27.06609672 21.61431650 -0.00648567 -0.00052721 0.00169714
N 15.43788056 5.32417592 1.13007648 0.00271297 0.00089855 -0.00192736
N 16.26232705 3.76375229 5.87721696 -0.00007276 -0.00060880 -0.00109327
N 17.12496993 8.76096265 8.33197422 -0.00271885 0.00097303 -0.00357346
N 18.36690584 0.87061509 3.60360493 0.00787028 0.00122907 -0.00084095
N 16.88509323 3.56280582 1.07126974 0.00297144 -0.00580097 -0.00236080
N 15.19034194 5.72764776 6.13990533 -0.01033388 0.00227277 -0.00131019
N 18.07456350 1.41780579 7.87522541 0.00125368 0.00218466 -0.00408929
N 17.12444431 8.30849724 3.00197457 0.00471352 -0.00229473 -0.00468279
N 14.90789578 5.46940214 10.27426634 0.00427666 -0.00517641 0.00006050
N 16.44268582 4.26113227 14.87449963 0.00374885 -0.00313553 -0.00360863
N 16.81050090 8.77349722 17.14855838 -0.00246355 -0.00402934 -0.00613735
N 18.27208346 0.64033949 12.75241228 -0.00025209 -0.00228014 -0.00241679
N 15.87049600 3.39773919 10.62571380 -0.00149758 -0.00886700 0.00686165
N 14.99258240 6.01227613 15.06141460 0.00104568 0.00428011 0.01190394
N 18.05179780 1.26075130 16.88644079 0.00622347 0.00530473 0.00090295
N 17.01703078 8.46345440 12.44630111 -0.00211133 0.00254264 0.00084093
N 14.90743590 5.41292095 19.57593959 0.00422965 0.00304040 0.00287175
N 16.40220978 3.93788983 24.03135724 -0.00662377 -0.00298573 -0.00155226
N 17.22248921 8.80292369 26.46287472 -0.00001411 -0.00049497 0.00327209
N 18.26983899 0.70135189 21.58774474 0.00227233 0.00304778 -0.00086630
N 16.30136722 3.50665175 20.01178734 0.00063852 0.00400154 0.00365117
N 15.03889296 5.76929236 24.06305797 -0.00338371 -0.00298362 0.00024329
N 18.04371928 1.30026284 25.97817133 0.00030198 0.00436913 0.00591741
N 17.11408396 8.25225346 21.39778196 0.00365645 0.00063929 -0.00237666
N 15.18734490 14.89844789 1.16122717 0.00159188 -0.00063290 0.00110366
N 16.17732824 13.28860038 5.59109712 -0.00430216 -0.00267677 -0.00369600
N 16.84106637 18.20078903 7.81926075 0.00365584 0.00412263 0.00167078
N 18.40753575 10.28554329 3.28558582 -0.00328627 0.00645996 -0.00463903
N 16.48205022 13.00964781 1.46436837 0.00419149 -0.00256726 -0.00208971
N 15.05969796 15.37160011 5.59748101 -0.00126069 -0.00189711 -0.00080314
N 18.20026487 10.65762386 7.79797671 -0.00943389 0.00106273 -0.00087424
N 17.09799954 17.77829974 2.89347830 -0.00347222 0.01152077 -0.00431914
N 14.94962129 15.02443575 10.39782688 -0.00101996 0.00022139 -0.00225029
N 16.23946416 13.72290414 15.10354109 -0.00421145 -0.00223051 0.00369355
N 16.99700597 18.38303237 17.19556314 -0.00365142 -0.00260967 -0.00666373
N 17.71838583 10.64288895 12.84483856 -0.00174126 -0.00600373 -0.00107796
N 16.35040701 13.20402971 10.75046738 0.00833552 -0.00369894 -0.00233991
N 14.81369329 15.50867366 15.21628523 0.00103570 0.00036114 -0.00032939
N 17.97182984 10.69130606 16.86905695 -0.00138071 0.00105480 -0.00415147
N 17.04874238 17.86376092 12.12218609 -0.00393383 -0.00108365 0.00120786
N 15.13951023 14.85699027 19.58568597 0.00376994 0.00539448 0.00325819
N 16.71217320 13.54207375 24.00105878 0.00537536 0.00030466 -0.00256044
N 17.18165511 18.28338341 26.39257848 0.00708527 0.00150226 0.00351992
N 17.76544662 10.48005183 21.89935509 0.00168806 -0.00086710 0.00443692
N 16.34942360 12.87531740 20.03176160 -0.00253764 0.00006848 0.00483522
N 15.47724968 15.50752110 24.35771186 0.00235849 -0.00612552 0.00047333
N 18.44520647 10.64478883 25.83910570 -0.00038257 -0.00090064 -0.00694689
N 17.06880444 17.98408082 21.40415004 0.00398611 -0.00262741 0.00166173
N 15.08456861 24.64163732 1.19528031 0.00032344 0.00158182 0.00189523
N 15.86783288 22.99038835 5.73254300 -0.00068700 -0.00195715 0.00025521
N 16.91176281 28.08524139 8.17502129 0.00584821 -0.00618250 0.00469218
N 18.49731130 19.58227387 3.39386877 0.00304783 0.00378013 -0.00244015
N 16.31808448 22.87508721 1.93249286 -0.01166446 -0.00183929 0.00214711
N 14.95339501 25.05739953 6.18077914 0.00437328 0.00195173 0.00305627
N 17.94926007 20.13403648 7.56270853 -0.00238739 0.00165220 0.00261526
N 17.60269894 27.30713404 3.04499712 0.00138883 -0.00329166 -0.00554790
N 15.03897621 24.54789674 10.61770534 0.00520700 -0.00300189 -0.01103959
N 16.41855770 23.06851661 15.05947443 0.00020528 0.00305570 -0.00101419
N 16.84355651 27.95511447 17.24151180 -0.00329047 0.00451972 0.00709839
N 18.34473515 19.72246085 12.56325831 0.00049342 0.00412473 0.00126640
N 16.24036500 22.65243814 10.77054886 -0.00625151 -0.00002727 0.00519604
N 15.00221845 24.91546987 15.36412832 -0.00021708 0.00082381 -0.00182219
N 18.17567571 20.22001342 16.63038202 0.00106328 0.00358234 -0.00134249
N 17.10544205 27.26310678 12.52229481 0.00593228 0.00223098 0.00348671
N 15.24491140 24.43145936 19.98725090 -0.00167249 -0.00611019 -0.00173943
N 16.25793316 22.85006379 24.05643752 0.00327811 -0.00089490 -0.00419927
N 17.45783916 27.64796079 26.41334975 -0.00395659 -0.00231865 0.00607660
N 18.55087350 19.73726213 21.65158515 -0.00160470 0.00264166 0.00705572
N 16.58660643 22.61325571 19.74722853 0.00825789 -0.00143275 -0.00145228
N 15.24045655 24.89252202 24.19472668 0.00225136 -0.00044779 0.00103074
N 18.17960309 20.30877833 25.90378925 0.00016386 -0.00089787 -0.00080766
N 17.09663475 27.24787423 21.29296998 0.00542289 0.00455393 -0.00320832
N 19.44082629 5.56762143 1.07385821 0.00234063 -0.00009563 -0.00272088
N 19.92594384 4.46111083 5.64909876 0.00104307 0.00132351 -0.00121952
N 20.47024136 8.93210585 7.77859951 0.00255221 -0.00561781 -0.00234697
N 0.08429059 0.56492267 3.16518452 0.00043326 0.00117483 0.00219147
N 20.36369686 3.47682259 1.20745231 -0.00239231 0.00745844 -0.00104129
N 18.42340988 6.07808737 6.17897301 0.00305093 0.00391703 0.00098249
N 21.40926672 1.29344978 7.43212047 0.00679527 0.00042223 0.00106735
N 20.87718262 8.26512903 3.13019923 -0.00090661 -0.00175951 0.00477491
N 18.65692173 5.63061965 10.25364528 0.00258115 -0.00199897 -0.00052429
N 19.87874852 4.00475574 14.76831553 -0.00471133 0.00058117 0.00040649
N 20.66946063 9.13519185 16.79363309 -0.00227300 0.00127030 -0.00326228
N 21.89310071 0.74803663 12.38393124 0.00302495 0.00034098 -0.00033925
N 19.57176151 3.50948257 10.71646902 0.00395497 0.00177897 -0.00111029
N 18.93613116 6.16256972 15.18803727 -0.00707340 0.00371128 -0.00006546
N 21.95136558 1.26299187 16.70131279 0.00572739 -0.00071693 0.00525766
N 20.66841279 8.76500719 12.25235689 0.00010708 0.00477334 -0.00123806
N 18.75315273 5.14230136 19.60478615 -0.00087079 0.00374043 0.00441513
N 20.09514253 3.97085305 23.94911724 -0.00205127 0.00930267 -0.00253779
N 21.15869586 8.94440336 26.08431294 0.00265690 -0.00615857 -0.00617431
N 22.02645976 0.81248498 21.65360792 0.00023353 0.00323214 0.00318369
N 20.27551791 3.41501499 19.90926465 0.01267972 -0.00848906 -0.00905118
N 18.76472779 5.82215791 24.35468457 -0.00464848 0.00061425 0.00082613
N 21.91836486 1.10125764 25.71795681 0.00438226 -0.00231244 0.00136971
N 20.84318651 8.26158881 21.57176723 -0.00244077 -0.00222067 -0.00185312
N 18.92668347 14.74546049 1.21832893 -0.00165867 -0.00610383 -0.00163864
N 20.14180777 13.39794744 5.60396399 -0.00122961 -0.00327138 0.00595074
N 20.10346048 18.38118646 7.88631363 0.01121071 0.00409351 0.00307908
N 0.01708598 10.06307026 3.03319804 -0.00799776 0.00113165 -0.00579800
N 20.48794124 13.00963388 1.44747601 -0.00006640 0.00547213 -0.00636854
N 18.91814372 15.32099500 5.87750124 -0.00056900 -0.00366248 0.00320990
N 21.87459899 10.77767375 7.49292546 0.00408704 -0.00879551 -0.00137383
N 20.80359374 17.43617075 3.27198341 0.00525671 0.00347478 0.00130051
N 18.67882333 15.06989378 9.90871936 -0.00002009 -0.00455305 -0.00122848
N 20.00717653 13.70550918 14.70430512 -0.00531101 0.00645757 -0.00155176
N 20.67385134 18.37362073 17.06693164 -0.00466619 -0.00194306 0.00300452
N 21.92080022 10.63252785 12.73812010 -0.00027112 -0.00388873 0.00136656
N 19.88305612 13.17178835 10.45787803 -0.00214190 0.00194895 -0.00584270
N 18.90128949 15.68113862 14.92532596 0.00249389 -0.00645849 0.00664741
N 21.81385976 11.09542079 16.88915088 0.00003261 0.00844838 -0.00398223
N 20.62928652 17.90710602 11.97040509 -0.00518656 -0.00396664 -0.00044552
N 18.97819739 15.05160777 18.92989141 -0.00798177 0.00439469 0.00103678
N 20.03579026 13.22040746 23.73112844 -0.00571155 -0.00409062 -0.00146199
N 21.08629196 18.16101796 26.31551007 0.00363454 0.00151728 -0.00669934
N 21.91202658 10.21672121 21.52026243 -0.00452954 0.00281159 -0.00455831
N 20.32707445 13.27115979 19.71004595 0.00782761 -0.00942430 0.00888463
N 19.22241912 15.42087875 24.07340353 0.00306800 0.00358372 -0.00074941
N 22.03417522 10.94855250 25.63519034 0.00515229 -0.00211158 -0.00218248
N 20.74549395 18.10347042 21.27798035 0.00323765 -0.00229377 -0.00408264
N 18.65659771 24.40255207 0.68559361 0.00472008 -0.00150751 -0.00335984
N 19.88329826 22.97642532 5.76749990 0.00098560 -0.00344485 0.00422374
N 20.55843780 27.85808367 8.16000406 0.00111341 -0.00303759 0.00263641
N 22.11268634 19.38736917 3.60269799 -0.00055671 0.00549461 0.00216863
N 20.18358629 22.92801200 1.68979106 -0.00403097 -0.00236217 -0.00468631
N 18.70231618 25.01144070 6.14227953 0.00087001 -0.00426157 0.00524421