1728
Time=4000.00000000 pbc="T T T" Lattice="21.82640782 0.00000000 0.00000000 0.00000000 28.85810097 0.00000000 0.00000000 0.00000000 27.38007013" energy=-10391.09775591 virial="26.25010147 -0.83524224 -0.29807304 -0.83524224 -27.18698448 -9.49436415 -0.29807304 -9.49436415 38.10724389" stress="0.00347566 -0.00004667 -0.00010071 -0.00004667 0.00105154 -0.00042462 -0.00010071 -0.00042462 0.00545106" Properties=species:S:1:pos:R:3:vel:R:3
N 0.19782143 5.35741855 1.29365593 0.00090245 0.00283420 -0.00257611
N 1.51515168 4.42247683 5.69817664 0.00325748 -0.00016880 0.00350614
N 1.93222961 9.16263727 7.88607672 -0.00509485 -0.00115791 0.00264543
N 3.44431435 0.45569326 3.33812829 0.00446196 -0.00088103 0.00508695
N 1.49886391 3.54149665 1.65712576 -0.00779563 -0.00225622 -0.00481442
N 0.32074864 6.32343935 6.09682230 0.00279484 -0.00888443 0.00261693
N 3.17628764 1.35917801 7.60982613 -0.00073212 -0.00262778 0.00066572
N 2.19442598 8.41355412 3.01048164 0.00026282 -0.00105352 -0.00091451
N 0.32613788 5.52895074 10.36668387 0.00309427 -0.00071172 -0.00176351
N 1.49623678 3.96081887 14.89631016 -0.00044717 -0.00567294 -0.00093829
N 1.89545504 8.89092718 17.16976847 0.00282504 0.00214481 -0.00239769
N 3.70056340 0.69116374 12.67787581 0.00016449 -0.00005171 -0.00192895
N 1.62809741 3.69099008 10.64642180 0.00221659 0.00184965 0.00116794
N 0.14452119 5.81902043 15.14238567 0.00402339 -0.00267561 -0.00227964
N 3.55497913 1.16981493 16.93190458 0.00292019 0.00771074 -0.00181235
N 2.16193192 8.31087161 12.20448305 -0.00094487 -0.00099868 -0.00223450
N 0.13296206 5.47574844 19.52352051 0.00591806 -0.00096352 -0.00396609
N 1.57919083 4.07588160 23.98849695 0.00374909 0.00043085 0.00423569
N 2.10846577 8.90262778 25.90197685 0.00361902 0.00224268 -0.00064779
N 3.50356764 0.97847285 21.65918148 0.00419205 -0.00224423 0.00452246
N 1.65317934 3.73326612 19.74931905 0.00520977 -0.00514695 -0.00040364
N 0.35987370 6.01386873 24.39302583 -0.00269336 0.00343276 -0.00560045
N 3.41755913 1.18959208 25.92859808 -0.00404296 -0.00040204 -0.00229155
N 2.01718308 8.36372657 21.36457291 -0.00484931 0.00401785 -0.00046894
N 21.82039411 14.96919336 1.49553364 -0.00025609 0.00321926 -0.00604774
N 1.54161752 13.64503585 5.91762998 0.00063273 -0.00510916 -0.00051412
N 2.17207271 18.69136069 7.96395021 -0.00845276 -0.00802306 -0.00289130
N 3.41646483 10.39693127 3.29266249 -0.00547816 -0.00272198 0.00888741
N 1.47194617 13.19221742 1.53018495 -0.00203455 0.00098147 0.00339463
N 0.44524435 15.64098333 6.06710299 0.00708337 0.00230941 0.00094694
N 3.40833015 10.87001667 7.70398431 -0.00493930 0.00445261 0.00181365
N 2.13875609 17.95137907 3.20389251 0.00249527 0.00400278 -0.00107850
N 0.20560524 14.98212563 10.35773803 -0.00072822 0.00172930 0.00055116
N 1.75613963 13.74968313 14.78001705 -0.00211762 -0.00328954 -0.00215612
N 2.25994220 18.51235416 17.17556368 -0.00307407 -0.00249393 0.00553031
N 3.42812439 10.17028206 12.50359097 0.00713973 -0.00207931 0.00360023
N 1.27393408 12.95701401 10.61182502 -0.00379419 -0.01163274 0.00122649
N 0.66397009 15.71282999 15.09871373 -0.00467236 0.00106706 -0.00137488
N 3.19080033 10.78142691 16.67807658 0.00069517 -0.00482217 0.00172488
N 2.13229466 18.02296165 12.26431130 0.00291298 -0.00206664 0.00404951
N 21.66618102 15.11704636 19.43133216 -0.00187630 0.00291339 -0.00079593
N 1.50546795 13.88516349 23.83785680 -0.00120105 0.00084610 0.00060552
N 2.19610253 18.54914733 26.38614702 -0.00354554 -0.00583291 0.00559647
N 3.29545818 10.25572577 21.56446165 0.00283620 0.00370408 0.00182411
N 1.20819688 13.20919395 19.49472372 0.00266028 0.00138505 0.00322302
N 0.53975420 15.84683718 24.37465782 0.00853925 -0.00340148 -0.00227499
N 3.43653618 10.76075833 25.67341479 0.00167968 -0.00907010 -0.00155437
N 2.38984537 17.84774463 21.46035534 -0.00244987 -0.00252206 0.00183993
N 0.10311143 24.55100166 1.24389791 0.00155812 0.00082841 -0.00237281
N 1.59335642 23.39523196 5.83449026 -0.00495264 0.00500251 0.00142203
N 1.83360547 28.42247115 7.79793124 0.00735595 0.00413492 0.00155682
N 3.42127471 19.84658572 3.61080054 0.00412521 0.00876172 0.00196407
N 1.40689754 22.63808120 1.65205273 0.00160432 -0.00366044 0.00210628
N 0.02219058 25.17114059 6.08506999 -0.00184303 0.00011581 0.00742511
N 3.46776577 20.58669971 7.78981742 0.00320360 0.00855896 0.00007922
N 2.27765908 27.32939259 3.14194650 -0.00114789 -0.00066455 -0.00251426
N 0.13773491 24.62683311 10.61678257 0.00072753 0.00104871 -0.00088123
N 1.51988097 23.60870777 15.19630724 -0.00031464 0.00546676 0.00336374
N 2.24918343 28.09682095 17.26641493 0.00176758 0.00017441 0.00325247
N 3.66314438 19.83011913 12.55155279 -0.00148386 -0.00206898 0.00021829
N 1.50906635 22.76725792 10.86973758 -0.00643922 -0.00249045 0.00360309
N 0.20949405 25.52949097 15.36938815 0.00162870 -0.00917325 -0.00084004
N 2.98470209 20.59066201 16.62235176 -0.00224389 -0.00293493 -0.00340307
N 2.18869811 27.85354143 12.36941030 -0.00486556 -0.00309192 0.00440395
N 0.31829164 24.90986104 19.64356701 -0.00031455 0.00397942 -0.00355122
N 1.73204947 23.53894567 24.31464095 0.00096272 0.00539401 -0.00182287
N 1.95193554 28.22599117 26.08027187 -0.00245793 -0.00096200 -0.00986538
N 2.97483334 20.13138717 21.63092183 -0.00213026 -0.00453963 -0.00012980
N 1.51073491 22.90423425 20.04538544 -0.00349688 -0.00156933 0.00428611
N 0.24683953 25.32863218 24.23425691 0.00249638 0.00527660 0.00086147
N 3.53744907 20.43165058 25.98590570 -0.00117249 -0.00332013 0.00199937
N 2.07494496 27.95599685 21.35879910 0.00579031 -0.00040731 0.00163892
N 3.99759157 5.55142291 1.02718643 0.00313899 0.00662240 0.00240904
N 5.27207936 4.36869053 5.77802208 0.00255764 0.00344137 0.00025537
N 5.56528161 9.01501831 8.06497653 -0.00338310 0.00334432 0.00723952
N 6.90732515 0.40734523 3.35811404 -0.00240553 -0.00570352 -0.00073797
N 5.07342023 3.50588029 1.49295426 0.00213668 0.00725646 0.00250468
N 3.93322537 6.13680090 6.21912299 -0.00174779 -0.00337611 -0.00221499
N 7.00365588 1.31177737 7.55659439 0.00361649 -0.00565030 0.00097749
N 6.01578411 8.29842380 2.98850260 0.00287990 0.00280570 0.00424922
N 4.05107666 5.35626339 10.29180391 -0.00108007 -0.00025330 -0.00118188
N 5.28995506 4.35456039 15.01080129 0.00166301 0.00504170 0.00662624
N 6.10494222 8.56180521 17.43767660 0.00021128 -0.00511562 0.00301160
N 6.93739987 0.51808949 12.58532105 -0.00170971 0.00326754 0.00138343
N 5.55496987 3.59795450 10.67724335 0.00238047 -0.00132624 0.00285410
N 3.74901695 6.06741528 15.31616891 0.00070365 0.00364924 -0.00076549
N 6.99510678 1.26101327 16.85099539 -0.00142449 0.00055261 0.00592538
N 5.83648466 8.31061715 12.22048786 -0.00139859 -0.00201607 -0.00052189
N 4.00674215 5.59810559 19.47935624 -0.00212060 -0.00056886 -0.00733662
N 5.28135078 4.28506858 23.96729495 0.00155189 0.00072431 0.00077660
N 5.80497595 8.89671220 26.19608163 -0.00062290 -0.00174789 0.00244678
N 7.37285925 0.61715072 21.78723101 -0.00445033 -0.00274936 0.00719384
N 5.31589563 3.86977197 19.93618603 0.00076070 -0.00052875 0.00741988
N 3.75746205 5.99375865 24.40167985 0.00065917 0.00256814 -0.00113238
N 6.66651689 1.25330976 25.74549922 -0.00092072 0.00292091 0.00173543
N 6.02000376 8.30080599 21.43957469 0.00098834 -0.00725178 -0.00399015
N 3.80569675 15.07716280 1.13987776 -0.00362433 -0.00604097 -0.00694488
N 5.45585423 13.72511792 5.59179228 0.00137325 0.00187328 0.00363956
N 5.87542385 18.53389129 7.99791468 0.00417804 -0.00132425 0.00364423
N 7.08813716 10.28398810 3.44861414 0.00165897 0.00422160 0.00235150
N 5.05388470 13.21678089 1.40225677 0.00388411 -0.00356557 -0.00102187
N 4.13512073 15.50224585 5.99407820 0.00308682 -0.00130787 -0.00077540
N 7.09542767 10.64316057 7.63659752 0.00646826 -0.00352392 -0.00595213
N 5.91488562 18.09537156 3.11971230 0.00354396 -0.00600560 -0.00088585
N 3.64321278 14.99857050 10.28695318 0.00380490 -0.00466694 -0.00035483
N 5.22291720 13.78697058 14.86737095 -0.00102472 0.00073599 0.00479898
N 5.25296375 18.57179593 16.80492598 -0.00503826 0.00169929 -0.00055407
N 6.94832608 10.31641094 12.50402497 0.00948116 -0.00096060 -0.00021470
N 5.09726731 13.14245468 10.64764348 0.00108971 -0.00337292 0.00166934
N 4.05260791 15.72882982 15.13981788 0.00010353 -0.00332569 -0.00298005
N 6.99488225 10.60872988 16.77398903 -0.00259654 -0.00807288 -0.00000900
N 5.86585842 18.04559681 12.41969476 -0.00083804 -0.00075158 0.00654282
N 3.81274138 15.08545574 19.58028376 0.00047021 0.00319726 -0.00573544
N 5.32924664 13.81978089 24.11350201 -0.00062669 0.00246028 0.00383139
N 5.77953615 18.51909108 26.23172556 0.00048516 0.00106039 -0.00109381
N 6.90232166 10.38020772 21.98787577 0.00017598 0.00198872 -0.00761644
N 4.99020721 13.11744461 19.70938165 0.00428318 -0.00390386 0.00767826
N 3.94365414 15.66003909 24.41797938 0.00123842 0.00210106 -0.00105404
N 7.04946730 10.87602215 25.94733765 0.00075549 -0.00655119 0.00068301
N 5.49887749 18.36380909 21.18498770 -0.00197658 0.00434827 -0.00014434
N 4.04523520 24.51123349 1.25605650 -0.00122104 -0.00009412 -0.00617270
N 4.97638418 23.47894772 5.79122338 -0.00317493 -0.00308835 -0.00068684
N 5.41438586 28.50687964 7.98724168 0.00162153 -0.00138206 -0.00683871
N 7.09286750 20.04547208 3.35729866 -0.00164332 0.00065437 0.00226970
N 5.08194681 22.48850839 1.59155452 0.00579750 -0.00523697 0.00173819
N 3.88327975 25.50251216 6.11318250 0.00175048 -0.00023482 -0.00052743
N 6.61802271 20.73443416 7.87555332 0.00036887 -0.00537206 -0.00338115
N 5.93066651 27.30754416 3.13605528 -0.00072566 -0.00009109 0.00177786
N 3.80622902 24.77327303 10.23596575 -0.00049524 0.00294701 -0.00444528
N 5.18565992 23.35254042 14.67177534 0.00338171 0.00172440 -0.00357547
N 6.04630881 28.01927100 17.23936639 0.00071055 0.00168667 0.00000926
N 6.73547808 20.12296214 12.75882454 0.00093174 0.00126553 0.00078593
N 5.12485570 22.92712061 10.66660188 0.00066040 -0.00333653 0.00994582
N 3.97221449 25.32324020 15.11844458 0.00008431 -0.00084451 -0.00465053
N 6.75293129 20.40823278 16.55077366 -0.00122242 -0.00446625 -0.00104807
N 5.74070519 27.44629187 12.25655054 0.00174715 0.00478853 0.00367806
N 3.91865150 24.68415567 19.62770197 -0.00070960 0.00122631 -0.00287163
N 4.87211213 23.40229365 23.99985015 0.00334790 0.00037179 0.00539284
N 5.76707667 28.01924568 25.99716942 0.00037597 -0.00856581 -0.00077439
N 7.12661964 19.94435599 21.61791679 -0.00029957 0.00338977 0.00241305
N 5.24269299 22.71466612 19.74305860 -0.00407195 -0.00198843 0.00032284
N 4.08354243 25.51747542 23.93443441 0.00023194 -0.00405598 -0.00494634
N 7.15116152 20.37828336 25.73818689 0.00376745 0.01014195 0.00970984
N 5.88194525 27.79904272 21.16792988 -0.00087968 0.00321831 -0.00062477
N 7.44962017 5.43622912 1.02274713 0.00164270 -0.00352900 -0.00127730
N 8.80155590 4.20674586 5.42338418 0.00142687 -0.00360839 0.00036171
N 9.40338813 8.64679737 7.92136726 -0.00215857 0.00109447 0.00284295
N 10.85668061 0.68015296 3.24570625 0.00318261 0.00652523 0.00255070
N 8.73508078 3.51700181 1.28944730 0.00119778 -0.00060178 0.00179667
N 7.51807013 6.10403030 5.95525117 -0.00020697 0.00229712 -0.00123316
N 10.71131888 1.26301056 7.64192731 -0.00217250 -0.00038807 -0.00074553
N 9.44091050 8.44305976 3.01621048 0.00436942 0.00102040 0.00147514
N 7.68119978 5.49058480 10.24152910 -0.00098949 0.00235849 -0.00282181
N 8.78636524 4.08264796 14.79939251 -0.00269666 0.00008670 0.00396182
N 9.25781626 8.98333736 17.09968818 -0.00465616 0.00383810 -0.00423804
N 10.54497593 0.53308802 12.31145414 -0.00083737 0.00151039 0.00732660
N 8.98273889 3.62217823 10.67118361 0.00247396 -0.00520503 0.00183990
N 7.67888270 6.08673604 15.22563065 -0.00309917 0.00231752 -0.00094396
N 10.35924618 1.28849481 16.87404772 0.00161687 -0.00744381 0.00014161
N 9.31324476 8.38197270 12.44241330 0.00563064 0.00696468 -0.00480738
N 7.42334565 5.88085070 19.34660067 -0.00385374 0.00141435 0.00304146
N 8.88470246 4.01517875 23.92944190 0.00064918 0.00158582 -0.00359859
N 9.56660410 8.98927496 26.18051592 0.00178484 0.00494674 -0.00251942
N 10.70308875 0.63206935 21.54751869 0.00233968 0.00128809 0.00376934
N 8.57953386 3.93847639 19.66619243 -0.00127509 0.00248131 -0.00375159
N 7.64476495 6.01558567 24.19958332 -0.00357874 -0.00794249 0.00403339
N 10.65905023 1.20191473 25.84028286 -0.00204246 0.00098348 0.00060074
N 9.29752774 8.51727325 21.33958347 0.00625262 0.00417379 -0.00418557
N 7.40328380 15.13002243 0.91986900 -0.00255979 -0.00093257 0.00003019
N 9.09571870 13.64972808 5.70713885 0.00032997 0.00639565 0.00120664
N 9.41185069 18.59428079 7.87905159 -0.00491126 0.00193756 -0.00156895
N 10.89994795 10.21911973 3.43870286 -0.00206504 -0.00548282 0.00218044
N 8.55692947 13.18560396 1.39205769 -0.00145109 -0.00835247 -0.01066566
N 7.78760949 15.61413424 5.87944220 -0.00320720 -0.00151929 0.00333181
N 10.57393828 10.67977689 7.67182861 0.00292881 0.00333218 0.00381993
N 9.00344269 17.86178205 3.10237079 -0.00257146 0.00066595 -0.00380899
N 7.54914320 15.18715206 10.26312341 0.00266607 -0.00001511 0.00126766
N 8.91891065 13.88068402 14.78133560 0.00474819 0.00720900 -0.00316920
N 9.06759842 18.58762672 17.01076909 0.00447139 -0.00161140 -0.00203119
N 10.68365878 10.19694488 12.56760341 -0.00629823 0.00296141 -0.00222643
N 8.69991176 13.19195608 10.25485265 0.00217130 -0.00232042 0.00149698
N 7.45731063 15.69869019 15.09937161 0.00240613 0.00174147 -0.00244545
N 10.62777806 10.90541023 16.69681239 0.00204954 0.00702816 -0.00125105
N 9.54386378 17.86369958 12.49675323 -0.00522383 -0.00129890 0.00041933
N 7.46173369 15.04597324 19.11236308 -0.00206517 0.00375107 0.00291913
N 8.66290198 13.79082237 23.91232106 0.00131123 -0.00217845 0.00614153
N 9.58553620 18.40754037 26.25742301 0.00110135 -0.00128496 0.00181638
N 10.72258237 10.32019148 21.70670814 0.00280547 -0.00272587 -0.00204679
N 8.56373945 13.11680097 19.63754615 0.00282063 -0.00181762 -0.00065758
N 7.49747769 15.71822673 24.17259541 0.00513094 0.00506265 0.00583724
N 10.48821224 11.03817414 25.95008221 -0.00252390 0.00470396 0.00050169
N 9.34618540 17.82465104 21.27464609 -0.00249241 -0.00382716 0.00480824
N 7.42882351 24.45186901 1.07177050 0.00105717 0.00317962 0.00013502
N 8.61018973 23.52033653 5.77099773 -0.00389908 -0.00058567 -0.00164204
N 9.41690168 28.20053447 7.72388467 0.00315510 0.00376741 -0.00167324
N 10.60680653 19.52866487 3.21772232 0.00028062 -0.00180076 -0.00371532
N 8.95503935 22.67393768 1.39976195 -0.00203870 0.00055551 0.00043025
N 7.29381537 25.41933937 5.93620422 0.00498349 -0.00174124 -0.00181051
N 10.51111270 20.67515739 7.60561682 0.00241363 -0.00499615 -0.00278068
N 9.34003429 27.68899228 2.87340025 -0.00403681 -0.00779099 0.00274155
N 7.42240869 24.67002877 10.35425709 0.00115293 -0.00139635 0.00030928
N 8.84910194 23.25238011 14.94699048 -0.00662196 0.00594384 0.00120500
N 9.31310263 28.13898087 16.99650112 -0.00175331 -0.00644224 -0.00517514
N 10.72833075 19.89170720 12.41664789 0.00031656 0.00071663 0.00231591
N 8.64289792 22.67510765 10.58494389 -0.00525349 0.00316818 -0.00579490
N 7.54840067 25.08464267 15.27684289 0.00368130 -0.00218697 -0.00603425
N 10.44813318 20.36569767 16.52743579 -0.00689442 -0.00640190 -0.00766655
N 9.21201811 27.46292021 11.93274393 -0.00126742 0.00184523 -0.00253794
N 7.40620398 24.52285745 19.52785521 0.00648499 0.00314684 0.00526102
N 9.01363368 23.38863396 23.87498003 0.00434936 -0.00168535 -0.00597248
N 9.31912114 28.16828258 26.11537936 -0.00974988 -0.00345083 0.00232924
N 10.76439538 19.64080804 21.53369041 -0.00584373 -0.00404587 0.00441691
N 8.98059611 22.75588929 19.75225312 0.00121326 -0.00673005 -0.00140041
N 7.85217579 25.35313896 24.21473755 -0.00201521 -0.00036778 -0.00300294
N 10.69738851 20.45044645 25.95806116 -0.00027588 -0.00164652 0.00301600
N 9.47995095 27.55514845 21.17664568 -0.00008324 -0.00457117 -0.00083977
N 11.10961414 5.34255043 1.04847971 -0.00340753 -0.00220084 -0.00076511
N 12.33858697 4.23613059 5.71117140 0.00474713 -0.00634227 0.00320687
N 12.94605756 8.96800819 7.71931937 -0.00131323 0.00234279 -0.00170892
N 14.57884556 0.57622798 3.38721187 0.00163983 0.00027986 0.00056581
N 12.51682082 3.64417264 1.43078432 -0.00170064 0.00508067 -0.00204312
N 11.08489112 6.12888738 5.94874570 0.00131503 -0.00172091 0.00051360
N 14.27475973 1.31133970 7.71441729 0.00024019 0.00596922 -0.00155929
N 13.04555848 8.29610001 2.91182151 -0.00120155 0.00203896 0.00406817
N 11.21123956 5.51492792 10.41876788 -0.00799161 0.00146883 -0.00306388
N 12.43531142 4.02054569 14.95980461 0.00601590 -0.00209875 0.00082718
N 12.89889048 9.00884598 17.02287423 0.00337664 0.00097107 0.00618709
N 14.16182006 0.61430904 12.54684897 -0.00132249 0.00033253 -0.00328781
N 12.14282463 3.42464456 10.59560893 0.00245485 -0.00725980 -0.00234318
N 11.16237619 5.92033068 15.13233933 -0.00156039 0.00123681 -0.00063929
N 14.00551850 1.14389219 16.97129583 0.00196292 0.00077877 0.00575112
N 13.03304358 8.44859653 12.18538018 -0.00072025 -0.00062081 0.00503941
N 11.20821872 5.46111540 19.22383698 0.00274062 -0.00182240 -0.00397261
N 12.64573631 4.17987597 23.82478045 0.00038548 -0.00111701 -0.00143312
N 12.85025453 9.10669403 25.85136736 0.00252078 0.00244720 -0.00672371
N 14.11492301 0.87132541 21.79000156 0.00062579 0.00255223 0.00003551
N 12.25122559 3.50454652 19.79243387 -0.00176451 -0.00118044 -0.00203511
N 11.41371467 6.01981426 24.14504721 0.00203388 0.00379843 0.00163364
N 14.33337856 1.21614910 25.75012403 -0.00175154 0.00350403 -0.00147542
N 12.94496235 8.51818674 21.21021278 -0.00415585 -0.00076211 0.00804523
N 11.13515161 15.14229908 1.00371612 -0.00000150 -0.00844647 -0.00305523
N 12.59768632 13.97291269 5.89478932 -0.00302584 0.00317482 0.00296615
N 13.32137444 18.61208531 7.87521196 0.00272022 -0.00397486 -0.00214291
N 14.35429237 10.17827564 3.19654760 -0.00371607 -0.00382960 0.00535597
N 12.44911917 13.26341996 1.63990936 -0.00589987 -0.00095396 -0.00477298
N 11.25497818 15.87298233 5.99062187 -0.00199016 -0.00173430 0.00283384
N 14.11135401 10.85973995 7.29355432 -0.00127313 -0.00183167 0.00045105
N 12.97094415 17.90746695 2.99299367 0.00230072 -0.00176253 0.00208406
N 11.03204629 15.14812371 10.29614426 -0.00543494 -0.00172676 0.00303703
N 12.63560320 13.84041189 14.76203099 0.00479129 0.00452191 -0.00540789
N 13.34395919 18.41291996 17.18114486 -0.00274399 0.00113077 -0.00505465
N 14.16093945 10.38365853 12.44648282 -0.00156308 -0.00325549 -0.00114158
N 12.15826404 13.10649401 10.45279414 -0.00025747 0.00083026 -0.00535670
N 11.20227502 15.71015847 15.06722333 0.00414703 -0.00135191 0.00452964
N 14.28446961 10.72461650 16.41035000 0.00156998 -0.00021797 0.00325132
N 13.17378077 17.98574847 12.34504855 0.00015744 0.00070115 -0.00106082
N 10.98731237 14.95280188 19.42461085 0.00128400 0.00382146 0.00295114
N 12.65132795 13.69535687 23.91365453 -0.00083040 -0.00106637 -0.00201811
N 13.06293666 18.45224857 26.21505676 -0.00174302 0.00245515 -0.00341698
N 14.41627374 10.27945590 21.49170642 0.00133998 -0.00454239 -0.00283668
N 12.12908452 12.92033047 19.69347588 0.00251731 0.00109606 0.00146618
N 11.29430547 15.56866178 23.95422182 0.00302289 -0.00344562 -0.00769804
N 14.47317620 10.83895914 25.67875103 0.00739011 0.00038664 0.00134271
N 13.01975283 17.83978628 21.45771566 -0.00131459 -0.00731920 -0.00105870
N 11.03367767 24.57186555 0.97582153 -0.00087420 0.00835762 0.00212731
N 12.33872339 23.38543925 5.62953002 0.00214175 0.00044551 -0.00065520
N 13.05539878 28.16361917 7.73320928 0.00349538 0.00594588 0.00271309
N 14.02339482 19.97517364 3.28073251 0.00421956 -0.00470568 0.00154962
N 12.34403508 22.75876612 1.46789947 -0.00555867 0.00096527 -0.00084538
N 11.11679447 25.25275640 5.89747446 0.00313686 -0.00115302 0.00088471
N 14.43185427 20.50141334 7.61843288 -0.00221507 0.00544121 0.00295533
N 13.15052304 27.58926455 3.02217849 0.00174636 -0.00155393 -0.00532862
N 10.99694644 24.57874511 10.23463278 0.00111299 -0.00707397 -0.00338693
N 12.35543501 23.33857527 14.67673950 0.00006399 0.00255441 0.00671041
N 12.50931121 28.23982075 17.07819219 0.00234064 0.00372308 0.00435225
N 14.02614989 20.13617015 12.48814858 -0.00094442 0.00030899 0.00225480
N 12.43114060 22.75502215 10.41234765 0.00131993 0.00223112 -0.00102591
N 11.26759694 25.31480392 15.10620679 -0.00090416 0.00014955 0.00520223
N 14.13797260 20.50469120 16.46848057 0.00161614 -0.00546251 0.00352649
N 12.88460100 27.58518961 12.19113621 0.00385366 -0.00373679 0.00221155
N 11.11845608 24.64258292 19.31872887 0.00133986 -0.00106478 -0.00548215
N 12.55973279 23.22291564 24.02862545 0.00159810 -0.00265792 0.00432090
N 13.06910095 28.26756809 26.35167505 -0.00828069 -0.00104006 -0.00114027
N 14.51319341 19.60989686 21.41667972 0.00206669 0.00566459 0.00440001
N 12.57741087 22.93012902 19.76672475 0.00132634 0.00465889 -0.00241166
N 11.47730429 25.24773247 24.23724318 -0.00307062 0.00376165 -0.00498450
N 14.27072497 20.37496086 25.73914688 -0.00118858 0.00075262 -0.00063610
N 13.13774153 27.70970397 21.64756604 -0.00365406 -0.00429071 -0.00138068
N 14.90677585 5.50386482 1.38003587 0.00239327 -0.00320007 -0.00190342
N 16.08755667 4.00341671 5.83953465 -0.00154013 0.00008826 -0.00202569
N 16.59669027 8.99612294 7.90274671 -0.00475057 -0.00131525 0.00178228
N 17.99672849 0.64755987 3.37613142 0.00239669 0.00182585 0.00684238
N 16.14193258 3.55596851 1.62355436 0.00443126 0.00136640 -0.00072236
N 14.78671030 5.94435572 6.11793705 -0.00051434 0.00466646 -0.00750730
N 17.72775227 1.13092679 7.52664403 0.00218895 -0.00058103 -0.00367118
N 16.89753756 8.47195321 3.09241825 0.00568667 0.00425827 0.00384650
N 14.72941044 5.46052508 10.21850648 0.00224280 -0.00232467 -0.00708582
N 16.01290934 3.94095319 14.88077396 0.00518693 -0.00032069 -0.00206645
N 16.78561438 8.93609751 16.81850484 -0.00066775 -0.00246017 0.00555378
N 17.89777928 0.88696921 12.45595998 0.00534190 0.00233650 0.00100456
N 15.83807248 3.43249046 10.75980051 -0.00023486 0.00337887 -0.00000698
N 15.00724201 6.08711114 15.13631984 -0.00010731 0.00163759 -0.01066535
N 17.73672880 1.21783049 16.68456269 -0.00257112 -0.00369370 -0.00036295
N 16.61500787 8.53880401 12.22861478 -0.00290013 0.00035652 -0.00027040
N 14.64823878 5.51146728 19.50818919 -0.00087979 -0.00269409 0.00694764
N 16.28597790 4.07072256 23.98418199 0.00170353 0.00206236 0.00129747
N 16.68547422 8.94434305 26.24383446 -0.00061208 -0.00027662 0.00071953
N 17.75126916 0.64884962 21.57132355 0.00435798 0.00310215 -0.00174208
N 15.94821007 3.61442711 19.58746556 -0.00017142 0.00040321 -0.00321855
N 15.29933425 6.04533523 24.33984346 0.00430768 -0.00344301 -0.00107143
N 17.88831118 1.30896244 26.02182971 0.00217203 0.00641747 0.00354549
N 16.77202905 8.18747890 21.42442746 -0.00637209 -0.00237603 -0.00419488
N 14.86789823 15.10594230 1.01241164 -0.00135925 -0.00104455 -0.00995065
N 16.47491519 13.85471147 5.86453069 -0.00191063 0.00356073 -0.00041694
N 16.74069874 18.73478431 8.05645377 0.00614549 0.00342727 -0.00111729
N 18.11930765 10.49414207 3.45165208 0.00163360 -0.00119329 0.00828234
N 16.07427460 13.18934719 1.39927484 -0.00606910 0.00208892 0.00152895
N 15.04039322 15.81533890 6.36903167 -0.00075103 0.00032385 -0.00100613
N 17.80555373 10.88773684 7.79558658 -0.00206814 -0.00561650 0.00043721
N 16.61328514 17.93593587 3.35541628 0.00315044 0.00033242 0.00417597
N 15.06132844 15.35893570 10.16115359 0.00098682 0.00508195 -0.00063617
N 16.03970561 13.58518998 14.70437554 0.00041722 -0.00163987 -0.00281566
N 16.51661368 18.65438257 17.08205626 0.00324667 0.00104900 -0.00055827
N 17.83867485 10.40914032 12.46436787 0.00077850 -0.00088521 -0.00445864
N 15.97651558 13.22339632 10.36466868 -0.00405971 0.00231312 0.00182894
N 14.97915107 15.65864530 15.13519048 0.00180243 -0.00198548 -0.00433066
N 17.96987060 10.88434053 16.53811800 0.00166448 -0.00220565 0.00060967
N 16.86839682 18.08009475 12.41852718 -0.00025249 0.00284640 0.00414430
N 14.74016959 14.94917270 19.29326993 -0.00211059 -0.00290780 -0.00063166
N 16.37186804 13.86197205 23.84402718 0.00235773 -0.00784304 -0.00245734
N 16.52879727 18.44753053 26.21155886 0.00005992 -0.00355396 0.00568795
N 17.83335973 10.25202092 21.54119561 -0.00249826 0.00286559 -0.00071938
N 16.04555288 13.06100899 19.54560668 -0.00133670 0.00503288 0.00398899
N 15.02349092 15.66266159 24.07658563 0.00311911 -0.00270411 0.00073140
N 17.75363359 10.95411035 26.11098690 0.00328668 0.00414503 -0.00210255
N 16.89216000 17.70856997 21.26507420 0.00333665 0.00044916 -0.00017620
N 14.88619938 24.52074050 1.22581881 -0.00521189 0.00417860 0.00462781
N 16.01591834 23.19744004 5.95573798 0.00086601 -0.00042430 -0.00236388
N 16.40928541 28.10545890 7.68955671 -0.00286383 0.00040481 -0.00943018
N 17.89427662 19.85914321 3.35182896 -0.00114980 -0.00550450 0.00421542
N 16.09277044 22.53190659 1.31286119 0.00625216 -0.00164768 -0.00504030
N 14.63677096 25.03555109 6.11496226 -0.00044410 0.00760777 -0.00480949
N 18.14190682 20.57200313 7.85242360 0.00682472 -0.00062211 -0.00274678
N 16.83134587 27.56280559 3.05401334 -0.00402468 -0.00318737 0.00008219
N 15.05712593 25.10884846 10.20978731 -0.00213019 0.00192763 -0.00354934
N 16.12603266 23.59316529 14.96597641 -0.00297064 0.00420362 -0.00135530
N 16.48697819 28.21523394 17.02389887 -0.00318804 -0.00365646 0.00667281
N 17.96908144 20.05779732 12.74140611 -0.00173754 -0.00303685 -0.00493936
N 16.09828408 23.11925137 10.57264789 -0.00057189 -0.00274368 -0.00398738
N 14.68658075 25.43664872 15.00318738 -0.00416947 -0.00952074 0.00977897
N 17.72616734 20.63970337 16.97497496 -0.00578960 0.00445817 -0.00225312
N 16.69525575 27.80724236 12.08416510 -0.00315481 -0.00014472 0.00194155
N 14.72948798 25.04911901 19.35238448 0.00272644 0.00074304 0.00465018
N 16.22611025 23.38997464 24.13924395 0.00547536 -0.00205060 0.00190264
N 16.75394681 28.13873629 26.40134384 -0.00040160 -0.00035415 0.00522432
N 18.02392016 19.65949874 21.60397587 0.00301420 0.00758728 0.00036719
N 15.68842522 23.04653411 19.79537204 -0.00502903 0.00097294 -0.00440663
N 14.87168553 25.19423795 24.55340566 -0.00066542 0.00283473 0.00066954
N 17.82918235 20.23165925 25.66520127 0.00470085 0.00215620 -0.00359162
N 16.83328401 27.34615074 21.47634236 -0.00004209 -0.00360290 -0.00458939
N 18.44886465 5.41112689 1.29927460 -0.00120265 0.00930768 -0.00326559
N 19.71802164 4.45245476 6.06820695 0.00143558 -0.00801614 0.00370369
N 20.07471119 8.97794807 8.10851945 0.00287257 -0.00034347 -0.00797382
N 21.80343600 0.76623607 3.80319255 -0.00355541 0.00366837 -0.00739978
N 19.74673014 3.52596498 1.51407163 0.00185144 -0.00638631 -0.00478773
N 18.17055657 6.14811967 6.20147429 -0.00132441 0.00098181 -0.00226970
N 21.28546572 1.39440871 7.89710005 0.00037659 0.00388651 0.00564552
N 20.48206966 8.25404399 3.23798756 -0.00483569 0.00225172 -0.00134356
N 18.13412356 5.45455521 10.40748806 -0.00380877 -0.00672089 -0.00310990
N 19.83468277 3.84272901 14.77265806 -0.00285284 0.00255810 -0.00217388
N 20.16136253 8.83742665 16.82906441 0.00113264 0.00556715 -0.00171617
N 21.57048492 0.78354152 12.61751668 0.00089789 0.00266253 0.00523020
N 19.63625986 3.71067098 10.37162242 0.00530199 0.00300780 -0.00096854
N 18.57932786 5.81753566 15.09280132 0.00287474 -0.00085957 -0.00429137
N 21.46039352 1.17490137 16.87223436 0.00603185 -0.00014266 -0.00038544
N 20.28751333 8.22945754 12.15828977 0.00149270 -0.00383178 -0.00021740
N 18.24024253 5.42052170 19.24645875 0.00217465 -0.00008480 0.00639033
N 19.82450486 3.98201638 24.05325215 -0.00451802 -0.00298772 0.00092018
N 20.36694392 8.90926500 26.29881045 0.00349680 0.00203500 0.00051253
N 21.36834105 0.90890380 21.78683954 -0.00023845 0.00451095 -0.00473597
N 19.52000211 3.46342987 19.66618354 -0.00044905 -0.00194844 -0.00605791
N 18.70452507 5.92277615 24.35883813 0.00065591 -0.00101625 0.00270474
N 21.70283487 1.44458389 26.15871940 0.00614455 -0.00096333 -0.00045214
N 20.01066036 8.27095265 21.38548547 -0.00381318 -0.00333367 0.00144715
N 18.68551651 15.30505406 1.39982218 -0.00204797 0.00138701 -0.00282459
N 19.64046693 13.70785470 5.77676887 0.00050951 -0.00457434 -0.00858566
N 20.56085257 18.52978489 8.29548543 0.00204425 0.00471718 -0.00640261
N 21.59467122 10.30178325 3.35997852 0.00110701 -0.00375143 0.00089254
N 19.63196319 13.22732430 1.65990436 -0.00041948 -0.00072629 0.00889178
N 18.87137265 15.81582704 6.16273038 -0.00545390 0.00078868 0.00438439
N 21.48589046 10.74834018 7.62384442 -0.00327614 -0.00246796 0.00564339
N 20.22149470 18.15547320 3.50804757 -0.00303050 0.00491149 0.00500259
N 18.45400283 15.11138007 10.32426723 -0.00149310 -0.00124046 -0.00043636
N 20.00378579 13.67028229 14.67466501 -0.00028102 0.00593949 0.00343168
N 20.18393636 18.64377266 17.40341076 0.00164819 -0.00053995 0.00474820
N 21.56092965 10.14373565 12.49741705 -0.00122992 -0.00319350 0.00229061
N 19.60684801 13.16378577 10.80505404 0.00004073 -0.00187931 -0.00060958
N 18.51752489 15.40504003 15.20402704 0.00523781 -0.00663186 -0.00748198
N 21.48960224 10.78421442 16.57185889 0.00326602 0.00118682 -0.00233740
N 20.44801742 18.01894602 12.47743267 -0.00097124 -0.00652027 -0.00415130
N 18.43245008 14.96599629 19.39758039 0.00351408 0.00034637 -0.00095369
N 20.04570154 14.19977579 24.21859920 0.00695659 -0.00596083 0.00041133
N 20.35667389 18.71790110 26.50602242 -0.00143098 -0.00346912 0.00045488
N 21.45920840 10.17615451 21.41930116 -0.00406813 -0.00519640 0.00103022
N 19.48304101 12.91346381 19.83496789 -0.00407989 -0.00614596 0.00042314
N 18.49374495 15.86778076 24.36969483 -0.00434454 -0.00132943 0.00701595
N 21.63378416 10.77305877 25.83166726 0.00213889 0.00267200 0.00236744
N 20.50334631 17.90801294 21.40626372 0.00091092 -0.00281157 0.00345834
N 18.53156590 24.72447667 1.11048776 0.00084591 0.00113248 -0.00036559
N 19.59473330 23.22491730 5.55379696 -0.00269813 0.00335553 0.00514203
N 20.09751658 28.31714817 7.97843846 0.00150621 0.00279820 0.00905486
N 21.44714380 20.12489296 3.75577821 -0.00443769 0.00249730 -0.00386283
N 19.63622572 22.63842930 1.28385695 -0.00042639 0.00117846 -0.00186414
N 18.26665351 25.14783966 6.06879783 -0.00291659 -0.00006953 0.00159083