1728
Time=60000.00000005 pbc="T T T" Lattice="22.27525795 0.00000000 0.00000000 0.00000000 28.91623457 0.00000000 0.00000000 0.00000000 27.33335486" energy=-10387.41145611 virial="-21.43687953 12.90248681 9.98946035 12.90248681 -36.55116095 27.99800333 9.98946035 27.99800333 -61.12282382" stress="0.00106559 0.00072176 0.00058456 0.00072176 0.00033778 0.00154068 0.00058456 0.00154068 -0.00067614" Properties=species:S:1:pos:R:3:vel:R:3
N 0.29896420 5.14952413 1.12955175 -0.00671215 -0.00024482 -0.00738497
N 1.76569801 3.87958949 5.57943214 -0.00468054 -0.00044984 -0.00142830
N 2.28418006 8.33542166 7.89281706 -0.00003316 -0.00609028 0.00116914
N 3.23407726 0.71100668 3.97087672 -0.00228943 0.00095482 0.00270768
N 1.65383062 3.27458430 1.27756560 -0.00478503 -0.00545992 0.00640159
N 0.58576121 5.87950146 5.74124440 0.00088829 -0.00044031 -0.00542276
N 3.42416801 1.00792999 7.85946782 0.00945798 -0.00114317 -0.00070386
N 2.36412001 8.33606938 2.83478908 0.00053566 -0.01028183 0.00003831
N 0.11022563 5.29348010 10.04087817 -0.00137558 0.00195764 -0.00633494
N 1.55025915 4.23139533 14.66370375 -0.00051035 0.00365707 0.00233685
N 2.30711351 8.81498177 17.08960274 0.00332767 0.00167086 -0.00284018
N 3.48457936 0.47483323 12.30395160 -0.00643709 0.00097698 -0.00294477
N 1.16082727 3.27728297 10.48422146 -0.00118931 -0.00351755 0.00914418
N 0.28852238 6.07361393 14.91373930 0.00243313 0.00086703 -0.00673549
N 3.40498528 1.48135317 17.03662160 -0.00143780 -0.00272642 -0.00379847
N 2.21749027 8.38966734 12.29809397 -0.00522116 -0.01117035 -0.00214605
N 0.13449855 5.42860187 19.21249803 0.00638823 -0.00528372 -0.00453963
N 1.84470601 4.03825679 23.60532782 0.00405846 -0.00048935 0.00037350
N 2.09479480 9.11325194 26.05747761 0.00080447 -0.00255303 0.00426115
N 3.71947683 0.59120325 22.07389052 0.00480482 0.00457675 0.00402737
N 1.49770731 3.59578059 19.64124640 -0.00262640 -0.00471927 -0.00140544
N 0.58006690 5.83036056 24.40568091 -0.00120162 0.00801543 -0.00022518
N 3.33200453 0.94575072 25.92943727 0.00439172 -0.00513301 0.00526984
N 2.29938158 8.34291177 21.40171994 -0.00312516 0.00508964 -0.00226157
N 0.10807743 15.21453325 1.42205987 -0.00172024 -0.00514201 0.00050529
N 1.78418951 13.75294926 6.02944862 0.00122243 -0.00533682 0.00991090
N 2.06032451 18.74823237 8.02019789 -0.00075942 -0.00148674 0.00298334
N 3.16796946 10.31088011 3.43999192 0.00125455 -0.00244232 0.00209815
N 1.37554853 13.31346643 1.62505541 -0.00634743 0.00019606 0.00612145
N 0.36605743 15.65334428 6.36648412 0.00518905 0.00251543 0.00408298
N 3.08002124 10.47003532 7.66019681 -0.00000464 0.00279301 0.00083001
N 2.10124414 18.05070939 3.30686471 0.00020563 0.00249660 0.00105582
N 22.26502202 15.39102474 10.43830508 -0.00206466 -0.00254305 -0.00278868
N 1.52533704 13.53501923 14.74011208 0.00163667 -0.00007167 -0.00259002
N 2.12785449 18.40149319 17.15621419 0.00054756 -0.00605267 -0.00075648
N 3.41248258 10.39805251 12.40328940 0.00459183 0.00239876 -0.00487699
N 0.85627142 13.13028757 10.75760770 -0.00262114 -0.00159791 0.00311580
N 0.46048839 15.44210450 15.22288033 0.00200677 -0.00601061 -0.00174375
N 3.55031683 10.69686152 16.57369241 -0.00413624 -0.00236043 0.00399571
N 2.26501805 17.84821922 11.95093248 -0.00080569 0.00578396 0.00834429
N 0.22594799 15.08779701 19.44061170 -0.00018782 -0.00468141 0.00322846
N 1.48126533 13.76637747 23.94013767 0.00477862 -0.00062501 0.00229560
N 2.17956062 18.69847185 26.19067272 0.00014380 0.00338878 -0.00672315
N 3.26436736 10.40806693 21.68636679 -0.00027396 0.00338155 0.00354187
N 1.53579492 13.20359105 19.77510986 -0.00645422 -0.00231704 -0.00281798
N 0.13195246 15.58813016 24.50881090 -0.00089169 0.00298548 -0.00070872
N 3.36246413 11.00741309 25.88128270 -0.00102164 0.00410764 -0.00259125
N 2.06118316 17.93281527 21.22384035 -0.00824983 -0.00635489 0.00470015
N 0.27594250 24.73379860 1.17696797 0.00060700 0.00254725 -0.00952276
N 1.87342040 23.53023863 5.79998767 -0.00304387 -0.00410910 -0.00332078
N 2.72204577 27.75264465 8.26406447 0.00140070 0.00108921 0.00618684
N 3.44014279 20.02828104 3.45848937 0.00048514 -0.00350900 0.00281314
N 1.61567717 22.90659927 1.24020950 -0.00638337 0.00162195 -0.00743105
N 0.45838221 25.30998794 6.11867958 -0.00010335 0.00466980 0.00378310
N 3.42528446 20.61697136 7.77943163 -0.00411241 -0.00046868 -0.00205193
N 1.96940705 27.86583069 3.13970385 -0.00059176 -0.00611718 -0.00007744
N 0.62288526 24.89141215 10.33833708 0.00172123 -0.00406504 -0.00624060
N 1.23602259 23.32905259 15.00498687 0.01121544 -0.00277686 0.00678922
N 2.05902950 28.49322618 16.99938827 -0.00129738 -0.00214529 -0.00420811
N 3.36680306 19.62576163 12.82963867 0.00537520 -0.01013467 -0.00073173
N 1.16536093 22.77663644 10.90794415 0.00224106 -0.00007951 0.00131776
N 0.32421518 25.41076335 15.18792995 0.00500834 0.00672018 0.00274784
N 3.31262010 20.42739990 17.00276403 -0.00181795 0.00339601 0.00300024
N 2.33840820 27.33651966 12.30009361 0.00113602 0.00677088 -0.00206220
N 0.02465491 24.95739308 19.52486405 -0.00096593 0.00762826 0.00182100
N 1.27582290 23.25335744 23.82763527 0.00144170 0.00059026 0.00661561
N 1.92923488 28.09044316 26.37006752 -0.00129248 -0.00026257 -0.00676892
N 3.58623084 19.68117644 21.21650817 -0.00027744 0.00463404 0.01330568
N 1.25789087 22.87943210 19.84591913 -0.00225891 -0.00351238 0.00932429
N 0.16759595 25.25085681 24.15387170 0.00601477 -0.00319168 0.00068540
N 3.13221233 20.75365420 25.81952069 -0.00751706 -0.00702987 0.00137357
N 2.21162169 27.79810565 21.51208889 0.00501795 0.00414523 -0.00101655
N 4.35147221 5.78989596 0.89015730 -0.00322991 -0.00170972 0.00273805
N 5.61285845 4.05046170 5.83153125 -0.00204755 0.00436716 0.00044218
N 5.98693002 8.87022849 8.14087282 -0.00535661 -0.00036338 -0.00531900
N 6.87034856 0.52786773 3.24231009 -0.00242549 0.00119943 -0.00008669
N 5.19106410 3.72168869 1.56284371 -0.00414927 0.00544835 0.00553132
N 4.60011624 6.09651375 6.12093210 -0.00055078 -0.00218643 0.00144498
N 7.13687596 1.03360988 7.43200251 0.00484558 0.00361505 -0.00067714
N 6.09028250 8.50923477 3.46750156 -0.00209858 0.00218968 0.00053531
N 3.44367832 5.27165764 10.41006169 -0.00263002 0.00412121 0.00921485
N 5.45276539 4.31966152 15.07431851 0.00342800 -0.00809381 0.00291652
N 6.03225964 8.84810475 17.10889482 0.00051078 0.00442896 0.00185258
N 7.50496688 0.55033382 12.44378191 0.00138619 0.00167433 -0.00169506
N 5.12317290 3.69473456 10.65733504 -0.00480219 0.00153110 -0.00565133
N 4.02465655 6.08190228 15.48494530 0.00250341 -0.00462710 0.00980692
N 7.22650925 1.07164884 16.98630008 0.00481637 0.00470409 0.00064216
N 5.90170566 8.28788367 12.06338143 -0.00208663 -0.00276817 0.00111242
N 3.99498318 5.42500823 19.68121526 -0.00368073 -0.00169056 -0.00343251
N 5.59221109 4.19504715 24.01393775 0.00336368 -0.00498298 -0.00172726
N 5.71399555 9.10698575 26.33806790 0.00100046 0.00409105 -0.00472608
N 7.37843636 0.70246435 21.91682557 0.00513413 0.00437805 0.00189051
N 5.28322481 3.55281104 20.03468411 0.00309399 -0.00516274 -0.00003653
N 4.25637534 5.97150683 24.34692336 -0.00449970 0.00294128 0.00291121
N 7.16384252 1.11928833 26.00087445 -0.00028917 -0.00741006 0.00431304
N 5.89280842 8.71722660 21.64147970 -0.00406095 0.00454664 0.00506120
N 3.81491992 15.12220578 0.97250531 -0.00071528 -0.00304773 0.00204788
N 5.27055539 13.65155498 5.40266178 -0.00197294 0.00023730 -0.00381531
N 5.60624565 18.50087549 8.06507428 0.00434244 -0.00002949 -0.00052923
N 7.32490546 10.36317300 3.88274243 -0.00089498 0.00955827 0.00192643
N 4.71922826 13.04404022 1.29898667 0.00303565 -0.00057826 0.00331847
N 4.08056547 15.53714990 6.07560459 0.00274711 0.00537749 -0.00525761
N 7.00603498 10.82732000 7.60508676 0.00401967 0.00045233 0.00039024
N 5.80379610 18.20457366 3.22197339 -0.00653403 -0.00192564 -0.00841010
N 3.66693611 15.16019125 9.89654459 0.00609840 0.00231844 0.00542900
N 5.34563052 13.81488419 14.67601139 -0.00127834 0.00360936 -0.00194298
N 5.73582149 18.49133865 16.93985342 0.00178249 0.00705257 0.00154257
N 6.80857201 10.34299728 12.62937843 -0.00595811 -0.00467571 -0.00596785
N 5.06122810 13.45628868 10.54748093 0.00291263 -0.00369832 -0.00032939
N 3.80666228 15.61740081 14.87910924 0.00531783 -0.00321280 -0.00323827
N 6.69767757 11.00723514 16.72793835 -0.00034985 -0.00577720 -0.00493765
N 5.78016394 18.00771729 12.32013052 0.00008423 -0.00538335 0.00247723
N 3.69911996 15.09560808 19.19742432 0.00143517 0.00266912 -0.00108877
N 5.27904176 13.66377149 24.01511822 0.00185322 0.00278726 0.00362274
N 5.49237068 18.59490752 26.15011547 -0.00212414 -0.00130774 0.00374316
N 7.00358877 10.70915587 21.89325263 0.00476061 -0.00382045 0.00211675
N 4.85206608 13.05469277 19.81031168 0.00104614 0.00228624 -0.00219184
N 4.01282603 15.64738851 24.16478131 0.00652053 0.00315851 0.00092299
N 7.04846858 10.92180052 26.03966205 -0.00101496 -0.00717213 -0.00345778
N 6.04690419 18.04529784 21.50231096 0.00118608 0.00218791 -0.00849081
N 4.00554129 24.69113766 1.26267977 -0.00016341 0.00032822 0.00610334
N 5.55134455 23.33420333 5.93628060 -0.00180913 0.00345928 0.00438205
N 5.75871922 28.04848358 7.58646394 -0.00275870 0.00541128 -0.00369426
N 7.52010710 19.74329678 3.12594855 0.00368032 0.00298332 -0.00442145
N 5.33888292 22.78887405 1.68893190 -0.00614215 -0.00266633 -0.00119875
N 4.38057430 25.20931550 6.17195349 -0.01010940 0.00491489 -0.00151165
N 7.25358801 20.18230027 7.91745709 0.00454558 0.00273061 0.00013345
N 6.23931060 27.29215283 3.12788788 0.00172894 -0.00075470 -0.00056774
N 4.07011863 24.47575566 10.43985160 -0.00300028 -0.00239810 -0.00133708
N 5.25281683 23.60722497 15.00437659 0.00110937 -0.00001247 0.00371837
N 5.61073001 28.33569875 17.10676232 -0.00437118 0.00479480 -0.00056361
N 7.27144954 19.84395395 12.83656189 -0.00091863 -0.00092776 0.00083097
N 5.17939859 22.51171598 10.90933686 -0.00301110 -0.00334481 0.00212801
N 3.85551529 25.42041536 15.36758710 0.00011852 0.00553683 0.00604834
N 6.95689341 20.45587311 16.62998218 0.00780004 -0.00631895 -0.00074437
N 5.98661884 27.89539584 11.88551975 -0.00979388 0.00201960 0.00843772
N 3.93311103 24.83471486 19.60417896 0.00379373 0.00075507 0.00079465
N 5.22293785 23.23187478 23.95748364 -0.00387757 -0.00509277 0.00403736
N 5.97498056 28.05489194 26.11117610 0.01076175 -0.00867224 0.00625857
N 7.16171355 20.10660056 21.51875846 0.00175322 -0.00366719 -0.00253295
N 5.15305090 22.82769008 19.96355238 -0.00169931 0.00471258 0.00052019
N 4.02394896 25.26176873 24.24424623 0.00174528 -0.00252519 0.00238319
N 6.70501306 20.51774706 26.00230666 -0.00447913 0.00066042 0.00280855
N 6.34524877 27.64213510 21.32928511 -0.00873592 -0.00264479 0.00645675
N 7.89874942 5.46872596 1.14338671 0.00128281 0.00136376 -0.00758513
N 9.39415595 3.92024294 5.22094076 0.00161098 -0.00159338 0.00016620
N 9.47912897 9.08436019 7.63234584 0.01070229 0.00422795 0.00253273
N 11.17034755 0.70663061 3.03132530 -0.00242858 0.00159538 -0.00225800
N 8.92099792 3.41175891 1.56333044 -0.00120256 -0.00346434 0.00019231
N 8.22963776 5.78527351 5.97137390 -0.00118225 0.00104349 0.00395234
N 11.19375137 1.35540719 7.64506756 0.00321279 0.00396076 0.00097848
N 9.62895928 8.57230408 2.83901593 0.00524876 0.00007127 -0.00044662
N 7.52951563 5.28908106 10.23303341 -0.00259176 -0.00069098 0.00368040
N 8.66418437 3.99922057 14.93008785 -0.00385269 0.00305129 -0.00593320
N 9.63891674 8.99268125 17.26434614 0.00023895 -0.00171927 -0.00330981
N 10.73300588 0.74952756 12.12513652 -0.00120891 0.00131106 0.00356418
N 8.79682768 3.40817730 10.49051068 0.00440959 0.00020731 -0.00042791
N 7.69945887 6.06848191 15.20476287 0.00108488 0.00208333 -0.00272224
N 11.03973440 0.94757879 16.51954620 -0.00517815 -0.01076147 0.00083807
N 9.72575493 8.25691230 11.88364343 -0.00331664 -0.00273204 -0.00094944
N 7.37927857 5.39166094 19.54486277 -0.00442993 -0.00060856 -0.00967088
N 8.99556892 4.40539304 24.25654294 0.00675093 0.00116782 0.00584657
N 9.43485135 9.47336098 26.07458632 0.00081925 -0.00019481 0.00339048
N 10.67846096 0.44055058 21.50312069 0.00350805 0.00033639 0.00291505
N 8.87980171 3.55777571 19.88771506 0.00061666 -0.00554453 -0.00308605
N 7.82433242 6.46487013 24.36418770 0.00049269 -0.00402256 0.00396722
N 10.96818376 1.31392439 25.71844743 0.00011544 0.00165655 0.01000708
N 9.19830080 8.49883700 21.19714351 -0.00229250 0.00441390 0.00219684
N 7.58294731 15.30831572 1.39504812 0.00440439 -0.00293526 -0.00123486
N 9.04028899 13.78623922 5.63968128 -0.00624970 -0.00258487 0.00919728
N 9.55977797 18.40022616 7.84913673 -0.00585846 -0.00277557 0.00710249
N 10.72876584 10.65639825 2.95571509 -0.00097283 -0.00258583 -0.00045827
N 8.37658290 13.16608618 1.65570856 -0.00191384 0.01015178 0.00100303
N 7.96542051 15.83973000 5.93642019 0.00897341 -0.00604789 0.00100503
N 10.91800553 10.90269600 7.23909072 -0.00168845 0.00122098 0.00164323
N 9.86943224 17.95336960 3.14491701 0.00179954 -0.00162001 -0.00035930
N 7.73680417 15.23895163 10.44520821 0.00127736 0.00205611 0.00467975
N 8.76747107 13.32835761 14.48421377 0.00308791 -0.00014257 -0.00006363
N 9.56680201 18.53063840 17.13355948 0.00474563 -0.00309187 0.00411440
N 10.69737337 10.20345882 12.30069067 0.00205490 0.00793202 -0.00319397
N 8.77241051 13.22129767 10.38500882 -0.00213133 0.00430901 -0.00307963
N 7.81485580 15.41804122 14.97294564 -0.00140688 -0.00575783 0.00388373
N 10.37127236 10.95205012 16.30792328 -0.00245353 -0.00029166 -0.00012219
N 9.49569341 18.07374521 11.99523621 -0.00234183 0.00772019 0.00177963
N 7.46875684 14.99218524 19.37229791 -0.00612966 0.00208376 -0.00815409
N 8.82533864 13.96140035 24.28930119 0.00514481 0.00190071 -0.00090052
N 9.68957304 18.56088052 26.22200326 -0.00159094 0.00576650 -0.00384325
N 10.83059279 10.20651533 21.58181404 0.00707124 0.00114929 -0.00605403
N 8.55263159 13.09184300 20.13722158 -0.00047600 0.00470273 0.00361815
N 7.61629532 15.85909916 24.55462389 -0.00275095 -0.00589599 -0.00283917
N 10.98304607 11.23258462 25.61017393 -0.00079592 0.00012079 -0.00097417
N 9.46310392 18.26557353 21.25939504 -0.00187471 0.00565658 -0.00032314
N 7.78951761 24.68786935 1.16404486 0.00154344 0.00314722 -0.00403961
N 8.79636994 23.17425797 5.67080767 0.00229557 0.00415908 -0.00538359
N 10.00430106 28.39883086 7.79696196 -0.00593726 -0.01135815 0.00455502
N 10.74691608 20.15910635 3.49445437 -0.00630802 -0.00123038 -0.00177721
N 9.05590618 22.80416377 1.32464097 0.00142681 0.00219345 0.00781537
N 8.07680150 25.40272282 5.91972264 -0.00026082 0.00146467 0.00462507
N 10.48012195 20.36837657 7.37595680 0.00656847 0.00362445 0.00038526
N 9.79659639 27.81822696 2.90712821 -0.00527642 -0.00707649 0.00284643
N 7.38820863 24.62203120 10.35309762 0.00443905 0.00056737 -0.00028612
N 8.95223293 23.70250720 14.88082638 0.00319393 0.00106306 -0.00172918
N 9.52665392 28.10070007 16.86419041 -0.00178846 -0.00048293 -0.00020638
N 10.96164030 19.80560015 12.52887818 -0.00379951 -0.00387565 -0.00408251
N 9.02500989 23.04239445 10.16754024 -0.00561883 -0.00247701 0.00532995
N 7.57348998 25.62848737 14.87483137 -0.00305214 -0.00234116 0.00120501
N 10.14500899 20.77309756 16.80560331 0.01119676 -0.00688639 0.00123475
N 9.86905309 27.44213171 11.87938297 -0.00046024 -0.00467539 0.00191661
N 7.66359412 24.70929782 19.23783972 0.00003032 0.00542877 -0.00327052
N 9.01869736 23.13327757 23.76722237 -0.00056348 -0.00288525 -0.00045363
N 9.65533525 28.20013896 25.97230501 -0.00404466 -0.00078966 -0.00693795
N 11.16114007 19.95973920 21.39265448 0.00118453 0.00545901 0.00325492
N 9.02448953 22.86745157 19.59451661 -0.00178076 0.00448811 -0.00153541
N 7.80178416 25.08184235 24.10532790 -0.00242873 0.00088309 0.00041394
N 10.80909411 20.52649593 25.81938660 -0.00156649 0.00400627 0.00517655
N 9.58111643 27.39970648 20.84974689 0.00484324 0.00178981 0.00204427
N 11.32310365 5.36085689 1.34169420 0.00260021 -0.00020841 -0.00138795
N 13.13401447 4.18324386 5.52276394 -0.00260354 -0.00140850 -0.00678081
N 13.32045300 9.21789358 7.91188233 0.00270862 -0.00656770 -0.00205673
N 15.12134731 0.24383921 3.05580747 0.00636645 0.00172028 0.00505153
N 12.75648255 3.55216564 1.44487657 -0.00297574 -0.00259373 -0.00704105
N 11.98670280 6.15808409 6.15071278 -0.00513660 0.00247299 -0.00031121
N 14.64076987 1.29700060 7.59293860 -0.00651601 0.00476826 -0.00621550
N 13.12123109 8.14553601 2.87621005 0.00341454 -0.00127614 -0.00016831
N 11.21044917 5.42197840 10.15855065 0.00317129 -0.00453483 -0.00035157
N 12.66825796 4.57007435 14.62751914 0.00105135 -0.00851958 0.00034450
N 12.98148207 9.26937138 17.00310750 0.00685359 -0.00189071 -0.00637824
N 14.58325835 0.96073652 12.48531948 0.00365690 -0.00684976 0.00117837
N 12.44710369 3.61909454 10.65203472 -0.00143011 -0.00259037 -0.00018231
N 11.21363155 6.30820211 14.99457270 -0.00037546 0.00101248 -0.00270225
N 14.41120703 1.37879135 16.66742541 -0.00529187 -0.00485120 -0.00881305
N 13.22128973 8.49824056 12.22665598 0.00176176 -0.00171816 0.00257430
N 11.33003730 5.39251706 19.33893912 0.00932150 0.00134697 -0.00236814
N 12.70362433 4.46015782 24.23166603 -0.00479999 0.00178724 0.00307786
N 13.05847272 9.19759587 25.92181636 -0.00162145 0.00174888 -0.00308785
N 14.68026087 0.52322699 21.55724940 0.00294127 -0.00325142 0.00429594
N 12.43307435 3.30381560 19.52141184 -0.00146059 0.00331685 0.00064444
N 11.27974595 6.26321486 24.20218645 -0.00000178 0.00619177 -0.00457299
N 14.54656988 1.30204203 25.87410607 0.00011187 0.00415545 -0.00261838
N 13.14821384 8.44518334 21.33730754 0.00306784 -0.00319515 -0.00067002
N 11.80399537 15.31640115 1.05462111 0.00630473 -0.00129853 0.00348955
N 12.76909875 13.65441046 5.43934252 -0.00045159 0.00609047 -0.00230374
N 13.20600512 18.47169089 7.74059494 0.00385568 -0.00249005 -0.00238971
N 14.59409003 9.86632418 3.27114368 0.00113717 -0.00165304 -0.00137668
N 12.77940134 13.18420048 1.18361066 -0.00221023 -0.00372313 0.00420785
N 11.49852517 15.62102953 5.76565487 0.00301051 -0.00085744 0.00122923
N 14.37749556 11.14187691 7.45824734 0.00115782 -0.00240468 0.00229659
N 13.64541993 18.01372794 2.89480058 0.00374015 0.00105746 -0.00347744
N 11.37711450 14.92005306 10.35916603 -0.00106441 0.00063741 0.00109575
N 12.64661188 13.98486527 15.28166900 -0.00784617 0.00319691 -0.00185610
N 12.79553670 18.58058857 17.39904413 0.00046147 0.00528410 0.00350283
N 14.76200536 10.26053221 12.54257807 -0.00478255 -0.00209119 0.00331392
N 12.56948552 12.93369798 10.39106008 -0.00405861 -0.00414313 -0.00138930
N 11.40325444 15.85484215 15.36069230 0.00423841 0.00046388 0.00545900
N 14.68126473 10.80462430 16.60985009 0.00588753 -0.00693586 -0.00133117
N 13.14948127 18.07054944 12.34913950 0.00183061 -0.00024408 0.00470171
N 10.96757970 14.74481044 19.31790600 -0.00441910 0.00150952 -0.00154292
N 13.14093992 14.03425146 23.66081851 -0.00119545 -0.00082587 -0.00411086
N 13.32971809 18.36150021 26.22478392 0.00597838 -0.00819357 -0.00539155
N 14.53444109 10.28608562 21.49721090 -0.00219652 -0.00066702 0.00296125
N 12.44008513 12.96364504 19.67002149 -0.00491047 0.00182148 -0.00031015
N 11.52652597 15.74341475 24.10602865 0.00191401 -0.00020359 0.00047539
N 14.37009037 11.05777443 25.88185600 0.00005690 -0.00109178 -0.00246815
N 13.84355755 18.20232896 21.55319911 0.00041640 -0.00880935 0.00370605
N 11.54001321 24.76550190 1.03288607 0.00511635 0.00143435 -0.00126524
N 12.04679812 23.25624264 5.29783687 -0.00752923 -0.00324665 -0.00496719
N 13.95827080 27.97663760 7.74432176 -0.00566444 -0.00025448 -0.00046437
N 14.57846148 20.12835968 3.15748320 -0.00589362 0.00551384 0.00073527
N 12.97514898 22.94146427 1.32403043 0.00325275 0.00488859 -0.00403960
N 11.45952091 25.48415535 5.82008039 -0.00190469 -0.00092693 -0.00391079
N 14.47837726 20.46025039 7.38428202 0.00240243 -0.00721149 0.00127645
N 13.43058468 27.62071335 2.93642604 0.00511744 -0.00479042 -0.00615444
N 11.37304150 24.64999527 10.08296939 -0.00568709 0.00053236 -0.00092012
N 12.90839427 23.63755309 14.92058154 -0.00835081 -0.00472504 0.00154131
N 13.72094119 28.15868113 17.02164177 0.00330595 0.00105174 0.00124803
N 14.50427970 20.01816839 12.45748637 0.00093706 -0.00245184 0.00464203
N 12.96644833 22.87006857 10.31277403 0.00288978 0.00346410 0.00404114
N 11.36665563 25.31925413 15.22445683 0.00691871 0.00679274 0.00428478
N 14.17258486 20.52258679 17.03272533 -0.00135503 -0.00181275 -0.00807531
N 13.63263817 27.79295960 11.99888407 -0.00039446 0.00543164 -0.00527318
N 11.23743714 24.54518966 19.28152973 -0.00225797 0.00302585 -0.00553507
N 12.90574898 23.36298087 23.83907683 -0.00204818 -0.00214149 -0.00232974
N 13.16221334 28.30780375 26.17876692 -0.00486433 0.00599542 -0.00085692
N 14.83789115 20.28778194 21.85390927 0.00167506 0.00068059 0.00534081
N 12.80171321 22.73952717 19.45409018 -0.00295475 -0.00214228 -0.00111350
N 11.20393108 24.89020204 24.00798138 0.00186571 0.00313300 -0.00015249
N 14.58136682 20.42165155 25.85073747 -0.00493414 -0.00185322 0.00411401
N 13.16108669 27.77204094 21.40335910 -0.00008275 0.01042113 -0.00048841
N 15.17741519 5.36478920 1.50353670 -0.00446550 -0.00257496 0.00372477
N 16.66887423 4.13349568 5.80240987 -0.00555406 0.00633519 0.00024301
N 17.09100181 9.01557980 8.10034489 -0.00156815 -0.00170899 0.00214013
N 18.42137952 0.60833425 3.33278222 -0.00582484 -0.00132130 0.00581745
N 16.21153493 3.42560695 1.59874815 -0.00442117 -0.01026026 -0.00440726
N 15.25698472 5.96670006 6.20784900 -0.00697539 0.00291505 0.00414989
N 18.56260365 1.15724168 7.40038431 -0.00126511 0.00273430 0.00096642
N 17.22175370 8.03839466 3.16843854 -0.00140923 -0.00093112 0.00129881
N 15.50152942 5.66576043 9.99740783 0.00364988 0.00059829 -0.00637446
N 16.41528399 4.34135315 15.01208343 -0.00228458 -0.00134886 -0.00497826
N 17.01467517 9.14426999 17.17594482 -0.00122295 0.00320427 0.00841852
N 18.32916840 0.86558736 12.48759902 -0.00154670 -0.00394895 0.00570598
N 16.33246853 3.59591224 10.16062371 -0.00431845 0.00498414 0.00092670
N 15.25490242 6.34721558 15.26169016 0.00394832 0.00057499 0.00278259
N 18.08108043 1.39082962 16.59369231 -0.00204610 0.00347163 -0.00390654
N 16.97512615 8.22349307 12.58320757 -0.00243888 0.00048755 0.00407043
N 15.33931232 5.59156494 18.79535905 0.00270702 -0.00222649 -0.00547612
N 16.41684603 4.17794104 24.17325095 -0.00200968 0.00155461 -0.00251146
N 16.89553908 8.96230605 26.16829203 -0.00330713 -0.00721105 0.00288265
N 18.26547027 1.13446638 21.65466980 -0.00568610 0.00397590 -0.00031237
N 16.02505961 3.65182410 20.02337915 -0.00128659 0.00377467 0.00097762
N 15.20211870 6.26989836 24.24168708 -0.01313150 -0.00365906 0.00263963
N 18.21734593 1.11477673 25.71187926 0.00168827 0.00375351 -0.00622502
N 17.04349624 8.53656367 21.38847450 0.00514614 0.00077215 -0.00244805
N 15.16029219 15.14168736 1.25759703 -0.00052732 -0.00158020 0.00138775
N 16.55777195 13.74655624 5.72804185 0.00224499 -0.00297681 -0.00119245
N 17.03078546 18.63454081 7.91828860 0.00006787 -0.00094805 -0.00560373
N 18.37625268 10.03611121 3.37984193 -0.00217297 0.00143632 0.00477174
N 16.31025555 13.12787423 1.68345603 -0.00253614 0.00737782 0.00272674
N 15.35117479 15.70094102 5.94649773 -0.00278015 0.00210223 0.00357551
N 18.40298712 10.92993629 7.68016307 -0.00358353 0.00351482 -0.00134023
N 17.22742635 18.15388037 3.18214072 0.00163576 0.00561550 -0.00246909
N 15.09604764 15.39548413 10.09592228 -0.00070133 0.00277076 0.00080012
N 16.70999869 13.66838274 14.98063261 0.00295156 0.00229510 0.00182247
N 16.67101703 18.58046663 17.26060602 -0.00546310 -0.00134846 0.00507059
N 18.21719965 10.21175130 12.81396795 -0.00137156 0.00130222 -0.01090297
N 16.13883048 13.36322803 10.33369325 -0.00112881 -0.00187855 0.00141354
N 15.26966904 15.43818435 15.05963093 0.00073520 0.00235858 -0.00706358
N 18.39309881 11.01745827 17.08981027 0.00183241 -0.00182370 -0.00408731
N 16.87590064 17.98124891 12.59456929 -0.00525254 0.00281892 -0.00078252
N 15.14717980 15.44737180 19.31597017 -0.00135195 0.00522432 0.00021330
N 16.55744467 14.00094286 23.74790508 0.00018206 0.00046872 -0.00306789
N 17.25127788 18.91686722 25.95061295 0.00170260 -0.00340377 0.00471353
N 18.32972489 10.44002779 21.76507752 -0.00175166 0.00655033 0.00515792
N 16.27162712 13.50098385 19.75139990 -0.00484274 0.00204475 -0.00423886
N 15.27805509 15.86841255 24.26271584 0.00444156 0.00690861 0.00208026
N 18.16673381 10.90288467 26.24470257 0.00211162 0.00984017 0.00201560
N 17.38315352 18.16590705 21.52652348 -0.00722806 -0.00029287 0.00488846
N 15.14142444 24.86767479 0.80360320 -0.00647306 0.00966075 0.00660060
N 16.67308848 23.39724831 5.16025213 -0.00385490 0.00339927 0.00247378
N 17.12668975 28.22776293 7.61636845 -0.00698484 0.00810616 -0.00610276
N 18.16801930 20.25042393 3.50986070 -0.00787128 0.00382601 -0.00375395
N 16.68493565 23.08018263 1.22387254 -0.00347990 0.00238375 0.00078630
N 15.40338979 25.16015205 5.62256912 -0.00847899 -0.00221467 -0.00654079
N 18.33040358 20.59568858 7.70601879 0.00605057 -0.00317347 0.00181081
N 17.38235929 27.52866920 3.07476675 0.00435501 -0.00040558 0.00128832
N 15.24762442 24.92445744 10.09210056 -0.00191383 -0.00380998 -0.00161071
N 16.47706934 23.31339869 14.70513395 0.00133973 0.00221629 -0.00330179
N 16.85284455 28.33948026 16.96370450 -0.00186554 0.00057059 0.00040606
N 18.37379556 19.83288762 12.69196731 -0.00134019 -0.00793619 -0.00439153
N 16.08841602 22.76225014 10.60446927 0.00826649 0.00269040 0.00456597
N 15.35580651 25.31278478 14.95993489 0.00254992 -0.00469353 0.00002562
N 18.04534235 20.38811746 16.89561901 0.00152033 0.00452412 -0.00159931
N 16.97852467 27.94714424 12.16796068 -0.00516637 -0.00012710 -0.00169644
N 14.92475340 24.87457601 19.23484567 0.00072088 -0.00290252 0.00517756
N 16.53536719 23.51338415 23.69674643 0.00254113 -0.00171554 -0.00038422
N 16.77342924 28.33219392 26.30187828 -0.00164575 -0.00038773 -0.00474783
N 18.77945700 20.00018558 21.49641767 0.00310294 0.00989814 0.00050955
N 16.18675126 22.91187114 19.54758288 -0.00672859 0.00013481 0.00529269
N 15.31975618 25.41288260 24.03187704 0.00040886 0.00038001 -0.00455293
N 18.26252848 20.99006825 25.82251638 0.00023493 0.00061979 0.00017896
N 17.30223838 28.07499337 21.03676419 -0.00199597 0.00116568 0.00054281
N 18.69860397 4.91960959 1.10508489 -0.00106486 0.00342843 -0.00184494
N 20.21752643 3.87024402 5.77731607 0.00361310 -0.00011383 -0.01221797
N 20.66013878 8.87073673 8.18871899 -0.00280790 0.00612496 -0.00888744
N 22.18135448 0.69118782 3.50151686 0.00543339 -0.00022070 -0.00195675
N 20.08226837 3.00346395 1.25138127 -0.00425773 0.00374924 -0.01186736
N 19.03402165 5.82466643 6.30396761 -0.00259071 0.00011009 0.00172377
N 22.14309748 1.04028526 7.75169861 0.00137538 -0.00288262 0.00114081
N 20.77197939 7.91365396 3.16725900 -0.00119435 0.00412640 -0.00377490
N 18.71360391 5.42532059 10.28877350 0.00242914 -0.00058510 0.00729021
N 20.17141162 3.91557629 15.02208116 0.00439307 0.00179254 0.00752939
N 20.81969610 8.90387909 17.16504054 -0.00285963 0.00245481 0.00404587
N 22.23406879 0.58737682 12.85284930 -0.00462263 0.00009869 -0.00019858
N 19.91904928 3.45889663 10.74343586 0.00091072 -0.00183600 0.00485528
N 18.87143886 5.90254119 15.18192121 -0.00147096 0.00063618 -0.00710826
N 21.94388139 1.49922165 17.08083717 0.00070910 -0.00130362 -0.00225315
N 20.92817511 8.06601348 12.22113534 0.00313106 0.00103385 0.00279167
N 18.90592794 5.85952790 19.49704369 -0.00306098 -0.00243488 -0.00246605
N 20.23901362 4.21734723 24.13816874 -0.00051386 -0.00187552 -0.00643997
N 20.54005726 9.25379043 26.38367506 -0.00020925 -0.00678364 0.00119058
N 22.09428343 0.88708374 21.91114775 0.00459723 0.00613955 -0.00465792
N 19.92892882 3.80116855 19.61514547 -0.00337384 -0.00199805 -0.00912786
N 18.97744314 6.19939635 24.22356649 0.00382113 -0.00089130 -0.00756918
N 21.94789152 1.27094367 25.66548923 0.00036456 0.00564948 0.00869787
N 20.73183275 8.43983975 21.15252899 0.00363201 0.00756260 -0.00226985
N 18.66981563 15.26709735 1.39161511 0.00880352 0.00081756 0.00057823
N 20.32629000 13.89499989 5.86485876 -0.00714008 0.00372232 -0.00237838
N 20.86015729 18.71756214 7.97377894 -0.00415900 -0.00323646 -0.00642816
N 21.50787721 10.12231228 3.52591484 -0.00504108 0.00188226 -0.00016539
N 19.83363230 13.29893176 1.85108881 -0.00061175 0.00837764 -0.00039495
N 19.06222321 15.85220786 6.36635277 0.00231735 0.00612171 0.00321573
N 21.73397690 10.95947355 8.04651826 -0.00292698 -0.00031433 0.00785715
N 20.86434933 17.99246086 3.18563116 -0.00154281 -0.00106048 0.00146336
N 18.77591249 15.22125761 10.67328259 0.00057005 0.00163497 0.00069720
N 20.29221048 13.65266030 15.10900606 -0.00014827 -0.00369740 -0.00543504
N 20.79694480 18.42376972 17.41454004 -0.00664932 -0.00343424 0.00076859
N 21.80096598 10.25518436 12.45746765 0.00659437 0.00580457 -0.00224093
N 19.60405921 13.07303541 10.79997668 0.00409248 -0.00279080 0.00174188
N 19.14831129 15.64761210 15.52543912 0.00181577 0.00419461 -0.00190677
N 22.08364306 10.73659030 16.64998596 0.00043805 0.00337321 -0.00087964
N 20.68084442 18.01742972 12.30142100 0.00400000 -0.00179093 0.00190407
N 18.58501468 15.19778011 19.50496405 0.00298011 -0.00141111 0.00920102
N 20.14833849 14.02442203 24.34918422 -0.00032560 0.00202206 -0.00188192
N 21.15347230 18.87021966 26.44473696 0.00238694 0.00036960 0.00307356
N 22.15301891 10.15492485 21.62995446 -0.00067766 0.00340572 0.00121322
N 20.11554179 13.42059503 19.97290613 -0.00158712 0.01013486 -0.00302709
N 18.98864015 15.97402558 24.40034302 -0.00273301 -0.00107007 -0.00331056
N 21.62742218 11.26312707 25.83933020 -0.00197821 -0.00177453 0.00683564
N 20.83359650 17.93547143 21.37337841 0.00392028 0.00245291 0.00460486
N 18.93308531 24.91532922 0.70099031 -0.00319977 0.00167323 0.00058194
N 20.46426761 23.51302344 5.23120754 -0.00004222 0.00379129 -0.00206243
N 20.80074799 28.18881869 7.98158140 -0.00342487 0.00343320 -0.00508789
N 22.07969531 20.00587243 3.06602427 0.00870321 -0.00075552 0.00199465
N 20.05879282 22.93142719 1.08603434 0.00532739 -0.00367283 0.00396279
N 18.99121161 25.14049425 5.83646562 -0.00220969 -0.00351643 -0.00098773