1728
Time=97999.99999997 pbc="T T T" Lattice="22.24103564 0.00000000 0.00000000 0.00000000 28.79144261 0.00000000 0.00000000 0.00000000 27.18386451" energy=-10387.41006827 virial="55.68526801 12.49407735 8.95095327 12.49407735 26.59938159 7.25618803 8.95095327 7.25618803 53.36519400" stress="0.00562554 0.00073438 0.00044816 0.00073438 0.00401118 0.00037327 0.00044816 0.00037327 0.00580746" Properties=species:S:1:pos:R:3:vel:R:3
N 0.09029550 5.46095256 1.75216864 -0.00006606 -0.00155896 0.00170683
N 1.74540023 4.23011883 5.76130412 0.00253716 -0.00605445 -0.00100939
N 2.08624137 9.56834772 7.85064899 -0.00217722 0.00459697 0.00799918
N 3.55157463 0.84799521 3.77052839 -0.00136599 -0.00177126 -0.00341433
N 1.15791833 3.51056326 1.57866964 0.00851402 -0.00555000 0.00352215
N 0.73835104 6.28749176 5.94198878 -0.00159972 0.00215515 -0.00040252
N 3.35362597 1.23879259 7.56452028 -0.00143692 0.00038380 0.00373284
N 2.16040298 8.76390817 3.10295097 -0.00320457 -0.00408676 -0.00194320
N 0.19703244 6.02219546 10.14122929 -0.00129531 -0.00394630 -0.00270502
N 1.98038953 4.05281448 14.52282311 -0.00156050 0.00343342 -0.00096342
N 1.92487291 8.80235659 17.42561586 0.00398467 0.00131434 0.00062597
N 3.47912649 0.58029877 12.13695394 -0.00266470 -0.00016908 -0.00023949
N 1.32276142 3.99813544 10.41538751 0.00452133 -0.00011114 -0.00018998
N 0.59826216 5.76441797 15.13554841 -0.00091936 0.00411344 0.00134861
N 3.47900718 0.94733508 16.65957496 0.00087637 0.00050139 -0.00201197
N 2.02834133 8.25958107 12.36434077 0.00021838 -0.00763302 0.00771544
N 0.00335835 5.45848521 18.98625242 0.00265052 0.00117017 0.00434382
N 0.94494209 4.12829827 23.95482576 -0.00297716 -0.00136715 0.00363414
N 1.85561797 9.07379033 26.14991594 0.00038937 0.00496373 -0.00041327
N 3.66272189 0.14619095 22.28770067 0.00021928 0.00208292 -0.00547642
N 1.26949524 3.61247463 19.76086103 -0.00368703 0.00087484 -0.01190559
N 0.18128321 6.23374198 24.31164075 0.00237506 -0.00527302 -0.00092375
N 3.00741593 1.50469102 25.89168447 -0.00046655 -0.00575375 0.00381336
N 2.19684473 8.33599506 21.30162360 -0.00215913 -0.00858928 0.00234080
N 0.37320080 15.34241529 1.18647661 -0.00122449 0.00053983 0.00055588
N 1.13281783 13.68303649 6.00252599 -0.00076620 0.00269122 0.00065925
N 2.42767893 18.30328800 8.36359403 0.00375457 -0.00423631 -0.00557242
N 3.61229755 10.60286304 3.29227985 -0.00727755 0.00180086 -0.00439298
N 1.64022356 13.36574122 1.62455270 0.00225670 0.00043544 0.00263971
N 0.17887105 15.70696900 6.18078408 0.00315497 0.00336917 0.00505107
N 3.39910960 11.46440160 7.62202479 -0.00004643 -0.00867186 -0.00640732
N 2.11657629 17.86685886 3.20345341 0.00004389 -0.00394449 -0.00094505
N 0.26234652 14.63914814 10.46908928 -0.00725943 -0.00549579 0.00062285
N 1.53960565 13.55221422 14.85606822 -0.00181115 0.00294647 -0.00263016
N 2.17696608 18.45412308 17.08159222 -0.00324662 0.00454027 -0.00015353
N 3.82701057 9.81441034 12.68241398 -0.00434728 -0.00382195 -0.00871473
N 2.04167972 13.17597601 11.02425059 0.00434415 0.00419962 0.00925741
N 0.28579827 15.33932693 15.54338234 -0.00399072 -0.00076467 -0.00814187
N 3.22429876 10.56617272 16.89264400 -0.00744193 -0.00513287 -0.00348445
N 2.17014601 17.66379523 12.55405111 0.00406759 -0.00031114 -0.00293392
N 22.03184349 15.00923877 19.30027213 -0.00502316 -0.00896553 -0.00463870
N 1.82305475 13.45787241 23.33623855 -0.00432278 0.00209581 -0.00390230
N 2.31882431 18.18404570 26.21558706 -0.00395394 -0.01053869 0.00134171
N 3.57294709 10.11717057 21.44679144 0.00475715 0.00013492 0.00406107
N 1.25309554 13.35484917 19.88753813 0.00676252 -0.00127628 0.00198102
N 0.58973428 15.09957745 24.27196155 0.00001141 -0.00099999 -0.00293436
N 3.15658438 10.92635053 25.76602143 0.00472305 -0.00219243 -0.00710702
N 2.03110852 17.85005452 21.36108098 -0.00080671 0.00065348 -0.00528819
N 22.10100416 24.60663855 1.16270780 -0.00160179 0.00357408 -0.00086390
N 1.89018893 23.25621645 5.83398131 0.00601612 0.00279646 0.00106193
N 1.91803450 28.16715663 7.83658570 0.00164239 -0.00328353 -0.00190358
N 3.35699738 19.74778785 3.57299239 -0.00457427 0.00178259 0.00007467
N 1.42274761 22.81747794 1.43510037 -0.00428951 0.00060472 0.00248609
N 0.50476973 25.04667160 6.06688809 0.00348835 0.00500132 -0.00050644
N 3.47114918 20.26076609 7.59809177 -0.00667701 0.00193631 -0.00434573
N 2.40838149 27.70029287 3.20117370 0.00085026 0.00586699 -0.00244862
N 22.21742517 24.67756782 10.22256318 -0.00323037 -0.00552329 0.00346289
N 1.48521479 23.24335944 14.75126452 -0.00297587 0.00217878 -0.00480035
N 1.86575252 28.14965874 16.88403935 -0.00419032 -0.00598246 0.00547917
N 3.14274737 19.72138913 12.56504635 0.00316171 -0.00130094 0.00622198
N 1.05837708 22.74158424 10.62232772 0.00035935 0.00000022 0.00288246
N 0.29290103 25.17258378 15.10105258 0.00294381 -0.00495602 0.00338762
N 2.97057235 20.55274223 16.75714155 0.00277503 -0.00152271 -0.00018327
N 2.06963849 27.59507360 12.01153500 0.00196057 0.00473809 0.00156244
N 0.23684312 24.43353211 19.20121239 -0.00290304 0.00157503 -0.00455632
N 1.53543748 23.43263611 23.91749521 0.00234847 0.00086183 0.00487020
N 1.94028804 28.26663146 26.22179973 -0.00334945 -0.00221282 0.00269426
N 3.35507085 19.76910970 21.38844549 0.00812939 0.00105065 -0.00142785
N 1.57367563 22.61925028 19.58957247 0.00244632 -0.00590175 -0.00266747
N 0.40986714 25.42041166 23.73531943 -0.00663896 0.00396371 0.00431295
N 3.28304700 20.30969051 25.77168733 0.00042420 -0.00220437 -0.00863531
N 2.11338301 27.52960940 21.28557182 0.00131403 -0.00364832 0.00224182
N 3.99755413 5.74084496 1.12829119 -0.00230767 0.00176845 -0.00267075
N 5.06443976 4.01787171 5.39022604 0.00887283 0.00333745 0.00223106
N 5.57684245 8.84007787 7.68313046 0.00010840 0.00853139 -0.00277163
N 7.45581406 0.64972722 3.14517179 -0.00727966 -0.00873876 -0.00588723
N 5.31516570 3.76678979 1.19004194 0.00015088 0.00368494 -0.00182885
N 4.07907810 6.04718081 6.19419854 -0.00437163 0.00600468 -0.00239131
N 6.97749556 1.29926105 7.61604350 -0.00421078 -0.00243982 0.00960011
N 5.98101334 8.23547964 3.35665951 0.00068499 -0.00484070 0.00591776
N 3.78541270 5.58626062 10.25644997 0.00530775 -0.00157682 -0.00200604
N 5.51936523 4.29096763 14.65328143 0.00043305 -0.00632993 -0.00555619
N 5.69408649 8.92110042 16.68404290 -0.00363566 0.00385760 -0.00704480
N 6.83086899 0.35189944 12.22292470 0.00456491 0.00444493 -0.00169857
N 5.03912164 3.63194272 10.40873080 -0.00254832 0.00563543 0.00053838
N 4.03581145 5.97044531 15.00373774 0.00022576 -0.00241605 0.00807388
N 6.71266643 1.62054104 16.58360799 -0.00317001 0.00010524 -0.00300672
N 6.19630774 8.12791920 12.23029810 0.00368626 -0.00615304 0.00538507
N 3.80157415 5.29004377 19.50638446 -0.00266045 -0.00225380 0.00378921
N 5.17225738 4.06366597 23.93763066 0.00343697 -0.00262557 -0.00057087
N 5.57802121 8.92704426 26.03003451 -0.00685202 0.00186532 0.00277684
N 7.15563329 0.78033426 21.45225853 0.00045497 -0.00158114 0.00415435
N 5.15736606 3.55006400 19.86259162 -0.00217107 -0.00288968 -0.00033832
N 4.09635257 6.04115446 24.45615780 0.00253948 0.00275371 -0.00139632
N 6.96900370 1.08404123 25.22106252 -0.00011873 -0.00218653 0.00291672
N 5.83096787 8.11858139 21.26831528 -0.00237057 -0.00004755 -0.00025457
N 4.04359020 15.02383309 0.99062906 0.00212139 0.00130852 0.00823822
N 5.30495063 13.45236559 5.62887388 0.00100457 -0.00231690 0.00071871
N 5.83131423 18.49735535 7.66013330 -0.00313870 -0.00326363 0.00501413
N 7.00609107 10.31406899 3.43116540 -0.00232027 -0.00063439 0.00001680
N 5.22997689 13.10164828 1.29586109 0.00427671 0.01078067 0.00747044
N 4.29258126 15.44942063 5.97185154 -0.00509782 0.00192103 -0.00773094
N 6.95241789 10.69220648 7.52344618 -0.00011116 -0.00469418 0.00137271
N 5.87932989 18.25130038 3.11091175 -0.00021492 -0.00751889 -0.00293562
N 4.09393187 15.20844804 10.37244612 0.00488842 0.00230386 -0.00234057
N 4.98191878 13.45983378 14.79155765 0.00153400 0.00823900 0.00607996
N 5.81393024 18.25926793 17.02025966 0.00094609 -0.00989809 -0.00173767
N 7.29422298 10.12126744 12.13623626 -0.00647377 -0.00039567 -0.00314465
N 5.10778698 13.24804324 10.75660897 0.00372083 -0.00331455 0.00292070
N 3.99962654 15.49882332 15.09550966 0.00265406 0.00088360 0.00259071
N 6.94589914 10.74990284 16.97020136 0.00412859 -0.00264761 0.00676361
N 6.05881425 17.82398746 12.23928696 -0.00045839 -0.00205771 0.00460556
N 3.70392370 15.22761766 18.82669079 -0.00483846 0.00154151 0.00197891
N 5.35055987 13.68656031 23.40259697 -0.00271202 -0.00372089 -0.00488283
N 5.76120131 18.43445716 25.91561870 0.00645452 0.00406038 0.00139146
N 6.50824897 10.29093234 21.48176385 -0.00546039 0.00023451 -0.00298602
N 5.08108711 13.36374411 19.34088474 0.00032586 -0.00468119 0.00396340
N 3.87019423 15.46410618 23.99341841 0.00632355 0.00275012 -0.00351723
N 6.84029145 10.78062800 25.60105793 0.00564112 -0.00380006 0.00269860
N 5.99481556 17.85519411 21.13287082 0.00244881 0.00084436 -0.00283570
N 3.86753350 24.68582464 0.92810466 0.00134907 0.00247173 -0.00052923
N 4.84544218 23.04525887 5.56036932 -0.00063379 0.00250401 -0.00271238
N 5.64068012 28.24852904 7.49082054 0.00058060 -0.00449132 0.00129082
N 7.27742611 20.01964055 3.33742522 -0.00102484 -0.00078840 -0.00124624
N 4.93579219 22.64947583 1.15153967 -0.00157632 0.00122855 0.00013119
N 4.06860940 25.20691604 5.72428686 0.00300532 0.00321393 0.00318838
N 7.27117515 20.33436501 7.49019836 -0.00784436 0.00353081 -0.00140746
N 6.31755526 27.48012679 2.65539983 -0.00318736 -0.00865196 0.00353480
N 3.43540419 24.51915520 10.06198118 -0.00705936 0.00632927 0.00428315
N 5.03049113 23.21061114 14.79366015 -0.00244939 -0.00217469 -0.00147577
N 6.10871679 28.22917777 17.05697349 0.00107081 0.00694972 0.00324057
N 7.00389442 19.92049816 12.35992300 -0.00349861 -0.00057043 0.00459079
N 4.52836433 22.54956882 10.50017122 0.00227590 -0.00009006 -0.00525064
N 4.26410611 25.35882141 15.01653768 -0.00023644 -0.00272807 -0.00855488
N 6.74833405 20.35568620 16.64112771 0.00127748 -0.00561031 0.00045647
N 5.47767217 27.22098217 12.12322593 0.00020445 0.00122512 -0.00332512
N 4.15918344 24.89068459 18.96852350 -0.00112542 -0.00291794 -0.00077924
N 5.39668748 23.01427541 23.20743335 0.00540035 0.00222864 -0.00265310
N 5.72595380 27.95604928 25.78732834 0.00235826 -0.00732760 -0.00317089
N 7.35459187 19.76371046 21.36242854 0.00437302 0.00158547 0.00325805
N 5.26067220 22.91955381 19.40969132 0.00024702 -0.00105258 0.00155507
N 4.23047213 24.86924154 23.92048320 0.00553255 0.00719713 0.00037573
N 6.94562624 20.38243758 25.71555194 -0.00361881 0.00035759 -0.00577804
N 6.02866029 27.61652419 21.06506813 0.00188908 -0.00250915 -0.00245762
N 7.53202910 5.73066724 1.26288730 -0.00452080 -0.00354955 0.00286890
N 9.30315125 3.95675648 5.63670776 -0.00231277 -0.00128097 0.00334980
N 9.68272639 8.81241112 7.71216748 -0.00098330 0.00715984 0.00056266
N 10.82203678 1.10106282 3.40698570 0.00181740 -0.00210145 -0.00420775
N 8.94211001 3.85235569 1.27102193 0.00240235 0.00315510 0.00337903
N 7.98659610 5.95793012 6.05427991 -0.00051097 0.00916828 0.00050200
N 10.72050177 0.90422839 7.29870628 -0.00041725 0.00694838 -0.00299613
N 9.37816514 8.42019431 3.25090240 -0.00152105 -0.00143942 0.00652708
N 7.44908334 5.27890650 10.53097926 0.00109822 -0.00017855 -0.00097979
N 8.96993079 4.18056946 14.53953661 -0.00905911 0.00697797 -0.00415416
N 9.78911124 8.73132511 16.87813418 0.00377677 -0.00753754 0.00045779
N 10.68952892 0.14610982 12.26405033 -0.00694084 -0.00172007 0.00218730
N 8.73836896 3.36088306 10.54155283 0.00151203 -0.00028027 -0.00184067
N 7.91750757 6.06164308 15.37245855 -0.00327544 0.00621690 0.00071013
N 10.93867939 1.52072291 16.42408293 0.00331950 -0.00546717 0.00441389
N 9.72711994 8.43307524 12.03187931 -0.00422444 -0.00521256 -0.00021497
N 7.66640707 5.59520141 19.04680448 -0.00110850 0.00172718 -0.00879668
N 8.63227270 4.18552116 23.61181434 0.00400758 -0.00122742 0.00305442
N 9.47309664 8.73084022 25.79227990 -0.00364792 0.00435981 -0.00670440
N 10.76881207 0.90806753 21.65938529 -0.00113608 -0.00832582 0.00430099
N 8.92643247 3.70830969 19.34010217 0.00601035 -0.00125114 -0.00140202
N 7.46867927 6.13759119 24.01655126 -0.00227638 -0.00394506 -0.00519749
N 10.26304055 1.32736599 25.59421670 -0.00443241 0.00017738 -0.00076569
N 9.51771261 8.39839925 21.30517775 0.00047492 0.00305297 0.00434379
N 7.81458407 14.95201609 1.18931572 -0.00018230 -0.00282685 0.00264919
N 9.32491312 13.66805195 5.70411121 0.00750873 0.00366407 0.00251299
N 9.62780739 18.44138116 8.21984409 -0.00182368 -0.00079942 -0.00075598
N 11.14127606 10.04836173 3.27320066 -0.00700828 0.00363554 -0.00454759
N 8.96525195 13.04331017 1.45876183 0.00442599 0.00131515 0.00274597
N 7.81661162 15.44641768 6.23046384 0.00482387 -0.00066011 0.00131063
N 10.50514043 11.00063956 7.60806181 -0.00269916 -0.00035210 -0.00006820
N 9.54673382 17.78387051 3.43237436 0.00027858 -0.01005684 0.00076084
N 7.91830348 15.32383798 10.21540768 -0.00072291 -0.00731855 0.00995913
N 9.10232655 13.36524388 14.60313711 0.00544661 -0.00425132 0.00316504
N 9.88469264 18.27805635 16.91989245 -0.00247716 -0.00635958 -0.00035750
N 11.01356289 10.37304632 12.14016441 0.00125404 -0.00130033 0.00024819
N 9.08248083 13.24702155 10.39667760 0.00131357 -0.00172562 0.00363596
N 8.00836495 15.33123136 15.25298114 -0.00069795 -0.00381951 -0.00302571
N 10.90610403 10.79868041 16.57998936 -0.00123012 0.00357745 0.00018007
N 9.68831614 18.12339984 11.92235520 0.00503196 0.00205144 0.00100526
N 7.89915769 14.85814795 19.38086962 -0.00142873 0.00159577 0.00234549
N 9.37413478 13.89968240 23.57884492 -0.00120469 -0.00323941 0.00164184
N 9.56687000 18.62918610 26.02275816 0.00148977 -0.00029058 0.00229591
N 11.19621852 9.95033289 21.22495340 0.00148028 -0.00453782 -0.00307271
N 8.66400821 12.76266154 19.65175874 0.00507157 0.00168923 0.00065639
N 8.18871248 15.80301574 24.05022003 0.00387621 0.00347791 0.00117548
N 10.50988569 10.78138169 25.80473243 0.00760647 -0.00101539 -0.00477475
N 9.69059082 17.94066637 20.83100709 -0.00250683 -0.00006306 0.00351262
N 7.80989657 24.54039548 1.13531252 -0.00373410 0.00171081 -0.00361488
N 9.22483124 23.20432457 5.23845286 0.00392491 0.00106152 0.00136032
N 9.24302619 27.84265928 7.66792222 -0.00147467 0.00092379 0.00334109
N 10.96185493 19.61612599 3.95041748 -0.00271256 -0.00322895 -0.00464458
N 9.36392918 22.68868779 1.39996265 -0.00394886 0.00388056 -0.00283762
N 7.69599349 24.81125340 5.57300235 0.00030866 -0.00200143 -0.00546063
N 10.66483290 20.32688513 7.27469548 -0.00099498 0.00471890 0.00034293
N 9.92680416 27.82520114 2.95975504 0.00287431 0.00173230 -0.00345794
N 7.54602933 24.71834302 9.58373833 -0.00353280 -0.00422339 0.00316151
N 8.73589482 23.27950761 14.66742618 -0.00397354 0.00047009 -0.00016778
N 9.67560099 28.40137414 16.71108449 -0.00498111 0.00140451 -0.00151677
N 11.17610077 19.71984246 12.39370174 -0.00200102 -0.00209709 0.00253543
N 8.85738927 23.02083043 10.40168022 -0.00579002 0.00151550 -0.00109918
N 7.43209866 25.21669445 14.75902010 -0.00027333 -0.00005144 -0.00109564
N 10.71010398 20.38185671 16.66196176 0.00452326 0.00600297 0.00018318
N 9.29471015 27.26841501 11.66048990 -0.00292138 -0.00448164 -0.00050309
N 7.79510312 24.85054207 19.09094119 -0.00105702 -0.00079995 -0.00051786
N 9.01795835 23.14903400 23.99365881 0.00632926 0.00070458 0.00380534
N 9.12649981 28.13656598 25.93086476 0.00014651 -0.00020860 -0.00428082
N 11.00603998 19.73915193 21.53342517 0.00858421 0.00476174 0.00859878
N 9.13549081 22.94262568 19.49669909 -0.00766193 -0.00592192 0.00484196
N 8.10927166 25.19588912 24.23050568 -0.00327926 0.00222653 -0.00244155
N 10.81557437 20.57129569 25.68395681 -0.00717177 -0.00266543 0.00465453
N 10.00375588 27.55299820 21.25662378 -0.00363699 0.00077870 -0.01071162
N 11.12038465 5.72297394 0.99460103 -0.00708862 -0.00204399 0.00041404
N 12.96566477 4.16943961 5.82290989 -0.00147358 -0.00359790 -0.00193753
N 12.98684828 8.87231378 7.99287952 0.00790852 -0.00354406 0.00751047
N 14.62232704 1.13539299 3.06957323 -0.00168350 0.00235640 -0.00562639
N 12.71056439 4.10673893 1.31476827 0.00061787 0.00168853 -0.00206899
N 11.73242523 6.08207940 5.97246346 -0.00059544 0.00940652 -0.00691549
N 14.68758681 1.34524298 7.52134019 0.00543154 0.00447096 -0.00104176
N 13.50801422 8.23937871 3.03185091 0.00223862 0.00229634 -0.00383067
N 10.95831911 5.15351555 10.22145516 0.00418264 -0.00505329 -0.00071339
N 12.88174527 3.96762475 14.46720402 0.00345128 -0.00005067 0.00523068
N 13.42136529 8.73736529 17.13181940 -0.00380461 0.00098708 -0.00075299
N 14.46669835 0.60325093 12.57306483 -0.00551731 -0.00728406 -0.00099986
N 12.17994599 3.20029268 10.46417058 0.00284066 -0.00351780 -0.00304529
N 11.54391251 5.62486418 15.13844290 -0.00263051 -0.00394944 0.00264587
N 14.74234128 1.00745671 16.72378851 -0.00259330 0.00078739 -0.00125268
N 13.85095437 8.05245843 12.01652114 -0.00706890 -0.00824029 0.00349222
N 11.21619535 5.45823363 19.04255698 0.00158136 -0.00025344 -0.00122360
N 12.31305665 3.93525457 23.53318568 0.00093257 -0.00937505 -0.00190399
N 12.92493696 9.16102230 25.93687362 -0.00776692 0.00581971 0.00671028
N 14.48909436 0.71129997 21.50530361 0.00195955 -0.00391762 -0.00645864
N 12.55028394 3.64238824 19.65322482 -0.00205097 -0.00243388 0.00035065
N 11.30127788 5.94616420 24.12526553 -0.00014339 -0.00137159 -0.00654157
N 13.96078722 1.20231021 25.84112347 0.00135056 0.00259093 0.00362949
N 13.36331477 8.05188480 21.04333562 0.00575286 0.00464491 -0.00149462
N 11.19891583 14.76541537 1.17188500 0.00369402 -0.00050118 0.00180835
N 12.74184686 13.55697856 5.47319597 -0.00339584 -0.00105753 0.00477023
N 13.45514684 18.45299317 7.74092814 -0.00682161 0.00069838 0.00196564
N 14.74816813 10.06943897 3.46907721 -0.01061264 0.00434111 -0.00794830
N 12.62527804 12.95012174 1.45104396 0.00549370 -0.00004407 -0.00247057
N 11.60073981 15.54471935 5.90767757 -0.00542242 0.00657698 0.00626032
N 14.35770416 10.67740571 7.63376794 -0.00092440 0.00091522 -0.00698208
N 13.57713743 17.82254315 2.59321804 0.00318311 -0.00150937 -0.00390593
N 11.55465644 15.48098036 10.11116826 -0.00006111 -0.00069350 -0.00092423
N 12.80747851 13.41671945 14.63801923 -0.00153103 0.00307600 0.00073330
N 13.25098949 18.65757614 17.05490955 0.00102236 0.00322666 0.00223435
N 13.84226176 10.23495685 12.71308588 0.00568819 0.00231476 0.00168282
N 12.77086799 13.60388964 10.44256574 0.00070634 -0.00285327 -0.00135968
N 11.54030574 15.23947401 15.01434529 0.00136062 0.00356112 0.00642666
N 14.71455325 10.60301055 16.62717827 -0.00680077 0.00102807 -0.00294213
N 13.55700542 17.76855650 12.69808419 -0.00007119 0.00123595 0.00500017
N 11.30956385 15.05205745 18.98434355 0.00878887 -0.00009925 0.00535912
N 12.50231441 13.53612194 23.15932724 -0.00244914 0.00248568 -0.00519498
N 13.27087478 18.89257499 25.44477587 0.00308525 0.00050334 0.00659045
N 14.43645548 10.12819367 21.29165677 -0.00038073 -0.00330781 0.00119965
N 12.70095136 13.29086891 19.57381201 -0.00008817 -0.00215688 0.00152404
N 11.67655688 15.68892094 23.52519587 0.00583556 -0.00541345 -0.00544298
N 13.96774669 11.10349115 25.45187343 0.00020181 -0.00875382 -0.00904415
N 13.29262015 18.07436343 21.00188732 0.00228597 0.00218904 0.00049713
N 11.48933545 24.84417403 1.21762734 0.01068054 0.00464136 0.00350489
N 12.99672315 23.41867403 5.29481726 0.00097320 0.00112909 0.00205093
N 13.12740962 28.45522681 8.10172213 0.00279967 -0.00629798 -0.00321454
N 14.67791022 19.83087227 3.10613499 -0.00442362 0.00778794 -0.00565681
N 12.61575926 22.77677758 1.58977603 -0.00139130 -0.00649360 -0.00068463
N 11.51001157 25.12055466 5.70088980 0.00629685 0.00487275 0.00455231
N 14.43619949 20.46981475 7.36918850 0.00395626 0.00126540 -0.00602508
N 13.34641875 28.02257828 3.06539643 0.00101806 -0.00370059 -0.00374288
N 11.62513081 24.63526991 9.70832889 -0.00679241 -0.00562531 -0.00134866
N 12.41351138 23.26501980 14.68436064 0.00744534 -0.00727269 0.00243166
N 13.73550764 27.75557035 17.12278450 -0.00432623 0.00153882 -0.01248632
N 14.86906089 19.67714579 12.48256800 0.00472818 0.00722966 0.00092047
N 12.70211723 22.74063174 10.40323593 0.00081944 0.00701984 -0.00158816
N 11.22942837 25.26937605 14.69125401 -0.00646231 0.00440964 0.00463178
N 14.66833834 20.57745292 16.61057201 0.00641937 -0.00243373 0.00421769
N 13.52633545 27.42624093 11.78179059 -0.00585352 -0.00107341 -0.00158701
N 11.26658524 24.59920432 19.22759965 -0.00507993 0.00673222 0.00384126
N 12.88787528 23.90006741 23.76012106 0.00104048 -0.00314439 -0.00484461
N 12.63427490 28.21284525 26.42363820 0.00539243 0.00110831 0.00023708
N 14.20335620 20.12730727 21.39756312 0.00064376 -0.00790024 0.00030249
N 12.66531399 22.79099795 19.53267176 0.00178490 0.00625622 0.00905521
N 11.43029694 25.58492673 24.40225698 -0.00286210 0.00810673 0.00389724
N 14.42974256 20.86859701 25.79688707 -0.00098747 -0.00569526 -0.00361146
N 13.43790546 27.44397691 21.47399086 0.00268358 -0.00375269 -0.00165157
N 15.23476061 5.76197683 0.78329321 0.00412298 -0.00225369 0.00575657
N 16.87812276 4.18655696 5.11742105 0.00456044 -0.00237047 0.00264294
N 16.74030012 8.98696020 8.13169782 -0.00334023 -0.00020981 -0.00024763
N 18.23120995 0.54255568 3.50159160 0.00059165 0.00176037 0.01164206
N 16.28966014 3.76644158 1.00260628 -0.00274161 0.00715596 0.00358821
N 15.44281131 5.87701644 5.51692300 -0.00544712 -0.00171389 0.00003700
N 18.45636049 1.33901032 7.71540889 -0.00920550 0.00222486 0.00541883
N 17.17178160 8.20285673 3.13164886 -0.00228887 0.00244398 -0.00159840
N 14.97512954 5.39188079 9.58325254 -0.00655797 0.00232117 0.00607514
N 16.77995073 3.93098309 14.10820784 0.00553655 0.00568227 0.00454221
N 17.00297528 8.60867024 16.89179443 -0.00431961 -0.00136884 0.00269100
N 18.27598291 0.98494569 12.88241694 0.00602830 0.00139298 -0.00162411
N 16.15737181 3.47637453 10.06724198 0.00069421 0.00427152 -0.00157945
N 15.67198880 5.85509810 14.92106549 -0.00916089 -0.00141493 -0.00162781
N 17.98725714 1.30754228 16.52862118 -0.00822644 -0.00029743 0.01112225
N 17.01779190 8.57515573 12.66756348 -0.00505771 -0.00131276 -0.00000763
N 15.07086234 5.40008138 19.00380263 -0.00159197 0.00090430 0.00068167
N 16.54948993 4.19135115 23.86345914 -0.00568521 0.00189985 -0.00373774
N 16.79805614 8.90498424 26.27478436 -0.00277061 0.00229525 -0.00186261
N 18.31509556 0.62013340 21.50971595 -0.00090541 -0.00421055 -0.00091118
N 16.53089281 3.70724644 19.63692442 -0.00273659 -0.00338633 -0.00237188
N 15.48548913 6.27940553 24.15938703 -0.00230363 -0.00004404 0.00117977
N 17.75417731 1.47757957 26.02208735 0.00426321 0.00671042 -0.00788229
N 16.82225891 8.58956353 21.37547565 0.00061256 0.00297141 -0.00315338
N 15.01878154 14.89121619 0.91473044 -0.00118784 -0.00681153 0.00631586
N 16.56808360 13.74532307 5.60235509 -0.00279606 -0.00545141 0.00495815
N 16.88857389 18.54447150 7.82903922 -0.00221493 0.00166360 0.00762646
N 18.30188458 10.19713344 3.47933831 0.00036343 0.00379689 -0.00522860
N 16.06632361 12.88449150 1.28777638 0.00152966 -0.00339861 0.00028971
N 15.23850920 15.64904517 5.87977955 0.00125429 0.00903153 -0.00121587
N 17.87649165 10.97296852 7.75582812 -0.00542680 -0.00449581 0.00635926
N 17.35160716 17.93640132 2.81231677 0.00416174 -0.00063800 -0.00369030
N 15.37414644 15.19661688 10.06485960 -0.00316260 0.00538503 -0.00712312
N 16.45395655 13.50236505 14.57675258 -0.00482622 0.00678580 0.00333565
N 17.15222839 18.58527896 16.95063296 0.00354250 0.00150235 0.00285660
N 18.23821018 10.48239788 12.51218809 0.00201717 0.00103261 0.00182676
N 16.23471409 13.10266893 10.57202314 0.00017715 0.00394864 0.00199141
N 15.57608909 15.58170446 15.32259610 0.00029576 -0.00335479 -0.00238932
N 18.16168294 10.47306530 16.53562851 0.00231773 -0.00234415 -0.00113127
N 17.21465429 17.68251521 12.27197994 -0.00198180 0.00318535 -0.00004836
N 15.19938131 14.68638726 19.51304878 0.00746342 -0.00137533 0.00183666
N 16.53963026 13.66253266 23.45337911 -0.00164842 0.00477732 -0.00182675
N 16.69325702 18.70940464 25.63506330 0.00229490 -0.00018856 0.00522961
N 18.50070604 10.21458174 21.42785760 -0.00510238 -0.00032644 0.00831209
N 15.98932856 12.46976489 19.60064481 0.00361876 -0.00302316 -0.00671024
N 15.21535500 15.49565726 23.85608453 -0.00375554 0.00453433 0.00563063
N 17.99946555 10.76279170 25.56915510 -0.00265047 -0.00084140 0.00102629
N 17.07443190 18.39469849 20.88857395 0.00374778 0.00299763 0.00030546
N 15.04500821 24.83635326 1.47260432 -0.00238676 -0.00496612 -0.00156485
N 16.50843795 23.70764746 6.13574551 -0.00632313 0.00068797 -0.00162456
N 16.86610042 28.49342357 8.20169387 0.00486563 0.00396171 -0.00155120
N 18.59651263 19.85972181 2.94320655 -0.00334013 -0.00196559 -0.01242867
N 16.32205165 22.90223944 1.36741628 -0.00340521 0.00414740 0.00026222
N 15.17694094 25.64319119 6.15351857 -0.00027528 -0.00178944 -0.00832003
N 18.23714104 20.37164883 7.42333657 -0.00211651 0.00570543 -0.00135945
N 17.19056280 27.18472098 3.41030295 -0.00086751 -0.00636565 -0.00068133
N 15.27388152 24.52689459 10.08634319 0.00594926 -0.00438119 -0.00044369
N 16.42125483 23.26512494 14.43178883 -0.00334252 -0.00262010 -0.00474186
N 16.99565925 28.05546251 17.05405827 -0.00107495 0.00243159 -0.00201994
N 18.42904191 19.61489042 12.29202496 -0.00474367 -0.00091470 -0.00054973
N 16.46260495 22.44380623 10.37065237 0.00089488 0.00326735 -0.00380438
N 14.86506244 24.95742032 14.83665487 -0.00635781 0.00443909 0.00234664
N 18.33470342 20.51020255 16.54772782 0.00014310 -0.00181765 0.00199501
N 17.22704422 27.85284698 12.16509220 0.00355362 0.00256412 0.00463356
N 15.02060978 24.96312054 19.20412296 -0.00864815 -0.00009463 0.00026924
N 16.46912625 23.53394304 23.74954027 -0.00633049 0.00817312 0.00451763
N 16.84943075 28.16120076 26.26080717 -0.00844724 -0.00079643 0.00245551
N 18.17565284 20.24312611 21.56826547 0.00081848 0.00333562 -0.00218968
N 16.42908697 23.06066161 19.51360382 0.00254981 -0.00190311 -0.00094835
N 15.28548887 25.55855304 24.07594772 0.00292561 -0.00360270 0.00105976
N 17.89486915 20.65040439 25.63875059 -0.00315078 0.00168354 -0.00443959
N 16.96941906 27.60209035 21.04259466 -0.00352676 0.00610681 0.00750219
N 19.26992426 5.43631871 1.44146788 0.00307295 -0.00349544 -0.00121779
N 20.56531526 4.40664904 5.99930414 0.00249821 0.00059789 0.00232438
N 20.74194265 8.93576196 8.26358102 0.00442764 -0.00350613 0.01403009
N 22.14991993 0.72300187 3.63980322 0.00768244 -0.00988791 -0.00157114
N 20.18125193 3.30809696 1.70498547 0.00098857 -0.01062932 -0.00030045
N 19.17090433 6.37364999 6.19625442 -0.00051672 0.00158142 0.00412851
N 21.82468709 1.51253066 7.60030312 0.00422267 -0.00173322 -0.01051927
N 20.90003976 8.72459407 3.35983066 -0.00028988 -0.00406316 -0.00142902
N 18.63529135 5.57006210 10.66021577 -0.00068940 0.00330490 0.00151437
N 20.40335716 4.07211767 14.95525677 -0.00087503 -0.00706286 0.00224462
N 20.80532620 8.74428243 17.13356885 -0.00068325 0.00185544 0.00156147
N 22.00990175 0.90376068 12.40488391 0.00183944 0.00477847 -0.00437056
N 20.22359469 3.85659876 10.88085360 -0.00780701 -0.00019362 0.00129823
N 19.08439275 5.89431466 15.30269663 0.00298659 -0.00282733 -0.00751358
N 21.70000866 1.38811198 16.84637736 -0.00180710 -0.00025236 0.00426075
N 20.59739258 8.49702177 12.07197426 -0.00017569 0.00291891 -0.00740378
N 18.61158838 5.77988237 19.24969495 0.00616306 0.00752004 -0.00104980
N 19.86490383 4.16729268 24.09426481 -0.00016187 0.00272182 0.00120949
N 20.59568774 9.24801894 26.48402857 0.00220491 -0.00483794 0.00332350
N 21.98926060 0.72633307 21.70554106 0.00090206 -0.00427316 -0.00408046
N 19.72115370 3.79277407 19.72713214 -0.00240711 0.00487627 0.00710898
N 18.73267948 6.16814532 24.44758872 0.00048520 -0.00160802 -0.00793668
N 21.69368139 1.44898213 25.83969443 0.00583044 -0.00040251 -0.00117948
N 20.81644705 8.37552243 21.15463707 -0.00174354 -0.00723794 0.00302750
N 18.74686190 15.19157869 0.98026103 0.00439061 -0.00184951 0.00328240
N 20.07674132 13.80890994 5.87642401 -0.00048649 -0.00294689 0.00536003
N 20.64337619 18.55574989 8.14987837 -0.00174380 0.00552026 -0.00195159
N 22.20138057 10.47193417 3.96526231 -0.01166915 -0.00161550 0.00371133
N 20.13308798 13.36238186 1.01407063 -0.00300281 -0.00181671 -0.00209914
N 18.85572779 15.82624043 5.99618595 0.00459208 -0.00237342 0.00317487
N 21.78044950 11.01821941 8.29163553 0.00068570 -0.00380583 0.00551917
N 20.74929468 18.00379919 3.08539402 -0.00897741 -0.00142588 0.01001773
N 18.82599328 15.08838396 10.18697772 -0.00314813 -0.00777534 -0.00460513
N 20.12651326 13.52455033 15.25866532 0.00131926 0.00022567 0.00302130
N 21.14116404 18.30604550 17.32288125 -0.00402659 -0.00059649 0.00223328
N 22.10503944 10.11757676 12.71505663 -0.00343328 -0.00240669 0.00222156
N 20.02406995 13.31333304 11.06708279 -0.00702043 0.00111216 0.00055534
N 19.35141534 15.61495177 15.55472840 0.00483800 0.00122291 -0.00049846
N 21.76341553 10.76829173 17.03917489 -0.00525248 -0.00171311 0.00035700
N 20.85255024 17.48820999 12.36494718 0.00177329 0.00348937 -0.00885859
N 18.53811135 15.10139056 19.70913293 -0.00062697 0.00591981 0.00594392
N 20.10177946 13.80303000 24.21411931 0.00099102 0.00203378 -0.00179130
N 20.63194361 18.61237504 26.24805434 -0.00217565 0.00152505 -0.00159235
N 22.23862407 10.21045366 21.72041973 -0.00476519 -0.00114021 -0.00125815
N 19.94170991 13.17213588 19.79156244 -0.00431412 -0.00147900 -0.00298540
N 18.68141475 15.63082008 24.48687258 -0.00233876 0.00535324 0.00486399
N 21.94899645 11.05546356 25.93864899 0.00480505 0.00018174 0.00431722
N 20.65925204 18.30263473 21.40128057 0.00503675 -0.00075665 -0.00190949
N 18.86594783 24.99306739 1.26546960 0.00110714 0.00313790 -0.00461995
N 20.25369752 23.46580257 5.53525011 0.00714476 -0.00046096 0.00501642
N 20.78984672 28.28170073 7.61802691 0.00157119 0.00004524 0.00056208
N 0.02748909 19.74091710 3.36360722 -0.00000717 -0.00106322 0.00606135
N 19.86322034 22.87059216 1.57155981 0.00363912 -0.00202375 0.00127541
N 18.97929087 25.29566168 6.20750861 -0.00017808 -0.00146360 0.00066044