1728
Time=55000.00000004 pbc="T T T" Lattice="22.05461713 0.00000000 0.00000000 0.00000000 28.92930260 0.00000000 0.00000000 0.00000000 27.26478365" energy=-10389.66781795 virial="24.69093064 -14.20523319 15.08062554 -14.20523319 -3.23750357 10.67610062 15.08062554 10.67610062 14.83989899" stress="0.00381890 -0.00076813 0.00077895 -0.00076813 0.00232986 0.00047814 0.00077895 0.00047814 0.00365190" Properties=species:S:1:pos:R:3:vel:R:3
N 0.53343138 5.61687691 1.10068274 0.00313388 -0.00023101 -0.00349929
N 1.72105044 4.13600070 5.78042648 -0.00069507 0.00804765 0.00452191
N 1.89850989 9.06905108 7.99844405 -0.00045112 0.00283224 -0.00414524
N 3.56766101 0.55580601 3.73120461 0.00208203 -0.00334237 -0.00003841
N 1.69005902 3.76108755 1.59087373 -0.00367380 0.00596389 0.00331788
N 0.38759815 6.02771692 5.99580519 -0.00169811 0.00447359 0.00208524
N 3.48600985 1.12062404 7.61082889 -0.00142214 0.00189985 -0.00819702
N 2.06421390 8.62750160 2.94401177 0.00509848 -0.00015514 0.00039207
N 21.83311932 5.49725806 10.26782180 0.00052257 -0.00331886 0.00002443
N 1.66021969 4.02429529 14.77894620 0.00267424 0.00210844 0.00542152
N 2.34887185 8.88999558 17.81215187 -0.00511954 0.00222654 0.00429722
N 3.13687105 0.77186536 12.58230331 -0.00648338 0.00380025 -0.00176269
N 1.02809877 3.60567169 10.73460832 -0.00483137 0.00317902 0.00305933
N 0.36413494 5.97458001 15.16973775 0.00475299 0.00257014 -0.00279503
N 3.21619485 1.45925585 16.80339415 -0.00103432 -0.00324231 -0.00347298
N 2.48412451 8.32052523 12.33703816 -0.00167770 0.00032040 -0.00519676
N 0.34873335 5.58014269 19.09294783 -0.00039320 -0.00428869 -0.00465118
N 1.45155570 4.28695625 23.98571789 -0.00314844 0.00392313 -0.00534890
N 2.24789833 8.97939541 25.84920708 0.00713920 0.00615445 0.00813525
N 3.18894570 0.91022931 21.50439532 0.00328866 0.00534169 -0.00335063
N 1.36545275 3.65377246 20.00678184 -0.00607291 0.00474652 0.00235943
N 0.24339288 6.13752821 24.09494777 0.00377112 0.00083243 0.00391170
N 3.09704923 1.27848904 26.10875942 0.00072636 0.00427515 -0.00169663
N 2.24837060 8.56096598 21.49390953 0.00199014 0.00088248 -0.00856467
N 0.14634557 15.37036196 0.81573038 0.00101747 0.00095753 -0.00854224
N 1.43023005 13.94195131 5.71221961 -0.00301122 -0.00290304 -0.00795638
N 2.07435572 18.40686077 7.91363699 0.00261110 -0.00353558 0.00072396
N 3.57835836 10.39441549 3.32668758 -0.00312179 -0.00083045 -0.00554213
N 1.40857985 13.45848713 1.29434944 -0.00571981 0.00552762 0.00365005
N 0.54615883 16.02530083 5.87053907 0.00285789 0.00340719 0.00049862
N 3.05803714 11.04039083 7.46596169 -0.00531108 0.00297073 0.00181938
N 2.46077040 18.24854507 3.11831578 -0.00007866 0.00323518 -0.00002219
N 0.15090033 15.40821290 9.90221600 0.00339077 -0.00043067 0.00025293
N 1.87659104 13.51901157 14.78067861 -0.00033532 -0.00280988 0.00496186
N 2.16817167 18.21949304 17.10509978 -0.00112003 0.00619092 0.00326307
N 3.93611632 10.13372190 12.33047836 0.00106276 -0.00303544 0.00102369
N 1.49244457 13.50769446 10.21350918 -0.00032145 0.00197627 0.00039203
N 0.36732901 15.29704682 15.01282912 -0.00246396 -0.00115075 0.00108577
N 3.47580320 10.62231960 16.71643492 0.00044126 0.00467095 -0.00369065
N 1.98101088 18.10503809 11.96715390 0.00107126 -0.00015052 -0.00135348
N 21.78891526 15.55405447 19.16936992 -0.00050088 -0.00185045 -0.00705656
N 1.29863012 14.01884264 23.95238151 0.00478683 -0.00023452 -0.00618909
N 2.00957113 18.56542873 26.23693354 0.00679022 0.00005663 0.00064222
N 3.66319259 10.40385346 21.55609301 0.00450856 -0.00022841 0.00400924
N 1.20546014 13.85627713 19.72072373 0.00620022 0.00141981 0.00098329
N 0.13798486 15.94132319 23.83540748 0.00405543 -0.00549794 0.00348671
N 3.06980735 11.07046265 25.78793048 -0.00614642 -0.00588123 0.00299483
N 2.20735439 18.05441935 21.25568024 0.00380951 -0.00558824 0.00519544
N 0.48465381 24.67560626 1.35913709 0.00454824 0.00514446 -0.00219466
N 1.62728856 23.58872127 5.81054868 0.00149273 0.00003924 0.00370673
N 2.06054966 28.24235925 8.04239351 0.00356381 -0.00074758 0.00095790
N 3.77085789 20.24081846 3.59887923 -0.00362807 -0.00301587 0.00132859
N 1.87317226 22.87044314 1.52121372 -0.00103502 0.00087149 0.00467299
N 0.14065796 25.27496642 6.36014522 0.00325805 0.00637442 0.00071605
N 3.16481373 20.46344187 7.78971912 0.00681587 -0.00114586 -0.00127258
N 2.36012959 27.53165538 3.51103916 0.00162595 0.00641358 -0.00310099
N 0.16719798 24.71767166 10.49849342 -0.00398120 -0.00199045 -0.00882826
N 1.37322555 23.51454549 14.97324574 0.00139334 0.00197556 -0.00049469
N 1.97585992 28.32468372 17.19156979 -0.00194525 -0.00072940 -0.00259629
N 3.32852772 19.90532469 12.48875442 0.00294302 0.00077673 -0.00421395
N 1.21380502 22.67521141 10.77820218 0.00004848 0.00351979 0.00205240
N 0.18792969 25.37754279 15.31900185 0.00254885 -0.00233720 -0.00591751
N 2.96802338 20.36579618 16.75910605 0.00364289 -0.00274921 -0.00582135
N 2.11172989 27.56191978 12.42729472 0.00866618 -0.00497527 0.00054762
N 0.32667264 24.74329870 19.60888400 -0.00551628 -0.00037408 -0.00206918
N 1.87331819 23.73514803 23.97840135 0.00144019 -0.00214610 0.00292964
N 2.06031795 28.22537338 26.41851118 -0.00807433 0.00320496 -0.00306877
N 3.12333113 20.16506780 21.61198397 -0.00141974 0.00599849 0.00967298
N 1.10368162 22.66199746 19.81385735 -0.00084739 -0.00581338 0.00923861
N 0.34103153 25.34833941 24.65567135 0.00362323 -0.00621612 -0.00226621
N 3.32607189 20.44904693 25.88185900 0.00167175 0.00336992 0.00124628
N 2.09586008 27.79653113 21.35679565 0.00324223 -0.00427064 -0.00419308
N 3.92047592 5.63634467 1.19667726 0.00480631 -0.00542435 0.00266928
N 5.25852373 4.30768251 5.83395506 0.00115146 -0.00449103 0.00165118
N 5.86121695 8.82642270 7.69286083 -0.00263708 -0.00093148 -0.00160629
N 7.15275648 0.39353335 3.70857558 -0.00627719 0.00105292 0.00091483
N 4.80272436 3.58659047 1.83023427 0.00379509 0.00167169 -0.00345365
N 3.92035151 6.13619463 6.11463630 -0.00279026 -0.00181498 -0.00092982
N 6.77238268 1.26772452 7.65907168 -0.00769804 0.00644705 0.00445762
N 5.73564761 8.60021114 2.95788249 -0.00451675 0.00009118 0.00266001
N 3.49383457 5.34872483 10.38732171 0.00911768 -0.00161484 -0.00359625
N 5.27623525 4.06004809 14.90675607 -0.00162197 -0.00081124 -0.00384224
N 6.04433135 8.78572862 16.94947919 0.00002019 -0.00533070 -0.00027843
N 6.92324436 0.62566966 12.71760700 -0.00073415 0.00392604 -0.00081165
N 5.10996274 3.68812597 10.57313077 -0.00884058 0.00119099 0.00190145
N 4.19567497 5.97171799 15.57050712 -0.00388930 -0.00370398 -0.00141291
N 6.69192042 1.23986448 16.81141737 -0.00232586 -0.00702394 -0.00380596
N 6.05185331 8.25402542 12.07882656 0.00079166 0.00297376 -0.00127508
N 3.89435589 5.66879312 19.35450298 -0.00088916 0.00306445 0.00216445
N 5.09158068 3.91832980 23.72527651 -0.00170153 -0.00119132 0.00142676
N 5.52947853 9.15861503 26.07809948 -0.00125482 0.00238057 0.00034840
N 7.30611233 0.67995592 21.65703291 0.00773861 -0.00091429 -0.00205181
N 4.83005682 3.59350261 19.85704679 0.00443489 -0.00617209 0.00322198
N 4.12771874 5.92965731 24.21747269 -0.00122411 -0.00506489 -0.00327887
N 6.95170653 1.31534608 26.08988002 -0.00045164 0.00456927 0.00009611
N 5.93793922 8.39254280 21.15622808 -0.00322549 0.00152174 0.00405860
N 4.38331470 15.34423181 1.05448717 -0.00318009 0.00192908 -0.00151106
N 5.67319006 13.34242810 5.42865509 0.00093681 0.00340243 0.00372425
N 5.85744495 18.49446546 7.74918374 -0.00039244 0.00452793 -0.00008571
N 7.29513239 10.28646451 3.38634766 -0.00001179 -0.00155379 -0.00053945
N 5.34718330 13.29049399 1.25106398 0.00733021 -0.00602309 -0.00638003
N 4.23537029 15.17301251 5.70508592 0.00752424 -0.00136294 0.00078445
N 6.74260997 10.97254130 7.51878944 -0.00232179 -0.00009813 0.00062390
N 6.12499512 18.23836220 3.14326061 0.00007882 0.00195831 -0.00914020
N 3.94007616 15.36500818 10.18295233 0.00315096 0.00145256 -0.00149130
N 5.30409579 13.50645369 14.52459818 -0.00532983 0.00291973 0.00330036
N 5.68771569 18.59198631 17.22137638 0.00494394 0.00205294 0.00186911
N 7.22530406 10.15737752 12.18727962 -0.00407020 0.00135975 0.00133221
N 5.15723044 13.41027367 10.27937153 -0.00829275 -0.00433793 -0.00277081
N 4.06096553 15.42211450 15.05751730 0.00192767 -0.00087084 -0.00162280
N 6.83299413 10.88762480 16.45947705 0.00293513 -0.00253761 0.00155403
N 5.83299778 18.15333877 12.07872550 0.00022499 0.00212810 0.01002018
N 3.59448850 15.06841654 19.34156971 -0.00095572 0.00648672 -0.00350900
N 5.60424847 14.02367409 24.08756262 -0.00168319 -0.00110304 0.00230170
N 5.66973373 18.64251948 26.29150270 0.00366539 0.00210250 0.00062663
N 7.04729830 10.33421868 21.34936333 0.00130154 -0.00100485 -0.00320655
N 4.88030377 13.25973271 19.46751942 -0.00740337 -0.00044889 0.00172672
N 4.25296766 15.98385732 23.98154521 0.00208476 -0.00245811 -0.00387845
N 6.67520906 11.07818525 25.77518785 0.00120947 0.00372161 -0.00426741
N 5.77212465 17.83922691 21.06831266 -0.00582755 -0.00075440 -0.00042330
N 4.14853339 25.04898147 1.17527991 0.00024910 -0.00553756 0.00044390
N 5.28521426 23.22120260 5.71545166 -0.00276853 -0.00197422 -0.00214748
N 5.82161889 28.08656703 8.01672362 0.00485992 -0.00062719 0.00841011
N 7.23779078 20.15335410 3.33049962 0.00722631 0.00375276 0.00514890
N 5.56379862 23.20052074 1.25991948 0.00685414 0.00551050 0.00121779
N 4.22868708 25.14501921 6.16826133 -0.00031662 -0.00167898 -0.00093990
N 7.09119174 20.36510314 7.67925523 0.00063110 -0.00377965 0.00229198
N 6.07497060 27.38198675 3.03537336 -0.00235491 0.00286655 0.00029586
N 3.63914698 24.68360632 10.28395116 0.00068540 0.00642085 -0.00102161
N 5.20758803 23.46456224 15.24551266 -0.00153100 -0.00304234 0.00268679
N 5.60052268 28.19765979 16.88712691 -0.00377721 -0.00124157 0.00408562
N 7.04073293 20.06851198 12.45033394 -0.00101173 0.00393949 -0.00234709
N 4.92514737 22.84398498 10.76186524 -0.00140664 -0.00339787 -0.00730784
N 3.99382246 25.37776268 15.31687354 0.00068801 0.00265892 0.00081753
N 6.95732727 20.33699917 16.55905982 -0.00023731 0.00110829 -0.00151135
N 5.94753713 27.53093589 12.36767217 0.00545858 -0.00097350 -0.00341719
N 3.64210320 24.64801171 19.83278405 -0.00145463 0.00820508 -0.00163944
N 5.64780546 23.51526254 24.07309272 -0.00579415 -0.00140607 -0.00333771
N 5.83788325 28.28858001 26.15469328 0.00036169 -0.00256852 0.00149828
N 7.05573950 19.77672500 21.80863786 -0.00261395 -0.00331633 0.00473030
N 5.25855423 22.97804010 19.73183715 0.00480665 0.00157463 0.00042939
N 4.19004392 25.25686191 24.17343361 -0.00034052 0.00262671 0.01100023
N 7.05986642 20.43973489 26.05393394 0.00053947 0.00206649 0.00052764
N 6.15643868 27.63114492 21.62982130 -0.00177848 0.00304547 -0.00120848
N 7.57617903 5.44474712 1.02686194 0.00273052 0.00540386 -0.00223809
N 8.80731983 4.24528859 5.69384682 0.00442127 0.00505711 -0.00109538
N 9.09871928 9.06191078 7.96538375 0.00239472 -0.00158731 0.00314445
N 10.95316801 0.59175942 3.52986524 -0.00349493 0.00477220 0.00424978
N 8.62244780 3.48754251 1.37530369 0.00224192 -0.00051688 -0.00479618
N 7.60905685 6.05748080 5.64813018 0.00040265 0.00684215 0.00186130
N 10.48064144 1.02738051 7.36057656 0.00582144 -0.00064125 -0.00446269
N 9.54826654 8.46837670 3.22649493 -0.00119406 0.00232381 -0.00119189
N 7.20475600 5.34564126 10.28176539 -0.00088208 -0.00331953 0.00713489
N 9.11944529 4.03359235 14.67577425 -0.00701196 -0.00264460 0.00112254
N 9.90830731 9.07972298 17.16379166 -0.00365046 0.00458643 0.00290917
N 10.87614063 0.32346944 12.24076432 0.00027407 -0.00452621 -0.00337672
N 8.76097765 3.78937745 10.77655847 -0.00203436 0.00426050 -0.00307509
N 7.87315881 5.89766662 15.08924616 -0.01057007 -0.00498935 -0.00122530
N 10.95352502 0.96009613 16.96512259 -0.00519402 -0.00194616 -0.00283257
N 9.86370897 8.21838492 12.33098217 -0.00108126 -0.00041851 0.00545496
N 7.69601485 5.72391379 18.93066038 -0.00057675 0.00054475 -0.00590228
N 8.83880981 4.19240416 23.90442819 -0.00202049 -0.00827021 0.00472302
N 9.47599459 9.12655940 26.17717729 0.00476792 0.00257465 0.00471096
N 10.81409816 0.96387447 21.89686908 -0.00196866 0.00362196 0.00347568
N 8.84612653 3.72236102 19.38905529 -0.00297032 0.00051458 -0.00517490
N 7.65264158 6.16545885 24.05300731 0.00621171 -0.00505262 0.00005499
N 10.78536159 1.32136625 26.19437227 -0.00876633 -0.00121336 -0.00055561
N 9.54415645 8.24264852 21.31358264 -0.00368640 0.00671706 -0.00073978
N 7.57386698 15.17049862 1.24590936 0.00946792 -0.00609611 0.00402082
N 9.33504490 13.81974247 5.82129861 0.00664891 0.00259990 -0.01289825
N 9.75603983 18.43033155 7.84128820 0.00435309 0.00406336 0.00034225
N 10.94497516 10.37347094 3.52295673 0.00054526 0.01313302 -0.00392039
N 8.88526446 13.30126087 1.45333071 -0.00377892 -0.00310832 0.00372963
N 8.11537358 15.83219736 5.82554148 0.00284283 0.00428061 0.00077977
N 10.37100147 10.99071054 7.91202959 0.00413041 0.00430822 0.00602043
N 9.57444911 18.08538425 2.96639963 0.00537780 0.00250676 0.00250266
N 7.67704478 15.23665794 10.14617098 -0.00303300 -0.00333223 0.00050841
N 9.05938282 13.96145253 14.52233709 -0.00511255 0.01079391 -0.00497504
N 9.34102876 18.25752244 17.08705326 -0.00425421 -0.00176933 0.00107201
N 10.90538762 10.36256253 12.43639646 0.00006612 -0.00691312 0.00438790
N 8.57380046 13.10739900 10.33396589 0.00220133 -0.00653218 0.00591804
N 7.62799873 15.75731648 14.90400498 0.00226669 -0.00088790 -0.00360611
N 11.02518021 11.13013666 16.84651810 0.00133258 -0.00162609 -0.00398095
N 9.22928745 18.04501067 12.06373966 -0.00146488 -0.00701928 -0.00354052
N 7.25345786 15.08531057 19.16523761 -0.00406466 -0.00210872 0.00131458
N 8.94832382 13.41692778 23.61710210 0.00466504 0.00255595 0.00552621
N 9.67960938 18.54973355 26.31151906 0.00223119 -0.00022602 -0.00539446
N 10.71707712 10.24504082 21.74795042 0.00566602 0.00342194 0.00220867
N 8.67305812 13.25801220 19.14751205 0.00298964 -0.00203002 0.00146718
N 8.09263642 15.53907361 24.30977184 0.00434758 -0.00578093 -0.00061097
N 10.52500742 11.19048963 25.91621553 -0.00418681 -0.00476864 0.00086562
N 9.23682545 18.04738769 21.39056412 -0.00299790 0.00175005 0.00069121
N 8.20940579 24.68573313 0.72018061 0.00019384 -0.00187983 0.00076020
N 8.99407080 23.34670491 5.52688952 -0.00045776 0.00048225 -0.00115266
N 9.35592952 27.99276869 8.18501630 0.00184460 0.01049807 0.00120218
N 11.17063966 19.98963582 3.04675607 -0.00645956 -0.00520017 0.00559747
N 9.16257649 22.76937517 1.46916852 -0.00016870 0.00326947 0.00662374
N 7.88159919 25.34387216 5.63181383 -0.00322905 0.00769303 -0.00710704
N 10.59169274 20.53643179 7.33501760 -0.00394899 -0.00182011 -0.00543823
N 9.54018756 27.83994469 3.00065782 0.00043000 0.00037978 0.00146538
N 7.46623402 24.56981625 9.99209919 0.00302271 -0.00249324 -0.00213610
N 9.23308199 23.13820327 14.75625897 0.00138997 0.01155958 0.00440669
N 9.28486421 28.28291574 17.04282580 -0.00271497 -0.00241040 0.00131521
N 10.78222503 19.87388992 12.46710265 -0.00039466 -0.00016580 0.00049140
N 8.91378554 22.93840364 10.31743703 -0.00258582 -0.00063595 -0.00050252
N 7.78729467 24.95240660 15.12229933 0.00259155 -0.00509724 0.00051616
N 10.67229447 20.06895938 16.43004324 -0.00544611 -0.00053170 -0.00006946
N 9.50484695 27.34271276 11.94269000 0.00494331 -0.00283812 -0.00208752
N 7.43507544 24.79635207 19.26834487 0.00567799 -0.00339858 -0.00665281
N 9.36339900 23.43143815 23.66312330 0.00181382 0.00132873 0.00692589
N 9.66319535 28.28636776 26.41389415 0.00326088 0.01014177 0.00041024
N 10.77688608 19.83059709 21.49501297 -0.00316935 0.00260437 -0.00496257
N 8.38116131 22.75509447 19.72575482 0.00307305 0.00341852 0.00010982
N 8.15396448 25.33864674 24.04977256 -0.00004886 -0.00388365 -0.00287259
N 10.78020049 20.49739647 25.57056943 0.00005752 0.00887496 0.00666312
N 9.69830726 27.94956024 21.31848060 -0.00360984 0.00389011 0.00251491
N 11.03392594 5.39764641 1.54488117 0.00164092 -0.00449940 -0.00007478
N 12.48603382 4.29609202 5.80397275 0.00047002 -0.00281600 0.00501121
N 13.18674302 8.65313002 8.42267941 0.00055288 -0.00491088 -0.00504872
N 14.07313899 0.72578652 3.50028239 0.00781686 -0.00553655 -0.00731092
N 12.32179849 3.51487094 1.78714875 -0.00887009 0.00610066 -0.00011542
N 11.24020460 6.17201860 6.17246487 0.00358469 0.00246317 0.00119738
N 14.01070138 1.28841199 7.30905883 -0.00087007 0.00151198 0.00387528
N 13.29635352 8.45319815 3.32757276 0.00591418 -0.00555528 0.00344887
N 11.07324889 5.56490011 10.38149210 0.00620891 -0.00402920 -0.00349035
N 12.84960925 3.90389495 14.83915136 0.00121226 0.00421163 -0.00564438
N 13.08868522 8.77274708 16.99416344 0.00004971 0.00114531 -0.00408617
N 14.21949534 0.69502668 12.18222251 -0.00124795 -0.00493436 -0.00087124
N 12.18360795 3.50338790 10.56599452 -0.00009719 0.00116512 0.00568762
N 11.54414890 5.84176704 15.13403833 -0.00043472 0.00487496 -0.00059527
N 14.44013677 1.16946250 16.54842686 -0.00196325 0.00375780 -0.00148181
N 13.27993417 8.48903202 12.18084855 -0.00468174 0.00763043 0.00011756
N 11.38010150 5.45943825 18.91578157 -0.01129073 -0.00199066 0.00274698
N 12.45440519 4.04837749 23.86393068 -0.00468562 0.00290297 -0.00057982
N 13.04217764 8.75729380 26.30936128 0.00069646 0.00876162 -0.00355212
N 14.68970501 0.90594435 21.69686940 0.00490131 -0.00052839 -0.00341845
N 12.74128727 3.70216548 19.29811218 -0.00351249 0.00137448 -0.00058038
N 11.29583219 5.98204122 24.05235931 -0.00438525 -0.00195704 0.00272256
N 14.58401314 1.29694207 25.76881737 -0.00092865 -0.00164935 0.00997691
N 13.04833713 8.34061181 21.37309278 0.00159036 -0.00044737 -0.00541309
N 11.76128797 15.43576720 1.30195511 0.00019583 0.00669947 -0.00234724
N 12.62193724 13.43740312 5.72986230 -0.00053097 -0.00813057 -0.00267999
N 13.42813088 18.38678918 8.02883113 -0.00445328 -0.00125305 -0.00061914
N 14.51667219 10.39149581 3.62205833 -0.00040552 0.00151648 -0.00571713
N 12.55685164 13.35733804 1.68395417 -0.00172411 -0.00698643 -0.00691602
N 11.78104045 15.59584810 6.11351219 -0.00449250 -0.00146880 0.00032050
N 14.22887450 10.53129180 7.73248189 0.00185346 -0.00223287 -0.00034219
N 13.46590352 18.12044277 3.06935468 0.00264305 0.00274346 -0.00315125
N 11.19717407 15.21175493 10.36047284 -0.00249791 -0.00170294 -0.00066536
N 12.93254433 13.88850857 14.97365387 -0.00481353 -0.00134087 -0.00559623
N 13.12979304 18.55518367 17.19623523 0.00210962 0.00087147 -0.00599408
N 14.50613336 10.39933227 12.51279303 0.00432610 -0.00204330 0.00179817
N 12.37659590 13.14511626 10.38580608 -0.00257339 -0.00435983 0.00355360
N 11.43655023 15.58543057 15.15640776 0.00198738 -0.00489222 0.00357454
N 14.43782036 10.65940691 16.72138253 0.00068956 0.00209929 0.00322475
N 12.93159257 18.18801015 12.29690242 0.00699804 -0.00118454 -0.00276052
N 11.07281769 15.04171037 19.56889610 -0.00384314 0.00147652 -0.00341411
N 12.61244644 13.25305531 23.57384753 0.00599439 -0.00336634 -0.00054650
N 13.26452046 18.42486812 26.19492485 0.00446020 0.00291926 -0.00284701
N 14.19813583 10.31953541 21.69900749 -0.00684051 -0.00102432 0.00765818
N 12.28382025 13.03923842 19.87459598 -0.00015103 0.00203397 0.00308527
N 11.32383481 15.05086067 24.22300925 -0.00612533 0.00055343 0.00154620
N 14.14252240 10.71343729 25.96131923 -0.00350447 -0.00145584 -0.00353208
N 13.09546878 18.02320523 21.45153401 -0.00420022 0.00529940 -0.00581405
N 11.29086329 25.11417272 0.73688702 -0.00051159 0.00179950 -0.01011112
N 12.72298525 23.30570869 5.33133791 0.00030490 -0.00055118 0.00050331
N 12.77305399 28.33946578 7.79597150 0.00375318 -0.00178413 -0.00012065
N 14.44146740 20.12732891 3.68327010 -0.00769604 0.00473946 0.00993260
N 12.39071848 23.12705776 1.19794776 -0.00869963 0.00122362 0.00353660
N 11.66773662 25.33795563 5.80805651 0.00709118 -0.00012920 0.00672834
N 14.28100654 20.47028537 7.61942967 -0.00099454 0.00070361 0.00503508
N 13.17153424 27.57972187 3.30486097 0.00011557 0.00050567 0.00000266
N 11.62464424 25.01344064 9.84811687 -0.00669203 0.00192539 -0.00605815
N 12.40295864 23.44921106 14.49064298 0.00446735 -0.00211421 0.00275741
N 13.30411300 28.11994643 17.04045803 -0.00686483 -0.00266411 0.00667124
N 14.29421601 20.03163124 12.35458719 0.00227105 -0.00259669 -0.00017018
N 12.62681362 22.97256493 10.26856669 -0.00695712 0.00323228 -0.00108932
N 11.41657396 25.38744232 15.14115823 -0.00412328 -0.00087960 -0.00453308
N 14.03166959 20.68194632 16.68383414 -0.00313729 -0.00032349 -0.00205174
N 13.23278216 27.44141313 12.16686856 0.00317548 -0.00885580 0.00217468
N 10.83099260 24.64556167 19.15122690 -0.00414856 0.00265596 -0.00073413
N 12.83539666 23.09059211 23.57227190 0.00214720 0.00066244 -0.00024637
N 13.23517816 28.32271686 26.09793446 0.00233936 0.00238629 0.00006966
N 14.38750181 19.91018653 21.30488547 -0.00154194 -0.00349255 0.00425429
N 12.16831798 22.88305509 19.32415629 0.00396276 0.00754445 -0.00533089
N 11.97234140 25.20149554 23.91720336 -0.00270994 0.00477437 -0.00490385
N 14.49191868 20.31948246 25.93120776 0.00092960 0.00071888 -0.00276246
N 13.50187035 27.91698361 21.29879643 0.00781136 0.00393686 -0.00092890
N 15.03122468 5.31734654 1.26430036 0.00112136 0.00528581 -0.00025843
N 16.48255952 4.07187940 5.42610211 -0.00395738 -0.00366543 0.01238967
N 16.77399543 8.67275823 7.98654404 0.00505921 -0.00198565 -0.00621015
N 18.19871834 0.79990914 3.35643375 -0.00200199 0.00256064 0.00397234
N 15.89072090 3.25243580 1.37110483 -0.00126762 0.00641103 0.00023707
N 14.96451371 5.77705003 6.03493875 -0.00557973 -0.00442961 0.00086699
N 17.98096112 1.43173583 7.47512514 0.00771654 -0.00276120 -0.00099929
N 16.94789620 8.44470738 3.20785518 -0.00619838 0.00407784 -0.00798845
N 14.75586621 5.40150261 9.99375907 0.00254814 -0.00131986 -0.00384434
N 15.83936823 3.90846186 14.50780089 -0.00250583 -0.00121827 -0.00212029
N 16.83896446 8.99834418 16.86424369 0.00307081 -0.00326346 0.00102278
N 17.90465532 0.72986402 12.58786644 -0.00111977 -0.00508798 0.00226404
N 15.98456141 3.45562758 10.38460070 0.00449394 -0.00619744 0.00129426
N 14.95901074 5.97321854 15.05507981 -0.00452183 -0.00059476 -0.00271714
N 18.19799488 1.14166834 16.61856215 -0.00236119 -0.00116671 0.00006746
N 16.89350242 8.45579538 11.89807450 -0.01292792 -0.00530485 0.00106844
N 15.28618962 5.85643030 19.25325806 -0.00264722 -0.00258494 -0.00078937
N 16.22513440 4.06210621 24.04673258 -0.00195166 -0.00113811 0.00794940
N 16.91262827 8.77972692 26.29680244 0.00098516 0.00009116 -0.00345128
N 18.31919459 0.72334401 21.51842001 -0.00135707 -0.00352775 0.00353117
N 16.22991042 3.76422397 19.56209826 0.00915226 -0.00018651 -0.00090440
N 15.11276473 6.08164335 24.05040173 -0.00056750 0.00251058 0.00202740
N 17.73448292 1.15540503 25.81206540 0.00171566 -0.00347479 -0.00375956
N 16.92622111 8.39831907 21.13875953 0.00793248 -0.00435346 0.00213409
N 15.11679342 15.19018076 1.16273572 0.00118452 0.00336513 0.00247255
N 16.61538945 13.86069484 5.93645521 -0.00485601 0.00140079 -0.00153224
N 16.51478027 18.75942231 7.71760575 0.00148939 0.00195259 0.00188654
N 18.14317876 10.34316580 3.58611662 -0.00661274 -0.00723358 -0.00091841
N 16.24158601 13.19124100 1.52681786 -0.00161485 0.00316222 0.00618082
N 15.30215367 15.83755161 6.24389073 -0.00614837 0.00275893 0.00097423
N 17.85491171 10.62326723 7.62924248 -0.00090664 -0.00572487 -0.00340870
N 17.30548377 18.19137211 2.95856896 -0.00018154 -0.00181291 -0.00290565
N 14.70250298 15.24955103 10.31782421 0.00576275 0.00187736 0.00009702
N 16.41354794 13.70132979 14.90191034 0.00484914 -0.00134703 0.00483898
N 16.33821703 18.94530137 16.93243200 0.00065299 -0.00117746 -0.00169096
N 18.09405635 10.41122919 12.28158095 0.00008377 0.00257496 -0.00058693
N 15.94101491 13.36193333 10.63161027 -0.00194857 -0.00390713 0.00318046
N 15.29023766 15.67508113 15.17391669 0.00212128 0.00263103 0.00621201
N 18.27434286 10.78994797 16.69386060 -0.00398023 0.00266849 -0.00063129
N 16.81621735 17.68294085 12.05492985 -0.00859177 -0.00335642 -0.00666381
N 14.88679069 15.01450809 19.38723452 -0.00142246 -0.00289254 0.00501567
N 16.31013195 13.74387612 24.05801695 0.00511877 -0.00216217 -0.00340415
N 17.17721952 18.54194688 26.08786092 0.01094741 -0.00542513 -0.00000529
N 18.22744781 10.26710512 21.40082058 -0.00872016 0.00653256 -0.00506254
N 15.88712123 12.93825277 19.66118722 -0.01216141 0.00465227 -0.00290417
N 15.06340766 15.71703280 24.19998117 -0.00438688 -0.00023255 0.00372755
N 17.60924827 10.95126058 25.89846507 0.00134956 0.00108894 -0.00398938
N 16.89802003 18.20905106 21.24663660 -0.00048369 -0.00066991 -0.00646868
N 14.87033250 24.73233557 1.10146371 0.00238991 -0.00495293 -0.00075953
N 16.24896371 23.51359863 5.60646927 0.00035175 -0.01021432 -0.00141535
N 16.62567868 28.43451499 8.05293479 -0.00136257 -0.00541653 -0.00752424
N 18.32314164 20.17296681 3.26040693 0.00094849 -0.00480795 -0.00221930
N 16.32409260 22.91548926 1.23559093 0.00481919 0.00522353 0.00150255
N 15.00471514 25.35561069 6.21659505 -0.00140853 0.00047565 0.00611380
N 17.79437466 20.71203701 7.32332169 0.00276557 0.00346144 0.00059511
N 17.21760675 27.75426776 3.31686571 -0.00995648 -0.00238998 -0.00468876
N 14.79494613 24.82917453 9.99563020 0.00078253 -0.00415372 0.00461578
N 16.19497734 23.79448075 14.77002408 0.00241524 0.00166556 -0.00374574
N 16.92259153 28.24075246 17.29754885 -0.00107225 0.00587800 -0.00689494
N 17.34243968 19.95294430 12.39345765 0.00043455 -0.00383151 -0.00232208
N 16.18817829 22.94204666 10.63173105 -0.00455610 0.00058944 0.00206574
N 14.74941590 25.54188017 15.26584033 0.00272651 0.00469254 -0.00340938
N 17.85082285 20.77716787 16.74716943 0.00361257 -0.00231545 -0.00583594
N 16.77776206 27.61461023 12.43254544 -0.00716273 0.00396050 0.00046040
N 14.95063976 24.90214734 19.62819902 0.00375706 -0.00118231 0.00418356
N 16.44728968 23.42211409 23.77449121 0.00544226 0.00265671 -0.00158151
N 16.76106225 28.00988425 25.76611893 0.00633741 0.00413719 -0.00320498
N 17.96834285 20.27067020 21.32470735 -0.00578807 0.00021584 -0.00373983
N 15.94122499 22.80968059 19.56093466 -0.00101029 -0.00262637 0.00056417
N 15.24474802 25.39002058 23.92548673 0.00079793 -0.00190665 -0.00171746
N 18.07119118 20.58828805 25.54189963 0.00288332 -0.00102818 -0.00274229
N 17.03293987 27.71557563 21.34277181 0.00339700 -0.00335725 -0.00160972
N 18.94966846 5.71982326 0.93530806 -0.00768445 -0.00279989 -0.00043091
N 20.04533830 4.26815215 5.72538370 0.00065620 0.00691181 0.00279775
N 20.34071299 9.18415257 7.78053669 0.00480034 0.00453892 -0.00496952
N 21.87128664 0.46532009 3.31364247 -0.00774786 -0.00521697 -0.00424904
N 19.86210717 3.68317448 1.50967855 0.00368178 0.00956909 0.00397803
N 18.82756343 6.16462985 6.05540725 -0.00063452 0.00337792 0.00369822
N 21.80555137 1.31235874 7.56477900 -0.00296729 -0.00150948 0.00137555
N 20.58078095 8.75170968 3.51853024 -0.00056149 -0.00727173 -0.00303525
N 18.54268318 5.45627781 10.33789605 0.00116713 -0.00306245 -0.00273037
N 19.67383096 4.26894649 14.67891859 0.00206752 -0.00418136 0.00332181
N 20.72304597 9.00873222 16.80530048 0.00362189 0.00106866 0.00109561
N 21.26119325 1.01464234 12.45777285 -0.00111293 -0.00007333 -0.00172345
N 19.67437307 3.46031476 10.54504621 0.00006204 0.00183133 0.00693886
N 18.74970457 6.34014532 14.90635370 -0.00215425 0.00365585 0.00266718
N 21.82699645 1.26363964 16.91111017 -0.00474975 -0.00757195 -0.00211845
N 20.82566602 8.96466245 12.17312788 -0.00414191 -0.00180807 -0.00551940
N 18.80302321 5.69378896 19.09842279 0.00280451 -0.00046707 0.01190686
N 19.95067753 4.30862781 23.62939048 -0.00204036 0.00312118 -0.00462330
N 20.12520856 8.88774618 26.15580752 -0.00345812 -0.01132935 0.00530725
N 21.67619668 0.44260317 21.77821774 -0.00393375 0.00575098 -0.00375629
N 19.95972636 3.68124236 19.39133680 0.00203968 -0.00534583 0.00653361
N 18.63994006 6.25186764 24.04340058 -0.00061718 0.00411734 0.00192993
N 21.28751624 1.57320750 26.01722013 -0.00292324 -0.00211175 0.00016569
N 20.75287199 8.49847002 21.10205465 0.00035739 -0.00263160 -0.00535203
N 18.56699148 15.03931418 1.26541743 0.01038659 -0.00137159 -0.00213883
N 20.29697054 14.05416498 5.78448835 0.00266049 -0.00425689 0.00327261
N 20.63455326 18.65636076 7.75648982 0.00913479 -0.00366961 0.00516135
N 21.86472299 10.57656273 3.41234616 -0.00233171 -0.00087359 -0.00186735
N 19.75805454 13.16746466 1.66015757 -0.00150574 0.00023385 -0.00060249
N 18.84540784 15.83108683 5.85355343 -0.00368104 0.00185240 0.00393598
N 21.70283260 10.96616068 7.39674991 -0.00012831 -0.00339155 -0.00905784
N 20.66112294 18.22437346 2.71806527 0.00698689 0.00369435 0.00317077
N 18.32007829 15.13580113 9.90943351 -0.00219903 -0.00116973 0.00139713
N 19.93647654 13.53999495 14.86268844 -0.00002341 -0.00616439 -0.00048972
N 20.12967493 18.30938233 16.67316888 -0.00164229 -0.00676150 0.00250112
N 0.04819067 10.99368117 12.53370293 -0.00306863 0.00014352 0.00636660
N 19.55867478 13.29059446 10.50139298 -0.00079723 0.00393783 -0.00119305
N 18.72150803 15.46537016 14.94760725 -0.00177959 -0.00114166 -0.00151798
N 22.03344956 10.86960790 16.43626867 -0.00567187 -0.00168792 -0.00088013
N 20.39969156 17.82681629 12.25157767 0.00569234 0.00291731 0.00208485
N 18.09096183 15.37858929 19.66425857 0.00528300 -0.00393969 -0.00152873
N 19.80302544 13.46512223 23.70777944 -0.00028036 0.00134191 -0.00123624
N 20.44419657 18.80312544 25.63838826 0.00146236 -0.00931199 -0.00057407
N 21.70697056 10.62492013 21.31027923 -0.00880469 -0.00049519 -0.00035577
N 19.50676689 13.59275413 19.49497498 -0.00347366 0.00608878 0.00315666
N 18.67710888 15.43616511 24.38719659 -0.00020693 -0.00196320 -0.00056693
N 21.41945232 10.74347400 25.82455150 0.00567272 0.00885625 -0.00331029
N 20.24866773 18.36289778 21.33884757 -0.00189356 -0.00561041 0.00047153
N 18.91728181 24.58506846 1.18931178 -0.00287135 -0.00167723 0.00416083
N 19.99896574 23.57782375 5.70036454 -0.00123130 -0.00315943 -0.00172904
N 20.68543030 28.25720918 7.86293068 0.00477495 0.00093616 -0.00081515
N 0.00905021 19.99198872 3.27368300 0.00157105 0.00095134 0.00358030
N 20.32344818 22.78644782 1.48712755 -0.00134272 0.00464033 0.00326959
N 18.77839827 25.45698675 6.36805731 -0.00207959 0.00535288 0.00503935