1728
Time=70000.00000007 pbc="T T T" Lattice="22.02740115 0.00000000 0.00000000 0.00000000 29.07314735 0.00000000 0.00000000 0.00000000 27.19806762" energy=-10388.87790871 virial="12.64877039 18.69729659 -1.35264966 18.69729659 13.58939800 23.20850630 -1.35264966 23.20850630 -18.91977537" stress="0.00311100 0.00097539 -0.00010375 0.00097539 0.00334344 0.00133296 -0.00010375 0.00133296 0.00166613" Properties=species:S:1:pos:R:3:vel:R:3
N 0.87381780 5.57848114 0.95745922 -0.00037637 -0.00206907 0.00469584
N 1.61783460 4.02680236 5.62727011 0.00187857 0.00493071 -0.00193470
N 2.09814925 9.33418245 8.11379355 0.00284633 0.00269036 -0.00330526
N 3.37882613 0.82436718 3.28940219 0.00553208 -0.00207763 -0.00347660
N 1.56943608 3.25839579 1.42173296 0.00423232 -0.00155597 -0.00327976
N 1.04879614 6.17704944 6.15077643 -0.00220298 -0.00434139 -0.00098777
N 3.56758321 1.26805330 7.63505556 0.00128878 0.00130481 0.00432609
N 2.38370111 8.66204807 3.40657081 0.00418015 -0.00318348 0.00486005
N 0.33249789 5.49968656 10.16887087 -0.00338025 0.00566659 0.00840787
N 1.71612672 4.27165974 14.72990385 -0.00091852 0.00323546 0.00032176
N 1.94827853 8.93854132 16.98618552 -0.00072898 0.00268718 0.00076997
N 3.21157283 1.18634339 12.97973537 0.00310047 0.00350188 -0.00164364
N 1.46283195 3.45356461 10.32943120 -0.00567185 0.00599313 -0.00169189
N 0.45669859 6.13981744 15.14275859 -0.00756620 0.00227775 0.00144979
N 3.36313228 1.30548544 16.77849277 0.00254459 -0.00250832 -0.00238491
N 1.96088059 8.22270743 12.38979364 0.00105908 -0.00555955 0.00292033
N 21.98907827 5.37158397 19.38207028 -0.00056051 0.00173797 -0.00087295
N 1.53799417 3.88256341 23.84750672 0.00202015 -0.00168741 -0.00472838
N 2.51926761 8.54179436 26.74933729 0.00076902 -0.00082623 -0.00313985
N 3.20822400 0.30692449 21.60474110 0.00120662 -0.00232318 0.00144524
N 1.18641446 3.41915862 19.66390373 0.00160344 0.00730619 0.00163541
N 0.40489391 5.85813996 24.31335126 -0.00234559 -0.00200983 -0.00144421
N 3.73659560 0.91130059 25.51229263 0.00788405 0.00628481 -0.00713640
N 1.97872846 8.27985245 21.27402620 -0.00109322 0.00499874 -0.00027890
N 0.26853133 15.25525402 0.87832863 -0.00100088 -0.00499875 -0.00061281
N 1.55306158 13.87140036 5.65226605 -0.00215549 0.00131881 0.00010144
N 2.24784472 18.41650482 7.94594011 0.01226098 0.00132833 0.00020758
N 3.85664176 10.36917296 3.83972018 -0.00191108 -0.00410238 0.00163596
N 1.49185822 13.53142225 1.64659861 -0.00230762 0.00151936 0.00362468
N 0.60009155 16.01441826 5.84846712 -0.00974158 -0.00729556 0.00526178
N 3.33237279 11.25120926 7.85101386 -0.00397351 0.00025449 0.00833253
N 2.19783028 18.00398111 2.75742011 0.00397761 -0.00364186 0.00252169
N 0.21267973 15.22079766 10.29349536 0.00066022 -0.00099447 0.00595621
N 1.57716367 13.89000427 14.90352361 0.00023714 0.00117477 0.00295511
N 1.53277697 18.76284156 17.07256634 0.00384511 -0.00715536 -0.00366930
N 3.45654584 9.96879137 12.89160236 0.00073726 0.00366581 0.00022767
N 1.53803049 13.34435066 10.46518990 -0.00055814 0.00302766 0.00386091
N 0.45351431 15.88787984 15.12265108 -0.00468077 0.00390152 -0.00174764
N 3.15061045 11.04273200 16.90230941 -0.00507935 0.00213348 -0.00334681
N 2.04610948 18.27257270 12.25987669 0.00645875 -0.00486058 -0.00028353
N 0.08820052 15.39114775 19.58670294 0.00355510 -0.00599599 0.00676706
N 1.54964661 13.91140598 23.66488387 -0.00106653 0.00430698 0.00316438
N 1.92284548 18.83932720 25.85701237 0.00050511 0.00232590 -0.00165557
N 3.07695562 10.24392058 21.59442535 -0.00207715 -0.00766957 0.00762793
N 1.10129153 13.35093601 19.48982492 0.00180876 0.00270919 0.00458840
N 0.49927578 15.92244793 23.84371372 0.00253489 0.00179809 0.00584548
N 3.32464479 10.60051608 25.95005773 -0.00208944 -0.00386204 0.00202561
N 2.18238470 18.23122311 21.19955456 -0.00047364 0.00821079 -0.00146675
N 0.28908595 24.69833971 1.59877496 -0.00328319 0.00271892 0.00162054
N 1.76533060 23.42267746 6.05443282 -0.00364955 0.00399957 0.00055573
N 2.16432987 28.47419677 7.82829292 0.00076861 -0.00231861 0.00737274
N 3.23629954 19.98052289 3.37905700 -0.00605320 0.00297382 0.00723182
N 1.72555410 22.82915052 1.63254726 -0.00136326 0.00385504 0.00087205
N 0.47749203 25.30505931 6.22479119 -0.00032301 -0.00957316 -0.00155765
N 3.32833570 20.38091103 7.47676412 0.00563547 -0.00556488 -0.00149361
N 2.52275342 27.74816277 3.20260640 0.00322470 -0.00325215 -0.00049275
N 0.57798875 25.25623342 10.12552727 -0.00155884 -0.00190041 0.00198771
N 1.23334813 23.86426409 14.87105306 0.00336055 -0.00559408 -0.00249666
N 1.99885828 28.57849093 17.26989385 0.00111452 0.00091563 -0.00292738
N 3.05227270 20.38638531 12.31394284 -0.00377048 -0.00265512 -0.00318108
N 1.48643030 23.11211436 10.19268398 0.00823456 -0.00439884 -0.00093766
N 0.17422276 25.87570954 15.24759889 -0.00174121 -0.00020086 -0.00171495
N 2.71671394 20.69806290 16.53019448 0.00150470 -0.00015364 0.00716245
N 2.19946451 28.36096311 12.21492589 -0.00379194 -0.00937304 -0.00332979
N 0.12624599 25.04977602 19.56838575 -0.00093724 0.00349097 0.00077765
N 1.43266260 23.63164334 24.12294876 0.00491038 0.00213447 0.00191435
N 2.28281469 28.28644799 26.28760947 -0.00028066 -0.00379286 -0.00062102
N 3.54713771 20.08897117 21.61243655 0.00008114 0.00353681 -0.00545649
N 1.34668959 23.11772968 19.60533545 -0.00229373 0.00192486 -0.00184926
N 0.25019479 25.64386186 24.24011110 0.00253849 -0.00187021 -0.00166442
N 2.91338914 20.96416274 25.89932003 -0.00179735 -0.00504116 -0.00109206
N 1.94277993 27.46717986 21.33819279 0.00269940 -0.00337741 -0.00176846
N 4.18109707 5.59807176 1.31810110 -0.00565392 0.00190829 -0.00185781
N 5.52317260 4.10876667 5.54585131 -0.00112870 0.00309912 -0.00156376
N 5.57113100 8.96945895 8.09308557 -0.00211922 0.00204188 -0.00123695
N 7.37108658 0.42070677 3.29824074 -0.00258823 0.00417065 -0.00566550
N 5.54880292 3.75919038 1.32573650 -0.00204377 -0.00034329 -0.00094333
N 3.99107782 5.82347013 6.08851217 -0.00008993 -0.00114152 -0.00652807
N 7.13761837 1.22247496 7.34419034 0.00065068 -0.00162383 -0.00398246
N 6.17607906 8.30045847 3.32932334 -0.00705859 0.00149015 0.00935757
N 3.68365550 5.47748599 10.30564867 0.00218801 -0.00531365 -0.00343089
N 5.60005050 4.14174453 14.29723639 -0.00211689 0.00065082 -0.00371882
N 5.51574735 8.90556726 16.92271732 -0.00437348 0.00352659 -0.00342167
N 7.14262998 0.46935025 12.46870846 -0.00259108 0.00553040 -0.00583664
N 5.16515980 3.74307053 10.58857745 -0.00025562 -0.00980799 0.00249559
N 4.30262271 5.77879449 15.36915035 0.00128263 -0.00023757 0.00049737
N 6.91159705 1.35977157 16.68617430 -0.00241151 0.00299015 -0.00755348
N 5.76607498 8.39924553 12.08883784 0.00323034 0.00336235 -0.00361385
N 3.60743791 5.27774347 19.38706612 -0.00195690 -0.00089923 -0.00078368
N 5.31723728 3.92476271 23.88585536 0.00564220 -0.00176932 -0.00561851
N 5.84865391 8.92566173 26.07072266 -0.00007934 0.00217461 -0.00148031
N 7.19072278 0.69524689 21.18113893 0.00146106 -0.00096133 -0.00074899
N 4.98315554 3.45593557 19.76343134 -0.00621053 0.00296751 0.00023355
N 4.33662138 5.94797623 24.35947131 -0.00107941 -0.00603087 -0.00535344
N 7.24909796 1.25233001 25.52872062 -0.00397320 -0.00357352 0.00481267
N 5.78823332 8.58757798 21.22406531 0.00230263 -0.00067360 -0.00073925
N 4.05758522 15.25743845 1.12915182 -0.00518136 0.00328163 0.00037474
N 5.07511148 13.48114686 5.58012620 -0.00007371 -0.00678754 -0.00374511
N 5.75586473 18.35224092 7.85814790 -0.00982300 -0.00518255 0.00425773
N 7.30085503 10.32134958 3.45119147 -0.00257018 0.00124913 0.00221190
N 4.96757324 13.08494507 1.31230824 -0.00049568 -0.00319575 0.00066907
N 3.96745153 15.49387354 5.90603589 -0.00910224 0.00279939 0.00196008
N 6.92742238 10.76892752 7.42862615 -0.00728863 -0.00043176 0.00226387
N 5.94261821 17.94350929 3.11346254 0.00183195 -0.00308260 0.00294038
N 3.85532590 15.21352142 10.35617049 -0.00149541 -0.00183998 0.00049075
N 5.05664297 14.03504030 14.71981744 0.00032325 -0.00229019 -0.00076795
N 5.31658086 18.98056161 16.85632518 -0.00550908 0.00219973 -0.00186525
N 7.33571399 10.18392208 12.39779913 0.00150512 -0.00579496 -0.00196953
N 4.99258162 13.20070346 10.69408170 -0.00240765 0.00648560 -0.00150483
N 3.76625860 15.87258572 14.90208738 -0.01209938 -0.00386025 -0.00427534
N 6.93510235 10.66002003 16.24183340 0.00632637 0.00725798 -0.00471552
N 5.91195891 18.30407380 11.91553415 -0.00176858 -0.00438822 -0.00082628
N 3.47117247 15.03706570 19.39959523 -0.00078413 -0.00105852 0.00483190
N 5.33152165 13.82237822 23.75392987 -0.00586450 -0.00034065 -0.00251403
N 5.17866794 18.89847363 26.31619201 0.00115720 -0.00758245 0.00243358
N 6.82452947 10.62644225 21.28290814 -0.00128878 -0.00520253 -0.00361320
N 4.73239765 13.17468833 19.65138744 0.00409018 0.00449453 -0.00199404
N 4.24169873 15.81533200 24.38031347 0.00328352 -0.00234411 -0.00217036
N 7.08096202 10.85234132 25.77714191 -0.00145122 0.00170463 -0.00526468
N 5.84982368 18.09868430 21.15781733 0.00104840 0.00265244 -0.00209383
N 4.01031883 24.81414881 1.13393612 0.00202426 0.00310873 -0.00119393
N 5.54126340 23.47667197 5.80438027 0.00505154 0.00307068 0.00240597
N 5.97127938 28.45352741 7.91251349 -0.00050117 0.00109386 -0.00127618
N 6.99097386 19.93503456 3.44804809 -0.00188615 -0.00099693 0.00209502
N 5.25834784 22.77725549 1.47018306 -0.00193156 -0.00097013 0.00179344
N 4.10224166 25.35032803 6.16585909 0.00151369 -0.00230720 -0.00273925
N 6.94070495 20.42065394 7.68552531 -0.00295723 0.00004443 -0.00410200
N 6.08605073 27.58025456 3.06790796 -0.00315647 0.00354435 -0.00360523
N 4.10910946 25.07537695 10.30776975 0.00586076 -0.00104666 0.00405662
N 5.20129962 23.66809158 15.19512406 -0.00193546 0.00422273 0.00437979
N 5.66630756 28.58499677 17.05950187 -0.00125319 -0.00143185 0.00562725
N 7.32697019 20.00768058 12.37926712 -0.00436971 0.00364236 -0.00238729
N 5.11846687 23.06840520 10.65747950 -0.00249411 -0.00412805 -0.00004632
N 3.77322301 25.55939622 15.34711415 0.00034811 0.00474778 0.00957712
N 6.90850343 20.68845640 16.53526738 0.00559297 -0.00127077 0.00541061
N 5.59312320 27.77337868 12.19844220 0.00239336 -0.00089493 0.00083042
N 3.88653625 24.90903685 19.08938626 -0.00103192 0.00027451 -0.00538436
N 5.21893467 23.70260951 23.89229229 0.00282247 0.00278221 0.00247032
N 6.06583930 28.44484758 25.68445357 -0.00328921 -0.00476525 -0.00578276
N 6.82485787 20.09903085 21.46977505 0.00310283 0.00739584 -0.00351025
N 4.92244507 22.82735203 19.19701361 0.00116448 -0.00035145 -0.00435289
N 3.70378516 25.43005530 24.27309932 -0.00236364 0.00271474 -0.00219491
N 6.82739468 20.36501443 25.49598072 0.00519594 0.00167036 -0.00016401
N 5.76482561 27.97117286 21.18470489 0.00005109 0.00157462 0.00280428
N 7.84734458 5.47189462 0.95292412 -0.00173224 -0.00269641 -0.00117918
N 9.11401309 4.19961595 5.57965598 0.00536561 -0.00358627 -0.00343168
N 9.32965317 9.04976760 7.96546133 -0.00122092 0.00006262 0.00244856
N 10.89429057 0.73345342 3.62444113 0.00222146 0.00018414 0.00139556
N 9.13449730 3.59264411 1.41311289 0.00067654 0.00246265 -0.00470213
N 7.68530210 5.88104001 6.18726543 0.00252840 0.00450865 -0.00534677
N 10.44632107 1.18673668 7.59640342 -0.00190943 -0.00043408 -0.00355965
N 9.96198982 8.02145491 3.15567752 0.00060888 0.00111826 0.00024524
N 7.64070443 5.51778757 10.17524692 0.00332627 -0.00379554 -0.00124133
N 9.14950104 4.23409751 14.95522877 -0.00197954 0.00405728 0.00097596
N 9.29934445 8.71564673 17.25887144 0.00201688 0.00148186 -0.00521781
N 10.34459333 0.77020271 12.68176792 -0.00746531 -0.00110407 -0.00567224
N 8.39458446 3.36890838 10.52131797 -0.00088237 0.00283646 0.00192105
N 7.97775955 6.24446178 14.99518432 0.00500681 0.00279211 -0.00263491
N 10.65396403 1.05217489 16.98263857 0.00197296 0.00177691 0.00179900
N 9.95263697 8.57120887 11.70635906 -0.00238008 -0.00058868 -0.00024858
N 7.13666669 5.74243717 18.90585816 0.00080111 -0.00152982 -0.00346285
N 9.18071359 4.29484499 23.48775658 0.00232996 0.00217448 -0.00420951
N 9.49134812 9.05197850 26.08784092 -0.00346655 0.00494314 0.00135052
N 10.55182040 0.61614987 21.58808434 0.00064715 0.00675734 0.00189531
N 8.44783070 3.91825932 19.30478656 -0.00313081 0.00684459 0.00468198
N 7.78498807 5.97120693 24.15479002 0.00454999 -0.00502286 -0.00121068
N 10.73228757 1.36776440 25.68890072 -0.00311810 0.00395667 -0.00759474
N 9.35434367 8.29142038 21.16881969 -0.00166002 0.00340961 0.01014022
N 7.61973815 14.66649920 1.24897311 -0.00550658 -0.00022095 0.00154620
N 8.85122944 13.75082945 5.69894347 0.01095785 0.00071279 0.00908274
N 9.50806217 18.30506908 7.93317926 0.00112663 -0.00303219 -0.00007660
N 11.25548812 9.97583228 3.24777855 -0.00609516 0.00017619 -0.00139807
N 8.51519936 12.48305772 1.13877623 -0.00558772 -0.00075111 -0.00331464
N 7.57418486 15.76091616 5.93049588 0.00090417 -0.00022337 -0.00267700
N 10.59082135 10.95570949 7.57865829 -0.00417216 -0.00030256 -0.00651048
N 9.36166756 18.30914794 3.13801074 0.00485286 0.00088040 0.00260563
N 7.52186503 15.38250695 10.11491703 -0.00997085 0.00485610 -0.00526448
N 8.59162911 13.72927778 14.73452901 0.00618905 -0.00892990 -0.00127275
N 9.22368275 18.81706193 16.83315158 -0.00566744 -0.00189827 0.00090408
N 10.58130096 10.64057581 12.30684312 0.00223948 0.00026860 0.00362122
N 8.69535719 13.36323500 10.33889442 -0.00520189 -0.01010404 -0.00136119
N 7.57089689 15.89645157 14.92626020 -0.00201036 0.00099267 0.00226303
N 10.64561525 10.51181664 16.60110193 0.00039725 0.00088818 0.00201506
N 9.59365017 18.07332226 11.98834709 0.00187262 -0.00435022 0.00292254
N 7.52430945 15.27147395 19.17245770 -0.00357428 0.00681626 -0.00313857
N 8.92778240 13.93518588 23.74162978 0.00138750 0.00310829 -0.00300035
N 9.26397089 18.69052610 25.85314413 0.00121821 0.00245345 -0.00230437
N 10.66037941 10.19063504 21.26029892 -0.00248097 0.00064756 -0.00686842
N 8.69647348 13.22189435 19.27594847 0.00161730 -0.00101784 0.00417208
N 7.52615031 15.73517351 24.02041769 0.00282091 0.00056043 0.00032897
N 10.83283549 10.84472866 25.42819278 -0.00780819 -0.00023924 -0.00436745
N 9.61259696 17.90917224 21.25751604 -0.00262089 0.00318182 -0.00497664
N 7.67160423 24.56159269 1.62715417 -0.00209059 0.00798008 0.00441476
N 8.70465617 23.21759482 5.72859369 -0.00327771 -0.00097690 -0.00287818
N 9.43274243 28.20889103 7.80566979 0.00470217 0.01125975 -0.00024283
N 10.68031724 20.06678476 3.37248544 0.00188735 -0.00163416 -0.00529152
N 8.99086650 22.58368077 1.44239572 0.00221950 -0.00133877 0.00156923
N 7.57590871 25.22969036 6.05706237 0.00781379 -0.00000952 0.00091329
N 10.80819745 20.17734935 7.63293895 -0.00162610 -0.00161068 -0.00071411
N 10.03953657 27.61741008 3.13197245 0.00251330 0.00045418 0.00156158
N 7.75047257 25.05621933 9.84188079 -0.00228628 -0.00171006 0.00265499
N 9.01693749 23.64006295 14.72682284 -0.00039317 -0.00618175 -0.00327868
N 9.29135248 28.15395492 16.92292693 0.00332287 0.00102077 -0.00521650
N 10.92178497 19.92350466 12.40018152 0.00136408 -0.00465311 -0.00182946
N 8.94808592 23.08858881 10.43852546 0.00264332 0.00306407 -0.00222149
N 7.64415095 25.42375741 15.24156413 0.00312687 -0.00307008 -0.00151436
N 10.58389516 20.51245284 16.48649832 -0.00393438 -0.00124679 0.00101073
N 9.46233111 27.83760854 11.98448566 -0.00454768 -0.00244400 -0.00192119
N 7.43725059 24.75994021 19.44572790 -0.00012251 -0.00467840 -0.00385537
N 8.99127601 23.46752193 24.17937407 -0.00308627 0.00833305 0.00282054
N 9.69395637 28.43039739 26.29641245 0.00159784 0.01063403 -0.00213068
N 10.78852650 19.93202105 21.32108979 -0.00595924 -0.00064680 -0.00406534
N 8.84631966 22.98129050 19.52922111 0.00246777 0.00142402 0.00290623
N 7.76971493 25.43028769 24.21128326 0.00068451 -0.00251988 -0.00149129
N 10.38818661 20.56034901 25.39588780 0.00222510 0.00167637 0.00329603
N 9.57209218 27.67009977 21.10698677 0.00209606 -0.00282380 -0.00167347
N 11.82827593 5.69220185 1.33857252 0.00604926 0.00160271 0.00571364
N 12.65716692 4.10902007 5.69887503 -0.00646311 0.00157531 -0.00052449
N 12.87171174 9.07500698 8.05005481 0.00769941 0.00026765 -0.00108592
N 14.80419895 0.53138354 3.14276015 -0.00372944 -0.00025780 -0.00033376
N 12.71881654 3.57516450 1.57558480 -0.00468000 0.00759255 -0.01011786
N 11.45182423 5.93249685 6.33063048 -0.00361286 0.00104903 -0.00527173
N 14.31871388 1.35244217 7.40716541 0.00520071 -0.00128399 -0.00486852
N 13.56102773 8.23577893 3.32610757 -0.00234405 -0.00229841 0.00027699
N 11.21247878 5.60987177 10.56907219 -0.00909116 0.00267650 -0.00267504
N 12.51195107 4.00399441 15.16941784 0.00766759 0.00327192 0.00060562
N 13.44426507 9.11087917 17.08471480 0.00364940 -0.00309113 0.00294510
N 14.22224866 0.94413104 12.10059213 -0.00444307 0.00933126 0.00100897
N 12.48713794 3.65735874 10.85074110 0.00274204 -0.00335540 0.00252723
N 11.63533374 6.09880833 15.19849991 -0.00587337 -0.00355383 -0.00156926
N 14.48963713 1.03963002 16.27765227 0.00398561 0.00011577 0.00459325
N 13.25379347 8.76028106 11.94499784 0.00040115 -0.00189752 0.00589153
N 10.96494691 5.51035252 19.87871174 -0.00024165 0.00240364 0.00011993
N 12.40920625 4.10879723 23.69494636 0.00371758 -0.00463392 0.00016066
N 13.22295608 9.08595137 26.05428086 0.00080434 -0.00063230 0.00245156
N 14.20347741 0.44968729 21.11763154 0.00583823 -0.00122746 0.00744985
N 12.11951985 3.48626504 19.59591987 0.00029812 -0.00128990 -0.00010297
N 11.34403238 6.11106551 24.10869564 -0.00367385 0.00464462 -0.00053124
N 14.22061822 1.16341936 25.49153320 -0.00219883 -0.00236169 -0.00063792
N 13.18485052 8.64513709 21.28887498 -0.00481183 0.00081014 -0.00420124
N 11.73092141 15.40726673 0.82546316 -0.00052255 -0.00594631 0.00928505
N 12.74519621 13.72346230 5.55061598 -0.00052735 0.00365587 -0.00439839
N 13.30370332 18.57272820 7.86181788 -0.00101318 -0.00619539 0.00671413
N 14.65806568 10.17798476 3.43109473 0.00151905 -0.00274406 -0.00953952
N 12.81167480 13.39280220 1.60109232 -0.00355748 -0.00147663 -0.00564856
N 11.56051805 15.69406165 5.63640667 -0.01381906 0.00418259 0.01187796
N 14.23159042 10.91780913 7.87643292 -0.00467706 0.00449152 -0.00234892
N 13.21954979 18.14022143 2.84639784 0.00231881 0.00449879 0.00127563
N 11.02578519 15.12933966 10.22318104 0.00418232 -0.00682083 -0.00372642
N 12.68688758 13.83321525 14.79288356 -0.00415852 -0.00164083 0.00206919
N 13.04615320 18.89272931 16.92720805 -0.00580276 -0.00199849 -0.00489636
N 14.11719349 10.68679584 12.87816237 -0.00551064 -0.00497235 0.00102473
N 12.52470603 13.39767041 10.57249642 -0.00585905 -0.00937660 0.00478078
N 11.24560058 15.61196949 15.06189773 0.00383296 -0.00438296 0.00438508
N 14.04091431 11.29985061 16.61418726 0.00321078 -0.00131831 -0.00158701
N 13.11229054 18.01802457 12.12779208 0.00071976 -0.00085764 0.00185468
N 11.46972232 15.30058796 19.22917882 0.00127069 0.00363531 0.00100500
N 13.00048522 14.22713984 23.75117229 -0.00636560 0.00317790 -0.00148914
N 13.32991011 18.45766408 26.21309064 -0.00212211 -0.00191286 -0.00581568
N 14.60916521 10.44859291 21.53660882 -0.00037092 0.01037077 0.00603132
N 12.43565900 13.17870334 19.50311914 0.00366831 -0.00438179 -0.00389329
N 11.37622469 15.92335143 24.14122320 -0.00391304 0.00419420 0.00532558
N 14.13467780 11.12909007 25.65567231 0.00509043 0.00259311 0.00130968
N 13.05269891 18.12244318 21.29242486 -0.00752449 0.00131489 0.00137121
N 11.30391340 24.94768094 0.88545552 0.00490676 0.00528690 0.00201447
N 13.01289415 23.54623916 5.41126805 -0.00166591 0.00077291 0.00400012
N 12.80344006 28.67859856 7.57864630 0.00428483 -0.00412238 0.00202406
N 14.75824429 19.81221305 2.99613746 0.00120987 0.00406027 -0.00487793
N 12.04362501 22.82484957 1.28280775 -0.00480179 -0.00161014 -0.00440676
N 11.44812084 25.22415785 5.91959541 0.00275314 -0.00043160 -0.00284071
N 14.23680180 20.63076857 7.54998608 -0.00202464 -0.00514210 -0.00388557
N 13.19050762 27.97608338 2.65703262 -0.00396521 -0.00115346 -0.00172025
N 11.27411929 24.79510291 9.93894791 -0.00089735 0.00249114 -0.00099612
N 12.42977899 23.42459076 14.13359063 -0.00279346 -0.00314035 -0.00422041
N 13.17963223 28.17504788 16.56285370 0.00197780 -0.00710347 0.00052693
N 14.15408789 20.13678905 12.42907684 0.00018366 0.00113091 0.00115672
N 12.38560282 22.95321347 10.45115010 -0.00153379 0.00302766 0.00888002
N 11.23540446 25.43999039 14.45837785 0.00339809 -0.00048177 0.00206972
N 14.01997381 20.89684017 16.31648443 0.00516574 0.00680919 0.00494638
N 13.22500297 28.01430674 11.70811439 -0.00444677 -0.00785374 -0.00426574
N 10.87291610 24.98445284 18.77388998 0.00685809 0.00106885 -0.00461271
N 12.67716911 23.01770486 23.68252280 0.00054109 -0.00085640 0.00295718
N 13.03453971 28.30238777 25.84427654 -0.00329420 0.00476739 0.00117194
N 14.06023653 20.08856222 21.59104851 -0.00069316 0.00239036 -0.00732141
N 12.46567964 23.34730546 19.22008669 0.00185113 -0.00086428 0.00475427
N 11.60476996 25.02131939 23.94204539 0.00421439 0.00268585 -0.00707864
N 14.23421457 20.47040933 25.44820107 0.00121138 0.00375354 -0.00585627
N 12.78776758 27.56762327 21.01110166 0.00191922 -0.00451281 -0.00334996
N 14.88347884 5.45925697 1.15702163 -0.00338828 -0.00157349 0.00263575
N 16.81261398 4.21701767 6.09153452 0.00515172 0.00908636 0.00819020
N 16.81859749 9.30901618 7.87388129 -0.00075285 0.00405562 -0.00193247
N 18.02983868 0.73732198 3.62397282 -0.00323355 -0.00747424 0.00379029
N 16.22139762 3.63058786 1.70676540 -0.00029008 0.00236746 -0.00210936
N 15.52694501 6.18315963 6.09221181 0.00605288 -0.00147526 0.00380051
N 18.15961955 0.95570340 7.87753479 -0.00172062 0.00315415 0.00065240
N 17.06751123 8.41307256 2.86135211 -0.00249066 -0.00480806 0.00123301
N 14.53307617 5.70243089 10.10595967 -0.00195873 0.00421358 0.00193268
N 16.27781889 4.02127252 14.71905748 -0.00331136 -0.00382859 -0.00055757
N 16.61600675 9.50307975 16.56266197 -0.00245495 -0.00241708 0.00505006
N 18.11830318 0.91835975 12.63532152 -0.00662126 -0.01027412 0.00312077
N 15.92013869 3.88934767 10.26644539 -0.00411713 0.00382013 -0.00675973
N 15.14166067 5.93036577 15.02038130 -0.00822317 0.00605028 0.00251108
N 17.87125685 1.10507580 16.72034007 0.00630980 -0.00494228 0.00020784
N 17.17822127 8.47093834 12.18209382 0.00220330 0.00331160 0.00465844
N 14.56302939 5.34618023 19.19536303 -0.00049705 0.00236140 -0.00126675
N 16.15157437 4.19207681 23.85557722 -0.00465327 -0.00639993 0.00643994
N 16.99428460 9.27021460 25.78791040 -0.00099687 0.00685065 0.00106249
N 17.86345930 0.74333647 21.56434038 0.00794779 -0.00864808 -0.00174584
N 15.94323492 3.56192460 19.63006652 -0.00212177 0.00440687 0.00564509
N 15.25700750 6.24592004 24.15928454 0.00097856 -0.00284045 0.00431427
N 17.93552423 1.47638916 25.74309101 -0.00107300 -0.00034267 0.00375133
N 16.92303611 8.18519084 21.12256646 0.01028980 -0.00286357 -0.00107800
N 15.15470600 14.98098089 1.27804792 0.00198532 -0.00311035 0.00813590
N 16.13278250 13.91557425 5.68373650 0.00551496 0.00539260 -0.00337441
N 16.83374456 18.68507327 8.11425516 -0.00156078 -0.00042387 -0.00042067
N 18.45997753 10.29746334 3.23539026 0.00085691 -0.00608670 0.00050483
N 16.20821095 12.78896059 1.41624147 -0.00092938 -0.00435662 0.00698564
N 14.97783038 15.89954127 5.99612770 0.00368814 0.00128018 -0.00351379
N 17.98386476 11.35062774 7.55048643 -0.00206589 0.00290589 -0.00089451
N 17.20892903 18.16507821 3.10592209 -0.00222243 0.00016256 0.00468718
N 14.87647265 14.95023956 10.67053387 -0.00398669 0.00288307 -0.00457031
N 16.10588921 13.85483614 14.87852391 0.00382318 0.00904685 0.00273114
N 16.30774834 18.50585600 17.24497303 0.00304937 0.00504649 0.00296816
N 18.47368639 10.46697265 12.36029763 -0.00352505 -0.00735412 0.00674007
N 16.36234529 13.15329239 10.72819973 -0.00226895 -0.00881672 -0.00367023
N 14.82391630 15.77751961 15.09288183 -0.00213157 -0.00426221 -0.00562743
N 17.99109730 11.30657822 16.34795695 -0.00112649 0.01079129 -0.00181939
N 16.77244287 18.49556987 12.26031872 0.00266686 -0.00519004 -0.00293697
N 14.72996130 15.23662604 19.53249777 0.00652571 0.00357367 0.00035930
N 16.62963200 13.91154067 23.97408925 -0.00275340 -0.00156294 0.01135029
N 16.69962342 18.97555069 26.37120861 0.00745596 -0.00123840 -0.00367621
N 18.02781003 10.23649570 21.29348166 -0.00232684 -0.00254072 0.00372321
N 16.20830417 13.43926198 19.68697495 0.00861789 -0.01183875 -0.00056908
N 15.33431221 15.84721945 24.20520826 -0.00131069 -0.00293920 0.00295196
N 18.51326314 11.03682526 25.72156585 0.00287643 0.00239156 -0.00211737
N 16.84800114 18.21825381 21.60615192 -0.00477647 0.00335181 -0.00230377
N 14.47886922 24.82482400 1.13138628 -0.00787088 0.00370293 -0.00066826
N 16.29957278 23.53420126 5.28380872 -0.00569785 0.00726299 0.00228212
N 16.52935585 28.40256395 8.45892390 0.00740380 -0.00119894 0.00854322
N 18.44350756 20.12832618 3.43232724 0.00166846 0.00352074 -0.00156646
N 15.88066268 23.00863614 1.24907505 -0.00006412 -0.00249836 0.00208185
N 15.22972401 25.57898007 5.53267585 -0.00235231 -0.00059539 0.00009884
N 17.92054214 20.74789128 7.76789331 0.00241326 -0.00026196 0.00008261
N 17.09991510 27.66025135 3.41451315 0.00167968 0.00328809 0.00590786
N 15.52436453 24.88250876 10.02499988 0.00025444 0.00766293 -0.00043840
N 16.41222997 23.38653000 14.70223617 -0.00666801 -0.00242339 -0.00277281
N 16.79926566 28.26350747 17.39793698 0.00358931 -0.00035113 0.01279384
N 18.34935334 20.30109001 12.45364999 -0.00815048 0.00396664 -0.00146286
N 16.17997647 22.68508193 10.51998158 -0.00075691 -0.00150222 -0.00435824
N 14.88082679 25.20749799 14.85788760 0.00267991 0.00607128 -0.00111433
N 17.56942253 20.41328252 16.86359402 -0.00184148 -0.00156524 -0.00174867
N 16.86585067 28.10234815 12.46462555 0.00424295 0.00287969 0.00256075
N 15.37201723 25.08551109 18.94671354 0.00019936 0.00365394 0.00210224
N 16.50159241 23.81010468 24.06595087 -0.00128081 -0.00390069 -0.00523542
N 16.80825287 28.56693232 26.15724366 -0.00111368 0.00135574 0.00075027
N 18.23245454 20.09476888 21.82292633 -0.00073284 0.00805062 0.00322316
N 16.01852726 22.91978167 19.49781980 -0.00084943 0.00188736 -0.00074751
N 15.08935957 25.55494586 24.22080746 0.00410191 0.00172528 -0.00096669
N 17.65978393 20.97640507 25.86561473 -0.00316695 -0.00354789 0.00593029
N 16.59690740 27.89030519 21.37558647 0.00205789 -0.00621440 0.00628881
N 18.85734348 5.66021664 1.27797029 -0.00055729 0.00245920 -0.00122990
N 20.24282779 4.20778623 5.47307781 0.00309422 0.00022838 0.00187560
N 20.64047140 9.07541823 7.73723699 -0.00091140 0.00407594 0.00576294
N 0.12368974 0.54008818 3.09331903 -0.00186640 0.00494913 0.00935478
N 19.91668490 3.60438161 1.53486154 0.00051973 -0.00180898 -0.00268342
N 19.12166512 6.17417977 5.97667169 -0.00426748 0.00703052 0.00036637
N 21.90371678 1.42381102 7.63803175 0.00071598 0.00506125 0.00696410
N 20.67249980 8.43922224 3.06016995 0.00191392 0.00787926 0.00103754
N 18.51428528 5.83739740 10.38931336 0.00371824 -0.00025076 0.00130759
N 19.85781864 3.97949407 14.96384387 0.00065510 -0.00027746 0.00009637
N 20.50570457 8.87621235 17.13306655 0.00172202 -0.00063044 0.00467198
N 21.58253267 0.84259710 12.26515636 -0.00036673 -0.00125289 -0.00699942
N 19.89533113 3.97239956 10.57265986 -0.00025743 0.00489675 -0.01080479
N 18.59680697 5.96977441 15.07312683 -0.00079634 0.00904130 -0.00402767
N 21.80550622 1.42220911 16.53213109 -0.00558784 0.00663158 0.00632094
N 21.05515316 8.53992713 12.20084319 -0.00340922 0.00299704 -0.00336477
N 18.44481280 5.37657207 19.42425538 0.00416309 0.00030033 -0.00276065
N 20.08757637 4.14991731 23.91406218 0.00196869 0.00220260 0.00364696
N 20.67515585 8.69476463 26.10353118 -0.00155496 -0.00516157 -0.00234089
N 21.65767655 0.49717033 21.56584189 0.00278455 -0.00401107 -0.00191478
N 19.64716961 3.39158452 19.50938075 -0.00027697 0.00605618 -0.00577360
N 18.69052080 6.01509018 24.26064561 -0.00227146 -0.00029477 -0.00273822
N 21.77171758 1.19651768 25.76222355 -0.00026910 0.00476491 0.00783652
N 20.40352453 8.20821993 21.63858643 -0.00455136 -0.00127367 -0.00421763
N 18.92497581 15.40813281 1.02708303 -0.00306551 0.00372549 0.00621209
N 19.89880726 13.83470503 5.60694646 0.00266310 -0.00192491 -0.00754896
N 20.33771386 18.90284903 7.24350526 -0.00296327 -0.00385580 -0.00269434
N 21.68184895 10.47630574 3.49279765 -0.00263640 0.00302184 0.00159531
N 20.02548006 13.43004573 1.35006890 0.00109885 0.00448839 -0.00023884
N 19.04071221 15.98864471 5.96961274 -0.00218325 -0.00049446 -0.00470954
N 21.78229835 11.09454978 7.73451638 -0.00412962 -0.00021949 0.00459626
N 20.46428526 18.20057243 3.08430354 0.00114511 -0.00143304 -0.00841290
N 18.54231651 15.21792023 10.05780408 0.00436306 0.01220583 0.00097882
N 19.83233975 14.05460105 14.77379177 0.00333568 -0.00026531 -0.00164475
N 20.38233532 18.73596781 16.79900775 -0.00084228 0.00301044 0.00013995
N 21.78623292 10.65219708 12.77073352 -0.00061271 0.00330142 0.00070522
N 19.53824139 13.24256956 10.56646785 -0.00076672 -0.00592771 0.00444651
N 18.48782547 15.83098542 15.02890074 0.00333408 -0.00161991 0.00220731
N 21.58277575 10.89228760 16.60367758 -0.00201027 -0.00240631 0.00470654
N 20.45275960 18.15236884 11.90477265 -0.00142959 0.00679598 -0.00669785
N 18.42614091 15.04707939 19.42453061 -0.00073215 -0.00208746 0.00355542
N 19.83321239 13.98021924 23.78788082 -0.00059454 0.00452284 -0.00363961
N 20.86531847 18.90767163 26.12737386 -0.00558502 -0.00095513 0.00308911
N 21.67118398 10.02682918 21.36615680 0.00467087 -0.00203166 0.00304513
N 19.73366910 13.12795763 19.51266307 0.00801404 -0.00815807 -0.00210314
N 19.03872551 16.05098772 24.29532723 0.00008087 0.00407031 0.00390053
N 21.91367944 10.54982081 25.75017795 0.00914583 0.00127597 0.00389454
N 20.63352468 18.18976861 21.22763961 -0.00342282 0.00062619 -0.00150956
N 18.69363345 25.41694517 1.13140151 0.00268867 -0.00654501 0.00114013
N 20.10801070 23.80423882 5.74079197 0.00116755 0.00504690 0.00012585
N 20.88694029 28.38008188 7.50435233 -0.00602834 -0.00326557 0.00100910
N 21.60476149 20.19295109 3.08775037 0.00116064 -0.00360907 0.00380169
N 19.83443909 23.30015158 1.40104040 0.00304872 0.00049135 0.00039434
N 18.72506404 25.41008914 6.53292651 -0.00163126 0.00020662 0.00124777