1728
Time=48000.00000003 pbc="T T T" Lattice="21.97802544 0.00000000 0.00000000 0.00000000 28.79297464 0.00000000 0.00000000 0.00000000 27.55604454" energy=-10385.90677571 virial="19.84992939 9.09163352 9.23352088 9.09163352 7.54028353 -26.37985773 9.23352088 -26.37985773 -26.64475701" stress="0.00345155 0.00052869 0.00034456 0.00052869 0.00296836 -0.00145083 0.00034456 -0.00145083 0.00124154" Properties=species:S:1:pos:R:3:vel:R:3
N 0.31530287 5.67456043 0.98412131 -0.01110806 0.00576663 0.00104954
N 1.60541068 4.25421236 5.45401452 0.00386454 -0.00360520 0.00388799
N 2.35488718 8.98196430 7.98995575 -0.00305083 -0.00543702 -0.00157947
N 3.26277204 0.78701487 3.24100059 0.00265216 0.00176707 0.00404681
N 1.17527510 3.59662625 1.35205232 0.00229084 0.00231706 0.00464384
N 0.52605812 6.25502947 6.01291617 0.00000833 0.00293437 0.00280669
N 3.39540676 1.12504916 7.90912591 -0.00451196 -0.00146920 -0.00437601
N 2.29371506 8.27078997 3.25014399 0.00457907 0.00057978 0.00210726
N 0.26929598 5.39492790 10.07226798 -0.00011046 -0.00193787 -0.00170104
N 1.10461974 4.35199838 14.48356592 -0.00272278 -0.00211377 0.00585988
N 1.94891893 8.66874460 17.21178416 0.00232573 -0.00646087 0.00025013
N 3.52475409 0.75164004 12.49005777 0.00242581 0.00239258 -0.00013316
N 1.05641058 3.26533123 10.50203207 0.00648083 -0.00165231 -0.00003177
N 21.95853641 6.28751947 15.06296882 -0.00002787 0.00392210 -0.00268978
N 2.91147985 1.44734958 17.06546154 0.00560004 -0.00260703 -0.00123104
N 2.43953028 8.02610242 11.95057594 0.00011659 0.00601622 0.00296306
N 0.23932560 5.40230932 19.61560044 -0.00556224 0.00772897 0.00046407
N 1.57350543 4.12295233 23.86160105 -0.00414826 -0.00159317 0.00416873
N 1.75332404 9.00152691 26.16226121 0.00352870 -0.00437464 -0.00510915
N 3.37114094 0.88225765 21.76570801 0.00199718 0.00665637 -0.00223163
N 1.51461577 3.46704602 19.73880024 0.00069839 0.00430010 0.00181872
N 0.11781490 5.98348673 24.06891280 -0.00849917 0.00153552 -0.00338676
N 3.40465134 1.37951712 25.78902499 -0.00039037 0.00118521 0.00292610
N 2.21797344 8.32947410 21.46335703 0.00354140 0.00250239 0.00173615
N 0.35662644 14.88814351 0.97572983 0.00865518 0.00469755 0.00294277
N 1.69718745 13.73238433 5.75321181 0.00045821 -0.00485487 0.00299974
N 2.08423931 18.70682056 7.90885392 -0.00122772 -0.00171959 -0.00544443
N 3.56751838 10.19218723 3.28159823 0.00590568 -0.00528839 -0.00276207
N 1.37081644 12.94870028 1.79846516 -0.00504930 -0.00213314 -0.00522483
N 0.52804151 15.56541415 6.29994789 0.00100961 0.00325885 -0.00191989
N 3.48305773 11.03673209 7.37957940 0.00003533 0.00470043 0.00774290
N 2.80686251 17.67026994 3.08929593 -0.00090698 -0.00099721 -0.00053921
N 0.44028533 15.31491342 10.46863092 -0.01135577 0.00509534 0.00437928
N 1.79559302 13.37047380 14.93308320 0.00082429 0.00635082 0.00332471
N 2.20477777 18.38879005 17.19678296 0.00564852 -0.00540586 -0.00308751
N 3.32916188 10.16988118 12.28665290 -0.00743713 0.00078663 -0.00494665
N 1.19840019 13.09505533 10.83138499 0.00086776 0.00340933 -0.00722469
N 0.09863385 15.06118065 15.33529952 0.00119478 0.00145221 -0.00031110
N 3.08288302 10.54716209 16.53345664 0.00158659 0.00534769 0.00414746
N 2.14231312 18.30163189 12.34606548 -0.00542524 -0.00671892 0.00111258
N 0.66987914 15.23835840 19.62075186 -0.00006825 0.00568922 0.00176060
N 1.45552086 13.70420034 24.18847986 -0.00500122 -0.00031690 -0.00019685
N 1.98900872 18.43646796 26.59282677 -0.00519415 -0.00411329 0.00066103
N 3.29285967 10.29118767 21.80049317 0.00716094 -0.00000463 -0.00044373
N 1.48742967 13.05586078 19.95833720 0.00365009 0.00445887 -0.00528563
N 0.21023861 15.59711543 24.43607196 0.00197346 -0.01174061 -0.00602358
N 3.22378943 10.78335222 26.15549515 0.00112331 0.00386058 -0.00336662
N 2.26407544 18.07036228 21.39342495 0.00058817 -0.00309122 -0.00680064
N 0.18232065 24.74777774 1.04391861 -0.00379917 -0.00098892 0.00194258
N 1.86603818 23.60395944 5.84239710 -0.00059078 0.00688776 -0.00645335
N 2.02562324 28.05931951 7.93125280 0.00078450 -0.00436201 -0.00473801
N 3.54608906 19.85720362 3.45904686 -0.00142811 0.00107465 0.00708450
N 1.69910521 22.99928332 1.40428575 0.00349083 0.00268068 0.00253977
N 0.46612161 25.36389660 6.32815249 0.00567057 0.00376839 -0.00797315
N 3.27796116 20.64434299 7.66421905 0.00039939 0.00856787 -0.00093520
N 2.18935142 27.43187275 3.06694630 -0.00168478 -0.00146031 -0.00952220
N 0.20150584 24.52753666 10.80400203 -0.00275879 -0.00026651 -0.00397641
N 1.68648041 23.40361927 15.21121094 -0.00501067 0.00341395 -0.00325977
N 2.17861932 28.06230925 17.22263710 0.00587509 -0.00293432 0.00012336
N 3.60046329 20.07414258 12.63879159 0.00531040 0.00452510 -0.00807396
N 1.66001461 22.74640834 11.08875886 -0.00478807 0.00378916 0.01045332
N 0.37729018 25.13454886 15.99522887 -0.00682479 0.00278401 -0.00673965
N 3.56314124 20.16961297 16.80491597 -0.00107012 -0.00124810 0.00088976
N 2.05873877 27.68606735 12.49415025 -0.00065136 0.00523248 -0.00343792
N 0.40443450 24.21143307 19.68820676 -0.00382679 0.00106154 -0.00121434
N 1.82604098 23.34307201 24.09743266 -0.00359249 0.00252267 -0.00649714
N 2.11376033 28.43486732 26.48851435 -0.00063021 -0.00317518 -0.00049588
N 3.32533439 19.86714420 22.12631816 0.00630559 -0.00632076 -0.00479337
N 1.51693971 22.24078160 19.50747340 0.00689276 0.00274144 -0.00911107
N 0.69946834 25.43861153 24.47912832 -0.00207686 0.00036921 0.00084597
N 2.96521634 20.51242505 25.98786238 0.00732852 -0.00141373 -0.00294737
N 1.95898453 27.78685456 21.60613275 0.00361054 -0.00494274 -0.00433565
N 3.78043376 5.51789698 1.01588201 -0.00092630 0.00147888 0.00319694
N 4.94347081 3.97166521 5.90269452 0.00257498 -0.00613161 0.00183394
N 5.79245591 8.73943016 7.97486788 0.00153140 0.00126610 0.00002777
N 7.04774594 0.61761985 3.71443166 0.01032332 0.00018618 -0.00389318
N 5.15784095 3.70869758 1.49387076 0.00528553 -0.00873197 0.00725802
N 3.90687293 6.02778392 6.03538875 -0.00251677 -0.00155559 -0.00138357
N 6.98644960 1.33593066 7.72747338 -0.00109018 0.00339817 0.00397509
N 5.89212742 8.37910294 2.89823365 -0.00245915 0.00268653 -0.00206943
N 3.90102889 5.42540658 10.34448572 0.00060510 -0.00411310 -0.00023523
N 5.01017524 3.96079076 14.98188947 0.00181195 -0.00377304 -0.00373063
N 5.70107188 8.64060695 17.41161134 0.00112688 -0.00788645 -0.00621020
N 7.11533810 0.72489226 12.55948141 0.00232788 -0.00758289 0.00496635
N 5.03555335 3.48158519 10.77030907 0.00659596 -0.00374475 -0.00388518
N 3.61166076 5.84190799 15.14388218 0.00211826 -0.00660179 0.00243893
N 6.59708038 1.12736898 17.06978424 -0.00025204 0.00375566 0.00816383
N 5.70241565 8.51150970 12.30775792 0.00213058 0.00039471 0.00567459
N 3.83510085 5.46463238 19.60353711 -0.00262614 0.00016329 0.00167765
N 5.08640466 4.42204570 24.15901782 -0.00104185 0.00501982 -0.00936878
N 5.81733763 9.10404244 26.13184685 -0.00466395 0.00327428 -0.00196747
N 7.01743969 0.78285201 21.90340963 -0.00312149 -0.00323581 0.00251133
N 5.19476697 3.58303604 19.98375991 -0.00117193 0.00028801 -0.00053598
N 3.68344920 6.22334732 24.41943549 0.00123247 0.00069541 -0.00236891
N 6.58188416 1.28112062 25.86133434 0.00491262 -0.00379360 0.00911604
N 5.60006540 8.43883254 21.24193226 -0.00030216 -0.00926535 0.00133309
N 3.78105155 14.79560784 0.80936088 -0.00315219 0.00469109 -0.00164379
N 5.34953090 13.56073264 5.73940471 0.00713886 -0.00472611 -0.00129810
N 5.45557345 18.82285343 8.03354434 0.00120384 0.00889117 -0.00258102
N 7.01068491 10.31907253 3.43205797 0.00240561 -0.00171398 -0.00439648
N 5.27734009 13.21721023 1.62237671 -0.00725482 -0.00035501 0.00469172
N 4.11644808 15.47447421 6.08918634 0.00731013 0.00127756 0.00145531
N 6.79135027 10.79861756 7.72984914 0.00507280 -0.00414975 -0.00357658
N 6.08252778 18.07484228 3.49801194 -0.00074430 0.00110366 0.00709768
N 3.85868284 15.28848059 10.44055653 -0.00290521 0.00088760 -0.00018120
N 5.32960913 13.68334154 14.88891217 0.00487126 -0.00864658 -0.00222935
N 6.22541438 18.38488889 17.43680591 0.00648031 -0.00140979 -0.00305646
N 6.96569482 10.44644701 12.67000344 -0.00353690 -0.00164353 -0.00453748
N 4.85983125 13.20956575 10.73892395 -0.00181091 0.00849566 0.00266731
N 3.89637996 15.46803192 15.36833184 -0.00098800 -0.00208013 0.00164066
N 6.69896824 10.61309740 16.71005554 -0.00256237 -0.00102633 -0.00861290
N 5.79144174 18.04608144 12.37523751 0.00490396 0.00514214 -0.00259297
N 3.97202162 15.04753819 19.17221688 0.00002511 0.00048561 0.00064205
N 5.00507685 13.82827752 24.18426148 0.00187232 -0.00241777 -0.00309574
N 5.47802036 18.31240578 27.41301996 -0.00045519 0.00376725 0.00014955
N 7.11712948 10.23037345 21.55499684 0.00401251 -0.00128768 -0.00160392
N 4.91576124 12.98285789 19.62035493 0.00028406 -0.00105754 0.00111460
N 4.09044689 15.97193181 24.67363878 -0.00119740 -0.00103876 -0.00232825
N 7.21626707 10.86637486 25.91342024 0.00252796 0.00181515 0.00650192
N 5.70006236 17.95048038 21.55428107 -0.00288190 -0.00668215 -0.00979286
N 4.20507981 24.64694004 1.38335392 -0.00445289 0.00054438 0.00180915
N 5.34808992 23.64975641 6.11098805 -0.00194667 -0.00333392 0.00360349
N 5.71136325 28.21815451 8.31177553 0.00011286 -0.00192322 0.00191937
N 7.21820512 20.06034495 3.86461837 0.00024191 -0.00900078 0.00041897
N 5.09842766 22.60210622 1.20404178 -0.00189727 0.00470925 0.00369149
N 4.07924438 25.56181240 6.24160388 0.00214318 -0.00550739 0.00736464
N 7.05611631 20.43438455 7.97457454 -0.00435168 0.00238985 0.00155677
N 6.07970570 27.34635274 3.21382073 0.00186836 -0.00125935 0.00227197
N 4.13492891 24.76709412 10.31172954 0.00586124 -0.00201512 -0.00205522
N 5.29063405 23.05692205 14.85980256 -0.00750449 -0.00028445 0.00122500
N 5.36823283 27.97617841 17.28728797 0.00291156 -0.00214860 -0.00017499
N 6.90241344 20.01933370 12.79626993 -0.00421922 -0.00553654 0.00080939
N 5.06561925 22.70110258 10.70749988 -0.00664377 -0.00380419 0.00390024
N 4.09854156 25.01551889 15.44306126 0.00423734 0.00200240 0.00146100
N 7.21699721 20.40604861 16.63980634 -0.00164394 0.00272173 0.00110452
N 5.92373913 27.55583911 12.15460379 -0.00441703 0.00055875 -0.00094487
N 3.91646118 24.86644507 19.49770580 0.00375988 -0.00401232 -0.00696947
N 5.16648606 23.33398327 24.30952448 0.00037958 0.00450329 -0.00206709
N 5.73729206 27.98108851 26.48922064 0.00044868 -0.00349382 -0.00108859
N 6.84253043 19.76160207 22.27247949 0.00961841 -0.00600694 -0.00169250
N 4.96458095 22.86692729 19.86842255 0.00154610 0.00078700 0.00245576
N 4.01723449 25.34445241 24.20071851 -0.00376734 0.00063099 -0.00290740
N 6.86695991 19.71971704 26.08072938 -0.00110788 0.00307141 0.00264673
N 5.75532522 27.62125014 21.68645271 -0.01048209 0.00831684 -0.00151969
N 7.68035464 5.58989912 0.70695471 0.00260869 -0.00414776 -0.00512631
N 9.17881745 4.21903935 5.22631155 0.00661338 -0.00038677 -0.00198390
N 9.21964893 8.86620339 8.12645228 -0.00344864 -0.00376238 -0.00062390
N 10.67808951 0.67709209 3.26128304 0.00240746 0.00591461 -0.00570381
N 8.88366712 3.60731706 1.17502978 0.00242390 -0.00126023 -0.00222475
N 7.67389468 5.90540466 5.97755409 0.00158030 -0.00529871 -0.00367458
N 10.81551681 1.54124199 7.53940496 0.00565030 -0.00185068 0.00453040
N 9.63849230 8.46566131 3.63691452 -0.00500941 0.00443924 -0.00627838
N 7.44317051 5.43670945 10.50397117 -0.00107921 0.00407374 -0.00591795
N 8.91426381 4.12579002 15.00717431 0.00233818 -0.00381300 0.00778714
N 9.04409947 8.91345883 17.04573819 -0.00495179 -0.00188100 0.00123692
N 10.77454592 0.69058107 12.33540366 -0.00222480 0.00031961 -0.00380789
N 8.74608854 3.57180205 10.57147721 0.00000786 0.00867241 -0.00092916
N 7.39693424 5.88389101 15.23801078 0.00766725 0.00372402 -0.00204266
N 10.54325946 1.34713880 16.71402549 -0.00242231 0.00020364 0.00490935
N 9.45712295 8.21877211 12.35897528 -0.00074661 0.00025384 -0.00114726
N 7.48093684 5.30156530 19.34201831 -0.00020437 0.00459618 0.00054941
N 8.61446641 4.24736036 23.85758144 -0.00709274 -0.00400050 -0.00119613
N 9.49496630 9.02624999 26.75212373 0.00083269 0.00342453 0.00041094
N 10.71635040 0.73877462 21.45177367 0.00079374 0.00016972 0.00289002
N 8.86834354 3.53137378 19.57552992 0.00273227 0.00565584 0.00507669
N 7.38499380 6.15601850 24.03117387 -0.00096062 -0.00126152 -0.00191598
N 10.51791692 1.60360651 26.00515766 -0.00083611 0.00581202 0.00496940
N 9.32737045 8.31865157 21.49587806 -0.00287192 0.00065001 -0.00401216
N 7.47516990 15.24630199 1.40807039 0.00059076 0.00111047 0.00236768
N 9.15323003 13.78475635 6.23715113 0.00022982 0.00133202 -0.00526585
N 9.52700840 18.73843650 8.19287975 0.00458337 -0.00288893 -0.00196249
N 11.14960255 10.24688967 3.63138223 -0.00084701 -0.00511345 -0.00156134
N 8.78827427 13.26007980 1.44398779 -0.00967338 0.00294947 0.00046047
N 7.67102823 15.61988207 6.53540941 -0.00133244 -0.00440812 -0.00283059
N 10.47950941 10.81537185 8.09146907 -0.00046597 0.00692537 -0.00061385
N 9.85225816 17.86433864 3.13449612 -0.00862827 -0.00475006 -0.00139042
N 7.35211215 15.11129321 10.62196402 -0.00019245 -0.00118553 0.00839222
N 8.27617207 13.52666968 14.83263033 -0.00601482 0.00732447 0.00293012
N 9.61761433 18.60395408 16.82707545 0.00689169 0.00185813 0.00260472
N 10.80975184 10.10897108 12.40873667 0.00482087 -0.00201823 -0.00564853
N 8.55371567 13.17525184 10.84757024 -0.00477090 -0.00159393 0.00190956
N 7.54623400 15.70184303 15.07591790 0.00458269 -0.00471577 -0.00112931
N 10.55742842 10.60136082 16.54763903 0.00103372 -0.00655663 0.00031460
N 9.42471316 17.78018261 12.26104126 0.00154855 0.00575299 0.00054819
N 7.33538644 15.11483269 19.35849260 -0.00160976 -0.00653991 0.00055523
N 9.02427659 13.82738380 24.31160069 -0.00138253 -0.00098556 0.00508130
N 9.53583783 18.15974533 26.36055517 -0.00342263 -0.00615982 -0.00010078
N 10.17582191 10.48151509 21.98144037 -0.00198740 -0.00359918 0.00036353
N 8.69261085 13.23613822 19.59531556 0.00307438 0.00417432 0.00060102
N 7.65934167 15.66105116 24.38538498 0.00025123 -0.00038826 -0.00373860
N 10.81921035 10.66915767 25.98945298 -0.00537821 0.00310022 0.00164353
N 9.85674035 18.00439683 21.15318254 0.00227178 0.00209858 -0.00057033
N 8.11193184 24.63738072 0.90257354 0.00128100 -0.00170120 -0.00276440
N 8.68135353 23.27144608 5.50500757 0.00351424 -0.00610808 0.00438315
N 9.80410700 28.16613820 7.79441574 0.00553877 0.00091111 -0.00112573
N 11.26320681 19.81380538 3.34587111 0.00436693 0.00049555 -0.00438160
N 9.01414056 22.51238221 1.35304802 -0.00120145 -0.00606413 -0.00501039
N 7.84299234 25.33129653 6.00517919 -0.00179569 -0.00216437 -0.00562260
N 10.91502148 20.52524045 7.43325923 0.00186088 -0.00446959 -0.00250835
N 9.80534677 27.39058461 2.92978318 -0.00277739 0.00166650 0.00452457
N 7.35283185 24.63787618 10.39131430 0.00540594 -0.00404761 0.00506410
N 8.88745072 23.54040090 14.91743598 0.00172444 -0.00071111 0.00207119
N 9.10699611 28.26302827 17.00324904 0.00530274 0.00412630 -0.00013927
N 10.57986378 19.73264492 12.12745389 -0.00283068 0.00030982 -0.00032784
N 8.75300615 22.68749559 10.44284861 0.00553291 -0.00214048 -0.00249041
N 7.47634464 25.50392145 14.82419509 0.00067129 0.00068424 0.00037603
N 10.98789731 20.44012770 16.55169049 0.00451681 0.00828844 -0.00062675
N 9.29439374 27.68471046 12.02697001 0.00026069 -0.00029352 0.00005225
N 7.53640569 24.30272630 19.65039114 -0.00000610 0.00237555 0.00144237
N 9.03390838 23.30265095 24.61306328 -0.00853544 -0.00468418 0.00784001
N 9.35051419 28.40555955 26.16893995 -0.00449664 -0.00035116 0.00471305
N 10.97492934 19.95317647 21.68783229 -0.00337229 0.00188675 0.00545314
N 8.62220990 22.30046999 19.86333858 -0.00373415 -0.00396206 -0.00070587
N 7.65917423 25.18304461 24.51522945 -0.00079560 0.00055292 -0.00249407
N 10.34834435 20.32017557 25.89193472 -0.00343573 0.00290614 0.00130957
N 9.47203807 27.55871967 21.37812668 0.00148811 0.00172968 -0.00023062
N 11.14263451 5.33034987 1.69675139 -0.00151271 0.00129098 0.00211801
N 12.25711575 4.37139386 6.14280925 -0.00534785 -0.00392725 0.00360386
N 13.02243686 9.13974797 7.97570457 0.00364437 -0.00042803 0.00033277
N 14.69380483 0.72359136 3.30857687 0.00625234 0.00282452 0.00698159
N 12.72317749 3.64451975 1.64141398 0.00534483 0.00380564 0.00435953
N 11.08774658 6.32659049 6.43814560 0.00132510 -0.00165017 -0.00100421
N 14.34875325 1.20690045 7.56552009 -0.00750944 -0.00176233 0.00552426
N 13.25849337 8.21877991 3.18306318 -0.00479972 -0.00660416 -0.00092190
N 11.23495695 5.70126041 10.56536006 -0.00265730 -0.00034308 0.00282643
N 12.77579415 4.08394283 15.04062000 0.00353575 -0.00242635 0.00293314
N 13.31745668 8.61979844 17.06329558 -0.00730940 0.00014278 0.00267747
N 14.19814452 0.89763787 12.82288941 0.00084215 -0.00558061 -0.00545939
N 12.44101694 3.79395426 10.88700039 -0.00509051 0.00296520 0.00568017
N 11.32844635 5.95790648 15.11079455 0.00002315 -0.00213881 0.00675944
N 14.38586086 1.04592516 16.85562234 -0.00151335 -0.00382270 0.00615580
N 13.22938445 8.28776742 12.05304716 0.00106150 0.00270520 0.00048439
N 11.31614631 5.49526756 19.66661328 -0.00565025 -0.00285456 0.00351824
N 12.21745376 4.51157144 24.18210070 -0.00455042 0.00197330 -0.00524718
N 13.51869336 8.92055664 26.51450858 -0.00189729 -0.00558392 -0.00264242
N 14.55724358 0.81679484 21.49540832 -0.00363075 -0.00015086 0.00240749
N 12.79221072 3.64784965 19.81742017 -0.00538370 -0.00070960 0.00163028
N 10.99803404 6.44625131 24.43290864 0.00314428 0.00057688 0.00501565
N 14.42215299 1.51670179 25.87296992 0.00027366 -0.00197236 0.00771544
N 13.09022716 8.19556290 21.54301800 -0.00049614 0.00072115 0.00399791
N 11.37246888 14.92761803 1.27759185 0.00767691 -0.00206359 -0.00515701
N 12.91807380 13.47511375 5.61699716 -0.00196499 -0.00232550 -0.00103419
N 12.98447468 18.32616207 7.67107152 0.00181684 0.00579586 -0.00379603
N 14.48687718 10.28525931 3.60526468 0.00883835 0.00104219 0.00963522
N 12.65075967 13.01992926 1.14602985 -0.00153305 -0.00448781 -0.00219783
N 11.58087038 15.35386057 5.99931537 -0.00180589 0.00234569 0.00662619
N 14.52565351 10.88100731 7.82567557 -0.00425162 -0.00459710 0.00327634
N 13.29056933 17.70561409 3.25933678 -0.00577129 0.00544859 0.00169999
N 10.84666470 15.03804797 10.47302696 0.00112790 -0.00018495 0.00273901
N 12.76295884 13.81855096 14.80869677 -0.00260154 -0.00488174 -0.00469466
N 13.26165718 18.47369478 17.13261734 -0.00391640 0.00235959 0.00562103
N 14.24787538 10.20038272 12.48468438 -0.00181368 0.00226527 -0.00548611
N 12.35752844 13.27212224 10.46683182 -0.00555490 0.00332484 0.00111859
N 11.25765827 15.45909114 15.18223924 -0.00302696 -0.00056030 -0.00242385
N 13.93713863 10.80446007 16.75503675 -0.00045118 0.00254655 -0.00082630
N 13.04523897 17.85285067 12.46225913 0.00217270 -0.00090885 -0.00068584
N 11.47377694 14.85875803 19.22079715 0.00260999 0.00623947 0.00419801
N 12.73164165 13.74576161 24.10163388 0.00082928 0.00276732 0.00366657
N 13.13698645 18.46422207 26.86564888 -0.00342803 0.00851489 0.00755952
N 13.81841928 10.45000101 21.78991365 -0.00010410 0.00155888 0.00327320
N 12.22822988 12.74241172 19.26357926 -0.00109123 -0.00663819 0.00375803
N 11.70330278 15.68083489 24.50575089 -0.00036143 0.00237926 -0.00054220
N 14.53917953 10.98403868 26.06806594 -0.00307182 0.00286370 -0.00203303
N 13.50038573 18.21801149 21.35045295 0.00077365 -0.00770183 -0.00700891
N 11.77529926 24.96343146 0.80013621 -0.00046080 0.00723465 -0.00253789
N 12.80282231 23.39425781 5.60758114 0.00004522 0.00209900 -0.00312711
N 12.97261041 28.16298775 8.06867188 -0.00300874 -0.00626450 -0.00105565
N 14.41249370 19.74134797 3.31587746 0.00536644 0.00097133 0.00039424
N 12.41046922 22.77584824 0.98809069 -0.00566939 -0.00276733 -0.00873218
N 11.48005345 25.34697330 5.61267083 0.00579191 0.00385701 -0.00101074
N 14.28489427 20.18643456 7.68799217 -0.00179239 -0.00220490 0.01029676
N 13.33563906 27.68961891 2.76847071 0.00159358 -0.00388878 0.01002582
N 11.20884314 24.80850256 9.95917809 -0.00326770 -0.00150332 -0.00174402
N 12.30213740 23.23203470 14.88576356 -0.00524035 -0.00072137 -0.00222440
N 12.91028696 28.00245030 17.26741263 0.00031395 0.00158388 -0.00800225
N 14.53592115 19.61332743 12.58425564 -0.00294691 0.00196474 0.00190457
N 12.06268040 22.77904705 10.65153472 -0.00430707 -0.00009824 -0.00579507
N 11.22684698 25.15479201 15.21891242 -0.01136959 -0.00078637 -0.00459756
N 14.43705283 20.40574294 16.75951934 0.00126417 0.00113447 -0.00550485
N 12.90282571 27.74617123 12.51005884 -0.00569635 -0.00512073 -0.00282084
N 11.31455540 24.82287583 19.35651172 0.00384712 -0.00501836 0.00275032
N 12.69941213 23.35785903 24.00084320 -0.00213845 0.00756492 -0.00372559
N 13.11696443 28.37836045 26.10039747 0.00327464 0.00859045 0.00610685
N 14.62899796 20.13551608 21.85180364 -0.00084246 -0.00001948 -0.00312302
N 12.59535014 22.92420495 19.41483944 0.00557735 0.00078508 0.00401890
N 11.35883154 25.14839846 24.41779108 0.00069165 0.00180245 0.00102197
N 14.41263414 20.20129760 25.93433649 0.00068375 0.00327219 -0.00601244
N 13.24326994 27.71306958 21.63758025 0.00090805 0.00147034 -0.00402437
N 14.73020987 5.62399665 1.03436363 -0.00571066 -0.00665162 0.00960890
N 16.49768918 3.93937293 5.71409009 0.00070444 -0.00723882 -0.00406296
N 16.55418565 8.86010177 7.86405267 0.00617531 -0.00207893 0.00620981
N 17.95604822 0.73844747 3.34605486 0.00341428 -0.00389829 -0.00073093
N 16.22599156 3.89003732 1.51105856 0.00045483 -0.00241365 -0.00425663
N 15.07718778 5.67346107 6.35786320 0.00461284 -0.00936872 0.00222589
N 18.05354518 1.07088595 7.96536911 -0.00082198 0.00048487 -0.00079236
N 16.87982483 8.06579136 3.32148723 0.00064193 0.00062792 0.00497518
N 14.80137037 5.34734734 10.05399669 -0.00589900 0.00343418 0.00673684
N 16.19200873 3.98581464 14.85353918 -0.00670256 0.00116915 -0.00102820
N 16.44716312 9.09546904 16.68939320 -0.00401400 -0.00077094 -0.00027240
N 18.05519460 0.30599350 12.55992577 0.00184324 -0.00733326 -0.00627146
N 16.22725590 3.59786113 10.74174623 -0.00146306 -0.00279723 0.00214805
N 15.18200262 6.06588285 15.06213808 0.00592820 -0.00487481 -0.00527063
N 17.54056691 1.15880225 16.99559612 -0.00006136 -0.00077294 0.00018996
N 16.97592776 8.10608667 11.87415467 0.00314986 0.00178906 -0.00183298
N 15.08144655 5.73290283 19.39231355 -0.00127531 0.00101861 0.00022738
N 16.04263859 4.46013111 24.08992422 -0.00930463 0.00171134 -0.00093945
N 17.18954683 9.62947180 26.19467153 0.00210375 -0.00065865 -0.00036484
N 17.96457917 0.70031953 22.06485864 -0.00251322 -0.00196535 -0.00680273
N 16.10027213 3.62250279 19.68575275 -0.00053416 0.00453394 -0.00381880
N 14.63661204 6.22506564 24.32942315 0.00095246 -0.00312995 -0.00550516
N 17.89679727 1.30083820 26.24211438 -0.00185293 0.00828475 0.00056064
N 16.72994727 8.84899092 21.47408577 0.00518790 0.00249153 0.00030307
N 14.98425117 15.10798135 1.20617912 0.00002340 -0.00588127 -0.00462484
N 16.45904253 13.56404539 5.70205190 0.00286657 0.00051060 -0.00188995
N 16.71211085 18.20157957 8.23366521 -0.00329101 0.00023314 -0.00113941
N 17.77630376 10.17366904 3.41808499 -0.00043826 -0.00016286 0.00471981
N 16.27766197 13.33262499 1.63328650 -0.00179491 -0.00054942 0.00908861
N 15.23087968 15.38788449 6.16905138 -0.00208839 -0.00228075 -0.00039663
N 17.96314140 10.62877715 7.27315632 0.00276209 -0.00181055 -0.00796800
N 17.05745370 17.87619397 2.98386976 0.00678643 -0.00214955 0.00033482
N 14.68508132 14.92791232 10.46056869 -0.00083255 0.00329719 -0.00232727
N 16.24253633 13.65171595 15.06184897 0.00405296 -0.00069225 -0.00390499
N 16.87966339 18.37628534 17.20745227 0.00397144 0.00123737 0.00495079
N 18.11683923 10.04840450 12.18703743 -0.00033984 -0.00193455 0.00015791
N 15.97066644 13.05863038 10.45944295 -0.00396921 -0.00413570 -0.00078379
N 15.02200502 15.63976190 14.92795568 0.00120664 0.00732967 -0.00343432
N 17.85304080 10.84586786 16.79929441 0.00942569 -0.00042410 -0.00425900
N 16.80691585 17.82350091 12.39506533 -0.00393171 -0.00087569 0.00592544
N 14.72118935 14.86054490 19.67337183 -0.00034282 0.00203495 0.00155135
N 16.24811283 13.52232289 23.99064500 -0.00050892 0.00122939 0.00110931
N 16.77813506 18.44687251 26.24769802 -0.00238368 -0.00432338 0.00417831
N 18.04604020 10.70409293 21.87708548 0.00069294 0.00052496 0.00176153
N 15.49514700 12.65049430 19.83522897 -0.00115750 0.00154451 0.00928698
N 15.31446580 15.53396179 24.60678209 -0.00482232 -0.00014417 0.00887785
N 18.16667597 11.66665606 26.12863405 -0.00540362 0.00206074 0.00375118
N 16.81870155 17.67435889 21.46581358 -0.00011667 0.00020923 0.00734558
N 14.73444915 24.82275359 1.17613405 -0.00389063 -0.00129078 0.00694980
N 16.46674951 23.33344184 6.04705438 0.00155291 0.00222191 0.00082639
N 16.66943463 28.00488716 7.88856704 0.00497959 -0.00451960 0.00554389
N 18.44159064 19.76141561 3.07687250 0.00628314 -0.00123999 -0.00052473
N 16.07301386 22.95781829 1.52730474 -0.00318083 0.00535467 0.00207885
N 15.08297775 25.25407788 6.05146332 -0.00147771 -0.00533671 0.00518458
N 17.78569251 20.31309115 7.72331963 -0.00196552 -0.00055498 -0.00568429
N 17.10332759 27.39619630 3.06177171 -0.00032671 -0.00156399 -0.00782272
N 14.67640339 24.63884890 10.39013864 -0.00015852 -0.00428669 -0.00256853
N 16.40333735 23.30721765 14.88332689 -0.00051754 -0.00395613 0.00020899
N 16.42049201 27.99769940 17.28915973 0.00271707 -0.00322045 -0.00431855
N 17.56563430 19.96659517 12.61648598 0.00424529 0.00153838 0.00721192
N 15.74806023 22.71581247 10.63607678 -0.00287011 0.00287343 0.00321862
N 14.91445396 25.18538471 15.18940477 0.00510374 0.00372951 -0.00765721
N 17.95710573 20.37960410 16.83765132 -0.00340568 0.00160792 0.00549929
N 16.42161216 27.47206192 12.06867377 0.00351112 -0.00236052 -0.00047310
N 15.02459978 24.87513217 19.74314542 -0.00180730 0.00568629 0.00404034
N 16.34396196 23.35500078 24.10544669 -0.00699007 -0.00391031 0.00257568
N 16.59772653 28.17964508 26.52293512 -0.00242057 0.00172175 -0.00027705
N 18.20004695 19.57588867 21.66022270 -0.00096219 0.00281311 -0.00201921
N 16.27576779 22.96465214 19.92322027 -0.00298942 -0.00194742 0.00739609
N 15.29878609 25.39648103 24.56000423 -0.00232887 0.00185512 0.00865872
N 17.97080142 20.40893996 25.98248285 0.00001552 0.00248434 -0.00080276
N 16.84160333 27.65333106 21.67329506 0.00412256 0.00114733 0.00004843
N 18.73432659 5.67288638 1.36538496 0.00369010 -0.00416062 -0.00205065
N 20.15218795 4.29570349 5.94318909 -0.00321807 0.00226821 0.00279033
N 20.83497751 9.07288452 8.38361006 0.00283027 0.00212364 0.00254671
N 21.60126803 0.36868729 3.25903125 0.00479338 0.00070502 0.00435274
N 19.79264343 3.58304345 1.70838694 -0.00067991 -0.00460860 -0.00045245
N 18.72205825 6.08667440 6.24074938 0.00132144 0.00180823 -0.00109833
N 21.63390115 1.27358505 8.10228710 0.00595618 0.00261115 -0.00696991
N 20.59799043 8.27595277 3.33158676 -0.00055425 -0.00847601 -0.00344646
N 18.64242196 5.25040324 10.24274643 -0.00384832 -0.00065670 -0.00005077
N 19.38564888 3.94836460 15.19394460 -0.00403875 -0.00071228 0.00186357
N 20.17149401 8.90291247 17.47571570 0.00029203 -0.00452142 0.00157160
N 21.45632348 0.93654289 13.14358353 -0.00672713 -0.00473751 -0.00110073
N 19.95101915 3.54275279 11.05354021 -0.00324607 -0.00062508 -0.00145163
N 18.46257138 5.97264212 15.30472541 0.00072322 -0.00564988 -0.00619974
N 21.50581673 1.65551938 17.10033884 -0.00410684 -0.00135115 0.00496124
N 20.52435231 8.30442698 12.61439410 -0.00064924 -0.00262136 0.00200148
N 18.45372073 5.32015233 19.99770639 0.00163518 0.00483873 -0.00348920
N 19.41398607 4.07233592 24.54434536 -0.00372067 -0.00028976 -0.00037077
N 20.60963675 8.92441878 26.63836165 -0.00315407 -0.00301955 -0.00161471
N 21.54456787 0.75125586 21.91260537 -0.00490112 -0.00295621 -0.00112017
N 19.83605085 3.47394087 20.37653761 0.00148513 0.00058809 -0.00302872
N 18.38620941 6.11316358 24.78653479 -0.00318541 0.00735205 0.00092597
N 21.42195095 1.62797920 26.13085190 -0.00489301 -0.00414823 0.00120188
N 20.33966739 8.44732094 21.51622343 0.00083146 -0.00598010 -0.00441161
N 18.75128346 15.04758530 1.08735751 -0.00422540 -0.00710634 0.00064002
N 20.18968166 13.62989687 5.48710299 0.00120276 -0.00297564 0.00423043
N 20.17352113 18.34123201 7.90008116 0.00253966 0.00114858 0.00073336
N 21.76464714 10.29759995 3.55339907 -0.00347816 -0.00118466 0.00680045
N 20.04893016 13.24673517 1.68895227 -0.01258877 0.00167603 -0.00548645
N 18.90113410 15.38730952 6.27528168 0.00473234 -0.00491717 -0.00090083
N 21.83060844 11.08117381 7.84964732 0.00004627 0.00693748 0.00567557
N 20.72333570 17.91543699 2.84683616 0.00005105 -0.00006247 -0.00196240
N 18.43028348 15.12093470 9.97567486 0.00714817 -0.00410900 0.00353932
N 19.78190304 13.37579218 14.46553424 0.00500278 0.00275214 -0.00634551
N 20.15628384 18.36567596 17.21519854 0.00488926 0.00012547 0.00202377
N 21.48915031 10.42812765 13.19293708 0.00569119 -0.00270913 -0.00117250
N 19.75049377 13.26639672 10.47775790 -0.00279878 -0.00548009 0.00123922
N 18.65465277 15.35538771 15.18630041 -0.00037114 -0.00015866 0.00539874
N 21.61383246 10.61516435 17.03805359 -0.00358683 0.00017017 0.00082412
N 20.39161791 17.96160911 12.78850324 -0.00490092 0.00411224 0.00914914
N 18.61250834 15.16405562 19.35724013 0.00572202 0.00014767 -0.00781960
N 19.99412763 13.54508560 24.10722135 -0.00094184 -0.00226271 0.00241080
N 20.26894092 18.46166090 26.44343132 -0.00691223 -0.00529335 -0.00066592
N 21.89738271 10.03476493 21.90102353 0.00358108 -0.00928996 -0.00536535
N 19.70068047 13.12785122 19.64256516 0.00101373 0.00276601 0.00679250
N 18.44507910 15.20937077 24.54445786 0.00512463 0.00210104 -0.00135832
N 21.38709742 11.00980737 26.34580286 -0.00039197 0.00196646 -0.00686589
N 20.64665459 17.61583746 21.69020749 -0.00277899 0.00395740 -0.00032404
N 18.58831515 24.46507236 1.67526213 -0.00188585 -0.00676475 -0.00210136
N 19.71608265 23.10071403 5.86632711 0.00109867 0.00504363 0.00186278
N 20.72719665 27.92696697 8.39782339 -0.00066212 -0.00030344 0.00892010
N 0.05664417 19.64105272 3.42815103 -0.00403830 0.00365677 -0.00109377
N 19.93530093 22.66052619 1.51735530 -0.00129658 -0.00276430 0.00166342
N 18.81489547 25.24081257 6.21591927 0.00010557 -0.00060003 0.00532695