1728
Time=56000.00000004 pbc="T T T" Lattice="22.07586590 0.00000000 0.00000000 0.00000000 28.90172412 0.00000000 0.00000000 0.00000000 27.32434414" energy=-10389.25172275 virial="16.37269077 3.56142689 -6.86846323 3.56142689 15.33794128 -28.80613414 -6.86846323 -28.80613414 -46.86011852" stress="0.00340445 0.00012302 -0.00041540 0.00012302 0.00327853 -0.00159319 -0.00041540 -0.00159319 0.00012690" Properties=species:S:1:pos:R:3:vel:R:3
N 0.56408405 5.63566293 0.97632704 0.00014119 -0.00052999 -0.00089056
N 1.70830954 4.45697665 5.86446431 -0.00342330 0.00037879 0.00065458
N 2.12779926 9.40483519 8.13051745 -0.00292674 0.00192407 -0.00587768
N 3.35801421 0.74863247 3.30754467 -0.00064109 0.00984885 -0.00111523
N 1.67276864 3.64635039 1.52593592 -0.00014109 -0.00693800 -0.00223578
N 0.18834770 6.37817634 6.14104939 -0.00642462 0.00697948 -0.00528680
N 3.28641727 1.41854322 7.75896317 -0.00221797 -0.01320344 0.00334200
N 2.44754922 8.47747732 3.01282196 -0.00167352 0.00783068 -0.00405445
N 0.18750587 5.26982928 10.46831282 0.00059572 -0.00408571 -0.00597574
N 1.45332385 4.11401179 15.07102595 0.00459445 0.00349090 -0.00785007
N 2.01279403 9.33928042 16.87182677 0.01093009 0.00308089 0.00025226
N 3.13065252 0.63553332 12.45536093 -0.00740083 0.00365293 0.00132797
N 1.84434025 3.73417930 10.82335428 0.00690880 -0.00176932 -0.00019406
N 0.37449472 6.06508082 15.38577669 0.00935590 0.00395787 0.00211701
N 3.14222771 1.20635915 16.78443582 0.00323691 -0.00172647 -0.00322376
N 2.55743511 8.10657532 11.97514814 0.00398771 0.00342421 0.00297268
N 0.42686841 5.27310501 19.46699869 0.00758756 -0.00433864 -0.00396511
N 1.63614581 4.41330812 23.99577061 0.00327832 -0.00986073 0.00496837
N 2.20970910 9.09865176 26.41815328 -0.00307934 0.00024990 0.00246397
N 3.67908500 0.75942395 21.73556412 -0.00435126 0.00081218 0.00127255
N 1.61983169 3.28314514 19.87395052 0.00753530 0.00300767 0.00616513
N 0.25241059 6.15543200 24.23699405 0.00532533 0.00289078 -0.00033055
N 3.35557321 1.31232778 25.69279823 -0.00015628 0.00379167 0.00135980
N 1.87065694 8.56575690 21.19645655 0.00269832 -0.00539345 -0.00174793
N 0.63777476 15.16060627 0.98841466 -0.00530036 0.00889704 -0.00220454
N 1.64261727 13.79773896 5.95721804 0.00083846 -0.00336619 0.00046728
N 2.49448648 18.11780067 7.95781031 -0.00079168 0.00509019 -0.00158330
N 3.59025492 10.32930370 3.66172181 0.00521148 0.00875153 -0.00383083
N 1.37226441 13.07301146 1.50207197 0.00450906 -0.00222338 0.00263207
N 0.45814394 15.70720961 5.75143368 0.00321474 -0.00099884 -0.00075488
N 3.31406475 11.27109273 7.59018527 0.00252769 0.00116567 -0.00301229
N 2.99439993 18.20235021 3.07895070 0.00112915 0.00098364 -0.00159738
N 0.52758333 15.26791256 10.49652280 0.00144605 0.00337328 -0.00717991
N 1.48549559 13.87345528 14.81744317 0.00543366 -0.00041446 -0.00324703
N 1.96879037 18.70675804 17.02333690 0.00356879 -0.00355779 0.00298856
N 3.30950600 10.29751241 12.42308642 0.00557254 -0.00142955 -0.00336983
N 1.39968548 13.20580296 10.72466527 0.00825961 0.00155690 0.00449480
N 0.33721624 15.81649596 14.98246293 0.00209679 -0.00261363 0.00630460
N 3.68381140 10.87798118 16.58938926 -0.00461927 -0.00101184 0.00517405
N 2.14791392 18.38636921 12.37691245 0.00267830 0.00233273 -0.00899589
N 21.97389203 15.00145914 19.60256963 -0.00253821 -0.00438595 0.00239525
N 1.82455885 13.75646924 23.87560174 -0.00537738 0.00095821 0.00193341
N 2.21501122 18.81516063 26.18430650 0.00436309 -0.00117056 0.00102751
N 3.32843073 10.23291031 21.65043296 -0.00391620 0.00394911 0.00313846
N 1.16661356 13.02325546 19.53012038 -0.00276222 0.00193407 -0.00744447
N 0.93983781 15.77258945 24.42406045 -0.00738157 -0.00237962 0.00030444
N 3.54604651 10.70990089 25.70139011 -0.00549367 -0.00588470 -0.00913854
N 2.02743039 18.00711056 21.24022161 -0.00585186 0.00224219 -0.00387925
N 0.69522076 25.01097911 0.83170719 0.00087393 0.00122257 0.00021640
N 1.87763450 23.32829238 5.91259502 0.00221262 0.00108559 -0.00325681
N 2.05479356 28.29811477 7.96071464 -0.00059647 0.00293556 -0.00165174
N 3.57612840 20.42627078 3.25725468 0.00778685 -0.00512424 -0.00403487
N 1.23121385 22.74020746 1.36245798 -0.00552842 0.00721075 -0.00150579
N 0.40395545 25.23177321 6.15678058 0.00427417 -0.00064826 -0.00015990
N 3.13446206 20.34178281 7.60155158 -0.00385311 -0.00129937 0.00157323
N 2.38669875 27.52442747 3.38421521 -0.00037349 -0.00129439 -0.00368126
N 0.12862324 24.46193941 10.45905909 -0.00036019 -0.00094744 0.00765285
N 1.63740896 23.64463119 15.07943059 0.00122116 0.00432705 -0.00103569
N 1.79714325 28.30664824 17.13955246 -0.00282841 0.00496691 -0.00293334
N 3.43932914 20.24309832 12.49910944 0.00068761 -0.00119085 0.00365086
N 1.50162853 22.67288788 10.68760344 0.00110550 0.00547687 -0.00365310
N 0.31603184 25.42013647 15.12292348 0.00501401 -0.00458415 -0.00365562
N 3.44766447 20.51774287 16.89041976 -0.00331727 -0.00095634 0.00416510
N 1.91465295 27.60002301 12.06248104 0.00144431 0.00139385 0.00431277
N 0.30508933 24.87057271 19.02129810 0.00491380 0.00401669 0.00913176
N 1.69074633 23.27944660 23.59021807 -0.00896330 -0.00699729 -0.00177774
N 2.34666016 28.18540579 26.13230532 0.00039821 -0.00260239 0.00085865
N 2.88767881 20.09098489 21.67611396 -0.00155250 -0.00008890 0.00104150
N 1.16254020 22.87711679 19.43492585 0.00055029 0.00166792 -0.00429541
N 0.70969491 25.24719066 24.17911187 0.00405521 0.00567589 -0.00242722
N 3.38077622 20.76972863 25.58928361 -0.00569118 -0.00279110 0.00438124
N 2.28362452 27.89609201 21.36592088 0.00969061 0.00306453 0.00225107
N 3.80077591 5.37306405 1.14969774 -0.00283815 -0.00049702 -0.00273848
N 5.32235266 3.99723951 5.57137961 0.00319741 -0.00507655 0.00405028
N 5.53974392 8.99380303 7.76229361 0.00354476 0.00147110 -0.00632918
N 7.33270000 0.52956726 3.62192273 -0.01015345 0.00616971 -0.00214593
N 5.16469878 3.56154541 1.64075828 0.00060630 -0.00246173 0.00665586
N 4.11805730 5.94395358 5.95579853 0.00737883 -0.00136939 0.00030578
N 7.04552296 0.93346307 7.68119851 -0.00206243 -0.00223289 -0.00198030
N 6.15007612 8.29300680 3.08709115 0.00406488 -0.00033580 0.00562796
N 4.05268392 5.39805320 10.33590233 -0.00560906 0.00550787 -0.00005489
N 5.33642712 4.34659584 14.92223419 -0.00156950 -0.00276660 0.00160643
N 5.94662129 8.79119622 16.96563622 0.00186059 -0.00181404 0.00748719
N 6.95180095 0.62571336 12.32586644 0.00295749 0.00085690 0.00048157
N 5.43055229 3.57494447 10.65694429 -0.00298814 -0.00418018 0.00606730
N 3.89293387 6.09619879 15.08660536 0.00641165 0.00593610 -0.00110531
N 7.05982518 1.39011828 16.57086351 -0.00009948 0.00015400 0.00163415
N 6.10075213 8.60906156 12.12471212 -0.00332720 -0.00225731 -0.00384243
N 4.04645575 5.36081684 19.19328622 0.00434219 -0.00021041 -0.00082432
N 5.38775430 4.46439144 23.97896580 -0.00338952 -0.00016656 -0.00446566
N 5.82338315 8.75520843 26.21874199 -0.00316153 -0.00167146 -0.00153432
N 6.94931682 0.66859140 21.69922650 -0.00563853 0.00202891 0.00266806
N 5.27072868 3.41534140 19.42866581 -0.00614710 0.00254888 0.00277439
N 3.96718137 6.23224690 24.25173377 -0.00740691 0.00211833 0.00553626
N 7.29247635 1.36259879 26.03964627 -0.00150262 0.00721789 -0.00043878
N 5.65987797 8.40085785 21.25793597 -0.00149209 0.00057449 0.00227883
N 4.00495377 14.87499341 1.11848901 -0.00531068 0.00029914 0.00420998
N 4.79313864 13.55662569 5.65214739 -0.00477726 -0.00122381 0.00155633
N 5.81537255 18.62202622 7.91029090 0.00076081 0.00182427 0.00085295
N 7.36757526 10.27095382 3.36378744 -0.00428147 -0.00295939 0.00037234
N 5.06350122 12.90276728 1.52350733 0.00150280 -0.00114400 -0.00316751
N 4.30023953 15.70617235 5.95495034 -0.00104577 0.00174369 -0.00570390
N 6.97002992 10.68121055 7.42988442 -0.00051585 -0.00784718 -0.00380461
N 5.89776173 17.86923788 3.01530387 0.00261576 0.00183228 0.00134593
N 3.79907805 15.22252215 10.01231171 0.00474312 -0.00129415 0.00282525
N 5.11779638 13.84111931 14.94183907 -0.00015249 0.00086696 -0.00120461
N 5.55463721 18.43784962 17.01846954 0.00858264 0.00097899 0.00038093
N 7.02260197 10.66099843 12.52063443 0.00386349 -0.00148239 -0.00065582
N 4.95044993 13.28182278 10.60072809 0.00504898 0.00470813 -0.00092719
N 3.88285109 15.63604201 15.20390632 -0.00525977 0.00354651 -0.00368948
N 6.97105072 10.83320828 16.65022942 -0.00108426 -0.00034048 0.00539586
N 5.89214347 18.02788864 12.30526815 -0.00114282 -0.00211438 -0.00206957
N 3.76183189 14.99408735 19.39454641 0.00148974 -0.00131123 -0.00081118
N 5.38673723 13.90307273 23.97208044 0.00261746 -0.00518672 0.00770812
N 6.12715617 18.92301081 26.21078840 -0.00426280 0.00056165 -0.00752889
N 6.68305342 10.44530071 21.64573300 0.00628084 0.00349213 -0.00192769
N 4.99555781 13.14982343 19.49190964 -0.00409832 0.00484065 0.00644040
N 4.27469696 15.79056898 24.44826058 0.00257971 0.00510171 -0.00006356
N 7.23347991 10.59037141 25.74037302 0.00115275 -0.00194870 -0.00158227
N 6.08485226 18.02719486 21.30162832 -0.00647143 0.00085049 0.00140925
N 3.88700802 25.04110285 1.36765579 0.00106495 0.00238685 0.00019270
N 5.35051137 23.29559222 5.58055340 0.00141049 -0.00198827 -0.00177669
N 5.95138627 27.91240817 8.21586941 -0.00052820 0.00255501 0.00610709
N 6.59855498 19.99628640 3.40504850 0.00036441 -0.00043318 0.00226383
N 5.12031130 23.18959378 1.64025586 -0.00314059 0.00318912 0.00443935
N 4.11593444 25.09639652 6.33357998 0.00060376 0.00382402 -0.00130018
N 7.02250786 20.57506816 7.65730123 -0.00222994 0.00518888 -0.00122172
N 5.98782946 27.58227439 3.25309858 0.00170026 0.00598696 0.00912453
N 3.73882161 24.74013893 10.08070552 -0.00067330 0.00042413 -0.00265844
N 5.19982807 23.33187904 14.98857777 -0.00029363 -0.00401996 0.00316138
N 5.48441872 28.55812272 16.73866320 0.00295032 0.00435993 0.00631673
N 6.96150904 19.96803335 12.71672681 -0.00326744 -0.00613995 -0.00048522
N 5.01596559 22.84996878 10.65234986 -0.00623912 -0.00118086 -0.00410207
N 4.19021149 25.40080975 15.29530417 0.00147192 -0.00088045 0.00191408
N 7.13594987 20.14675399 16.75976300 -0.00362893 0.00096345 -0.00376157
N 5.59150208 27.65068444 12.18500139 -0.00010534 -0.00135940 0.00667828
N 3.67384440 24.75449432 19.64761544 0.00357410 -0.00233134 -0.00289386
N 5.23181355 23.58391140 24.03205332 -0.00160873 -0.00139516 -0.00398932
N 5.69159269 28.59798696 25.92793869 0.00332674 0.00304898 -0.00280194
N 7.10210143 19.93523565 21.80499736 -0.00001940 0.00150836 -0.00225792
N 5.00310428 22.88574616 19.92597997 -0.00511558 0.00192358 -0.00472228
N 4.18803068 25.64679740 24.46192051 -0.00255363 0.00052544 0.00202631
N 7.02537571 21.02290960 25.76289151 -0.00037808 -0.00163928 -0.00389834
N 5.67970218 27.70181836 21.17636016 0.00364126 0.00215285 0.00391110
N 7.52254845 5.39076959 1.20836035 0.00235867 -0.00307218 -0.00386680
N 9.19415054 4.53848828 6.02258669 0.00728874 0.00005831 0.00406606
N 9.36705116 8.83664176 7.67589309 0.00417663 -0.00112594 -0.00335027
N 10.92073199 0.67392174 3.25381361 -0.00391699 -0.00133448 -0.00608489
N 8.59514189 3.44327052 1.66959684 -0.00190346 -0.00262760 0.00430277
N 7.66379506 6.17374117 5.96078300 0.00505456 -0.00070951 -0.00130356
N 10.41116161 1.51376250 7.73238933 0.00013797 0.00095018 0.00003059
N 9.71400749 8.44232156 3.09078593 0.00404820 -0.00497402 0.00607357
N 7.78719941 5.51735356 9.88549367 -0.00503102 -0.00497686 -0.00049083
N 9.13275325 4.15605236 14.55026911 -0.00217596 0.00492773 0.00089900
N 9.26344845 8.53602520 16.82927155 -0.00410340 -0.00022303 -0.00441140
N 10.74755199 0.67544135 12.67882620 0.00318729 0.00327187 0.00280638
N 8.94524399 3.59875827 10.58784332 -0.00049686 -0.00126226 0.00126210
N 7.78930128 5.98633243 15.01554308 -0.00113493 0.00445492 -0.00447301
N 10.56576515 1.05152472 17.16010368 0.00568809 -0.00049455 -0.00385857
N 9.73415659 8.29544520 12.02077049 0.00326830 -0.00881073 -0.00122086
N 7.64456070 5.23896963 19.38647578 -0.00477027 0.00404620 0.00535023
N 8.95548455 4.45395716 23.96386254 -0.00175725 -0.00211043 -0.00218884
N 9.65510950 8.80246934 26.37854272 -0.00008196 -0.00476448 0.00495339
N 10.53244367 0.80052587 21.73659881 -0.00279793 0.00178343 0.00392433
N 8.86998248 3.26180428 19.57564736 -0.00123805 0.00453048 0.00042187
N 7.82269027 6.52681610 24.05052555 -0.00234877 -0.00408516 0.00905922
N 10.63463332 1.37144161 25.89700289 -0.00312019 -0.00378437 0.01142147
N 9.17896018 8.29757230 21.43747876 -0.00200580 0.00493867 -0.00194806
N 7.38445521 14.78403542 1.09613156 -0.00517164 0.00955301 -0.00073541
N 8.57648433 13.64197996 5.76944972 -0.00551387 -0.00208646 0.00572769
N 9.85089501 18.03700726 8.30825713 0.00250892 0.00355416 0.00113577
N 11.02937297 10.28533908 3.40006699 -0.01028082 -0.00155229 -0.00036681
N 8.58907359 12.88314600 1.56108826 -0.00055991 0.00145857 0.00126587
N 7.37183938 15.73657358 6.05589628 -0.00217485 -0.00092645 -0.00697030
N 10.60206180 10.77990565 7.85362804 0.00134021 0.00093406 -0.00269137
N 9.55950831 18.20931449 3.06159725 0.00254627 0.00631920 0.00860242
N 7.44818908 15.09101011 10.13682934 -0.00071880 -0.00596124 -0.00000090
N 8.71876796 13.83862508 14.99459038 0.00176165 -0.00711882 0.00193419
N 9.44644026 18.35299287 17.19851718 0.00537839 0.00041296 -0.00437385
N 10.72242283 10.32510620 12.23784327 0.00226635 0.00003519 0.00225713
N 8.70476099 13.13408036 10.26444458 -0.00250694 -0.00141899 0.00119767
N 7.51639904 15.77442928 15.15833629 0.00801206 0.00381250 -0.00236602
N 10.32106047 10.56800652 16.80637402 0.00137332 0.00171003 -0.00673919
N 9.31111555 17.81813561 12.34285874 -0.00250258 -0.00777491 -0.00136050
N 7.52505228 15.02567416 19.22022570 -0.00449812 -0.00158564 0.00281208
N 9.02351203 13.60715160 23.79464439 -0.00160847 -0.00771130 -0.00021753
N 9.85216021 18.52036414 25.94257938 0.00279545 0.00550751 0.00277819
N 10.67937035 10.04080364 21.74972481 0.00405964 0.00497641 0.00310133
N 8.72084418 13.15896133 19.71370016 0.01106204 0.00354023 0.00277440
N 7.93303560 15.56218638 24.30984778 -0.00238250 0.00256493 -0.00039583
N 10.84795919 10.68051415 25.96773998 -0.00016771 -0.00414885 0.00045566
N 9.47181348 17.76611335 21.21661952 -0.00324534 -0.00199283 -0.00294126
N 7.65649441 24.78059659 1.16622335 0.00319173 -0.00475673 0.00175484
N 8.96037360 23.21316374 5.98849137 0.00084677 -0.00592166 0.00173194
N 9.67976377 28.31745420 7.95879208 -0.00262656 -0.00212539 -0.00187340
N 10.92016457 20.01114790 3.41792273 -0.00425426 -0.00398052 0.00795525
N 8.64143978 22.70967671 1.36608775 -0.00333679 -0.00353662 -0.00544907
N 8.02560089 25.27338756 6.26403280 -0.00306944 0.00122497 -0.00627601
N 10.68606578 20.20996878 7.84263926 0.00318453 -0.00103400 -0.00165638
N 9.56917806 27.71231176 3.18205701 -0.00268698 0.00186837 -0.00854646
N 7.52158341 24.63028673 10.53332569 0.00284835 0.00141716 0.00686235
N 8.69693614 23.42544162 15.34078498 -0.00709775 0.00719875 0.00450721
N 9.19729822 28.09762951 17.26573745 0.00379259 -0.00532249 -0.00253679
N 10.62936066 19.75993271 12.47813553 0.00107246 0.00359301 0.00123235
N 8.81279998 22.74684821 10.91902443 -0.00180044 0.00462615 0.00178220
N 7.58894138 25.45435141 15.29862315 0.00169694 -0.00169511 -0.00035457
N 10.67675522 20.31076955 16.81406380 0.00053915 -0.00359531 -0.00070927
N 9.68403467 27.54100566 12.28936257 0.00211596 0.00209758 -0.00200839
N 7.73744834 24.99941814 19.01121467 0.00779691 0.00169382 0.00468768
N 8.84760628 23.46465140 23.82002814 -0.00058435 0.00573167 -0.00050205
N 9.49827400 28.29317351 26.04518293 0.00533573 0.00428144 -0.00024842
N 10.52844778 19.78619070 21.61079511 0.00345249 -0.00137424 0.00290248
N 8.67108693 23.03900977 19.65511227 0.00269775 -0.00088756 -0.00000287
N 7.64550608 25.36097761 23.98516719 0.00038641 -0.00168069 0.00108666
N 10.55104924 20.69323054 25.93914665 0.00265787 -0.00141595 0.00653622
N 9.62153563 27.53911163 21.43025699 -0.00022684 -0.00467970 0.00221313
N 11.50461297 5.66512948 1.08048988 -0.00139258 -0.00285164 0.00302208
N 12.80481282 4.32877279 5.68440695 -0.00032212 -0.00234396 -0.00167173
N 13.18099974 8.74784097 8.62170079 -0.00655308 -0.00784194 0.00387901
N 14.60683573 0.68039371 3.32307189 0.00246767 0.00368308 0.00069812
N 12.69630211 3.66546156 1.22103574 0.00666440 0.00669723 -0.00291420
N 11.61486007 6.30357834 5.91037451 0.00073260 -0.00447956 0.00504005
N 14.31991492 1.26773859 7.61570399 -0.00389491 -0.00033927 0.00268454
N 13.47279392 8.48185917 3.30604225 0.00458202 0.00231468 -0.00345895
N 11.30729610 5.35512138 10.00082426 -0.00021539 -0.00364921 -0.00069844
N 12.76590850 4.08851472 14.62135261 0.00059087 0.00237154 -0.00209029
N 13.08575753 8.60643076 16.98466585 0.00502177 0.00506963 0.00602029
N 14.31712227 0.91135070 12.49053220 -0.00631802 -0.00244317 -0.00619602
N 12.44283994 3.43628271 10.52582399 0.00442104 -0.00237938 0.00733422
N 11.46333398 5.95481050 15.09126918 0.00251526 -0.00288559 -0.00300824
N 14.29701028 1.43964054 16.59332793 0.00311136 -0.00205913 -0.00157301
N 13.64881722 8.23148780 12.22088882 -0.00332551 -0.00784279 0.00207165
N 11.25110893 5.36143609 19.48369110 -0.00597006 -0.00082718 -0.00080474
N 12.58148869 4.16957847 24.16497526 0.00004745 -0.00564590 0.00313247
N 13.32113304 8.66219882 26.48107168 -0.00404829 -0.00293184 0.00019124
N 14.49734532 0.93683626 21.54598462 0.00041821 0.00673520 -0.00979728
N 12.73140853 3.60291382 19.54737035 -0.00300714 0.00099516 0.00071921
N 11.52979964 6.18413165 24.17689710 0.00050596 -0.00119617 0.00176350
N 14.43814329 1.14628591 25.91407145 0.00560283 -0.00037375 -0.00729846
N 12.90148541 8.08529786 21.19840854 -0.00017296 0.00151765 -0.00869688
N 11.11930691 14.88741079 1.54485266 0.00021783 0.00784518 0.00275538
N 12.69753098 13.56986703 5.91870756 0.00020819 -0.00003423 -0.00002481
N 13.07928816 18.75951876 7.64426119 -0.00122392 -0.00199475 -0.00020922
N 14.77480723 10.38478704 3.60809862 0.00003747 -0.00284737 0.00046160
N 12.49990246 13.01538102 1.38509884 -0.00231855 -0.00360290 0.00670884
N 11.65352973 15.56883831 6.07471239 0.01094780 -0.00147123 -0.00135540
N 14.52397539 10.48065874 7.86436292 0.00327810 -0.00064958 0.00327154
N 13.24310255 17.96657956 2.93541130 -0.00375469 0.00252168 0.00808757
N 11.06922365 14.93844088 10.28938566 -0.00195987 -0.01025390 -0.00761765
N 12.68262553 13.78333331 14.99539257 0.00732483 0.00387728 0.00117163
N 13.03565975 18.58463612 16.95830534 0.00320846 -0.00396655 0.00472847
N 14.37336093 10.35108293 12.77468034 -0.00263649 -0.00276889 0.00498122
N 12.45846641 13.10684597 10.42916716 0.00191706 0.00406170 -0.00150649
N 11.37543602 15.65539587 15.15820324 -0.00045748 -0.00257718 0.00241305
N 14.09905566 10.68828909 16.96352254 -0.00938173 0.00009653 -0.00008444
N 13.26663809 18.09456687 11.91898223 -0.00807502 0.00150076 0.00594480
N 11.13708879 14.68795208 19.26808073 0.00070486 0.00247351 0.00137774
N 12.64011743 13.60464100 24.06550326 0.00269882 0.00191939 -0.00088971
N 12.71709856 18.66100398 26.14749514 -0.00338752 -0.00528715 0.00271527
N 14.25653955 9.87754552 21.74251287 -0.00456349 -0.00638791 -0.00290085
N 12.24044929 12.84297477 19.88746526 0.00162734 -0.00427490 0.01286554
N 11.57751584 15.62473098 24.30603338 0.00405938 0.00571200 -0.00010751
N 14.45804658 10.55256939 25.81229663 -0.00354250 0.00071411 0.00035464
N 13.10762450 18.24933864 21.18767032 0.00171436 0.00637417 0.00125315
N 11.28613602 24.64785115 1.27980802 -0.00445280 0.00053342 0.00147863
N 12.22759623 23.16399045 5.67960799 -0.00136552 0.00082611 -0.00168289
N 12.99635823 28.22575538 7.67792468 -0.00727350 -0.00155692 -0.00542519
N 14.47711038 19.80785342 3.18966991 0.00214319 0.00716141 -0.00259426
N 12.73997722 22.80609340 1.36010368 -0.00635208 0.00130525 -0.00361125
N 11.45448798 25.28495623 6.05560038 -0.00324566 -0.00083852 0.00202445
N 14.25360636 20.74237462 7.45155191 -0.00371556 0.00007823 0.00056301
N 13.16880924 27.69974274 2.96672644 0.00716089 0.00507215 -0.00722488
N 11.24608613 24.92182287 10.14419736 -0.00002837 -0.00278269 -0.00245911
N 12.41910705 23.59369038 14.65959670 -0.00112397 0.00181762 -0.00163637
N 13.27464763 28.25986627 16.80899058 -0.00216916 0.00230392 0.00268762
N 14.34512167 20.06710916 12.13776092 0.00263040 -0.00000383 0.00051523
N 12.05739240 22.67830294 10.63112620 0.00400644 0.00321677 0.00150285
N 11.06960170 25.32666612 15.14557248 -0.00014641 0.00023572 -0.00274928
N 14.04789529 20.55993443 16.44539314 0.00316301 -0.00329490 -0.00036448
N 13.05699314 27.82258814 12.28484842 -0.00111392 -0.00981840 -0.00187343
N 11.02393716 24.81099824 19.24176464 -0.00126495 -0.00044188 -0.00243673
N 12.50385023 23.41551721 23.97859152 0.00280320 -0.00517322 0.00284265
N 13.03063722 28.33136491 26.04208237 0.00359124 -0.00298515 -0.00555822
N 14.32151913 20.21120251 21.42819186 0.00179417 0.00601378 0.00238613
N 12.27550021 22.88990402 19.58858007 -0.00330319 0.00241053 0.00347616
N 11.36030903 25.34873690 24.07005885 0.00168492 -0.00051584 -0.00247571
N 14.36125221 20.35557208 25.68755560 -0.00182017 0.00100939 0.00381250
N 13.38330449 27.84632093 21.23806819 -0.00226254 -0.00043573 -0.00345120
N 15.42503340 5.67323974 1.20465942 0.00441252 0.00333590 0.00431398
N 16.33308887 4.21406798 5.63564980 -0.00473621 0.00926381 0.00008429
N 16.96511867 8.91675856 8.30090703 -0.00036103 0.00330514 0.00547072
N 18.37802492 0.79933004 3.47357060 0.00177500 0.00023056 0.00851365
N 16.20655642 3.59820343 1.56031302 -0.00036312 -0.00031428 -0.00534878
N 15.08025718 6.23027996 6.06979801 0.00809260 -0.00587706 0.00305902
N 18.21506403 1.18850921 7.75266230 -0.00188134 0.00297657 -0.00169236
N 17.15829722 8.62525707 3.18264625 -0.00023220 -0.00529125 0.00232135
N 15.08690682 5.27294494 9.99740295 0.00573287 -0.00044242 -0.00033901
N 16.58121068 4.10349159 14.61938986 0.00148835 -0.00172772 0.00244512
N 16.49197466 8.67931006 17.12923150 -0.00764526 0.00101102 0.00258366
N 17.91712565 0.58382585 12.62245987 0.00368549 0.00516832 -0.00367037
N 16.60394207 3.53097225 10.51561181 0.00084993 0.00125366 -0.00295009
N 15.28350399 5.98734059 14.81354655 0.00204944 -0.00240115 -0.00543406
N 17.70264798 1.65975873 16.92534765 -0.00480498 0.00228558 0.00545617
N 17.19469041 8.94041455 12.12201679 -0.00934806 -0.00626437 0.00346313
N 15.07416426 5.37185672 19.25728911 -0.00235644 -0.00147086 -0.00361713
N 16.56223129 4.09282101 24.27065364 -0.00343874 -0.00028234 0.00137353
N 17.04892841 8.81747011 26.22215662 0.00310965 0.00426083 -0.00489493
N 18.15565823 0.81990534 21.78113060 0.00457834 0.00452390 -0.00583124
N 16.50486967 3.65589835 19.77612355 0.00217718 0.00190102 0.00250502
N 15.31478354 6.01576224 24.41989216 -0.00504012 0.00034422 0.00469178
N 18.14756688 1.31871103 25.92891459 0.00312864 0.00432852 0.00094042
N 16.75378770 8.17636987 21.65656387 -0.00293245 0.00392955 -0.00151742
N 15.09950368 15.26198369 0.87846879 -0.00003537 0.00052081 0.00285827
N 16.28619468 13.67301252 5.42601930 0.00063301 -0.00000848 0.00815628
N 16.70343357 18.77625623 7.47059029 -0.00070453 0.00568804 0.00143294
N 18.39604137 10.51882633 3.09914891 -0.00659525 0.00074044 -0.00294926
N 16.18526537 13.20962329 1.00859322 0.00163515 0.00064869 -0.00092340
N 15.22692670 15.57778525 6.08631259 0.00192430 -0.00506591 -0.01041732
N 18.07168786 10.78819835 7.56206581 0.00039234 -0.00250932 -0.00286588
N 16.99641748 17.87737766 2.65070289 0.00046702 0.00108819 -0.00467128
N 15.48814826 14.99665478 10.48902175 0.00223499 -0.00193787 0.00302839
N 15.92095966 13.83394844 14.77310404 0.00491093 -0.00280716 0.00136130
N 16.65456844 18.60323625 16.98577360 -0.00206888 0.00156225 -0.00066956
N 18.40106586 10.57749780 13.13918640 0.00318568 0.00727860 -0.00566114
N 16.40147336 12.85747373 10.88812978 -0.00240708 -0.00157244 -0.00119248
N 14.95866936 15.84842896 15.04627448 -0.00359643 0.00104013 0.00098246
N 17.86955866 10.55382305 16.73736552 0.00193946 0.00132438 -0.00248799
N 16.83660102 18.29204500 11.93055349 -0.00157955 -0.00857751 0.00687867
N 14.62415948 14.94140133 19.42631821 0.00488534 -0.00348513 -0.00282279
N 16.29868078 13.82690434 23.95423254 -0.00164364 -0.00468510 -0.00369387
N 16.65883797 18.70217310 26.00060780 -0.00228150 -0.00034088 -0.00686582
N 17.58047107 10.32697009 21.58010027 -0.00562820 0.00009169 -0.00512940
N 15.95561601 13.05819263 19.64087878 0.00287459 -0.00472982 0.00145480
N 14.94598423 15.68311303 24.38262111 -0.00733610 0.00022357 -0.00393466
N 18.14975211 10.71805292 25.46970648 -0.00446104 -0.00183043 0.00011392
N 16.52686911 17.96069844 21.61436107 0.00003362 0.00429371 0.00053564
N 14.95220397 24.58402110 1.42558244 -0.00046898 -0.00311395 0.00602625
N 16.47594387 23.59612536 5.84655355 0.00264162 -0.00124211 0.00698544
N 16.63938334 28.27128705 7.70408389 -0.00290176 -0.00598730 -0.00516215
N 18.36121005 19.70818958 3.06787640 -0.00312663 0.00120146 -0.00240332
N 16.10277884 22.64392336 0.93768239 0.00106554 0.00058491 0.00509395
N 14.96429864 25.42979931 5.56925927 0.00353745 -0.00225845 -0.00042544
N 18.08005030 20.66314150 7.25265571 0.00418010 -0.00514954 -0.00259612
N 17.05258204 27.84292021 3.01557614 0.00341325 -0.00360940 -0.00125559
N 14.65322056 25.03132953 10.10770797 0.00349230 0.00237935 0.00926696
N 16.26560560 23.46030510 14.64479069 -0.00043043 -0.00129851 0.00486280
N 16.87105704 28.32904063 17.29874240 0.00101374 -0.00018819 0.00533112
N 18.31793926 20.08937350 12.34751167 -0.00602881 0.00502259 -0.00451620
N 15.90680166 23.05431626 10.19168459 0.00118313 -0.00252233 -0.00101060
N 14.88520807 25.25907823 14.91293879 0.00048265 -0.00362618 0.00924358
N 17.88557464 20.48215324 16.59904719 0.00216490 -0.00580273 0.00725807
N 16.86249201 27.48215573 12.07401851 -0.00371645 -0.00522525 -0.00495359
N 14.93433387 24.91704226 19.18702013 0.00315065 0.00379175 0.00017105
N 16.40486131 23.39893434 23.67184723 -0.00453167 0.00197654 0.00319920
N 16.87202008 28.32533050 26.01918288 -0.00149228 0.00425734 -0.01070161
N 17.72208048 19.93050644 21.50112989 0.00357657 -0.00579989 -0.00296593
N 16.17566281 22.94902785 19.16435819 0.00395971 0.00205489 -0.00294602
N 15.10571178 25.32507467 23.96612568 -0.00134100 -0.00144086 -0.00265223
N 18.22156427 20.37518167 25.50081005 0.00133210 -0.00071939 -0.00500095
N 16.71338974 27.94957642 21.32297030 0.00325017 0.00559728 -0.00262327
N 18.82478375 5.41716717 1.38177553 -0.00376595 0.00038825 0.00802524
N 20.02320424 4.37880614 5.93948275 -0.00014418 -0.00125601 0.00566295
N 20.50470526 9.09367392 8.08976827 0.00614978 -0.00486174 -0.00612029
N 22.03412290 0.71713883 3.73113868 -0.00128143 0.00472776 -0.01149263
N 20.04464035 3.41676496 1.63334666 -0.00196871 0.00414033 -0.00465422
N 18.74515833 6.20731035 6.30910995 0.00022811 -0.00078461 -0.00321613
N 21.76519489 1.34568657 7.88876956 -0.00541469 0.00639550 0.00445970
N 20.82752348 8.32163855 3.27634006 0.00063446 0.00436941 -0.00321154
N 18.69950198 5.56356485 10.59848246 0.00411305 -0.00127871 0.00527460
N 19.87389762 4.07489910 14.58302362 0.00395650 0.00283171 -0.00732402
N 20.45920542 9.07495446 17.09998277 0.00480576 -0.00392657 -0.00317569
N 21.73708596 0.82074340 12.62762995 -0.00734425 -0.00255042 -0.00600953
N 19.61642035 3.56374829 11.03403648 0.00010078 -0.00321781 0.00156982
N 18.84538399 6.07426829 15.00918966 -0.00082805 -0.00528775 -0.00367137
N 21.18153329 1.28762018 16.67853831 0.00204274 0.00599882 0.00089617
N 20.90001640 8.78896014 12.20119379 0.00548111 -0.00594956 -0.00354436
N 18.63886614 5.71237665 19.46388465 -0.00057573 0.00031188 0.00346843
N 20.04955795 4.19353100 24.09600462 -0.01421741 0.00481773 0.00577345
N 20.41605816 9.01124948 26.22514775 -0.00272725 -0.01104407 -0.00376526
N 21.80020817 0.67201582 21.71771601 0.00130740 0.00491308 -0.00502145
N 19.99785978 3.88648580 19.52998430 0.00704831 0.00057471 0.00172932
N 18.63017236 6.15118538 24.25715888 0.00321568 -0.01374561 0.00003314
N 21.69382701 1.32867354 25.83915100 -0.00246429 0.00127278 -0.00357531
N 20.55966345 8.42797779 21.14525430 0.00307416 0.00130794 0.00091635
N 19.18776062 15.09490034 1.22858751 0.00484648 0.00637977 -0.00687350
N 19.87984398 13.34568066 6.02134634 0.00274529 -0.00475569 -0.00441938
N 20.40586667 18.45320233 8.09722235 0.00276194 0.00006468 0.00270368
N 0.05269071 10.27536823 3.49664401 0.00686682 -0.00042486 -0.00003512
N 20.28129722 13.19881475 1.61962294 -0.00234119 0.00098775 -0.00648642
N 18.90349220 15.48235630 6.20582862 0.00339965 0.00047206 0.00379066
N 21.75413150 11.01106537 7.73261980 -0.00515363 -0.00840685 -0.01168378
N 20.81402019 17.89201270 3.21465065 -0.00587789 -0.00043671 -0.00025251
N 18.73812898 15.24859965 10.44421849 0.00048424 0.00601885 -0.00316002
N 19.61023885 13.95540923 14.79866364 -0.00695416 0.00547126 -0.00368316
N 20.12269990 18.68970926 17.21365023 -0.00377349 -0.00593633 -0.00642892
N 0.05441544 10.61411483 12.83881257 -0.00255689 0.00200943 -0.00615253
N 19.69279008 13.13502900 10.66997449 0.00211012 0.00179549 -0.00586326
N 18.68682231 16.09618961 14.80247099 -0.00114463 -0.00399973 -0.00073777
N 21.59918865 11.05727519 16.67026128 0.00015459 -0.00286912 0.00205141
N 20.68447135 18.42208949 12.17279466 -0.00064964 0.00120593 -0.00026691
N 18.65138050 15.38101772 18.86017249 -0.00514658 -0.00308242 -0.00584049
N 19.78798248 13.73376078 23.94161577 0.00726318 0.00513945 0.00536079
N 20.56159041 18.73159875 26.34939235 0.00145537 -0.00390251 0.00503477
N 21.63834071 10.45203929 21.46732049 -0.00481922 -0.00016010 0.00728347
N 19.26811968 13.49704580 20.01129998 0.00161182 -0.00154233 0.00321555
N 19.08675872 15.74009480 24.45236338 -0.00484942 0.00322213 0.00297432
N 21.64349219 11.07701430 25.90770537 0.00156268 -0.00238244 -0.00312911
N 20.49295126 18.11608016 21.44523698 -0.00389864 -0.00113019 0.00018516
N 18.93423460 24.90200283 1.04790518 -0.00496503 -0.00112431 -0.00088056
N 19.81764192 23.05989556 5.43142242 0.00305551 -0.00089774 -0.00910759
N 20.75222345 28.14145874 8.02482845 -0.00355149 -0.00012253 0.00219370
N 21.60584265 19.99135216 3.60776939 -0.00011605 -0.00048752 -0.00703170
N 19.89737153 22.83037756 1.00657132 0.00293723 -0.00044727 -0.00267997
N 19.04596471 25.29519444 5.44278194 -0.00390523 -0.00016109 -0.00205076