1728
Time=69000.00000006 pbc="T T T" Lattice="22.22837969 0.00000000 0.00000000 0.00000000 28.87969045 0.00000000 0.00000000 0.00000000 27.37353765" energy=-10388.52655745 virial="-20.38516275 11.20306553 20.95611330 11.20306553 -33.16663742 8.86853452 20.95611330 8.86853452 13.28391778" stress="0.00131081 0.00051791 0.00119109 0.00051791 0.00078977 0.00045452 0.00119109 0.00045452 0.00352491" Properties=species:S:1:pos:R:3:vel:R:3
N 0.64919497 5.66234389 1.27531867 0.00233516 -0.00017150 -0.00295719
N 1.51773771 4.09963975 5.78520285 0.00230661 0.00151151 -0.00260755
N 2.26580898 9.05117520 7.94736662 0.00334391 -0.00084400 -0.00141456
N 3.55007866 0.85449934 3.29080818 -0.00329012 -0.00747391 0.00298523
N 1.55194679 3.58023291 1.13939240 0.00569302 -0.00016513 -0.00671761
N 0.58228161 6.27132052 6.07518409 -0.00079579 -0.00512356 0.00269546
N 3.43915452 1.38652306 7.51985287 -0.00168692 0.00267523 0.00307560
N 2.62853935 8.30996730 2.88099163 -0.00027335 -0.00710657 0.00463089
N 0.52169537 5.22984905 10.37313453 -0.00426018 0.00314895 0.00475354
N 1.58962590 4.24676139 15.11117081 -0.00429231 0.00295813 0.00273995
N 2.11377806 8.58586815 17.42933711 -0.00431842 -0.00017364 0.00418727
N 3.80065299 0.54525040 12.28505901 0.00319916 -0.00176958 0.00406105
N 1.95759479 3.46262944 10.65571007 0.00120200 0.00260396 0.00200536
N 0.18995901 6.22130295 15.03476329 -0.00140538 0.00290570 0.00288452
N 3.30368215 1.38802359 16.83351823 -0.00247772 0.00240912 0.00019497
N 2.54519118 8.33364663 12.27337543 -0.00299282 -0.00160230 -0.00721861
N 0.18665251 5.47523801 19.65585513 0.00463463 -0.00260880 -0.00273317
N 1.37415887 4.17399661 24.24646666 -0.00360966 0.00507228 0.00034518
N 1.80452604 8.99088002 26.33611404 0.01027766 0.00964162 -0.00482727
N 3.46464515 0.44999056 21.76244524 -0.00051866 -0.00534395 0.00092031
N 1.65606389 3.66491756 19.66124698 0.00426784 -0.00001131 -0.00213868
N 0.25146961 6.19176139 24.37597508 0.00648420 0.00694957 0.00272309
N 3.38122626 1.21805533 25.93129544 0.00237966 0.00187630 0.00188130
N 2.33023077 8.47769069 21.47465755 -0.00600197 -0.00867758 0.00271678
N 0.03852335 15.31553449 1.23896423 -0.00620881 -0.00042511 -0.00253404
N 1.65231855 13.77939527 5.55321762 -0.00028526 0.00135791 0.00126726
N 2.18566426 18.54923735 8.16092558 0.00347832 0.00173421 -0.00224488
N 3.36540942 10.42040582 3.51907694 -0.00246431 0.00111593 -0.00767992
N 1.36288975 13.47378315 1.62005172 0.00454235 0.00338393 -0.00089157
N 0.58865995 15.72438280 6.07096860 0.00711916 0.00198620 0.00774867
N 3.47103731 11.05059416 7.85782488 0.00934074 0.00040848 0.01263509
N 1.97997661 18.00931319 3.16132272 -0.01136823 -0.01013332 0.00511328
N 0.44992582 15.21206692 10.23780472 -0.00598275 0.00263987 -0.00277907
N 1.83310224 13.86161400 15.13689319 -0.00262775 0.00164153 -0.00352182
N 1.98997190 18.49836966 17.09671367 0.00473856 0.00457060 -0.00313070
N 3.65399256 10.30764185 12.68439029 0.00694525 -0.00706892 0.00262006
N 1.65240333 13.25383948 10.60029752 0.00959889 -0.00481110 -0.00083880
N 0.44047963 15.67543549 15.36257500 0.00181553 0.00246660 -0.00276082
N 3.19037566 10.53416529 16.61030705 0.00040302 0.00077889 -0.00201942
N 2.04740176 17.79156155 12.15053039 0.00482735 -0.00384056 -0.00079456
N 0.06040774 14.94447381 19.56038899 0.00473300 0.00472642 0.00027587
N 1.47039911 13.90615382 24.07462069 -0.00094941 0.00209289 0.00529483
N 1.70913297 18.71038711 25.98037424 0.00268277 0.00720088 0.00312059
N 3.45393328 10.51194045 21.65463409 0.00309299 -0.00219945 0.00452153
N 1.47386583 12.98309673 19.92182200 -0.00078271 -0.00207453 -0.00331574
N 0.20878562 15.86846235 24.19739928 0.00142275 0.00334931 0.00285058
N 3.27797236 10.73975576 25.96860672 -0.00335981 -0.00397274 -0.00932155
N 1.96746426 18.11046472 21.14900796 0.00525227 -0.00520117 -0.00510995
N 0.26374024 24.41512121 1.32023121 -0.00123104 -0.00470771 0.00696290
N 1.72174214 23.52942859 5.83059319 0.00512495 -0.00548092 0.00236377
N 2.24836510 28.35443584 8.01811854 0.00320488 -0.00691044 -0.00025773
N 3.21653664 19.98271563 3.40901402 0.00200349 0.00509146 -0.00182987
N 1.78616022 22.70821455 1.58441287 0.00302518 0.00254736 0.00610285
N 0.41295946 25.45574086 6.02098436 -0.00252125 0.00225856 -0.00246963
N 3.08652604 20.62236061 8.11541221 -0.00187728 -0.00086212 -0.00588691
N 2.22205746 27.87289133 3.03931436 0.00104909 0.00248399 0.00281070
N 0.25720951 25.02381724 10.11145002 0.00436821 -0.00311055 -0.00237852
N 1.74485067 23.32271138 14.22841002 -0.00195715 0.00257932 0.00249446
N 2.23380595 28.24574964 17.24655277 0.00381740 0.00018182 -0.00458639
N 3.17885813 19.79361164 12.31100849 0.00112533 0.00665884 0.00463635
N 1.17382341 23.01397544 10.77746147 0.00370100 0.00682527 -0.00790833
N 0.79022716 25.32115951 15.02436836 0.00037709 0.00242193 -0.00192057
N 3.48545057 20.17935155 16.50803464 0.00261675 -0.00216028 -0.00149815
N 2.38666525 27.54748690 12.16275563 0.00226840 0.00057169 0.00380801
N 0.31677630 24.93134690 19.23693517 0.00084467 -0.00085053 0.00114557
N 1.62624056 23.47380089 23.74923617 -0.00224159 0.00229333 0.00049447
N 2.17121964 28.11158490 26.12006019 -0.00054987 -0.00001076 0.00107547
N 3.42477067 19.92185514 21.52853712 -0.00197621 0.00372835 -0.00078902
N 1.53369090 22.97974347 19.49745217 0.00341606 0.00359196 0.00455535
N 0.14635115 25.08193785 24.34913650 -0.00310977 0.00020753 -0.00193178
N 3.23980278 20.42367096 25.73348975 -0.00452512 -0.00440005 0.01090265
N 2.04408567 27.51411046 21.72572334 0.00377756 -0.00025271 -0.00141856
N 4.17834522 5.51961473 1.09826439 -0.00478644 0.00022642 0.00069612
N 5.22761837 4.49451198 5.73629858 -0.00938995 0.00861692 -0.00541274
N 5.70085237 8.86288044 8.03348049 -0.00052105 -0.00454341 0.00162098
N 7.02298587 0.72169955 3.18847454 -0.00337755 -0.01033820 0.00064288
N 5.17524179 3.46399851 1.55637783 -0.00031102 0.00038017 -0.00479777
N 3.87547587 6.37415560 5.93474246 -0.00043816 0.00020944 0.00354487
N 7.12083460 1.20710204 7.48306024 0.00006957 -0.00593483 -0.00436938
N 6.30800087 8.16412415 3.05727637 -0.00327175 0.00239107 -0.00363242
N 4.08796539 5.27486279 10.41641662 0.00334573 0.00123970 0.00030972
N 5.28567476 3.90502007 15.25802682 -0.00307862 -0.00191488 0.00172351
N 5.73843708 8.53578454 17.23741518 -0.00943589 -0.00136158 0.00829539
N 6.94904001 0.59842113 12.34019777 -0.00221687 -0.00403527 -0.00340810
N 5.64790346 3.53210173 10.43230799 0.00514305 -0.00866445 0.00469937
N 4.08484220 5.88084978 15.60283576 -0.00373156 0.00697128 0.00211280
N 7.29979527 1.13892551 16.95893879 -0.00469761 0.00310788 0.00041690
N 6.10595577 8.16222784 12.39255539 -0.00369752 0.00627494 -0.00325703
N 4.06040804 5.62560455 19.62689154 -0.00154212 -0.00166153 0.00254049
N 5.71425667 4.26798806 24.12834780 -0.00328753 -0.00536928 -0.00273387
N 5.68580669 9.01767170 26.16717406 -0.00060867 0.00447128 0.00024241
N 6.93596922 1.01755093 21.63183524 0.00233745 0.00450656 -0.00178005
N 5.36968100 3.74042952 19.77791361 0.00301220 0.00167033 0.00223815
N 4.07147281 5.91190382 24.50989225 -0.00542107 -0.00122858 -0.00298155
N 7.15037054 1.30543943 26.11404834 0.00411303 0.00112872 0.00039124
N 5.92834622 8.59478413 21.14516766 0.00421450 -0.00000401 -0.00511632
N 3.78686565 15.02931259 1.31837477 0.01052083 0.00412913 0.00110397
N 5.49878225 13.56547632 5.59197824 0.00048298 -0.00169247 -0.01191658
N 5.91331890 18.42789000 8.02343334 -0.00089191 -0.00099498 0.00281042
N 7.28526765 10.26663759 3.43619982 -0.00445614 0.00526019 0.00382689
N 4.95194973 13.08250873 1.60231346 0.00315713 -0.00838054 0.00194882
N 3.91959606 15.29024106 6.00982223 0.00796428 0.00181877 0.00246745
N 7.15352502 10.71123581 7.73353421 -0.00120047 0.00225116 -0.00079847
N 5.78749889 18.04074934 3.33555970 0.00224286 -0.00233229 -0.00037836
N 3.92888060 15.44585782 10.43313914 -0.00194314 -0.00138414 0.00218522
N 5.49704891 13.60888032 15.18430566 -0.00318395 0.00176779 0.00566503
N 6.12764170 18.28703587 17.17038538 0.00488258 -0.00589457 0.00312052
N 6.61862669 10.37558240 12.83882738 -0.00367894 -0.00356089 -0.00024973
N 4.79728215 13.31833957 10.90765059 0.00707782 -0.00186554 -0.00011396
N 4.34054483 15.68798966 15.23450002 -0.00175861 -0.00211430 -0.00244933
N 7.17202161 10.41702877 16.96921997 0.00172376 0.00209459 0.00118354
N 5.70712045 17.76061063 12.36353274 -0.00658466 0.00299867 0.00588800
N 4.01117554 15.33384837 19.54173982 0.00125572 0.00846425 -0.00334171
N 5.19320233 13.85198299 23.93005380 0.00051636 0.00329058 -0.00966812
N 5.59067781 18.70738821 26.38305757 0.00523021 0.00591673 -0.00640625
N 7.32380268 10.44806048 21.55360449 0.00479773 -0.00598268 0.00133040
N 4.82728607 13.22643435 20.04531944 -0.00243325 -0.00004693 -0.00390885
N 4.19527009 15.90592927 24.41913270 0.00678677 0.00088630 -0.00031551
N 6.77605017 11.02690898 25.81891054 0.00459606 -0.00138312 -0.00483108
N 5.91730644 17.86190500 21.37580758 0.01059516 -0.00745631 0.00241670
N 4.17095024 24.94719230 0.91331888 -0.00679459 -0.00067455 -0.00345819
N 4.90967287 23.08880263 5.84232721 -0.00533395 0.00361171 0.00669432
N 5.78254943 28.23625158 7.61308404 0.00219229 -0.00148878 0.00199329
N 6.83976352 20.05084714 3.56746848 -0.00074127 0.00279431 0.01145006
N 4.86106180 22.80440203 1.46333446 -0.00313871 -0.00512345 0.00062863
N 4.13784597 25.33764181 5.83955685 0.00005683 0.00622134 -0.00226736
N 6.83475617 20.53827122 7.83611335 -0.00269116 -0.00028644 0.00557809
N 6.27327911 27.58878353 2.39780933 0.00574190 -0.00070917 -0.00485589
N 3.75928978 24.83850731 10.49127117 0.01046606 -0.00132710 0.00453326
N 5.42847398 23.52971644 15.08414009 0.00378299 -0.00114955 0.00190830
N 6.08354607 27.97798103 17.25290785 0.00268076 0.00421763 -0.00710798
N 6.72344635 19.88190213 12.71484164 0.00383325 0.00591474 0.00070498
N 4.93291552 22.85569329 10.75682193 0.00624745 -0.00399455 -0.00006131
N 4.08460754 25.31691070 15.13656434 -0.00384000 0.00446335 0.00003129
N 7.10079630 20.36640790 16.81178395 0.00204975 0.00524060 0.00545561
N 5.90763721 27.43250011 12.55918769 -0.00532457 0.00170633 0.00561287
N 3.93914455 24.76735174 19.63428408 0.00511306 0.00656941 0.00596890
N 5.55423827 23.27342080 23.97348613 0.00028637 -0.00202624 0.00072592
N 5.79525204 28.27492741 25.89380659 0.00147606 -0.00737260 -0.00391599
N 6.88707722 19.88208587 21.79580866 0.00158003 -0.00697376 -0.00019719
N 5.19256940 22.80110792 19.70609673 -0.00374859 -0.00039051 -0.00856993
N 3.96993579 24.97081446 24.27152710 -0.00145652 -0.00073109 0.00327910
N 6.96258491 20.42792833 25.96074291 -0.00106389 -0.00209963 -0.00169403
N 5.88463178 27.79903105 21.38309570 -0.00018951 0.00156185 -0.00147922
N 7.77744008 5.56470418 0.91976583 -0.00276706 -0.00238854 0.00357200
N 9.13763531 4.16943310 5.41187570 0.00127418 0.00334001 -0.00388110
N 9.38280890 8.88190331 8.00566874 -0.00491982 0.00176983 -0.00190164
N 10.90206649 0.63378843 3.32766525 -0.00104201 -0.00315359 -0.00525361
N 8.92839460 3.57068709 1.21974691 -0.00440110 0.00159991 -0.00108380
N 7.90271918 6.09410504 6.16634171 0.00026806 -0.00062508 0.00090898
N 10.69905664 0.92443807 7.61697643 -0.00012589 -0.00332558 -0.00356797
N 9.48134391 8.03830486 3.14416480 0.00364668 -0.00361886 0.00641139
N 7.95812420 5.54413329 10.08406733 0.00471900 -0.00179117 0.00094061
N 9.13705466 3.89720383 14.35756973 0.00022084 0.00482595 0.00248021
N 9.57214993 8.59448173 17.37167756 0.00368776 0.00511435 0.00106315
N 10.80944943 0.38665590 12.65945328 -0.00365257 0.00100433 0.00495755
N 8.91341683 3.54204012 10.59018835 0.00848921 0.00118878 0.00195994
N 7.97945097 5.89972500 14.63463336 -0.00721080 -0.00486580 0.00022953
N 10.40822066 1.44406999 16.72723276 0.00066279 0.00208167 0.00329426
N 9.68442177 8.38384384 12.18020201 -0.00049504 0.00864532 0.00105108
N 7.72973609 5.47408270 19.00010776 -0.00040160 0.00136351 0.00297093
N 9.14648717 3.98646908 23.84041453 0.00513862 0.00133682 -0.00005455
N 9.20683831 8.93738072 26.09544599 0.00429727 -0.00934636 -0.00287801
N 10.91254577 0.60403870 21.65124669 0.00291908 -0.00125938 0.00171127
N 8.88684473 3.62748770 19.66053180 -0.00040377 0.00354344 0.00265868
N 7.94035419 6.00131817 24.02008347 -0.00222564 -0.00183937 0.00008276
N 10.72846618 1.07335357 25.84781778 -0.00000821 -0.00100445 -0.00058271
N 9.57886214 8.55760671 21.16718270 -0.00826853 0.00015278 -0.00456840
N 7.19299861 15.28818731 1.35504102 -0.00100619 0.00050060 -0.00316204
N 9.15553160 13.72661754 5.95830751 0.00672374 0.00069990 -0.00185071
N 9.39646350 18.58247974 7.82853538 0.00890243 -0.00273683 -0.01019599
N 10.62853698 10.02977313 3.31771751 -0.00248170 -0.00005268 -0.00057261
N 8.40342174 13.30362031 1.48507498 -0.00005313 0.00997133 0.00433323
N 7.80921533 15.50749367 6.43976403 -0.00169672 -0.00737989 0.00230598
N 10.77776667 10.76625676 7.83555925 -0.00409857 0.00746640 0.00794057
N 9.34647616 18.02529634 2.99088561 0.00533812 0.00398980 0.00240953
N 7.85332999 14.94601103 10.59153964 0.00105146 0.00022948 -0.01016791
N 8.91557103 13.66966335 15.32313598 -0.00363413 0.00100585 0.00710952
N 9.82658708 18.62319353 17.21559541 -0.00279041 -0.01305471 0.00712008
N 10.77610109 10.35381291 12.68813742 0.00143012 -0.00092699 -0.00595439
N 8.64868155 12.80426828 10.64682779 -0.00493329 0.00411055 0.00959857
N 7.97292332 15.69833132 15.65798413 -0.00527147 -0.00306080 0.00380535
N 10.87594728 10.45431427 16.88478330 -0.00201350 -0.00355363 -0.00342078
N 9.47776835 18.07733237 12.30426021 0.00419598 -0.00160302 0.00055832
N 7.93445696 15.05743201 19.48343959 0.00613686 0.00563582 0.00010827
N 9.39521959 14.08512461 24.38329880 0.00630962 0.00293827 -0.00262193
N 9.14023319 18.38364943 26.16828057 0.00482565 0.00514963 0.00645820
N 10.92192244 10.34887148 21.60394922 0.00362715 -0.00020926 0.00161368
N 8.89706398 12.97085298 19.92363167 -0.00510496 -0.00372334 -0.00053073
N 7.69216137 15.70868603 24.39637528 0.00041684 -0.00394092 -0.00147591
N 10.28304027 10.94651990 26.03600361 0.00133618 0.00225914 0.00263273
N 9.50108908 17.93953079 21.31819661 -0.00120325 0.00180673 -0.00514587
N 7.60734563 24.72449654 1.06433605 0.00455596 0.00145032 0.00176569
N 8.75591579 23.24391510 5.84325584 -0.00055969 0.00345920 -0.00458033
N 9.45505432 27.87670456 8.01219502 0.00431920 0.00609862 0.01060285
N 10.68079782 19.92861213 3.22397133 0.00835415 0.00494430 -0.00185289
N 8.73502415 22.79630068 1.60705467 -0.00118249 -0.00028332 0.00302822
N 7.94903935 25.35653096 5.89587472 0.00085094 -0.00132761 0.00356369
N 10.71054765 20.45447284 7.64982993 -0.00754875 0.00565044 -0.00222844
N 9.66838776 27.61022293 2.78572936 0.00206980 0.00577160 -0.00568228
N 7.82314287 24.69739164 10.40131071 0.00068307 0.00336694 -0.00007601
N 9.45869606 23.02077968 15.08264296 0.00040698 -0.00261846 -0.00047020
N 9.70340766 28.13992138 17.31248577 0.00488201 -0.00165541 -0.00196545
N 10.59754757 20.01922896 12.65744344 0.00192429 -0.00049613 0.00130445
N 9.02307262 22.73542931 10.62231692 -0.00734851 0.00233948 -0.00518389
N 8.45545284 25.15482099 15.40485633 -0.00439622 0.00084929 0.00404947
N 11.26480091 20.34872434 16.92455806 0.00621887 0.00102878 -0.00101285
N 9.68902129 27.32316158 12.33218483 -0.00051406 -0.00172770 0.00522741
N 7.73638312 24.60192753 19.34602000 -0.00566923 -0.00288831 -0.00213742
N 9.02275598 23.13492422 23.64006803 0.00643563 0.00080953 -0.00727504
N 9.41376376 28.01479546 26.04281894 -0.00119789 -0.00198989 -0.00404698
N 10.74472142 19.80107060 21.86151327 -0.00231186 -0.00620844 -0.00356397
N 8.86568436 22.54432358 19.44883321 0.00199248 -0.00032599 0.00769647
N 7.90347629 25.07098754 24.24167752 0.00220969 0.00211990 0.00090329
N 10.36428887 20.37139756 25.92978035 -0.00393572 0.00218571 0.00704875
N 9.52324742 27.68047661 21.10703235 0.00548468 0.00011463 -0.00253180
N 11.52560566 5.21045882 1.23392774 -0.00149689 0.00333982 0.00082187
N 12.63076489 4.19848078 5.69025312 -0.00455553 0.00005788 -0.00506910
N 13.18110911 9.16710394 7.95877582 -0.00021308 -0.00125038 0.00215807
N 14.11704451 0.69589112 3.42263430 -0.00258274 0.00845216 0.01030989
N 12.57771773 3.19808294 1.22506284 0.00411700 -0.00624486 -0.00359946
N 11.40346125 6.11853964 5.99155771 0.00357424 0.00047234 0.00019698
N 14.26210671 1.24751032 7.76298449 -0.00051016 -0.00473737 0.00100114
N 13.27698572 8.32853070 3.05185972 -0.00453841 0.00352403 -0.00553429
N 11.45871025 5.42573330 10.27986588 0.00138482 0.00050639 -0.00086802
N 12.59003803 4.07383901 15.00156918 -0.00012885 0.00370429 -0.00295281
N 13.32331908 9.01545459 17.13383488 0.00020764 0.00187297 -0.00150619
N 14.34633626 0.72622374 12.68027442 0.00439559 0.00006864 0.00267208
N 12.41893049 3.35554543 10.54827164 -0.00647568 -0.00241151 0.00322532
N 11.62057147 6.09732819 15.29545840 -0.00394782 0.00316188 0.00491257
N 14.27044565 1.26693552 16.81138378 -0.00153195 0.00165751 -0.00614746
N 13.52228393 8.45272029 12.33148461 -0.00060708 -0.00536371 0.00137822
N 11.41089840 5.56950204 19.58875082 0.00210949 -0.00298544 0.00365343
N 13.10209589 4.16022741 24.14909399 0.00294995 0.00490143 -0.00241226
N 13.00496482 8.84421928 26.41996908 0.00102907 0.00514501 -0.00055690
N 14.70197959 0.65120914 21.84434413 0.00045100 -0.00527739 0.00068947
N 12.63173639 3.74479529 20.14939374 -0.00170826 0.00764134 0.00387742
N 11.59989056 6.04182606 24.26878286 -0.00174488 0.00092542 0.00191333
N 14.50356084 1.12571802 26.01801890 0.00036645 0.00201745 0.00660212
N 13.53554832 8.59048057 21.48192205 0.00149617 -0.00105494 -0.00311005
N 11.56503349 15.45740778 1.09416066 0.00041181 0.00119768 -0.00418859
N 12.90922232 14.10185000 5.84328876 -0.00176961 -0.00063165 0.00252940
N 13.28829157 18.32501605 7.96964993 0.00313321 -0.00029559 0.00291480
N 14.27303760 10.33391300 3.52739959 -0.00344311 0.00268723 -0.00475291
N 12.22169894 13.35349390 1.69894105 -0.00188067 -0.00156754 0.00539565
N 11.34637067 15.82555680 6.12446918 0.00353510 -0.00715404 0.00189136
N 14.55603251 11.01502627 7.41877991 0.00817991 0.00242264 0.00067615
N 13.10427563 18.09212217 2.98724907 -0.00248202 0.00259543 -0.00455792
N 11.12551059 14.81099991 10.53807702 0.00355156 -0.00282377 -0.00401319
N 12.61480745 13.54564672 14.83780174 0.00031248 -0.00436643 0.00407340
N 13.44887775 18.27379317 17.11626059 0.00183362 -0.00265384 0.00961449
N 14.72330313 10.31794749 12.38386322 -0.00317489 -0.01019166 0.00470492
N 12.39236335 12.98528132 10.49750366 -0.00750505 0.00220538 0.00533650
N 11.29714257 15.40603349 15.06096942 0.01001085 0.00292750 0.00740950
N 14.55197751 11.02574148 16.61737891 0.00469995 0.00382341 0.00176814
N 13.09511313 17.79994931 12.01593607 0.00487051 0.00118906 0.00387924
N 11.75722413 15.28044599 19.41333632 0.00085318 -0.00047547 0.00950267
N 12.64418421 14.18110417 24.62613156 -0.00219898 0.00266801 -0.00708827
N 12.99984061 19.04030138 26.37428757 -0.00647112 -0.00452584 -0.00021207
N 14.57512984 10.56732536 21.73002781 0.00205833 -0.00488078 -0.00201351
N 12.63528671 13.08904327 19.69770257 0.00350812 -0.00563495 -0.00116509
N 11.47940645 16.08139164 24.12442823 0.00385264 -0.00017084 -0.00162979
N 14.16664816 10.78892598 26.21757575 0.00458083 -0.00098003 -0.00117887
N 13.30214273 18.51472987 21.19981557 -0.00260699 0.00479383 -0.00653247
N 11.06412412 24.38724800 1.25375326 0.00273365 -0.00193640 -0.00226720
N 12.45162861 23.00720007 5.69940576 -0.00286705 -0.00033398 -0.00205518
N 13.20240926 28.13870761 8.02022241 0.01000650 0.00956806 -0.00078677
N 14.64423823 19.87525445 3.36889368 -0.00281761 0.00197395 0.00107700
N 12.65951759 22.75937059 1.78533222 0.00227783 -0.00081673 -0.00119729
N 11.52998357 25.06968105 6.00699668 0.00063951 -0.00233859 0.00029800
N 14.43423081 20.26149336 7.72671179 -0.00500296 -0.00360238 -0.00000650
N 13.32492389 27.42878471 3.28569641 -0.00071673 0.00447214 -0.00022680
N 11.42970738 24.63453486 10.42120121 0.00244354 0.00313201 -0.00404455
N 12.75954788 22.99077410 14.85189807 -0.00252454 -0.00150690 0.00100482
N 13.30853114 28.04954712 17.18948410 -0.00863676 0.00181374 0.00209955
N 14.07527623 19.85251615 12.79296435 -0.00302023 0.00657474 -0.00369723
N 12.69969444 22.66499216 10.65335453 -0.00343833 0.00236781 -0.00114988
N 11.62143446 24.98587629 15.16779641 -0.00047200 0.00275788 -0.00021326
N 14.48554296 20.28223240 16.61496074 -0.00056567 0.00044055 0.00003233
N 13.28721964 27.56290071 12.20687454 -0.00405561 0.00807751 -0.00029013
N 11.68527564 24.64650847 19.41015774 0.00221293 0.00190611 -0.00039748
N 12.46061329 23.30134630 23.94670543 -0.00370183 0.00520674 0.00531443
N 13.15163933 28.12607368 26.35559341 0.00243195 -0.00327369 0.00119372
N 14.84919163 20.15409927 22.05214217 -0.00074421 0.00085502 -0.00249312
N 12.63462586 22.52458788 19.75163027 0.00677876 -0.01078848 0.00676941
N 11.51146795 25.45397123 23.83338565 -0.00427197 -0.00396604 0.00819102
N 14.52832057 20.89592552 26.31636738 0.00002660 -0.00044420 0.00070096
N 13.57579432 27.58632108 21.17986180 0.00151354 0.00477084 0.00592344
N 14.92874654 5.22493550 1.27094824 0.00021167 0.00609087 0.00695491
N 16.30127809 4.16128183 5.79921637 0.00304237 0.00033828 -0.00585714
N 17.05168441 9.09309321 8.00403358 -0.00349806 0.00770491 -0.01198931
N 18.52172629 0.70073420 3.53120975 0.01275318 -0.00263028 0.00472413
N 16.49826949 3.57874308 1.67852034 0.00342049 0.00664116 0.00022259
N 15.07846268 6.16768530 6.13470835 0.00289414 -0.00182238 -0.00214391
N 18.20957428 1.38144132 7.72265402 0.01017978 -0.00231092 0.00413496
N 16.95727136 8.44181198 3.14312279 0.00029641 0.00547403 -0.00266667
N 14.68768570 5.25835179 10.55064400 0.00141066 -0.00315808 0.00204299
N 16.13043416 4.09143430 14.83351113 -0.00012007 -0.00139340 -0.00032771
N 17.03217147 9.06211484 17.01318147 -0.00125681 -0.00323778 -0.00482862
N 18.19307676 0.96550684 12.64637356 0.00442883 -0.00953568 -0.00083634
N 16.45031109 3.73353508 10.79947641 0.00398071 0.00457678 -0.00634364
N 14.88818451 6.05495283 15.32799823 0.00449454 -0.00323487 -0.00755722
N 18.32364937 1.52524940 16.96718282 0.00293743 0.00199571 0.00303113
N 16.76277292 7.99337730 12.19987289 -0.00230512 -0.00481499 0.00327852
N 14.90971544 5.53523767 19.78857100 0.00282932 0.00222927 -0.00179731
N 16.35992494 4.15836177 24.16525766 -0.00049368 0.00309683 -0.00436104
N 16.54891783 9.22335633 26.51701155 0.00192483 -0.00424325 -0.00480266
N 18.16834007 0.73875928 21.61453882 -0.00099082 0.00038181 0.00375107
N 16.35769703 3.61517995 19.70821242 -0.00235115 -0.00148820 0.00339610
N 15.32780803 6.16677204 24.40495024 -0.00153905 0.00459848 -0.00531261
N 18.14039086 1.57439446 26.15280339 -0.00134143 -0.00012991 -0.00674810
N 16.88979381 8.45995751 21.51136403 0.00180320 -0.00182796 -0.00320033
N 15.02424317 15.35390127 0.41770105 -0.00402697 0.00513022 0.00026574
N 16.13817807 13.75377696 5.05088543 0.00314415 0.00426933 -0.00125866
N 17.05686556 18.69949328 7.61232104 0.00020611 0.00230910 0.00306257
N 18.36719407 10.27640767 3.44290639 0.00110833 0.00181390 -0.00705197
N 15.95930058 13.52412422 1.43997941 -0.00036759 -0.00172948 -0.00346309
N 15.35902194 15.94914723 5.60575330 -0.00366932 -0.00339640 0.00219351
N 18.21901046 11.04986054 7.66417522 -0.00005411 -0.00219328 0.00436193
N 17.17663906 18.18745152 2.66847929 0.00217290 0.00189034 0.00211317
N 15.12839812 15.27263668 9.53835342 0.00552568 0.00470981 0.00176769
N 16.29022825 13.77735272 14.28904212 -0.00139980 -0.00059512 -0.00101668
N 17.15645220 18.40561521 16.87646739 -0.00963124 -0.00737185 -0.00464165
N 18.30498596 9.76356130 12.27533761 -0.00359243 0.00344517 -0.00813515
N 16.24809984 13.30775877 10.02999468 0.00250398 0.00614912 0.00404331
N 15.25063401 15.84689396 14.70586946 -0.00018805 -0.00066726 0.00308986
N 18.49064441 10.86777444 16.81011137 -0.00643982 0.00141700 0.00331691
N 17.18026619 17.59633447 11.99534492 -0.00918965 -0.00356705 0.00260596
N 15.38325055 15.36002663 18.91287188 -0.00044414 0.00976974 -0.00130709
N 16.45258519 13.81041147 23.13333034 0.00195318 -0.00026753 0.00281565
N 16.56320494 18.95194152 25.95951082 -0.00211002 -0.00085213 -0.00556476
N 18.04175880 10.39540051 21.86121959 0.00104984 0.00382968 0.00745384
N 16.53973960 13.56281595 19.65354092 0.00326383 0.00040516 0.00176411
N 15.21127006 15.75245743 23.61557044 0.00168430 -0.00702482 -0.00373246
N 17.94811611 11.09918411 26.47304581 0.00255553 0.00005752 0.00146998
N 17.55320755 18.42581402 21.12754145 0.00361313 0.00258166 -0.00249652
N 15.12076767 24.86180307 0.91872402 0.00684762 -0.00337556 0.00236977
N 16.59625651 23.56641078 5.44958401 0.00381800 0.00617030 -0.00079539
N 17.07236891 28.23390081 7.85665105 -0.00032334 -0.00044814 0.00003817
N 18.14425516 20.18350054 3.18068977 -0.00254598 -0.00358185 -0.00468392
N 16.01738559 22.73636682 1.11274465 0.00632657 0.00049678 -0.00399720
N 15.10654734 25.32259122 5.77778888 -0.00557344 0.00206576 -0.00071114
N 18.12741771 20.63629945 7.44900733 -0.00202421 0.00411717 -0.00608760
N 17.09531535 27.78602850 3.27420110 -0.00373653 0.00446721 0.00163160
N 15.23775470 24.67573725 10.13141152 0.00590861 0.00032116 0.00055934
N 16.68958997 23.21048304 14.74020327 0.00484371 0.00315925 0.00132702
N 17.12540230 28.39991339 16.82754668 0.00357352 0.00277061 0.00227632
N 18.31695637 19.55466036 12.30093262 -0.00521387 0.00049434 -0.00029177
N 16.39346836 22.63969480 10.68562453 0.00037982 -0.00080368 0.00016667
N 15.39730088 25.13903690 15.09677039 -0.00166554 -0.00114321 -0.00199298
N 18.27440630 20.49040893 16.82651546 0.00523215 -0.00057648 0.00472082
N 16.87921531 27.97470530 12.27045620 0.00014913 0.00248501 -0.00098453
N 15.09829297 24.61763086 19.17669932 0.00657793 -0.00153777 -0.00472374
N 16.35764958 23.41992558 23.70088251 0.00064643 0.00632637 -0.00375228
N 17.01999230 28.45276762 26.51585927 0.00043445 -0.00059745 0.00029685
N 18.39523719 20.50180980 21.56741629 0.00034495 0.00540797 0.00330897
N 16.20408632 22.63184807 19.32299073 0.00040284 0.00015164 0.00529119
N 15.17209115 25.41328444 24.35036179 -0.00370240 -0.00102419 -0.00093425
N 18.11160412 20.70836057 25.54125043 -0.00183881 -0.00481752 -0.00032403
N 16.93207005 27.67065689 21.38570614 0.00271146 -0.00248138 0.00075471
N 18.59969842 5.54666860 1.28619900 -0.00276140 0.00143978 -0.00651617
N 20.58041802 4.16266727 6.00784344 0.00112693 -0.00150805 -0.00559409
N 20.63846334 8.94286642 7.97457573 -0.00152771 0.00383345 -0.00388572
N 21.93828095 0.69778130 2.91568591 0.00555112 0.00274202 -0.00329438
N 19.97605594 3.64710010 1.49069771 -0.00236674 -0.00128806 -0.00448750
N 18.87577498 5.80612522 5.94169322 0.00909452 -0.00227044 -0.00422096
N 22.08789508 1.04278564 7.37220718 0.00032046 0.00774496 0.00040096
N 20.83134738 8.44036084 3.21811176 -0.00168440 -0.00540590 -0.00074067
N 19.07969006 5.43077163 10.30176610 0.00090261 0.00332988 0.00214562
N 20.21020003 4.07017602 14.85226751 -0.00103547 -0.00009339 -0.00084598
N 20.71345056 8.81932478 16.87815510 -0.00600981 -0.00514325 -0.00186073
N 22.11682052 0.76970410 12.46666051 0.00304767 -0.00455966 -0.00029008
N 20.14766085 3.30600459 10.56104208 -0.00527931 -0.00156228 -0.00840339
N 18.83272074 5.86202395 15.22162703 -0.00385440 0.00101383 -0.00333362
N 22.19213230 1.16763422 16.56760314 0.00386825 -0.00148782 -0.00267047
N 20.61063780 8.03295386 12.34855395 0.00104377 0.00155688 0.00074666
N 18.63779638 5.19361792 19.58240241 0.00183509 0.00936760 -0.00648053
N 20.06035391 4.24549121 24.10567967 -0.00216946 -0.00438041 -0.00194481
N 20.20458756 9.18729066 26.21491611 -0.00063925 -0.00083547 -0.00119638
N 21.89023290 1.11641677 21.57388337 -0.00578579 -0.00295165 0.00010713
N 20.16526742 3.45760226 19.54910893 0.00153384 -0.00109752 -0.00358797
N 18.76938214 6.16167812 24.29362383 0.00210898 0.00063693 0.00318110
N 21.85645677 1.12662971 25.91143338 0.00071301 -0.00689126 -0.00005536
N 20.67054749 8.41942186 21.26196355 0.00111802 -0.00056827 -0.00358683
N 18.39144095 15.01721177 1.08947148 -0.00177039 0.00216449 0.00081311
N 20.19365289 13.90092491 5.81472877 0.00196338 -0.00067513 -0.00582689
N 20.62175737 18.91100074 7.97198480 0.00173049 0.00146812 -0.00607497
N 21.82642393 10.47417108 3.47349436 -0.00040587 0.00507323 -0.00082266
N 19.98174681 13.35462157 1.80593077 0.00193252 -0.00102157 -0.00122798
N 19.04210327 15.87873931 5.82899855 0.00871771 -0.00484595 0.00030376
N 22.08793047 10.73427900 7.66277986 -0.00392774 0.00075259 0.00154361
N 20.46420233 18.08590033 3.13385319 0.00214620 0.00037800 0.00168235
N 18.93328832 15.19406926 10.17693434 -0.00427009 -0.00296636 0.00903570
N 20.41718841 13.91748502 14.92668934 0.00199169 0.00122495 -0.00323347
N 20.64240503 18.57969019 17.02860456 -0.00072739 0.00562948 -0.00483985
N 22.00578861 9.99027154 12.29870922 0.00215282 -0.00484842 -0.00013224
N 19.66110312 13.06744574 10.79297077 0.00078096 0.00199829 -0.00007790
N 18.70762207 15.53881025 14.90309987 -0.00233441 0.00091215 -0.00516133
N 21.77397396 10.95786183 16.75227610 -0.00027288 0.00260563 0.00689860
N 20.64770250 18.01135951 12.12310376 -0.00075924 -0.00564316 0.00135844
N 18.86319606 15.27014859 19.35366958 0.00079235 0.00036911 0.00439302
N 20.21007139 14.03800569 24.17466082 0.00234245 -0.00642212 0.00102181
N 20.30764113 18.71322365 25.99598820 -0.00262825 0.00123728 -0.00274624
N 21.93723772 10.21504257 21.80081176 -0.00728407 -0.00709799 -0.00050600
N 19.81207607 13.21763581 19.82901872 -0.00793328 -0.00178662 0.00213776
N 18.92679811 15.98164544 24.39342614 -0.00638115 0.00609846 0.00004249
N 21.54445695 11.03138951 25.89116329 0.00091457 0.00047152 0.00672787
N 20.71444682 18.24759948 21.04003470 0.00069706 -0.00346198 -0.00260773
N 18.51812834 24.48909294 0.94428089 0.00368459 -0.00031810 0.00123863
N 20.08639823 23.64000925 5.72253672 0.00308639 0.00173640 0.00080329
N 20.69585389 28.22772660 7.87371772 -0.00088440 -0.00104922 -0.00912412
N 21.89934536 19.91308805 3.25114780 -0.00513890 0.00270853 0.00118877
N 19.88217504 22.67469634 1.39453126 -0.00021267 0.00166330 0.00009923
N 18.80329986 25.55619217 5.83635762 -0.00203616 0.00430074 -0.00203613