1728
Time=28000.00000000 pbc="T T T" Lattice="21.99560207 0.00000000 0.00000000 0.00000000 28.80557941 0.00000000 0.00000000 0.00000000 27.40007466" energy=-10388.25653708 virial="29.95558529 -1.02478028 11.40024355 -1.02478028 29.75924984 29.08879648 11.40024355 29.08879648 -20.47062377" stress="0.00412219 0.00013322 0.00053928 0.00013322 0.00432760 0.00162119 0.00053928 0.00162119 0.00167955" Properties=species:S:1:pos:R:3:vel:R:3
N 0.14125018 5.54248553 0.71367298 0.00049216 -0.00967263 0.00090451
N 1.79283370 4.49737267 5.94208971 -0.00922361 0.00475976 -0.00292009
N 2.07499843 8.94696331 7.71007310 0.00218522 -0.00029965 0.00232127
N 3.76261961 0.61604780 3.55088936 0.00214721 0.00068237 0.00142258
N 1.49682662 3.88160030 1.63213776 0.00473091 -0.00502271 0.00222910
N 0.38509161 6.30959547 6.02202266 -0.00152321 0.00262537 -0.00240002
N 2.99307204 1.55537546 7.82261783 -0.00793200 -0.00854382 -0.00013712
N 2.07887399 8.39750191 2.98822597 0.00089384 -0.00202363 -0.00276798
N 0.01734174 5.65813427 10.44365324 0.00075972 -0.00184291 0.00179948
N 1.51939589 3.76119508 14.38291683 -0.00333798 0.00251073 -0.00034379
N 1.82947567 8.66786472 17.07612040 -0.00329021 -0.00891658 0.00190097
N 3.64361355 0.22996498 12.17951288 0.00354402 0.00428875 0.00532699
N 1.39083150 3.72807493 10.81737685 -0.00138437 -0.00393858 0.00637341
N 0.32626261 5.67512881 15.13799923 -0.00393172 0.00083697 0.00041129
N 3.42062811 1.17999614 16.93133245 -0.00672199 0.00364803 -0.00160700
N 2.19606327 8.36182521 11.86089706 0.01081557 0.00339053 -0.00493216
N 0.15719225 5.40360763 19.24717165 -0.00158653 0.00166775 0.00043527
N 1.75875774 4.05108949 23.84153490 0.00528486 0.00462170 0.00511045
N 2.14124173 9.09514049 25.90822186 -0.00034818 0.00189843 0.00063151
N 3.58567442 0.84479145 21.99066477 -0.00610845 -0.00605021 -0.00146388
N 1.52330399 3.64788568 19.66651174 0.00632862 0.00618984 0.00422876
N 0.56542370 6.01977363 24.16449293 0.00495664 -0.00225137 0.00129793
N 3.25067231 1.58076051 26.29471471 0.00407219 -0.00447472 -0.00275289
N 2.05628745 8.41021552 21.32140700 -0.00181483 0.00201619 -0.00479063
N 0.35973965 15.18327654 1.17463762 0.00197902 -0.00204058 -0.00038077
N 1.72897813 13.78356181 5.83195685 0.00703981 0.00140091 -0.00246397
N 1.80012164 18.69370957 7.67681787 0.00886733 0.00133300 -0.00164489
N 2.96196401 10.47147578 3.22348307 0.00307351 0.00305826 0.00343422
N 1.63660973 13.28676062 1.49019835 -0.00150978 0.01090710 0.00072622
N 0.19169937 15.37483181 6.30738619 0.00097700 0.00738235 0.00091974
N 3.03893308 11.01945272 7.45642649 -0.00024392 -0.00114222 -0.00215080
N 2.27631171 17.74289304 3.34676111 0.00185907 0.00280644 -0.00160649
N 0.04125515 15.20726498 9.96569144 -0.00033839 0.00903778 0.00053564
N 1.55260128 13.79034326 14.90982257 -0.00468839 -0.00130081 0.01286380
N 2.11553945 18.67306717 16.91959497 -0.00103500 0.00513741 0.00208352
N 2.93793953 10.34160169 12.69534362 -0.00495035 -0.00116851 0.00173334
N 1.34900771 13.45242214 10.81845970 0.00018533 0.00228036 0.00516170
N 0.21503630 15.73942829 15.12189095 -0.00325277 -0.00513613 0.01248412
N 2.99987816 10.65934224 16.80303176 0.00431878 0.00319498 -0.00436344
N 1.90632697 17.78824147 12.26824953 -0.00055882 -0.00263934 -0.00026153
N 0.41541421 14.89192777 19.32960832 0.00484292 -0.00568740 -0.00850168
N 2.00183043 14.00432398 23.93253443 0.00333324 -0.00025383 0.00200431
N 2.39076394 18.68614279 26.28752804 -0.00611991 0.00507469 -0.00904038
N 3.62643827 10.09095867 21.32098675 0.00345759 -0.00291089 -0.00567068
N 1.52899694 12.93859052 19.66488618 0.00041424 -0.00175756 0.00529000
N 0.58596866 15.86797667 24.21342531 0.00122020 0.00172789 0.00201143
N 3.47120544 10.98636057 25.84932241 0.00086175 0.00768557 0.00501641
N 2.45286007 17.87438466 21.21737643 -0.00252473 0.00465907 -0.00211182
N 0.27456628 24.74909354 1.31824907 -0.00465292 0.00234881 0.00262357
N 1.47053482 23.40569521 5.87350977 -0.00555702 0.00285150 -0.00417715
N 1.67772094 28.40598975 8.17758569 0.00397580 0.00194719 -0.00656782
N 3.65191247 19.55696011 3.34893029 0.00769369 -0.00686111 0.00016632
N 1.67529103 22.95290312 1.38281907 -0.00180004 0.00136710 -0.00096728
N 0.26677966 25.33843819 6.24156212 -0.00146176 -0.00222375 -0.00090484
N 3.26334897 20.48879921 7.94669042 0.00094916 0.00048539 0.00488636
N 2.50722680 27.48977295 3.32598236 -0.00320950 0.00551679 0.00449308
N 0.41487524 24.42891597 10.45320467 -0.00065807 0.00096063 0.00372550
N 1.47013536 23.11985672 14.88392855 0.00217345 -0.00131637 -0.00510597
N 1.94864306 28.17508516 17.40205287 -0.00099747 0.00084263 0.00109010
N 2.95129401 19.84092909 12.32343441 -0.00116764 0.00268573 -0.00110452
N 1.37820027 22.32907350 10.69749933 -0.00482493 0.00117352 0.00277241
N 0.43544571 25.12544906 15.38818213 0.00396790 0.00521250 0.00512940
N 3.55580508 20.46495421 16.61986469 -0.00026530 0.00165584 -0.00009158
N 2.31268350 27.18771545 12.23551311 -0.00650626 0.00425754 -0.00312157
N 0.89094573 24.71561728 19.39381953 -0.00041985 -0.00064929 -0.00224089
N 1.93116890 23.55245447 23.96681624 0.00303063 0.00532982 0.00669893
N 2.25905279 28.33468446 26.72559755 0.00581630 -0.00242275 -0.00791917
N 3.66415522 19.79457318 21.61957464 -0.00663168 0.00155407 0.00301812
N 1.58944516 22.52303272 19.64785821 -0.00051115 -0.00688877 0.00222308
N 0.82958079 25.53804843 24.37997121 -0.00180555 -0.00248004 0.00590301
N 3.56872320 20.66218004 26.10783907 0.00053915 0.00310402 -0.00955379
N 2.38528372 27.75733624 21.44046823 0.00189724 0.00207651 -0.00154527
N 3.91277065 5.61174279 1.26183441 0.00317368 0.00577158 -0.00622545
N 5.26576204 4.29590984 5.86189575 0.00162976 0.00003593 -0.00068731
N 5.51400320 9.00893692 8.20066200 -0.00098534 0.00158204 0.00438799
N 7.23018730 0.66405607 3.33806825 -0.00130073 -0.00213522 0.00187643
N 5.23893186 3.70556456 1.50603930 0.00164240 0.00077502 0.00052227
N 4.00258592 6.26789217 6.04778476 -0.00103671 0.00055048 -0.00307386
N 7.02561504 1.24878644 7.38130359 -0.00055530 -0.00494857 -0.00240366
N 6.01491397 8.30338162 3.44760342 0.00071061 -0.00679755 0.00707913
N 3.77562511 5.44244320 10.19924579 -0.00930406 0.00041146 -0.00463494
N 5.07892444 4.27578345 14.76750442 -0.00123180 -0.00321095 -0.00451938
N 5.59430059 8.87066427 17.14984735 -0.00011382 0.00064661 -0.00254018
N 7.15142466 0.68146548 12.44499111 0.00494767 0.00144832 0.00057517
N 4.78804544 3.37014237 10.67647326 0.00454760 0.00225927 -0.00034846
N 3.80326007 6.03845997 15.19649423 0.00109718 0.00325475 0.00421703
N 7.04209170 1.20163278 16.78727966 0.00222424 -0.00139108 -0.00416692
N 5.43592057 8.32244287 12.27612089 -0.00515146 0.00329946 0.00319804
N 4.05780118 5.31298350 19.42969498 -0.00232745 -0.00066478 0.00182499
N 5.07930718 4.11173854 23.82471015 0.00644388 0.00267283 0.00654059
N 5.84625379 9.09472997 26.22308914 -0.00044822 0.00460165 0.00098343
N 7.10578936 0.75953419 21.91823727 0.00092958 0.00154782 0.00663157
N 5.05642979 3.25077251 19.71032050 -0.00124183 -0.00510776 0.00482799
N 3.96557920 6.10468780 23.75949820 0.00267311 -0.00238345 -0.00573840
N 6.93121026 1.51848218 26.11395412 0.00472088 -0.00495694 0.00947383
N 5.81030006 8.42467022 21.07229619 -0.00513768 0.00134453 0.00456473
N 3.82687468 15.24131085 1.10109606 0.00104741 0.00201727 0.00100846
N 5.32122713 13.63602065 5.53017594 -0.00705041 0.00128073 -0.00380463
N 5.94493581 18.74233975 7.99910485 0.00022649 -0.00362489 -0.00048030
N 6.71022040 10.52462563 3.58042606 -0.00153658 0.00158605 0.00405859
N 5.02881631 13.25485304 1.30631217 -0.00121580 -0.00508407 0.00228106
N 4.19973598 15.59816395 6.02329592 0.00272303 -0.00356356 -0.00249217
N 7.07011143 10.73846500 7.56456243 0.00369070 -0.00395264 -0.00311364
N 6.18815701 18.07357525 3.29405770 -0.00273706 -0.00240223 -0.00332021
N 3.55242909 15.16110760 10.15477509 -0.00265295 -0.00469685 0.00275580
N 5.29757419 13.90969947 14.89541334 -0.00150759 0.00788750 -0.00271429
N 5.93378991 18.29544161 17.36229364 -0.00000542 0.00563677 0.00070154
N 6.66894733 10.31553444 12.51527878 0.00118741 -0.00197709 0.00069203
N 4.61801325 13.20901927 10.80832584 0.00029848 0.00282161 -0.00446820
N 3.85337643 15.70407314 15.04157303 0.00953397 0.00520964 -0.00243834
N 7.06498563 10.58122956 16.45469409 0.00083169 -0.00296953 -0.00301704
N 6.09479904 17.80859259 12.17001757 0.00440713 0.00114985 0.00578099
N 4.29250878 15.11527675 19.09021109 -0.00445468 -0.00241873 0.00913724
N 5.52434415 13.81905617 23.96241066 0.00121336 -0.00672505 -0.00319903
N 5.98373060 18.49395326 26.55777823 -0.00711371 0.00445130 -0.00225590
N 7.13745224 10.19870482 21.54222949 0.00472125 -0.00083621 -0.00080813
N 5.51097582 13.16449197 19.64710614 0.00086292 -0.00135212 0.00367167
N 4.49775218 15.77910872 24.34428092 -0.00270836 0.00329865 -0.00424341
N 6.98461376 11.04868749 25.81899458 -0.00240478 -0.00712756 -0.00036918
N 6.13191193 18.13606366 21.43163582 -0.00019719 -0.00058872 -0.00630406
N 4.20979880 24.85097862 1.05879520 0.00504577 -0.00285605 -0.00415736
N 5.06417901 23.46845623 5.84126627 -0.00700111 0.00487958 -0.00271960
N 5.31844846 28.67788978 8.06244758 -0.00078655 0.00943453 -0.00199493
N 7.35484788 20.08514698 3.59719991 -0.00319112 0.00075395 -0.00937375
N 5.13929473 22.92620553 1.76757042 -0.00109710 -0.00128876 -0.00280640
N 3.78405782 25.43877977 6.01979525 -0.00600258 0.00009677 0.00192933
N 7.17738830 20.64553229 7.75337286 -0.00165748 -0.00074312 -0.00625026
N 6.23221283 27.45539020 3.18184090 -0.00399438 0.00249158 0.00602658
N 3.90267358 24.52999343 10.23334657 0.00492510 0.00186007 0.00025137
N 5.43284465 23.56389955 14.86486951 -0.00468344 0.00051434 0.00368775
N 5.73522437 28.09874192 17.10668365 0.00048454 0.00297143 -0.00525490
N 7.33387974 19.70552714 12.52213102 0.00620932 0.00061902 -0.00525671
N 5.14134254 22.60826232 10.60767164 -0.00249638 -0.00367170 0.00279247
N 3.85458412 25.22496689 15.20347096 0.00455598 -0.00287999 -0.00053597
N 6.72400979 20.35074282 16.96278087 -0.00263485 -0.00065642 0.00103891
N 6.09867057 27.45479643 12.16814569 -0.00718367 -0.00318435 0.00570593
N 3.94431874 24.68555209 19.47166980 0.00575453 -0.00301606 0.00314899
N 5.54294509 23.52638403 24.04930370 0.00097466 0.00461405 -0.00594230
N 5.74485973 28.34190254 26.29448629 0.00513623 -0.00124471 0.00326280
N 7.17464462 20.04189485 22.02972822 -0.00197287 0.00146201 0.00045378
N 5.03251852 22.67599860 19.69548066 -0.00728457 -0.00210201 0.00340947
N 4.42365496 25.44101537 24.33674581 0.00413634 -0.00135953 0.00733443
N 6.85026616 20.56221445 26.42688724 0.00409369 0.00686265 -0.00883399
N 5.88666985 27.61597739 21.38112494 0.00125317 0.00156926 -0.00453026
N 7.77102017 5.60325401 1.38262526 -0.00096745 0.00847240 0.00031950
N 8.84839875 4.14537989 5.51086638 -0.00419905 0.00752391 0.00709439
N 9.45849008 8.62905179 7.94406114 -0.00664977 -0.00042464 0.00302855
N 11.17153749 0.56222425 3.57760822 -0.00837376 0.00815309 0.00022683
N 9.00398033 3.66917785 1.52879448 -0.00354400 -0.00169514 0.00528982
N 7.57970248 5.94977750 6.09201063 0.00084947 0.00807111 0.00398048
N 10.63452505 1.24334121 7.59239251 0.00014833 0.00289058 0.00305083
N 9.75395100 8.61496384 3.06950348 -0.00301931 -0.00339209 -0.00446024
N 7.37312652 5.37851092 10.38926452 -0.00046898 -0.00359238 0.00357898
N 8.71226286 4.00913690 14.68132867 0.00222298 0.00082915 0.00042383
N 9.11857665 8.64740616 17.53481434 -0.00352078 -0.00274242 -0.00051964
N 10.59163420 0.76370377 12.67209537 0.00252701 0.00052428 -0.00196810
N 8.66697435 3.37405322 10.43198600 0.00222571 -0.00428295 -0.00142732
N 7.35904975 5.96314823 15.06918645 -0.00233558 0.00227725 -0.00887290
N 10.61111280 1.20184026 16.66291558 -0.00039086 0.00062032 -0.00256114
N 9.18614537 8.25407018 12.15835181 0.00284231 0.00094500 0.00074447
N 7.62652845 5.64661599 19.10179680 0.00985329 0.00405493 -0.00186910
N 8.99908584 4.16035845 24.22645101 0.00056569 0.00323696 0.00221363
N 9.48973852 8.94055211 26.44567518 0.00539980 0.00053107 0.00333454
N 10.85801603 0.66113259 21.58445085 0.00224839 0.00790106 0.00887076
N 8.53532547 3.62114954 19.71708153 0.00114202 0.00053357 -0.00193050
N 7.54298797 5.97257846 24.22437897 -0.00620468 -0.00414702 0.00507616
N 10.35668353 1.25973882 25.99574625 -0.00248293 0.00225574 0.00191331
N 9.51968900 8.41136089 21.20596814 -0.00444707 -0.00183604 0.00348179
N 7.55983201 15.14500784 1.27182228 0.00049294 0.00204206 0.00698730
N 8.75062780 13.61468867 5.89142497 0.00295240 0.00496114 0.00191113
N 9.51178077 18.64046348 7.71846179 0.00471235 -0.00485207 -0.00093550
N 10.87565705 10.68209332 3.43159066 -0.00288426 0.00851744 -0.00098629
N 9.05263700 13.33749121 1.48313530 0.00744577 0.00904098 -0.00000826
N 7.80871577 15.61194874 6.32526144 0.00955068 -0.00186202 -0.00173902
N 10.58031713 10.61989829 7.71943140 -0.00480071 0.00418805 0.00341710
N 9.85161352 17.86833426 3.21259407 0.00430611 -0.00671693 0.00129539
N 7.51704891 15.07700354 10.39898280 -0.00576693 -0.00014268 -0.00123427
N 8.77963303 13.76859843 14.71929719 0.00488424 -0.00434218 -0.00178604
N 9.04202846 18.78950079 17.31307493 0.00061324 -0.00553501 -0.00269850
N 10.17493901 10.30576358 12.44792079 0.00134674 -0.00383673 0.00006948
N 8.49297393 13.05415985 10.48457716 0.00368098 -0.00573321 -0.00414153
N 7.86365441 15.84497844 15.08511671 0.00433219 -0.00724640 -0.00032841
N 10.29971469 10.51448562 16.69870123 0.00190048 0.00162987 -0.00622409
N 9.74367250 18.02343044 12.43445434 -0.00430818 -0.00144279 0.00169290
N 7.95566944 15.13164525 19.32098151 0.00505001 -0.00744182 0.00171426
N 9.26777859 13.89333471 23.79308550 0.00697112 -0.00236019 0.00157102
N 9.34141931 18.55002805 26.31816662 0.00320126 -0.00387898 0.00067859
N 10.82202261 10.28020758 21.69006293 -0.00399500 0.00156084 -0.00837252
N 8.63827979 13.08860227 19.53955514 -0.00191829 -0.00085984 0.00461642
N 8.01861955 15.71468816 24.21337597 -0.00184449 -0.00317231 0.01142553
N 10.81808136 10.58681507 25.81362158 0.00096187 0.00385355 0.00290202
N 9.43899502 18.13469441 21.36633603 0.00035308 0.00102107 -0.00234268
N 7.91619515 24.42200837 0.98022927 0.00489609 -0.00506094 -0.00662378
N 9.00939599 23.55183208 5.86452933 0.01049519 -0.00302508 -0.00931572
N 9.39303565 28.03972929 7.97658247 -0.00489125 -0.00019768 0.00201124
N 10.90283581 19.89531020 3.44554533 0.00732818 0.00265977 -0.00310461
N 9.33430013 22.70662529 1.63967375 -0.00421029 0.00450535 0.00210141
N 7.49221883 25.32908206 5.97909161 -0.00138204 0.00881605 0.00074007
N 10.82363316 20.54487238 7.45944064 0.00111825 -0.00215298 0.00743100
N 9.66713025 27.53277643 3.24409603 -0.00302838 -0.00024006 -0.00261961
N 7.38242181 24.53547728 10.32667479 -0.00140410 0.00271290 0.00561649
N 8.59348547 23.15255361 14.84555243 -0.00364314 0.00005938 0.00110016
N 9.71046143 27.97637009 17.14253422 0.00344253 0.00530434 0.00164398
N 10.51700557 20.16362617 12.44292764 0.00406057 0.00178537 0.00055893
N 8.71828038 22.62947152 10.74899007 -0.00223371 0.00750870 0.00309691
N 8.17107383 25.42505402 15.24237458 0.00521546 -0.00133591 -0.00477783
N 10.59058580 20.48925060 16.92051070 -0.00455554 -0.00333408 0.00293771
N 9.49341643 27.60303659 12.12162434 0.00157429 0.00160111 -0.00185994
N 7.63872199 24.57164413 19.10784665 -0.00080787 -0.00235817 0.00204514
N 9.16619101 23.13972816 23.79442482 0.00478195 -0.00113247 -0.00202138
N 9.02205275 28.25193233 26.18908813 -0.00143667 -0.00293709 -0.01093648
N 10.77707612 19.89952105 21.98208507 -0.00031697 0.00000709 0.00158314
N 8.73487131 22.74993704 19.90591487 0.00395121 -0.00234254 -0.00218200
N 7.98262046 25.02687252 24.18868770 0.00245821 -0.00455606 0.00551931
N 10.80271898 20.45590989 25.96847345 0.00033698 0.00417177 -0.00944068
N 9.56223317 27.55528619 21.42711395 0.00294218 0.00012529 -0.00592797
N 11.42956769 5.56593926 1.03521514 -0.00532012 -0.00447869 -0.00304939
N 12.63659211 3.91212895 5.53252526 0.00156814 0.00224703 -0.00031832
N 12.89707009 8.76314441 7.83167594 0.00452732 0.00703899 -0.00202018
N 14.23630216 0.70878782 3.44233639 -0.00454262 0.00147004 -0.00494987
N 12.30478525 3.50270909 1.43195328 -0.00310012 0.00128384 -0.00204860
N 11.35507207 5.90070870 5.78738341 0.00030602 -0.00848857 0.00193816
N 14.13302034 1.14167900 7.92383342 0.00304399 -0.00259362 -0.00067138
N 13.04961148 8.06549922 3.00732507 0.00299687 0.00582941 -0.00065446
N 11.14221712 5.45907583 10.12414672 -0.00269955 0.00340860 -0.00658770
N 12.32170455 4.16430569 14.80943927 0.00009674 -0.00070148 0.00327875
N 13.08980795 9.08750999 17.04302167 0.00624605 0.00137563 -0.00300676
N 14.31058297 0.85842257 12.73126324 0.00235309 0.00232738 -0.00663273
N 12.39667030 3.58793193 10.43100582 -0.00491971 -0.00298059 0.00060521
N 10.94514528 5.95198712 15.19230430 0.00236673 0.00080712 -0.00401047
N 14.29754026 1.26566131 16.94318174 0.00294389 0.00510025 -0.00420828
N 12.51632558 8.38846474 12.16990970 -0.00431797 0.00353672 -0.00196074
N 10.92406267 5.45557449 19.33155409 -0.00351850 -0.00170847 -0.00838876
N 12.67825129 4.06655102 23.99059924 -0.00221007 0.00097553 -0.00137504
N 13.03368805 8.87370590 25.87138227 -0.00359396 -0.00211459 0.00078789
N 14.20541142 0.72513852 21.85179259 0.00197541 -0.00915153 -0.00212346
N 12.25436228 3.66989880 19.72347572 0.00177122 0.00081326 0.00635006
N 11.48577315 6.02236190 24.28055213 -0.00956829 0.00745244 -0.00226992
N 14.42348263 0.99273947 25.97215743 0.00445562 -0.00182088 -0.00810610
N 13.09679311 8.17609354 21.38903415 0.00111250 0.00546754 -0.00534903
N 11.44391250 15.05532028 1.34202079 0.00335586 -0.00684522 0.00283946
N 12.57736624 13.74782581 5.91124471 -0.00515120 0.00303088 0.00046942
N 12.95712519 18.68314697 7.89679690 -0.00036934 -0.00357523 -0.00335972
N 14.08759113 10.08657299 3.34454064 0.00641759 0.00483325 0.00068777
N 12.62146721 13.12410034 1.26823501 -0.00838994 -0.00724892 0.00310116
N 11.41616639 15.66824743 6.25616607 -0.00114923 -0.00147528 0.00582017
N 14.21256278 10.61129363 7.74088438 -0.00339108 -0.00065647 0.00688764
N 13.36126806 17.98482114 3.09036980 -0.00337712 0.00077085 -0.00485982
N 10.90230747 14.82678498 10.54435787 0.00031672 -0.00137953 0.00417830
N 12.53994785 13.99451481 14.94776529 0.00068602 -0.00321819 -0.00530992
N 13.14280607 18.62647972 16.99145274 -0.00480343 -0.00136531 -0.00559011
N 14.04228954 10.09145679 12.38354172 -0.00478132 0.00659435 -0.00426150
N 12.25976827 12.87592137 10.70337716 0.00085817 -0.00015071 0.00377507
N 11.17976548 15.73901677 15.41286173 0.00111598 -0.00200234 0.00011278
N 14.16702619 11.16640045 16.78403426 -0.00092993 0.00173533 -0.00178942
N 13.13594970 17.65281336 12.30634024 -0.00112837 0.00382491 -0.00562321
N 10.88137514 15.26088652 19.66752716 -0.00164172 -0.00665894 -0.00051619
N 12.72055142 13.83714152 23.95844839 0.00020154 0.00396235 0.00026593
N 13.10625112 18.26672230 26.40103160 0.00532450 0.00462814 -0.00285181
N 14.28194576 10.24306201 21.52769598 0.00191380 0.00264649 -0.00235408
N 12.23910761 13.40776658 20.05700107 0.00125915 0.00131941 0.00292771
N 11.76824088 15.85975220 24.39700911 0.00157538 0.00663331 0.00792408
N 14.57911499 10.61806424 25.82823125 -0.00052585 0.00098004 0.00118676
N 12.98694367 18.20773873 21.48265227 -0.00673136 -0.00506146 -0.00236981
N 11.51574931 24.77557221 1.34508991 -0.00221880 0.00908889 -0.00035753
N 12.76179671 23.44314475 5.66392404 0.00068935 -0.00541138 -0.00228354
N 12.87628821 28.10573308 8.37048022 0.00198443 -0.00359491 -0.00168279
N 14.67580507 19.83489510 3.50127625 -0.00439561 0.00270936 0.00222480
N 12.36327893 22.61878228 1.32905702 -0.00007555 -0.00381156 -0.00134642
N 11.50497653 25.38145868 6.13591170 0.00167882 -0.00395756 -0.00307424
N 14.54101073 20.52013158 7.80499559 -0.00714910 -0.00328647 -0.00080529
N 13.32400361 27.45841481 3.27291278 0.00093409 -0.00197257 -0.00426195
N 11.08269882 24.55695206 10.40840342 0.00139301 -0.00349336 0.00336847
N 12.71376721 23.30414178 14.77485954 0.00098703 -0.00129142 -0.00469292
N 13.09179601 28.11816448 16.99352069 -0.00134734 -0.00397719 0.00791163
N 14.12204017 19.71007512 12.49981893 0.00812973 0.00235914 0.00818552
N 12.56046479 22.86576231 10.78626014 0.00694712 0.00120748 0.00771333
N 11.20479832 25.03512832 15.34121820 0.00214173 0.00148928 -0.00025945
N 14.41545889 20.58180583 17.18993396 -0.00579064 -0.00338725 -0.00532831
N 13.14021230 27.60878960 12.37773773 0.00498573 0.00210870 0.00784003
N 10.97940058 24.48949718 19.42988336 -0.00000902 -0.00279272 0.01105619
N 12.77650858 23.06130971 23.74350328 -0.00722973 -0.00059942 0.00176321
N 12.82025879 28.27648670 26.54964482 0.00268052 0.00081883 -0.00154409
N 14.63961931 19.85519656 21.41338230 0.00188555 0.00326456 -0.00183175
N 12.25525016 22.62074670 19.80562768 -0.00611153 -0.00413751 -0.00529045
N 11.71527574 25.01023389 24.26381736 -0.00095142 -0.00517668 0.00288755
N 14.35558468 20.17905223 25.90757272 0.00528619 -0.00552817 -0.00700906
N 13.22766637 27.54166903 21.45298265 -0.00474800 0.00079579 -0.00708868
N 14.81304394 5.35875242 1.34489216 0.00257780 -0.00249869 -0.00206906
N 16.27693824 3.83396286 5.68670842 0.00143876 -0.00192846 0.00200004
N 16.49181281 8.82698961 8.13659263 -0.00002837 -0.00564554 0.00101054
N 18.32013068 0.54829296 3.68157652 0.00354416 -0.00038254 -0.00483203
N 16.24067812 3.44900294 1.58274051 0.00405424 0.00671517 0.00547049
N 15.16457157 5.75506501 5.90806645 0.00089006 -0.00308476 -0.00250384
N 17.74381734 1.23195131 8.06743125 0.00406246 -0.00298295 0.00470923
N 16.65902248 8.35707105 2.99174365 0.00284579 0.00213844 -0.00397225
N 14.97029289 5.60048322 10.07079846 0.00424328 -0.00694322 -0.00354868
N 15.99826826 3.93028015 14.93745336 -0.00210050 -0.00061397 -0.00093388
N 16.27800362 8.95993781 16.89511068 -0.00100723 -0.00232641 0.00317496
N 17.98208220 0.64318626 12.55858446 -0.00080085 -0.00409205 0.00134686
N 16.02467326 3.71883455 10.93315508 0.00150793 -0.00292904 0.00147651
N 14.91484868 5.97833760 15.19373721 -0.00069225 0.00394401 -0.00159082
N 17.81584584 1.09001415 16.91523608 0.00272831 0.00391972 -0.00065245
N 16.51207843 8.33497822 12.07232814 -0.00162907 -0.00603108 0.00583096
N 14.61159892 5.36704926 19.35449611 -0.00373490 0.00579462 0.00373419
N 16.56399121 3.66852508 23.86621816 -0.00006456 -0.00020124 0.00392458
N 16.84156582 8.73461968 26.16713266 -0.00318237 -0.00106149 -0.00658466
N 18.43153124 0.74883382 21.94075580 0.00079691 -0.00153072 -0.00036673
N 15.86973300 3.45297242 19.77612868 0.00397319 -0.00077304 -0.00163222
N 15.21944290 5.57514891 24.36381502 0.00062287 -0.00072975 0.00145740
N 18.16341105 1.31860067 26.01068189 -0.00106076 -0.00331147 0.00084013
N 16.88920129 8.07636942 21.36258823 0.00473166 -0.00182651 0.00526651
N 15.22702200 15.09248693 0.88086030 0.00428823 0.00208382 -0.00371365
N 16.23242570 13.67671133 5.68096996 0.00006943 0.00202047 0.00287715
N 16.85439255 18.08542112 7.84588021 0.00317945 -0.00075008 0.01041511
N 17.60704793 10.30556329 3.32720904 0.00074986 0.00410832 -0.00369534
N 16.38617524 13.11659675 1.34924935 0.00264136 -0.00383504 0.00683537
N 15.12823023 15.70130337 5.75084640 0.00056070 0.00418576 0.00283420
N 17.75957976 10.65919146 7.49725397 -0.00458879 -0.00517686 -0.00461017
N 16.90161341 17.89931772 2.95767144 0.00311017 0.00972536 0.00006231
N 14.76724202 15.03255551 10.27122551 0.00056745 -0.00084729 -0.00064244
N 16.20491617 13.84816755 14.95139877 0.00257636 -0.00868574 -0.00566152
N 17.10221029 18.60614042 16.86678248 -0.00231573 -0.00120103 0.00534547
N 17.72809447 10.17254830 12.63104309 -0.00145010 0.00172480 0.00463672
N 15.96422860 13.11716203 10.87141574 0.00433314 0.00148368 0.00066896
N 14.83184839 15.63487750 15.26814536 0.00162255 -0.00043601 -0.00554802
N 17.67294833 10.81282362 16.88321095 -0.00443857 0.00066375 -0.00622419
N 16.79077602 17.89483502 12.19837929 -0.00257971 -0.00346414 -0.01037537
N 14.75968637 15.08453441 19.39806021 0.00046373 -0.00168831 -0.00327347
N 16.53065213 13.60270220 23.80867299 -0.00284572 0.00149272 -0.00320064
N 16.65712225 18.46915207 26.27147127 0.00239764 0.00197023 -0.00155546
N 18.24332663 9.95797819 21.42080062 0.00252509 -0.00137194 0.00704517
N 15.56848827 12.99881442 19.93045559 -0.00069931 0.00080195 0.00042993
N 15.54693850 15.63987308 24.24383437 0.00064804 -0.00288446 0.00253039
N 18.06285081 10.66237966 25.53636549 0.00034891 -0.00012128 0.00181075
N 16.97401522 17.89581096 21.52859090 -0.00495877 -0.00627861 0.00130526
N 15.33596315 24.68106163 0.92133674 -0.00043429 0.00008524 0.00137555
N 16.33639514 23.46838061 5.54631807 -0.00315152 -0.00347277 -0.00128658
N 16.45764852 28.21104996 8.16881113 -0.00297509 -0.00364973 0.00357337
N 18.15540308 19.80331323 3.38637998 -0.00279697 -0.00300519 0.00278747
N 16.42390024 22.68207258 1.18805953 -0.00022085 0.00344571 0.00147428
N 15.19162268 25.36869433 6.03108517 -0.00399641 -0.00026321 -0.00322576
N 17.70636925 20.23617022 7.72519446 0.00471135 -0.00099323 0.00015049
N 16.91784765 27.57073772 3.48832238 0.00557524 -0.00022809 -0.00065079
N 14.90566977 24.84175789 10.13709140 0.00505765 0.00378291 0.00688534
N 16.37790065 23.12156323 15.09941976 0.00056631 -0.00053534 0.00714544
N 16.56506156 27.98929160 17.04115416 0.00691807 0.00289903 -0.01075197
N 17.96879334 19.84680955 12.35113486 0.00633492 0.00528534 -0.00074827
N 15.99725035 22.86277182 10.55949336 0.00529601 0.00705674 0.00177275
N 14.91322959 24.87509195 15.21535791 0.00307994 0.00439575 0.00477549
N 18.41084391 20.57392626 16.86808004 -0.00214659 0.00070299 0.00707779
N 16.63619850 27.54191433 12.29342295 -0.00762964 0.00244455 -0.00802838
N 14.87552976 24.90304954 19.23165307 -0.00122393 -0.00152486 -0.00080795
N 16.38634806 23.49101231 24.27505332 -0.00635936 -0.00137188 -0.00408762
N 16.84054965 28.20649814 26.10765854 -0.00160230 0.00582643 0.00190026
N 18.08508388 19.85931565 21.52652816 0.00918909 -0.00142233 -0.00185333
N 16.29493510 23.27569298 20.00109498 0.00320607 -0.00623935 0.00008528
N 15.00703683 25.23371742 24.62810814 -0.01072587 -0.00629340 0.00209137
N 18.05976040 20.24432823 25.72148905 0.00951260 -0.00417886 0.00287982
N 16.82262044 27.82284560 21.78492861 0.00214870 -0.00204595 -0.00016806
N 18.66776160 5.23510588 0.89453540 -0.00100940 0.00124118 0.00365359
N 19.78978531 4.36737508 5.76415006 0.00004795 0.00253232 0.00265727
N 20.34380017 8.95762948 7.97631985 -0.00325027 -0.00289193 0.00048937
N 21.94525181 0.57983856 3.43708330 -0.00437581 -0.00104305 0.00105777
N 19.74768215 3.31915723 1.50432079 -0.00198827 -0.00257219 -0.00082764
N 18.57894207 6.30467973 5.84800031 -0.00202606 -0.00220983 -0.00095504
N 21.03066114 1.55307115 7.49925680 0.00228275 -0.00283003 -0.00104804
N 20.08690592 8.37529361 2.85037319 0.00047622 0.00133373 -0.00399337
N 18.62952334 5.69148364 10.20326227 -0.00545036 -0.00164018 -0.00675410
N 19.55484984 3.90948086 15.09936141 -0.00287392 -0.00502275 0.00574188
N 20.17807850 8.52247738 16.91493170 -0.00279914 0.00429300 0.00407623
N 21.61053857 0.59771682 12.44652281 -0.00656316 -0.00254812 0.00973313
N 19.72195638 3.69597689 10.55050437 0.00226354 -0.00250780 0.00250978
N 18.68777142 6.04343974 15.21037412 -0.00278315 -0.00541697 0.00265678
N 21.45840955 1.45343501 16.94669545 -0.00139224 -0.00573896 -0.00315709
N 20.33404075 8.46981886 12.44331559 -0.00610885 0.00269344 0.00257021
N 18.29830745 5.25699534 19.59383383 -0.00066444 0.00361781 -0.00076197
N 20.08183358 3.82911889 23.85812027 -0.00218505 0.00103758 0.01001777
N 20.45279177 9.21699028 25.91752272 -0.00687028 0.00463797 0.00577981
N 21.63749515 0.92583250 21.92302791 -0.00221385 -0.00495095 -0.00016124
N 19.76458774 3.59829212 19.85940859 -0.00056895 -0.00821863 -0.00107309
N 18.86934363 5.72557518 24.15359550 0.00027861 0.00390664 -0.00110803
N 21.79025941 1.04209589 25.97104765 0.00226218 0.00567305 -0.00123291
N 20.71101840 8.37594561 21.07048962 -0.00384978 -0.00418267 0.00476606
N 18.50975169 15.27306111 1.12322833 0.00024132 -0.00653944 -0.00127531
N 20.09292559 13.70173098 5.48862878 0.00305648 -0.00122248 -0.00721176
N 20.32364159 18.65937396 7.80931679 0.00043329 0.00486352 -0.00109037
N 21.35656995 10.16752467 3.56651898 0.00288355 -0.00393681 -0.00047531
N 19.74202277 13.27884841 1.21795776 -0.00464166 0.00116226 0.00094284
N 18.71842415 15.56990030 5.99075277 0.00024475 0.00331625 -0.00723249
N 21.56408302 10.89331811 7.55816500 -0.00025779 -0.00042713 -0.00434607
N 20.50634984 18.20459056 3.10739731 0.00463832 -0.00201089 0.00081654
N 18.24933604 14.70488796 10.02965738 0.00302803 -0.00024436 -0.00183517
N 19.63646779 13.32328377 14.65292007 -0.00224322 0.00876181 -0.00665723
N 20.73676859 18.43035830 16.86521804 0.00380008 0.01431801 -0.00248732
N 21.79979503 10.24138917 12.28748440 0.00467861 -0.00481553 0.00046771
N 19.61289054 12.83804949 10.35755634 0.00195463 0.00829627 -0.00822345
N 18.68396483 15.48534991 14.85382117 -0.00369351 0.00047142 0.00174510
N 21.24847447 10.57227115 16.78940139 -0.00165598 0.00017405 0.00487388
N 20.34196742 17.67231338 11.83884960 -0.00025486 0.00389496 -0.00753848
N 18.25121476 15.12980570 19.21460306 -0.00657548 -0.00929190 -0.00084879
N 20.10616414 14.08932556 23.49404723 0.00093543 -0.00489472 -0.00302455
N 20.60414764 18.68837908 26.26373466 0.00014276 -0.00882224 0.00666886
N 21.45560417 10.51634000 21.55806229 -0.00697200 -0.00425512 0.00196891
N 19.29684317 13.13657557 19.71437157 -0.00031060 0.00003393 0.00038893
N 19.10904912 16.05500625 24.07239229 0.00288265 0.00196245 0.00579573
N 21.34484814 11.28907429 25.55124593 -0.00284333 -0.00261392 -0.00350328
N 20.50806538 18.27220626 21.25561539 0.00197394 0.00056760 -0.00188199
N 18.91249481 24.59758284 1.47120867 -0.00255590 0.00453445 -0.00183345
N 19.96609815 23.40267680 5.79328683 -0.00336808 0.00415988 0.00369383
N 20.14572721 28.28281230 8.05616206 -0.00754095 -0.00281135 -0.00011575
N 0.24084141 19.81733539 3.62958801 0.00253392 0.00212636 0.00236839
N 19.98465695 22.53801207 1.60970570 0.00493590 -0.00269741 -0.00827131
N 18.63570461 25.27290732 5.93808797 0.00088324 0.00444072 -0.00120913