1728
Time=61000.00000005 pbc="T T T" Lattice="22.09410039 0.00000000 0.00000000 0.00000000 28.80800994 0.00000000 0.00000000 0.00000000 27.43343453" energy=-10389.82808465 virial="9.06636767 -12.08035255 -3.26160498 -12.08035255 26.13642273 2.07270843 -3.26160498 2.07270843 24.89501986" stress="0.00271724 -0.00071706 -0.00015252 -0.00071706 0.00403686 0.00009114 -0.00015252 0.00009114 0.00403721" Properties=species:S:1:pos:R:3:vel:R:3
N 0.36287663 5.45644411 1.15115684 -0.00122098 0.00420557 0.00023356
N 1.72193358 4.02273938 5.64310776 0.00091013 0.00263981 0.00255172
N 1.90200783 9.02020807 7.99711381 0.00451904 -0.00235593 -0.00208386
N 3.36995790 0.80903615 3.59873419 -0.00431420 -0.00267401 -0.00035802
N 1.40866539 3.40194701 1.27378956 0.00306978 -0.00365189 -0.00215411
N 0.33539994 5.90810405 5.98277201 0.00204142 0.00099323 0.00485163
N 3.40096028 1.11406654 7.99013724 0.00160802 -0.00114819 -0.00467958
N 1.90448818 8.65387742 3.13102618 0.00221287 -0.01145588 0.00030302
N 0.42130624 5.51650018 10.07244984 0.00151585 0.00091353 -0.00551413
N 1.85493087 4.23792021 14.88099277 0.00223302 0.00231679 0.00527652
N 2.12201107 9.14811181 17.08185174 -0.00032719 0.00173703 -0.00244681
N 3.75690773 0.72021012 12.83269926 -0.00294081 -0.00458741 0.00453244
N 1.54756436 3.60057866 10.70210402 -0.00300908 0.00434109 -0.00073651
N 0.60638009 6.15896329 14.94796194 -0.00193941 -0.00296228 0.00005796
N 3.48049384 1.21962034 17.29284100 -0.00182707 -0.00075386 0.00027092
N 1.91628587 8.24183934 12.17185204 -0.00218590 0.00490402 -0.00327622
N 0.03086855 5.50077896 19.18407664 -0.00154307 -0.00384405 0.00101760
N 1.79711494 3.93016883 23.66171412 -0.00222758 0.00350917 0.00029279
N 2.16667917 8.84903708 26.03559562 -0.00482245 0.00232921 -0.00428552
N 3.53121526 0.00690717 21.63639438 0.00623707 0.00199910 -0.00112361
N 1.31703179 3.67841630 19.49787705 0.00196316 0.00159214 -0.00232974
N 0.63300271 5.93102097 24.02189202 0.00823663 -0.00326031 -0.00665551
N 3.18531341 1.14473995 25.83454580 0.00429620 0.00087144 0.00464239
N 2.53080456 8.38099292 21.13101884 0.00041754 0.00075776 -0.00618551
N 21.97409111 14.53575487 0.87293877 0.00539657 0.00013245 -0.00032153
N 1.43801475 13.56980595 5.17983988 -0.00009615 -0.00196131 0.00616975
N 1.84421810 18.57115834 7.77443245 0.00646090 -0.00599907 -0.00915400
N 3.51261481 10.29060472 3.07338849 0.00135338 0.00052407 -0.00218694
N 1.37256771 12.73596354 1.29656860 0.00099170 0.00173324 0.00024944
N 0.38584389 15.63242822 5.77887244 -0.00475154 0.00052878 0.00060833
N 2.92101707 11.11849468 7.49545648 -0.00375206 0.00386628 0.00581965
N 1.91460900 17.70990005 2.96136426 -0.00295074 -0.00350019 -0.00192956
N 0.02250476 15.16562926 10.21345388 0.00015376 0.00688637 0.00432340
N 1.67364039 13.87800585 14.63607381 0.00161112 0.00420595 -0.00018320
N 2.09301379 18.61842221 16.71852762 0.00255268 -0.00571113 0.00261507
N 3.05170324 10.23796231 12.52979911 0.00312913 -0.00169667 -0.00368809
N 1.04148582 13.18731161 10.56441930 -0.00118688 -0.00009422 0.00212743
N 0.40256619 15.87285569 15.01693161 -0.00189335 -0.00154253 0.00106085
N 3.70008959 10.96299119 16.74782146 0.00331599 0.00656403 0.00487724
N 1.89375650 17.91490731 12.13173319 -0.00282569 0.00199506 -0.00285665
N 0.19867921 15.15323152 19.27182059 -0.00007919 -0.00163446 0.00365467
N 1.85151925 13.99401547 23.93666751 -0.00467352 -0.00147337 0.00688536
N 1.69950874 18.55874487 26.17662115 -0.00542947 0.00303319 0.00607378
N 3.84303222 10.24585545 21.53208328 0.00219853 -0.00694163 -0.00067292
N 1.49107244 13.34163089 19.42354086 -0.00686938 -0.00099771 0.00072251
N 0.28892946 15.73118588 24.23993896 0.00076214 0.00699837 -0.01063435
N 3.67484157 10.52818923 25.86992826 -0.00229460 -0.00008173 0.00128247
N 1.88026326 17.93628336 21.26951497 0.00183223 0.00085461 0.00179274
N 0.08962803 24.68244955 1.37918034 0.00347132 0.00261702 0.00320266
N 1.75307184 23.60812907 5.87442073 0.00172648 -0.00255213 0.00129320
N 2.57711746 27.81043906 8.36192263 -0.00152385 0.00507390 0.00483316
N 3.27499965 19.55637443 3.23203845 0.00127357 -0.00509765 -0.00074754
N 1.19453315 22.66129864 1.38870377 -0.00609676 0.00048233 0.00102893
N 0.91377078 25.70597963 5.98098077 0.00179115 0.00091336 -0.00182291
N 3.10391210 20.46179763 7.37603315 -0.00637914 -0.00049315 0.00389432
N 2.43790342 27.59527267 2.96468758 0.00304769 0.00398806 0.00339451
N 22.02722947 24.70584277 10.26689443 0.00552318 0.01043838 -0.00466875
N 1.89312635 23.72945767 14.65908540 -0.00142383 -0.00211139 -0.00205934
N 2.27132512 28.13554492 17.33748393 0.00910763 -0.00173140 -0.00544421
N 3.23410048 19.82028319 12.16932586 0.00457129 -0.00757111 0.00120920
N 1.11224981 22.74764866 10.57996611 -0.00435331 -0.00550221 -0.00067246
N 0.34006005 25.40261553 15.12755570 0.00110905 -0.00062563 0.00078306
N 3.65503501 20.38542544 16.61640860 0.00698498 -0.00351450 0.00231233
N 2.46952349 27.67295815 12.83790890 0.00217253 -0.00150407 -0.00375445
N 0.05490599 24.34796236 19.43282050 -0.00214710 -0.00095293 0.00233024
N 1.52302861 23.12772732 24.12137957 0.00245816 -0.00148543 -0.00070008
N 1.99094842 27.94519266 26.25266465 0.00602623 -0.00471451 -0.00052349
N 3.14526784 19.82682152 21.55825041 -0.00286521 -0.00242415 0.00342410
N 1.31290263 22.38344428 19.68632571 -0.00195375 -0.00007109 -0.00097422
N 0.24149414 25.14067569 24.38791880 0.00021021 -0.00714527 -0.00369901
N 3.17571939 20.30554534 26.06005369 0.00310875 0.00540091 0.00053236
N 2.15123975 27.07940120 21.44448199 -0.00042042 0.00138522 0.00057370
N 3.88511543 5.42032259 1.12998539 0.00442532 -0.00127443 -0.00151971
N 5.32793397 4.40290242 5.73885443 -0.00162181 -0.00313766 -0.01103481
N 5.42039618 8.80599836 7.92479716 0.00128421 0.00389496 0.00052558
N 7.16713266 0.46977771 3.16310923 -0.00088792 -0.00143403 -0.00575518
N 5.27877989 3.54086976 1.37748130 -0.00061805 0.00272075 0.00116125
N 4.12705978 6.41637597 6.03114089 0.00341115 0.00612964 -0.00261406
N 7.16463856 1.14997998 7.71395752 -0.00453835 -0.00186833 0.00102483
N 5.79765314 8.40810372 2.90629964 0.00012565 0.00455908 0.00664838
N 3.86016122 5.48817741 10.52873354 -0.00415177 0.00558951 -0.00153915
N 5.53329367 4.38437884 15.02959503 -0.00143596 0.00188914 -0.00452936
N 5.85982097 8.94261404 17.21135998 0.00239300 0.00314468 0.00291513
N 7.28020803 0.71354358 12.59875649 0.00092647 0.00367988 -0.00789291
N 5.33939072 3.65051750 10.62116413 0.00600974 -0.00220921 0.00016398
N 4.06490071 6.28594638 14.92594043 0.00404366 0.00556975 -0.00421497
N 7.32055743 1.42768842 16.96427664 0.00146575 -0.00259594 0.00144607
N 6.10562489 8.50208390 11.96943531 0.00270704 -0.00215711 0.00323429
N 4.12541090 5.85924973 19.46826154 0.00047843 0.00369891 0.00578178
N 5.29019018 3.89495151 23.77823114 0.00204104 0.00755774 0.00719984
N 5.93540964 8.79624703 26.33403736 -0.00180120 0.00296732 -0.00138640
N 7.09801853 0.55963735 21.94804798 0.00410009 -0.00231980 -0.00216447
N 4.79197439 3.76682697 19.94973067 -0.00529009 0.00112796 0.00082135
N 4.37075448 5.99429437 23.87709954 0.00418719 -0.00200123 -0.00435116
N 6.86573677 1.19112812 25.74936262 -0.00387228 0.00262015 -0.00777146
N 6.34439106 8.41016887 21.36111108 0.00047847 -0.00655781 0.00310048
N 3.67018087 14.67866648 1.27183618 -0.00070818 -0.00313583 -0.00490105
N 4.73481950 13.40684466 5.66152871 -0.00356224 0.00328251 -0.00321187
N 5.64683093 18.66188107 8.09597893 0.00079091 -0.00356802 -0.00216773
N 6.91729857 10.26220138 3.45578973 0.00298581 -0.00242874 -0.00513789
N 5.09617401 12.90280185 1.61726004 -0.00012059 0.00033600 0.00006717
N 3.76302722 15.42900228 5.89002979 0.00246910 -0.00238400 -0.00285622
N 6.78119438 10.65660585 7.90938164 0.00644375 0.00440303 -0.00542959
N 5.70884687 17.75821199 2.98943510 0.00554155 -0.00037873 0.00535137
N 3.88455413 15.03169503 10.41263284 0.00304691 0.00588281 0.00318100
N 5.49118342 13.77126560 14.75057353 0.00317517 -0.00103170 0.00150607
N 5.79906019 18.67239142 17.31894570 0.00678316 -0.00635168 -0.00279577
N 7.10666368 10.43668676 12.31477204 -0.00209484 -0.00230055 0.00290760
N 4.97748812 13.08173232 10.80813850 -0.00041629 0.00173129 -0.00642406
N 4.09509212 15.55760810 15.16420935 0.00311655 0.00442986 0.00220238
N 7.06737441 10.90028685 16.87766666 0.00205979 0.00122030 0.00189796
N 5.78681758 18.17701506 12.34888165 -0.00093913 0.00793753 0.00125506
N 4.13045821 15.20071482 19.40079408 -0.00306363 -0.00258011 -0.00496141
N 4.90760385 13.51539965 24.22998813 0.00493855 0.00500369 -0.00429693
N 5.67950210 18.43887279 26.09440121 0.00099903 0.00029497 -0.00109993
N 6.95905405 10.55326567 22.16339666 -0.00350376 -0.00413903 0.00740652
N 5.40626782 13.21369779 19.55723276 -0.00265472 0.00334251 0.00133398
N 3.92157920 15.58991754 24.10003263 0.00672445 -0.00016706 -0.00060569
N 7.29382381 10.56457846 25.89312779 -0.00383705 0.00283504 0.00090955
N 5.83462451 18.21977221 21.61758248 -0.00111011 -0.00094643 -0.00610189
N 3.80838442 24.36648493 1.17698230 0.00356544 -0.00184739 -0.00087736
N 5.62004370 23.22151593 5.56492468 0.00471065 0.00810524 0.00523689
N 6.02874626 27.92262486 8.01995891 0.00201281 0.00253762 0.00584585
N 7.05302564 19.64095019 3.27965697 -0.00670076 0.00275738 0.00059390
N 5.28585962 22.69309509 1.50526402 0.00486281 -0.00058023 -0.00009028
N 4.33908432 25.16247043 5.78473030 -0.00508603 0.00077521 0.00170364
N 6.74043501 20.71387525 8.05847093 0.00271753 -0.00242974 0.00170805
N 5.89720126 27.41019311 2.74232056 -0.00017378 -0.00060956 -0.00231136
N 3.77357928 24.84547149 9.99952360 0.00315791 0.00176138 -0.00445299
N 5.34146849 23.19457904 14.46710494 -0.00128925 -0.00403022 -0.00019807
N 6.20897289 28.16478478 17.34625580 0.00637106 0.00683732 -0.00048496
N 6.85982954 20.11557153 12.68259051 -0.00547593 -0.00292776 0.00094258
N 5.07865416 23.00306812 10.23376759 -0.00071750 -0.00182896 0.00220993
N 4.24011413 25.24407118 14.94841040 -0.00272748 0.00175263 0.01045543
N 7.23640924 20.36426875 16.73503946 -0.00193493 0.00381518 -0.00516088
N 6.03732127 27.60164107 12.31684267 0.00374907 -0.00226456 -0.00447055
N 3.80648284 24.61179253 19.16451238 0.00088442 -0.00409046 -0.00126684
N 5.31524574 23.33026872 23.69586381 -0.00255442 -0.00444732 0.00358635
N 5.66796029 27.98492785 26.14264051 0.00303214 -0.00031855 0.00000166
N 7.17913469 19.90209058 22.44722471 0.00391314 -0.00112348 -0.00502343
N 5.12024850 22.77189141 19.64418558 -0.00402542 0.00125956 -0.00620247
N 3.74445227 25.03515472 24.09435414 -0.00133652 0.00140302 -0.00142682
N 6.86184548 20.42761427 25.91224191 0.00457178 0.00043899 -0.00057631
N 6.02558637 27.32084551 21.49394949 -0.00472957 0.00390625 -0.00009988
N 8.21426351 5.47904994 1.21471203 0.00353227 -0.00003173 0.00170394
N 8.67989107 4.22216264 5.83929051 -0.00182305 -0.00625166 0.00371549
N 9.39170991 9.22323482 7.97000076 -0.00103895 -0.00446934 0.00549730
N 11.33256886 0.53426499 3.31083319 0.00034297 0.00439167 -0.00039481
N 8.89920348 3.31781662 1.53627244 -0.00661995 -0.00176708 0.00171692
N 7.61574858 6.23656309 5.92826166 -0.00259720 0.00066874 0.00075470
N 11.11475252 1.03129311 7.51561992 0.00184247 -0.00681413 0.00637172
N 9.61049509 8.39284311 3.27661998 0.00213734 0.00423575 -0.00705433
N 7.71569828 5.67119910 10.27225880 0.00098336 0.00031064 -0.00505248
N 8.96762025 4.15174201 14.71584234 0.00133665 0.00036426 0.00025196
N 9.52895524 8.86418199 17.26271867 -0.00570589 -0.00335448 0.00770393
N 11.05440115 0.80801734 12.66200591 -0.00461536 -0.00082510 0.00087523
N 8.87272941 3.60433379 10.43467346 -0.00741912 0.00108523 0.00051780
N 7.77604398 6.08199473 14.91334297 -0.00332713 0.00108991 -0.00656021
N 10.80503019 1.31114005 16.94272924 -0.00484256 0.00480529 -0.00289642
N 9.53443317 8.53717370 12.05926895 -0.00486637 -0.00510567 0.00102025
N 8.05783048 5.41621146 19.57671942 -0.00080408 -0.00280430 0.00010919
N 8.83081926 4.17115728 24.24190415 -0.00676425 -0.00153164 -0.00028453
N 9.69374135 8.63269737 26.41290922 -0.00372621 -0.00179131 -0.00398348
N 11.21642291 0.59062521 21.91787227 0.00350920 0.00406019 0.00215802
N 8.84224370 3.31982268 20.05163786 0.00169586 -0.00089387 -0.00128184
N 7.62437100 6.09804064 24.36755495 -0.00330232 -0.00507349 -0.00206027
N 10.78563203 1.00559018 25.91036319 -0.00559961 -0.00435992 -0.00669747
N 9.88307034 8.32397148 21.52245047 -0.00188042 -0.00569731 -0.00385478
N 7.57490766 14.80607336 0.97480459 -0.00190465 -0.00097465 -0.00353048
N 8.84937332 13.61922097 5.71559153 0.00568889 -0.00640686 -0.00139056
N 9.00990909 18.56547907 7.81640297 -0.00404414 0.00543402 -0.00436901
N 10.74087947 10.43175093 3.71884813 0.00023010 0.00350125 -0.00000414
N 8.98597871 12.95188842 1.50252569 -0.00317802 0.00240023 -0.00084631
N 7.51603559 15.46220342 6.12509083 0.00528587 -0.00059955 -0.00005674
N 10.68883989 11.15485835 7.93380587 0.00412839 0.00576993 -0.00222159
N 9.60196218 18.07314269 3.13955243 0.00164395 0.00212531 0.00570688
N 7.65769972 15.27996824 10.49001935 0.00116440 0.00484158 0.00071681
N 8.76354709 13.84049406 14.88776635 0.00383345 0.00325641 0.00242890
N 9.57137211 18.83460323 17.24861835 0.00147988 -0.00041052 -0.00008379
N 11.05090431 10.20548243 12.38836474 -0.00315833 0.00254165 -0.00143379
N 8.86111268 13.26296854 10.38599763 -0.00568493 -0.00383013 -0.00146626
N 7.67386971 15.86032529 15.56573946 -0.00054682 0.00403661 0.00459417
N 10.32758268 10.93916012 16.70559660 0.00148042 0.00149799 0.00113429
N 9.36875858 18.13551093 12.16459689 -0.00172285 -0.00603885 -0.00204110
N 7.79890982 15.24244013 19.63205943 0.00394788 0.00518349 0.00175990
N 9.59209324 13.66791995 23.86973588 0.00188503 -0.00478889 0.00353500
N 9.27569461 18.22566499 26.20631027 -0.00084654 -0.00235045 0.00253573
N 10.99460210 10.31861479 21.71274562 0.00688734 0.00368175 0.00221107
N 8.56374114 13.12969634 19.89190043 0.00210021 0.00188371 0.00516537
N 7.61274238 14.79341862 24.26459115 -0.00156570 -0.00295013 -0.00414127
N 11.02935197 10.48316012 25.92251940 -0.01061041 -0.00408696 -0.00450359
N 9.40258353 17.96754454 21.67391784 0.00251948 -0.00366497 0.00640549
N 7.69463645 24.42207940 1.31047377 -0.00095201 -0.00236512 0.00222389
N 8.82638092 23.44644245 5.59995817 0.00345034 0.00573862 -0.00659170
N 9.72830042 28.16458360 8.21344255 0.00339732 -0.00460842 -0.00096074
N 10.77470024 20.00379673 3.54771281 -0.00013703 -0.00925784 0.00349315
N 8.64108229 22.37759160 1.72768658 -0.00080281 0.00379526 -0.00980781
N 8.08832045 25.52241108 6.08149187 -0.00246771 0.00031993 -0.00132635
N 10.35610354 20.56622982 7.65364590 0.00159134 -0.00273914 -0.00722435
N 9.82167122 27.66420461 2.89589647 -0.00117497 -0.00391189 -0.00382019
N 7.62119171 24.75930559 10.10517216 0.00611405 0.00284251 0.00204437
N 9.05571148 23.54098589 14.54378457 0.00180294 -0.00071625 0.00382615
N 9.46694666 28.19383457 17.19951577 -0.00640129 -0.00188606 -0.00036011
N 10.91196467 19.81309891 12.64977613 0.00238936 0.00678859 -0.00564561
N 8.48502574 22.71343233 10.86906206 -0.00640790 -0.00591580 0.00199885
N 8.01993955 25.36449804 15.31371238 -0.00146857 -0.00996163 0.00606242
N 10.82712603 20.72071537 16.67681185 0.00332603 0.00288972 -0.00244881
N 9.59284333 27.75008604 12.41964176 -0.00066954 -0.00458921 -0.00457125
N 7.64438381 24.50334494 19.59423878 -0.00133557 0.00161985 -0.00659484
N 8.83940448 23.19081085 24.04256346 -0.00076041 -0.00091815 -0.00072164
N 9.67604103 27.92086012 26.46708606 0.00190141 0.00179369 -0.00818372
N 10.97777258 19.64489051 21.74952841 0.00679354 0.00096168 -0.00250514
N 8.97961367 22.61057388 19.98025173 -0.00058368 -0.00091659 -0.00572994
N 7.69281432 25.09191453 24.57588611 0.00426787 -0.00968639 -0.00250102
N 10.23417865 20.24105082 26.18559286 -0.00435069 0.00074532 0.00103025
N 9.77545346 27.63907755 21.57258077 -0.00239677 -0.00114982 -0.00020990
N 11.18043907 5.57581280 1.13706953 0.00539957 -0.00103145 -0.00446633
N 12.48375426 4.35019181 5.52373672 0.00798530 -0.00487524 0.00155517
N 12.96615032 8.91487034 8.21863506 0.00211477 0.00815668 0.00003591
N 14.94307763 0.28677782 3.46784167 0.00184719 -0.00531805 0.00670233
N 12.33824606 3.58840740 1.53569532 -0.00423203 -0.00176249 0.00167213
N 11.42880405 6.33348501 5.95305598 0.00763669 0.00080813 0.00199077
N 14.47674920 1.46255210 7.84943496 -0.00205334 0.00307001 0.00063591
N 13.14968970 8.42549310 3.32941039 0.00670530 -0.00372382 0.00198022
N 11.33675175 5.46591933 10.11609714 0.00246295 -0.00130312 -0.00090339
N 12.50648194 4.32036923 14.83083248 0.00428524 0.00061024 -0.00002989
N 13.18826369 8.89412780 17.24530497 0.00216219 -0.00293540 0.00481530
N 14.71937075 0.83361911 12.82252418 -0.00210021 -0.00855814 0.00458501
N 12.56434487 3.56437954 10.56082028 -0.00074773 -0.00242460 0.00358817
N 11.43207660 6.20652613 15.28223411 -0.00988494 -0.00208786 0.00681862
N 14.58911536 1.17445090 17.03101469 0.00016441 -0.00339329 0.00191163
N 13.52542513 8.49569578 12.40112885 -0.00315367 -0.00096909 0.00491939
N 11.19477082 5.55775629 19.43528609 -0.00372651 -0.00592609 -0.00611934
N 12.65518162 3.89791635 23.88057748 0.00380115 -0.00516570 -0.00110886
N 13.15784834 8.85801809 26.49416907 -0.01329921 -0.00645403 -0.00073041
N 14.66751307 0.66523352 21.90108058 -0.00667537 0.00201340 0.00438814
N 12.43450126 3.69118332 19.87442371 -0.00234131 0.00129123 0.00178130
N 11.27887377 5.79027956 24.33174488 0.00448039 -0.00390465 -0.00482685
N 14.25708012 1.23094310 26.07740313 0.00182833 0.00882618 -0.00496023
N 13.53390515 8.43519314 21.33942497 -0.00092112 0.00568953 0.00057356
N 11.19061497 15.01330357 1.14498558 0.00101214 0.00225354 -0.00057898
N 12.31538671 13.98261685 5.73083702 -0.00184216 0.00102529 -0.00140390
N 12.94172110 18.73608149 7.73224381 -0.00125977 0.00963006 -0.00150686
N 14.47461048 10.35005410 3.65388140 0.00042603 -0.00397251 0.00437077
N 12.49097591 13.17370514 1.41645539 0.00097090 -0.00343427 0.00362518
N 10.97680655 15.84868203 6.20547373 -0.00379262 -0.00197360 0.00302169
N 14.11314466 10.88188070 7.74512794 0.00572165 -0.00176385 -0.00257423
N 13.09223130 17.92740631 3.02550711 -0.00507944 0.00743038 0.00074541
N 11.28103889 15.29092374 10.35642800 0.00151206 -0.00943568 -0.00302210
N 12.61067372 13.99612715 15.06271382 -0.00219465 0.00045138 0.00365541
N 12.97677236 18.37305872 16.98985450 -0.00170542 -0.00464054 0.00126631
N 14.93059693 10.35388203 12.68762072 0.00071424 0.00810066 -0.00120553
N 12.71097712 13.61714571 10.71497415 0.00187524 -0.00035253 -0.00153091
N 11.21144025 15.82541713 15.16522358 -0.00668443 0.00784065 0.00313974
N 14.33988693 10.88685806 17.26396078 -0.00876784 0.00133474 -0.00227628
N 13.02547993 17.75671895 11.95829527 -0.00080746 -0.00173132 0.00148471
N 11.29036404 15.14931354 19.66461913 0.00072427 0.00405594 0.00194325
N 12.73614912 13.57625853 23.84004736 0.00112402 0.00025802 0.00276375
N 13.38255100 18.61766277 26.37889935 -0.00732678 -0.00244763 -0.00097003
N 14.12484512 10.51973760 22.06472056 0.00100421 0.00476750 0.00170417
N 12.57838743 13.26368597 19.89380504 0.00636710 0.00202687 0.00059282
N 11.59118282 15.52712042 24.18219109 0.00135723 0.00429813 0.00157311
N 14.54799073 10.60569260 26.16725938 -0.00146169 0.00083850 -0.00446284
N 13.41395413 17.98618999 21.05408591 -0.00617684 0.00081606 -0.00462343
N 11.08282198 24.63294610 0.94211459 -0.00088945 -0.00311948 -0.00284067
N 12.75214035 23.43474657 5.59748047 -0.00222499 0.00004446 -0.00348671
N 13.66416078 28.13770800 8.10231622 -0.00084460 0.00581471 -0.00049344
N 14.37562984 19.84143146 3.26219982 -0.00152665 -0.00345194 -0.00223630
N 12.32649647 22.90663254 1.74770152 0.00554117 0.00679296 -0.00472467
N 11.34533778 25.03024843 6.41370411 -0.00235604 -0.00606124 0.00018018
N 14.35788456 20.56771399 7.88151137 -0.00204982 0.00035581 0.00387757
N 13.53636149 27.23663185 3.13037706 -0.00420948 -0.00412574 -0.00179746
N 11.20129563 24.48358391 10.37092412 -0.00122625 -0.00815957 0.00500030
N 12.75173345 23.23785669 14.62727175 -0.00447372 -0.00124973 0.00117229
N 13.12473786 28.22028450 17.13972562 0.00377772 -0.00610250 0.00362149
N 14.41107170 19.63705446 12.20008830 -0.00099973 0.00326413 0.00415088
N 12.47467017 22.66944729 10.45523436 0.00175053 -0.00709154 -0.00201307
N 11.63873484 25.17809271 14.81311413 0.00089728 0.00172567 -0.00122588
N 14.39707621 20.26543188 16.77865069 -0.00039215 0.00405995 0.01039725
N 13.30985972 27.75022298 12.26752498 -0.00558321 0.00239158 0.00319755
N 11.13993236 24.46417167 19.40726607 -0.00426309 0.00126424 -0.00302358
N 12.24353306 22.99802856 23.67240818 -0.00123863 -0.00222077 0.00163153
N 13.09821742 28.00843603 26.20533782 -0.00271875 -0.00258647 0.00037990
N 14.56635863 19.92672908 21.74690099 0.00024258 0.01180066 0.00258414
N 12.66508578 22.62885072 19.59313621 0.00056978 -0.00482337 -0.00385520
N 11.33277002 24.99165393 24.31764554 -0.00060215 -0.00349374 0.00136198
N 13.80109912 20.79328934 26.18454917 -0.00446740 -0.00374110 0.00117365
N 13.33761236 27.48244131 21.55557735 -0.00292769 -0.00796630 0.00452249
N 14.79915544 5.36802744 1.47475479 0.00041257 0.00316691 -0.01047497
N 16.36920646 4.49894072 5.92817678 0.00090560 0.00212441 0.01022721
N 16.58575886 9.12785613 8.18160736 -0.00271104 0.00344712 0.00386263
N 18.07511156 0.68048522 3.46313841 -0.00136437 0.00271397 0.00049632
N 16.48514486 3.66015363 1.54809980 -0.00430226 0.00125421 -0.00006125
N 14.77282636 6.17018584 6.38989578 0.00002184 -0.00372980 -0.00203911
N 18.26059915 1.75294450 7.65985421 -0.00274155 -0.00637618 -0.00474832
N 16.77798679 8.16745937 3.37421636 -0.00821262 0.00641005 -0.00667800
N 14.96790346 5.32591971 10.86443465 0.00212856 0.00127300 0.00082766
N 16.41103340 4.49835930 15.23784412 0.00277104 0.00444580 0.00500975
N 17.50908729 9.08123811 17.44657102 -0.00052835 0.00234538 -0.00134853
N 18.15173460 0.80420959 12.57426057 -0.00174682 -0.00418637 0.00037368
N 16.42200871 3.52233977 10.78294542 0.00399249 0.00217126 -0.00343330
N 15.28136232 6.42850050 15.63145928 0.00411826 -0.00119524 0.00260424
N 18.21769603 1.43014609 16.83193794 0.00329860 0.00699106 0.00094723
N 16.92055201 8.33041244 12.56171883 0.00545192 -0.00566218 0.00056416
N 14.97344231 5.65952639 19.74310834 -0.00011990 0.00091929 -0.00126895
N 16.18418164 4.31428964 24.29409229 0.00351955 -0.00099481 0.00317567
N 16.77632568 8.53289760 26.47418397 0.01330287 -0.00126181 0.00898074
N 18.51147839 0.95577548 21.64550701 0.00391948 -0.00271977 0.00038417
N 16.33986595 3.75426658 19.96917683 0.00241794 -0.00151345 -0.00606916
N 14.95522049 6.23179292 24.54252110 -0.00009017 0.00045076 0.00237598
N 18.17004291 1.16391110 25.98057495 -0.00377941 -0.00059402 0.00442692
N 17.31929852 8.30863684 21.74027826 0.00408374 -0.00366657 -0.00368543
N 14.98085637 14.84926258 0.99160589 -0.00043800 -0.00344030 -0.00223243
N 16.19465095 13.72323091 5.74318942 0.00121515 0.00286003 0.00246053
N 16.69264369 18.16425853 7.82652187 -0.00582856 0.00098496 0.00436039
N 17.97709175 10.17626527 3.55659825 -0.00106776 0.00140129 0.00465512
N 15.99039952 12.85410160 1.67616364 -0.00549410 0.00316897 -0.00591145
N 14.70153348 15.51521271 6.05253302 -0.00239064 0.00332002 -0.00647657
N 17.92625363 10.88884847 7.64603256 -0.00471528 -0.00530498 -0.00000029
N 16.93842375 17.82185623 2.83235515 0.00613016 -0.00009602 0.00809521
N 15.07295793 14.91152635 10.12509096 0.00302362 0.00243116 0.00688309
N 16.21095305 13.61452808 14.57342593 0.00150378 -0.00367213 -0.00043501
N 16.75066866 18.62059727 17.10838106 0.00352554 -0.00342403 -0.00338152
N 18.16817622 10.20450447 12.62302235 -0.00099285 0.00370427 0.00111864
N 16.17358321 13.02217581 10.67121149 -0.00154764 0.00036825 -0.01059796
N 15.07691152 15.69143115 14.90270375 -0.00312961 0.00069261 -0.00731751
N 18.11792231 11.27052700 16.91523259 0.00066264 0.00289668 0.00110224
N 16.91601179 17.99643871 12.10925379 0.00330020 0.00803038 0.00102196
N 14.88807396 14.81835880 19.31862434 -0.00191228 -0.00784373 0.00029327
N 16.68567387 13.36538719 24.19842153 -0.00521569 0.00408003 -0.00315199
N 16.42867532 18.70648767 26.02786019 0.00681255 -0.00405350 -0.00366372
N 18.38890954 10.35708785 21.87626992 -0.00062406 -0.00566145 -0.00063305
N 16.28918215 13.08927828 19.98126337 -0.00494220 0.00480541 0.00438658
N 15.43654649 15.29825294 24.39377098 -0.00495148 -0.00337704 0.00212705
N 18.28805530 10.32997299 26.16046457 -0.00326917 0.00790202 0.00147971
N 16.98310683 17.90798258 21.59206997 -0.00268290 -0.00565924 -0.00469527
N 14.89692086 24.52424394 1.19306594 0.00049729 -0.00504784 -0.00256500
N 16.67810256 23.51527870 5.77481132 -0.00873307 -0.00314748 -0.00209521
N 16.90705298 28.72873275 7.73752730 0.00308594 -0.00406277 0.00823180
N 18.08701125 19.77225048 3.23747241 0.00346470 0.00025225 -0.00131994
N 16.28182924 22.72262649 1.67631593 -0.00287565 -0.00394893 0.00469519
N 15.19625531 25.24855011 6.01735329 0.00797629 -0.00382238 0.00313160
N 17.94341473 20.14747649 7.74095645 -0.00046064 -0.00540331 0.00466275
N 17.25238160 27.29959976 3.16159924 -0.00017063 -0.00405359 -0.00249503
N 14.69579948 24.78589148 10.37125244 0.00674479 -0.00361162 0.00004037
N 15.95651291 23.28760128 14.70562386 0.00304907 0.00221766 -0.00488083
N 16.93906406 28.35118892 17.16679219 -0.00145621 -0.00003614 0.00307696
N 18.12669543 19.99004126 12.26428058 -0.00515308 -0.00787438 -0.00905508
N 15.74509273 22.81455488 10.79781591 0.00178193 0.00263349 0.00165479
N 15.18409358 25.39499187 14.94694664 0.00543660 0.00011351 -0.00193104
N 18.20538054 20.44342576 16.73772394 0.00205882 0.00713221 0.00259385
N 16.96206205 27.59548658 12.41639066 -0.00457523 -0.00084733 -0.00072795
N 15.34519102 24.98470395 19.19021252 -0.00050890 -0.00109191 0.00231033
N 16.06099435 22.99111216 23.67049965 0.00106398 -0.00086778 0.00159289
N 16.68048380 28.25647214 26.05193032 0.00140301 0.00197864 -0.00306356
N 17.86591146 19.95342859 22.44744658 0.00530920 -0.00217407 -0.00261624
N 16.40746838 22.96844877 19.71505965 -0.00040571 -0.00575080 0.00577200
N 15.19627257 25.13157058 24.15636546 -0.00182722 -0.00210758 -0.00041032
N 17.61684231 20.74308704 26.07697761 -0.00588870 0.00274188 0.00576809
N 17.22697048 27.93440254 21.54498678 -0.00210707 0.00359620 -0.00263926
N 18.74134631 5.30057776 1.09402537 -0.00343210 0.00365840 -0.00097887
N 19.79498119 4.36396403 5.58762413 0.00185291 0.00430431 0.00042253
N 20.30888650 9.12370969 7.80883052 -0.00250812 0.00199324 -0.00457392
N 22.08273031 0.57118933 3.60487217 0.00034692 -0.00298035 0.00011545
N 19.96139809 3.40720660 1.32238328 -0.00406349 0.00466700 -0.00069402
N 18.63086489 6.26947422 6.24072118 0.00228074 -0.00111095 0.00022457
N 21.59032733 1.35288999 7.75975074 -0.00363581 0.00820763 0.00064399
N 20.33577138 8.42041890 3.02327124 0.00390487 0.00339141 -0.00057103
N 18.78560031 5.76870338 10.32770513 -0.00554455 0.00075029 -0.01256702
N 20.33909497 4.37820135 14.90806389 0.00227674 0.00088213 0.00100365
N 20.89145410 9.17345304 17.10941908 -0.00176141 -0.00098781 -0.00135702
N 21.98648426 0.80344157 12.54622299 0.00291239 -0.00150156 -0.00267762
N 20.10482475 3.84612559 10.74255772 -0.00185325 -0.00061824 0.00034859
N 19.01204344 6.25206525 15.33043935 0.00340766 -0.00278130 -0.00006643
N 22.02702433 1.02964884 16.67954301 0.00198563 -0.00819114 -0.00184910
N 20.52163734 8.26094839 12.02186214 -0.00793987 -0.00005195 0.00145475
N 18.37285246 5.81828006 19.49428711 -0.00293503 -0.00293024 -0.00273912
N 20.17729189 4.30877979 24.16114334 0.00364331 0.00648331 -0.00262000
N 20.69692778 8.67312733 26.55478209 0.00207934 0.00732169 0.00112751
N 0.11262675 0.56643178 21.98576381 0.00334766 -0.00432577 0.00274817
N 19.64633587 3.90777640 19.59598735 0.00345500 0.00172263 -0.00659215
N 18.79967103 6.10066823 24.31656872 0.00175713 -0.00059184 -0.00070123
N 21.77371742 0.93421927 26.02871959 -0.00228178 0.00541432 0.00339142
N 20.62258576 8.44257235 21.24240826 -0.00110014 -0.00269442 -0.00556135
N 18.32554014 14.84547929 1.08787738 -0.00076810 0.00205461 0.00463552
N 19.54555342 13.48636517 5.72234881 -0.00640671 0.00158360 -0.00043687
N 20.37556043 18.55665017 7.68097640 -0.00117988 -0.00049873 -0.00109073
N 21.60872025 10.28174162 3.53133087 0.00073846 -0.00636561 -0.00717621
N 19.63581251 12.93635304 1.50556420 -0.00221424 0.00061549 -0.00167547
N 18.65307533 15.60541233 5.77809072 -0.00352434 0.00223427 -0.00090136
N 21.36409548 11.15445049 7.60508833 -0.00070948 0.00178643 -0.00098272
N 20.36079594 17.73798884 2.72359555 0.00350849 0.00562319 -0.00280826
N 18.50405953 14.92623470 10.43220451 -0.00293731 -0.00829467 -0.00084798
N 20.11630134 13.99908948 14.80874310 -0.00073813 0.00383918 0.00104327
N 20.54992658 18.81736245 17.02743590 -0.00163368 0.00246937 -0.00499106
N 21.62690459 10.13655892 12.64770012 0.00545691 0.00386344 -0.00583587
N 19.92657463 13.07104458 10.64129683 0.00372064 0.00175411 -0.00374304
N 18.92645683 16.08928434 15.03287679 -0.00524235 0.00258980 0.00587681
N 21.98775510 11.15726878 16.83982584 -0.00208196 0.00401141 0.00471988
N 20.60561312 17.86123962 12.25048945 0.00323993 0.00253319 -0.00056447
N 18.51659115 15.04220952 19.55330455 0.00660026 -0.00095867 -0.00017585
N 20.19437122 13.42864473 23.84412560 0.00221276 0.00320571 -0.00023180
N 20.57016862 18.08254921 26.47481718 0.00749850 -0.00000149 0.00417575
N 0.19780587 10.05994838 21.27300990 0.00407819 0.00151857 -0.00871211
N 19.94314371 13.25549843 19.38352469 0.00237414 -0.00573600 -0.00011381
N 18.85167585 15.22536551 24.24701536 0.00058314 -0.00016860 0.00593080
N 21.85664016 10.52855727 26.03031416 0.00051297 -0.00213737 -0.00093149
N 20.31106106 18.17059623 21.41235071 -0.00411694 -0.00190898 -0.00071245
N 18.68539829 24.41778431 1.21256663 -0.00208078 -0.00671315 0.00177699
N 19.99647773 23.32293270 5.92275453 -0.00167316 0.00198138 0.00009331
N 20.50179960 28.25401903 8.32261968 -0.00293641 0.00512993 0.00193150
N 21.60692599 19.44682574 3.47198980 -0.00196841 -0.00330549 0.00013254
N 19.91082229 22.50813525 1.58018839 0.00012149 -0.00485216 -0.00063971
N 18.83861198 25.25602816 6.05195801 -0.00543489 -0.00180277 0.00641424