1728
Time=78000.00000008 pbc="T T T" Lattice="22.01946659 0.00000000 0.00000000 0.00000000 29.12466045 0.00000000 0.00000000 0.00000000 27.34412482" energy=-10388.56029451 virial="24.97589776 3.79019982 4.47652398 3.79019982 7.30403513 -4.02168122 4.47652398 -4.02168122 18.03022443" stress="0.00385102 0.00009257 0.00026440 0.00009257 0.00304631 -0.00028600 0.00026440 -0.00028600 0.00390755" Properties=species:S:1:pos:R:3:vel:R:3
N 0.17598319 5.29221504 1.03540780 -0.00756012 -0.00197410 -0.00352497
N 1.79179090 4.22143306 5.70092453 0.00684144 0.00206455 -0.00523973
N 2.30318684 9.17607740 7.59540297 -0.00479622 -0.00619566 -0.00543749
N 3.38653337 0.71896933 3.41916988 0.00241661 -0.00776712 0.00348678
N 1.37906969 3.41051284 1.65993174 0.00213934 0.00851095 -0.00618863
N 0.49452965 6.20277065 5.89793221 0.00360312 -0.00178513 0.00140871
N 3.40998160 1.01285227 7.63846093 -0.00917631 -0.00787400 0.00975170
N 2.23109556 8.51391225 3.27430790 0.00346323 -0.00075879 0.00691351
N 0.25627473 5.62969766 10.36013241 -0.00429067 0.00265208 -0.00662789
N 1.31068455 4.34966941 14.97640353 0.00314681 0.00508306 0.00131422
N 2.30422312 8.65802174 17.14501423 0.00697173 -0.00093215 -0.00157122
N 3.58433311 0.36243041 12.68017091 0.00304625 -0.00464847 -0.00622716
N 1.29358423 3.55799337 10.61323368 0.00130735 0.00449136 0.00340250
N 0.09210278 6.33963808 15.15691762 0.00243208 0.00040398 -0.00540773
N 3.35554055 1.37784363 16.82596649 0.00605901 -0.00181308 0.00023618
N 2.11051103 8.50063766 12.13339522 -0.00265391 0.00113012 -0.00977337
N 0.48014284 5.90242013 19.28891299 0.00277028 0.00296105 -0.00387222
N 1.50559159 4.28714981 23.80539260 0.00082688 -0.00235287 0.00116736
N 2.30750164 8.94736625 26.48729469 0.00332907 -0.00367736 0.00468135
N 3.07863905 0.63054335 21.35348396 -0.00044637 -0.00500196 0.00325706
N 1.52380933 3.86895017 19.56185986 -0.00590491 -0.00090611 -0.00249875
N 0.37848967 6.28998241 24.17822717 0.00277274 0.00322762 0.00491440
N 3.02251859 1.48858652 25.99717942 0.00799830 0.00529651 -0.00012560
N 2.55043563 8.50486645 21.55540167 0.00244082 -0.00164721 -0.00375672
N 0.37593600 15.30143981 1.16721095 0.00027881 0.00264324 -0.00328400
N 1.41775040 13.83400177 5.75916293 0.00306060 0.00297159 -0.00109925
N 1.86705483 18.75735665 8.29878914 0.00243851 0.00006806 0.00302119
N 3.39231110 10.46133787 3.52838543 0.00291186 0.01123471 0.00232852
N 1.49493253 13.28537901 1.71624896 0.00481927 0.00427342 0.00133412
N 0.41138239 15.93538772 6.25071263 -0.00116679 0.00291009 0.00688889
N 3.59242180 11.17932796 7.60614093 -0.00132351 0.00726514 0.00265316
N 2.08214279 18.21155524 3.38587281 0.00851299 0.00119304 0.00019077
N 0.29974297 15.20959964 10.30856026 0.00384741 -0.00254852 -0.00102598
N 1.62128702 13.63449784 14.63899256 -0.00029610 0.00327397 -0.00678940
N 1.68059786 18.84197753 17.30092024 -0.00108637 0.00299433 0.00347918
N 3.36740804 10.32266519 12.58354653 0.00029884 -0.00437228 0.00115454
N 1.59462621 13.36945826 10.64465390 0.00625053 -0.00402087 0.00497688
N 0.61413332 15.62642036 15.47590623 0.00683562 -0.00688941 0.00035449
N 3.28258022 10.62350613 16.65714845 -0.00143271 -0.00029014 0.00335114
N 2.10282188 18.11517293 12.35652770 0.00651470 -0.00208365 -0.00452502
N 0.50017668 15.21368814 19.33758958 -0.00014362 -0.00131325 -0.00292370
N 1.41712524 13.92474944 24.02264568 -0.00628726 -0.00470771 -0.00227185
N 2.12887725 18.74450118 26.33577104 0.00196000 -0.00331872 0.00009383
N 3.22469568 10.60621962 22.23131171 0.01228000 0.00396931 0.00227838
N 1.29893948 13.03590777 19.64448264 0.00153508 -0.00347011 0.00503126
N 0.48079771 16.02363168 24.14311235 0.00288261 0.00142154 -0.00673198
N 3.42719773 10.93010978 26.06707654 0.00396801 0.00075826 0.00352224
N 2.47436981 18.31651421 21.33798248 -0.00806985 -0.00219084 0.00370516
N 0.45336765 25.19974851 1.20723995 -0.00077184 -0.00825718 -0.00179182
N 1.54504602 23.68658545 5.80256645 0.00583964 0.00044830 0.00554625
N 2.13413887 28.34180395 7.95071567 0.00395258 -0.00255176 0.00624379
N 3.44175039 20.07831178 3.73174550 0.00750914 0.01131637 -0.00160104
N 1.42718219 23.16869124 1.57598705 0.00908141 -0.00611690 -0.00337905
N 0.38515498 25.52398581 6.39642420 -0.00046935 0.00311376 0.00461737
N 3.16495764 20.72422182 7.89351874 -0.00353602 0.01170201 0.00319982
N 2.17658500 27.92268947 3.08000517 -0.00336475 0.00114379 -0.00406317
N 0.24768156 24.84863403 10.37856815 -0.00130323 0.00297610 -0.00245872
N 1.77828405 23.60287069 15.03266332 -0.00296324 0.01028436 -0.00079461
N 2.38986450 28.43923111 17.10600805 0.00208623 -0.00382318 -0.00877690
N 3.30867087 20.06051318 12.72824670 0.00102522 0.00259657 0.00311120
N 1.68389144 23.05656956 10.85250145 0.00015713 -0.00083094 0.00326465
N 0.26498891 25.41125423 15.10860433 0.00182891 -0.00259597 -0.00409879
N 3.27092426 20.54596036 16.82629974 0.00608753 -0.00256211 0.00126934
N 2.10344273 27.73902712 12.35445113 0.00224954 0.00272652 0.00249321
N 0.50969456 25.07211469 19.10180341 0.00156137 -0.00170811 0.00132065
N 1.71586314 23.48567514 24.00961785 0.00141426 -0.00665203 0.00033913
N 2.18063527 28.44829538 25.96914662 -0.00172755 0.00161429 0.00178251
N 3.44178264 20.30277684 21.56439625 0.00484219 0.00199200 -0.00363978
N 1.54290359 23.07756884 19.51655680 0.00271605 -0.00093574 -0.00176389
N 0.36303204 25.27442259 24.31628880 0.00612319 -0.00068388 -0.00662882
N 3.28757615 20.67150378 25.83634800 -0.00511219 -0.00186591 -0.00282710
N 1.80174883 27.81573686 21.28776246 0.00183526 -0.00111745 0.00154111
N 4.06332593 5.80664706 0.97766207 0.00337620 0.00552700 -0.00436414
N 5.56357744 4.15357573 5.86450331 -0.00261813 0.00409524 0.00181990
N 5.77564709 9.04466831 7.95774690 -0.00273932 -0.00971531 -0.00169788
N 7.17006658 0.77879614 3.30622376 -0.00179598 -0.00242194 -0.00108295
N 4.77795652 3.61726695 1.32276464 0.00093206 -0.00455409 -0.00130376
N 4.03860582 5.88854823 6.03775460 -0.00000453 0.00281894 0.00056266
N 6.97122690 0.90691639 7.62809760 0.00219447 -0.00175789 -0.00374092
N 6.14653481 8.38938064 3.31795056 0.00610289 -0.00032735 -0.00141116
N 3.81701532 5.26881476 10.25087593 0.00102235 0.00226427 0.00598423
N 5.09448891 4.12560896 14.84495532 0.00492327 -0.00719795 -0.00102118
N 5.78853826 8.94554424 17.07179133 0.00093495 -0.00184680 0.00461018
N 7.11634643 0.22458864 12.75162457 -0.00015216 -0.00234861 -0.00310584
N 4.95181405 3.32158959 10.69688757 -0.00496466 0.00088918 0.00535237
N 4.04550304 6.05191005 15.17804298 0.00003206 -0.00102154 -0.00037221
N 6.98528210 1.59049756 17.02130341 0.00367708 -0.00575111 0.00901567
N 5.86535090 8.46363425 12.17939461 -0.00030085 -0.00609132 -0.00046169
N 3.95156653 5.58947959 19.45974543 -0.00115348 -0.00518620 -0.00631692
N 5.14873593 4.17215935 23.65618894 0.00763438 -0.00010055 0.00141562
N 5.88556040 9.18238078 26.52859339 0.00108146 0.00486321 0.00042175
N 6.97878713 0.88764455 21.57638506 0.00233315 0.00062492 0.00081251
N 5.05079198 3.64323620 19.83054526 0.00559343 0.00220259 -0.00071588
N 4.04116593 6.12292293 24.37491535 -0.00447181 -0.00302829 0.00233783
N 6.78046470 1.39490336 25.81568779 -0.00428300 0.00316165 0.00095845
N 5.98376219 8.38270652 21.25348969 -0.00141731 -0.00307722 0.00245997
N 3.61460185 15.05191123 1.23991950 0.00311306 0.00071313 0.00139536
N 4.91548919 13.67219672 5.75754795 0.00104363 0.00213774 -0.00705011
N 5.61396004 18.80253354 7.95642760 0.00552796 0.00150626 0.00012023
N 7.26187359 10.44968036 3.69043706 0.00134482 0.00201745 -0.00127114
N 5.11033688 13.25137448 1.45298388 -0.00197478 -0.00213633 0.00187270
N 4.05505090 15.73031810 6.05302848 -0.00812738 0.00338505 -0.00523917
N 7.13195217 10.83744522 7.75404305 -0.00014257 0.00320750 0.00281735
N 5.94400529 17.83913725 2.90856407 -0.00156929 -0.00502680 -0.00068009
N 4.01056964 15.10263741 10.61306117 -0.00036068 0.00163916 0.00298790
N 5.25336417 13.64697709 15.09966809 0.00131132 -0.00166917 0.00482004
N 5.76949576 19.06235587 16.69832088 -0.00290467 0.00044897 -0.00231996
N 6.99278494 10.44088473 12.47743049 0.00789663 0.00083473 -0.00216337
N 5.19233066 13.28947007 11.05047432 -0.00089457 0.00920978 -0.00473681
N 4.21630052 15.58179077 15.64263623 0.00718994 0.00318111 0.00609487
N 6.91226056 10.86701890 16.56190419 0.00268418 -0.00090693 -0.00001622
N 5.89384054 18.23072212 12.42224383 -0.00096593 0.00027921 0.00042765
N 3.70363987 14.91711153 19.47877752 -0.00659098 -0.00247995 0.00483125
N 5.36042796 14.01967554 23.73216836 -0.00024531 -0.00010989 -0.00956612
N 5.71733461 18.95686302 26.18535931 0.00222130 -0.00729692 0.00093795
N 7.35293130 10.27062453 21.60043940 0.00142635 -0.00243866 0.00109822
N 4.89700872 12.94332509 19.57975873 -0.00012650 0.00178560 -0.00231440
N 3.90220477 15.63476534 24.40844404 0.00450548 0.00693012 -0.00463608
N 6.98803782 11.09440816 25.87625808 0.00292822 0.00081012 -0.00331795
N 5.61675929 18.23570854 21.10706242 -0.00061278 0.00593322 -0.00065824
N 3.81806065 24.86289850 1.20811856 -0.00095141 -0.00080067 0.00413850
N 4.89726991 23.47012870 5.62232689 0.00036345 0.00380318 -0.00429177
N 5.68556343 28.21997721 7.81491352 -0.00604655 0.00257759 0.00141381
N 7.02624405 19.85761407 3.15236802 -0.00472165 -0.00232531 0.00385615
N 5.12212385 22.87873510 1.54192418 0.00702788 -0.00960944 0.00143561
N 4.04831734 25.57598949 5.98424284 0.00062352 0.00153654 0.00125219
N 6.35566652 20.91373205 7.13067350 -0.00071849 0.00374444 -0.00429600
N 5.93483769 27.98136986 3.03233800 -0.00046515 0.00840384 -0.01435232
N 3.96969062 24.67814498 10.10045431 -0.00889568 0.00476935 0.00327820
N 5.19783198 23.69962943 14.68239954 -0.00084823 -0.00256925 -0.00034326
N 6.06832987 28.61172895 16.81513574 -0.00132614 -0.00596317 0.00105246
N 7.15870023 20.10919685 12.27684602 -0.00639211 0.00198354 0.00220661
N 5.30726176 22.76483487 10.49867997 -0.00380534 -0.00214921 -0.00533452
N 4.15969365 25.73019371 14.86741120 0.00750799 -0.00030881 -0.00800420
N 7.10734476 20.90621317 16.76252063 0.00297733 -0.00109182 0.00154055
N 5.97299452 27.50815292 12.01348583 0.00238807 0.00042429 0.00075659
N 4.56457784 25.19340676 19.31848684 -0.00782741 0.00210837 0.00644088
N 5.57669556 23.88934520 24.00835372 -0.00595748 0.00322210 0.00205680
N 5.69363354 28.44137794 25.75753215 0.00174350 0.00121935 -0.00155862
N 7.17768440 19.92173118 21.22151430 -0.00131806 0.00271276 -0.00527165
N 5.37378019 23.00151166 19.47585289 -0.00332000 0.00670303 0.00031108
N 3.88993285 25.48628350 24.26779298 0.01102452 0.00119705 0.00636999
N 6.75614194 20.90849876 25.50077797 -0.00038152 -0.00395141 -0.00173100
N 5.69942462 28.07022636 21.26738805 -0.00510188 0.00795576 0.00287555
N 7.53700568 5.56877682 1.23865547 -0.00378611 -0.00436403 0.00512279
N 8.59387097 3.66715007 5.87146830 0.00428007 -0.00165784 0.00912516
N 9.52085138 9.00263988 8.02470364 0.00100328 0.00369965 -0.00789478
N 10.39825164 0.75567982 3.38522914 0.00812026 -0.00628822 -0.00624623
N 8.79263582 3.61435395 1.50041623 0.00711330 0.00362015 0.00545436
N 7.96004571 5.75673343 6.20837837 -0.00678368 -0.00228259 -0.00019256
N 10.88428092 1.41911789 7.70382522 0.00212673 0.00025097 0.00440355
N 9.83301026 8.25420389 3.05737333 0.00346021 -0.00102284 0.00258901
N 7.31405403 5.25543629 10.55588819 0.00448690 0.00296807 -0.00531006
N 8.72537222 4.20662316 14.89330941 0.00647454 -0.00078310 -0.00083476
N 9.17019903 9.08748769 17.08462385 -0.00198033 0.00307070 -0.00125970
N 10.66922562 0.82866916 12.79988228 0.00197462 -0.00204743 0.00302880
N 8.92337806 3.54527997 10.48476555 -0.01292783 0.00246168 0.00217363
N 7.60685069 6.10439333 15.53205201 -0.00630356 -0.00661114 0.00408179
N 10.37751536 1.26125960 16.81116708 -0.00387277 -0.00473156 -0.00074929
N 9.51427160 8.07001491 12.47416231 0.00623074 -0.00002991 0.00054064
N 7.46727178 5.45919813 19.61091506 0.00204334 -0.00692390 -0.00063245
N 9.18708087 4.26527119 24.20835370 0.00360783 0.00590656 -0.00263472
N 9.34680837 9.11496565 26.31607186 0.00441920 0.00218843 0.00030443
N 10.65380750 0.82687931 22.01315699 -0.00757329 -0.00273796 -0.00531232
N 8.59577682 3.44216483 19.85129894 -0.01027414 -0.00093029 0.00355391
N 7.72697462 6.08712771 24.46255259 -0.00529052 -0.00508340 0.00477491
N 10.53096941 1.11344160 26.20189792 0.00296867 0.00362976 -0.00894391
N 9.64522342 8.30063258 21.40419415 0.00820380 -0.00100035 -0.00736286
N 7.74772972 15.31786976 0.97256033 -0.00308403 -0.00256839 -0.00641704
N 8.96466870 13.69419548 5.66082480 0.00588438 -0.00573810 -0.00264320
N 9.21306636 18.85170417 7.82018798 -0.00349485 -0.00014213 0.00532698
N 11.01479087 10.27936209 3.36473554 0.00072575 -0.00426562 -0.00015870
N 8.78265096 13.19267475 1.23347776 -0.00746452 0.00276480 0.00021537
N 7.69309506 15.51398293 5.91768651 -0.00070147 -0.00264521 -0.00293438
N 10.80133519 10.84498779 7.93820639 0.00579326 -0.00065127 -0.00298151
N 9.79961480 18.05099527 3.01793304 -0.00297034 0.00109771 -0.00043016
N 7.57701942 15.34917142 10.28549233 0.01181394 -0.00388168 0.00296468
N 8.81940577 13.89318353 14.63939458 0.00227401 -0.00423241 0.00032994
N 9.37998409 18.78578652 17.20106872 0.00343379 -0.00217044 0.00161561
N 10.55684200 10.12429168 12.53078177 -0.00124062 0.00193054 0.00346894
N 8.81251171 13.35473730 10.37562084 -0.00180460 0.00309394 -0.00362600
N 7.63379297 15.82992963 14.97920942 0.00385244 -0.00238981 0.01193199
N 10.19361977 11.11700082 16.75564121 0.00335129 -0.00330981 -0.00743259
N 9.77355486 18.23014702 12.22192585 -0.00245755 0.00754174 0.00633293
N 7.27822601 14.59716114 19.16467360 -0.00137424 -0.00621213 -0.01258741
N 8.59845143 13.79591347 23.94382404 -0.00086545 -0.00358312 -0.00245095
N 9.41613097 18.53726142 26.35927577 -0.00268710 -0.00250459 -0.00591281
N 10.99146307 10.30299740 21.73012490 -0.00356685 0.00427789 0.00267101
N 8.93434054 13.03258586 19.51125140 0.00127147 -0.01260137 0.00861944
N 7.72118893 15.91914065 24.14093674 -0.00267149 0.00129545 0.00087150
N 10.73274456 10.97702288 25.95925969 -0.00364199 0.00043880 0.00169329
N 9.51956005 17.88693151 21.61380142 -0.00329350 -0.00180146 -0.00166714
N 7.86052412 24.95509161 0.81356370 0.00534726 -0.00021957 -0.00459374
N 8.94874465 23.64059484 5.56025965 -0.00153624 0.00197270 -0.00168535
N 9.52912261 28.71224510 7.87173824 -0.00401805 0.00162422 0.00314713
N 10.71790131 20.21989421 3.40711493 -0.00093699 -0.00154517 -0.00318389
N 8.08712599 22.74777523 1.16470636 -0.00320353 0.00368637 -0.00274892
N 7.82732697 25.58291366 5.94110057 0.00166951 -0.00225771 -0.00473945
N 10.49460263 20.71549030 7.51030723 -0.00182271 -0.00368129 -0.00241391
N 9.62911048 27.68505973 2.92515759 -0.00031256 0.00462912 0.00393566
N 7.39214261 24.75680043 9.94928755 0.00267257 -0.00699858 0.00639179
N 8.92184090 23.54135872 14.57679941 0.00191742 0.00150477 -0.00134757
N 9.21483379 28.51239787 17.43194827 -0.00133446 0.00106209 -0.00181752
N 10.66342758 20.29674327 12.58349591 -0.00528826 -0.00437346 -0.00126531
N 8.75751761 22.93229325 10.01988837 0.00330205 0.00578790 0.00166232
N 7.80121150 25.48041225 15.43729718 -0.00330133 -0.00263287 0.00245746
N 10.61557218 20.71967637 17.00526091 -0.00678577 -0.00083477 -0.00555219
N 9.47945538 27.90051831 12.49550822 0.00050397 -0.00463832 0.00060006
N 7.80874032 25.09212942 19.33948848 -0.00396329 -0.00042636 -0.00683406
N 9.06772935 23.40705441 23.84908824 0.00426758 0.00199774 0.00968062
N 9.51409822 28.24613575 26.39881759 0.00022871 -0.00355410 -0.00102322
N 10.75552215 19.83274787 21.96390366 -0.00488327 0.00726414 -0.00844039
N 9.19734175 23.20572077 19.36843388 0.00264956 0.00283018 -0.00342009
N 8.04268796 25.52226300 24.02611928 -0.00130928 0.00219106 -0.00142614
N 10.51865653 20.48953627 25.96713620 0.00055753 -0.00759253 -0.00076532
N 9.40582227 28.12715812 21.37301919 -0.00187558 -0.00078704 0.00087511
N 11.19437828 5.25797930 1.29519308 -0.00482594 -0.00017993 0.00579183
N 13.02921298 4.08917249 5.71666591 0.00471486 -0.00176195 -0.00811335
N 13.28613538 9.03797156 8.09307925 -0.00241298 0.00295112 0.00010925
N 14.54511622 0.55298127 3.25940231 -0.00487703 -0.00219710 -0.00314672
N 12.44085729 3.33993188 1.45208660 -0.00038258 0.00071356 0.00028625
N 11.60612305 5.93210800 6.09262970 -0.00047878 0.01183177 0.00364457
N 14.39260221 0.72319610 7.42126211 -0.00086809 -0.00041090 0.00174191
N 13.03555853 8.24417566 2.84348724 -0.00215704 0.00319847 0.00505408
N 11.32655851 5.77356302 10.25277957 -0.00040188 -0.00354961 -0.00656338
N 12.01502094 4.13921643 15.05580072 -0.00275043 -0.00466573 0.00416733
N 13.03209975 9.31763100 17.39594281 0.00223085 -0.00174553 0.00559953
N 14.32298571 0.69573260 12.22545862 0.00346754 -0.00183969 0.00408838
N 12.80245631 4.05772327 10.81187026 -0.00073958 -0.00102678 -0.00056833
N 11.17920237 6.29953839 15.29721505 -0.00277449 0.00304228 0.00132988
N 14.22491287 1.60418475 16.75425594 -0.00597856 0.00162790 -0.00861046
N 13.17556280 8.53794144 12.38125016 0.00503862 0.00771957 -0.00131044
N 11.01043938 5.85309844 18.85260394 0.00385733 -0.01043122 -0.00169002
N 12.54590499 3.97817049 24.02331533 -0.00564105 0.00327978 -0.00310437
N 13.23045775 9.18307462 26.30934975 -0.00338868 0.00068142 0.00467208
N 14.35817372 0.87037160 21.55703626 0.00592341 -0.01220743 -0.00094056
N 12.23834467 3.91716196 19.26506567 -0.00112427 0.00435465 -0.00187105
N 11.57165655 6.00042872 24.48849093 0.00186054 0.00479669 0.00512295
N 14.34517667 0.96154611 25.46407123 0.00391084 0.00018103 0.00055726
N 13.24359958 8.63800632 21.49158384 -0.00092617 0.00263453 0.00262031
N 11.27160644 15.06908088 1.51801470 0.00135801 -0.00512436 -0.00641281
N 12.46546038 13.96517208 5.62888191 -0.00222967 -0.00307188 0.00009306
N 12.97846347 18.96759665 7.87334251 0.00453410 -0.00149850 0.00336310
N 14.30773917 10.06639919 3.37574531 0.00242349 -0.00295867 0.00379080
N 12.71835462 13.30151016 1.60132373 -0.00193304 0.00128523 -0.00067197
N 11.44244762 15.97885101 6.10830515 -0.00753286 0.00555843 0.00316097
N 14.17507787 11.06968145 7.60359172 0.00442186 -0.00222216 0.00281384
N 13.41599634 18.34294955 2.94473844 0.00187867 -0.00260794 0.00111578
N 11.45832565 15.23653785 10.40841115 -0.00289538 0.00229300 0.00094302
N 12.55951318 13.71218940 14.96856869 0.00432082 -0.00147939 -0.00180860
N 13.09953593 18.33225300 17.07743291 -0.00387641 0.00232382 0.00074357
N 14.48796807 10.44550442 12.64201788 -0.00372559 0.00162212 0.00529085
N 12.51479342 13.20575787 10.58323724 0.00242295 -0.00231825 -0.00129125
N 11.11464682 15.37920883 15.53729122 -0.00372286 0.00243296 0.00390592
N 14.37780433 11.04290502 16.75228861 0.00195625 -0.00430965 0.00356724
N 13.01515223 18.12376336 12.35425033 0.00549143 -0.00205048 0.00163885
N 11.32178790 15.05874146 19.54103538 0.00332717 0.00387785 -0.00087213
N 12.36731956 13.99311504 24.21920639 0.00181924 -0.00231891 0.00245570
N 12.88812898 18.75690462 26.37719310 -0.00211487 -0.00184668 0.01028731
N 14.73201388 10.28591606 22.00031645 0.00057225 0.00548876 -0.00333339
N 12.62684713 13.17549400 19.77888586 -0.00901806 0.01176508 -0.00027039
N 11.40286259 16.02266921 24.31879552 0.00378565 -0.00132823 -0.00205833
N 14.27222862 11.18391288 26.10199515 -0.00121216 -0.00137359 -0.00631632
N 13.23033417 17.99940100 21.40865839 0.00619582 0.00419367 0.00190035
N 10.80190628 24.69097426 1.27321814 0.00195559 -0.00607451 -0.00242898
N 12.60989905 23.66736976 5.62068733 0.00082600 0.00988226 0.00968553
N 12.76932140 28.27357063 7.93569506 -0.00311141 0.00225447 0.00090002
N 14.52077736 20.27161752 3.40666836 0.00255008 0.00642636 0.00278525
N 12.50703065 23.14145044 1.63362474 0.01055486 -0.00604067 -0.00902701
N 11.18668043 25.56912666 5.87091486 -0.00260848 -0.00112117 -0.00028352
N 14.33238739 20.80536151 7.50526804 -0.00494752 -0.00600416 -0.00101227
N 13.26696069 27.76756943 2.97467550 -0.00590368 0.00001918 -0.00126620
N 11.32505606 25.06202629 10.32960535 0.00308600 -0.00271757 -0.00176409
N 12.71134158 23.81988313 15.10059785 -0.00851596 -0.00092865 0.00170112
N 12.93743982 28.82335091 17.07360009 -0.00446978 -0.00225134 0.00043023
N 14.32759650 20.04159390 12.37703483 -0.00118746 0.00199758 0.00846053
N 12.40582604 23.14108034 10.60381415 0.00034489 0.00159053 -0.00069491
N 11.14837010 25.56203845 15.35649783 0.00570742 0.00434898 -0.00248745
N 13.95479489 20.54266981 16.81504201 -0.01046161 -0.00045022 0.00215196
N 12.94941513 27.92563383 12.39749190 -0.00176122 -0.00034281 -0.00265610
N 11.94647518 24.61003597 19.32212545 -0.00197562 0.00021801 0.00579630
N 12.86573416 23.45408354 23.93617264 -0.00573694 0.00257821 0.00026963
N 12.84224514 28.45143728 25.92784609 -0.00807052 -0.00081713 -0.00371670
N 14.60610880 19.80172649 21.63945832 0.00787104 -0.00021936 0.01736345
N 12.67542544 22.47347076 20.02319817 0.00517006 0.00099113 0.00402599
N 11.54748234 25.45860144 24.03567514 -0.00649394 0.00478141 -0.00229781
N 14.18137532 20.75371638 26.02008593 0.00274044 0.00397219 -0.00655132
N 13.24612059 27.95994299 21.48215734 0.00032326 0.00029834 0.00567133
N 14.66622560 5.42308281 0.64250727 0.00325126 0.00154228 0.00430936
N 16.34782485 4.28149521 4.81445801 0.00446055 -0.00076684 0.00375002
N 16.90964959 8.73011487 7.53633320 -0.00422759 -0.00363218 0.00065835
N 17.68218494 0.83236588 3.58685529 0.00012983 0.00200390 0.00773549
N 15.73520081 3.45409876 0.96021924 0.00017922 -0.00068919 -0.00208858
N 15.17183459 6.14430431 5.45835663 0.00825100 0.00458811 0.00216292
N 18.04396738 1.33787591 7.75055417 0.00230159 -0.00152669 -0.00142671
N 16.81032127 8.46323566 2.49874589 0.00052339 -0.00287310 -0.00099321
N 15.24924975 5.78149582 10.10931242 0.00109254 0.00130706 0.00212680
N 16.02466309 4.61748683 14.31778381 -0.00562207 0.00198215 -0.00008847
N 16.52594251 9.21146467 17.26671086 -0.01136113 0.00205538 0.00264731
N 17.87442404 0.99632884 12.71241210 -0.00315978 -0.00042282 -0.00779320
N 16.00874317 3.56856009 10.17715756 0.00620951 -0.00011942 0.00219948
N 14.86267682 6.50985314 15.22965227 0.00001221 0.00067613 0.00395649
N 17.87479349 1.47294993 16.93724548 0.00612865 -0.00588066 -0.00070253
N 16.89324506 8.73922164 11.99936569 -0.00107817 -0.00833231 0.00102240
N 15.13945606 5.70056410 19.44947068 -0.00004321 -0.00789052 -0.00314521
N 16.34824723 4.22257644 23.74012107 0.00846089 0.00515754 -0.00041970
N 16.68427431 9.26380826 25.62072296 0.00142816 0.00308580 0.00184707
N 18.08640788 0.60419607 21.94819817 -0.00244907 -0.00138906 0.00318964
N 15.78564258 3.57136720 19.62757230 -0.00149051 -0.00308230 0.00370001
N 14.98484540 6.12076355 24.01042047 -0.00460050 0.00297101 0.00053137
N 18.14639515 1.29204017 25.96876779 -0.00165584 -0.00360609 -0.00153666
N 17.03808895 8.77178508 21.47764391 0.00724064 -0.01031717 0.00442020
N 14.92136863 15.12328271 1.18811463 0.00358308 -0.00002038 -0.00360303
N 16.17158188 14.03764096 5.63638127 0.00465041 0.00641417 -0.00758071
N 16.63344717 18.83138892 8.08451117 -0.00273921 0.00692263 -0.00334042
N 17.93045337 10.27491625 3.30840513 -0.00470958 0.00296272 0.00147282
N 16.09306824 13.09245775 1.60589373 -0.00370486 -0.00319327 0.00730908
N 15.41254385 16.17797048 5.96384766 0.00249283 -0.00347686 0.00663826
N 18.08863493 10.64581255 7.00078346 0.00005074 -0.00416836 -0.00340185
N 16.91366322 18.42455400 3.11161959 -0.00174802 -0.00826051 -0.00817544
N 15.13052804 15.18526750 10.17173957 -0.00479695 0.00243549 0.00131309
N 16.43121094 14.06594332 14.97662414 0.00483688 -0.00349894 0.00466216
N 16.57713297 18.71214144 16.94822518 -0.00443810 -0.00754321 -0.00143742
N 17.93201048 10.71816234 12.39055299 0.00748980 0.00581271 -0.00266625
N 15.86953125 13.09330383 10.47793140 0.00620400 0.00118608 -0.00108493
N 14.82013160 15.70471278 14.93252792 0.00221617 -0.00338477 -0.00204117
N 17.98655295 10.89260274 16.71068794 0.00444704 -0.00287438 0.00276704
N 16.86102065 18.00932737 12.17527389 0.00750803 -0.00750356 0.00493631
N 14.77282520 15.35986510 19.73658317 -0.00308473 -0.00299269 -0.00242016
N 16.09000322 13.96003631 23.89215720 0.00143121 -0.00122144 0.00048624
N 17.21617696 18.76860289 26.16349706 0.00363442 -0.00413037 0.00445025
N 18.15360185 10.95510257 21.65189105 0.00302679 -0.00116968 -0.00457315
N 16.36151153 13.64960695 19.71660547 -0.00069058 0.00027532 0.00251181
N 15.47570180 16.13814300 24.08205436 -0.00473065 -0.00070459 0.00799187
N 18.02905108 11.08255080 25.46545765 -0.00114197 0.00286387 0.00122436
N 17.36371948 18.18405745 21.27388921 -0.00658276 0.00752900 -0.00157899
N 15.05824919 24.74498965 1.24050310 0.00345865 0.00471491 -0.00108689
N 16.39153889 23.71229800 5.81719696 -0.00001942 0.00830694 -0.00250349
N 16.96000542 28.47313033 8.15302871 0.00708073 -0.00207535 0.00751309
N 18.41006858 20.19249900 3.44399496 -0.00559228 -0.00070474 0.00562088
N 16.56283956 22.96841513 1.38757451 0.00526145 0.00915203 -0.00303196
N 15.07548627 25.55312666 6.10587092 -0.00433384 -0.00443381 0.00019103
N 17.68030900 20.85861795 7.64114214 0.00737206 -0.00138747 -0.00724054
N 16.95933352 27.81738258 3.31202557 -0.00023143 -0.00362131 0.00525143
N 14.91954600 25.13889705 10.36196481 0.00266124 -0.00360949 0.00533014
N 16.50939100 23.65995829 14.74444492 -0.00316632 0.00011919 0.00612792
N 16.97463271 28.56883304 17.32406651 -0.00315861 0.00090623 0.00232696
N 18.29838498 19.88749057 12.56394192 0.00104935 0.00224780 -0.00062196
N 16.14552558 23.12525524 10.49512582 0.00227060 -0.00641580 0.00187710
N 15.00975635 25.30024637 15.28502881 0.00067762 -0.00203758 0.00535007
N 17.86791516 20.54198071 16.49783137 -0.00033069 -0.00002684 0.00043137
N 16.94211260 28.07472672 12.34522804 0.00129511 -0.00087516 0.00282522
N 14.93261336 24.78728984 19.68975358 0.00158169 0.00056126 -0.00875748
N 16.12021730 23.38849534 23.91207264 0.00042368 0.00154967 -0.01061227
N 16.88467215 28.55686766 26.28447663 0.00105814 -0.00332554 0.00354919
N 18.40474740 20.21693459 21.53328855 0.00501496 0.00240595 -0.00148866
N 15.93686100 22.72063411 19.76692077 -0.00233562 0.00013543 -0.00202588
N 15.24121937 25.45902853 24.48862642 -0.00671249 -0.00130095 -0.00397942
N 17.91386893 20.87373674 25.93536395 -0.00220757 -0.00222756 -0.00219726
N 16.85819028 27.90868417 21.43117298 -0.00075466 0.00234111 -0.00411517
N 18.82935022 5.72771587 1.26782945 -0.00775444 0.00150521 -0.00037923
N 20.19496986 4.22016843 5.80880158 -0.00240492 0.00291258 -0.00165270
N 20.46166059 9.14452643 7.90573947 0.00333574 0.00070259 0.00796456
N 21.76509988 0.50779141 3.44466722 -0.00011955 0.00314059 0.00197731
N 19.82876277 3.67965845 1.94591854 0.00782925 -0.00300158 0.00295738
N 18.85143407 6.09497332 5.91001763 -0.00529558 -0.00032268 0.00473149
N 21.96248615 1.26880157 7.57573580 -0.00473004 0.00804707 0.00348342
N 20.70728477 7.94198338 2.94768476 -0.00031104 0.00161137 -0.00296443
N 18.43804865 5.67136089 10.11280057 0.00269245 0.00302956 0.00394402
N 19.96514427 4.28154897 14.93175284 -0.00567065 0.00176186 0.00527063
N 20.26327913 8.75333781 17.33201100 -0.00428683 0.00318630 -0.00554899
N 21.52464172 0.66724269 12.43508166 -0.00026105 0.00084362 0.00331191
N 19.75873051 3.87934162 10.63236578 0.00811120 -0.00434381 0.00132902
N 18.65002865 6.20887363 15.16735317 0.00282967 -0.00439768 0.00237403
N 21.70226031 1.08660071 16.56110646 0.00228515 0.00315235 0.00525633
N 20.21755142 8.42806452 12.20512926 0.00150865 0.00158104 0.00043417
N 18.92073954 5.80341162 19.46311573 -0.00119925 0.00015279 0.00281238
N 20.07737576 4.26439246 24.20224910 0.00363898 -0.00038607 -0.00365226
N 20.12593006 9.06784871 26.22763189 -0.00026333 0.00035862 -0.00099712
N 21.30761108 0.49913141 21.49380253 -0.00052801 0.00183848 -0.00111151
N 19.85887327 3.63705812 19.63610575 0.00289375 0.00382000 -0.00464524
N 18.69990706 6.12950206 24.44523450 -0.00382305 -0.00136725 0.00225666
N 21.66011346 1.03691378 25.85230112 -0.00140499 0.00472366 -0.00201699
N 20.96672290 8.37506645 21.59923125 -0.00470887 0.00303780 -0.00163448
N 18.72924763 15.37202030 0.91049151 -0.00447899 0.01650283 -0.00620879
N 19.89924567 13.92590578 5.31136187 0.00446465 0.00036846 -0.00126337
N 20.41390073 18.55420313 7.80995191 -0.00578648 -0.00274905 0.00320770
N 21.50401645 10.12449262 3.34512628 -0.00583254 0.00017525 0.01033007
N 19.58894289 13.30128112 1.25336563 -0.00009381 -0.00386413 -0.00068125
N 19.05695498 16.07232394 5.78784142 0.00056941 0.00315685 -0.00037962
N 21.41680354 11.17711652 7.36115930 0.00322123 -0.00029526 0.00403280
N 20.76799842 18.25169654 2.96012185 -0.00134452 0.00721897 0.00449773
N 18.30778734 15.28367536 9.43209367 0.00101009 -0.00763916 -0.00314405
N 20.23794235 13.71903163 14.66226843 -0.00326853 -0.00934539 0.00107133
N 20.41023884 18.60250915 16.97989270 0.00331574 -0.00016007 -0.00242022
N 21.92471688 10.10148608 12.53173875 0.00063053 -0.00347993 0.00211132
N 19.67559673 13.70024583 10.28644278 0.00436549 0.00186252 -0.00564697
N 18.84739724 15.57842950 14.93861926 0.00138348 0.00832956 -0.00070776
N 21.37100981 10.72337851 16.65320280 -0.00111791 0.00403925 0.00040838
N 20.62185249 18.22889255 11.79821209 -0.00330663 -0.00373787 0.00356331
N 18.78412710 15.27651727 19.37439766 0.00038062 0.00557036 0.00970002
N 20.25368054 13.93894619 23.91078871 -0.00296768 0.00254066 0.00130956
N 20.41068334 18.79050116 26.13836181 0.00599775 -0.00176955 -0.00340546
N 21.88814426 10.50148818 21.65504639 -0.00334646 -0.00711045 -0.00431751
N 19.91208741 13.30016776 19.46144424 -0.00178802 0.00076041 0.00425013
N 18.93858272 15.88137599 24.26349289 -0.00517888 0.00230905 -0.00387495
N 21.48100586 10.88910457 25.94384051 -0.00350971 0.00601143 -0.00055067
N 20.55111134 18.08558460 21.29959260 -0.00333039 0.00596415 -0.01173338
N 18.50412141 25.02741245 1.31142629 0.00449180 -0.00237477 0.01034989
N 20.01318318 23.76212178 5.68799521 -0.00095165 -0.00617905 -0.00030717
N 20.73185107 28.41200394 8.10154790 -0.00212502 -0.00074113 0.00559351
N 21.62585275 20.36012597 3.25215200 0.00726032 -0.00448174 0.00178530
N 19.90329878 23.10900493 1.51330032 0.00163269 0.00113303 0.00524195
N 18.78235612 25.67705583 5.98028339 0.00653200 0.00530357 0.00124474