1728
Time=6000.00000000 pbc="T T T" Lattice="21.90361639 0.00000000 0.00000000 0.00000000 28.89415318 0.00000000 0.00000000 0.00000000 27.39501244" energy=-10388.60104740 virial="-4.35026411 19.96205560 -6.48560049 19.96205560 -9.26586173 56.47682813 -6.48560049 56.47682813 -55.76348183" stress="0.00162214 0.00109217 -0.00021789 0.00109217 0.00196746 0.00329636 -0.00021789 0.00329636 -0.00012625" Properties=species:S:1:pos:R:3:vel:R:3
N 0.29267655 5.69059786 1.14194931 0.00002989 0.00335991 -0.00225861
N 1.64302210 4.11677756 6.03321339 -0.00136093 -0.00441530 0.00542722
N 2.11424153 8.97482103 7.90400853 -0.00117698 -0.00297015 0.00209632
N 3.64835915 0.52290187 2.92166853 -0.00454884 -0.00597751 -0.00095633
N 1.55138892 3.86138995 1.39122537 -0.00162898 -0.00113759 0.00080593
N 0.52562224 6.13556835 5.96512324 -0.00074847 0.00155410 -0.00289798
N 3.56605167 1.17942904 7.45687160 -0.00348110 -0.00259419 -0.00223148
N 2.04473609 8.45709629 2.97221317 0.00218208 -0.00028656 -0.00190990
N 0.50395151 5.48801102 10.40584784 -0.00089890 -0.00152638 -0.00292809
N 1.34358854 3.88820205 14.71154039 -0.00012682 -0.00252668 -0.00980486
N 2.08951216 9.17087644 16.97526918 0.00397142 0.00537876 -0.00118531
N 3.50892959 0.47619594 12.44611684 0.00584114 -0.00017145 -0.00055544
N 1.53294647 3.37345534 10.44641845 -0.00088670 0.00022497 0.00162225
N 0.23941457 5.89883652 15.09125550 -0.00029088 -0.00940331 0.00550157
N 2.95718837 0.95225826 16.95168342 -0.00288447 0.00740135 0.00243888
N 2.37142125 8.43070698 12.25949887 -0.00400755 -0.00166765 -0.00180889
N 0.37751351 5.52430859 19.27689296 -0.00387766 -0.00089631 -0.00394386
N 1.80251309 4.32664065 24.13636764 0.00172342 -0.00481448 0.00026781
N 2.00463387 9.04846486 26.37886357 -0.00192904 0.00522051 0.00115707
N 3.26062864 0.90165592 21.55390631 -0.00251232 0.00352740 0.00167008
N 1.44750865 3.51870869 19.49063654 -0.00013548 -0.00006104 -0.00121278
N 0.34355269 6.02204062 24.32460279 0.00395898 0.00032916 -0.00670465
N 3.31541387 1.25578402 25.90033332 -0.00290502 0.00154943 0.00386983
N 2.08823560 8.39563428 21.50341198 0.00048191 -0.00734308 0.00102402
N 0.48780805 15.10295944 0.97618875 0.00414911 0.00260172 0.00375026
N 1.75943160 13.52530936 5.59573072 -0.00296346 0.00479629 0.00302378
N 1.79986376 18.44432413 8.08446343 0.00613475 0.00604479 -0.00323687
N 3.41434534 10.28461060 3.25332228 -0.00287826 0.00125146 0.00361075
N 1.55243816 13.12335323 1.50923088 0.00398755 0.00118696 -0.00294086
N 0.45641064 15.41410286 5.96415764 -0.00000745 -0.00009082 0.00152855
N 3.34948920 10.89322291 7.75150651 0.00396363 0.00314236 0.00236489
N 2.34017724 18.06309047 3.05584722 0.00046328 0.00458806 -0.00008006
N 0.00170691 15.03372846 10.29282998 0.00574565 0.00276213 -0.00268044
N 1.60413257 13.76732013 14.84362230 0.00278378 -0.00096985 -0.00340543
N 2.25515685 18.77682269 17.10610314 -0.00053125 0.00047177 0.00065206
N 3.61966928 10.38985206 12.56758096 0.00001920 0.00702970 0.00002273
N 1.60484496 13.19223997 10.31308952 0.00426851 0.00221360 0.00030802
N 0.50795662 15.73969289 15.22971242 -0.00698559 0.00411705 0.00104077
N 3.36581182 11.05613822 16.68724565 -0.01174549 -0.00153330 0.00318760
N 2.24476505 18.11767417 12.21306994 -0.00331641 0.00335583 0.00415415
N 0.24174485 15.26611720 19.20268615 -0.00286960 -0.00018910 -0.00162002
N 1.49525633 13.83579770 23.60548285 -0.00244393 -0.00464560 -0.00109319
N 1.85949787 18.60864768 25.95116544 0.00147610 0.00318850 0.00044858
N 3.03136335 10.45039380 21.70678623 0.00457402 -0.00077058 0.00383081
N 1.46847359 13.34334199 19.40309310 0.00022217 -0.00293306 -0.00093878
N 0.53926146 15.85527238 24.03944933 0.00376188 0.00250592 -0.00202898
N 3.10768780 10.94214595 25.67865558 0.00426787 -0.00531104 0.00303481
N 2.22739705 18.15638928 21.35964213 0.00107712 0.00203609 0.00101321
N 0.32007306 24.57803732 1.20729099 -0.00615022 -0.00001278 0.00028612
N 1.62721297 23.56929198 5.73596071 0.00230703 -0.00574524 -0.00086464
N 2.05654066 28.30959295 7.72100280 -0.00169894 -0.00006631 0.00142419
N 3.38198841 19.99073523 3.60404461 0.00284792 0.00275136 0.01135960
N 1.26418983 22.48600808 1.45895849 -0.00277893 0.00072976 0.00301656
N 0.41256988 25.42129650 6.02714319 -0.00024832 0.00014472 -0.00024232
N 2.87904323 20.40266664 7.53717141 -0.00341834 -0.00099351 -0.00084375
N 2.04339190 27.75126448 2.83565361 -0.00017565 -0.00108894 -0.00132898
N 0.01845560 24.76972198 10.50157034 0.00101977 0.00151996 -0.00303356
N 1.52810697 23.64941574 14.93767214 0.00066107 0.00013524 -0.00569280
N 1.75159709 27.93085604 17.11685983 0.00127367 0.00311678 0.00618742
N 3.44134830 20.01681998 12.72613945 -0.00068791 0.00125342 0.00020732
N 1.26646105 22.84113398 10.62485794 0.00028949 -0.00237368 -0.00083360
N 0.09360318 25.38768083 15.20883565 0.00098264 -0.00358803 0.00367254
N 3.17356147 20.85098132 16.78124993 0.00197094 -0.00025755 0.00087264
N 1.94395596 27.80869958 12.23769579 -0.00032524 0.00019476 -0.00219805
N 0.26108687 24.81034755 19.54215229 0.00563554 0.00487008 0.00178413
N 1.67971559 23.46331495 24.11690466 0.00019728 0.00080990 0.00160632
N 2.37294344 28.11361852 26.30070572 -0.00295015 -0.00242924 -0.00336201
N 3.49718639 20.06986404 21.73206806 -0.00023636 -0.00165247 0.00085145
N 1.42054204 22.84409773 19.87327426 0.00067717 -0.00137185 -0.00068648
N 0.53169133 25.48072308 24.41589642 -0.00695188 -0.00171207 -0.00603037
N 3.35850455 20.40641960 25.98380619 0.00405788 -0.00629570 0.00400686
N 2.03631922 27.82776880 21.47886415 -0.00470908 -0.00133285 -0.00323815
N 4.04512292 5.63822583 1.07571000 -0.00377479 0.00014202 0.00502357
N 5.36480749 4.40272247 5.75332603 0.00536214 0.00027749 -0.00759290
N 5.64300087 9.02655783 7.76776712 -0.00398996 -0.00527792 -0.00178418
N 6.96135312 0.45894761 3.16469666 0.00338313 0.00066121 -0.00393896
N 5.12600726 3.57110513 1.40859870 0.00103390 -0.00736256 -0.00238257
N 3.88839727 6.14206753 5.95682039 0.00223144 -0.00199399 0.00030051
N 6.86823431 1.34219834 7.56778727 0.00418294 0.00562093 0.00803534
N 5.60106874 8.32473788 3.13386239 -0.00152632 -0.00197433 -0.00556549
N 3.71263804 5.23491543 10.35120738 -0.00031024 -0.00734877 0.00210623
N 4.95171980 3.90840298 14.77144178 -0.00026640 0.00392159 0.00024596
N 5.53590532 8.80272796 17.11395519 -0.00210312 -0.00025429 -0.00595587
N 7.21090230 0.58471956 12.30610163 0.00531390 -0.00455674 0.00243685
N 5.10294108 3.38761391 10.56362598 -0.00340052 0.00298529 -0.00144620
N 3.97649979 5.92519043 14.86968879 -0.00087283 -0.00196466 -0.00455692
N 6.74140024 1.27017034 16.86316276 -0.00168903 -0.00302862 -0.00288941
N 5.84819121 8.26014950 12.30213522 0.00397407 0.00026101 -0.00480690
N 3.87572749 5.58770254 19.36292544 0.00147245 -0.00194107 0.00451029
N 5.23347021 4.33482473 23.98897378 0.00240476 -0.00023920 0.00113818
N 5.48243327 9.12833681 26.22022840 -0.00312412 -0.00195666 0.00305386
N 7.11491164 0.53527448 21.60171505 0.00057774 0.00213683 0.00331984
N 5.19320171 3.70334167 19.71331755 -0.00468667 -0.00159956 -0.00196916
N 4.09450413 6.23912431 24.43465016 0.00383214 -0.00137466 0.00641420
N 6.92786200 1.34722042 25.72182019 0.00291080 0.00046865 0.00225129
N 5.73455528 8.49453342 21.82640964 0.00165392 0.00200433 0.00452684
N 4.12378540 15.08672196 1.09822691 0.00122026 0.00070922 0.01029380
N 5.23333160 13.65836787 5.75343235 0.00026046 0.00375414 -0.00255647
N 5.80260658 18.66183600 8.26431884 0.00112395 0.00478457 0.00243193
N 6.91116091 10.35908420 3.37788458 0.00637541 0.00220693 0.00185143
N 4.98338604 12.97946959 1.24304870 -0.00100300 0.00711685 0.00594953
N 4.02141571 15.55444741 6.15352475 -0.00394631 0.00180824 -0.00779863
N 7.03802451 10.74593655 7.65540644 -0.00198690 -0.00052581 -0.00439095
N 5.93363950 17.88209789 3.25687218 -0.00330714 0.00314821 -0.00128591
N 3.99063673 15.16227889 10.26650422 -0.00028679 0.00641112 0.00424581
N 5.13780379 13.82621676 14.99871829 0.00050061 0.00070835 0.00249126
N 5.35550365 18.74983018 17.03996190 -0.00474160 -0.00151461 0.00057827
N 6.89380941 10.23119995 12.57843099 0.00306102 0.00127753 0.00045005
N 5.22086377 13.30149233 10.79982082 0.00281970 0.00338815 0.00151567
N 3.84094961 15.72344863 15.24947522 0.00416974 0.00105925 -0.00157615
N 6.78459430 10.78723716 17.04913950 0.00206827 0.00348522 -0.00177566
N 5.76427466 18.13061219 12.38975979 -0.00629370 0.00051762 -0.00045197
N 3.78536657 15.35454390 19.34667151 0.00457705 0.00280166 -0.00560850
N 5.44795797 13.72945893 23.97714101 -0.00050099 -0.00348758 0.00630679
N 5.58468934 18.40173449 26.18127004 0.00369141 0.00253240 0.00461943
N 7.19723382 10.32965148 22.02444062 -0.00143295 -0.00076532 -0.00156373
N 4.76306989 13.38826205 20.02742987 -0.00096224 0.00718707 -0.00131594
N 3.99491300 15.56796997 24.25514106 0.00222348 -0.00006681 -0.00431874
N 6.97565609 10.87789843 25.98463019 -0.00649399 -0.00528192 -0.00230183
N 5.89867109 18.11786548 21.45390498 -0.00201383 -0.00136496 0.00396586
N 3.98731474 24.54761539 1.12352029 0.00340992 -0.00252227 0.00155602
N 5.00711569 23.36557911 5.78579068 -0.00089801 -0.00299614 -0.00195762
N 5.81970795 28.13727936 7.84431484 -0.00495791 -0.00123178 -0.00379202
N 7.28097036 19.70259234 3.85635365 -0.00320711 -0.00201321 0.00032949
N 5.04688899 22.58594887 1.62201410 0.00515506 -0.00051454 0.00493249
N 4.14193423 25.55496420 6.01529285 -0.00096995 -0.00790538 -0.00311165
N 6.75132752 20.69970091 7.71582907 0.00489204 0.00269480 0.00282701
N 5.97161093 27.29923074 2.99054671 0.00093190 -0.00648358 0.00362765
N 3.83709450 24.89800345 10.22511608 0.00084521 -0.00608296 0.00031767
N 5.40768724 23.52929993 15.17605592 -0.00221056 0.00117727 0.00093463
N 5.54660389 28.16520846 17.01947025 0.00201096 0.00351073 0.00009269
N 6.82077783 20.08284898 12.78824083 -0.00064431 0.00140628 0.00051930
N 5.04705507 22.95908514 10.66868932 0.00166508 0.00372446 -0.00213145
N 3.96572644 25.41782508 15.42964257 0.00013534 -0.00168647 -0.00058055
N 6.82357697 20.53344150 16.93762231 -0.00209180 0.00082314 0.00441992
N 6.00534334 27.53539864 12.18305219 -0.00643188 0.00190208 -0.00366266
N 3.77552071 24.75856549 19.66904417 0.00046959 0.00857606 0.00431093
N 5.38841580 23.63764544 24.22707014 0.00083419 -0.00442337 -0.00053608
N 5.61461466 28.42062148 26.15396073 -0.00075837 0.00125677 0.00125471
N 6.97948790 20.10171149 21.77367708 0.00372155 -0.00622393 -0.00281835
N 4.97633739 22.80252276 19.79605889 0.00355015 0.00512502 -0.00077887
N 3.92417600 25.52804711 24.39749399 0.00422861 -0.00108895 0.00458637
N 6.92580552 20.27568503 26.04747078 0.00136583 -0.00177134 -0.00453861
N 5.75900514 27.51124256 21.35534846 -0.00564534 0.00283457 0.00768471
N 7.60789723 5.35772257 1.19848860 0.00514077 -0.00834943 0.00016545
N 8.86467920 4.05698775 5.79185119 -0.00075711 -0.00318719 0.00256846
N 9.55733473 9.01548728 8.00889085 -0.00161446 -0.00189047 0.00130761
N 10.89311317 0.43830170 3.00633921 -0.00175812 0.00417780 0.00619138
N 8.97149707 3.50424521 1.33392855 0.00254839 0.00410074 -0.00100649
N 7.76500679 6.11062239 6.19250968 -0.00157974 0.00614728 0.00327662
N 10.65140807 1.23610894 7.44805414 0.00084294 0.00231643 -0.00076689
N 9.15051321 8.30746499 3.12814047 -0.00346529 -0.00126464 -0.00524921
N 7.48698774 5.30726978 10.22361004 -0.00428728 -0.00153807 -0.00055435
N 8.74979178 4.19997973 14.83305438 0.00359913 -0.00440309 0.00093873
N 9.59960945 8.78951762 17.23039600 0.00211231 0.00495183 0.00171716
N 10.66168092 0.67094969 12.37294931 -0.00825575 -0.00055830 -0.00570136
N 8.92373819 3.50098829 10.38984891 -0.00172776 0.00130546 0.00553767
N 7.54253175 6.18987410 15.11411646 0.00015775 0.00136082 -0.00410283
N 10.36807602 1.31930888 16.76576159 0.00299829 0.00097483 -0.00050174
N 9.43994576 8.35504924 12.29172630 -0.00002079 0.00072113 0.00146115
N 7.46489197 5.37460056 19.43971949 0.00762187 -0.00924185 -0.00265052
N 9.02240481 3.84522641 23.92418884 -0.00130511 0.00394323 0.00121925
N 9.23900018 8.93286415 26.21864757 -0.00023962 0.00222435 0.00451331
N 10.81980936 0.53027528 21.57943787 -0.00096696 0.00255923 -0.00452746
N 8.91572547 3.64738993 20.00317899 0.00031423 -0.00354300 -0.00347404
N 7.80631842 5.82395569 24.31791466 0.00059450 0.00639418 -0.00195055
N 10.54435215 1.10161270 25.93339384 0.00044626 -0.00185689 0.00091661
N 9.61080280 8.37917146 21.33514766 -0.00002012 -0.00581303 -0.00203256
N 7.22803634 15.02559305 1.37971765 0.00218328 -0.00043841 -0.00131715
N 9.15777186 13.81386750 5.86587575 -0.00140779 -0.00294595 -0.00199783
N 9.05149609 18.78935121 7.53726790 0.00305052 -0.00429699 0.00237676
N 10.64083121 10.03687689 3.38330566 -0.00007054 0.00289362 0.00240058
N 8.74826394 13.25790316 1.62682114 -0.00012836 0.00237305 -0.00469153
N 7.46601389 15.49181854 6.12148738 -0.00068194 -0.00098906 0.00365633
N 10.86847726 10.77515890 7.56741213 0.00119582 0.00102115 0.00358364
N 9.74796237 17.85325180 3.14203477 -0.00149226 -0.00798117 -0.00723110
N 7.54710986 15.31108642 10.39959106 0.00124835 -0.00646809 -0.00315027
N 8.77835082 13.70633043 15.05787011 0.00154224 0.00230968 -0.00894286
N 9.34229333 18.67027072 17.06697880 -0.00057987 0.00412724 0.00311603
N 10.53888695 10.29395478 12.70391429 0.00087106 0.00000889 -0.00150651
N 8.71240140 13.27655331 10.46018070 0.00071071 0.00597228 0.00634740
N 7.39704899 15.58364550 15.28344574 0.00551984 -0.00004205 0.00731327
N 10.39868930 11.00007873 16.93392587 -0.00092273 -0.00376724 0.00266751
N 9.38494888 17.77968114 12.27549409 0.00164217 -0.00232738 0.00111638
N 7.46840564 15.22808119 19.55948261 0.00091809 0.00027241 -0.00109117
N 8.89435748 13.64730622 24.08017892 -0.00326146 -0.00146544 0.00065629
N 9.33168296 18.41768919 26.31256666 -0.00074510 0.00030392 0.00122739
N 10.53301908 10.47074281 21.74097938 -0.00120128 0.00341205 -0.00056959
N 8.34123739 13.14037221 19.73694533 -0.00244755 -0.00212964 0.00363009
N 7.79973924 15.70836212 24.44540280 -0.00071508 0.00322764 0.00179922
N 10.59731914 10.78035323 26.03957839 0.00488034 0.00506602 0.00088217
N 9.42823424 18.20080014 21.44282840 0.00298530 -0.00198169 -0.00041669
N 7.28140324 24.59732549 1.19739986 -0.00382604 0.00315742 -0.00124990
N 9.13236531 23.24730177 5.78735253 0.00081787 0.00564846 -0.00226936
N 9.44006831 28.17595900 7.60864856 0.00601868 0.00346488 -0.00273538
N 10.65453776 19.92946709 3.29412541 0.00120298 -0.00504048 -0.00334838
N 8.72696550 22.80338669 1.62480228 0.00317677 -0.00030865 0.00271324
N 7.70116403 25.04310597 5.95615342 0.00260384 0.00218250 0.00043735
N 10.67369370 20.36355210 7.51134991 0.00021629 0.00277053 0.00211939
N 9.49671909 27.50030553 2.97926102 -0.00540597 -0.00112563 -0.00643971
N 7.46757040 24.59531207 10.41308669 0.00256788 0.00056482 0.00364284
N 8.55330901 23.46415316 14.84319998 0.00326407 0.00169293 -0.00425326
N 9.32134581 28.23859349 17.16739863 0.00205027 0.00275605 0.00341691
N 10.71401762 19.58031947 12.50928410 0.00361250 0.00350755 0.00565189
N 8.84483376 22.71702642 10.49259118 -0.00156489 0.00105705 0.00138939
N 7.63316739 25.57552358 15.03794172 0.00129724 -0.00142177 -0.00351136
N 10.59610597 20.54290791 16.62876959 -0.00449749 0.00333238 0.00717339
N 9.44126946 27.57826137 12.32477557 0.00369923 0.00234087 0.00828420
N 7.67392680 25.05980406 19.24479029 -0.00118024 -0.00438597 0.00034856
N 8.77825784 23.24452857 24.14908984 -0.00116985 -0.00349154 0.00308732
N 9.26033175 28.04957800 26.09738800 -0.01300254 -0.00270219 -0.00168136
N 10.43605168 20.27180593 21.80080258 0.00149867 0.00001803 0.00539059
N 8.83871984 23.07869730 19.63259249 0.00271002 -0.00486714 0.00073956
N 7.82457198 25.36115660 24.30094366 0.00607470 0.00213771 -0.00259471
N 10.58483652 20.34152777 25.99762350 -0.00281374 0.00377125 -0.00709560
N 9.55829926 27.49591793 21.58362746 0.00059276 0.00559013 0.00021582
N 11.24051280 5.53133587 1.25917748 -0.00361003 0.00100957 0.00001918
N 12.59056345 4.18977887 5.81852558 -0.00108151 -0.00319144 0.00552524
N 13.15200248 8.82149169 8.03730771 0.00347936 0.00460457 0.00503422
N 14.23676512 0.78496817 3.38035981 0.00070038 0.00103378 -0.00343670
N 12.40846314 3.55566145 1.51544411 -0.00562385 0.00227586 0.00239722
N 11.31603199 6.20484448 5.98167908 -0.00676394 -0.00151394 0.00557014
N 14.38591504 1.36029734 7.51166762 -0.00183671 -0.00204775 -0.00060551
N 13.06232763 8.51948682 3.02896428 -0.00082237 0.00768540 0.00320722
N 11.13921620 5.79570184 10.40255997 0.00449254 0.00292905 0.00665011
N 12.55202930 4.29071796 15.09032100 0.00104613 0.00182230 -0.00148474
N 12.92358288 8.93856115 16.98455549 0.00972636 -0.00319820 0.00050779
N 14.07465462 0.62083472 12.48015560 -0.00461569 -0.00146494 -0.00603046
N 12.39507421 3.89604496 10.71778848 -0.00070707 0.00223313 0.00879322
N 11.18195929 6.17151119 15.27527997 0.00148917 -0.00332690 0.00016450
N 14.19814269 1.20245772 16.97515192 -0.00086524 0.00106157 -0.00393747
N 12.99144275 8.50283899 12.39182137 0.00106244 -0.00442196 -0.00171556
N 11.11397985 5.45166898 19.54279326 -0.00276441 -0.00023494 0.00338313
N 12.44580586 4.13443735 24.08596298 -0.00269955 -0.00075332 0.00259943
N 13.30775183 8.61330182 26.50239735 0.00530072 0.00140260 -0.00240543
N 14.37215513 0.74846746 21.68757846 -0.00246873 -0.00155248 0.00424624
N 12.09783042 3.31468072 19.94920935 0.00342252 0.00092175 -0.00022750
N 11.47723019 6.18490808 24.44142592 -0.00364262 0.00229234 -0.00203989
N 14.62195843 1.12863170 26.17638526 0.00058253 0.00219421 -0.00163457
N 12.89211029 8.42021405 21.23992027 0.00083580 -0.00267373 -0.00069746
N 11.01074508 15.02294637 1.30642804 -0.00395205 -0.00232488 0.00586869
N 12.77490473 13.78067216 5.85517522 0.00247870 -0.00242813 -0.00561405
N 12.95083069 18.61060108 7.68333859 0.00124720 0.00476530 -0.00272817
N 14.39684541 10.33029449 3.40898377 0.00439022 0.00261207 -0.00218256
N 12.34046520 13.14836584 1.58695272 -0.00084795 0.00061819 0.00579378
N 11.44233539 15.61792656 6.26039155 0.00068295 0.00649456 -0.00522619
N 14.46428031 10.76355663 7.87324559 0.00066774 -0.00427329 -0.00211559
N 13.14702280 17.76154354 2.92617271 0.00107645 0.00492415 0.00134258
N 11.13638439 14.96238003 10.50920509 0.00087790 0.00225141 0.00601309
N 12.46595365 13.62478359 15.05906592 -0.00433405 0.00027164 0.00110510
N 13.30081997 18.62401032 17.01939549 0.00069763 0.00312198 0.00267648
N 14.25824546 10.40175923 12.91729010 0.00029779 -0.00231714 0.00282074
N 12.49546309 13.08818292 10.80161454 0.00637027 0.00058334 0.00361070
N 11.28338917 15.67405619 15.07700179 -0.00375321 -0.00532788 -0.00224732
N 14.31506780 10.81058026 17.00584417 0.00120804 0.00361351 0.00526332
N 13.05045443 17.84641846 12.27276639 0.00346892 0.00389958 0.00357302
N 10.91189650 15.12551881 19.55873978 0.00486978 -0.00331807 0.00121715
N 12.67462365 13.91592307 24.24936034 0.00302814 -0.00559248 0.00026121
N 13.27478147 18.72516279 25.86322280 0.00200275 -0.00411659 0.00955829
N 14.37666710 10.15830643 21.84340959 0.00310770 -0.00144255 -0.00257921
N 12.11095221 13.17301654 19.75573816 0.00259354 -0.00659820 -0.00593292
N 11.17959796 15.78799530 24.51639396 0.00032384 -0.00130206 0.00674488
N 14.34571988 10.65058976 26.04728019 0.00379342 -0.00080738 0.00013307
N 13.12810436 17.86648008 21.43606196 -0.00192146 0.00029749 0.00028032
N 11.17106492 24.66413218 1.29608258 -0.00373078 -0.00139252 0.00378586
N 12.44175744 23.18197721 5.57427827 0.00793390 -0.00065636 -0.00060595
N 13.03730823 28.29498553 8.00565154 -0.00122521 0.00398338 0.00151534
N 14.29359056 19.76190674 3.19319704 0.00648512 -0.00144100 -0.00267000
N 12.48429056 22.77840430 1.33200053 -0.00294151 -0.00437803 -0.00120451
N 11.43242863 25.30858503 5.81964575 0.00614362 -0.00276650 0.00147804
N 14.31086249 20.48125809 7.37535955 0.00154201 -0.00693931 0.00148285
N 13.37076817 27.65845771 2.99236402 0.00393519 0.00159710 -0.00240673
N 11.26703780 24.54953607 10.21899964 -0.00403086 0.00368070 -0.00617083
N 12.45310735 23.49852957 14.81388584 -0.00344975 -0.00020751 0.00114435
N 12.81751588 28.29556230 17.14158868 -0.00208143 0.00121243 0.00161941
N 14.30843973 19.72891625 12.43393443 0.00528920 0.00150286 -0.00124873
N 12.39621117 22.60257205 10.53507269 0.00735094 -0.00685166 -0.00031081
N 11.35252623 25.49949678 15.03710308 0.00173045 -0.00215738 -0.00005715
N 14.43663725 20.66256315 16.94663085 -0.00312824 -0.00279438 -0.00241826
N 12.85839648 27.55220955 12.14959783 0.00317877 -0.00260545 0.00186008
N 11.33395462 24.86843794 19.55636026 -0.00002973 -0.00354872 -0.00774811
N 12.79855970 23.38725058 24.17763065 -0.00189979 -0.00188879 0.00524696
N 13.36697063 28.10414331 26.41665088 -0.00034268 0.00215858 0.00262851
N 14.37269689 19.81906363 21.50875763 -0.00313095 0.00400016 0.00414144
N 12.59900935 22.90259609 19.51337881 0.00476578 0.00157347 0.00039040
N 11.39148314 25.26124685 24.58733860 -0.00551174 0.00073442 -0.00233782
N 14.30746136 20.73861036 25.59623100 0.00026467 0.00492839 0.00064186
N 13.24360476 27.67489603 21.51332174 0.00527263 -0.00303586 0.00173895
N 14.74384508 5.75396625 0.74022495 0.00256656 0.00304750 0.00657410
N 16.24290069 4.17212576 5.84786398 0.00076282 -0.00321342 0.00233815
N 17.08271160 8.71487487 8.01882921 -0.00012678 0.00495494 -0.00101798
N 18.02256088 0.78266922 3.39868402 -0.00381837 -0.00343145 -0.00031062
N 16.16213039 3.98148483 1.38983289 0.00501717 -0.00621817 -0.00030728
N 14.95441249 6.00958952 6.06019040 0.00338381 -0.00327945 0.00120273
N 18.01425279 1.36514816 7.86090603 -0.00808230 -0.00423126 0.00058729
N 16.70971617 8.53444099 3.12411076 0.00145688 0.00267632 -0.00170284
N 15.18481573 5.54558435 10.19013318 0.00000254 -0.00865719 0.00412746
N 16.19151023 4.11196021 14.78697666 0.00904955 0.00097635 0.00189357
N 16.63809172 9.15902254 17.16490453 -0.00022982 -0.00126192 0.00004390
N 18.06087944 0.54604808 12.40092993 0.00098619 0.00248898 -0.00314403
N 16.07570155 3.45397836 10.52010716 -0.00007014 0.00280000 0.00230725
N 15.00476964 6.00902990 15.31201664 0.00095263 -0.00039491 0.00236442
N 17.82266255 1.19242822 16.78241852 -0.00104130 0.00252275 -0.00392201
N 16.59397654 8.39320958 12.05426218 -0.00471205 -0.00420589 0.00037188
N 14.65607072 5.64753634 19.39979268 -0.00421043 -0.00012758 0.00265428
N 16.38357042 4.37176179 24.12681861 -0.00255511 0.00410977 -0.00085209
N 16.87282919 8.82954969 26.63086974 0.00200745 0.00218151 -0.00548968
N 18.18170692 0.61447015 21.58014032 -0.00766988 -0.00128533 0.00181534
N 16.09566496 3.80682727 19.78543416 -0.00164746 0.00306395 0.00334270
N 15.07854124 6.29478428 24.05851640 -0.00017066 -0.00382098 -0.00782130
N 18.20342709 1.41845896 25.82361565 -0.00118153 -0.00586826 -0.00776271
N 16.71548589 8.45934008 21.38152438 0.00478677 -0.00268487 -0.00165711
N 14.72763286 14.94742857 1.06738240 -0.00513769 -0.00534970 -0.00066832
N 16.38684766 13.74433769 5.54567449 -0.00172676 0.00036437 -0.00368440
N 16.85234747 18.76536810 7.98054726 0.00069504 0.00031054 0.00333864
N 17.95838798 10.41667829 3.55222889 -0.00723961 -0.00206603 -0.00112086
N 16.17064390 13.14728204 1.50736379 -0.00081200 -0.00134941 -0.00333335
N 15.09915229 15.68043858 5.81733524 0.00354630 0.00307440 -0.00053495
N 18.02334584 10.71438646 7.38729529 -0.00168477 -0.00554016 -0.00049563
N 16.81959034 18.10889109 2.94746517 -0.00199430 -0.00205383 -0.00064840
N 14.97790075 15.03209743 10.34870688 0.00026665 -0.00154203 0.00044572
N 16.20687788 13.81016681 14.82893966 0.00711999 -0.00488688 0.00432545
N 16.59456211 18.54736355 17.29220735 0.00089957 0.00033976 0.00141860
N 18.01686266 10.21898745 12.20732335 -0.00036013 -0.00226298 0.00574701
N 16.06619149 13.00907019 10.66745070 -0.00266909 -0.00590422 0.00420889
N 15.01464069 15.72421240 15.31517197 -0.00584147 0.00399425 0.00208289
N 18.18115092 10.89654632 17.02848361 0.00054029 0.00449090 0.00337598
N 16.88647109 17.76957619 12.30428933 -0.00482475 -0.00502958 -0.00630428
N 14.74098753 15.03843343 19.68083319 0.00135230 -0.00240531 -0.00525239
N 16.33007704 13.71576275 24.16142622 0.00506393 0.00176174 0.00173389
N 16.72169543 18.55234587 26.18838405 0.00303093 -0.00714059 -0.00025678
N 17.83673275 10.36601948 21.81828895 0.00357153 -0.00112567 -0.00049748
N 15.94652699 13.08777504 19.92590106 0.00435256 -0.00063546 0.00677212
N 14.99504372 15.49317167 24.42254747 0.00432888 0.00212318 -0.00402892
N 17.73477710 10.83158927 25.89561368 -0.00514249 0.00056741 -0.00029438
N 17.01976020 17.79706207 21.48499198 0.00101887 -0.00234621 -0.00243353
N 14.94693042 24.76035301 1.14127983 -0.00146119 0.00026854 -0.00383223
N 16.27755468 23.66227566 5.63882657 -0.00346876 0.00171905 0.00080954
N 16.97280429 28.19054345 7.96834591 -0.00061766 -0.00005648 -0.00952708
N 18.12132638 19.90656795 3.48965574 0.00361171 -0.00112289 0.00312245
N 15.99956779 22.77207032 1.24592166 -0.00021224 -0.00116329 -0.00174463
N 15.11075624 25.61811631 5.92979866 -0.00155815 -0.00599671 0.00300795
N 17.92288890 20.77103311 7.68225870 0.00460097 0.00379920 -0.00083295
N 16.63002163 27.90972085 2.96156880 0.00036511 0.00146173 -0.00100587
N 14.66351954 24.64213252 10.32819251 0.00249062 0.00622268 0.00192524
N 16.05221644 23.57080976 14.50541060 -0.00231411 0.00099954 0.00303714
N 16.48195706 28.22362362 16.92202827 -0.00351457 -0.00127579 0.00637053
N 18.27056156 19.68372169 12.54514389 0.00005058 0.00144874 -0.00179394
N 15.94217843 22.72754540 10.48954604 0.00233089 0.00205665 -0.00076726
N 14.90581735 25.40219799 15.34881708 -0.00406049 -0.00084612 0.00232797
N 17.81010494 20.51192701 16.84311157 -0.00301814 0.00058822 0.00268720
N 16.54836371 27.80545999 12.39094074 -0.00450628 -0.00277369 0.00006847
N 14.84898754 24.84298754 19.41031522 -0.00178334 -0.00619740 -0.00218746
N 16.36966142 23.73439323 24.09309518 -0.00046978 -0.00661156 -0.00457987
N 17.06329815 28.38988437 26.20068167 0.00178265 0.00086591 0.00050089
N 17.99424661 19.87967402 21.78430319 -0.00100642 0.00022734 -0.00004426
N 16.11156358 22.87662438 19.74424729 0.00114500 0.00635869 0.00300767
N 14.76711238 25.41475130 24.25169368 0.00287165 0.00181153 0.00389431
N 17.92478225 20.57896794 25.78146941 0.00692748 0.00137509 0.00204978
N 16.98742586 27.58467960 21.29493886 -0.00060373 -0.00103997 -0.00953916
N 18.49391512 5.73736754 1.26413778 0.00077323 0.00580505 0.00140575
N 19.82424784 4.11181835 5.60187391 0.00393284 -0.00559524 -0.00580613
N 20.40339798 8.87329173 7.87781937 -0.00091179 -0.00012511 -0.00149241
N 21.85960279 0.74283243 3.40280635 0.00151037 0.00567409 0.00096777
N 19.73633605 3.84664509 1.43128999 0.00532887 0.00173413 0.00496407
N 18.78235894 6.15238046 5.87850141 0.00319465 0.00504920 0.00275173
N 21.76479659 1.16260605 7.93123040 -0.00338223 -0.00683729 -0.00420325
N 20.19022941 8.53775205 2.92464803 0.00356090 0.00322271 0.00265131
N 18.32132235 5.48119828 10.12100146 0.00516005 -0.00260912 0.00291247
N 19.82573096 4.15755182 14.92138867 0.00557514 0.00346336 0.00293800
N 20.33165763 8.90758461 17.00157803 0.00362788 -0.00036253 0.00574841
N 21.46240979 0.66391642 12.48427856 0.00466345 -0.00392804 -0.00590174
N 19.56843377 3.59273320 10.71643342 0.00224448 0.00568953 -0.00013069
N 18.51632207 6.15902640 15.08728125 -0.00097118 -0.00045766 0.00191558
N 21.51850025 1.12023999 16.61809529 0.00402459 0.00186705 -0.00072518
N 20.20950562 8.23435637 12.10564204 -0.00146444 -0.00297870 0.00513845
N 18.47873692 5.59987844 19.52583673 0.00123821 -0.00200550 0.00288026
N 19.82411332 4.23298767 23.84061161 -0.00161611 -0.00189203 0.00792625
N 20.33188476 9.15892068 26.09964981 -0.00103079 -0.00163085 -0.00089184
N 21.57757271 0.81627143 21.63733785 -0.00581899 -0.00293779 0.00083168
N 19.84353058 3.66596562 19.73175570 -0.00140946 -0.00102393 -0.00302589
N 18.75189378 6.14563449 24.38669195 -0.00165754 0.00474714 -0.00340661
N 21.45463265 1.35392446 25.95170421 -0.00044917 0.00194001 0.00372708
N 20.47488721 8.49790382 21.14347525 0.00258806 0.00044699 0.00576086
N 18.55314868 15.04758244 1.18420783 0.00549866 -0.00140155 -0.00418006
N 19.96578792 13.72201806 5.61437380 -0.00463737 0.00218924 0.00013910
N 20.32520024 18.70237084 8.05153620 -0.00996592 0.00673811 0.00192495
N 21.59922419 10.30338239 3.41035435 -0.00372176 0.00303153 -0.00345057
N 19.82045876 13.11801601 1.40630825 -0.00140762 0.00374132 -0.00349266
N 18.98148174 15.77547015 6.18918536 0.00057432 0.00237469 -0.00411470
N 21.54076930 10.81094220 7.70421277 0.00213278 -0.00480820 -0.00659238
N 20.42716356 17.73420690 3.18835856 0.00091875 0.00488684 -0.00023941
N 18.54804818 15.05521030 10.15865733 -0.00160978 0.00830266 -0.00600835
N 20.02624952 13.68150129 14.86654064 0.00449185 -0.00143978 0.00148116
N 20.15065441 18.66091823 17.09615234 0.00207465 0.00211834 -0.00558494
N 21.54915909 10.06107252 12.32873385 0.01064970 -0.00019585 0.00690963
N 19.65810575 13.09495183 10.46269476 -0.00283401 0.00521399 -0.00092834
N 18.72418999 15.51619134 14.92403274 0.00413165 -0.00594766 0.00022460
N 21.53945290 10.97501985 16.65287731 -0.00509343 -0.00353317 0.00269598
N 20.55570056 18.08609314 12.09841031 -0.00406135 -0.00116591 0.00178249
N 18.69078352 15.25893741 19.12278163 0.00262598 -0.00494202 0.00276813
N 20.05425982 13.74922861 23.99240545 0.00302494 -0.00454044 0.00632049
N 20.48745532 18.74274480 26.31059905 -0.00270121 0.00268594 0.00067242
N 21.74863600 10.34961965 21.45918057 -0.00297603 0.00622050 0.00064151
N 19.74454314 13.33710725 19.55832012 0.00039286 0.00283803 0.00386493
N 18.67648362 15.57013460 24.29817467 0.00038143 0.00647516 0.00928077
N 21.59764817 11.02156877 25.82818857 0.00043173 0.00281937 -0.01218503
N 20.54891181 18.23908873 21.18772414 -0.00344364 0.00645866 0.00176952
N 18.70920929 24.76062047 1.20006069 -0.00209536 -0.00078901 0.00022869
N 19.85399861 23.50363832 5.63280879 -0.00265858 -0.00289517 0.00451756
N 20.40237600 28.10413124 8.06295796 0.00412466 0.00420066 0.00044719
N 21.78668472 19.61794222 3.43373847 0.00191769 0.00405248 0.00037316
N 19.65445875 22.67555437 1.32459647 -0.00862000 0.00310585 0.00455042
N 18.72279187 25.50578529 5.98257239 0.00139156 -0.00440983 -0.00360230