1728
Time=29000.00000000 pbc="T T T" Lattice="21.98051536 0.00000000 0.00000000 0.00000000 29.05627480 0.00000000 0.00000000 0.00000000 27.25802417" energy=-10388.15482211 virial="33.09292428 -15.84707723 -8.40258348 -15.84707723 -17.56066818 12.24958308 -8.40258348 12.24958308 3.08104936" stress="0.00409405 -0.00090000 -0.00048668 -0.00090000 0.00155672 0.00061795 -0.00048668 0.00061795 0.00288009" Properties=species:S:1:pos:R:3:vel:R:3
N 0.45141196 5.25952046 1.26567721 0.00188539 -0.00005026 0.00074764
N 1.37092080 3.70933210 5.81559675 -0.00167024 -0.00265296 0.00517396
N 2.02067827 9.22169634 8.01708937 0.00279068 0.00051319 -0.00487818
N 3.66870935 0.54860161 3.38309952 -0.00179216 0.00860019 0.00068470
N 1.49795555 3.28795058 1.50990878 -0.00177700 -0.00127152 -0.00056853
N 0.48432635 5.82456725 5.72017025 0.00273611 0.00283651 -0.00273711
N 3.34747139 1.39320820 7.57255972 -0.00041787 -0.00191302 0.00145791
N 2.34748927 8.24932323 3.03647564 -0.00989142 0.00432930 0.00284277
N 0.44057934 5.82910893 10.15833002 0.00384133 0.00299796 -0.00052320
N 1.76299923 4.34293591 14.82156670 -0.00457154 0.00334475 0.00069563
N 2.10103226 9.31690930 17.28730159 0.00051873 0.00038247 0.00712652
N 3.56469000 0.83167287 12.35082838 -0.00432889 -0.00064671 0.00088107
N 1.58592700 3.82298928 10.51009818 0.00078978 0.00321268 0.00510688
N 0.29500468 6.19860060 15.07123150 0.00332875 0.00046458 0.00397209
N 3.56249933 1.36047514 16.83455873 -0.00119051 0.00091784 0.00374411
N 2.07436932 8.57021007 12.11726388 -0.00934146 -0.00117818 -0.00374798
N 0.53183312 5.80556783 19.05347805 -0.00214552 0.00082478 0.00392634
N 1.67549614 4.18772480 23.74007768 -0.00519437 -0.00210036 -0.00137436
N 1.93262535 9.00220054 26.09540717 0.00372250 -0.00733875 -0.00197648
N 3.13920036 0.71188513 21.62060240 -0.01082742 -0.00250548 0.00015444
N 1.46544040 3.72630993 19.39855031 0.00129020 -0.00788477 0.00044257
N 0.16932049 5.96226541 23.79868626 0.00954149 -0.00059051 -0.00674695
N 3.37799888 1.21652811 25.74060483 0.00355725 0.00199501 -0.00381171
N 2.38698707 8.89494748 21.18651260 0.00432661 0.00373054 0.00320129
N 0.25411033 15.34656683 1.27684584 0.00410024 0.00804506 -0.00296667
N 1.43400112 14.00425092 5.93012634 0.00162737 -0.00105258 0.00159734
N 2.18071329 18.50059808 7.90471319 0.00132546 0.00553463 -0.00525940
N 3.30714104 10.33846125 3.55990023 0.00233183 -0.00432708 -0.00068960
N 1.09828243 13.24502168 1.39842954 0.00314575 -0.00004267 0.00220412
N 21.74597809 15.51624530 6.27810631 -0.00302049 -0.00181134 -0.00297863
N 3.30642548 11.04254870 7.86015376 0.00123637 0.00157383 0.00595632
N 2.19994479 18.23077994 3.28285862 0.00515649 0.00240073 0.00326787
N 0.22765416 15.27574838 10.28779672 0.00151792 -0.00137625 0.00122334
N 1.62279192 13.71952966 14.86579355 0.00059893 0.00288029 -0.00066217
N 1.77736137 18.63992031 17.07369268 0.00113015 -0.00202359 0.00417018
N 3.40946041 10.16307823 13.06679317 -0.00359285 0.00715387 -0.00001024
N 1.40255961 13.26257360 10.53234418 0.00169632 -0.00425910 -0.00475914
N 0.46050357 15.75240011 15.03400174 -0.00417499 0.00434768 -0.00078266
N 3.48553777 11.05342671 16.77135583 0.00127749 -0.00702975 -0.00045254
N 2.14904960 18.02663469 12.11809029 0.00068683 0.00057652 0.00180210
N 0.21452352 15.27868677 19.31520668 0.00153550 -0.00199117 0.00665202
N 1.31443276 13.74986172 24.00309471 0.00265255 -0.00544856 -0.00231627
N 2.34457506 18.79222437 26.27771259 -0.00206579 -0.00164324 -0.00472370
N 3.42018408 10.86886229 21.90122438 0.00662884 -0.00124029 0.00194460
N 1.53879246 13.44570136 19.71103708 0.00140891 0.00071285 0.00073881
N 0.28615447 15.79643884 24.41412891 0.00138685 0.00089376 -0.00397377
N 3.22979341 10.85172064 25.82320283 -0.00395124 -0.00067759 0.00721707
N 2.25556582 17.94809543 21.40331993 0.00236734 0.00161360 -0.00042235
N 0.32028615 24.78038692 1.21261114 0.00123592 0.00376302 0.00042965
N 1.57441601 23.37585960 5.69751725 0.00150458 -0.00300405 -0.00090959
N 1.92750921 28.61516575 7.79674447 -0.00087093 -0.00221381 -0.00168818
N 3.53684848 20.06466340 3.62763817 0.00539415 -0.00322651 0.00728558
N 1.53560535 22.87745960 1.58344956 -0.00120171 -0.00433765 0.00663566
N 0.43890006 25.26413177 6.19021384 -0.00328022 0.00406470 0.00112607
N 3.13481241 20.59520885 7.58381318 0.00178646 0.00535858 -0.00067540
N 2.12159839 27.84066813 3.33660639 -0.00272622 -0.00333948 -0.00304943
N 1.09709228 24.95466853 9.76867486 -0.00244991 0.00061345 0.00563882
N 2.16409658 23.72271292 14.83637552 0.00108193 0.00497287 -0.00043351
N 2.45675835 28.34280787 16.95430535 0.00731203 -0.00396717 0.00303011
N 3.38737627 19.86729324 12.75028301 0.00251570 0.00387314 0.00188865
N 1.66420312 22.88394440 10.70231237 0.00023838 0.00067014 0.00115072
N 0.86237165 25.56003348 15.28541821 0.00160954 0.00434335 -0.00049009
N 3.35788994 20.37268012 16.73536654 0.00046555 -0.00398015 0.00009983
N 2.53868054 27.89998815 11.96928376 0.00028995 0.00402370 -0.00035161
N 0.43483563 24.85479770 19.26445614 -0.00709371 0.00405936 0.00189741
N 1.25912132 23.50708052 23.94137168 -0.00146227 -0.00573374 -0.00275175
N 2.24999562 28.24348468 26.08348729 -0.00364716 -0.00386393 0.00283259
N 3.60843202 19.84226554 21.58093399 0.00300998 -0.00060119 0.00381642
N 1.63079448 22.89147170 19.63152321 -0.00073492 -0.00240388 0.00493173
N 0.27091810 25.48294800 24.25608176 0.00155890 0.00102794 -0.00103892
N 3.13396176 20.83829500 25.72237304 -0.00088895 0.00757223 -0.00330508
N 1.84816955 27.79342303 21.65959026 0.00262098 -0.00022240 -0.00484566
N 3.77907038 5.54101796 1.27164672 -0.00096297 0.00363370 0.00389142
N 5.07188809 3.98248815 5.48555467 -0.00462742 0.00005761 0.00197486
N 6.10659143 8.76842859 7.91486648 -0.00810896 -0.00113209 -0.00113539
N 7.18390442 0.99717684 3.37537302 -0.00188973 -0.00016351 0.00015898
N 5.28891211 3.80425941 1.56158974 -0.00098669 0.00375702 0.00225827
N 4.25385927 6.11627721 5.90902125 -0.00249231 -0.00401503 -0.00305654
N 7.03898826 1.13577996 7.81819536 0.00246184 -0.00133473 -0.00389406
N 5.80863586 8.52396351 2.75379989 -0.00089992 0.00891431 -0.00264734
N 4.02004589 5.63707251 10.42255802 0.00320680 0.00604585 -0.00762646
N 5.41048509 4.44407364 14.77586253 -0.00534848 0.00326511 -0.00741664
N 5.62473724 9.18856598 16.88348797 -0.00249264 0.00318963 -0.00093349
N 7.38685493 0.76977398 12.50895065 -0.00052930 -0.00491258 0.00189034
N 5.16831491 3.67064848 10.73041069 0.00264365 -0.00468677 -0.00808491
N 4.03323814 6.30313683 15.06166987 -0.00669367 0.00032971 -0.00680742
N 7.12143947 1.48654589 16.62217381 0.00247960 -0.00075457 -0.00192411
N 5.87333587 8.64276709 11.90321408 0.01112593 0.00177636 -0.00358636
N 3.91961606 5.33579075 19.45851561 0.00194275 -0.00123782 0.00531269
N 4.80415814 4.31963154 23.96970785 -0.00033023 -0.00347010 0.00631816
N 5.85566478 8.90469678 26.15564349 0.00130808 -0.00092828 -0.00204915
N 7.17164485 0.80121342 21.61344935 0.00105068 -0.00304114 -0.01374499
N 5.22766826 3.49417958 19.76281119 0.00534984 0.00385008 -0.00310601
N 3.87565979 6.47930148 24.05450380 0.00172923 0.00372292 0.00349332
N 6.91456354 1.36628547 25.97694245 -0.00069178 0.00225742 -0.00534913
N 5.76490515 8.64986546 21.13138380 -0.00274818 -0.00296832 0.00323992
N 3.69260708 15.32064320 1.49263334 0.00110520 -0.00062997 0.00259457
N 4.51419695 13.41026818 5.67202833 -0.00057564 -0.00063617 -0.00524152
N 5.75909650 18.59920916 7.81309363 0.00022788 0.00262992 -0.00179417
N 6.80130338 10.54496066 3.43916357 -0.00244117 0.00150522 -0.00478778
N 5.14651227 13.49105386 1.38912249 -0.00014198 -0.00156818 0.00283840
N 3.73483109 15.52408440 6.01558456 -0.00113987 -0.00329485 -0.00308935
N 6.69281273 10.93260149 7.22495331 -0.00083517 0.00045790 -0.00232890
N 6.02133959 18.29502167 2.72358678 0.00327259 -0.00215262 0.00273955
N 3.75462585 15.10438460 10.24290757 -0.00047766 -0.00400196 -0.00243835
N 5.05228532 13.85675751 14.79835834 -0.00313086 -0.00032799 -0.00954738
N 5.43464312 18.73730224 17.52529356 -0.00702796 -0.00357452 -0.00679732
N 7.00254960 10.62883644 12.36299583 -0.01080759 -0.00285761 0.00393955
N 4.47894486 13.01775923 10.82694645 0.00113236 -0.00316261 0.00039063
N 3.91071132 15.92543437 15.04147617 0.00379346 -0.00175343 -0.00038279
N 6.93741457 11.03474721 16.57223238 0.00365631 0.00495661 -0.00466363
N 5.79046566 18.15059161 12.23307119 0.00095177 0.00233111 -0.00635989
N 4.07462944 15.21757488 19.45360821 0.00030202 0.00100839 -0.00142440
N 5.24451342 13.96888546 24.08487866 -0.00612079 -0.00139552 -0.00078589
N 5.41921818 18.94679647 25.88639689 0.00185905 -0.00130237 -0.00208738
N 7.07887676 10.53288299 21.56202692 0.00237045 0.00260321 -0.00797121
N 5.07845884 13.21962438 19.55496154 0.00509727 -0.00681107 -0.00686590
N 4.07136157 15.93038757 24.15328252 -0.00032271 -0.00147154 -0.00349118
N 6.85806017 11.00054881 25.77821572 0.00409842 0.00203408 -0.00051942
N 6.02136298 18.10830551 21.49981162 -0.00056173 -0.00001807 0.00560943
N 4.03142780 25.04672012 1.42310083 0.00649228 -0.00454470 -0.00495709
N 5.04156614 23.67689128 5.68165195 0.00249363 0.00468339 0.00931508
N 5.54821000 28.44593392 7.80005616 0.00175996 -0.00324819 0.00454320
N 7.24709339 20.24686203 3.38173977 0.00545090 0.00492137 -0.00431324
N 5.06554817 23.06143773 1.81383914 -0.00013350 0.00134777 -0.00165638
N 3.72662901 25.39735143 6.43496183 0.00208441 0.00757233 -0.00045960
N 6.71718194 20.70599316 7.40873425 -0.00007248 0.00391881 -0.00025220
N 6.21256520 28.01775484 3.06564909 -0.00863598 -0.00293716 0.00205045
N 4.04141443 24.75282638 10.33445332 0.00778671 -0.00234410 -0.00219855
N 5.70730308 23.61477766 14.83011891 -0.00288654 0.00528657 -0.00393813
N 6.16569996 28.53986226 17.07082202 -0.00323916 0.00768358 0.00602783
N 6.91753040 20.20160409 12.57142213 0.00262720 -0.00345554 -0.00691949
N 5.14146742 22.74914903 10.76736485 0.00205071 -0.00358706 0.00795782
N 4.68831504 25.68010574 15.20041638 0.00032779 -0.00542855 -0.00512923
N 6.73044936 20.58990362 17.03956789 -0.00534818 0.00230907 0.00012867
N 6.01823004 27.96246264 12.26213948 0.00093383 0.00905290 0.01096794
N 3.94220485 24.90228432 19.45278427 0.00346846 0.00373680 -0.00048886
N 5.09685632 23.64537077 23.90860897 0.00313802 -0.00359301 0.00508915
N 5.75441824 28.44616547 26.15187474 0.00054504 -0.00931047 0.00109949
N 7.06309952 20.16328062 22.00884016 0.00665151 -0.00487682 0.00027221
N 5.11241520 23.03956378 20.03853933 -0.00303763 -0.00201058 0.00089797
N 3.84454916 25.46877824 24.17213768 0.00777252 0.00849022 0.00026947
N 7.02697517 20.69099191 25.72373611 0.00718515 -0.00052783 -0.00667523
N 6.19880550 27.73359668 21.24082998 -0.00071628 0.00653145 0.00406067
N 7.48241644 5.36112159 1.15998002 0.00097124 -0.00032946 0.00690658
N 8.58819666 3.96721012 5.68779986 -0.00246811 0.00694053 -0.00279811
N 9.17713011 8.83666914 7.65330924 -0.00431422 -0.00196471 0.00806373
N 10.56429850 0.70898175 3.46584168 -0.00090647 0.00069146 -0.00572268
N 9.02284536 3.63576679 1.38508226 -0.00692001 0.00002569 0.00126106
N 7.74893349 6.03225156 6.15298896 0.00060822 -0.00446106 0.00223598
N 10.53148477 1.08647376 7.58873641 -0.00011496 -0.00153452 0.00864951
N 9.72695856 7.99891538 2.85950958 0.00194670 0.00093858 -0.00146789
N 7.90169178 5.63382906 10.03304275 0.00210098 0.01024772 0.00222287
N 9.10475036 4.56719459 14.76302964 -0.00226308 0.00267758 -0.00566439
N 9.54216590 9.30222520 16.98566175 0.00301741 0.00309360 0.00037790
N 10.92922001 0.73403660 12.51189445 0.00359146 -0.00398202 -0.00172678
N 8.72544710 3.65596629 10.94095036 -0.00626349 -0.00276034 -0.00014902
N 7.77980923 6.43000658 15.17391335 -0.00428291 -0.00208138 -0.00024961
N 10.75718728 1.42063670 16.67336946 -0.00685660 0.00182733 0.00180098
N 9.60749827 8.52863640 12.01661028 0.00109278 0.00203271 0.00318278
N 7.47923171 5.69081651 19.25940633 0.00653908 -0.00133461 -0.00416179
N 9.00394214 4.32769730 23.95793387 -0.00376663 -0.00381230 0.00177596
N 9.28124649 9.34713830 26.06258058 0.00030491 -0.00028804 -0.00133752
N 11.02109356 0.44121195 21.38033042 0.00088302 -0.00172396 0.00103195
N 8.91770540 3.87988319 19.60641253 -0.00116204 0.00116221 -0.00406594
N 7.56562060 6.12276659 24.25043567 0.00346263 -0.00286437 -0.00055012
N 10.72339899 1.28083065 25.59229347 0.00212877 -0.00422433 -0.00061130
N 9.23689093 8.79424371 21.03757340 -0.00655318 0.00447750 0.00019337
N 7.31664400 15.29210916 0.87718439 -0.00230827 0.00091717 -0.00402867
N 8.44219035 13.81903838 5.77446799 0.00662684 0.00612049 -0.00442557
N 9.12290966 18.64577352 7.90674719 -0.00380977 -0.00212025 0.00283214
N 10.24016303 10.18997064 3.56572586 -0.00175503 0.00102049 -0.00211239
N 8.34297389 13.41141657 1.77108898 0.00741898 0.00065610 0.00492462
N 7.66389731 16.00717556 5.88060061 0.00306377 0.00037231 0.00116138
N 10.43780445 10.85362426 7.58203768 0.00218566 -0.00296668 -0.00539895
N 9.66667129 18.18105607 3.10537714 0.00249866 0.01052892 0.00190624
N 7.39681313 15.20849528 10.46607173 -0.00029953 -0.00243957 -0.00519105
N 8.79814562 13.94839159 14.95985347 -0.00555455 -0.00147008 0.00317911
N 9.36921447 19.00249812 17.15088149 0.00220600 -0.00272392 -0.00059069
N 10.95705605 10.38305093 12.12569441 -0.00061520 0.00030537 0.00212478
N 8.64428683 13.26477074 10.57709529 0.00113674 0.00288612 -0.00909252
N 7.47579085 15.73850005 15.44269801 -0.00324855 -0.00757611 0.00243743
N 10.68781512 11.27473033 16.49069009 0.00490575 0.00242953 -0.00286419
N 9.27761009 18.39776618 12.46982144 -0.00292892 0.00596917 -0.00069296
N 7.55904649 15.03449926 19.50948725 -0.00038979 0.00299636 0.00714195
N 9.09641876 13.56438794 23.92299230 0.00270434 -0.00008557 -0.00058029
N 9.52436877 18.82844057 26.38005917 0.00280574 0.00268897 0.00454091
N 10.73217426 10.64432603 21.38738377 -0.00522830 0.00087976 0.00241607
N 8.94272801 13.26989962 19.86552212 -0.00071771 -0.00651186 0.00264178
N 8.25364897 15.69621244 24.42110384 -0.00351008 0.00463085 -0.00003633
N 10.76108887 11.06770171 25.82339139 -0.00132270 0.00727616 -0.00597043
N 9.64998893 18.14749126 21.27026655 0.00556214 0.00169918 0.00383501
N 7.78014387 25.21583255 1.08267198 -0.00438173 -0.00059973 -0.00036371
N 8.95848660 23.60419812 5.57614337 0.00601477 -0.00309960 -0.00167934
N 9.57391243 28.15931792 8.31723361 -0.00829879 0.00557284 0.00012421
N 11.22773391 19.90967125 3.53830628 0.00524454 0.00171177 0.00386329
N 8.78893417 23.11088225 1.39326392 -0.00141889 -0.00061179 -0.00398564
N 7.78024574 25.50489633 6.06304087 0.00129564 0.00045439 -0.00227986
N 10.42733400 20.52601409 8.04467002 -0.00155364 -0.00656930 0.00201411
N 9.28670697 27.86601516 3.18441272 0.00268307 -0.00305082 -0.00136673
N 7.31702131 24.99363632 10.28147771 0.00247071 0.00163632 -0.00238858
N 8.83895007 23.34223545 14.69280211 0.00034321 0.00055304 0.00138231
N 9.45410379 28.57836948 16.86988370 -0.00446408 0.00165898 -0.00132602
N 10.60060323 20.26941432 12.56577471 -0.00665493 -0.00189061 -0.00033913
N 8.29555213 22.88242770 10.49434482 0.00467506 0.00164024 -0.00255128
N 8.17157032 25.45404126 15.13056210 0.00239445 -0.00470916 0.00555290
N 10.78384990 20.76450669 16.81819339 0.00531403 -0.00395942 -0.00515973
N 9.63563630 27.89847270 12.09528708 0.00575807 -0.00395591 -0.00163178
N 7.49186905 24.77311433 19.32017449 0.00542624 -0.00424398 0.00269008
N 8.61127854 23.60491524 23.92123627 0.00135492 0.00081699 -0.00246057
N 9.69502130 28.30768790 25.85248887 0.00350227 0.00309941 0.00532109
N 10.86426473 20.04774967 21.80322785 0.00053865 -0.00336814 -0.00007271
N 8.88522569 22.98172931 19.88760228 -0.00008528 -0.00786870 0.00343281
N 7.48306480 25.64040131 24.01498105 -0.00831137 0.00001816 -0.00137207
N 10.70091866 20.78407579 26.01174997 0.00016946 0.00080656 0.00299775
N 9.57894620 27.73625702 21.00247014 0.00074001 -0.00339716 0.00234744
N 11.62054802 5.46294224 0.95048260 0.00152960 -0.00394807 -0.00749881
N 12.37530787 3.85441880 5.49718023 0.00134301 0.00058807 -0.00033685
N 13.03838775 8.91509249 7.68885151 -0.00711135 0.00255621 -0.00556794
N 14.43757900 0.45962382 3.36358571 0.00135546 -0.00230982 -0.00359962
N 12.25330572 3.22243072 1.38571480 -0.00514639 -0.00388331 -0.00084168
N 11.38920297 5.90528055 5.99435769 -0.00120492 -0.00504384 -0.00623622
N 14.22835234 1.19835636 7.83375345 0.00076708 -0.00126570 -0.00188953
N 13.58594391 8.28416605 3.13042372 -0.00791151 0.00115676 0.00269411
N 11.31325506 5.77067930 9.94930118 0.00094939 0.00422686 -0.00173914
N 12.58319180 4.08371913 14.89388151 -0.00111374 0.00185324 0.00101886
N 12.71606997 9.14021160 16.94857102 0.00109889 -0.00204046 -0.00196197
N 14.41690383 0.62471862 12.19845567 -0.00265241 0.00533127 0.00323349
N 12.40146395 3.73932929 10.58644914 -0.00463033 0.00057758 -0.00226753
N 11.58701325 6.18491739 15.01466322 -0.00286073 0.00571577 0.00229414
N 14.33813577 1.24968263 16.68638954 -0.00198844 -0.00658417 0.00347552
N 13.03601471 8.22871969 12.09404808 0.00416331 -0.00069505 -0.00072393
N 11.23516475 5.61214516 19.21372609 -0.00213381 0.00010212 -0.00077824
N 12.78923371 4.30206584 23.84557011 -0.00204041 0.00280646 -0.00617222
N 13.03044566 9.12702271 25.79882927 0.00067261 0.00371313 -0.00187704
N 14.34571792 0.67362601 21.33368237 -0.00422000 0.00385141 -0.00607170
N 12.54512676 3.75030395 19.70606770 -0.00010517 0.00013659 0.00079873
N 11.39180814 6.19245728 24.16142604 0.00075315 0.00109707 -0.00516019
N 14.29327631 1.07186091 25.39059113 0.00518368 0.00477431 0.00552319
N 13.11280622 8.40252439 21.40044030 -0.00102519 -0.00122056 -0.00299781
N 11.34126217 15.20707262 0.90520300 -0.00590461 0.00219939 -0.00250507
N 12.37857912 13.84089709 5.89712804 0.00437495 -0.00082986 -0.00260533
N 12.81691311 18.72165989 8.09134477 0.00641357 0.00173123 -0.00199917
N 14.26113720 10.39293915 3.35631942 -0.00008712 -0.00313818 -0.00446813
N 12.24494408 13.11901997 1.50609418 0.00006554 -0.00109291 0.00674836
N 11.24011147 15.78603176 6.03476929 0.00067643 0.00434464 0.00598498
N 14.31319401 10.90143615 7.47586296 0.00354756 -0.00503067 -0.00133888
N 13.63939116 17.96982915 3.00977859 0.00227280 0.00205494 -0.00314463
N 11.14769866 15.31522036 10.23058350 -0.00043868 -0.00081060 0.00215629
N 12.32191445 14.05464874 14.93503829 0.00303562 0.00152939 0.00289276
N 13.13321735 18.93195012 16.62294504 0.00647536 0.00640145 0.00567350
N 14.36859474 10.14356086 12.15920464 -0.00053573 0.00292830 -0.00070630
N 12.43968521 13.46533094 10.35060873 -0.00276531 -0.00563648 0.00248290
N 11.16144031 15.98407294 15.16399485 0.00032788 -0.00721715 0.00094949
N 14.17102017 10.99451690 16.85591751 0.00228884 0.00448184 0.00963533
N 13.12477904 18.28713529 12.04615186 -0.00291349 -0.00598609 -0.00368866
N 11.03185134 15.41177827 19.31669321 0.00396107 0.00216224 0.00019298
N 12.70980691 13.99165913 23.69820434 -0.00348032 0.00149067 0.00289096
N 13.04845382 18.98511191 25.90644055 -0.00204132 -0.00250273 -0.00699382
N 14.22953770 10.42697524 21.45346934 0.00057269 0.00219778 0.00122999
N 12.36746204 13.66214435 19.78235183 0.00224229 -0.00521104 -0.00100571
N 11.60911782 16.06326725 23.96084815 0.00114185 -0.00246149 -0.00201577
N 14.55222274 10.98934905 25.73862849 0.00071950 -0.00275753 -0.00135516
N 13.20649007 18.51621490 21.14361700 -0.00388690 0.00491133 0.00156433
N 11.05246527 24.89387517 1.22396158 0.00086151 0.00574875 -0.00099009
N 12.19588542 23.19519005 5.90286087 -0.00064361 0.00235633 -0.00303134
N 12.87316409 28.33683618 7.99787895 0.00544279 -0.00395347 -0.00242057
N 14.44319932 20.02037190 3.67289828 0.00123367 -0.00259651 0.00048394
N 12.62606383 23.13430578 1.19198734 -0.00250292 0.00348111 0.00057976
N 11.30264433 25.29270628 5.97143622 0.00142559 0.00072348 -0.00175169
N 14.08658239 20.58369818 7.88723825 0.00322479 -0.00488773 -0.00112306
N 13.19643029 27.61408612 3.09662311 0.00053732 -0.00010164 0.00286001
N 10.87176428 24.94331731 9.96488807 0.00406366 -0.00786439 0.00378286
N 12.76626649 23.63646451 14.55934636 -0.00649750 0.00618126 -0.00378874
N 12.97504724 28.51704910 16.95376919 -0.00539261 0.00338834 -0.00023272
N 14.50572379 20.08589524 12.17178197 0.00566348 0.00225605 0.00297360
N 12.12705480 22.95749296 9.97566720 0.00140509 0.00016439 0.00493012
N 11.35786423 25.44985160 14.82974890 -0.00316779 0.00312420 -0.00154690
N 14.18184062 20.89869729 16.74297488 0.00560424 0.00004221 0.00204934
N 13.21193587 27.74723686 12.19630620 -0.00201674 0.00310688 0.00187997
N 11.51769532 24.78032985 18.91251213 0.00416218 -0.00197269 0.00327288
N 12.74405014 23.55441714 23.40712329 -0.00268062 0.00298523 0.00279605
N 12.84532819 28.33092887 25.69062197 -0.00217544 -0.00829831 0.00044226
N 14.67735430 20.10833817 21.60413289 -0.00413978 -0.00279050 0.00183738
N 12.65953086 22.87981616 19.56523869 -0.00400911 -0.00192753 0.00374726
N 11.69306175 25.60704678 23.83788475 -0.00236511 0.00494707 0.00386970
N 14.33950359 21.02755544 25.69226606 0.00087199 -0.00079192 0.00184030
N 13.39459049 27.66620551 21.02921713 0.00643738 0.00446892 -0.00243709
N 15.01437317 5.56202884 1.14527330 -0.00455290 -0.00375543 -0.00880618
N 16.18039865 4.02693441 5.74916215 0.00316137 -0.00465150 0.00337319
N 16.64536241 9.00680032 7.87951777 -0.00689024 -0.00593417 0.00016445
N 18.01017388 0.43710276 3.31306042 0.00125596 -0.00283109 0.00077293
N 16.05256678 3.52375835 1.31953474 0.00083620 0.00434720 -0.00292354
N 14.89124146 5.96579738 5.86640382 -0.00535684 -0.00246367 -0.00239529
N 17.78191481 0.77480534 7.71325343 -0.00238577 0.00376003 0.00199784
N 17.09320352 8.32965316 3.26521047 0.00269817 0.00599452 0.00145646
N 14.79370899 5.44949411 10.30888808 -0.00576864 0.00279652 -0.00437279
N 16.61905701 4.05701408 14.58173736 0.00017649 -0.00049856 0.00659665
N 16.66368226 8.95935390 17.20978932 0.00239180 0.00160114 -0.00592999
N 18.28958831 0.91274937 12.97537675 -0.00216585 -0.00152120 0.00303906
N 16.01150443 3.44116663 10.58784691 0.00132503 0.00321134 -0.00099027
N 15.14519029 5.66594785 15.32447219 -0.00278088 0.00267573 -0.00461051
N 18.08969886 0.97787106 16.51722052 -0.00381251 -0.00081009 -0.00094263
N 16.82937730 7.97184736 12.12438794 -0.00586145 0.00095911 -0.00831476
N 15.02097486 5.53723549 19.61800402 0.00326708 -0.00111424 0.00622845
N 16.21157484 3.86078335 23.79621253 0.00062063 -0.00327028 0.00067994
N 16.95979537 8.51872205 25.89305661 0.00499976 0.00230748 -0.00329515
N 17.97235360 0.74251012 21.40351519 -0.00621046 -0.00296097 0.00502068
N 16.22428624 3.60095363 19.60864645 -0.00666803 0.00472154 -0.00352831
N 15.21085631 5.90942739 24.12461751 -0.00107223 -0.00077780 -0.00266839
N 18.12121618 0.82311688 25.71296972 0.00063159 0.00194027 -0.00395386
N 16.91739469 8.44764139 21.33787222 -0.00100845 0.00059045 0.00538476
N 14.63213518 14.96082646 1.28315416 0.00013739 -0.00409705 -0.00368122
N 16.23823903 13.61322852 5.82623375 0.00214962 -0.00165988 0.00463333
N 16.48242652 18.85759758 7.83122829 -0.00094853 -0.00144497 -0.00292437
N 18.22530209 10.31701924 3.35312719 0.00254891 0.00244009 -0.01087398
N 15.96583785 13.15731331 1.25944549 0.00013624 -0.00056302 -0.01141317
N 14.88519816 15.56923057 5.97535624 -0.00031850 0.00409772 0.00657220
N 17.92192802 10.95619010 7.73231947 0.00119492 -0.00320827 -0.00055526
N 16.77463864 18.36565808 2.95122489 0.00056507 0.00349414 0.00557265
N 15.27935432 15.27224324 10.32092702 -0.00077358 0.00693489 -0.00518204
N 16.21851968 13.92793508 14.90090630 -0.00360784 0.00029159 -0.00233212
N 16.65413515 18.83759186 16.97533601 0.00229266 0.00140384 0.01115308
N 18.03394393 9.89800132 12.45192577 -0.00044179 -0.00484249 0.00120867
N 16.03662197 13.14675164 10.53624415 -0.00014448 0.00111672 0.00276088
N 14.85904144 15.71113337 15.26739639 0.00327296 -0.00002164 0.00133943
N 17.79507150 11.01639918 16.83810434 -0.00079052 0.00523909 -0.00144865
N 17.07027722 18.29990680 12.13953834 -0.00577277 0.00133978 -0.00259993
N 15.04277832 15.44025295 19.28033973 -0.00177309 -0.00130497 0.00601773
N 16.48679990 13.89658439 23.91188510 -0.00051947 0.00407503 -0.00454842
N 16.70048256 18.60616448 25.94827919 -0.00049952 -0.00741806 -0.00221745
N 17.93109301 10.48593546 21.72302102 0.00381590 0.00347218 -0.00746483
N 16.17250020 13.51684021 19.88008784 -0.00334563 -0.00558251 0.00666466
N 15.38953703 15.92860002 24.22426402 0.00323298 0.00041680 -0.00166490
N 17.96896030 10.61343284 25.54333335 -0.00141492 0.00498350 -0.00322584
N 17.06325745 18.22605283 21.31116726 -0.00123149 0.00055527 -0.00319772
N 14.74597870 24.89450975 1.12156900 0.00085907 0.00151636 -0.00566725
N 16.04330611 23.54088454 6.05796815 -0.00339388 0.00039497 0.00714595
N 16.96243655 27.75339769 8.44475054 0.00536544 -0.00609773 0.00261787
N 17.66422707 20.41169786 3.22251806 -0.00106393 -0.00019472 -0.00345981
N 16.08514579 23.09335708 1.79258937 -0.00237897 -0.00202620 -0.00535203
N 14.65952677 25.30317809 6.43092421 -0.00184814 0.00253162 0.00631211
N 17.80586402 20.73927674 7.78769781 -0.00165726 0.00444989 -0.00319156
N 16.79183266 27.53411114 3.15771400 0.00397835 0.00068889 0.00479376
N 15.00684711 24.84696047 10.63035986 0.00957225 0.00178097 0.00306472
N 16.41653615 23.47903216 14.81229053 -0.00629183 0.00516588 0.00487537
N 16.63762756 28.35556667 16.85592195 0.00187421 -0.00286595 -0.00335264
N 18.00497085 20.33296747 12.74309042 0.00030625 -0.01036037 0.00399134
N 16.10378814 22.84941899 10.80239723 0.01098858 0.00133448 -0.00625972
N 15.19133953 25.44943996 14.74446216 -0.00210010 -0.00290357 -0.00050527
N 17.86813674 20.77666458 16.73355467 0.00774741 0.00286246 -0.00155667
N 17.10856158 28.09182909 12.32606691 -0.00431112 -0.00069107 -0.00524162
N 15.07848922 24.65282192 19.05523877 -0.00396814 -0.00088529 -0.00264060
N 16.45875373 23.52548607 23.78729342 0.00208314 0.00134956 0.00303392
N 16.54364377 28.34121367 26.53955596 -0.00658032 0.00190249 0.00478594
N 18.02713468 20.34162546 21.54574311 -0.00084629 -0.00424385 -0.00627895
N 16.57412984 23.09335329 19.80032309 -0.00476381 -0.00425456 0.00968512
N 15.29583916 25.55312733 24.05856160 0.00432134 -0.00544242 0.00188774
N 18.10748204 20.40657594 25.82476528 0.00056200 0.00557141 0.00204865
N 16.85856021 27.84291344 21.00048806 -0.00027856 -0.00327812 0.00239862
N 18.34058459 5.35293831 1.14584620 0.00062722 -0.00450714 -0.00169107
N 19.37482006 3.89495921 5.60585203 -0.00347420 0.00096404 -0.00553560
N 20.31151321 9.07240497 7.80160121 -0.00212018 0.00421190 0.00290420
N 21.44234818 0.76442919 3.58077422 -0.00518490 -0.00362136 -0.00483788
N 19.70255490 3.51479632 1.07419647 -0.00099535 0.00191898 -0.00107407
N 18.96783425 6.10512289 5.83697335 -0.00541805 0.00340438 -0.00305987
N 21.30409948 1.05360486 7.67126557 -0.00475535 0.00063684 -0.00222232
N 20.39628474 8.23952289 2.85774980 0.00411485 0.00691850 0.00538077
N 18.79342931 5.54862371 10.17800960 -0.00036947 -0.00097651 -0.00172600
N 19.86945031 4.01621039 14.83328661 0.00068944 0.00074479 0.00149274
N 20.29498797 9.10484097 16.75147475 -0.00265816 0.00004276 0.00057338
N 0.17451292 0.74429146 12.33360057 -0.00704365 0.00171772 -0.00489793
N 19.68241794 3.46561681 10.49925834 -0.00464642 -0.00150560 0.00358716
N 18.60508485 5.97404927 15.08904312 0.00249246 -0.00373833 -0.00723058
N 21.94786477 0.87286523 16.55441093 -0.00061971 0.00331340 0.00299366
N 20.62804393 8.35987554 12.10198883 -0.00475756 0.00002084 -0.00157618
N 18.47660964 5.50208294 19.03681638 0.00089118 -0.00934124 0.00114358
N 19.67730203 3.76203105 23.57363781 -0.00389844 0.00155139 -0.00579253
N 20.63250752 8.97376652 25.71769989 -0.00091504 0.00004931 0.00473062
N 21.65054250 0.75028693 21.20125885 -0.00206985 0.00394686 0.00154997
N 19.62486386 3.58648390 19.27524741 -0.00305069 -0.00334991 -0.00128839
N 18.95693037 5.96377968 23.93856121 -0.00328990 -0.00316334 -0.00502792
N 21.62542238 1.01100728 25.32049811 -0.00768809 0.00908177 -0.00285985
N 20.46395676 8.59536310 21.05672502 -0.01007324 0.00130881 -0.00233482
N 18.46721262 14.96608416 1.03379852 -0.00044469 -0.00017245 -0.00687779
N 19.18918534 13.96095227 5.73847638 -0.00081915 -0.00274067 -0.00651481
N 20.22920918 18.40896132 8.32109068 -0.00328971 -0.00044366 0.00047169
N 21.43592556 10.23229088 3.18351659 -0.00439224 -0.00416750 -0.00808137
N 19.81426033 13.13207719 1.38889740 -0.00168871 -0.00514088 -0.00263359
N 18.28484009 15.97263068 5.96672315 -0.00664595 0.00524250 0.00270472
N 21.48510983 11.06001007 7.57558978 -0.00058727 -0.00239225 0.00697797
N 20.46730689 18.22359429 3.21308354 -0.00084785 -0.00201062 -0.00442447
N 18.43423276 15.01074378 10.43354363 0.00155118 0.00263881 0.00260286
N 19.67079153 14.04712707 14.84621559 -0.00109907 -0.00567735 -0.00256113
N 20.22737272 19.01086804 16.87716835 -0.00241421 -0.01382642 0.00030477
N 21.78787435 10.35844242 12.47964988 -0.00144896 0.00083375 -0.00364733
N 19.75545185 13.13263103 10.64821948 0.00315874 -0.00281000 0.00184599
N 18.65906223 16.14760006 15.16411040 0.00153141 0.00054569 0.00322056
N 21.40324147 11.06961900 16.70751388 0.00044354 0.00279819 -0.00037712
N 20.78435910 18.07255201 11.95405460 0.00329889 -0.00257559 0.00072910
N 18.57345205 15.26752014 19.39899038 -0.00937300 -0.00245013 -0.00542583
N 19.88407631 13.71658644 23.88619856 -0.00144201 -0.00779214 0.00692922
N 20.50715883 18.83841065 26.09525416 -0.00212141 0.00449259 -0.00363516
N 21.72954177 10.48855105 21.19914206 -0.00167243 0.00016348 0.00462918
N 19.73161188 13.36823517 19.63084799 0.00571835 0.00029497 0.00152379
N 19.00696271 15.74334848 24.37508697 0.00196321 -0.00487286 -0.01080246
N 21.75314538 11.02392358 25.90123256 0.00029785 0.00217336 0.00058286
N 20.51705448 18.31974948 21.21121368 -0.00348751 0.00453842 0.00725235
N 18.77708799 24.95621201 1.24567611 0.00049796 0.00014943 -0.00172880
N 19.99872629 23.50269955 5.64854301 0.00013695 -0.00253764 0.00151593
N 20.38298000 27.98558125 8.27367002 0.00148028 0.00173599 0.00565078
N 21.79081219 20.01963901 3.56538062 -0.00548731 0.00410767 -0.00259683
N 19.95910354 23.04365979 1.66041205 -0.00062169 0.00169819 -0.00278929
N 18.58638352 25.26511961 6.00264497 -0.00743995 0.00774672 0.00619307