1728
Time=45000.00000003 pbc="T T T" Lattice="22.23658765 0.00000000 0.00000000 0.00000000 28.59612874 0.00000000 0.00000000 0.00000000 27.40818353" energy=-10388.99336469 virial="8.00913601 12.70474690 -2.29630378 12.70474690 9.21119966 3.57006296 -2.29630378 3.57006296 -6.03701214" stress="0.00280629 0.00079341 -0.00017732 0.00079341 0.00317183 0.00022235 -0.00017732 0.00022235 0.00241145" Properties=species:S:1:pos:R:3:vel:R:3
N 22.09416836 5.52208759 0.58038075 0.01026666 -0.00347971 0.00108857
N 1.43881154 3.96562347 5.36236352 0.00820261 0.00516111 -0.00264412
N 2.10903549 9.36427369 7.45157207 -0.00241151 0.00162582 0.00547190
N 3.51604290 0.75746295 3.58143874 -0.00051061 0.00191678 0.00357019
N 1.28526748 3.85695830 1.37066276 0.00320130 0.00711961 -0.00183287
N 0.38897960 6.13309251 5.55927746 0.00126633 0.00418493 -0.00309095
N 3.14504232 1.33722620 7.71284283 -0.00069246 0.00196477 -0.00926512
N 2.29362176 8.22538543 2.64710877 -0.00519943 -0.00541934 -0.00120768
N 0.03311704 5.15766708 10.11910829 -0.00290336 0.00259901 0.00278423
N 0.98870627 3.97394267 14.76935156 -0.00060632 -0.00057219 0.00120801
N 2.35724224 8.56873567 17.13117256 0.00140132 0.00726961 0.00049589
N 3.53862353 0.37779918 12.22600571 -0.00092976 -0.00351576 0.00035051
N 1.35211713 3.40650697 10.57837653 0.00113622 -0.00318616 -0.00201188
N 0.36574245 6.16541462 15.06330041 0.00070170 0.00504915 -0.00496267
N 2.90512442 1.44392195 16.73474743 -0.00742524 0.00120929 -0.00380870
N 2.16639242 7.78735168 12.04580118 0.00406259 0.00716777 0.00625663
N 0.24541474 5.63289402 19.31543093 0.00319341 0.00292604 -0.00747399
N 1.85046807 3.97080095 23.67251389 -0.00104365 -0.00334341 -0.00997378
N 2.51729181 8.45964693 26.26557551 0.00325412 -0.00603639 0.00111681
N 3.54102319 0.39072282 21.70653103 0.00598136 0.00058021 0.00743486
N 1.61676805 3.79539306 19.61666500 0.00074898 -0.00375981 -0.00154545
N 0.67472094 5.86955021 24.24971139 0.00010981 -0.00077718 -0.00149990
N 3.69129648 1.31868799 26.02509411 0.00507705 -0.00018789 0.00183662
N 2.27817616 8.30257500 21.21379143 0.00761752 -0.00260266 -0.00395851
N 0.22096828 14.87645655 0.88787277 0.00578088 -0.00833950 0.00447760
N 1.88229188 14.06889372 5.49689469 0.00490454 -0.00872720 0.00008744
N 1.92914034 18.69940877 8.15379749 -0.00322342 0.00030069 0.00332079
N 3.54531313 10.06409830 3.23359301 0.00007266 0.00331138 -0.00368792
N 1.44470051 12.90805415 1.21550416 -0.00070311 -0.00068982 0.00651086
N 0.17029259 15.54120974 6.06587525 -0.00201561 -0.00316042 -0.00588343
N 3.40098057 11.39533109 7.53549601 -0.00145825 0.00610752 0.00399505
N 2.22713757 18.05434007 3.20273970 0.00586823 -0.00466070 0.00368220
N 21.98789511 14.87466103 10.03980675 0.00750836 0.00169003 -0.00725805
N 1.49114230 13.59361442 14.86343257 -0.00356726 -0.00044366 -0.00037852
N 2.08884207 18.39765259 16.94779309 0.00038926 0.00010356 -0.00235827
N 3.35773186 9.73524693 12.25501025 -0.00391308 -0.00291949 0.00813842
N 1.20261539 13.12005450 10.22730084 0.00567515 -0.00542080 -0.00158268
N 0.20608435 15.53476095 15.12184987 0.00376050 0.00774211 -0.00227881
N 3.12721032 10.74951359 16.65674914 0.00070511 -0.00321900 0.00510603
N 2.34469636 18.39358218 12.36813575 -0.00269896 -0.00418084 0.00237495
N 0.29057148 15.11668903 19.49205835 -0.00277476 -0.00265029 -0.00173723
N 1.68690525 13.76382385 23.92634044 -0.00052498 -0.00184731 0.00038238
N 2.29770309 18.04060143 26.60083624 0.00019456 -0.00714212 0.00035220
N 3.21549257 10.35542640 21.44670174 0.00145136 0.00200506 0.00673512
N 1.51473249 13.12340931 19.60370277 -0.00539405 -0.00774338 -0.00441196
N 0.69555305 15.87294650 24.38383598 0.00491096 0.00057778 -0.00170681
N 3.19478456 10.60796417 25.83057283 -0.00515375 0.00374721 -0.00166408
N 2.07365675 17.55340027 21.68914319 0.00309783 -0.00377484 0.00045986
N 0.39334114 24.86056641 0.89526671 -0.00538098 -0.00505441 0.00011523
N 2.03935553 23.50601766 5.77484519 -0.00354603 0.00797238 -0.00412573
N 2.35754038 27.78436143 8.03408109 0.00508171 -0.00646883 0.00905082
N 3.47786660 19.92732106 3.68571856 0.00324862 0.00709518 0.00572275
N 1.41812160 22.75675069 1.38896982 0.00097609 0.00342612 -0.00120768
N 0.74951660 25.38742207 5.85270850 -0.00282039 0.00549251 0.00077208
N 3.55887550 20.29048138 7.92004938 0.00275733 0.00089161 0.00015252
N 2.40942475 27.34821849 2.94162603 0.00043569 -0.00429505 0.00162224
N 0.12073646 24.32234628 9.96259035 0.00433831 -0.00129465 -0.00388106
N 1.52878014 23.35723737 14.96255260 -0.00175991 0.00398491 0.00152647
N 1.83490269 27.98844922 17.29145390 0.00516193 0.00130277 0.00294441
N 3.84452266 20.15340212 12.75875937 -0.00179785 0.00577611 -0.00157866
N 1.45853839 22.61281586 10.60820242 0.00248383 0.00265339 0.00129911
N 0.54807681 25.39223306 15.08980190 -0.00136870 0.00312050 0.00006610
N 3.36814674 20.20666751 16.79998528 -0.00576720 -0.00640002 0.00218778
N 1.97370551 27.34045338 12.38460123 0.00217430 0.00310442 -0.00088462
N 0.02920007 24.39923386 19.53828812 -0.00206897 0.00107400 0.00029235
N 1.63173082 23.34921823 24.16294816 0.00462834 0.00246229 -0.00445409
N 2.21346784 28.20245490 26.41357221 -0.00128108 0.00440709 -0.00047594
N 3.24431242 19.65724706 22.03760451 0.00107902 0.00451281 -0.00121527
N 1.48548235 22.56198281 19.81012737 -0.00253646 0.00510526 0.00172945
N 0.55783225 25.30874403 24.55787970 -0.00074424 0.00306948 0.00266123
N 3.19716495 20.17114687 26.17692224 0.00526780 0.00638165 -0.00580281
N 2.09261047 27.17360978 21.48434610 0.00343599 0.00173748 -0.00562190
N 3.93499226 5.08131502 1.11360140 -0.00219603 -0.00106911 -0.00225303
N 5.20075222 3.92678571 5.61139179 0.00038086 0.00018135 -0.00516825
N 5.82414057 8.83435965 8.00397395 -0.00181208 -0.00251545 -0.00332958
N 7.22878630 0.92514336 3.40085351 0.00040484 0.00293914 0.00778383
N 5.36151648 3.36023236 1.56620062 -0.00058296 0.00243429 0.00476975
N 3.98511356 5.86171946 6.20722701 -0.00081312 -0.00020227 -0.00154889
N 7.15009971 1.30909849 7.62218779 -0.00206444 0.00781305 -0.00086062
N 5.87590637 8.07269221 3.16964706 -0.00252682 -0.00181723 0.00140914
N 3.99870030 5.28993154 10.30350275 -0.00374084 0.00499001 0.00281211
N 5.07515239 4.18274739 14.85685161 0.00028082 0.00094903 0.00222952
N 5.66343124 8.97797998 17.16878290 -0.00115579 0.00014017 0.00351420
N 7.23560520 0.64067321 12.75378897 -0.00761228 -0.00039137 -0.00759251
N 5.28816628 3.35000108 10.10004632 -0.00070194 0.00037972 -0.00022609
N 4.04587827 6.19877677 15.06646157 0.00167750 0.00149348 0.00048946
N 7.06385371 0.98369444 16.83533281 0.00113506 0.00083772 0.00141448
N 5.82769536 8.05029457 12.32503068 -0.00898237 -0.00726389 0.00060620
N 4.20205010 5.62405104 19.37754463 -0.00270439 0.00226489 0.00391546
N 5.48352620 4.12530290 23.77122485 0.00067751 0.00372646 0.00272114
N 5.69042664 8.91003918 26.02198679 0.00421315 0.00409388 0.00213167
N 7.26029675 0.59993491 21.69271462 -0.00509134 -0.00159788 0.00475681
N 5.24101074 3.61563802 19.76848837 0.00218103 0.00295777 0.00162085
N 4.23326355 6.06336727 24.12485024 -0.00226078 0.00432549 -0.00414288
N 7.56638456 1.55686140 26.06524741 0.00222426 -0.00107555 0.00201557
N 6.12944941 8.42323526 21.36080206 0.00617906 -0.00558779 -0.00106569
N 4.11914795 14.94362958 1.27345927 0.00175534 0.00742856 -0.00010933
N 5.65462936 13.59737955 5.64634102 0.00309700 -0.00579342 -0.00077063
N 5.80993648 18.18509877 8.51984922 -0.00521768 0.00175717 -0.00307432
N 6.99419644 10.13224005 3.20386553 0.00200097 -0.00072839 -0.00328945
N 5.08980016 12.85724972 1.50570005 0.00215020 -0.00134767 0.00205035
N 4.58557259 15.58072818 6.31030602 -0.00393991 -0.00238274 0.00190420
N 7.19455594 10.61839241 7.74043251 0.00491564 0.00352858 0.00519934
N 6.11095212 17.90425641 3.53115597 -0.00498271 0.00449623 0.00351081
N 3.59170626 14.90221010 10.47154886 -0.00303956 0.00042732 -0.00173725
N 5.15168046 13.60341901 14.81842178 -0.00563834 -0.00281837 -0.00846208
N 5.75380425 18.49318818 17.68334063 -0.00447769 -0.00330604 -0.00988459
N 6.90691717 10.02505948 12.48578117 0.00348358 -0.00041995 0.00289817
N 4.48028960 12.83468241 10.87059425 0.00000174 -0.00396712 0.00237765
N 3.78850227 15.58098640 15.30396356 -0.00661070 0.00146120 -0.00358390
N 7.13605415 10.71268570 16.95197608 0.00611602 0.00030434 0.00409804
N 6.12390305 18.12834223 12.46400739 -0.00871098 -0.00360483 0.00540999
N 4.02402130 15.07071027 19.53350407 0.00004586 -0.00377023 -0.00298549
N 5.38272243 13.37793500 24.07426733 0.00303035 -0.00006127 -0.00491742
N 5.84551218 18.15422436 26.71355651 -0.00162958 0.00274304 0.00128785
N 7.24153530 10.37402066 21.55303503 -0.00070121 0.00938102 0.00453926
N 5.09358649 13.09151255 19.63398340 -0.00657050 -0.00350952 0.00367045
N 4.14912016 15.26907013 24.50708160 -0.00178358 -0.00568488 0.00309462
N 6.88502309 10.84418712 25.88063015 -0.00294440 -0.00604098 -0.00579525
N 5.93670468 18.05006044 21.52386187 0.00446085 -0.00335629 0.00554556
N 3.89798499 24.22755016 1.27087290 -0.00119275 -0.00340980 -0.00317753
N 5.39562537 23.09325647 5.58254956 0.00060703 -0.00003262 -0.00248701
N 5.67216514 28.11285432 7.93563402 0.00480120 -0.00241112 0.00476821
N 7.34953998 19.81506084 3.60842201 -0.00077858 -0.00274230 0.00306267
N 5.41678229 22.52552642 1.56200278 0.00069090 0.00457660 0.00133499
N 4.39849878 25.11119387 5.80238400 -0.00171499 0.00040251 0.00425345
N 6.96237176 20.16905303 8.10211484 0.00483616 -0.00184347 -0.00450571
N 6.05090847 27.62383081 3.16045783 0.00575797 -0.00007422 -0.00101038
N 3.59527637 24.57893367 10.28846458 0.00220718 -0.00016746 0.01034068
N 5.23932920 23.52494924 14.97436492 -0.00321515 0.00156910 0.01017277
N 5.38130135 28.19570231 17.55756560 0.00056093 -0.00336071 -0.00192396
N 7.27906883 19.99297408 12.94666342 0.00087824 -0.00329035 -0.00074819
N 5.00063385 22.85791015 10.56676530 -0.00709047 -0.00097108 0.00091215
N 3.94908978 25.38159265 15.40313378 -0.00115135 -0.00703940 0.00403815
N 6.88826222 20.31290524 17.07685442 0.00090711 0.00003832 -0.00304748
N 6.01266042 27.34232386 12.44288445 -0.00143890 -0.00185236 -0.00146234
N 4.06620793 24.49454378 19.48881814 -0.00527004 0.00013633 -0.00903038
N 5.24811215 23.07738686 24.13524931 -0.00217327 -0.00800947 -0.00368339
N 6.06368661 28.40737711 26.44664510 0.00498371 -0.00044577 -0.00131465
N 7.20460544 19.89735683 22.38622151 -0.00130852 -0.00439096 0.00565841
N 5.45136367 22.67557678 19.66444417 -0.00403288 0.00199183 0.00641822
N 4.16133152 25.21112393 24.38667387 -0.00355834 0.00457066 -0.00035761
N 6.92774759 20.12335844 26.06261006 0.00058019 -0.00272250 -0.00654107
N 6.01884307 27.28873586 21.65323171 0.00140348 -0.00332534 -0.00295448
N 8.04921258 5.29975305 1.22833218 -0.00584403 0.00676671 0.00018490
N 9.13126336 4.07581958 5.65581901 0.00223258 -0.00442611 0.00174913
N 9.77125295 8.80513132 8.15441980 -0.00460051 -0.00177417 -0.00226481
N 11.27681470 0.66792448 3.73269188 -0.00607820 0.00293237 0.00086792
N 9.34214981 3.38881509 1.45938533 -0.00475865 -0.00571480 -0.00143958
N 7.67179611 5.89103594 6.05800697 0.00257555 0.00121198 -0.00371851
N 10.84745570 1.39206185 7.63577421 0.00028684 0.00347651 -0.00138748
N 9.72768041 8.38737069 2.82645474 0.00640204 0.00128128 -0.00631762
N 8.06358418 5.29668725 10.28714384 0.00834390 0.00238538 0.00207774
N 9.00594064 4.21507449 15.02713016 0.00131888 0.00037848 0.00181319
N 9.20079544 8.82922838 17.39451078 0.00557167 -0.00253944 0.00097187
N 10.93291414 0.59332083 12.48632229 0.00035649 -0.00466023 -0.00103358
N 9.06487761 3.24172733 10.43806092 0.00366710 -0.00202239 0.00059779
N 7.53420769 5.98813997 15.30015751 0.00099916 0.00591191 -0.00040540
N 10.57331092 1.22264182 16.70916167 -0.00553181 0.00241933 -0.00166190
N 9.44748919 8.41937350 12.22576205 -0.00112938 -0.00155708 -0.00745541
N 7.71227052 5.31039399 19.45071885 0.00243677 0.00635625 0.00416943
N 9.35199111 4.19387518 24.13008705 0.00445868 0.00090022 0.00270433
N 9.55438545 9.03366562 26.23842518 0.00486719 -0.00430964 -0.01507217
N 11.11824898 0.81833918 21.42859097 0.00392356 -0.00496223 -0.00539562
N 8.99387272 3.47910748 19.87649498 0.00148613 -0.00178069 0.00277579
N 8.05303165 6.08571966 24.29855190 0.00212080 -0.00559284 0.00069128
N 11.20072537 1.13159690 25.79021526 0.00597170 0.00282868 -0.00026512
N 9.82578632 8.40911179 21.46577550 -0.00299369 -0.00122400 0.00369920
N 7.39646021 15.01002446 1.03777164 -0.00169641 0.00172580 -0.00256585
N 8.86786687 13.62432925 5.86168917 -0.00068018 0.00415941 -0.00168861
N 9.79527526 18.14902999 8.12599080 -0.00463499 -0.00207406 0.00176695
N 10.86117521 10.27405784 3.51053995 -0.00134802 -0.00184362 0.00212745
N 8.89132232 13.24737648 1.76647836 0.00476062 0.00186184 0.00384828
N 8.07182459 15.70228866 6.32015645 0.00924941 0.00094594 0.00078114
N 10.77027050 10.84419343 7.80454434 0.00405260 0.00234680 -0.00228882
N 9.77667955 17.72098879 3.20313074 -0.00135731 -0.00358504 0.00237324
N 7.46565119 14.92419899 10.49123492 0.00087897 -0.00284027 -0.00179068
N 8.91416211 13.71114784 14.91684252 0.00400895 0.00174820 -0.00273100
N 9.57914878 18.41525567 17.03092599 0.00447428 0.00131041 -0.00684210
N 10.64848824 10.35183543 12.75465627 -0.00076029 -0.00080904 -0.00392847
N 8.71456010 12.93401579 10.63693137 0.00184699 0.00549191 -0.00305561
N 7.71264352 15.63572583 15.06437282 -0.00231634 -0.00296578 0.00369804
N 10.36892611 10.68485397 16.83574946 0.00025467 0.00016974 -0.00623698
N 9.69857456 17.95111117 12.02384069 -0.00254689 -0.00113121 0.00022145
N 7.50257111 15.19991792 19.24430013 -0.00053805 0.00368088 0.00736725
N 8.79446232 13.47174231 24.06973999 0.00563152 -0.00334402 0.00340622
N 9.34045396 18.20895948 26.43321742 0.00306395 -0.00261210 -0.00516436
N 11.43921022 10.15423037 21.70257717 -0.00090101 -0.00338930 0.00382050
N 8.83820001 13.40283130 19.83981657 -0.00754168 -0.00368180 -0.00159466
N 7.80295189 15.48810547 24.43357110 0.00604697 -0.00573130 -0.00983958
N 10.85106239 10.92526340 25.92524560 -0.00232421 -0.00346644 -0.00410543
N 9.40231036 17.71119878 21.50453549 -0.00257812 -0.00287807 0.00362564
N 7.60722831 24.41402874 1.20691250 -0.00378551 0.00108330 0.00122682
N 8.92520691 23.23132399 5.79978296 0.00120453 0.00208934 0.00261729
N 9.52219727 28.00802466 7.85919842 0.00425034 -0.00387034 -0.00207079
N 11.07971958 19.63384684 3.38114396 0.00600295 -0.00198438 0.00318262
N 9.11299120 22.72316426 1.68781560 -0.00451068 -0.00423119 0.00313178
N 7.79947445 25.16695357 6.20235585 -0.00098124 0.01056098 -0.00342045
N 10.57203513 20.36074672 7.78035507 0.00548125 0.00058831 -0.00210140
N 9.83342313 27.49577230 3.23619535 0.00226948 -0.00045431 0.00593213
N 7.77572243 24.36565954 10.25844832 -0.00033401 -0.00091498 0.00323683
N 8.80168198 23.57719096 15.06028926 -0.00093473 0.00134323 -0.00661003
N 9.41821566 27.88517374 17.20280624 0.00463604 -0.00151143 -0.00541693
N 11.12771892 19.66363577 12.66066803 -0.00228009 -0.00320382 0.00328971
N 9.09741234 22.51819748 10.69723572 -0.00678840 0.00121849 0.00335622
N 7.66354109 25.55966162 15.38776246 0.00174945 0.00829360 -0.00233659
N 10.69030263 20.46000218 16.73385108 -0.00145266 -0.00499679 -0.00077873
N 9.52365076 27.36904566 12.32504002 -0.00188394 -0.00259424 -0.00320332
N 8.00615979 24.58473458 19.78713835 -0.00618120 0.00115621 0.00360414
N 9.24148385 23.12589782 24.28711916 -0.00109367 -0.00284436 0.00155948
N 9.89278182 27.97471975 26.49351997 0.00417761 0.00301354 0.00376107
N 10.83498310 19.51833923 21.98675739 0.00104784 0.00160485 -0.00034937
N 8.67748514 22.33348251 19.90284421 0.00156850 -0.00258765 -0.00046626
N 7.98059248 25.02943527 24.61854359 -0.00136970 -0.00245920 -0.00154457
N 10.61349492 20.27518120 26.50404854 -0.00169746 -0.00301125 -0.00164086
N 9.70365180 27.50701646 21.43159783 0.00171563 0.00766835 -0.00251186
N 11.47630503 5.09165207 1.28462163 -0.00271876 -0.00223819 0.00077016
N 12.84903658 4.22576492 5.83356405 -0.00511466 0.00282420 -0.00005774
N 13.36599415 8.53704942 7.94955819 -0.00442006 -0.00171631 -0.00434005
N 14.69133514 0.55470211 3.21253641 -0.00431706 -0.00630166 0.00015557
N 12.89759910 3.23989177 1.60586870 -0.00097879 -0.00672873 -0.00211860
N 11.42818798 5.97320503 6.21503232 -0.00030873 -0.00449881 0.00145966
N 14.26517928 1.35692559 7.29931604 0.00177998 -0.00143403 -0.00193488
N 13.29004656 8.43499218 3.24868468 0.00114492 0.00075982 0.00052860
N 11.46843442 5.22179358 10.56699141 0.00224624 -0.00433293 -0.00411448
N 12.56605737 4.34847406 15.11415856 -0.01211844 -0.00307999 0.00000419
N 13.28539942 8.66918246 17.21685300 -0.00332087 -0.00638804 0.00188310
N 14.22942847 0.62725397 12.84673811 0.00610880 -0.00532980 -0.00199642
N 12.75268310 3.31199843 10.71460710 -0.00272313 0.00026620 0.01005144
N 11.08011522 6.13229228 15.29375203 0.00527247 -0.00297714 -0.00949258
N 14.66092979 0.98173213 16.85194005 0.00593892 0.00273968 0.00218040
N 13.09350332 8.11290692 12.26311857 -0.00242580 0.00140237 0.00117789
N 11.42520168 5.41547262 19.46124628 -0.00666082 0.00362474 -0.00201254
N 13.04552661 4.08080956 23.99797328 0.00166524 -0.00288780 0.00956813
N 13.28041844 8.92381366 25.95120438 0.00559433 -0.00292974 -0.00562768
N 14.66643724 0.66420112 21.96482268 0.00281160 0.00471603 0.00437334
N 12.95822153 3.73041850 19.77092712 0.00717529 0.00077607 -0.00046756
N 11.70460705 5.88513927 24.40834206 -0.00373955 -0.00848010 -0.00337274
N 14.50720918 1.32894961 25.76154148 -0.00116057 -0.00025166 -0.00179166
N 13.66763104 8.04614219 21.42871494 0.00407845 -0.00333112 0.00049194
N 11.30268627 14.97354062 1.08107225 0.00165735 0.01222172 0.00083904
N 12.67712665 13.34709757 5.64639311 -0.00223263 0.00294951 -0.00112311
N 13.32800492 18.23289796 7.68512941 -0.00085151 0.00433450 0.00509732
N 14.30346963 10.48250043 3.02512212 -0.00252036 0.00261608 0.00278242
N 12.46470305 13.07348027 1.58230116 0.00240950 0.00063730 -0.00454818
N 11.74827054 15.35634229 5.83796184 -0.00210720 -0.00332836 -0.00539444
N 14.58899239 10.46383880 7.53948029 0.00797549 0.00475138 0.00083826
N 13.51175829 18.00972255 3.02021317 0.00517662 -0.01152152 0.00122517
N 11.38076232 14.66093154 10.49954180 -0.00542206 0.00339950 -0.00239513
N 12.73145293 13.33524209 15.17315651 0.00046554 0.00587607 -0.00967162
N 13.12887684 18.43469168 16.81447227 -0.00527870 0.00583086 0.00108172
N 14.62179703 9.86001659 12.40241399 -0.00043481 -0.00207902 -0.00192759
N 12.65426514 12.79342043 10.74530559 -0.00001027 0.00387462 0.00142483
N 11.43145561 15.22117817 15.42350919 0.00150097 0.00049607 -0.00096993
N 14.38107196 10.69194137 16.96338271 -0.00002242 0.00665097 -0.00732791
N 13.43659940 17.64308610 12.17896518 -0.00375527 0.00110674 -0.00350143
N 11.17617470 15.10993787 19.41017468 -0.00490553 -0.00223616 -0.00060974
N 12.69784730 13.59664596 23.64168531 0.00598432 -0.00273161 -0.01358825
N 13.18006960 18.08576561 26.41091342 -0.00181995 0.00565457 -0.00713294
N 14.64271887 10.11938302 21.61729254 0.00637069 0.00005449 0.00475820
N 12.43999969 13.25026556 19.87519517 -0.00251626 -0.00158951 0.00084384
N 11.35328309 15.45271519 24.18266990 -0.00214120 0.00083789 0.00430267
N 14.47148667 10.91519144 25.74304348 -0.00364881 0.00495595 -0.00010148
N 13.11836594 17.88596853 21.11106334 -0.00219443 -0.00278528 -0.00663566
N 11.44397768 24.47213038 0.94121014 0.01051707 -0.00492038 0.00152183
N 12.78517106 23.09260573 5.83205798 0.00149826 -0.00091931 0.00176651
N 13.09981377 27.99789030 7.60127339 0.00130796 -0.00276186 0.00017987
N 14.40023651 20.03573130 3.66172628 -0.00161573 0.00586597 -0.00073317
N 12.75464409 22.57756741 1.41392033 -0.00656622 0.00409791 -0.00976024
N 11.62581728 25.06504841 5.81224006 -0.00193379 0.00160210 0.00000388
N 14.47040365 20.33928779 7.68383019 -0.00047269 -0.00140657 -0.00425385
N 13.45197823 27.24313365 2.92280444 0.00077893 0.00784043 0.00066961
N 11.31182206 24.73589790 10.24106701 -0.00163217 0.00368235 0.00310939
N 12.54141879 23.11541295 14.71692615 -0.00246324 -0.00301572 0.00063789
N 13.47162665 27.70368579 17.42406038 -0.01041978 0.00268342 -0.00253443
N 14.20970305 19.70830487 12.54600924 0.00117175 0.00293911 -0.00152371
N 12.60218518 22.77010407 10.51714362 -0.00145529 0.00281361 -0.00227448
N 11.31844815 24.99763759 15.11676316 -0.00347902 0.00391311 0.00580017
N 14.20760103 20.41441003 16.59361294 0.00248472 0.00753733 -0.00281337
N 13.20828161 27.29926278 12.37146662 0.00196788 0.00067968 0.00574302
N 11.32597469 24.50595235 19.69557328 -0.00175549 0.00343702 0.00144323
N 12.41415345 22.77523588 23.76538760 0.00270811 0.00685050 0.00084025
N 13.54822631 27.89393778 26.03010627 0.00465577 0.00069395 0.00270398
N 14.41710458 19.63394877 21.53900391 0.00191278 0.00129632 0.00120209
N 12.76429650 22.71442575 19.85028626 0.00464485 0.00010787 0.00241672
N 11.54172909 24.87355724 24.20786595 0.00381193 -0.00118835 0.00083759
N 13.99991048 20.10054604 25.53156412 0.00314126 -0.00080374 -0.00255225
N 13.42319018 27.44199025 21.27174657 -0.00700392 0.00033377 0.00336029
N 14.93413687 5.49410762 0.92135770 -0.00143105 0.00475211 -0.01014932
N 16.33772348 4.18804165 5.70840204 -0.00111532 0.00298248 -0.00341226
N 17.01782226 8.78914721 8.22964913 -0.00262056 -0.00125348 -0.00221321
N 18.35058712 0.91094298 3.15408437 0.00506892 0.00008659 0.00332160
N 16.25327182 3.73330982 1.57507884 -0.00452405 -0.00267737 -0.00470641
N 15.21395790 6.11226970 6.07058457 0.00180656 -0.00417150 0.00135884
N 18.01876936 1.15472716 7.41132477 0.00204054 -0.00708718 0.00002879
N 17.14873753 8.27203981 3.29705467 -0.00136327 0.00533207 -0.00345530
N 15.20446643 5.20350648 10.55057903 0.00220555 0.00373364 0.00088275
N 15.77406982 4.29596242 14.89609751 -0.00376888 -0.00203002 -0.00691742
N 16.73308093 8.87490402 17.34322395 0.00551077 -0.00229987 -0.00176909
N 18.02387146 0.79807386 12.62751855 0.00117383 -0.00191370 0.00304121
N 16.34339999 3.23795125 10.78685963 -0.00101508 -0.00392108 0.00253363
N 14.70037615 6.27151432 15.52146859 0.00458693 -0.00186835 0.00462713
N 18.15427063 1.43168989 16.57202477 -0.00120393 -0.00367761 0.00227856
N 16.99953277 8.10224091 12.61574202 -0.00055811 -0.00017313 0.00139403
N 15.22964465 5.31913965 19.42455933 -0.00304097 -0.00061872 0.00210262
N 16.45168923 3.83095671 23.79470133 0.00456518 -0.00137849 -0.00120396
N 16.90024851 8.79656108 26.84796767 -0.00005982 -0.00006128 -0.00137543
N 18.52455891 0.42268647 21.65915059 0.00770861 0.00216533 0.00148247
N 16.69988301 3.67893749 20.08316206 0.00047654 0.00221232 -0.00331210
N 15.40090108 5.81603310 24.41596510 -0.00156075 0.00013058 -0.00387915
N 18.22757717 1.02251087 25.82578973 0.00224665 -0.00384120 -0.00348572
N 17.25420578 8.27869454 21.85805047 -0.00174432 0.00523285 -0.00107571
N 14.99403713 15.00181504 1.36773319 -0.00315110 0.00483316 0.00556305
N 16.49473553 13.52854062 5.88219295 0.00665426 -0.00349731 -0.00399645
N 16.77388150 18.57860034 8.01833130 0.00023352 0.00079088 -0.00315112
N 18.58402783 10.03189763 3.61665229 0.00327940 -0.00094747 0.00027222
N 16.37669003 13.13518265 1.51898130 0.00215001 -0.00166092 0.00213578
N 15.35152119 15.46815985 6.19250277 -0.00801424 -0.00207741 -0.00692346
N 18.30528053 10.57525999 7.65021902 0.00186139 0.00240533 -0.00206493
N 17.21789110 17.50599996 3.24260336 -0.00147978 0.00152064 0.00074885
N 15.26612315 14.79654166 10.31068621 0.00338064 -0.00178611 0.00770706
N 16.35626846 13.27668153 14.90225644 0.00500213 -0.00237829 0.00470000
N 17.08201879 18.33810175 17.10607360 0.00383657 -0.00037733 -0.00029607
N 18.29768116 10.05276523 12.72650752 -0.00735451 -0.00001734 -0.00040746
N 16.39018214 12.87200036 10.34926343 0.00441180 -0.00204459 0.00056647
N 15.12184059 15.19805136 15.32830625 -0.00009394 0.00844761 0.00115413
N 18.15232707 10.63959695 17.15352491 0.00389202 0.00334038 -0.00395662
N 16.99993811 17.82242259 12.26596968 0.00103369 -0.00601094 -0.00263014
N 15.01364204 14.84208664 19.52858791 -0.00417919 0.00097559 -0.00504772
N 16.64584922 13.60157505 24.23913476 -0.00003244 0.00260263 0.00136896
N 17.23425755 18.18756108 26.61580727 -0.00642001 -0.00610354 0.00935118
N 18.16295230 10.43731165 22.23409521 -0.00298976 0.00253741 -0.00257288
N 16.41051848 13.04436140 19.82565931 0.00100844 0.00443904 0.00656045
N 15.39419558 15.58197218 24.38194818 0.00062030 -0.00424745 0.00141958
N 17.57809113 10.83579753 25.96040229 0.00486931 0.00081364 0.00315926
N 16.84863784 17.54367976 21.37229782 -0.00417412 -0.00166630 -0.00009155
N 15.22825340 24.75186997 0.80397175 -0.00641303 -0.00846451 0.00897766
N 16.24257963 22.67984777 5.40134797 0.00317712 -0.00422463 -0.00139398
N 16.64199471 28.03506981 7.71371232 0.00000290 -0.00179473 0.00403941
N 18.32825309 19.49216073 3.61755825 0.00123942 0.00494207 0.00128578
N 16.07762775 22.72733660 1.36100643 -0.00027273 -0.00081325 0.00047674
N 15.40647419 24.86773494 5.76134806 -0.00338800 0.00618877 0.00341312
N 18.26398060 20.24578230 7.48664150 -0.00454423 0.00024318 -0.00372966
N 17.15739452 27.46913769 2.93540025 0.00230290 -0.00380704 -0.00351505
N 14.97167832 24.95377270 10.17030336 0.00531531 -0.00327980 0.00106459
N 16.19411730 23.32569235 14.69213006 0.00268395 0.00520238 -0.00535325
N 17.09262221 27.95003120 17.00937185 0.00261191 0.00358153 0.01014252
N 18.07715028 19.91664742 12.39205308 -0.00643898 0.00141871 0.00450321
N 16.07976666 22.95572814 10.51010819 -0.00589531 0.00221556 0.00067386
N 14.77308828 25.16389820 14.97447642 -0.00173859 -0.00182490 0.00210144
N 17.92736669 20.47910134 16.78642067 0.00207519 0.00035241 -0.00145372
N 17.13838152 27.39855038 12.03142572 0.00398236 -0.00470439 0.00033323
N 15.06262648 24.67680571 19.34528114 -0.00493051 0.00053787 -0.00368498
N 16.42633587 22.72630839 23.71946481 -0.00320149 -0.00148222 0.00238996
N 17.08359171 27.62496972 26.09445031 0.00361769 -0.00289598 0.00157801
N 18.31205854 19.42104979 21.15193260 0.00506298 -0.00106638 -0.00262686
N 16.10952906 22.64593832 19.58460054 -0.00017302 -0.00180022 -0.00137746
N 15.36241651 24.63540414 24.08199852 0.00590636 0.00045831 0.00298900
N 18.13788182 20.22918997 25.90636049 0.00373264 0.00173023 0.00204227
N 16.95373163 27.35204979 21.26905253 0.00152281 -0.00685748 -0.00069951
N 18.45213057 5.43259507 0.89540368 0.00008924 -0.00129042 -0.00019276
N 20.42402882 3.78902595 5.49019104 -0.00307383 0.00400115 -0.00189836
N 20.71539393 8.95527680 7.67548926 0.00284768 -0.00187253 0.00154481
N 0.09357050 0.67202968 3.08190190 0.00294686 -0.00079057 0.00241640
N 19.87163863 3.60209607 1.28098182 0.00051463 0.00499688 -0.00321745
N 19.41808097 5.87768947 5.88871159 0.00351519 -0.00394856 0.00252708
N 21.97250807 1.13940897 7.71369679 0.00119571 0.00236380 0.00589030
N 20.86458378 8.27011349 2.74797307 0.00533246 0.00554774 0.00111404
N 18.48741946 5.37469533 10.33118940 0.00302222 0.00592933 -0.00295740
N 19.65778987 4.18594804 14.76027191 0.00054128 -0.00035222 -0.00504910
N 20.63234162 8.61172168 16.97463649 -0.00581382 -0.00467309 0.00255235
N 21.50781468 0.66918360 12.52177657 0.00170470 0.00969048 0.00595092
N 19.97579818 3.67055598 10.51230320 -0.00244322 0.00175924 -0.00089962
N 18.37405358 5.89612009 15.41250674 0.00340993 -0.00091020 0.00022670
N 21.57244473 1.40251908 16.73453064 -0.00086600 -0.00532456 -0.00238591
N 20.86696917 8.13531866 11.93822712 -0.00551136 -0.00159331 0.00278997
N 18.73257033 5.31461472 19.51897704 -0.00240807 0.00641013 -0.00335316
N 20.27985305 4.04120321 24.00864918 -0.00557475 0.00185183 -0.00493898
N 20.83505745 8.70706343 26.12792584 0.00533601 -0.00438848 -0.01068116
N 21.91271006 0.95158960 21.63220360 0.01254310 -0.00397058 0.00337781
N 20.05327688 3.51495192 19.89491905 0.00094384 -0.00137426 -0.00360253
N 19.27733532 5.94831314 24.68451303 -0.00218578 -0.00054828 -0.00355088
N 22.06820091 1.06096175 26.12467634 -0.00255006 -0.00150489 0.00580818
N 20.88895072 8.23699569 21.47463003 0.00185145 0.01203821 0.00651823
N 18.64973904 14.84630441 1.22722338 0.00295993 0.00331174 -0.00211374
N 20.18376035 13.45578501 5.11198957 -0.00611022 -0.00413272 0.00144369
N 20.42383551 18.44240973 8.36178505 -0.00612747 0.00478981 -0.00263934
N 21.92213323 10.29994737 2.96843880 0.00319795 0.00504593 -0.00479789
N 20.01068850 13.04530260 0.98304652 0.00106206 -0.00935732 -0.00387044
N 18.99448130 15.33169857 5.91348791 -0.00529708 -0.00456904 0.00575953
N 22.05513552 10.79451495 7.24327382 -0.00340773 -0.00273195 -0.00821206
N 21.01457560 17.97242800 2.99242176 0.00058463 0.00008487 -0.00237157
N 18.55232702 14.78743323 10.07877771 0.00442471 0.00950491 0.00736323
N 19.97662552 13.37184057 14.58309214 0.00649175 0.00103268 0.00149732
N 20.39194212 18.33440256 17.17953087 -0.00190178 0.00682844 0.00192892
N 21.99404324 10.12798283 12.30687941 0.00271542 0.00210397 0.00335711
N 19.90746018 12.98008525 10.33480207 -0.00063491 0.00633924 -0.00102252
N 19.12934334 15.48187348 14.90126424 0.00287936 -0.00220154 0.00027269
N 21.51090247 10.68383121 16.67887866 0.00091942 -0.00114117 -0.00195372
N 20.85009928 17.92443970 12.42066163 0.00313604 0.00053689 -0.00329654
N 18.64360596 14.72483047 19.41233672 0.00417618 -0.00081001 0.00531998
N 20.04727689 13.63871063 23.93845592 -0.00065360 -0.00268644 -0.00478790
N 20.59541835 18.23346556 26.44982070 -0.00299605 0.00094092 -0.00168304
N 22.09534138 10.16958955 21.55432663 0.00487089 0.00195318 0.00764611
N 20.02671058 12.87995170 19.74127699 0.00329400 0.00861046 -0.00128450
N 19.32383317 15.79100514 24.25330434 -0.00717119 0.00052438 -0.00121165
N 21.64082249 10.86803324 25.76052156 -0.00413711 -0.00713084 0.00546286
N 20.65018346 17.90009711 21.46086022 -0.00327664 0.00346793 -0.00184392
N 18.73917221 24.46974324 0.93310191 -0.00224089 -0.00092639 -0.00451879
N 20.07605373 23.30821448 5.65894188 -0.00269569 0.00368555 -0.00088192
N 20.67102505 27.95705458 7.96049940 0.00067522 -0.00289059 0.00092380
N 22.19461228 19.98516259 3.52854568 -0.00684706 0.00024962 -0.00132950
N 19.73524591 22.51675859 1.54222752 -0.00040760 -0.00352180 0.00432714
N 19.17781720 25.39760674 5.70995330 -0.00293319 0.00379199 -0.00281521