1728
Time=64000.00000006 pbc="T T T" Lattice="22.09730813 0.00000000 0.00000000 0.00000000 28.66774230 0.00000000 0.00000000 0.00000000 27.46804364" energy=-10386.83858216 virial="33.69589621 22.05192356 -4.46379787 22.05192356 65.93110464 -14.78936807 -4.46379787 -14.78936807 38.61782370" stress="0.00426544 0.00126828 -0.00029927 0.00126828 0.00649581 -0.00084677 -0.00029927 -0.00084677 0.00501714" Properties=species:S:1:pos:R:3:vel:R:3
N 0.31866283 5.35758904 1.10093243 -0.00074840 -0.00715975 -0.00156119
N 1.99481376 4.07766792 5.59742766 -0.00553540 -0.00284480 0.00689001
N 2.37232997 8.80059237 8.45308495 0.00267792 -0.00579584 0.00215949
N 2.94170497 0.80242211 3.72350096 -0.00099070 0.00017867 0.00813587
N 1.31935284 3.30925181 1.12301872 -0.00201104 -0.00156106 -0.00844450
N 0.64535757 5.88821445 6.11153097 0.00307657 0.00241242 0.00762856
N 3.53429787 1.10741569 8.07014380 -0.00130172 0.00164018 -0.00074347
N 2.10618949 8.20981603 3.08036613 -0.00398185 -0.00723700 -0.00559397
N 0.38224617 5.85946979 10.65263438 -0.00548715 0.00018714 -0.00238116
N 1.83896705 4.47181605 15.04519240 0.00018204 -0.00275174 -0.00053918
N 1.90551346 8.97829433 17.10618544 -0.00673135 -0.00065304 -0.00050484
N 3.35517020 0.64424300 12.41954382 -0.00095265 0.00254782 -0.00205586
N 1.56374436 3.89188845 10.77857285 -0.00228500 0.00412728 0.00603026
N 0.36365565 6.19493969 15.07396627 -0.00351027 -0.00303451 0.01046015
N 3.23023911 1.32184421 16.94453741 0.00258287 0.00761649 -0.00454069
N 2.18621913 8.72469178 12.16384026 0.00419690 -0.00124429 0.00766896
N 0.14626778 5.45873463 19.41591478 0.00123801 0.00433891 -0.00467698
N 1.16922835 3.61941716 23.96063651 -0.00464978 0.00471922 -0.00013599
N 1.81259007 8.63168914 26.45856477 0.00585165 0.00502489 0.00527594
N 3.34226201 0.66060483 21.81949078 -0.00219846 0.00538150 0.00107504
N 1.43112467 3.51528247 19.63075788 0.00322986 0.00292299 0.00025510
N 0.40318258 5.80130039 24.29716100 0.00232541 0.00484783 0.00395862
N 3.15430920 1.07161422 26.00988124 -0.00245045 -0.00014376 -0.00728200
N 2.21088082 8.38930433 21.63938387 0.00356714 0.00277868 -0.00214492
N 0.17748866 14.89704017 1.03379518 -0.00062030 0.00308452 0.00504591
N 1.87488442 13.83627523 5.72088698 0.00139719 0.00180046 0.00020722
N 1.98224891 18.47269945 7.64729072 -0.00692892 -0.00094907 0.00138324
N 3.55791918 10.02271622 3.25568323 0.00155861 -0.00042525 -0.00281242
N 1.62280809 13.05381788 1.42635847 0.00034443 0.00557348 0.00170432
N 0.42615751 15.70723144 6.01831980 0.00263666 0.00019976 0.00619497
N 3.42845917 10.74137994 7.57732554 0.00516168 0.00359643 0.00339722
N 2.47775557 17.65954208 3.13486682 -0.00816913 0.00429969 -0.00653734
N 0.20249451 15.42908067 10.25195888 0.00427878 0.00134134 -0.00574881
N 1.45077896 13.96278791 15.25147102 0.00080270 0.00249813 0.00180762
N 2.07941107 18.80327881 17.18463349 -0.00597445 0.00132003 -0.00002557
N 3.17525510 10.66965064 12.83291555 -0.00441255 -0.00020871 0.00096393
N 1.64687607 13.61513890 10.56109825 -0.00176471 -0.00363568 0.00157556
N 0.24525060 15.91598185 15.36784716 -0.00392967 -0.00088110 -0.00446484
N 3.13102454 10.92920479 16.93035298 -0.00270935 -0.00017028 -0.00651518
N 2.38001870 17.99248770 12.37807713 0.00489170 0.00021643 -0.00568938
N 22.03669791 15.10615868 19.73398564 0.00675553 -0.00338284 -0.00076244
N 1.24099728 13.66520612 24.17735884 -0.00567011 -0.00472351 -0.00212823
N 2.31925934 18.45402883 26.30688835 -0.00414693 0.00051177 -0.00031480
N 3.38152010 10.27732119 22.02097058 -0.00030250 0.00434080 -0.00022743
N 1.51790958 13.36182019 20.02379005 -0.00315910 0.00139687 0.00450136
N 0.29592913 15.62238759 24.84886607 -0.00082073 0.00428535 0.00103583
N 3.01189610 10.45651787 25.90705911 -0.00324732 -0.00650490 -0.00902191
N 2.26212239 17.73232762 21.55995181 0.00897671 -0.00227147 0.00381652
N 0.23478588 24.71452589 1.20625197 0.00310817 -0.00179337 0.00163615
N 1.86793444 22.89936370 5.56753601 0.00190944 -0.00347337 -0.01070109
N 2.34874298 27.79078575 8.27339528 0.00007724 -0.00004360 -0.00199105
N 3.31131858 19.81730577 3.44107405 0.00364079 -0.00027113 0.00574404
N 1.24273167 22.60632972 1.70198643 0.00174108 0.00099620 -0.00407458
N 0.56147696 24.64913356 6.09384807 -0.00292086 0.01426192 0.00759555
N 3.38239375 20.30650962 7.75795329 0.00086335 0.00369730 -0.00937764
N 2.48260187 27.35995506 3.02051195 -0.00295160 -0.00494333 0.00146207
N 0.04696952 24.49037568 9.97613411 -0.00226359 0.00272449 0.00195029
N 1.45028904 23.21289245 14.59739272 -0.00136059 -0.00705267 0.00161038
N 2.00418851 28.08617637 17.02344180 -0.00216178 0.00219298 0.00263549
N 3.66725137 19.95382911 12.67965707 -0.00055402 -0.00600656 -0.00194736
N 1.58883380 22.86070226 10.72256346 0.00301569 0.00044162 0.00609164
N 0.21188837 25.14236140 14.96738270 -0.00558644 -0.00993839 -0.00016561
N 3.26071466 20.67977452 16.65020796 -0.00423547 -0.00376597 -0.00022517
N 2.33235521 27.37600964 11.82165460 -0.00312219 0.00254140 -0.00422045
N 0.16199172 24.45218661 19.63939395 0.00765796 -0.00407954 0.00502262
N 1.29410887 23.28935859 24.13658713 0.00358665 -0.00372717 -0.00411258
N 1.96024650 27.78683687 26.23810974 0.00557885 -0.00518140 -0.00533811
N 3.14438210 19.81511652 21.73219838 -0.00099848 -0.00144632 -0.00213691
N 1.45613007 22.48563671 19.54308980 -0.00119003 0.00669893 0.00081716
N 0.25397423 25.28996753 24.34451652 -0.00738974 -0.00374821 0.00290402
N 2.97141699 20.62692265 25.97382769 0.00068074 -0.00034516 -0.00878878
N 2.07040123 27.44767155 21.37669109 -0.00525377 0.00283898 -0.00431688
N 3.67474631 5.22724653 1.43556725 -0.00075387 0.00282531 -0.00344884
N 5.17462411 4.15637803 5.87989581 0.00444499 -0.00248327 -0.00383340
N 6.18205371 8.55292515 7.94433395 0.00739499 -0.00183674 0.00003157
N 7.14610315 0.45821106 2.96100643 -0.00341236 -0.00872454 -0.00303962
N 5.03928349 3.35145346 1.56380493 -0.00353466 -0.00569158 0.00934273
N 4.00896476 6.17198937 5.98185923 0.00510718 -0.00259301 0.00200597
N 7.14270967 1.29082629 7.56965491 0.00449473 -0.00142671 0.00339983
N 6.07611895 8.14639638 2.85122205 -0.00047921 -0.00019426 -0.00661439
N 3.82802753 5.46328907 10.28394606 -0.00233970 0.00160257 -0.00369610
N 5.56443769 4.08040694 15.17728501 0.00131578 0.00750072 0.00521078
N 6.12047072 8.99033230 17.37020221 -0.01342429 -0.00057422 -0.00182521
N 6.63719677 0.91077270 12.41056481 0.00168632 -0.00051279 0.00458647
N 5.20207483 3.51488483 10.62524466 0.00388300 0.00049309 0.00332142
N 4.34991447 6.01437401 15.52569898 0.00199284 -0.00307625 0.00071723
N 6.67380674 1.10450238 16.72318177 -0.00145457 0.00193654 0.01057268
N 5.92182689 8.36305990 12.17903749 -0.00029295 -0.00062815 0.00474269
N 4.05889001 5.43141636 19.95091328 0.00287299 -0.00133054 0.00936172
N 5.29357919 3.62877481 24.11801766 -0.00197100 0.00344169 0.00191611
N 5.61493772 8.69749198 26.32507553 -0.00106666 -0.00307670 -0.00050422
N 6.89191355 0.59921721 21.51834794 0.00082239 0.00503924 -0.00197329
N 4.97164191 3.30612736 20.11381915 -0.00089429 -0.00211033 0.00381455
N 3.86412884 5.47702270 24.60620980 0.00395677 -0.00066779 0.00432555
N 6.99002037 1.05765749 26.18669666 0.00010404 0.00572823 -0.00365910
N 5.82631892 8.33421068 21.36675684 -0.00457112 -0.00781672 -0.00022845
N 4.38555494 15.00861455 0.76319835 -0.00085183 0.00721932 0.00357989
N 5.59582329 13.69168978 5.64482380 0.00096027 0.00007980 -0.00424329
N 6.14187095 18.56833292 8.05006885 -0.00113867 0.00278078 0.00220083
N 7.32506700 10.03801549 3.48503048 0.00027774 0.00193757 -0.00278601
N 5.09817524 12.83902349 1.19552174 0.00442759 0.00245002 -0.00442435
N 4.23523605 15.51671044 6.01269509 0.00008996 -0.00353839 -0.00204201
N 7.02804128 10.76977649 7.56579645 -0.00551704 -0.00830496 -0.00180828
N 6.15156990 17.86976675 2.82880947 0.00689229 -0.01125085 0.00694006
N 3.88867221 15.37218282 10.02068645 -0.00152147 0.00544828 -0.00197429
N 5.45758536 13.93120336 14.72376050 0.00076837 -0.00455329 -0.00055665
N 5.70143166 18.67368032 16.94956285 -0.00229239 -0.01087481 0.00365498
N 7.21105951 10.23972254 12.59156171 0.00181775 -0.00314328 0.00584417
N 5.15035342 13.43757751 10.71605285 0.00546125 -0.00738986 0.00839418
N 4.19418731 15.89156861 14.95297143 0.00208663 -0.00068689 -0.00113191
N 6.88391391 11.04615268 16.81046002 -0.00220909 0.00080708 0.00364221
N 6.09490516 18.18886379 12.09906877 0.00194506 -0.00529096 -0.00442049
N 3.91357720 15.16468968 19.06068690 -0.00051025 -0.00599824 -0.00367122
N 5.15285564 13.40351505 23.67482573 0.00227371 -0.00018710 -0.00048365
N 5.36116633 18.34661011 26.32720540 0.00118947 -0.00130342 0.00535327
N 7.12535217 10.12977482 21.78714819 -0.00499174 0.00083981 0.00232515
N 5.11893831 13.39983330 19.94443738 -0.00691913 0.00227408 0.00139841
N 3.98454029 15.37936409 24.35551074 -0.00037591 0.00084560 -0.00324031
N 6.66731371 10.55352275 25.68175745 -0.00547794 -0.00335545 -0.00341252
N 5.58356845 17.83155663 21.34919948 0.00618808 -0.00055522 0.00537535
N 3.83087471 24.56994921 1.14055337 -0.00200240 -0.00291723 0.00091696
N 5.48577908 23.24063775 5.83943221 -0.00203989 -0.00105911 0.00859385
N 6.22488821 27.77861465 7.64255565 -0.00022450 -0.00447191 -0.00520754
N 7.39635002 19.74811111 3.00655564 0.00042348 -0.00267400 0.00479112
N 5.05910397 22.61931946 1.05692662 -0.00327069 -0.00120699 0.00070326
N 4.17543563 25.08592224 6.09114371 -0.00168030 0.00226917 -0.00183569
N 7.18996347 20.52528457 7.82051611 0.00375858 0.00240711 0.00157062
N 5.77318370 27.20586956 3.13640262 -0.00243687 0.00501654 0.00344240
N 4.16612044 24.75266099 10.29893008 -0.00541802 -0.00224173 -0.00321718
N 5.35804780 23.49927200 14.86628386 0.00423341 0.00591948 0.00117628
N 5.82573674 27.68472420 17.03313390 0.00227788 0.00099325 0.00549418
N 7.31284725 20.09707914 12.78469227 0.00224692 0.00393131 -0.00019287
N 5.20180864 22.72474699 10.62905655 0.00739471 0.00219733 0.00111138
N 3.79002131 25.22024846 15.06296224 -0.00080220 -0.00393550 0.00664418
N 7.00008385 20.56063748 16.95837199 0.00469959 0.00223971 0.00330406
N 5.88257189 27.43506714 12.20051358 -0.00026031 -0.00575546 -0.00105222
N 3.71592916 24.75446389 19.44014596 0.00386993 -0.00486461 0.00168880
N 5.23544167 23.21188048 24.00170141 -0.00137599 0.00236386 0.00473793
N 5.97946059 27.58390266 26.12147336 0.00262925 0.00665238 0.00240092
N 7.19050459 19.66774979 21.58099507 -0.00729492 -0.00202001 -0.00405994
N 4.90044855 22.74477423 19.60428944 -0.00391877 -0.00316393 0.00011304
N 3.89539817 25.00951175 24.08597587 0.00273425 0.00543462 -0.00150723
N 6.70197615 20.16395110 25.80435577 -0.00439174 0.00085732 0.00456042
N 5.56911203 27.38454528 21.34317194 0.00102278 -0.00061295 -0.00406689
N 7.49455013 5.23000037 1.31421856 0.00234843 0.00733433 0.00119808
N 9.04583616 3.76786531 5.49163943 -0.00378027 0.00462576 -0.00198575
N 9.36327323 8.70444684 7.74708277 0.00454436 -0.00009607 -0.00188547
N 11.13184191 0.46912188 3.11445402 -0.00209889 0.00353651 0.00115564
N 9.10851608 3.56963587 1.47736615 -0.00731515 -0.00278066 -0.00247166
N 7.85594332 5.63454428 6.02727110 0.00589358 -0.00251004 -0.00842342
N 10.70853083 1.02100379 7.56474720 0.00291617 -0.00129616 -0.00188304
N 9.77866618 8.22173344 2.82127141 0.00174868 -0.00456901 -0.00602430
N 7.48819581 5.49542666 10.17111764 -0.00313943 0.00263787 0.00141380
N 9.02814472 3.97800983 14.74211404 -0.00435584 0.00783816 0.00501028
N 9.19026322 9.11900460 16.93088896 -0.00294744 0.00003765 0.00092531
N 10.92054430 0.52055137 12.09709826 -0.00130394 -0.00259560 0.00275621
N 8.84655104 3.58447384 10.26892653 0.00170895 0.00243354 -0.00147007
N 7.77550107 5.94169925 14.94159382 -0.00356512 0.00549964 -0.00229289
N 10.82142019 1.27571871 16.63920286 -0.00196100 -0.00103160 -0.00170240
N 9.46655844 8.31281606 12.12240558 -0.00718844 -0.00035201 0.00231270
N 7.55577832 5.21070051 19.41799265 -0.00470280 -0.00134283 0.01009109
N 8.78631707 3.68389270 24.09839128 0.00446637 0.00585285 -0.00059727
N 9.38522258 8.79781535 26.26873340 -0.00106515 0.00505533 -0.00890830
N 10.46478011 0.99163829 21.41426839 0.00172456 -0.00339191 0.00430338
N 9.06875851 3.50689109 19.63055274 -0.00417998 -0.00391415 -0.00028928
N 7.90212102 5.76973070 24.61571340 -0.00594051 -0.00045999 -0.00436298
N 10.68429481 0.95780540 25.94955827 0.00062950 -0.00285770 -0.00088972
N 9.60214083 8.20473605 21.50034732 0.00655706 -0.00167481 0.00006655
N 8.00996503 15.10059969 0.96886888 0.00125885 -0.00222338 0.00460240
N 8.98474758 13.87555220 5.68209453 0.00086136 -0.00175558 0.00304845
N 9.95342035 18.36445623 8.00554956 0.00432284 0.00727453 -0.00091360
N 10.91735562 10.17817823 3.03201878 0.00414131 0.00245369 -0.00121240
N 9.06758060 13.02326463 1.47967033 -0.00435473 0.00223429 0.00098604
N 7.94945135 15.93571045 5.97471667 0.00560024 0.00548849 -0.00508782
N 10.68609498 10.66713227 7.82651932 0.00178242 0.00861237 -0.00336016
N 9.74743378 17.73329433 3.05044205 -0.00174833 0.00246616 -0.00387511
N 8.00166080 14.96386240 10.37616932 -0.00279773 -0.00571906 0.00172105
N 8.76231172 13.64717705 14.81631731 0.00080446 0.00943782 -0.00346477
N 9.18086471 18.38851889 17.08010138 0.00038897 0.00219350 0.00143764
N 10.90583306 10.10243202 12.54031375 -0.00494438 -0.00332312 0.00292810
N 8.81228578 12.81212825 10.25006439 0.00058117 0.00212980 -0.00152373
N 7.82235855 15.80236183 14.96284980 0.00485871 0.00232085 -0.00184174
N 10.56907150 11.05841131 16.81427235 0.00652115 -0.00270150 0.00421425
N 9.45785053 18.06858875 12.11734698 -0.00602645 0.00839191 -0.00067702
N 7.59629567 14.93824833 19.10498290 -0.00503748 0.00155737 0.00544901
N 8.84050951 13.64109899 23.86647973 0.00905927 -0.00079437 -0.00079048
N 9.45122041 18.55622353 25.86386563 -0.00122303 0.00584985 0.00368565
N 10.81925971 10.12981755 21.59576459 0.00061665 -0.00151179 0.00783790
N 8.57814054 12.90003181 19.74607298 0.00036160 0.00293513 0.00289261
N 7.72155572 15.59216497 24.39534364 -0.00133742 -0.00198907 0.00395694
N 9.91968130 11.00364239 26.03902690 -0.00346178 0.00159865 -0.00245530
N 9.60718879 17.92789640 21.40317324 0.00187662 0.00130348 -0.00132467
N 7.47685481 24.43954859 1.24396128 -0.00098129 0.00586766 0.00819870
N 8.78115993 22.88699380 5.54670143 -0.00146366 -0.00053586 0.00150523
N 9.44794441 27.89248231 7.87197867 0.00359810 -0.00208881 -0.00166441
N 10.64912731 19.85151188 3.44878137 -0.00680163 0.00269943 0.00062296
N 9.07500658 22.73868571 1.51289863 0.00077757 0.00154228 -0.00263852
N 7.74139926 24.91598046 6.03493679 -0.00010119 -0.00746016 -0.00417635
N 10.93272871 20.36389347 7.70116059 -0.00116677 0.00091719 -0.00024904
N 9.76686968 27.25931068 3.04292796 0.00562216 0.00491524 -0.00018205
N 7.62740673 24.42468305 10.20959481 0.00144899 -0.00013327 -0.00304099
N 9.09713166 23.34152576 15.08417633 -0.00281060 0.00236020 0.00053308
N 9.31837613 28.03697688 17.09849335 -0.00504632 0.00470987 0.00095266
N 11.03218990 19.85446824 12.38149871 0.00553367 -0.00358726 0.00307536
N 9.11390545 22.84591209 10.71735715 -0.00082157 -0.00671309 -0.00183957
N 7.68460694 25.17280695 15.21638935 -0.00129297 0.00391215 0.00036491
N 10.60150866 20.14873107 16.63147770 0.00546737 -0.00200078 0.00148780
N 9.85958847 27.11384205 11.92732854 -0.00144915 -0.00183992 -0.00317712
N 7.44442405 24.72665509 19.62271867 0.00467228 -0.00419239 0.00363017
N 8.83303176 23.27832334 23.97259983 0.00124600 0.00208394 0.00571336
N 9.21146989 27.84010753 26.11685948 0.00359855 0.00338842 -0.00225067
N 10.88843681 19.82891898 21.35708733 0.00267420 -0.00534166 0.00004928
N 8.66005703 22.76303353 20.03634363 -0.00514880 -0.00492784 -0.00591503
N 7.50329304 25.08897648 24.29760805 0.00227970 0.00366673 0.00656815
N 10.70097766 20.45144116 25.68721772 -0.00012712 0.00397170 -0.00304460
N 9.49743842 27.61649990 21.19527576 -0.00117301 -0.00526776 -0.00584768
N 11.32309891 5.38654731 1.15086465 0.00363188 0.00455918 0.00368269
N 12.78378218 4.16760701 5.75941877 0.00502927 0.00025452 -0.00436122
N 13.18206105 8.72306355 8.09426558 -0.00614703 0.00114773 -0.00438811
N 14.12119323 0.64173363 3.54928367 -0.00381059 -0.00419423 0.00532193
N 12.81142532 3.64202125 1.48797954 0.00073249 0.00462172 -0.00254572
N 11.55578449 6.09486602 5.95090071 -0.00368423 -0.00073376 0.00287900
N 14.72330559 0.87520883 7.57435722 0.00211899 -0.00117300 -0.00414434
N 13.42100789 8.70525282 3.34834801 0.00007714 0.00475324 0.00242196
N 11.23031262 5.49470429 10.06853500 -0.00392430 0.00298597 -0.00262451
N 12.72990312 4.07809211 14.84108957 0.00274966 -0.00827455 0.00270171
N 13.15881661 8.93580525 17.20780807 -0.00485714 -0.00028420 -0.00589227
N 14.19840995 0.73021162 12.72451281 0.00004217 0.00492526 -0.00072107
N 12.72161071 3.66474584 10.33945269 -0.00140329 -0.00352138 0.00021746
N 11.33507995 5.92682592 15.01921000 0.00224419 -0.00762265 -0.00538905
N 14.10286279 1.31396083 16.90596001 0.00277136 -0.00056616 -0.00024423
N 13.20185175 8.36117095 12.52610830 -0.00120654 0.00210826 -0.00108995
N 11.26970472 5.70879583 19.27630246 -0.00319266 -0.00250898 -0.00206025
N 12.43587822 3.88710645 24.01596752 0.00222490 -0.00149168 -0.00344097
N 13.27674223 8.63564610 26.56789796 -0.00425108 -0.00131989 -0.00390106
N 14.51036484 0.72746792 21.97302310 0.00097650 0.00662019 0.00631150
N 12.49944099 3.81147751 19.68761866 0.00366778 -0.00633252 0.00081093
N 11.12698698 5.72070205 24.38985478 0.00084302 -0.00364451 0.00180556
N 13.96281746 1.28758182 26.02037725 0.00147193 0.00316513 -0.00443936
N 13.68067439 7.97546263 21.41026274 -0.00208081 0.00035876 0.00468150
N 11.33080300 14.74541271 1.25472441 0.00045107 0.00383135 -0.00263139
N 12.72814770 13.53239756 5.51700946 -0.00571585 0.00162772 0.00383313
N 12.95278342 18.46188457 7.72127840 0.00470874 0.00225401 0.00936749
N 14.84182044 10.58350109 3.52960452 -0.00749615 -0.00558437 -0.00062799
N 12.55020843 12.81440892 1.44891680 0.00173160 -0.00703987 -0.00440186
N 11.60139209 15.54467628 5.70284969 -0.00289807 -0.00040556 0.00206932
N 13.95359009 10.85758565 7.68985966 0.00246215 -0.00597656 0.00510259
N 13.50294679 17.86773782 2.44567159 -0.00378856 0.00368474 -0.00341110
N 11.09646372 14.88811612 10.40961429 0.00150333 0.00472474 0.00572535
N 12.67365298 13.49448699 15.00488573 0.00320719 -0.00544558 0.00307037
N 13.09831892 18.65397270 17.03182376 -0.00558188 0.00090583 0.00347089
N 14.48359177 10.25259270 12.79585765 0.00469195 -0.00059322 -0.00367492
N 12.23886635 12.72810360 10.17200747 -0.00042367 0.00207405 -0.00217711
N 11.57194593 15.40925793 15.34695086 0.00607259 0.00050991 -0.00681454
N 14.26443364 10.95969697 16.83410210 0.00061115 0.00993819 0.00001197
N 13.25943323 17.84848253 12.22328959 0.00172828 -0.00308653 0.00006103
N 11.60913458 15.34944726 19.53160454 -0.00369708 -0.00383164 -0.00020970
N 12.34865390 13.51149382 24.22875377 -0.00335846 0.00447797 -0.00431026
N 13.02736689 18.52630214 25.81016169 -0.00357754 -0.00514052 -0.00084423
N 14.40167807 10.08508550 21.62888878 -0.00407920 -0.00518130 0.00090588
N 12.70060365 13.35402130 19.70404722 -0.00023245 -0.00824536 -0.00110705
N 10.99549512 15.42144723 24.40506582 -0.00302514 -0.00035016 -0.00313721
N 14.21390495 10.66201289 26.07412342 0.00379636 -0.00211596 -0.00118264
N 13.37704903 17.31197448 21.36315066 -0.00465033 0.00058571 -0.00521525
N 11.43543599 24.43177917 1.23097425 0.00261033 -0.00028002 -0.00123878
N 12.50313086 23.14115049 5.64954962 -0.00028491 -0.00095244 0.00349681
N 13.66101664 27.50149712 7.82694140 0.00175962 0.00300881 0.00275802
N 14.50598668 19.77130189 3.14974607 -0.00696026 0.00756475 0.00411395
N 12.47026511 22.28125973 1.45074406 -0.00612225 -0.00375835 -0.00085435
N 11.24336698 25.03551211 6.09376255 -0.00013635 0.00236576 0.00534454
N 14.53239569 20.08054391 7.46102855 0.00216646 0.00129063 -0.00090267
N 13.54756757 27.19950792 3.13797117 -0.00001987 -0.00229261 -0.00186719
N 11.74250109 24.83655987 9.99031356 0.00081393 0.00292915 0.00873856
N 12.37003780 23.06036813 14.76869431 0.00772328 0.00264199 -0.00501328
N 13.19467904 27.90441651 17.28643959 -0.00544262 0.00297992 0.00542051
N 14.07067767 20.02019825 12.45427204 0.00015089 0.00521156 -0.00107119
N 12.94768943 22.85404911 10.23887703 0.00265723 -0.00000040 -0.00149926
N 11.52370678 25.26023645 14.91939602 -0.00619782 0.00278129 0.00378068
N 14.75153142 20.25135741 16.64080575 -0.00176473 -0.00007204 -0.00501358
N 13.45581269 27.29287406 12.34994910 0.00990538 -0.00762774 -0.00437315
N 11.09544523 24.48117677 19.31729376 -0.00883037 0.00332012 0.00023118
N 12.77509140 23.28214815 24.13677104 0.00180460 0.00046024 0.00174218
N 13.15217069 27.92047977 26.48785109 0.00615663 0.00262103 -0.00755822
N 13.88031500 19.56339590 21.58642648 0.00731718 -0.00359294 -0.00783468
N 12.57303209 22.70933885 19.45757239 -0.00412966 0.00225041 0.00258291
N 11.15032336 24.95110730 24.08431838 -0.00160928 -0.00083263 0.00152385
N 14.47642567 20.31362914 25.83602785 0.00391913 0.00548237 0.01103704
N 13.00768285 27.59330418 21.45868056 0.00194988 0.00261768 -0.01266086
N 15.14621247 5.62382571 1.38989180 0.00012320 0.00811541 0.00338659
N 16.45834597 4.49612534 5.91575810 -0.00899614 0.00329838 0.00389646
N 17.44414686 8.93664315 8.71317346 0.00565224 0.00014646 0.00083384
N 18.06501403 0.62805986 3.61455399 0.00270726 -0.00758402 -0.00211908
N 16.35611139 3.63753857 1.56160649 -0.00032084 -0.00123005 0.00384127
N 15.17724977 6.43579428 6.20037947 -0.00015314 0.00603683 -0.00524626
N 18.17397273 1.46494386 7.45844243 0.01059583 0.00024386 -0.00418791
N 17.25422181 8.59974797 2.91987128 0.00065590 -0.00443952 -0.00078891
N 15.26504337 5.33238765 10.12407894 0.00013104 -0.00045426 -0.00013971
N 16.23326339 3.85087723 14.74565252 -0.00179205 -0.00414024 0.00472690
N 16.83452346 8.73274434 17.05509150 -0.00284936 0.00286316 -0.00308162
N 18.29441582 0.63747934 12.76109171 -0.00343336 0.00020045 -0.00088393
N 16.27929717 3.31010903 10.53651312 -0.00016005 0.00110301 -0.00034300
N 14.95332353 5.65523915 15.35689950 -0.00030787 -0.00328637 -0.00785910
N 17.95946360 1.20069316 16.99098343 0.00998634 0.00040531 -0.00171875
N 16.93776219 8.32534776 12.20490476 -0.00272640 0.00175647 -0.00292360
N 15.09879886 5.33075052 19.37535849 -0.00000076 0.00774536 0.00470601
N 16.34128027 4.06089387 24.01592850 -0.00067984 0.00811147 0.00183462
N 16.82287672 8.88474917 25.96453562 -0.00458974 0.00056115 -0.00054373
N 18.10710341 0.76527473 22.03162293 0.00262423 -0.00236931 0.00175643
N 15.79523786 3.18058417 19.83554059 -0.00347826 0.00100924 0.00210244
N 15.00461021 5.84991165 24.70257979 0.00239226 0.00136925 0.00295028
N 18.04769483 1.17337623 26.03069936 0.00306567 -0.00281905 -0.00228961
N 16.88026184 8.32554486 21.24433618 -0.00081381 0.00561827 -0.00130491
N 15.19645617 15.10495816 0.92115188 0.00574105 -0.00837050 0.00553055
N 16.40788301 13.84493240 5.99634930 -0.00132645 -0.00095419 -0.00616409
N 16.83789092 17.91465740 8.03711413 0.00226726 -0.00521149 -0.00154666
N 18.54244114 10.29023332 3.86417588 0.00156683 -0.00012665 0.00463603
N 16.17451360 13.09815507 1.32157239 0.00472409 -0.00722556 0.00654856
N 15.00561971 15.64471508 6.09739134 0.00523090 0.00065525 -0.00385054
N 18.19772635 11.16873074 7.96224812 0.00027620 -0.00008476 -0.00040705
N 16.90753677 17.63461895 3.19289653 -0.00626307 0.00490685 0.00318492
N 14.63708433 15.20822172 10.22832936 0.00167590 0.00287565 -0.00050842
N 16.46008752 13.83224420 14.49698076 -0.00520586 -0.00282772 0.00212724
N 16.74891966 18.42709765 18.07954850 -0.00077918 0.00160237 0.00744031
N 18.15439834 10.30456548 12.28223377 -0.00097127 0.00040454 0.00712108
N 16.10633482 13.47864003 10.88145191 0.00352300 0.00381513 0.00312771
N 15.20787081 15.68071817 15.16080594 -0.00530476 -0.00091086 -0.00053537
N 17.89864333 10.78900154 16.68595480 0.00063253 -0.00344020 0.00509848
N 17.03566157 18.24425957 12.51180543 0.00671649 0.00955402 -0.00610321
N 15.46130707 15.21440378 19.42974856 -0.00081466 -0.00054066 0.00738063
N 16.28215591 13.77899302 23.81976764 -0.00376037 -0.00245078 0.00232459
N 17.24175959 18.43838610 26.67844304 0.00272827 0.00659184 -0.00079216
N 18.45736041 10.05444880 21.47599752 0.00213987 -0.00434358 -0.00875499
N 16.09573565 12.97196933 19.84073532 0.00522428 0.00602992 0.00373251
N 14.87108769 15.48091733 24.48752133 -0.00043474 0.00234383 -0.00391862
N 17.98348158 10.77514829 25.74619166 -0.00716521 -0.00106756 0.00424444
N 17.12373242 18.11407939 21.80808615 -0.00189579 0.00101109 -0.00484091
N 14.96442347 24.62817484 1.13118454 0.00120462 -0.00179879 0.00204880
N 16.45309870 23.14628521 5.84827798 -0.00684376 0.00372814 0.00314679
N 17.38598604 28.10002240 8.26007721 0.00066180 -0.00695213 0.00488797
N 18.23776271 19.47060099 3.48547544 0.00380483 0.00043597 0.00140360
N 16.33747265 22.73537961 1.68005983 0.00665362 -0.00025826 -0.00202031
N 15.02027739 24.84236534 6.12027573 0.00650948 -0.00161865 -0.00657487
N 17.99635243 19.95940554 7.90593304 -0.00540973 0.00115277 -0.00017728
N 17.29413498 27.20713771 3.19037995 -0.00355805 0.00979338 0.00421646
N 15.54286825 24.45305825 10.17412801 -0.00423914 -0.00352601 0.00041772
N 16.35093563 23.49604066 14.89643948 0.00335456 -0.00063518 -0.00022422
N 16.80546966 27.98224701 17.55582875 0.00700718 0.00140357 0.00039516
N 18.53263400 19.79333903 12.96276368 0.00829497 0.00037857 0.00052412
N 16.28328321 22.42003520 10.75389385 0.00124966 0.00055239 0.00021843
N 15.19718196 25.48509207 15.37451589 -0.00135238 0.00094291 -0.00227825
N 17.69977749 20.35088046 17.22989494 -0.00202136 0.00597815 0.00035190
N 16.68768569 27.65157022 12.52045557 -0.00105089 0.00137880 -0.00395859
N 14.93662139 24.63717970 19.49662034 0.00435591 -0.00494898 0.00299761
N 16.24790210 23.46011267 24.18714510 0.00243466 -0.00359577 -0.00471435
N 16.64311855 28.18178161 26.60267690 -0.00677843 0.00495766 0.00222970
N 17.98405026 20.16663905 22.40920794 -0.00555850 0.00655544 0.00023037
N 15.93850434 22.68907480 19.86454249 0.00210456 -0.00274470 0.00583012
N 14.84476063 25.25846722 24.43396173 -0.00517106 0.00220083 -0.00471333
N 17.83260543 20.60551752 26.22495966 0.00337518 -0.00106465 -0.00166824
N 16.88603670 27.47408775 21.65137525 0.00581492 0.00319948 0.00470529
N 18.75483096 5.36844936 1.32295525 -0.00432989 0.00070706 0.00180042
N 20.09905455 4.06442515 5.80754830 -0.00352938 0.00207392 -0.00107134
N 20.40662262 9.14899924 8.08640647 -0.00090281 0.00034651 -0.00032890
N 21.89301703 0.37955328 3.35517690 -0.00473303 0.00166439 -0.00414687
N 19.81841280 3.44081351 1.76098046 -0.00130461 0.00122189 -0.00436015
N 18.94741737 6.00219919 6.24727228 -0.00083353 -0.00132317 -0.00249153
N 21.65731275 1.41677679 7.89884274 0.00050995 0.00223428 -0.00622151
N 21.07860476 8.31177996 3.10989873 -0.00428932 0.00276441 0.00602467
N 19.03347420 5.42274426 10.50304012 -0.00739397 -0.00355456 -0.00274303
N 19.45644500 3.93159510 14.64000935 -0.00474745 0.00243885 0.00306905
N 20.28150231 9.09886863 16.93297085 0.00068443 -0.00147292 -0.00310463
N 21.81180460 0.67133559 12.47023365 0.00424225 -0.00612691 0.00358300
N 20.00051082 3.42924983 10.50625778 -0.00157227 0.00623050 -0.00448947
N 18.33402570 5.96387296 15.11821886 0.00018608 -0.00242329 0.00358306
N 21.62920951 1.21630076 16.95745374 -0.00172761 0.00055300 0.00410073
N 20.64905799 8.66466513 12.20659825 0.00046522 0.00254694 0.00127644
N 18.79596220 5.24630995 19.33707153 0.00124218 0.00281221 -0.00325171
N 19.91206979 4.03129151 23.96345228 0.00378134 0.00203338 0.00124216
N 20.30114039 8.68724838 26.33058822 0.00291923 0.00122061 0.00259282
N 21.53444745 0.79918003 21.89927561 0.00200031 -0.00773536 0.00116829
N 19.93933453 3.21239464 19.63154140 -0.00805087 0.01019252 0.00008472
N 18.90363929 6.05737943 24.13081812 0.00868940 0.00527831 0.00005853
N 21.52210991 0.83590134 26.05153698 -0.00637538 0.00314787 0.00273688
N 20.76836913 8.21653464 21.62381934 0.00048475 -0.00075697 -0.00705293
N 19.00209801 15.12703461 1.15440099 -0.00088540 0.01038666 -0.00285110
N 20.35526973 13.61324605 5.71513926 0.00207233 0.00164603 -0.00619050
N 20.34513259 18.47587848 7.96830959 -0.00775092 0.00408603 0.00067739
N 0.06900641 10.10889123 4.03722291 -0.00529004 0.00055631 0.00328393
N 19.90364493 13.02866643 1.41246082 0.00305223 0.00319356 -0.00388618
N 19.13919538 15.41810295 6.35217628 -0.00049426 0.00177499 0.00208034
N 21.76820171 11.07452614 7.91641304 0.00471500 -0.00300436 -0.00398992
N 20.53024089 17.90359413 3.25142597 -0.00221146 0.00176967 0.00016953
N 18.61215807 15.49899765 10.36680749 -0.00211582 0.00173519 -0.00009379
N 20.12266103 13.91400275 15.23269627 0.00100964 -0.00199988 -0.00824053
N 20.26403858 18.70530608 17.39261829 -0.00309694 0.00544664 0.00304221
N 21.99194081 10.51657885 12.38927429 0.00357513 -0.00244330 0.00689400
N 19.81918510 13.48221424 11.06985914 0.00564721 0.00282652 0.00541079
N 18.69110359 15.68472518 15.16504689 -0.00227917 -0.00332391 0.00055249
N 21.73955581 10.93605757 16.81937002 0.00278642 0.00400142 -0.00156406
N 20.96053352 18.08833207 12.42146120 -0.00619590 0.00123021 0.00039101
N 18.69660425 14.95327900 19.76860389 -0.00230897 -0.00607086 -0.00759782
N 19.71175989 13.84627741 24.01567467 -0.00018233 -0.00251523 -0.00175932
N 20.47870278 18.20209572 26.35524045 0.00148389 0.00379141 -0.00282915
N 21.87429925 10.25076036 21.65709104 -0.00389924 0.00074042 -0.00413436
N 19.88112772 13.02267079 19.54430302 0.00247504 -0.00781016 -0.00175705
N 18.43055906 15.71618933 24.15924281 0.00782994 0.00117546 -0.00327401
N 21.52668794 10.62345230 26.08080753 0.00671623 0.00060390 -0.00222429
N 20.38701785 18.19318295 21.65642046 0.00092506 0.00230538 0.00210023
N 18.72014806 24.70777713 1.22555520 0.00290643 0.00385961 0.00072056
N 19.99061527 23.17372672 6.15813509 0.00017995 -0.00393219 -0.00202824
N 20.60632238 28.04564404 7.70967866 -0.00194142 -0.00011348 -0.00286124
N 22.00744802 19.68093640 3.38544432 -0.00276491 -0.00379061 -0.00732015
N 19.67102564 22.64401019 1.62699696 0.00158820 -0.00628359 -0.00109609
N 18.59460033 25.09309803 6.16897457 0.00185025 0.00300738 -0.00484797