1728
Time=99999.99999996 pbc="T T T" Lattice="22.00648376 0.00000000 0.00000000 0.00000000 29.19218773 0.00000000 0.00000000 0.00000000 27.18201542" energy=-10387.00680852 virial="17.07969540 -7.55962341 7.80099172 -7.55962341 -5.94029946 4.96604973 7.80099172 4.96604973 -8.94648955" stress="0.00339961 -0.00032412 0.00040852 -0.00032412 0.00222748 0.00032209 0.00040852 0.00032209 0.00231084" Properties=species:S:1:pos:R:3:vel:R:3
N 0.42079356 5.63809546 1.39427366 -0.00220380 -0.00354899 0.00571657
N 1.52959495 4.04218709 5.80241726 -0.00350625 0.00235979 -0.00454527
N 2.20766443 9.36840032 8.02140702 -0.00440377 0.00495553 0.00615859
N 3.44088495 0.55200416 3.49191430 0.00249356 0.00301154 -0.00082853
N 1.62023316 3.67548775 1.49864464 -0.00311974 -0.00529855 0.00092698
N 0.62843252 6.08181914 5.94162741 -0.00196679 0.00360281 0.00023277
N 3.31293777 1.18568840 8.02353099 0.00337037 -0.00054563 0.00272247
N 2.18549321 8.75930650 3.14907625 0.00391103 -0.00002128 0.00833799
N 21.82216614 5.49435797 10.48304416 0.00016657 -0.00048620 0.00043506
N 1.39894667 4.12421703 14.75945839 0.00069572 0.00909881 -0.00213850
N 2.00143004 9.10122797 17.08791946 0.00388084 -0.00321945 0.00121886
N 3.64419146 0.63531636 12.54442407 0.00311670 -0.00392164 0.00731790
N 1.37973663 3.80621905 10.66596282 -0.00175777 -0.00374288 -0.00203154
N 0.31080829 6.19833871 14.94914070 0.00524005 -0.00043669 -0.00950097
N 3.02631699 1.29465147 16.73738997 -0.00205763 0.00027685 0.00057287
N 2.32176610 8.69587889 12.42657747 -0.00767769 -0.00538065 -0.00402706
N 0.68024363 5.60032452 18.98068193 -0.00682108 -0.00096347 0.00543457
N 1.71682932 4.23840594 23.74410481 0.00331624 -0.00130983 0.00173998
N 1.94035859 8.87445458 25.82809508 -0.00038945 0.00010065 -0.00378041
N 3.34974780 0.65707410 21.44624845 -0.00187858 -0.00507366 -0.00012708
N 1.34353394 3.37507812 19.42957026 -0.00656058 0.00067704 -0.00218643
N 0.63735857 6.25898603 23.99051922 -0.00087408 -0.00772308 -0.00110536
N 3.18407584 1.32207822 25.91270101 -0.00245597 -0.00094093 -0.00148408
N 2.41644263 9.05313185 21.18481937 0.00612372 0.00622644 0.00618140
N 21.77980898 15.51062801 1.27262259 0.00035445 -0.00451657 0.00578467
N 1.45311813 13.72965432 5.94541831 -0.00351190 -0.00107420 0.00299604
N 2.54763889 18.57429756 7.97120756 -0.00045489 -0.00409902 0.00348958
N 3.47576852 10.67806170 3.53311492 0.00435744 -0.00159112 0.00319849
N 0.92000742 13.63638134 1.82590908 0.00016904 -0.00553360 0.00548286
N 0.22999841 15.75651203 6.30421391 -0.00251416 0.00033969 -0.00355299
N 3.36584305 11.29881572 7.78400633 -0.00705816 0.00022100 0.00032801
N 2.31193074 18.29509456 3.19141705 0.00645631 -0.00229968 0.00192070
N 21.95502828 15.19633585 10.39659083 0.00252341 0.00104022 0.00002357
N 1.70302699 13.62705318 14.97603971 -0.00247432 0.00147100 0.00384519
N 2.11167538 18.69447266 16.84395313 -0.00593514 0.00458335 -0.00051382
N 3.73360785 10.54563439 12.77316733 0.00541056 -0.00008079 0.00493766
N 0.64005306 13.02895632 10.73903945 0.00231767 -0.00147584 0.00045240
N 0.47845059 15.57223847 15.28665476 0.00237331 0.00807002 -0.00531613
N 3.37967049 11.00251657 17.10971578 0.00358602 -0.00243635 0.00122482
N 2.20714315 18.14919162 12.01392489 -0.00629054 0.00320130 -0.00358950
N 0.09994570 15.26510690 19.49362801 0.00174187 -0.00884793 0.00333876
N 1.62632513 14.03004692 24.33392785 -0.00662209 -0.00626333 0.00230750
N 1.88556518 18.89590472 26.34482014 -0.00303787 0.00370926 0.00586417
N 3.71752687 10.70477556 22.08845531 -0.00226445 0.00115109 0.00400898
N 1.44450154 13.48537309 19.87074965 0.00324805 -0.00395652 0.00011139
N 0.19890829 15.89115732 24.61568231 0.00848769 -0.00305515 -0.00104073
N 3.24180320 10.76073156 26.13459376 -0.00001222 0.00736276 -0.00461154
N 2.18340776 18.23737561 21.62937712 -0.00037847 -0.00233476 0.00228618
N 0.38003041 25.05647397 1.30738873 -0.00591850 0.00902497 0.00093531
N 1.67822255 23.66957353 5.63707171 0.00325316 -0.00398218 -0.00443799
N 1.98892413 28.53962987 8.21254560 0.00156276 0.00155544 0.00205907
N 3.48862560 20.22797257 3.60927796 0.00073509 0.00489128 -0.00505442
N 1.53578954 23.01814499 1.63343392 -0.00065783 -0.00877400 0.00115415
N 0.25795814 25.51981900 6.01647968 -0.00013139 0.00248030 -0.00611471
N 3.18172330 20.81733212 7.68282808 -0.00052987 -0.00167063 -0.00116168
N 2.24711167 27.81951013 3.47691102 -0.00101146 0.00021225 -0.00422814
N 0.00612628 25.03267548 10.33514199 0.00253134 -0.00274725 0.00241609
N 1.60713006 23.55340346 14.69402638 -0.00339670 0.00094464 0.00213960
N 1.85693454 28.43515420 17.25208828 -0.00335103 -0.00132446 -0.00391650
N 3.07342021 20.26777297 12.25798218 0.00324429 0.00179322 0.00011823
N 1.19334632 23.15454946 10.68953653 0.00118861 -0.00068817 -0.00471468
N 0.35592062 25.52072865 15.19106061 -0.00052432 -0.00621331 0.00271765
N 3.44569402 20.48271675 16.65204266 -0.00361225 0.00140809 0.00811381
N 2.46240729 27.99094571 12.28305558 -0.00278493 0.00189386 0.00070363
N 0.61786056 25.05289110 19.03606275 -0.00072106 -0.00032710 -0.01020791
N 1.56426777 23.60768285 23.90331289 -0.00577742 -0.00651973 -0.00226244
N 2.17991030 28.50707849 26.04495499 0.00530245 -0.00690022 -0.00256855
N 3.26082021 20.27467574 21.56195829 0.00135503 -0.00761236 0.00078056
N 1.42475137 23.00941816 19.58263952 0.00735330 0.00127850 -0.00152698
N 0.24832749 25.48323642 24.13717692 -0.00347708 0.00206375 0.00008015
N 3.34671953 20.62427819 25.86388386 0.00269301 -0.00234649 -0.00186191
N 2.52401218 27.69877343 21.13330388 -0.00193353 0.00024641 0.00093038
N 3.81164034 5.52553616 1.01350176 0.00591912 0.00394884 0.00153472
N 5.55080036 4.31920592 5.95226291 0.00293679 0.00319386 -0.01030367
N 5.62835550 8.98429393 7.65954195 0.00201524 0.00955771 -0.00751761
N 7.00649974 0.70457669 3.31452726 -0.00070775 -0.00448000 -0.00071078
N 5.02390094 3.66572456 1.72201878 -0.00217657 0.00619410 0.00658133
N 4.06487315 6.14373668 6.08490785 -0.00462618 -0.00107218 -0.00557263
N 6.73631935 1.22125175 7.42150320 0.00832786 0.00606511 0.00689947
N 6.01518278 8.65281979 2.76774514 -0.00589858 -0.00166563 -0.00429450
N 4.03501511 6.02845837 10.26885966 0.00439666 -0.00557840 0.00112691
N 4.87033299 4.36490873 14.85525596 -0.00465972 0.00134150 -0.00168899
N 5.72987885 9.29077824 16.80614278 0.00010502 0.00163768 0.00562485
N 7.02763374 0.78070062 12.47410058 -0.00342145 0.00302345 -0.00012629
N 5.14037462 4.05150901 10.72225444 -0.00334507 -0.00092085 0.00162962
N 3.99293083 6.44589181 15.33798253 0.00083778 0.00053141 -0.00586361
N 6.87867078 1.25691134 16.65634784 -0.00266313 -0.00083007 0.00613859
N 6.31993722 8.71279381 12.09306378 -0.00607638 0.00111002 -0.00281605
N 3.78746694 5.73493962 19.21791483 -0.00275521 -0.00250453 0.00180733
N 5.73301887 4.24550594 23.27842794 -0.00888110 0.00166916 0.00065747
N 5.72549484 9.03068163 25.69291257 0.00046696 -0.00573427 0.00119198
N 7.22136325 0.58403353 21.06734114 -0.00157216 0.00319363 0.00156683
N 4.97230202 3.71551960 19.45559356 0.00007467 0.00470833 -0.00174939
N 4.15614190 5.71915039 24.15703361 -0.00172617 -0.00060494 -0.00562530
N 6.80893890 1.18791713 25.44767379 0.00513614 -0.00275453 -0.00232410
N 5.89092465 8.84350886 20.78028032 0.00422858 0.00211370 -0.00195234
N 3.52951369 14.89464492 1.74549620 -0.00285596 0.00419474 0.00459598
N 4.97624639 13.60173388 5.35174739 0.00758610 -0.00315160 -0.00467769
N 5.59223807 18.76272772 7.93762841 0.00320089 -0.00177437 -0.00165108
N 7.33255909 10.50700775 3.01416181 -0.00312695 0.00109649 -0.00093875
N 5.16172200 13.14881318 1.54939794 -0.00786315 -0.00187836 -0.00657757
N 4.14560283 15.60688809 6.04689585 0.00166893 -0.00072105 -0.00269110
N 6.97450889 10.79889786 7.30704048 0.01088168 0.00069941 0.00183940
N 5.95476199 18.54015414 3.02764363 0.00747328 -0.00121659 0.00074572
N 3.78948697 15.23340149 10.31902619 0.00086317 -0.00382794 -0.00278649
N 5.50054939 13.82758925 14.78302032 -0.00147215 0.00015578 0.00462611
N 6.06408671 18.58527546 16.89194813 0.00014805 -0.00115483 -0.00120518
N 7.74293959 10.57841775 12.13217059 0.00028547 0.01447335 -0.00154228
N 5.31760040 13.51826227 10.53494506 -0.00388655 0.00021437 -0.00868330
N 3.95634661 15.57392714 14.93853744 -0.00487002 0.00225479 -0.00007527
N 7.27970889 10.91947885 16.28772876 0.00105831 0.00007621 0.00314420
N 5.74493682 18.09353131 12.11855734 0.00146053 0.00102192 0.00473717
N 3.59584699 15.24036160 19.49773433 -0.00419498 -0.00619396 -0.00621560
N 5.00416955 14.27713731 24.49794207 0.00087923 -0.00281787 -0.00647483
N 6.00988244 18.70088134 25.98940734 0.00284276 -0.00071521 -0.00315867
N 7.58873851 10.40612959 21.06819976 0.00210074 -0.00173988 0.00351290
N 5.22750018 13.49921070 19.64104291 -0.00095493 0.00384570 -0.00297542
N 3.61188551 16.07327799 24.17380676 -0.00155482 0.00039736 -0.00639140
N 6.72609526 10.98540530 25.10336227 0.00227824 0.00740316 -0.00908718
N 6.21932192 17.72903790 20.66845300 0.00388450 0.00367112 0.00462093
N 3.75439854 25.15476674 0.77196768 0.00190325 0.00196014 -0.00258890
N 5.40304239 24.00378944 5.42065884 -0.00270882 0.00583874 0.00157656
N 5.62420273 28.53645248 8.07904585 0.00454032 0.00015355 -0.00336816
N 6.99536464 20.44298809 3.98005966 0.00338785 -0.00358823 -0.00232117
N 4.90162885 23.34893971 1.57017065 -0.00557567 -0.00735977 -0.01135742
N 3.80393970 25.61398467 5.90318364 -0.00295786 -0.00012143 0.00794365
N 6.86992647 20.78353274 7.81403455 -0.00581020 -0.00275257 0.00288203
N 5.85591532 27.93577354 2.93030167 -0.00350613 -0.01137594 -0.00631032
N 3.46738395 25.14045146 9.81065717 0.00347931 0.00234755 -0.00110276
N 5.23392711 23.72334974 14.30049148 0.00127377 -0.00030137 -0.00494256
N 5.73613875 28.50864473 16.75107220 0.00127642 0.00249746 -0.00512546
N 6.26749903 20.28178210 12.63474584 0.00094932 -0.00209289 -0.00369955
N 4.95740431 23.35272675 10.40412972 -0.00449556 0.00021894 -0.00620778
N 3.88527605 25.59520949 14.73314807 0.00491397 -0.00364889 0.00884857
N 6.93335669 20.60337947 16.48820870 -0.00248823 -0.00664927 0.00574225
N 5.90602661 27.97541077 12.36751031 0.00201752 -0.00180239 -0.00041173
N 3.83386932 24.85801341 19.07909936 0.00414940 -0.00124203 -0.00090887
N 5.00534285 23.40657854 23.63504884 0.00237903 -0.00022209 -0.00140793
N 5.40675124 28.42569311 25.62199438 0.00326029 0.00303572 0.00077885
N 7.18893021 19.77038693 21.05588780 -0.00635178 0.00878705 0.00355096
N 5.35119080 23.11937808 19.46921655 -0.00164522 -0.00417893 0.00826352
N 4.02306390 25.38729920 24.09056565 0.00372978 -0.00117653 0.00134881
N 7.04294883 20.72729134 25.76533278 -0.00202878 0.00131980 -0.00395150
N 5.79190532 28.01657053 20.90940702 -0.00555865 -0.00400524 0.00262060
N 7.38765536 5.37155382 1.19173664 0.00067228 0.00189025 0.00118430
N 9.11525728 4.20662872 5.61420271 0.00096626 0.00082252 0.00215353
N 9.19972284 9.02766091 7.84621811 -0.00589864 0.00075019 -0.00037084
N 10.82992719 1.04543903 3.07966812 -0.00085889 0.01330985 0.00423786
N 8.80803564 3.50965059 1.07055343 -0.00155914 -0.00731646 0.00397410
N 7.88948932 6.21443007 5.75015874 0.00056153 0.00256558 -0.00195647
N 10.55300100 1.12400952 7.71810430 0.00403138 0.00008185 -0.00449071
N 9.14000797 8.27641273 3.28925573 -0.00081333 -0.00199385 0.00149025
N 7.50880333 5.56207888 9.94730487 0.00690816 0.00167221 -0.00589614
N 8.55417756 4.03303260 14.05318272 0.00022530 -0.00253315 -0.00066567
N 9.80887085 8.77808956 16.76026416 -0.00451406 -0.00240538 -0.00697996
N 10.51949484 0.69850443 12.89939427 -0.00016162 -0.00100285 -0.00376016
N 8.68505307 3.58532711 10.06542217 -0.00263469 0.00096189 -0.00012987
N 7.52860237 5.88849388 14.90302800 0.00411367 0.00244349 0.00438698
N 10.76057273 1.27000865 16.39089224 0.00324334 -0.00890090 0.00407417
N 9.73899302 8.38282660 11.97358128 0.00644202 0.00196273 -0.00745563
N 7.80914714 5.61626664 19.25621913 -0.00209023 0.00100473 -0.00311991
N 9.17466753 4.26098196 23.98298309 -0.00873938 0.00017775 0.00035996
N 9.51179209 9.13973464 25.93253017 -0.00536645 -0.00032083 0.00014141
N 11.20885218 0.45540255 21.36473232 -0.00098873 0.00213017 -0.00228632
N 8.74807865 3.57229922 19.46871884 -0.00265017 0.00455093 0.00058297
N 7.84338534 6.12438829 24.15967866 -0.00387946 0.00437119 -0.00360374
N 10.73502372 1.04659993 25.65082300 -0.00547169 0.00284564 -0.00041915
N 9.88626849 8.64256159 20.85280451 0.00025176 -0.00270821 0.00111662
N 7.68342768 15.31330825 1.01967701 0.00689505 -0.00172541 -0.00131136
N 8.98462973 14.05928639 5.60002029 0.00172518 -0.00066785 -0.00715616
N 9.46091370 18.78567635 7.81341543 0.00073562 0.00223941 -0.00291116
N 10.60969098 10.01643491 3.35719723 0.00629277 -0.00315609 -0.00192751
N 9.05091007 13.42807111 1.13232839 -0.00254433 -0.00594129 0.00263535
N 7.98025214 16.05977993 5.74235747 0.00172366 0.00640795 -0.00759687
N 10.43234236 10.90236193 7.47709004 0.00005384 -0.00692062 0.00580178
N 9.62086563 18.15621193 2.86680779 0.00582695 0.00212858 0.00151236
N 7.36720064 15.67900647 9.46740963 -0.00387536 0.00227245 -0.00164806
N 9.63586825 14.02941027 14.01984022 0.00024403 -0.00247707 0.00171246
N 9.55571062 18.62279041 16.81088407 -0.00124833 0.00270014 -0.00159250
N 10.94467287 10.23396408 12.23172987 -0.00523887 -0.00013222 -0.00326035
N 8.47042774 13.69627427 10.05180045 -0.00287882 -0.01209468 0.00265242
N 8.23006051 15.73265362 14.77287098 -0.00228615 -0.00046386 0.00436082
N 10.86566765 10.84920618 16.39451039 0.00582899 -0.00120866 -0.00223607
N 9.62388552 18.10137628 12.46689029 0.00366757 -0.00216456 0.00431512
N 7.54803748 15.25288562 18.71302147 -0.00039967 -0.00445595 -0.00177285
N 8.36179883 14.01847816 23.42776254 -0.00071876 0.00151454 -0.00731348
N 9.52809290 18.71984370 25.81112209 0.00265920 -0.00074232 0.00956898
N 10.90966526 10.58888931 21.44255786 -0.00011564 -0.00227043 -0.00075783
N 8.80560386 13.53061351 19.55405222 -0.00578538 0.00141451 -0.00150848
N 7.31093091 16.04078647 23.71293257 -0.00406071 0.00481249 -0.00079793
N 10.67086236 11.06948774 25.69498062 0.00038428 -0.00495769 -0.00226621
N 9.68196650 18.11048983 20.63959751 -0.00278374 0.00003814 0.00454582
N 7.37827421 24.87875406 1.20205355 -0.00457997 0.00392429 0.00201780
N 8.72867806 23.67025293 5.59437243 -0.00235707 0.00149621 0.00356429
N 9.19933031 28.46214294 7.81429874 -0.00792762 -0.00381773 0.00524886
N 10.69292081 20.09208212 3.32988906 -0.00444078 0.00332380 0.00072754
N 8.73589493 23.00590178 1.39193107 -0.00109147 -0.00219481 -0.00273258
N 7.78233815 25.61713836 6.05334880 0.00850839 -0.00317213 0.00010749
N 10.49075402 20.76955055 7.50568058 0.00260520 0.00491608 -0.00626623
N 9.47749017 28.35566724 2.86174940 -0.00391805 0.00081121 0.00020854
N 7.22281359 25.10612249 10.25998751 0.00300074 -0.00404206 -0.00147221
N 8.83356484 23.75933115 14.73355234 -0.00396105 -0.00241253 0.00630559
N 9.62293303 28.50269516 16.91385459 -0.00205648 -0.00181347 0.00100904
N 10.26462909 20.36083584 12.60341272 -0.00158044 0.01019782 0.00526061
N 8.54061869 23.26328950 10.56679660 -0.00412393 0.00175031 -0.00512382
N 7.40327759 25.64597883 15.02709537 -0.00202499 0.00483694 -0.01089339
N 10.55817906 20.65073595 16.91911787 0.00293560 -0.00389182 0.00183356
N 9.43479715 27.95483538 12.24056394 0.00121600 0.00321730 0.00782361
N 7.61654154 24.95492444 19.34937368 -0.00379152 -0.00267909 -0.00171758
N 8.81832489 23.78424328 23.69625969 -0.00773213 0.00635675 -0.00315823
N 9.40143380 28.31460836 25.89763094 0.00305620 -0.00053082 -0.00007985
N 10.42288686 20.15709034 21.47107819 0.00502770 0.00180001 -0.00528670
N 8.95900393 23.09528404 19.65081517 0.00416839 -0.00367099 0.00659946
N 7.97317695 25.87266956 23.94702446 -0.00434046 0.00745003 0.00128200
N 10.62952638 20.78323873 25.57962130 0.00232140 -0.00603686 0.00325988
N 9.58645483 28.07207861 20.84194788 -0.00162447 -0.00550252 -0.00549149
N 11.02148638 5.44728184 1.24675630 0.00288466 0.00435319 0.00009579
N 12.75501383 3.90939904 5.89833865 0.00116587 0.00609185 0.01038723
N 12.89632614 8.91912169 8.39699438 0.00118291 0.00519408 0.00038643
N 14.88809817 0.49627610 2.94890423 -0.01178819 0.00471388 -0.00464542
N 12.46495432 3.72109716 1.30466290 -0.00377953 0.00134512 -0.00008350
N 11.55550871 5.88522705 6.10115951 0.00595567 -0.00430340 -0.00451759
N 14.13897710 1.08209968 7.51148042 0.00492820 -0.00448643 -0.00255703
N 13.25599779 8.23277186 3.29543137 0.00277556 -0.00996274 -0.00335048
N 11.17221337 5.40713478 10.24060982 -0.00218273 -0.00080209 -0.00402452
N 12.86587116 3.98633042 14.65465303 -0.00457957 0.00425422 -0.00422877
N 13.24277255 9.12227308 17.47196678 0.00442217 -0.00007419 -0.01034742
N 14.17888973 0.51813361 12.51356144 0.00378852 -0.00135347 0.00572098
N 12.36028673 3.45823512 10.64005218 -0.00716853 -0.00337957 -0.00511292
N 11.62520388 5.97396718 14.87941286 0.00400971 0.00253271 0.00015839
N 14.33003273 1.15408025 16.69079127 -0.00036105 -0.00372128 0.00287068
N 13.30984676 8.55622796 11.96100313 -0.00123615 -0.00030427 0.00272801
N 10.96509673 5.49581419 19.17159588 0.00198153 0.00289931 -0.00312150
N 12.49237159 4.04909573 23.76163137 -0.00179893 -0.00197025 -0.00130458
N 12.68727949 8.87535624 26.84469025 0.00328364 -0.00158544 0.00525341
N 14.91616935 0.59220025 21.58620175 0.00558046 -0.00046125 -0.00093625
N 12.55729589 3.76076526 19.32597280 0.00999468 -0.00267332 -0.00245217
N 11.56772563 6.13362818 24.05566936 -0.00507324 0.00862678 -0.00407896
N 14.30282338 1.16864451 25.50489478 -0.00095786 -0.00602071 -0.00005141
N 13.54167166 8.79032164 21.58409833 0.00144569 0.00132023 0.00203379
N 11.47041967 15.56243899 1.11446418 0.00397760 0.00048347 -0.00264928
N 12.30710112 13.65493733 5.88691200 -0.00028196 0.00022096 -0.00273038
N 13.40090123 18.76448132 8.07884186 0.00194961 0.00722083 0.00905720
N 14.49224808 10.05970125 3.87998228 -0.00235906 -0.00667303 0.00601914
N 12.25697058 13.43082114 1.66506191 0.00172384 -0.00071806 0.00214649
N 11.18345220 15.70562586 6.12176190 -0.00089957 0.00330137 -0.00954605
N 14.18822006 10.73864039 7.85837319 -0.00006032 0.00691880 -0.00374455
N 13.51142396 18.05554347 2.86027601 -0.00110752 0.00338191 0.00266758
N 11.49088789 15.39403485 10.34251410 -0.00348706 0.00664755 0.00140812
N 13.10667716 14.01026158 14.72307671 -0.00521826 0.00413651 0.00764968
N 13.36543714 18.49996535 17.38981271 0.00244207 -0.00410839 -0.00782849
N 14.31133938 10.40732864 12.84863816 0.00423369 0.00478871 -0.00220071
N 12.43632404 13.29114808 10.47154091 0.00203950 0.00251731 -0.00036135
N 12.00367110 15.94411152 15.23694229 0.00409636 -0.00112498 -0.00413303
N 14.43052598 11.08979714 16.86198662 -0.00185357 -0.00360474 -0.00542577
N 13.24028763 18.46533084 12.22860298 -0.00032020 -0.00453581 -0.00750685
N 11.37056116 15.46983370 18.71533334 0.00108051 -0.00146323 -0.00299048
N 12.61208079 13.94532174 23.86117529 0.00155056 0.00495553 0.00802805
N 12.98862178 18.82843642 25.87429222 0.00654962 -0.00221025 -0.00697764
N 14.66405908 10.50793509 22.65939747 -0.00305345 -0.00038480 -0.00784302
N 12.29986398 13.51880009 19.38826492 -0.00016442 -0.00289273 0.00280241
N 11.09499058 15.80695830 23.87428852 0.00075467 0.00603199 -0.00418268
N 14.09464870 10.41884493 25.83050774 0.00007523 0.00566261 -0.00908660
N 13.12528288 17.99460339 21.25427389 -0.00083014 0.00699423 -0.00479573
N 11.54780257 24.81485490 0.96061906 0.00113353 -0.00523238 -0.00486386
N 12.02959294 23.77809122 5.53209072 -0.00043038 -0.00052880 0.00442768
N 13.02629184 28.32057503 8.01475105 -0.00427667 -0.00630792 0.01126092
N 14.42869483 20.18021334 3.20171189 0.00160505 -0.00620961 0.00172412
N 12.53977830 22.79240240 1.51008820 -0.00380430 -0.00139331 -0.00585867
N 11.07111896 25.93821745 5.85834767 -0.00525037 -0.00740387 0.00201621
N 14.17037540 20.76574472 7.32456070 0.00014264 0.00147304 -0.00420611
N 13.22098952 28.06248631 2.95938313 0.00430636 0.00755996 0.00513815
N 10.97695726 25.08985331 10.31461811 -0.00376985 -0.00687282 -0.00583774
N 12.49320403 23.41182351 14.65388448 -0.00823017 -0.00599230 0.00328894
N 13.33894233 28.26022343 17.19303195 0.00125661 0.00414311 0.00253053
N 14.92154245 20.02669438 12.33940082 -0.00165994 -0.00193383 -0.00215060
N 11.89301480 22.95739408 10.48441318 -0.00295809 -0.00531871 0.00410258
N 11.90355284 25.49808151 15.27684980 0.00575817 0.00268809 0.00091909
N 14.71573997 20.34167218 16.67497771 0.00379170 0.00074540 0.00128120
N 13.25620317 27.61907303 12.24729069 0.00014912 0.00242996 0.00208285
N 11.23651292 25.13298530 19.26513114 0.00532658 0.00346645 -0.00725688
N 12.72030898 23.78411287 23.78747111 0.00468256 0.00222926 -0.00153454
N 13.27294663 28.33463482 26.04150627 0.00445231 -0.00108150 -0.00191617
N 14.30336439 20.04163522 21.32673810 0.00071949 -0.00071024 -0.00414702
N 12.64147817 23.20304086 19.68267532 0.00147701 -0.00286890 -0.00155562
N 11.40372314 25.52904197 24.15090089 -0.00395867 -0.00653132 0.00565126
N 14.28671517 20.70312821 25.63914574 -0.00077479 0.00078735 0.00127064
N 13.74447919 27.87285680 21.17196267 0.00077456 -0.00334113 -0.00482655
N 14.89688311 5.67107441 0.63573626 0.00738411 0.00063060 -0.00520781
N 16.65832008 4.25801086 5.68305871 -0.00131473 0.00632298 0.00731481
N 17.13230106 8.85473103 8.15283118 -0.00279231 0.00372030 -0.00041310
N 18.02864181 0.82842222 3.48635955 0.00118093 -0.00742101 -0.00134496
N 16.24061304 3.88463150 1.05796812 0.00492388 0.00130642 0.00603010
N 15.13020398 5.97075020 6.03541572 0.00181198 -0.00344789 0.00778548
N 17.69544792 1.18971115 7.53243765 -0.00185428 -0.00369549 -0.00203325
N 16.81068362 8.33447022 2.86703011 -0.00148392 0.00215773 0.00095534
N 14.83751601 5.75718024 10.11795982 0.00794074 0.00841308 -0.00103954
N 16.34821950 4.12122707 15.05872619 -0.00018301 0.00174340 -0.00062198
N 16.78099940 8.93975600 17.27523569 0.00550618 0.00062869 -0.00276625
N 17.99727622 0.63521066 12.40200720 -0.00190170 -0.00260184 0.00254551
N 16.05895273 3.81567457 10.49752460 0.00290733 0.00708424 0.00018830
N 15.24502508 6.21437610 14.97386132 0.00280182 -0.00576857 0.00240625
N 18.04684970 1.30807528 16.78347095 0.00364958 0.00662839 -0.00323075
N 17.06118971 8.50870194 12.24706564 -0.00002660 0.00159500 -0.00019979
N 14.94163053 5.79461524 19.43590518 -0.00211570 0.00180601 -0.00174301
N 16.48458678 3.92434747 22.92430571 0.00421501 -0.00110003 -0.00565673
N 17.46811890 9.01545526 26.07370333 0.00266036 0.00636429 0.00236118
N 17.87470282 0.73964670 21.28093954 -0.00581510 0.00242604 0.00377416
N 16.12043426 3.78673146 19.59902991 0.00196367 -0.00269528 -0.00340990
N 15.42879386 5.71811368 24.07526637 0.00374131 0.00586455 0.00079261
N 17.85618727 1.17662908 25.40794536 0.00550535 -0.00507308 0.00137315
N 17.06429042 8.81860490 21.17764161 -0.00180423 0.00305210 -0.00176523
N 14.91247169 15.05070459 1.43651860 -0.00083830 -0.00083822 -0.00613488
N 16.35981959 13.84323725 5.84968369 -0.00234971 -0.00342376 0.00960690
N 16.51631182 18.75951387 7.70153232 0.00314857 -0.00198183 0.00006409
N 17.87098325 10.30606869 3.59824072 0.00380011 -0.00453949 -0.00471025
N 16.07214986 13.09317522 1.88476524 0.00331472 -0.00387683 -0.00677401
N 15.27912620 15.82639843 5.89963589 -0.00050071 0.00088545 0.00526006
N 17.93281519 11.04238796 7.73307307 -0.00473379 0.00010242 -0.00094259
N 17.10535956 18.16943046 2.85531840 0.00756726 0.00124324 -0.00194142
N 14.76317289 15.25637772 10.42341186 -0.00065463 0.00231405 -0.00118542
N 16.43536808 13.64349187 14.57795437 -0.00094340 0.01438786 0.00034747
N 17.32301597 18.75684138 17.08076660 -0.00172194 0.00452438 0.00062273
N 18.35728640 10.36408935 12.50039098 -0.01060106 -0.00486490 -0.00028120
N 15.92458585 13.30649641 10.90482398 0.00069045 0.00194946 0.00101019
N 15.64301133 15.67112760 15.30269594 -0.00223238 0.00411584 0.00358748
N 18.09518549 10.84147114 16.69964202 -0.00350790 -0.00530006 -0.00666618
N 17.09983144 18.06552834 12.12158083 -0.00452611 -0.00370631 0.00553343
N 15.44556955 15.10694211 19.55537535 -0.00421202 -0.00763246 0.00119773
N 15.98307288 13.85537106 23.94678831 0.00103820 -0.00129770 0.00471769
N 16.52556386 18.55326206 26.16530850 0.00072786 -0.00004749 -0.00290654
N 18.74097812 10.49778063 21.71343164 0.00655813 0.00405516 -0.00008068
N 16.16066747 12.91776906 19.69067200 0.00476139 0.00757759 0.00178763
N 14.80145662 15.86569144 24.42537882 -0.00183803 0.00450334 0.00660269
N 17.77734667 11.28124680 25.89170669 0.00203530 0.00074580 -0.00797236
N 16.91205077 18.41769619 21.45694830 0.00370884 -0.00312417 0.00599648
N 14.86983053 25.05734121 1.01630251 -0.00497154 -0.00260640 -0.00080133
N 16.01822588 23.59493273 5.57042075 0.00096685 -0.00570339 0.00232350
N 16.36354692 28.51580949 7.61513319 0.00143135 0.00288046 -0.00283782
N 17.99180325 20.32889088 3.07182074 -0.00554228 -0.00240928 0.00501298
N 16.22244076 23.20128418 1.21843073 0.00656414 0.00368048 0.00554013
N 14.78246598 25.47338665 5.88212975 0.00408742 -0.00390066 -0.00348353
N 17.82974613 20.62663129 7.46502846 0.00199533 -0.00734330 -0.00249199
N 17.14797545 27.92149368 2.96358604 -0.00785556 0.00898442 0.00623812
N 14.37098048 24.83333273 10.11019731 0.00194296 0.00178253 -0.00562167
N 15.89814581 23.38610934 14.62313893 -0.00185251 0.00302341 0.00050037
N 16.84301143 28.56754772 16.93923389 -0.00340076 -0.00067910 -0.00737542
N 18.16927619 20.06165266 12.29238223 -0.00332442 0.00998513 0.00156567
N 15.87574898 22.98743137 10.20326794 -0.00054302 0.00366719 -0.00118008
N 14.86212509 25.41957994 15.01207896 -0.00257799 0.00140328 -0.00489065
N 18.15610502 20.85167232 16.52417586 -0.00762944 0.00062934 -0.00302242
N 16.93933395 27.84662282 12.22176370 -0.00097617 0.00363447 -0.00161464
N 14.82288994 25.08641984 19.16722888 0.00242495 0.00098446 0.00087392
N 16.24155329 23.56805803 23.86369291 -0.00388767 -0.00053518 -0.00543697
N 16.59636291 28.54547919 25.91383015 -0.00673257 -0.00056449 0.00040078
N 18.04693877 20.33375739 21.68033617 0.00206656 -0.00338401 0.00207713
N 15.95547875 23.12744908 19.65528969 -0.00164889 -0.00153422 0.00498608
N 15.31399976 25.74160956 24.25009529 0.00335956 -0.00243020 -0.00310490
N 17.22064791 20.72667403 25.38733351 0.00343173 0.00275939 0.00320692
N 17.11484536 27.79224418 20.98021147 -0.00071562 0.00769209 0.00018386
N 18.94551398 5.41740564 1.09054559 0.00377372 0.00374328 -0.00332805
N 19.92559420 4.19719106 5.76062352 -0.00158254 -0.00625325 -0.00075448
N 20.59271190 9.14083221 7.94225317 -0.00021787 0.00248642 -0.00776489
N 21.81551591 0.50277900 3.26295967 -0.00445137 -0.00073617 -0.00641531
N 20.13163451 3.51684327 1.26656577 -0.00208634 0.00143382 0.00118590
N 19.02983551 6.35346630 6.03290150 -0.00001991 -0.00183143 -0.00280531
N 21.40541105 1.29032383 7.51859406 0.00187533 0.00316240 0.00365742
N 20.51185278 8.52533589 3.01408833 -0.00451366 -0.00244890 0.00029217
N 18.65083127 5.46424827 10.27521838 0.00739023 0.00454202 -0.00061899
N 19.48267900 3.95649790 14.76299319 0.00546844 -0.00152101 0.00482638
N 20.48969096 8.93010396 16.93848252 -0.00131170 -0.00331946 0.00567275
N 21.67809003 0.32706357 12.10181436 0.00052358 0.00015764 -0.00090408
N 19.54161722 3.39458802 10.67260091 -0.00209693 0.00635768 0.00945518
N 18.65061161 6.15415525 15.20346335 0.00220896 -0.00621379 0.00128789
N 21.66874770 1.08258122 16.48882332 0.00241369 -0.00189577 0.00052204
N 20.55618137 8.36575341 12.08587070 0.00105920 0.00095156 0.00095139
N 18.69104256 5.62412238 19.26781940 -0.00429296 -0.00072180 -0.00274256
N 20.19285250 4.24210796 23.80930078 -0.00008445 -0.00045910 0.00358900
N 20.37792594 9.03581838 25.66683669 -0.00164025 -0.00057292 0.00521161
N 21.80063016 0.71915937 21.52275181 0.00201839 -0.00238288 -0.00642940
N 19.84914654 3.71318746 19.49768440 0.00346320 -0.00114799 0.00485344
N 18.68353723 6.11148756 23.95530465 -0.00483474 0.00326744 -0.00020578
N 21.85564745 1.55969194 25.74221516 0.00004212 0.00415414 -0.01020341
N 21.13830560 8.58567629 21.03693245 0.00957505 0.00037413 0.00215991
N 18.42073039 15.28008251 1.56523410 -0.00111364 0.00360173 -0.00046866
N 19.37502074 13.99986015 5.79627812 0.01436586 0.00399735 0.00519864
N 20.58558352 18.73290282 8.07511192 0.00285613 0.00284788 0.00898693
N 21.62741106 10.51885930 3.18555670 -0.00374034 0.00032288 0.00013729
N 19.31023486 13.11856991 1.80794674 -0.00049791 0.00245826 -0.00107862
N 18.57891571 16.18521493 6.01983064 0.00108413 -0.00345668 0.00647442
N 21.73138378 11.01301969 7.57006787 -0.00111505 0.00046251 -0.00149709
N 20.44636897 18.36146870 3.15353206 -0.00563768 0.00046823 -0.00399100
N 18.38455579 15.43703563 10.30456572 0.00244757 -0.00104016 0.01031303
N 19.99402739 13.85224044 14.62632663 -0.00106359 0.00257957 0.00241902
N 20.42267556 18.84658720 16.81023460 -0.00881121 -0.00212520 0.00056853
N 21.55101478 10.42432721 12.42771261 0.00291726 0.00198961 -0.00571411
N 19.36892785 13.44339742 10.66567185 0.00316891 -0.00556783 0.00361416
N 19.04815731 15.91507234 15.36952384 0.00432488 -0.00259503 -0.00110205
N 21.53743701 10.97319350 16.46086401 0.00437297 -0.00016663 -0.00814786
N 20.58656388 18.16946499 12.25598158 -0.00460596 0.00031563 -0.00183320
N 18.50868886 15.22167018 19.41577862 -0.00135973 0.00468525 -0.00143412
N 19.90933012 14.18390298 24.18385047 -0.00176759 -0.00281366 0.00615356
N 20.02862338 18.83847222 26.20032921 -0.00138999 0.00346775 0.00093331
N 21.68673148 10.81467294 21.70100858 0.00856167 -0.00625133 0.00301049
N 19.78534629 13.32870942 19.74979152 0.00164147 -0.00860815 -0.00356216
N 18.23252920 15.78317510 24.42331475 -0.00021119 0.00283859 -0.00211643
N 21.40458469 11.11596118 25.76768691 0.00086120 0.00421700 0.00729414
N 20.55433413 18.25411142 21.36047082 -0.00378893 0.00113338 0.00197597
N 18.52963527 24.93062814 1.06364872 0.00288237 0.00093356 0.00373447
N 19.75851892 23.68798729 5.94160055 -0.00508250 -0.00003613 0.00118399
N 20.28998655 28.56282256 7.77880655 -0.00166323 -0.00278531 0.00534392
N 21.72787044 20.21679139 3.59843232 0.00157422 0.00494232 -0.00201247
N 19.84967540 23.11872400 1.44574803 0.00277399 -0.00334209 -0.00836028
N 18.63227433 25.76195477 6.00875266 0.00260720 0.00366048 -0.00218277