1728
Time=80000.00000008 pbc="T T T" Lattice="22.18553053 0.00000000 0.00000000 0.00000000 28.90241376 0.00000000 0.00000000 0.00000000 27.41128711" energy=-10386.72476697 virial="4.18680191 -10.29986186 3.01009758 -10.29986186 7.29878809 -10.51178348 3.01009758 -10.51178348 -36.18134493" stress="0.00252017 -0.00068512 0.00014214 -0.00068512 0.00300912 -0.00058003 0.00014214 -0.00058003 0.00071920" Properties=species:S:1:pos:R:3:vel:R:3
N 0.38791512 5.32912411 1.06269700 0.00261716 -0.00057563 -0.00108099
N 1.28377655 4.07071343 5.55347948 -0.00051234 -0.00108001 -0.00976789
N 2.12716689 9.09084767 7.88305763 -0.00544311 0.00893200 0.00044905
N 3.44471873 0.70702113 3.43935130 0.00160042 0.00159116 0.00135124
N 1.84115056 3.46926070 1.41011087 -0.00280972 0.00731332 -0.00004741
N 0.53008325 6.09762322 6.13197454 0.00746091 -0.00312520 0.00822575
N 3.34079184 1.26369030 7.77271226 -0.00254033 0.00090848 0.00284911
N 2.27455351 8.41901744 2.81745682 0.00363271 0.00292064 0.00251678
N 0.23340765 5.10800717 10.37565668 0.00021378 0.00069038 -0.00207634
N 1.56168788 3.92437081 14.76208467 0.00355625 0.00493331 -0.00155120
N 2.15735088 8.81263032 16.80285323 0.00032889 0.00913178 -0.00029941
N 3.55987010 0.44539443 12.69058175 -0.00128130 0.00012667 0.00807507
N 1.79946651 3.32680151 10.42482930 0.00004360 0.00039324 -0.00242662
N 0.48282902 5.82347374 15.27461987 0.00121881 0.00243076 -0.00145543
N 3.21567422 0.94797011 17.07328545 0.00346823 0.00489424 0.00476563
N 2.01201955 8.47859805 12.04670359 -0.00072112 0.00080590 -0.00342870
N 22.11220119 5.20889155 19.10680701 -0.00410017 0.00064463 0.00194696
N 1.42286688 3.70295565 23.54982571 0.00132120 0.00428719 0.00517477
N 1.96203455 8.94060481 26.18525918 0.00033910 -0.00238391 0.00074265
N 3.59384024 0.66409396 21.49813056 0.00344109 -0.00069506 -0.00109766
N 1.42488361 3.59709199 19.83287308 0.00458268 -0.00282251 -0.00068238
N 0.45627061 5.63922345 24.10428492 0.00403742 0.00164328 -0.00236001
N 3.39876696 1.28636579 25.59294332 0.00226711 0.00441163 0.00648889
N 2.33167467 8.03787039 21.29234867 -0.00241168 0.00368300 0.00037900
N 0.15119442 15.55721217 0.91198799 0.00433907 -0.00382761 -0.00279009
N 1.24617342 14.04621394 5.46138159 -0.00138870 -0.00334040 0.00247634
N 1.73104271 18.69851905 7.69199837 -0.00540287 -0.00510791 0.00461044
N 3.60736248 10.21868672 3.40487686 0.00499437 0.00434048 0.00150589
N 1.12468011 13.56811659 1.52771948 -0.00030723 0.00316360 -0.00052255
N 0.12804428 16.06489761 5.48794319 0.00081004 -0.00037461 -0.00647386
N 3.32401992 11.02039505 7.48911290 -0.00524739 0.00167800 0.00041339
N 1.93759708 18.19787362 3.27959862 0.00449186 0.00296920 -0.00482268
N 0.12787363 15.12607627 10.28493549 0.00156392 0.00150944 -0.00332764
N 1.55790127 13.73429266 14.80448029 0.00438408 0.00090167 0.00337966
N 2.15690441 18.41919581 17.47139029 0.00000136 0.00337838 0.00635597
N 3.66855855 10.13075315 12.30613207 0.00234450 -0.00536075 0.00103472
N 1.62711420 13.43110668 10.49501593 -0.00889187 0.00012105 0.00813368
N 0.12302803 15.53236030 14.77752837 -0.00417218 0.00064389 0.00046901
N 3.29138592 10.78180574 16.82032615 -0.00489520 -0.00108342 0.00060059
N 2.36206282 17.78447692 12.30590274 0.00224902 -0.00133327 0.00362499
N 0.11107869 15.40150626 19.33614744 0.00226771 -0.00221797 -0.00137164
N 1.44379366 13.93202954 24.09127129 0.00467936 -0.00579281 0.00367971
N 2.67920183 18.57535162 26.54161400 0.00072517 -0.00808915 -0.00366345
N 2.92257653 10.27055942 21.50898961 -0.00300970 0.00550955 0.00467508
N 1.43222901 13.48127147 19.85976268 -0.00490805 0.00535429 -0.00006973
N 22.15752880 15.72475716 24.36474987 -0.00094588 -0.00389205 0.00367135
N 3.30332602 10.92562213 25.86749776 -0.00276187 0.00120274 0.00155636
N 2.20122620 17.80972810 21.60613722 0.00239249 0.00095286 -0.00448941
N 0.19840602 24.84805733 1.11399562 -0.00144856 0.00493426 0.00147756
N 1.40115574 23.53244121 5.77645163 0.00246707 -0.00046430 -0.00190416
N 1.86004119 28.45565241 8.09323012 0.00530302 0.00397115 0.00268341
N 3.37352723 20.07426531 3.24320816 0.00939908 0.00831030 -0.00213064
N 1.35473648 22.85774187 1.55117976 0.00162041 0.00007762 -0.00331422
N 0.22068668 25.54657094 6.17926345 -0.00340746 0.00452888 -0.00170612
N 3.20033944 20.49932339 7.55696697 0.00320484 -0.00283052 -0.00604027
N 2.52782496 27.54440193 3.25040315 0.00016223 -0.00284101 0.00581522
N 0.09512180 24.73575197 10.29640865 0.00424591 -0.00479364 -0.00369050
N 1.84349157 23.51807396 15.07752850 -0.00230384 0.00222699 -0.00397091
N 1.67966902 28.10085617 16.99810638 0.00705390 0.00365982 -0.00355268
N 3.34737481 19.83525972 12.71451010 -0.00196881 -0.00264037 0.00507593
N 1.45418047 22.92937313 10.83697355 0.00540229 0.00615925 0.00200652
N 0.04424407 25.17953175 15.14496236 0.00302774 0.00096218 0.00274028
N 3.45668634 20.37676760 16.99048938 -0.00028689 -0.00704257 -0.00318209
N 2.32529657 27.48758233 12.28196261 -0.00006060 0.00142069 -0.01099079
N 0.45307078 24.83285287 19.82496353 0.00213588 -0.00082776 -0.00240552
N 1.80202946 23.25500001 24.11794276 -0.00005130 -0.00008019 -0.00215238
N 2.18757771 28.26872555 26.17581799 0.00194652 -0.00208649 -0.00205267
N 3.27065338 19.92533977 21.89351676 0.00277820 0.00020281 0.00362140
N 1.61950189 22.88509045 20.07249537 0.00002557 -0.00969221 0.00030936
N 0.71119665 25.26694924 24.45667924 -0.00101248 0.00175088 -0.00106894
N 3.62138982 20.52716945 25.75779974 -0.00056287 -0.00142866 -0.00045147
N 2.37080124 27.64539083 21.16074029 -0.00381918 -0.00375658 0.00102806
N 3.87690390 5.60157795 0.89319445 0.00533113 -0.00213734 -0.00111100
N 5.06368459 4.25136735 5.67771458 0.00237809 -0.00051276 -0.00139453
N 5.60211619 8.79851903 7.57609370 -0.00165464 0.00263242 0.00168395
N 6.98171160 0.54306440 3.41577144 -0.00115506 -0.00042804 0.00037791
N 5.21511367 3.79929541 1.52524252 0.00042825 -0.00126256 0.00180471
N 3.61364789 5.99716217 6.01911365 0.00070702 0.00358525 -0.00366594
N 6.83745922 1.40507737 7.77065319 0.00475756 -0.00100721 0.00382560
N 5.76570380 8.48139216 3.26926929 0.00692594 0.00124664 0.00463906
N 4.33754135 5.53947633 10.22335688 -0.00304359 0.00601119 0.00528764
N 5.53338257 4.16640782 14.57646216 0.00091895 -0.00319372 0.00049279
N 5.59255070 8.93146841 16.66866958 0.00388844 0.00544360 0.00907599
N 7.23735367 0.82266616 12.60535119 -0.00226964 0.00269029 -0.00073738
N 5.38232385 3.55360613 10.65022760 -0.00214392 0.00485657 0.00015355
N 4.34974698 6.09490365 14.94151229 -0.00385251 0.00468057 -0.00036735
N 6.79208143 1.44748858 16.81949248 0.00339266 -0.00721703 -0.00457666
N 5.98423709 8.45148892 11.79052937 -0.00103421 0.00442960 -0.00625934
N 3.55366895 5.41622046 18.95553016 0.00573937 -0.00590593 -0.00457002
N 5.61378959 4.35945681 23.86480238 0.00183595 -0.00121684 0.00010184
N 5.73945327 9.04774186 25.91478417 0.00301843 0.00071118 -0.00315265
N 7.37334928 0.67795054 21.85765935 0.00574789 -0.00667962 0.00230645
N 5.10795759 3.80919612 19.44588338 -0.00183417 0.00234616 -0.00194837
N 3.85850733 5.96039603 24.10429251 -0.00364144 -0.00221375 -0.00422520
N 6.96150407 1.36454046 26.14931467 -0.00320904 -0.00197680 -0.00046558
N 5.83032169 8.07849630 21.18588890 0.00195427 0.00161485 0.00703441
N 3.95067584 15.22192599 1.21128047 -0.00073562 0.00119277 0.00320126
N 5.11288697 13.72624512 5.78506792 0.00149901 -0.00601128 -0.00653794
N 5.80859144 18.72946028 8.02602850 -0.00091477 -0.00144459 -0.01018725
N 7.34809811 10.22368238 3.37408106 0.00285234 -0.00229990 0.00748177
N 5.16640644 13.27771170 1.55562914 -0.00325331 0.00125543 0.00299947
N 3.58982644 15.39109826 6.27335865 0.00083217 -0.00255042 0.00165241
N 6.56204019 10.86674078 7.21398629 0.00316632 -0.00586628 0.00138597
N 6.01414882 17.98640365 3.30660631 -0.00241850 -0.00140255 0.00064902
N 4.29722607 15.46673980 10.26403816 0.00210193 0.00553606 -0.00297440
N 5.23144255 13.80707731 14.94787089 -0.00301085 0.00124151 0.00186391
N 5.84253738 18.61763158 17.15151087 0.00369994 -0.00430356 -0.00885542
N 7.16010453 10.41611815 12.05966852 0.00348073 0.01030162 0.00107103
N 4.86381864 13.31023538 10.87234319 -0.00128944 0.00785104 0.00225849
N 3.94800652 15.79868298 15.13728525 0.00180917 -0.00541683 0.00146898
N 6.91422180 10.83306949 16.67312875 -0.00123161 0.00203398 0.00312275
N 6.06037083 18.07328193 12.54878391 -0.00249866 0.00211868 -0.00428774
N 3.87456824 15.10072186 19.58128714 -0.00571214 -0.00265465 0.00389177
N 5.39538527 13.90686444 24.11009369 -0.00413032 0.00126928 -0.00201215
N 6.04005330 18.52781862 26.18981573 0.00011502 0.01135162 0.00945360
N 7.07401584 10.05194380 21.25303964 -0.00186359 0.00184766 -0.00676579
N 5.03723689 13.07812729 19.84245193 0.00693040 0.00493505 -0.00518200
N 3.88610981 15.61331441 24.05429178 0.00469767 -0.00524572 -0.00517236
N 7.07077734 10.88115066 25.87677423 0.00087361 -0.00185125 0.00202891
N 6.17350819 17.61700309 21.75600564 0.00193874 0.00272943 0.00011068
N 4.18866881 24.56043589 1.01764623 0.00782365 0.00174355 0.00290932
N 5.01304970 23.42533836 5.74499922 0.00328477 0.00340250 0.00657654
N 5.83451078 28.28181917 7.97849205 -0.00284096 0.00374756 -0.00641025
N 7.00691394 20.08598958 3.49725577 0.00122880 -0.00187301 -0.00533867
N 5.16326359 22.59166518 1.29740459 -0.00372142 -0.00421719 -0.00407876
N 3.89294433 25.27201573 6.33479681 -0.00081525 -0.00144392 -0.00264065
N 7.18417522 20.59772248 8.17637810 0.00215762 0.00702529 -0.00136296
N 5.58583443 27.64974117 3.10075099 -0.00497436 -0.00028190 -0.00122782
N 3.87919201 24.61457430 10.62380130 -0.00667726 -0.00402284 -0.00242265
N 5.36193445 23.09580060 14.99881859 -0.00024334 0.00233748 0.00361356
N 5.73186478 28.34966057 17.26975057 -0.00304672 -0.00252631 0.00329976
N 7.27170899 20.05448278 12.85471425 0.00547558 -0.00183924 -0.00841486
N 4.98586239 22.54877580 10.82346207 0.00016791 -0.00509444 -0.00100609
N 4.30281247 25.18171975 15.07249744 0.00454702 -0.00084049 0.00048872
N 6.89155267 20.63818683 16.95211416 -0.00545693 0.00235034 -0.00479465
N 6.03173317 27.69562312 12.20087520 -0.00042875 0.00300893 -0.00005436
N 4.22920284 24.60895239 19.38278269 -0.00327855 0.00010833 -0.00536491
N 5.46232703 23.31281539 23.99028920 -0.00037237 -0.00960844 -0.00241534
N 5.90464040 28.27925288 26.65840852 -0.00809578 -0.00020154 0.00265798
N 7.13382502 19.64285036 21.88869470 0.00053011 0.00126227 -0.00335625
N 5.23098191 22.66435828 19.85516931 0.00127923 0.00709701 -0.00268591
N 4.22918663 25.23790796 24.22190839 0.00158317 0.00310555 -0.00386124
N 7.10649042 20.62643150 25.94312243 -0.00065668 0.00184325 -0.00242180
N 5.90471501 27.88392027 21.44106680 -0.00212286 0.00141958 0.00213579
N 7.54614301 5.48832734 1.25323872 0.00203032 0.00435630 -0.00350215
N 8.77205449 4.21056258 5.78470231 -0.00428026 -0.00624065 -0.00352265
N 9.19796754 9.24187046 7.93110431 -0.00317326 0.00075048 -0.00533854
N 10.70008891 0.72779231 3.36208288 0.00149106 -0.00493051 -0.00018919
N 8.86984232 3.65243706 1.60776665 -0.00473493 -0.00731083 -0.00103220
N 7.55483933 6.07898912 6.21521389 -0.00172702 -0.00172784 -0.00027339
N 10.12664418 1.16366968 7.61647143 0.00745060 -0.00777557 0.00178223
N 9.85480353 8.32813901 3.19304845 0.00043157 0.00004180 -0.00017916
N 7.61040138 5.43199888 10.43953281 -0.00294582 0.00548324 -0.00023535
N 8.73953674 4.21444784 14.70051008 -0.00335541 0.00182778 0.00568562
N 9.50644512 8.91748240 17.29681486 0.00088628 -0.00267211 -0.00316145
N 10.80917985 0.60030348 12.41549460 0.00468114 0.00274419 -0.00422158
N 9.07033581 3.66171311 10.56318741 -0.00010351 0.00085101 0.00586034
N 7.75561061 6.30577959 14.83690157 -0.00413949 -0.00120304 -0.00468098
N 10.72905143 1.68618417 16.80000530 0.00141932 -0.00495657 -0.00188829
N 9.58000565 8.64420042 12.11588134 -0.00205996 -0.01067198 0.00071361
N 7.53831705 5.40714852 19.38521516 -0.00560253 -0.00056380 0.00175381
N 9.39815442 4.30170678 23.91017902 0.00166036 0.00222249 -0.00041559
N 9.36324932 8.75769746 26.18423447 0.00339469 -0.00258332 -0.01070830
N 11.14464441 0.78462028 21.62282925 0.00144855 0.00251879 0.00194641
N 9.17678473 3.82630973 19.51681074 -0.00502670 -0.00032426 -0.00106507
N 7.91868590 5.90751123 24.45904072 0.00385353 -0.00456017 0.00145393
N 10.94772828 1.42014756 25.88378305 -0.00301520 -0.00152768 -0.00350437
N 9.54969689 8.35592247 21.25117201 -0.00036281 -0.00263930 0.00889939
N 7.66371435 15.04581980 1.15142713 0.00301128 -0.00871969 0.00419446
N 9.06171510 13.62696541 5.75459603 0.00067539 0.00612690 -0.00514680
N 9.82839157 18.12458632 7.94875617 -0.00196219 0.00121928 0.01035359
N 10.84586357 10.36174747 3.49115036 0.00547345 -0.00360008 0.00471569
N 8.79764396 13.15436071 1.48706354 0.00090407 -0.00300133 -0.00496107
N 7.76154095 15.56997075 6.22004626 0.00322065 -0.00166902 -0.00188505
N 10.73551066 10.93545106 7.79905498 0.00390631 -0.00476332 0.00079189
N 9.57001778 18.04760688 3.32729112 0.00480732 0.00494894 0.00585236
N 8.08636983 15.22168473 10.25996832 0.00353174 -0.00276116 0.00750123
N 8.76673642 13.69572451 15.13102370 0.00119166 0.00686621 -0.00217767
N 9.86192023 18.39806133 17.24629939 0.00496245 -0.00187712 0.00221054
N 10.57256494 10.59527306 12.83756943 -0.00103886 -0.00067756 0.00018884
N 8.99166474 13.10731375 10.55914610 -0.00222653 -0.00456056 0.00004403
N 7.81815555 15.74955106 15.20038836 0.00237373 -0.00277135 -0.00401950
N 10.37316800 10.98779426 16.81116914 0.00067327 0.00050458 0.00288969
N 9.57957532 18.22211881 12.11572299 0.00188351 0.00387028 0.00262186
N 7.55806143 14.97239071 19.60150020 -0.00141403 -0.00072649 0.00441364
N 9.26929882 13.72101815 24.16397336 0.00260179 -0.00422823 -0.00509133
N 9.35462277 18.46958233 26.35811760 -0.00657931 -0.00185001 0.00417622
N 10.98965520 10.10886706 21.96317864 -0.00058879 0.00669707 -0.00295355
N 8.63277338 13.05053845 19.76670598 -0.00096864 -0.01150870 -0.00269057
N 7.84498350 15.54718312 24.38143854 0.00402206 0.00029998 0.00287813
N 10.96826214 10.31073653 26.33020349 0.00099079 0.00313005 0.00236919
N 9.67442927 17.73798353 21.38209944 0.00053607 -0.00065082 -0.00751605
N 7.67024177 24.68326578 1.53708878 -0.00250024 -0.00143438 -0.00603739
N 9.02728588 23.45555342 5.96296138 -0.00106526 -0.00027509 0.00404694
N 9.01217227 28.12006346 7.72288768 -0.00533238 0.00899766 -0.00402652
N 11.03866101 19.92820721 3.22626452 0.00745880 -0.00194198 -0.00395396
N 8.91653209 22.74581733 1.41043949 -0.00093357 0.00545187 0.00606831
N 7.46222693 25.17804063 6.28637146 -0.00119010 -0.00420327 -0.00097884
N 10.50911227 20.30848272 7.71681014 0.00352880 -0.00297656 0.00117589
N 9.39883826 27.85553825 3.44870931 -0.00015091 -0.00657050 0.00343466
N 7.36692681 24.71588768 10.22771444 -0.00438345 -0.01255993 0.00185655
N 8.93728048 23.52565754 15.13782033 -0.00189905 0.00139096 0.00691234
N 9.42710966 28.84322369 17.23313814 0.00136411 -0.00442491 -0.00259831
N 11.09431720 19.98217704 12.58683530 -0.00492714 -0.00256954 -0.00176698
N 8.58828656 22.76530266 10.90588080 0.00030258 -0.00849374 0.00066487
N 7.73471547 25.48920853 15.42350268 0.00578999 -0.00169924 -0.00024782
N 10.91062580 20.37419543 16.74918308 0.00354226 0.00845625 0.00419802
N 9.60199987 27.61354037 12.26240219 0.00367041 0.00489526 0.00031396
N 7.55733420 24.58319706 19.73086122 -0.00256307 -0.00183260 0.00490159
N 9.01935495 23.44191990 24.31668441 0.00172730 0.00613274 -0.00273777
N 9.78686143 28.40782498 26.18058939 -0.00328472 0.00309536 0.00677378
N 10.73343554 19.72639567 21.82832405 -0.00086180 -0.00043522 0.00349232
N 8.96947706 22.71095023 19.85093328 0.00038913 0.00260693 -0.00228020
N 7.95370492 25.46357459 24.44482989 0.00738587 -0.00724840 0.00367802
N 10.68734039 20.29360310 25.95868495 0.00107749 0.00089456 -0.00027338
N 9.75647405 27.78087172 21.49201978 -0.00147645 0.01179944 0.00243381
N 11.41534257 5.65880062 1.22147170 0.00853822 -0.00577030 -0.00068746
N 12.25522893 3.89494451 5.86995091 0.00153536 0.00327723 0.00308527
N 13.09248076 8.85523818 8.09413041 -0.00696757 -0.00343383 -0.00269418
N 14.51505762 0.34143352 2.87823445 0.00064652 -0.00293008 0.00398653
N 12.46278295 3.59640017 1.42007403 -0.00122568 -0.00210394 0.00049338
N 11.31634472 5.98081952 6.12131717 -0.00639825 -0.00059487 -0.00714740
N 14.09982432 1.24443747 7.42328897 -0.00055267 0.00150186 0.00478857
N 13.36222495 8.48402909 3.45364937 0.00165068 0.00347736 0.00218227
N 11.31082553 5.85929733 10.07935095 -0.00437127 -0.00065273 -0.00015237
N 12.89164355 4.22501120 14.45010606 -0.00602042 0.00108281 -0.00367071
N 13.62712017 8.84108583 17.22891376 -0.00311975 0.00370380 -0.00412073
N 14.41186957 0.57670450 12.21048644 0.00887170 -0.00036468 -0.00559704
N 12.09048849 3.74148643 10.43626824 0.00648646 0.00245307 -0.00217905
N 11.69057024 6.00417599 14.85054271 0.00397318 0.00022411 -0.00142442
N 14.60361759 1.42966676 16.80515537 0.00246683 -0.00034403 0.00125801
N 13.13349108 8.59820148 12.24718041 -0.00797313 -0.00255034 -0.00155193
N 11.44837539 5.77095448 19.12645621 0.00212965 0.00062412 0.00588453
N 13.20173707 4.27245766 23.86511923 0.00221719 -0.00240273 0.00252417
N 13.59312132 8.81528171 26.80166561 -0.00550382 0.00169485 0.00152509
N 14.72774561 0.77266254 21.67435159 0.00385650 0.00536103 -0.00043487
N 12.47470387 3.73231188 19.54355308 0.00190334 0.00601843 0.00071885
N 11.67176938 5.95622047 24.40492666 0.00068443 -0.00647203 0.00894593
N 14.77146702 1.50898007 25.87696282 -0.00123171 0.00177443 -0.00312935
N 13.77928799 8.33713572 21.51807023 -0.00370007 0.00276697 -0.00149917
N 11.20985379 15.00659796 1.21567670 -0.00428366 -0.00233964 0.00502446
N 12.81359712 13.45546960 5.44912439 0.00014650 0.00125178 0.00363044
N 13.17130217 18.78509597 8.01350531 0.00068211 -0.00252672 -0.00165659
N 14.87939474 10.15374169 3.62378928 0.00395333 0.00178209 -0.00126199
N 12.38715819 13.01680821 1.29221959 0.00446615 -0.00347660 -0.00280050
N 12.35864953 15.60148004 5.89398103 0.00351003 0.00148896 -0.00060605
N 14.44475751 10.63431779 7.67215831 -0.00293029 -0.00108098 0.00332944
N 13.34169617 18.21416182 2.88706949 -0.00016831 0.00293636 0.00474357
N 11.75349375 15.28111570 10.08624869 0.00328759 0.00634162 -0.00220154
N 12.60421642 13.66008552 14.84203723 -0.00232389 -0.00180196 -0.00023208
N 13.08817697 18.51864006 16.98624662 0.00049580 -0.00373743 0.00251712
N 14.59676859 10.28609666 12.70173871 -0.00051204 0.00794925 -0.00041905
N 12.21831192 13.09312467 10.67248994 0.00500524 0.00185605 0.00033667
N 11.35434823 15.66165283 15.07444141 0.00297312 -0.00201967 -0.00306709
N 14.52989404 11.02547298 16.86720167 0.00543862 -0.00135277 0.00193640
N 13.40569640 18.08022495 12.11905164 0.00112276 -0.00179068 -0.00311385
N 11.37297462 14.78148262 19.32299651 0.00175644 0.00226098 -0.00070064
N 12.68587535 13.51734811 23.81674160 0.00044151 0.00491155 0.00112994
N 13.12084287 18.76757440 26.02606737 -0.00573059 0.00626013 0.00263937
N 14.39490741 10.45950700 22.20764685 0.00341442 -0.00267078 0.00083009
N 12.67447964 12.93379090 19.52056868 0.00440608 -0.00468113 -0.00429867
N 11.48557991 15.42626559 24.15601848 -0.00160095 -0.00167220 0.00421856
N 14.40700609 10.71119027 25.74330327 0.00264535 0.00263188 0.00203432
N 13.25991566 17.92485589 21.23916556 0.00541564 -0.00241402 0.00228377
N 11.07433680 24.76316957 0.93504700 -0.00854119 0.00475268 0.00083634
N 11.96118122 23.16448144 5.42554845 0.00689205 -0.00381663 -0.00705099
N 12.96103843 28.17722089 7.79432618 -0.00278728 -0.00356080 0.00615997
N 14.42495338 20.20943732 3.35311439 -0.00069334 -0.00028115 0.00318644
N 12.47687718 22.93581317 1.38344749 -0.00437766 0.00574525 -0.00220835
N 11.35344201 25.33310425 6.03021962 0.00299363 -0.00328733 0.00114743
N 14.33684721 20.63107677 7.37637616 -0.00225099 0.00337313 0.01171579
N 13.23846430 27.41397240 2.83264015 0.00220056 -0.00146278 -0.01179852
N 11.18760279 24.43929072 10.41258761 0.00199863 -0.00641444 0.00089872
N 12.65171327 23.64429338 14.82153083 0.00385483 -0.00391728 -0.00405131
N 13.12438605 28.45011473 16.92834874 0.00063387 0.00861881 -0.00850769
N 14.68299760 20.06459138 12.48577207 -0.00387120 0.00023128 0.00029691
N 12.45841913 22.56447323 10.32010580 -0.00179222 0.00397078 -0.00246658
N 11.55395523 25.59257731 15.27546786 -0.00014837 -0.00086962 -0.00453697
N 14.40232546 20.40150100 16.73398793 -0.00135226 -0.00936897 0.00410915
N 13.02689528 27.71144529 12.34243622 -0.00339884 0.00418630 -0.00015265
N 11.11122332 24.63580321 19.41226215 -0.00051740 -0.00218865 -0.00291815
N 12.45611192 23.22719565 23.77121754 -0.00003922 0.00526674 -0.00121841
N 13.60841831 28.48625629 26.11890786 -0.00617893 0.00024603 0.00345300
N 14.35608598 19.90266357 21.84246210 -0.00049056 0.00206785 0.00376998
N 12.50754765 22.80905349 19.63567118 0.00191886 -0.00034340 0.00125870
N 11.59959436 25.28093032 24.37457737 -0.00408613 0.00445184 0.00638462
N 14.60849068 20.56806436 25.82716248 -0.00319321 0.00007162 -0.01044485
N 13.38919265 27.81446072 21.09300263 -0.00052622 -0.00439765 -0.00400508
N 15.28431185 5.47281448 1.08299883 -0.00076127 0.00264135 -0.00564547
N 16.13134007 4.13822292 5.66904752 0.00355576 0.00241312 0.00258669
N 17.32930462 8.50815729 7.85631405 0.00109389 0.00215333 -0.00320389
N 18.37545045 0.65630644 3.46806214 -0.00001207 -0.00014861 -0.00073239
N 16.47776157 3.62609762 1.51253324 0.00599413 -0.00077051 -0.00397743
N 14.72560507 5.95745523 6.10334024 -0.00625166 0.00040463 0.00192471
N 17.73893582 1.19459711 7.79226152 -0.00112899 0.00053436 -0.00273049
N 17.28622731 8.02093833 3.24085099 -0.00688470 -0.00376901 -0.00208402
N 14.92004400 5.48361984 10.35795861 -0.00354752 -0.00481058 0.00318104
N 16.86637438 4.18018822 14.93531193 0.00054919 -0.00002725 0.00778463
N 17.07161726 8.62958678 17.54058735 -0.00731605 -0.00166185 0.00271294
N 17.99492304 0.60704758 13.15708230 0.00279785 -0.01198268 -0.00284375
N 16.16976399 3.60835156 10.87532191 0.00514593 -0.00300492 0.00794769
N 15.56249128 6.07942126 15.36057963 0.00532543 0.00007135 -0.00551018
N 18.23312449 0.85939693 16.95800547 -0.00132560 -0.00151595 0.00085131
N 17.03647849 8.25870144 12.43158112 -0.00022238 0.00026399 -0.00031751
N 14.70984886 5.46660350 19.70458859 -0.00382703 0.00073435 -0.00174928
N 16.65563740 4.30739134 24.15695828 -0.00141252 0.00797602 -0.00390540
N 17.24871046 8.96623775 26.35111318 0.00558081 -0.00097530 0.00669203
N 18.20967772 0.76270375 21.73856555 -0.00316753 -0.00246774 -0.00660994
N 16.17161800 3.69432892 19.52640574 0.00414100 -0.00601684 -0.00246129
N 15.49909068 6.31596594 24.14959916 0.00214013 0.00081335 0.00502971
N 18.49141032 1.26829250 26.05784620 -0.00262934 0.00431046 0.00404282
N 17.20045237 8.09979209 22.10433343 0.00414930 -0.00597234 -0.00563741
N 15.03167570 15.18403537 1.18806891 -0.00355217 -0.00082008 -0.00095448
N 15.78045876 13.90351348 5.71588678 -0.00102244 0.00248013 -0.00088837
N 16.94773835 18.89745792 7.91862590 -0.00447850 -0.00510762 -0.00266366
N 18.34145343 10.08838076 3.49861189 0.00436066 0.00009127 -0.00186797
N 16.20253008 13.20435530 1.33524842 -0.00431077 0.00353225 -0.00053993
N 15.18860954 16.13670077 6.02364272 -0.00734251 0.00214733 0.00222471
N 17.80176938 10.71610233 7.61708090 -0.00524455 -0.00417388 0.00165680
N 17.11113941 18.05135028 2.81266087 -0.00254593 -0.00040779 0.00398956
N 14.90748606 14.76847874 10.36968344 -0.00126806 0.00114689 -0.00483987
N 16.01921290 13.97653702 14.95327348 -0.00066116 0.00400852 0.00277288
N 17.07652474 18.56056615 17.00432340 -0.00018539 0.00308940 -0.00707156
N 18.29354870 10.10811953 12.86209883 0.00959413 0.00859268 0.00031751
N 16.47304620 13.07699555 10.77132298 0.00399029 -0.00410305 -0.00124985
N 14.94130062 15.99975263 14.75001463 0.00400363 0.00362949 0.00041784
N 17.74399217 10.64755134 16.68493075 -0.00493888 -0.00355035 -0.00631894
N 17.10509727 17.91196409 12.15199685 0.00050299 0.00137847 -0.00003344
N 15.49142634 15.42540742 19.33466783 0.00838226 0.00359553 -0.00102463
N 16.37202648 13.69410930 24.08410598 -0.00112113 0.00219909 0.00017900
N 16.90239966 18.66435743 26.11762981 -0.00019638 -0.00810208 -0.00248371
N 18.25404474 10.10842472 21.91335312 -0.00664374 0.00558494 -0.00151209
N 15.97012768 13.15122217 19.67860042 -0.00764995 -0.00389051 -0.00622289
N 14.93994965 15.55512289 24.54224954 -0.00453577 -0.00649820 -0.00308536
N 18.39083352 11.03097535 26.33949859 0.00230252 -0.00145251 -0.00188079
N 17.23629115 18.18208027 21.35779565 -0.00144345 0.00048732 -0.00453729
N 14.75185285 25.00670149 1.17088575 -0.00234870 0.00022399 0.00342925
N 16.07689774 23.35108369 5.62438491 -0.00187183 -0.00115075 0.00224721
N 16.33614839 28.36031056 8.02177612 0.00317788 -0.00062344 -0.00407982
N 18.04549246 20.05932721 2.93227045 -0.00243873 0.00667220 0.00049263
N 16.02899752 23.09001249 1.19114773 -0.00221476 -0.00526462 0.00201312
N 14.95770725 25.34402147 5.88796479 0.00945448 -0.00053076 0.00348200
N 18.29905316 20.72008982 7.47964480 0.00086867 0.00117266 -0.00262705
N 16.95633497 27.70792135 3.43053831 0.00233663 0.00171525 0.00123863
N 15.47170830 24.99308786 10.33637467 -0.00238577 0.00644597 0.00216004
N 16.19234785 23.21100556 15.04924109 -0.00072648 -0.00307147 0.00174181
N 17.05129912 27.77299498 17.31714212 0.00126786 0.00005759 -0.00013322
N 18.24157812 19.91150286 12.52112994 -0.00344928 -0.00095781 -0.00519184
N 16.36170073 22.86294676 10.42043903 -0.00208485 0.00692704 -0.00116991
N 15.08973816 25.17035618 15.35015533 -0.00189017 0.00394744 0.00235621
N 18.04858368 20.69306296 16.78452752 0.00211756 -0.00147991 0.00215203
N 17.08142522 27.54167187 12.34934573 0.00195579 0.00260008 -0.01326398
N 15.00645387 24.82717459 19.48839291 0.00313310 0.00039755 0.00731113
N 16.12492509 23.47510183 23.78781168 -0.00451723 -0.00282554 0.00737850
N 16.98368827 28.41604762 26.35531021 0.00012844 0.00117375 -0.01090463
N 17.73738424 20.37411509 21.64277704 0.00000788 0.00104984 -0.00960669
N 16.24309359 22.90391020 19.78874848 -0.00364986 0.00087836 0.00696967
N 15.55914872 25.61677830 24.31408044 -0.00450260 0.00048598 -0.00062559
N 18.12639364 20.64937656 25.95320360 0.00200644 0.00794273 -0.00655806
N 17.03057004 27.70132589 21.53221958 -0.00210024 0.00331902 -0.00300064
N 19.19115347 5.61182288 1.09399111 -0.00604382 -0.00428136 -0.00362761
N 20.00756792 3.97501024 5.55064346 -0.00078079 -0.00513870 -0.00004989
N 20.65736019 8.75541910 7.95555999 0.00058394 0.00458235 0.00127489
N 22.16178161 0.69422190 3.39365055 0.00634526 -0.00146002 0.00211931
N 20.18221996 3.52856699 1.48974036 0.00605629 -0.00315650 -0.00879024
N 18.60586045 5.78098533 5.89531811 -0.00597919 0.00358505 0.00231741
N 21.53695442 1.19068493 7.71170764 0.00206714 -0.00397896 -0.00185023
N 21.07724090 8.50593386 3.07871904 0.01016175 0.00838089 -0.00538647
N 18.82130635 5.62858001 10.10030991 0.00151608 0.00390568 -0.00689391
N 20.35162975 4.03622028 14.97357641 0.00590511 -0.00099634 0.00451551
N 20.46594430 9.13360042 17.17093164 0.00782213 0.00309054 -0.00762765
N 22.05583720 0.26903159 12.33302841 0.00010003 0.00294433 0.00111394
N 20.00760635 3.75717592 10.77671168 -0.00073350 0.00038793 -0.00364813
N 19.22113481 6.00820906 15.41460709 -0.00446847 -0.00244793 0.00171446
N 21.91292672 1.13256935 16.74892486 0.00228797 -0.00696819 0.00490066
N 20.93813031 8.44364714 12.38858264 -0.00495360 0.00172723 -0.00852245
N 18.57067007 5.47129830 19.39627571 -0.00261538 -0.00272991 0.00708471
N 19.93980263 3.99362987 24.01166746 -0.00019701 -0.00526553 0.00305263
N 20.77841668 9.26710445 26.20589488 0.00508170 -0.00207250 -0.00218634
N 22.05806183 0.48646504 21.67651925 -0.00522976 0.00032448 0.00129181
N 19.82278586 3.49681374 19.85244771 0.00082739 -0.00452877 -0.00033211
N 19.16816804 6.10955923 24.39920124 -0.00225470 0.00411357 0.00435447
N 22.12792378 1.31199897 25.71592400 -0.00402560 0.00661692 -0.00039707
N 20.91261681 8.43290996 21.48038201 -0.00051724 0.00372270 -0.00644237
N 18.43175324 15.04799816 1.13986600 -0.00179364 0.00041972 -0.00401408
N 19.09900191 13.80469202 5.71976034 0.00162995 0.00259238 -0.00870569
N 20.94162487 18.93196548 7.91212553 -0.00011605 -0.00269598 -0.00168971
N 21.97475440 10.63806937 3.47094502 -0.00186489 -0.00380190 -0.00452451
N 19.86030394 13.30551025 1.70662226 0.00055561 0.00293517 0.00168274
N 18.53142285 16.00748891 5.75100974 -0.00330678 -0.00626241 -0.00013104
N 22.01978910 10.59701212 7.79018477 0.00279818 -0.00405331 0.00230824
N 20.62980699 18.40813717 3.16589280 0.00104565 -0.00257250 0.00447502
N 18.75890943 15.21751219 10.13077956 0.00180033 -0.00680316 -0.00133145
N 19.50022555 13.53481860 14.84305273 -0.00387040 -0.00066964 0.00519401
N 20.69534196 18.75228068 16.85343436 -0.00027741 -0.00307078 0.00787886
N 21.94953368 10.51654126 12.52386001 0.00220907 0.00085196 0.00214138
N 19.91500293 13.28975354 10.78809885 0.00247758 -0.00328757 -0.00623285
N 18.82064111 15.65407275 15.11219100 -0.00676863 -0.00294333 -0.00868377
N 21.89534888 10.98311538 16.86782741 0.00289040 -0.00010548 -0.00449365
N 20.88585321 18.12089427 12.19012649 -0.00016058 -0.00373241 0.00098177
N 18.47540612 14.76584529 19.76287343 -0.00254184 0.00213202 0.00463611
N 19.95372908 13.90641564 24.15907640 0.00129905 0.00306448 -0.00224314
N 20.32099512 18.63599342 26.58873821 0.00133219 0.00026284 -0.00092479
N 22.09602325 10.38680198 21.78292420 -0.00488274 -0.00095460 0.00373651
N 20.05004102 13.10043698 19.73998658 0.00107839 -0.00860030 0.00387374
N 18.73676486 15.82549883 24.44676162 -0.00259107 0.00670027 -0.00199639
N 22.09038944 11.24738809 25.83204672 -0.00615414 -0.00470387 0.00254592
N 20.30992072 18.17167853 21.41770421 0.00146227 -0.00103423 0.00085660
N 18.60602049 24.89792926 0.97923729 -0.00061838 0.00313281 0.00328748
N 20.16936039 23.67992327 5.37065618 -0.00079377 -0.00305394 0.00124032
N 20.19628846 28.20860772 7.91522216 -0.00038386 0.00710510 -0.00463085
N 21.62810409 20.41122547 3.50248317 0.00294362 -0.00132716 0.00090291
N 19.93629794 22.99664992 1.16205244 -0.00466781 -0.00263332 0.00205431
N 18.93250210 25.45281872 6.28506434 0.00283653 -0.01137638 -0.00419898