1728
Time=85000.00000007 pbc="T T T" Lattice="22.08377426 0.00000000 0.00000000 0.00000000 28.68866050 0.00000000 0.00000000 0.00000000 27.54076877" energy=-10388.39489901 virial="29.57474679 -16.76752906 -5.91179970 -16.76752906 46.76147201 16.21005757 -5.91179970 16.21005757 41.19410958" stress="0.00391216 -0.00085373 -0.00035688 -0.00085373 0.00524233 0.00096838 -0.00035688 0.00096838 0.00520992" Properties=species:S:1:pos:R:3:vel:R:3
N 0.39613370 5.28697154 1.05564581 0.00345325 0.00257434 -0.00107769
N 1.67418407 4.12031260 5.74602252 -0.00279202 0.00140952 0.00768484
N 2.41050251 8.90084305 7.97774406 -0.00033860 -0.00078090 -0.00480184
N 3.47373150 0.44253934 3.17876779 -0.00118328 -0.00164060 -0.00624153
N 1.55891955 3.29462638 1.38364837 0.00186142 0.00754855 0.00661867
N 0.48660449 6.04375638 5.81072677 -0.00388514 -0.00526521 -0.00160524
N 3.27813294 1.41383259 7.37787740 0.00083402 -0.00313074 -0.00534297
N 2.31172764 8.25143787 3.18900128 0.00380919 -0.00923837 0.00226997
N 0.47661747 5.62980339 10.31228483 -0.00110654 0.00320532 -0.00774753
N 1.00410842 3.89273521 14.83507226 0.00277534 -0.00018595 0.00384765
N 1.91391544 9.16606681 17.30103573 -0.00679180 -0.00223355 -0.00059151
N 3.06936328 0.25449294 12.20700634 -0.00098347 0.00196022 -0.00188642
N 1.35074774 3.58938349 10.74396607 0.00148160 0.00229812 -0.00081074
N 0.14493786 6.02145579 15.09881235 -0.00000981 0.00036528 0.00120622
N 3.46237836 1.08584044 16.68949906 0.00154069 -0.00199453 -0.00349053
N 1.79800276 8.36282601 12.21457282 0.01005330 0.00105164 0.01078344
N 0.31930148 5.32306583 19.80126007 -0.00043207 0.00304440 -0.00387365
N 1.77611736 3.99246988 24.25145728 0.00185198 -0.00187732 0.00045525
N 1.96134263 9.04664951 26.05404256 -0.00182818 0.00158028 0.00328941
N 3.66800068 0.27479676 21.39831914 0.00184319 -0.00337669 0.00386441
N 1.63368527 3.49590402 19.88437794 0.00148534 -0.00003535 0.00674487
N 0.61846840 5.98237513 24.36905904 0.00287982 -0.00091734 0.00431064
N 3.87950780 1.06783077 25.61748368 -0.00048950 -0.00123824 0.00341086
N 2.53677580 8.42495548 21.41791342 -0.00224903 0.00165021 -0.01082033
N 0.37413146 14.83152998 1.19757578 0.00325860 -0.00109587 -0.00465032
N 1.75206481 13.41942507 5.70964958 -0.00327599 0.00626992 -0.00157789
N 2.28361620 18.44479516 8.32709176 0.00773066 0.00437284 0.00088175
N 3.57226493 10.09008882 3.35122109 0.00836717 0.00391390 -0.00146866
N 1.57098785 12.88578937 1.56363956 -0.00274392 0.00422414 -0.00337023
N 0.08286726 15.05979848 6.17012723 0.00043893 0.00611437 -0.00185414
N 3.59837156 10.97133581 7.87872459 0.00318514 0.00240153 -0.00317175
N 2.27227073 17.81073417 3.50680344 -0.00041026 0.00589494 0.00376226
N 0.55556195 14.97903983 10.17112133 0.00081015 -0.00079970 -0.00011893
N 1.01551547 13.59270986 14.86865288 -0.00091311 -0.00203292 -0.00065298
N 1.95344761 18.70458230 17.41343872 0.00254837 0.00970818 -0.00414015
N 3.21584627 10.07821872 12.88111674 -0.00173903 0.00318428 0.00125896
N 1.53791586 12.94012010 10.47117536 -0.00234051 0.00066738 -0.00402981
N 0.53903208 15.86135528 15.24997303 -0.00248259 -0.00344412 -0.00330705
N 3.04804764 10.98244786 16.68207116 0.00467597 -0.00294637 -0.00056313
N 2.03094331 18.08123389 12.46616117 -0.00036899 0.00324572 0.00011659
N 0.11623615 14.99024557 19.46766061 0.00150003 -0.00238834 -0.00850302
N 1.66679441 13.79121459 23.98004548 0.00432260 -0.00417949 -0.00389084
N 2.20999712 18.37214379 26.73889069 0.00413080 -0.00507604 -0.00422055
N 3.11203618 10.64527470 21.76891561 -0.00162581 0.00112158 -0.00044385
N 1.48128094 13.10376840 19.65577278 -0.00013442 0.00438509 -0.00558382
N 0.13495851 15.52255323 24.34602506 -0.00109768 -0.00541456 -0.00198772
N 3.38513058 10.88873347 26.12949322 0.00134008 -0.00056730 0.00108384
N 2.09611807 17.66220585 21.65345647 0.00395584 -0.00330762 0.00563349
N 0.70489622 24.65126584 0.78494539 -0.00061490 -0.00191244 0.00483752
N 1.75985671 23.25352679 5.79866570 0.00157140 -0.00071000 0.00569482
N 2.12518701 28.10301682 7.75215891 0.00273871 0.00013809 -0.00197143
N 3.66465757 19.59634148 3.82216503 -0.00241107 -0.01208811 0.00146343
N 1.43947681 22.43597249 1.17289985 -0.00041006 0.00252799 0.00223836
N 0.43598136 25.13310044 6.06542373 0.00286522 0.00579607 0.00257033
N 3.30456045 20.43649576 7.83027711 0.00219068 -0.00249665 0.00461135
N 2.39101763 27.18372380 2.83051041 -0.00333706 -0.00148290 0.00756871
N 0.49087273 24.39557444 10.02103319 0.00116945 -0.00285225 -0.00421403
N 1.59913226 23.28188887 14.83255989 -0.00121412 -0.00570591 -0.00346044
N 1.98959303 28.01273032 16.90666210 -0.00815314 0.00284430 0.00589085
N 3.37279200 19.81040497 13.05829751 -0.00252228 -0.00381820 -0.00031559
N 1.43348703 22.26273828 10.33718652 0.00247817 0.00629665 -0.00635259
N 0.45879574 25.17145093 15.39219708 -0.00356684 -0.00337504 -0.00551891
N 3.38047716 20.39805118 16.79914492 -0.00562184 -0.00180793 -0.00044032
N 1.84756807 26.99328423 12.06227313 0.00481742 -0.00182620 -0.00178890
N 0.33104839 24.26074347 19.52385267 -0.00268088 0.00097811 0.00433206
N 1.28885542 22.93883530 23.96845132 -0.00153759 0.00509223 0.00600323
N 2.41218112 27.90120691 26.01699814 0.00169572 -0.00017728 -0.00187298
N 3.14936777 19.61606167 21.97655692 -0.00364210 -0.00439623 -0.00150932
N 1.67829107 22.34794603 19.84319088 0.00077542 0.00543063 -0.00030779
N 0.04328390 24.91754367 24.08057339 0.00062366 0.00488494 0.00559041
N 3.15481566 20.28155239 26.00661252 -0.00446914 0.00060365 0.00366976
N 2.19832090 27.16278720 21.15260165 -0.00706646 0.00264673 0.00424818
N 3.90156708 5.41496926 1.09065232 -0.00088671 0.00544356 0.00274300
N 5.44876256 4.03636059 5.78078796 0.00162416 -0.00538895 -0.00316334
N 5.98476340 8.92809999 8.01062328 -0.00680756 -0.00425527 -0.00053263
N 6.95799439 0.93151547 3.71397639 -0.00593053 0.00222183 -0.00053273
N 5.29006226 3.52808019 1.45486790 -0.00213455 0.00063768 -0.00049221
N 4.04913085 5.92900587 5.99918176 0.00335824 0.00022565 -0.00191109
N 6.95578143 1.21004785 7.73939675 0.00122205 0.00264430 0.00116409
N 5.84394622 8.16654367 3.28776231 -0.01001552 -0.00441111 -0.00047011
N 4.31921258 5.61283072 10.40899704 0.00146074 0.00462879 0.00174710
N 5.21435913 4.04036934 14.86735188 0.00304240 0.00008930 0.00981466
N 5.65136671 8.81874825 17.57192152 -0.00380388 0.00077833 -0.00297154
N 6.84463707 0.46527413 12.77732853 -0.00093015 -0.00693659 -0.00035526
N 4.97088260 3.38939098 10.63404337 -0.00023882 -0.00361509 0.00697867
N 3.86464706 5.94685997 15.13896312 -0.00496572 0.00301767 0.00130090
N 6.96857294 1.21945998 17.13069422 0.00115662 -0.00529611 0.00127596
N 5.72981828 8.55073216 12.35497534 -0.00749487 -0.00314491 0.00323455
N 4.02513625 5.34559086 19.59168720 0.00036623 -0.00179016 0.00399949
N 5.43569323 4.31052819 24.19259071 -0.00244907 -0.00349847 -0.00454077
N 5.85968262 8.79066896 26.54733693 -0.00148257 -0.00201691 -0.00113971
N 7.00769055 0.71208378 21.95541129 -0.00204496 -0.00387367 -0.00182198
N 5.24180675 3.31695632 19.82627430 -0.00471659 -0.00165853 -0.00351907
N 4.10967747 6.22046486 24.29939988 0.00436151 0.00042891 -0.00015888
N 7.12229977 1.51355160 26.30481330 -0.00300660 0.00195038 0.00062453
N 6.19039390 8.14460958 21.92377874 -0.00079545 -0.00386662 0.00290399
N 4.17526376 14.98785718 1.10953623 0.00812475 0.01069157 0.00185990
N 5.05245419 13.17593805 5.67372120 0.00351467 0.00040864 0.00579476
N 5.50537727 18.15631879 7.88599460 -0.00726262 0.00398242 0.00722438
N 7.30892764 9.96179891 3.61829076 0.00298427 0.00141286 -0.00300052
N 5.16869770 12.95977681 1.31355590 0.00359566 0.00185654 0.00141550
N 4.20024339 15.23171452 6.10823670 0.00210560 0.00258746 -0.00114583
N 7.11613752 10.91660261 7.66266245 0.00039809 0.00600343 -0.00489259
N 6.11329946 17.67592744 3.13932782 0.00131956 -0.00210441 -0.00068154
N 4.00066893 14.74475261 10.50937908 0.00149105 -0.00509465 -0.00180234
N 4.89496242 13.60741158 15.28475951 0.00072904 -0.00068088 -0.00116467
N 5.80405465 18.64982050 16.92265369 0.00656864 -0.00152829 0.00766720
N 7.02435540 10.44402469 12.92699226 -0.00081363 -0.00149974 0.00189812
N 5.12328105 12.85788809 10.82069729 0.00027324 0.00220568 -0.00536341
N 4.14793672 15.73613128 15.41410905 0.00521524 0.00501481 -0.00543746
N 6.88769201 10.67630381 16.99724740 -0.00271497 0.00966378 -0.00122231
N 5.77925249 18.14222679 12.40343640 0.00543930 -0.00102430 0.00407675
N 4.32505977 15.12114574 19.76146029 0.00184723 0.00254569 0.00012058
N 5.14694217 13.79602375 24.46747979 -0.00202058 0.00279185 0.00601058
N 5.80090514 18.48874759 26.36524308 -0.00015484 0.00962614 0.00014718
N 7.23964224 10.24744295 22.01902430 -0.00056283 -0.00201146 -0.01001689
N 5.25417062 13.04056076 19.93587816 -0.00152315 0.00257709 0.00467584
N 3.87729941 15.67100415 24.49111181 0.00362973 0.00005944 -0.00151402
N 6.86535292 10.77168607 26.04216830 0.00076010 -0.00051287 -0.00507877
N 5.52383687 17.92195815 21.67478098 0.00059851 0.00493058 0.00316698
N 4.27334260 24.23397176 0.72880542 0.00317260 -0.00255988 -0.00601959
N 5.38783787 23.26128711 5.72689414 0.00687749 0.00406501 -0.00225738
N 5.52559668 28.22134330 8.28293145 -0.00360533 0.00247549 -0.00339907
N 7.28158096 19.69197259 3.35685429 -0.00103540 -0.00184774 0.00198507
N 5.23282818 22.24678026 1.28861003 0.00310965 -0.00015854 -0.00245277
N 4.06576955 25.10819806 5.89274097 0.00668153 -0.00316543 0.00639680
N 6.74253026 20.02610947 7.54766449 -0.00312273 -0.00611028 -0.00692458
N 5.88796632 27.59792818 3.14698749 0.00597927 -0.00018823 -0.00204280
N 3.69352351 24.20683362 10.45887065 0.00135684 0.00536475 0.00538120
N 5.32882450 23.43080443 15.06090650 -0.00217750 -0.00407484 0.00171456
N 5.69845734 28.03512212 17.63077886 0.00145160 -0.00727492 0.00506201
N 7.17517365 19.95386431 13.00056797 -0.00742970 0.00354606 -0.00122473
N 4.88137291 22.31297428 10.94141631 0.00633303 0.00550569 -0.00420560
N 3.83124661 25.18332911 15.08681855 0.00318403 0.00508972 -0.00175228
N 7.19937811 20.53691485 16.89765239 0.00316147 -0.00071849 0.00051558
N 5.51585437 27.29661559 12.43214760 -0.00350133 0.00879770 -0.00196601
N 3.82163235 24.45798184 19.35098316 0.00125440 -0.01033163 -0.00278295
N 5.20203680 23.04053779 23.80998060 -0.00335374 0.00298936 0.00497594
N 5.95914333 28.18200156 26.49162693 0.00322401 0.01103647 0.00661534
N 6.56057755 19.89816209 21.83492919 0.00770773 0.00018892 -0.00383698
N 5.08151738 22.67916086 20.01916327 0.00005474 -0.00581821 -0.00002722
N 4.08972275 25.05680778 23.94255534 -0.00250892 -0.00480827 -0.00389786
N 6.88815256 20.49618042 26.17216115 -0.00418815 0.00481801 0.00109047
N 6.03678669 27.36574528 21.57929886 0.00201424 0.00172141 0.00051372
N 7.77239272 5.31693035 1.33045841 0.00184555 -0.00218622 0.00154578
N 9.14446398 4.09301330 5.76924655 0.00353585 -0.00246113 -0.00051311
N 9.32238508 8.91006789 8.11317377 0.00042064 -0.00212782 -0.00374380
N 10.71461870 0.64437854 3.83200540 -0.00489174 0.00176057 0.00076323
N 8.87610518 3.29712591 1.58634074 -0.00194622 0.00144044 0.00294338
N 7.72080014 5.86419724 6.40632461 0.00266490 -0.00147306 0.00112542
N 10.62408719 1.20274322 7.90958491 0.00554775 0.00356281 0.00417199
N 9.82889253 8.15591599 3.10184420 -0.00072764 0.00375237 -0.00129812
N 7.45607473 5.54125135 10.72692022 0.00638064 -0.00083870 -0.00193941
N 8.76270738 4.03516772 15.34913900 0.00657780 0.00177472 -0.00342710
N 9.15062978 8.94717747 17.15623991 0.00127940 -0.00197709 0.00295528
N 10.60371482 0.62571095 12.79857201 -0.00115774 0.00133558 -0.00025436
N 8.47210124 3.50243524 10.99457207 -0.00171172 -0.00026881 -0.00003860
N 7.73833943 6.11194782 15.48899004 -0.00127363 -0.00075838 -0.00195247
N 10.51238371 1.43569412 16.80027347 -0.00939798 -0.00646544 0.00312536
N 9.34634022 8.52898608 12.56470885 0.00619739 0.00104611 0.00052412
N 7.29411330 5.46809903 19.79675323 -0.00140531 -0.00128450 -0.00383123
N 9.12265219 4.28559778 24.18723770 -0.00078570 -0.00432041 -0.00630771
N 9.81355181 8.64522697 26.77217492 0.00403133 0.00128989 -0.00124371
N 10.60881138 0.59526757 21.80165483 0.00319818 -0.00910619 0.00283912
N 8.76283144 3.66169329 20.15806707 0.00085909 0.00336470 0.00145667
N 7.69203347 6.03099558 24.70801212 0.00410865 -0.00649624 -0.00026512
N 10.77835102 1.44644107 26.06649951 -0.00326939 -0.00535555 0.00054408
N 9.70746309 8.05969200 21.85012839 -0.00674801 -0.00248627 -0.00090879
N 8.07624231 14.83588911 1.25252878 -0.00039135 -0.00181429 -0.00072431
N 9.05384232 13.77091748 5.84858087 0.00518149 -0.00021054 -0.00291885
N 9.14086092 18.37076117 8.02338029 0.00307833 -0.00076542 -0.00095220
N 11.29235699 9.76395013 3.82331993 0.00115658 0.00261307 -0.00501831
N 8.96218942 12.84699803 1.79677603 0.00106366 -0.00273232 -0.00251812
N 7.63991743 15.50840260 6.12613939 0.00357521 0.00060413 0.00578312
N 10.52470352 10.83347533 7.71981149 -0.00453221 -0.01094888 -0.00812229
N 9.66154075 18.11596041 3.00059433 0.00326992 -0.00316895 0.00223210
N 7.36608532 15.19175116 10.62304517 -0.00460544 0.00132811 -0.00416960
N 8.99430610 13.84082142 15.16449666 0.00286544 0.00517144 0.00493651
N 9.55695047 18.47236243 17.28127808 -0.00691079 0.00133850 -0.00034008
N 10.81934701 10.36153650 12.64248857 -0.00367749 -0.00560202 -0.00132181
N 8.74465601 13.31906024 10.62445433 -0.00002878 -0.00010307 0.00425780
N 7.60672982 15.69920459 15.42242327 -0.00462505 -0.00428983 -0.00401886
N 10.47775299 10.89962552 16.90936600 0.00012874 0.00209521 0.00325613
N 9.59963002 17.93458217 12.45243283 0.00144291 -0.00396260 -0.00545594
N 7.65325468 15.19138009 19.79652453 0.00079377 -0.00192029 -0.01693129
N 9.15301663 13.84741805 24.50836975 0.00427149 0.00130973 0.00479220
N 9.46527384 18.50289734 26.59256897 0.00237515 -0.00026234 -0.00692094
N 10.36570157 10.26560774 22.01830326 -0.00411422 -0.00259587 -0.00582616
N 8.65598521 13.10586753 19.80645678 0.00480137 -0.00178529 0.00063877
N 7.69452060 15.67038080 24.71718482 -0.00453568 -0.00246265 0.00324523
N 10.87766603 10.69816505 26.35276609 0.00779231 -0.00663526 0.00162441
N 9.14839828 17.93468578 21.50318709 -0.00825202 -0.00264637 0.00751819
N 7.38364937 24.50602853 1.45256829 -0.00263448 0.00448294 -0.00007924
N 8.57731602 23.32321754 5.89936999 0.00084277 -0.00023475 -0.00921380
N 9.39076374 27.94371463 8.42210783 0.00452446 0.00111750 0.00918548
N 11.10856946 19.95953329 3.62651528 0.00262089 -0.00330884 0.00017624
N 8.65436025 22.61347495 1.44201548 -0.00144332 -0.00294718 0.00369195
N 7.73574416 25.35702131 6.22499787 0.00274342 0.00156590 -0.00767800
N 10.71820575 20.01371264 7.34444779 -0.00032068 0.00335198 0.00063532
N 9.36730148 27.51703410 3.33039690 0.00141698 0.00259486 -0.00405649
N 7.32407178 24.16819059 10.67899188 -0.00055515 -0.00549955 -0.00118609
N 9.03024539 23.49834695 15.01916491 0.00346033 0.00346853 -0.00364613
N 9.55288156 28.09184113 17.17469233 -0.00011334 -0.00176586 -0.00510819
N 10.84470447 19.81625862 12.35030557 -0.00658206 -0.00420340 0.00074164
N 8.94886553 22.46224092 10.51916460 -0.00268356 -0.00102195 0.00187034
N 7.70246739 25.30639608 15.62657121 0.00037562 -0.00187176 -0.00120320
N 10.82687169 20.33957475 16.62326525 0.00818450 0.00557634 0.00149136
N 9.26535972 27.58149231 12.10485080 -0.00226116 -0.00198460 0.00024430
N 7.59189669 24.42008792 19.64034358 0.00290033 -0.00171260 0.00240412
N 9.01998631 23.36215557 24.27535225 -0.00012762 0.00576486 -0.00259919
N 9.43307439 28.39134169 26.43380488 0.00174572 -0.00528846 -0.00095407
N 10.54448333 19.86707469 21.80997360 -0.00494682 -0.00461526 -0.00161247
N 8.97088519 22.66401418 20.06881443 0.00209486 0.00593817 0.00169466
N 7.59893952 25.11746610 24.62616733 0.00394449 0.00392264 -0.00122518
N 10.75751145 20.37392104 26.13161361 -0.00294698 0.00647228 -0.00770557
N 9.23813144 27.50173162 21.39046838 0.00346606 0.00078512 -0.00634361
N 11.35111698 5.14655788 1.66673815 -0.00163746 0.00963804 -0.00237885
N 12.80953067 4.02140233 6.14799708 -0.00481823 0.00404358 0.00046276
N 12.83268275 9.08400161 8.00301983 0.00224470 -0.00076954 -0.00430187
N 14.41372442 1.15699162 3.30701034 -0.00662043 -0.00936192 -0.00164828
N 12.71588861 3.33734869 1.47062805 -0.00155550 -0.00168554 0.00587151
N 11.33883496 5.82653262 6.24621309 0.00001295 -0.00411409 0.00231283
N 14.46146366 1.16958650 7.84076019 0.00385329 0.00302292 -0.00044773
N 13.48413207 8.10085975 3.82510279 0.00165619 -0.00132601 0.00078441
N 11.31230905 5.23084200 10.47500976 0.00437692 0.00107283 0.00460727
N 12.43914912 4.12785933 15.39785385 -0.00212911 0.00104077 0.00530534
N 13.00130287 9.22047137 17.36639802 0.00222932 0.00415986 -0.00202737
N 14.71955145 0.63063425 12.16545096 0.00561773 0.00392949 -0.00171106
N 12.71185796 3.45573444 10.88841787 -0.00095752 0.00247602 -0.00271953
N 11.50927735 6.17411573 15.61656052 0.00192041 0.01048995 -0.00053315
N 14.47145832 1.18894519 16.70412943 0.00340900 0.00580381 -0.00124524
N 13.02849009 8.05384290 12.19540164 -0.00261701 -0.00350817 -0.00136626
N 11.31116271 5.24428364 19.88749371 0.00200831 0.00777658 0.00260068
N 12.77742477 4.19017143 24.09737664 0.00560679 0.00382732 -0.00329754
N 13.40206799 8.85984108 27.31082844 -0.00118551 0.00166102 -0.00154686
N 14.73673404 0.56596462 21.49206259 -0.00533249 0.00350686 -0.00071429
N 12.44251363 3.25988508 19.82244001 0.00066547 0.00125088 0.00783602
N 11.59532881 6.01102734 24.81437384 -0.00290945 0.00218712 -0.00389598
N 14.79215734 1.41962078 25.73027422 0.00142222 0.00185020 -0.00137225
N 13.00188634 8.39182074 21.95708076 -0.00123417 0.00097179 -0.00404612
N 11.53789627 15.04371597 1.37454930 -0.00105975 -0.00419864 -0.00237626
N 12.85967915 13.80393241 6.02122513 -0.00301027 -0.00127917 0.00149055
N 13.21055271 18.38784289 7.99917265 -0.00220267 -0.00601447 -0.00298234
N 14.31905408 10.23562526 3.97751865 -0.00072253 -0.00536037 0.00248931
N 12.78573776 13.07225673 1.63806534 -0.00392925 0.00250414 -0.00317552
N 11.38135277 15.69113530 6.17455472 0.00220085 -0.00071973 -0.00235332
N 14.36734203 10.79453697 7.49583535 -0.00191646 0.00277774 -0.00070945
N 13.60639206 17.82594233 3.37911856 -0.00186794 0.00487954 -0.00182817
N 11.38353171 15.37046187 10.28831336 0.00748634 0.00352234 0.00093646
N 12.64535861 14.11158422 14.94452143 0.00059533 -0.00313280 -0.00452348
N 13.01893846 18.43758322 17.21600764 -0.00243646 -0.00293901 -0.00269084
N 14.33387391 9.89833254 12.51850665 0.00048981 -0.00122746 0.00409300
N 12.35344547 13.33809015 10.58797347 0.00120058 -0.00661347 -0.00758061
N 11.25997080 15.88093672 15.30503846 -0.00272972 -0.00182420 -0.00079810
N 14.22514772 11.23819865 17.17371871 -0.00378266 0.00490389 -0.00072051
N 13.12028245 17.86702380 12.31223988 0.00935355 0.00084529 -0.00016364
N 11.18789819 15.07734643 19.54482141 0.00213223 0.00176879 -0.00499373
N 12.41807210 13.63373354 24.03459880 0.00025993 0.00264351 0.00611562
N 12.98997388 18.26444020 26.60787835 0.00182041 0.00246800 0.00026429
N 14.11282520 10.39839193 22.24105326 -0.00240104 -0.00146828 -0.00379977
N 12.19882951 13.03298247 19.88606282 -0.00071550 0.00083931 -0.00212602
N 11.56379810 15.76797566 24.41853040 0.00074204 0.00510035 -0.00427414
N 14.37928386 10.83364225 26.38163838 -0.00443937 -0.00182848 0.00048146
N 13.05642256 18.21098441 21.25211570 0.00290384 -0.01019551 0.00135104
N 11.07111551 24.86204214 0.69705768 0.00318871 0.00328605 -0.00441026
N 12.47768116 23.50803488 5.73930528 0.00414818 0.00115714 -0.00411713
N 13.13840264 27.97955350 7.89879849 0.00203054 -0.00094733 0.00146645
N 14.22484779 19.99377830 3.66684616 -0.00019004 -0.00181173 -0.00192221
N 12.28344141 23.22656320 1.68291021 -0.00777081 -0.00465063 -0.00256534
N 11.26013703 25.37356363 5.77447016 -0.00031569 0.00200240 -0.00014462
N 14.27300660 20.42290600 7.76604338 0.00368142 -0.00176693 -0.00018392
N 13.75606215 27.75038904 2.49321497 -0.00618727 0.00209407 -0.00591968
N 11.31954891 24.76026598 9.88252814 -0.00275346 0.00371462 0.00199063
N 12.80942981 23.46291415 14.75311985 0.00057101 -0.00044645 0.00553991
N 13.24089947 27.99071933 17.00684534 0.00231273 -0.00708822 0.00585356
N 14.30534300 19.80713652 12.44804608 -0.00246611 0.00219036 0.00302412
N 12.15430381 22.68371712 10.35765490 -0.00741889 -0.00199204 -0.00321473
N 11.53315283 25.35110337 15.18672845 -0.00412101 -0.00291566 -0.00027890
N 14.22812581 20.24730706 16.49889928 0.00546249 0.00484151 0.00335523
N 13.15967141 27.53755935 12.14823654 0.00222523 -0.00364100 0.00719247
N 11.21256011 24.75796832 19.56266707 0.00392091 0.00107601 0.00295341
N 12.67188365 23.36764701 24.08057032 -0.00047667 -0.00161321 0.00161647
N 13.34812074 28.30694437 26.10667213 0.00420493 -0.00043846 -0.00484518
N 14.39558991 19.94491080 21.61590376 -0.00355764 0.00592076 0.00150675
N 12.62031482 22.99062794 19.78108797 0.00891273 0.00901182 0.00330132
N 11.38314491 25.34729357 24.25350525 0.00147897 0.00176137 -0.00367906
N 14.38767091 20.04614694 26.39153159 0.00039854 -0.00036326 -0.00759451
N 13.26083561 27.52678892 21.23457973 -0.00531993 0.00120691 -0.00573286
N 15.29761205 5.80590635 0.77839682 -0.00010505 0.00436697 0.00364858
N 16.46482031 4.09182297 5.54814405 -0.00450421 -0.00150330 -0.00135235
N 16.65650145 8.65276655 7.95998695 -0.00346058 -0.00876647 -0.00189836
N 18.38167326 0.62944778 3.24143745 -0.00141140 0.00597782 -0.00282767
N 16.35727016 3.82953181 1.28251343 -0.00182970 0.00209007 0.00375024
N 15.19828389 5.82362572 6.27290147 -0.00163592 -0.00280783 -0.00407477
N 17.98851804 1.22131763 7.67467019 0.00230349 -0.00129061 0.00003038
N 17.35430255 7.94254036 3.32276290 0.00258741 0.00666748 0.00516723
N 15.16170837 5.47430228 9.91973433 0.00783589 -0.00413234 -0.00031493
N 15.79875509 4.30730535 14.79216856 0.00194233 -0.00692282 -0.00560100
N 16.37381860 9.21721912 17.26260637 0.00690610 0.00422383 0.00510994
N 18.41445814 0.32424894 12.22178083 -0.00245214 0.00762599 0.00393521
N 16.41643612 3.57592965 10.50672591 -0.00412060 -0.00196174 0.00073319
N 14.96358241 6.36634448 15.40636487 -0.00968328 0.00062384 0.00600007
N 17.75037344 1.79699715 16.57731034 -0.00396568 -0.00024955 -0.00624596
N 16.55962040 7.98275381 12.51461603 0.00644761 0.00367946 0.00179094
N 14.70912175 5.62790179 19.55714432 -0.00256100 0.00007824 -0.00478980
N 16.57154529 4.16114968 23.86951068 -0.00295829 0.00354806 -0.00266601
N 16.72303278 9.12995785 26.11286197 0.00241010 -0.00923230 -0.00078484
N 18.27176662 0.71866334 22.34143703 0.00144083 0.00016682 -0.00444799
N 16.15222124 3.84783563 19.56324435 0.00185902 0.00523666 0.00437629
N 15.28908026 5.92433480 24.45058606 -0.00235988 0.00233144 0.00371978
N 18.16973015 1.45509193 25.93700016 0.00093474 -0.00050233 0.00077779
N 17.19342080 7.89368430 21.44575893 0.00627547 -0.00210101 0.00352018
N 15.09224524 14.93185182 1.41987746 -0.00002139 -0.00410079 0.00843249
N 16.38591456 13.62616543 5.91245285 -0.00527615 0.00267058 -0.00225927
N 17.12633708 18.59457353 7.99195152 -0.00041680 0.00107876 -0.00268032
N 18.00338486 10.16930324 3.49611400 0.00208181 0.00081683 -0.00155898
N 16.54199849 13.06094726 1.61830284 -0.00342111 0.00238751 -0.00163461
N 15.22123611 15.64105142 6.08775800 -0.00140487 0.00780667 -0.00356746
N 17.92740369 10.65317137 7.57050999 -0.00319251 -0.00324490 -0.00039345
N 16.83857901 17.81267519 3.29849884 0.00111836 0.00022978 0.00266494
N 15.28815428 15.26524862 10.18794986 -0.00368719 0.00150900 -0.00603559
N 16.23365239 13.80752905 14.99828751 -0.00232467 -0.00462557 -0.00173786
N 16.63328397 18.71061418 17.16994317 -0.00158273 0.00727569 -0.00005007
N 17.89426026 9.97599149 12.32431959 0.00101580 0.00315099 0.00273746
N 16.25234492 13.17993533 10.53219643 -0.00256466 -0.00385771 -0.00614018
N 15.16099781 15.85918776 15.07848917 0.00244944 0.00269515 -0.00564842
N 18.05086498 10.66634419 16.68830661 -0.00242220 0.00750502 -0.00937974
N 16.95642185 18.13386718 12.44880992 0.00179733 -0.00266063 -0.00114117
N 14.80959318 15.16164067 19.44671064 0.00190287 0.00171543 0.01128312
N 16.30185030 13.94881995 23.82814957 0.00292648 0.00363999 -0.00320339
N 16.71293716 18.26196615 26.74956448 0.00221865 0.00067116 0.00065104
N 18.19221749 10.05698613 21.78385687 -0.00214899 0.00317622 0.00409106
N 16.19670976 13.30132476 20.01434417 -0.00126012 -0.00471962 0.00492745
N 14.84633516 15.64352445 24.48430602 -0.00250175 -0.00398805 0.00034471
N 18.15035760 10.99839501 26.03971451 -0.00512021 -0.00799678 -0.00454165
N 16.68331071 17.82429067 21.67060928 -0.00290291 -0.00340834 -0.00444302
N 14.76070473 24.67514591 0.96583560 0.00752398 0.00777970 -0.00205549
N 16.59625936 23.38800370 5.47434618 -0.00181912 -0.00292634 -0.00829871
N 16.88651296 27.89977191 7.81369283 0.00112582 -0.00137283 -0.00468876
N 18.11049527 19.71691077 3.60928207 -0.00138856 -0.00183706 -0.00339277
N 16.05978962 22.77707309 1.03725219 -0.00267750 -0.00983365 0.00296943
N 15.15268920 25.21893094 5.50736782 -0.00979713 -0.00118504 0.00345857
N 17.58823424 20.82314319 7.78710234 0.00249704 -0.00376648 0.00452189
N 16.85964362 27.59956085 2.71059752 0.00109436 0.00286900 -0.00280499
N 14.76383625 24.67811738 9.99109692 0.00191137 -0.00206062 0.00610918
N 16.48261910 23.33347403 14.66602983 0.00220947 0.01162078 0.00203195
N 17.20219310 28.25400365 17.17400026 -0.00384470 0.00020153 -0.00012204
N 18.04489050 20.16207279 12.63015989 0.00149523 0.00422274 -0.00385597
N 16.25043318 23.01511260 10.62062544 0.00257036 -0.00460840 0.00028715
N 15.23324840 25.28162339 14.98882776 -0.00468658 -0.00115911 0.00514481
N 17.87046195 20.67935707 16.96565633 0.00718414 -0.00236321 -0.00623626
N 16.93040400 27.26213890 12.39447388 -0.00016623 -0.00738776 0.00673057
N 14.95851036 24.45802764 18.84863176 -0.00525555 -0.00426123 -0.00029683
N 15.93970409 23.18965917 24.31668351 0.00408741 -0.00632458 0.00761080
N 17.05507430 28.05866281 26.34060556 -0.00338606 0.00405476 0.00147917
N 17.89600950 19.77532674 21.97031022 -0.00349792 -0.00028090 0.00124301
N 16.25568698 22.71965412 19.69999191 0.00546283 0.00024222 -0.00434207
N 14.99103023 25.25116573 24.25323105 -0.00249579 -0.00512715 -0.00611759
N 17.94151714 20.15439077 26.09077075 0.00089111 -0.00576927 0.00501581
N 17.23976063 27.50293564 21.53167354 -0.01042861 -0.00329600 0.00091465
N 18.78553642 5.30471271 0.82260328 -0.00069701 0.00077063 0.00376305
N 19.82008022 3.82424021 5.32793949 0.00308176 -0.00071739 0.00081165
N 20.89973203 8.66532726 7.79244094 0.00705453 0.00891020 0.00070993
N 21.77650996 0.45325859 3.14312857 -0.00484544 -0.01136092 0.00440035
N 19.95875344 3.39981037 1.33678340 0.00243336 0.00018822 -0.00472459
N 19.07901833 5.93086263 5.93901748 0.00137287 -0.00155162 0.00090220
N 21.62809995 1.25792017 7.76924380 0.00027147 -0.00228673 0.00063849
N 20.72482892 8.13494489 2.92032227 -0.00471087 -0.00191182 -0.00229184
N 18.65809778 5.56298194 10.28056026 -0.00383741 -0.00044459 -0.00183553
N 19.67792576 4.62378571 14.77070585 0.00031873 -0.00584145 0.00299903
N 20.57108084 8.70324244 17.14609085 0.00799842 -0.00043617 -0.00729430
N 21.71022908 0.77989433 12.62871816 0.00122814 -0.00187417 -0.00101455
N 20.17456387 3.73993657 10.67254652 -0.00613178 0.00489023 0.00807342
N 18.37590197 6.36272518 15.20829881 -0.00639211 -0.00310518 0.00086363
N 21.70207579 1.41268767 16.90538392 -0.00046031 0.00737615 -0.00433769
N 20.35537014 8.40806247 12.26969674 -0.00250062 0.00163391 -0.00422790
N 18.37324104 5.37492277 19.57740257 -0.00173842 -0.00453855 0.00223026
N 20.09795185 3.89370441 24.01264409 0.00010948 -0.00398963 0.00007268
N 20.92775921 8.59435792 26.18240228 0.00201612 0.00397838 0.00097021
N 21.97979000 0.38920514 21.40757930 -0.00043957 -0.00206439 0.00313092
N 19.79014003 3.58272810 19.74506017 0.00323895 0.00349117 0.00101949
N 19.22197176 5.89409811 24.38907437 -0.00065597 0.00470747 -0.00412775
N 21.97486552 1.14660035 25.85176536 0.00235118 -0.00065363 -0.00231114
N 20.80387271 8.04399057 21.33777429 -0.00193941 0.00790326 0.00033764
N 18.80371322 15.23499291 1.22165214 0.00432087 -0.00162627 0.00660144
N 19.71972238 13.42920104 5.82877421 0.00050753 -0.00394455 -0.00857364
N 21.00861210 17.99307832 7.85383017 0.00206381 -0.00426352 0.00688136
N 21.80809133 10.16304275 3.36998377 -0.00560023 -0.00311255 0.00635533
N 19.77306724 13.14076130 1.42570126 -0.00701482 0.00758186 0.00538899
N 18.76417426 15.48706235 6.14685062 0.00305064 -0.00281305 0.00119382
N 21.62456702 10.71208059 7.53570671 -0.00034058 0.00475095 0.00189038
N 20.66676252 17.78623988 2.89467577 0.00545087 0.00799299 -0.00007879
N 18.64721404 15.30222973 10.33302253 0.00786660 -0.00150263 0.00306350
N 19.85836754 13.99495555 15.06526351 0.00151056 -0.00113190 -0.00583098
N 20.37833895 18.65411672 17.02470168 0.00261121 -0.00023205 0.00566132
N 21.47598720 10.46086098 12.69408335 0.00028764 -0.00174425 -0.00523747
N 19.60811990 13.19363329 10.62376677 0.00408084 -0.00499483 -0.00009853
N 18.51294055 15.86351804 15.23207282 -0.00248039 -0.00518752 0.00607023
N 21.62088997 10.76544718 16.93292253 0.00300854 -0.00447176 0.00343327
N 20.70494851 17.68511417 12.31204962 -0.00122318 0.00031435 -0.00206467
N 18.78508577 15.21540977 19.28923431 -0.00351943 0.00039044 0.00412449
N 19.82730278 13.81580731 23.96904862 -0.00268952 0.00699063 -0.00123221
N 20.32072239 18.38554688 26.16842211 -0.00348017 -0.00638867 0.00578636
N 0.00201026 9.98165430 21.52449941 0.00673473 -0.00355503 0.00570303
N 19.84903521 13.19952223 19.77354099 0.00755625 -0.00670233 -0.00641145
N 18.51336096 15.57301953 24.21410264 0.00031913 0.00432974 0.00300578
N 21.67232051 10.86023706 26.11749959 -0.00167585 -0.00198947 0.00134656
N 20.20402260 17.93480071 21.43724525 0.00112590 0.00447119 -0.00576971
N 18.43978230 24.60533767 0.92974359 -0.00516124 0.00722071 -0.00286551
N 20.15901596 23.17297487 5.58099051 0.00471391 -0.00401346 0.00408785
N 20.34365830 27.99602897 7.93531250 0.00500899 0.00130459 0.00244456
N 21.80639939 19.85782017 3.03580080 0.00092356 0.00324128 0.00616960
N 19.84401549 22.72216444 1.17167624 -0.00372134 0.00265475 0.00280448
N 19.18211972 25.25291564 5.76329688 0.00466242 0.00535594 -0.00013670