1728
Time=54000.00000004 pbc="T T T" Lattice="22.18249839 0.00000000 0.00000000 0.00000000 28.75485224 0.00000000 0.00000000 0.00000000 27.38477081" energy=-10387.06171429 virial="18.82889303 0.70541939 5.74415664 0.70541939 6.43805791 10.81406757 5.74415664 10.81406757 -15.78262769" stress="0.00352500 0.00008469 0.00040031 0.00008469 0.00288411 0.00065607 0.00040031 0.00065607 0.00189340" Properties=species:S:1:pos:R:3:vel:R:3
N 0.19856538 5.53261507 0.93921010 -0.00078879 -0.00824176 0.00293662
N 1.45904003 4.28524572 5.63469921 -0.00172152 -0.00421242 -0.00072606
N 1.98925482 8.92904782 7.76240982 -0.00097562 -0.00051314 0.00090730
N 3.23512864 1.01642475 3.40532761 0.00292960 -0.00184606 0.00084565
N 0.84790036 3.45322246 1.22996418 -0.00291942 -0.00286565 0.00802996
N 0.23246217 6.08919175 6.00739711 0.00217974 0.00148224 0.00585740
N 3.41227225 1.23265503 7.85311079 0.00235406 0.00134628 0.00446897
N 1.74665853 9.00573885 2.65387650 -0.00150541 -0.00088601 -0.00419341
N 0.30575067 5.85969896 10.22111416 0.00420455 0.00067630 0.00018025
N 1.64784269 4.32357954 14.50587710 0.00657055 0.00320684 0.00089034
N 2.16255895 8.77061227 16.89134099 0.00180612 0.00710462 -0.00156904
N 3.09895149 1.18307786 12.82467456 0.00086817 -0.00291243 -0.00005517
N 1.67457090 3.96416397 10.36789675 -0.00196723 -0.00868266 -0.00040923
N 0.63671396 6.41671024 15.14718427 0.00091338 -0.00216339 0.00519417
N 3.38416237 1.35840258 16.69587083 0.00343840 0.00244447 0.00564550
N 2.14200706 8.42133631 12.08393727 0.00100204 0.00685860 -0.00328238
N 0.54884387 5.51024776 19.45344931 0.00270604 0.00322144 0.00212602
N 1.97314310 4.08486603 23.83441150 -0.00102113 -0.00219055 -0.00057691
N 1.76102700 9.12741622 26.02232895 0.00267977 0.00294296 0.00641811
N 3.48034212 0.67393030 21.41570378 0.00238843 0.00078669 -0.00107655
N 1.66265608 3.60077304 19.83657704 -0.01001482 -0.00378952 -0.00190745
N 0.35730263 5.81273798 24.23076406 0.00074209 -0.00111968 0.00206977
N 3.28507137 1.22521083 25.58855816 -0.00236552 -0.00807708 -0.00229799
N 2.03356034 8.54950182 21.10039576 -0.00046379 -0.00200613 -0.00180337
N 21.86868089 15.47412163 0.40652236 -0.00092233 -0.00790369 0.00275066
N 1.32782963 13.66104964 5.88714672 0.00020223 0.00529447 0.00322207
N 2.22486200 18.39826847 8.32394926 0.00844087 -0.00129001 -0.00086056
N 3.20177667 10.77967843 3.15946069 -0.00005152 -0.00129164 -0.00545214
N 0.90360825 13.58375623 1.00764593 0.00590784 -0.00625156 -0.00184078
N 0.52046556 15.70709614 6.26057459 -0.00145776 0.00445093 -0.00459473
N 3.41904418 10.78436444 7.21065300 0.00707255 0.00292515 -0.00212687
N 2.33859284 18.32604039 3.46561452 -0.00616121 -0.00380270 -0.00072009
N 0.41803707 15.07500035 10.53712396 -0.00475338 0.00544757 0.00816013
N 1.85558680 13.53891044 14.74340553 0.00053133 -0.00076091 0.00170920
N 2.24485642 18.39287931 17.31612283 0.00067207 0.00305537 0.00986877
N 3.67977030 10.22975590 12.16456727 -0.00102916 0.00011542 0.00031829
N 1.76061473 13.18529645 10.21308403 -0.00312547 -0.00605156 -0.00096641
N 0.41379121 15.37077618 14.97403164 -0.00329305 0.00118705 0.00703391
N 3.19307234 10.83280709 16.58625728 0.00055792 0.00864200 0.00305452
N 2.78949589 17.95633114 12.26557673 -0.00280508 -0.00066656 -0.00269276
N 0.30715051 15.27017992 18.95744250 0.00032572 0.00266554 -0.00133141
N 1.64349006 13.51915348 23.46974196 -0.00675067 -0.00041535 0.00080840
N 1.81530478 18.52781113 26.38202070 -0.00237632 0.00313362 0.00467577
N 3.24577745 10.50757783 21.47740789 0.00371450 0.00426427 -0.00146581
N 1.49784403 13.33089499 19.38164644 -0.00395873 -0.00095043 0.00247275
N 0.23434115 15.26155557 24.01297467 -0.00288397 -0.00402234 0.00323382
N 3.20027763 10.91885911 25.57355487 -0.00730399 0.00056732 0.00179219
N 2.35272246 18.04016119 21.52980523 -0.00416756 -0.00213414 0.00294742
N 0.37951171 24.65409341 1.46798765 0.00126789 0.00351143 -0.00701795
N 1.45121304 23.26908731 5.55315816 0.00062945 -0.00720308 -0.00491080
N 1.97761891 28.26780633 8.16354058 -0.00304256 0.00006745 -0.00480219
N 3.45944509 20.30700945 3.81287959 -0.00492932 0.00691192 0.00741397
N 1.49147005 22.57522485 1.46872272 -0.00534711 0.00502972 -0.00748807
N 0.28263113 25.23792676 6.04778070 -0.00614696 -0.00350656 -0.00319009
N 3.40258684 20.22206483 7.53767163 -0.00118947 -0.00569917 -0.00156527
N 2.38536748 27.66831841 3.00062749 -0.00622011 0.00222972 -0.00392127
N 0.38397709 24.51798060 10.14746703 -0.00260925 -0.00026595 -0.00391690
N 2.03560187 23.37852358 15.11438097 0.00462677 -0.00107184 -0.00058136
N 2.58044905 28.06096386 16.94500094 -0.00139672 0.00011291 0.00436264
N 3.38626312 20.10688036 12.66063034 -0.00119833 0.00972070 -0.00308645
N 1.68564155 22.58270745 10.20967962 -0.00477048 -0.00155823 0.00208420
N 0.47364015 25.11701781 15.06056320 0.00220533 0.00107331 -0.00260153
N 3.44102029 20.37996647 16.97724387 -0.00328414 0.00367931 0.00246828
N 2.59890465 27.82529062 12.12660433 -0.00361581 -0.00135410 -0.00306934
N 0.52857057 24.78305959 19.45103614 0.00443078 0.00247648 -0.00126568
N 1.13571908 23.18401816 24.15317364 0.00354163 0.00185442 0.00209550
N 2.22177802 28.02474473 26.12067573 -0.00589589 -0.00019209 0.00034894
N 3.45331691 19.90227674 21.95509786 0.00091522 0.00172307 0.00131488
N 1.37779840 22.71510372 20.05578080 0.00105378 0.00472967 0.00503869
N 0.12586753 25.18356948 24.32520797 -0.00017997 0.00267590 -0.00640653
N 2.95453059 20.50062798 26.01311873 -0.00315528 0.00083369 0.00435711
N 2.01082289 27.72797870 21.28565325 0.00503610 0.00399741 -0.00567819
N 3.74253544 5.88457382 0.94344469 0.00003166 0.00429958 -0.00024435
N 5.15942430 4.14011336 5.75041355 0.00196103 0.00008533 -0.00510234
N 5.66448824 8.65968299 7.84397809 0.00081676 -0.00568845 -0.00584232
N 6.54935749 0.71631392 3.78013229 0.00734580 0.00387715 -0.00040261
N 4.89320083 3.82443560 1.22019628 0.00437622 -0.00360949 0.00269444
N 3.90416808 6.04404671 5.95567558 -0.00657476 -0.00401562 0.00227575
N 6.95337897 1.22704283 7.84859263 -0.00687943 -0.00467951 -0.00325042
N 5.51257318 8.43414380 3.19135867 -0.00028497 0.00079917 0.00011837
N 4.31930591 5.60625352 10.35883541 -0.00659538 0.00033387 0.00460893
N 5.50006252 3.94280612 14.82934020 0.00122732 -0.00195582 -0.00273888
N 6.11811386 8.61059850 17.37263357 0.00325126 -0.00301600 -0.00147837
N 7.22597868 0.56810457 12.67384042 -0.00381015 0.00080512 0.00215417
N 5.33313462 3.56653871 10.65805704 -0.00292792 -0.00182602 0.00712124
N 4.15533604 5.84525997 14.95353480 0.00758575 0.00228718 -0.00452645
N 7.25921902 1.12439867 16.72524340 0.00420582 -0.00088163 -0.00306482
N 6.00341322 8.38303191 12.49264435 -0.00143092 -0.00457860 0.00633228
N 4.19501689 5.48375492 19.53261835 -0.00175562 0.00254234 -0.00172195
N 4.65052967 4.08636370 23.82268130 0.00126124 -0.00408596 0.00083853
N 5.53937933 8.67757633 26.19710824 0.00037169 -0.00046712 0.00225281
N 7.26207165 0.60996986 21.30476612 0.00416046 -0.00083743 -0.00031119
N 5.26983639 3.44850303 19.71948178 -0.00581433 0.00045259 -0.00038983
N 4.12176984 6.29750715 24.15781309 -0.00523370 -0.00082119 -0.00003296
N 6.76979175 1.15065693 25.85226510 -0.00324065 -0.00716173 0.00161008
N 5.55275348 8.64067202 21.16411947 0.00053503 -0.00651775 0.00710754
N 3.83447568 15.48392733 1.25323975 0.00634893 -0.00684824 0.00510163
N 5.05358806 13.64580578 5.46245575 -0.00239419 0.00115310 0.00339560
N 6.02265534 18.28236787 8.05500374 -0.00324839 0.00091675 0.00485612
N 6.51026420 10.56584672 3.32281082 0.00112841 -0.00418029 -0.00798551
N 4.72407249 13.32407534 1.29794535 0.00270915 0.00156971 0.00799496
N 4.13466489 15.80961570 5.70646316 0.00323179 0.00712369 -0.00104344
N 7.14691552 10.51204396 7.58272687 -0.00508823 0.00517486 -0.00763602
N 6.15171658 18.10210558 3.04111974 -0.00685606 -0.00609332 -0.00068420
N 4.30938706 15.09230318 10.33163735 0.00214689 -0.00905917 -0.00012906
N 5.30679790 13.78866957 15.01949009 -0.00171854 -0.00100239 0.00002022
N 5.74913557 18.29999842 17.53740218 -0.00031507 -0.00187835 -0.00211503
N 7.23618286 10.33881337 12.72948195 0.00048881 0.00479993 -0.00152889
N 5.29843410 12.97762466 10.38147897 0.00014453 0.00288887 -0.00590904
N 4.31773640 15.72821825 15.36236229 0.00145840 -0.00045255 0.00489714
N 7.25971760 10.58764490 16.87901340 0.00000168 -0.00378028 -0.00165766
N 5.95012942 17.92588920 12.57690695 -0.00348844 -0.00239626 0.00082311
N 4.08403606 14.86286055 19.59486986 0.00016785 -0.00243560 0.00353725
N 5.31700315 13.82242610 24.27683254 -0.00518689 -0.00170656 -0.00027694
N 5.48694088 19.07614056 26.37262059 -0.00202907 0.00035495 0.00290889
N 6.77466872 10.44254434 21.87655688 0.00229367 -0.00206808 0.00061187
N 5.12226493 12.81628930 19.78393248 0.00243028 -0.00596552 -0.00145914
N 4.30652451 15.80965410 24.51173745 -0.00180914 -0.00027565 0.00624416
N 6.80298319 10.56361519 26.07868681 0.00072808 -0.00084775 0.00062474
N 5.88074327 18.24462353 21.48954170 0.00259049 0.00175769 0.00378331
N 3.97798838 24.67344174 1.03165596 -0.00067677 -0.00567477 0.00296716
N 5.26778367 23.55346518 5.80196370 0.00245990 -0.00338963 0.00182372
N 5.92141720 27.99770875 8.40817127 -0.00143305 -0.00153169 -0.00294725
N 7.25391540 19.89429647 3.87385782 -0.00588160 -0.00076036 -0.00285072
N 5.19268317 22.70619232 1.49049825 -0.00540489 0.00460058 0.00452193
N 3.84505523 25.40603150 5.85126083 -0.00126139 0.00269472 0.00537485
N 6.34729006 20.54702686 7.81716909 -0.00147597 0.00371953 -0.00160538
N 6.23279949 27.32427028 3.13598705 -0.00192444 0.00095844 0.00473750
N 4.34904214 24.48309102 10.51697290 -0.00493213 0.00483874 0.00262594
N 5.39300225 23.34027779 14.86536813 -0.00355893 0.00533037 0.00064556
N 5.76777146 28.04257742 16.91017171 -0.00440986 0.00048370 0.00028099
N 7.44197994 19.73747096 12.98562524 0.00418173 0.00433730 -0.00631595
N 5.40166406 22.42323129 10.46101533 0.00256625 0.00455595 -0.00519157
N 4.29505487 25.33077362 14.97159816 0.00095821 0.00077887 0.00093921
N 7.07355278 20.12103293 16.83954546 -0.00247914 0.00338685 -0.00138424
N 6.08843910 27.42122103 12.27872937 -0.00273066 0.00208412 0.00801820
N 3.95860165 24.59541925 19.24457671 -0.00383352 0.00035725 -0.00117368
N 5.17923545 23.39531473 24.12828227 -0.00046168 0.00135219 0.00278007
N 5.76007460 27.87341875 26.15112629 -0.00049884 0.00295458 0.00906092
N 7.34210357 19.97528564 21.94633179 0.00019503 0.00344606 0.00270849
N 5.35171164 22.80333917 19.74163836 -0.00147017 0.00425599 -0.00351250
N 3.75356660 25.13642206 24.08463261 -0.00131100 -0.00434815 0.00499644
N 7.09576500 20.69484620 26.19096578 -0.00168114 0.00355660 0.00238397
N 5.92894023 27.46240414 21.31093781 -0.00399714 -0.00437917 -0.00689737
N 7.45832126 5.18129149 1.15846715 -0.00716369 -0.00550434 -0.00358642
N 8.96191903 4.20478717 5.67810591 -0.00231338 -0.00083598 -0.00227567
N 9.50809950 8.80595338 8.17234942 0.00667024 0.00168294 0.00254767
N 10.54480631 0.45193046 3.27508661 0.00451189 -0.00083066 -0.00635928
N 8.55061198 3.06896020 1.37382257 -0.00258648 -0.00524449 -0.00205779
N 7.55572342 6.05249103 6.17201617 -0.00240911 0.00344503 -0.00205722
N 10.92092904 1.28988104 7.89103464 -0.00283378 0.00089021 0.00036020
N 8.96016497 8.42682475 2.98414391 0.00636532 -0.00125283 0.00004147
N 7.81922956 5.57147953 10.56333513 -0.00020126 -0.00318674 0.00132901
N 9.26642471 4.09512318 15.00318271 0.00181699 0.00209214 -0.00315348
N 9.63636410 8.90799953 16.66000350 -0.00531900 -0.00579232 -0.00028041
N 11.39083580 0.36830208 12.32504160 0.00024350 0.00196724 0.00322510
N 9.06963694 3.65846750 11.11643151 -0.00455797 -0.00082212 0.00062434
N 7.96006082 5.86109974 15.60262563 0.00291816 0.00264624 -0.00396262
N 10.73913645 1.09938390 16.55681572 -0.00069128 0.00319684 0.00298321
N 9.77044424 8.18610623 12.45087455 -0.00305127 0.00106904 -0.00105496
N 7.37794339 5.50977821 19.02723865 0.00136315 0.00020458 0.00703676
N 8.76667956 4.10172986 23.92278413 0.00563865 -0.00952918 -0.00238531
N 9.22727557 8.72698030 26.22110770 -0.00437761 -0.00707446 0.00349117
N 11.11061353 0.62535989 21.91768731 -0.00874688 -0.00527646 0.00082115
N 8.89993602 3.97587151 20.04625489 -0.00984351 -0.00238416 0.00296800
N 7.57497456 6.03167664 24.43269647 -0.00768215 -0.00879628 0.00222982
N 10.42088625 1.35243366 25.75628955 -0.00253603 -0.00161846 -0.00173568
N 9.62549430 8.17037219 21.22404736 0.00483563 -0.00312874 0.00412918
N 7.39802368 14.81605420 1.14391878 -0.00542682 0.00422166 -0.00654561
N 9.25353658 13.75439974 5.73970884 0.00755185 0.00029868 -0.00175946
N 9.16216562 18.48701477 7.73081396 -0.00780661 -0.00328702 -0.00068648
N 10.46884863 10.24917689 3.32243894 0.00062791 -0.00465217 -0.00578822
N 8.67073212 12.91465061 1.41560594 0.00065068 -0.00581156 0.00077110
N 8.09139101 15.68269297 5.97426752 0.00932444 0.00706851 0.00103209
N 10.83923347 10.50288748 7.37009751 0.00589567 -0.00133851 0.00376118
N 9.43246998 17.72545447 2.95947198 -0.00368957 -0.00075502 -0.00447255
N 7.76414838 15.10395436 10.23555150 -0.00058161 0.00064174 0.00805344
N 9.35288076 13.73198381 14.77929892 0.00041218 -0.00037119 -0.00180126
N 9.76802746 18.52634414 16.81958968 -0.00090254 -0.00110720 -0.00288443
N 10.70206465 10.25507889 12.46313477 -0.00113631 -0.00289583 0.00002524
N 8.88563420 13.12734411 10.56811676 -0.00174885 -0.00265290 -0.00751220
N 7.90295636 15.44118851 15.20617243 0.00618011 0.00479092 -0.00243900
N 11.04382963 10.88148315 16.60242896 0.00325548 -0.00483983 -0.00562991
N 9.73631427 17.76684508 12.43505804 -0.00180544 -0.00280081 -0.00639165
N 7.50702830 14.70695917 19.80494632 -0.00388712 -0.00298933 -0.00002867
N 9.07553260 13.63389244 23.82249653 0.00193909 0.00666008 -0.00298730
N 9.35272970 18.58057088 25.79886730 -0.00152138 0.00390236 0.00309053
N 10.86773935 10.02180308 21.93449626 -0.00560177 -0.00069843 -0.00370804
N 8.97277351 12.95016081 19.80428089 -0.00001334 -0.00049861 0.00130175
N 7.79051007 15.56620018 23.89720336 -0.00937959 -0.00247311 0.00488086
N 10.41993066 10.73928229 26.23659406 -0.00075440 -0.00368868 -0.00134740
N 9.56623025 17.74168214 21.23565687 -0.00393006 -0.00213478 -0.00098597
N 7.50514082 24.58626126 0.87016784 0.00469599 -0.00011042 -0.00193831
N 8.62381679 23.25012088 5.84622711 -0.00011641 0.00337654 -0.00240349
N 9.60208186 28.15711557 7.94180736 0.00364817 0.00525123 0.00508917
N 10.73301328 19.70123862 3.06512875 -0.00407158 -0.00132134 -0.00211923
N 8.93741879 22.79315587 1.49034158 -0.00076726 0.00234663 0.00231655
N 7.81510190 25.45705707 6.03873061 0.00265622 0.00842907 0.00675754
N 10.16503351 20.55094043 7.36731094 0.00883554 0.00022277 -0.00066139
N 9.82572406 27.00175850 3.15957072 -0.00333397 0.00284526 -0.00246137
N 7.85426761 24.47075026 10.54594241 0.00058534 -0.00045106 -0.00214530
N 9.20500115 23.34623722 14.81601938 0.00720113 0.00028355 0.00577307
N 9.53000385 27.92846331 17.19903033 0.00134808 0.00257060 -0.00565551
N 11.18388254 19.49289856 12.41746564 0.00163100 -0.00030486 0.00033178
N 8.77355522 22.35237936 10.61736761 0.00405199 0.00478293 0.00238099
N 7.80777019 25.05656562 15.45074113 0.00199111 0.00268141 0.01187087
N 10.85317188 20.55815238 16.72669424 0.00214773 0.00140183 0.01137088
N 9.84150975 27.36739070 12.06577559 0.00036376 -0.00116857 0.00380295
N 7.54445545 24.57363213 19.05458391 0.00771299 -0.00545195 -0.00362139
N 8.97514999 23.28265302 23.61717510 -0.00451601 0.00444608 0.00331491
N 9.10733754 28.20473401 25.95403471 -0.00988464 0.00162593 0.00327618
N 10.78484288 19.67445564 21.27456826 0.00643314 0.00019680 0.00526827
N 9.27302613 22.81225484 19.20554458 0.00184068 0.00125957 -0.00367690
N 7.56070347 25.14226475 23.87064015 -0.00734800 -0.00063942 -0.00328324
N 10.56681870 20.62519910 25.59028879 -0.00405467 0.00356787 0.00238247
N 9.70364682 27.69470480 21.15107181 0.00550083 0.00219166 -0.00168314
N 11.08496919 5.13939822 1.22920091 -0.00581871 -0.00160509 0.00139207
N 12.49498159 4.01835649 5.69108458 -0.00305902 0.00135234 0.00449180
N 13.25925166 9.01688558 8.16884952 0.00246611 -0.00510060 0.00211215
N 14.58734563 0.54613836 3.45690530 -0.00481841 -0.00658091 0.00002047
N 12.41322742 3.26871165 1.28827512 0.00265763 -0.00433577 0.00463544
N 11.46727319 6.06303457 6.32922208 0.00244032 0.00075316 -0.00167288
N 14.47960636 1.37893790 7.44313248 0.00114845 0.00312380 -0.00617013
N 12.89496917 8.27030094 3.26417913 -0.00410057 0.00476880 0.00019846
N 11.35923062 5.25283041 10.56795835 -0.00071632 0.00293256 0.00006365
N 12.87124220 4.06911177 15.06485971 -0.00096605 -0.00217728 -0.00566752
N 13.18167923 8.63462206 17.14657365 -0.00054782 0.00384715 -0.00710493
N 14.86238387 0.67374320 12.70946332 0.00199480 -0.00246807 0.00373518
N 12.60967041 3.29672140 10.53298680 0.00358909 -0.00301018 0.00191171
N 11.50013701 5.94710556 15.28243746 0.00141230 0.00023769 0.00468250
N 14.62989619 1.38361679 16.85853777 0.00195877 -0.00092854 -0.00111220
N 13.40052787 8.11969899 12.24997773 -0.00049240 -0.00139986 -0.00638121
N 11.32566519 5.31613529 19.43540880 -0.00047509 0.00234437 -0.00637286
N 12.51360517 3.93992525 24.08800482 -0.00207545 -0.00092328 0.00250692
N 12.62637785 8.83799504 26.19410300 -0.00132397 -0.00253322 0.00477945
N 14.50222161 0.98067550 21.69029702 -0.00085754 -0.00439018 0.00216912
N 12.69463469 3.48123199 19.79445464 -0.00583255 0.00067098 0.00135500
N 11.14835957 5.82320955 24.15819918 0.00285378 -0.00435294 0.00100075
N 14.42137226 1.46066900 25.78746417 -0.00730508 -0.00798567 -0.00277162
N 13.24317804 8.18058950 21.25067755 0.00153905 -0.00189340 0.00122013
N 10.88637698 15.11155616 1.10345699 -0.00020192 0.00753364 -0.00199497
N 12.63630130 13.49607548 5.77496959 -0.00273626 0.00443869 0.00654487
N 13.13644004 18.53420098 7.90904573 -0.00563219 0.00532046 0.00856809
N 14.08101186 10.26034235 3.37379392 0.00006917 -0.00325302 -0.00044835
N 12.14619279 13.30934736 1.47877262 -0.00074938 -0.00395587 0.00183873
N 11.75360958 15.59474753 5.98346338 0.00110069 0.00086343 0.00197806
N 14.65477557 10.84784103 7.65739007 0.00604018 0.00519056 0.00386155
N 13.20873445 18.21189415 2.85425710 -0.00006959 0.00063464 -0.00174132
N 11.58944765 15.34242752 10.17068865 0.00080999 0.00232417 0.00031671
N 13.00191721 13.71181358 14.74532688 0.00677207 0.00657122 -0.00130685
N 13.16932395 18.42982165 16.92236515 0.00443276 0.00269848 0.00000896
N 14.40360945 10.22513197 12.52348498 0.00199148 -0.00131180 0.00121699
N 12.48431149 13.20355897 10.28449569 0.00189439 0.00351295 -0.00058106
N 11.63728392 15.53380313 14.96616147 -0.00236367 -0.00103381 0.00134844
N 14.28765070 10.56367521 16.79137473 0.00563420 0.00343254 0.00328947
N 13.46754267 18.02903789 12.11968756 0.00726730 -0.00527616 -0.00353503
N 11.27013888 14.92956825 19.34071324 -0.00408001 0.00515977 -0.00398572
N 12.26005505 13.59275890 23.98868351 0.00053139 0.00264259 0.00160134
N 13.35756201 18.89852633 26.07036206 0.00348962 0.00567798 0.00084116
N 14.56125893 9.96596119 21.86083189 0.00595953 -0.00252150 -0.00030319
N 12.56198438 13.04949909 19.78722587 0.00150168 -0.00087097 0.00193594
N 11.50101519 15.85414548 24.29851502 0.00456282 -0.00216954 -0.00230188
N 13.93060838 10.72654421 25.92325439 0.00110132 0.00567010 0.00228089
N 13.25250130 17.99123779 21.43508260 0.00189775 0.00291871 -0.00243050
N 11.28039395 24.70582989 1.08546547 -0.00248379 0.00543872 -0.00404814
N 12.31088766 22.76198281 5.70979911 -0.00163509 -0.00181031 -0.00616760
N 13.27519552 28.14242326 8.05123695 -0.00035602 0.00240491 -0.00152882
N 14.24154789 20.16243755 3.24554765 -0.00812001 0.00188732 0.00369786
N 12.34486253 22.72678735 1.65695935 0.00377562 -0.00565647 0.00408510
N 11.42975585 24.91497861 6.20948559 0.00656663 -0.00501981 0.00154617
N 14.61826648 20.29602435 7.85398077 -0.00174408 -0.00413396 0.00348144
N 13.26805043 27.37439648 3.11666623 0.00420951 -0.00524761 0.00136560
N 11.28320316 24.70850682 10.19360243 -0.00082883 -0.00180264 0.00220025
N 12.61616691 23.19946855 14.80725260 0.00153243 -0.00226456 -0.00618391
N 13.03969617 28.34818865 16.92533025 -0.00017917 0.00165269 -0.00571867
N 14.55164897 20.10225298 12.53377272 -0.00476972 0.00605562 0.00047541
N 12.60551245 22.80296415 10.62909367 -0.00655483 -0.00048241 -0.00681169
N 11.43753573 25.25425053 15.08012576 0.00723919 0.00039802 -0.00200481
N 14.73421758 20.06148562 16.47951682 -0.00098265 0.00060236 0.00122849
N 13.56330038 27.51688860 12.45343966 -0.00296052 -0.00089962 0.00291751
N 11.65575412 24.61731601 19.56044718 0.00927549 -0.00463840 0.00216132
N 12.77390634 23.54360619 23.84279398 -0.00354726 -0.00137277 0.00251005
N 13.04560320 28.37039223 26.37920998 0.00105323 0.00850039 -0.00054614
N 14.75622471 19.67602688 21.45998397 -0.00621934 -0.00168858 0.00552379
N 12.82613126 22.65389870 19.86634914 -0.00352288 0.00154359 0.00182557
N 11.27963888 25.10080634 24.54995827 0.00089556 0.00175772 0.00492058
N 14.28430323 20.92232494 26.11559150 -0.00176314 -0.01083693 -0.00352687
N 13.44145022 27.61746248 21.31334373 -0.00268353 0.00024738 0.00270763
N 14.50719467 5.32840282 1.05640106 0.00358917 -0.00016690 -0.00036031
N 16.44141368 4.34917692 5.84386487 0.00601587 0.00019569 -0.00154569
N 17.34928815 9.33794876 7.75475988 0.00757868 -0.00124368 0.00079709
N 17.93613051 0.47485217 3.36042736 0.00200263 -0.00778633 0.00309997
N 15.83784254 3.47985401 1.54238129 0.00157670 0.00000306 -0.00009865
N 15.18024339 6.20409441 6.01193794 -0.00321124 0.00397794 0.00233182
N 18.15934940 1.44128444 7.50620023 -0.00038170 -0.00063985 -0.00236650
N 16.75666589 8.42032655 2.83063783 -0.00166624 0.00302770 -0.00614558
N 15.19628904 5.34481051 10.38334305 0.00594445 -0.00719176 -0.00232794
N 16.42654827 3.92813840 14.70697423 0.00337267 -0.00326397 0.00155054
N 16.68536751 9.00297633 17.16925117 -0.00310083 0.00131981 -0.00119906
N 18.84304118 0.73838676 12.89544345 -0.00358027 0.00504504 -0.00134490
N 16.48331779 3.51889241 10.38062620 -0.00137828 -0.00242179 0.00062775
N 15.19506842 5.96545767 14.75043369 -0.00735867 0.00077191 0.00465014
N 18.10542979 1.13285261 16.93507604 0.00380241 0.00514687 0.00260128
N 17.18468364 8.27614793 12.13374490 -0.00259681 -0.00501417 -0.00369915
N 14.94352092 5.30547464 19.03439065 -0.00142224 -0.00249478 0.00485205
N 16.36726088 4.34028784 23.95168225 0.00703880 0.00032392 0.00273823
N 16.47165177 9.01061193 26.11338078 0.00049079 0.00388835 -0.00233835
N 18.29154384 0.51355886 21.57296369 -0.00328325 -0.00219122 0.00191679
N 16.24571721 3.51666524 19.61449753 0.00421667 0.00435689 0.00013720
N 14.69896346 5.92654457 24.35198946 -0.00452574 -0.00161702 0.00227804
N 17.99526604 1.71293404 25.86498956 -0.00337477 -0.00507253 -0.00311067
N 17.20123843 8.17296518 21.56201791 -0.00388633 0.00228066 0.00231640
N 14.62022453 15.19078056 0.80277741 -0.00325551 -0.00143462 0.00011842
N 16.27250469 13.74274488 5.32188053 0.00427033 -0.00172449 0.00061329
N 16.78304562 18.16802410 8.26868888 -0.00375528 -0.00284307 -0.00218849
N 17.70895122 10.41375440 3.28747063 0.00373125 -0.00236885 -0.00082076
N 15.50106110 13.14546488 1.13448806 -0.00632662 -0.00608612 0.00379945
N 15.12468328 15.48356364 6.32328599 -0.00247231 -0.00090157 -0.00228317
N 18.43035192 11.34943814 7.67438049 0.00303065 -0.00104590 -0.00238632
N 16.45893406 18.32821197 3.07360078 0.00273156 0.00020065 -0.00246698
N 15.30793549 15.01226286 10.38311380 -0.00011522 -0.00695148 -0.00066423
N 16.60215402 13.52303671 14.93177977 -0.00354679 0.00271153 -0.00362956
N 16.74237640 18.34843777 17.12625545 0.00245089 -0.00283789 -0.00158465
N 18.37643271 10.11627365 12.53401541 0.00708638 -0.00493949 -0.00306717
N 16.52149684 13.05461497 10.54360496 0.00178887 -0.00598856 0.00102153
N 15.58297725 15.60976431 15.22834673 -0.00598629 0.00046406 -0.00380109
N 18.14335013 10.78474855 17.23525703 0.00175144 -0.00161555 0.00038873
N 17.16745164 17.77647202 12.13482373 -0.00108222 -0.00476279 0.00469453
N 15.11120447 14.83013373 19.54239461 -0.00500934 0.00390896 -0.00876497
N 16.28790798 13.63231998 23.75584915 0.00406711 -0.00296530 0.00256963
N 16.94319037 18.34188081 26.32032007 0.00135232 0.01026242 0.00415160
N 18.42432478 10.17262695 21.65613909 -0.00223931 -0.00494175 0.00108286
N 16.01852503 12.77344759 19.80806772 -0.00326326 -0.00314295 -0.00026588
N 15.13639443 15.72083459 23.76777242 -0.00008997 -0.00399416 0.00522961
N 17.74308492 10.95232038 25.81223828 0.00738256 -0.00247684 -0.00055534
N 17.20797915 17.96242342 21.25283788 -0.00375552 0.00098430 0.00062555
N 14.83536725 24.39012349 1.45254055 -0.00333411 -0.00068801 0.00372674
N 16.08918372 22.97035438 5.75959744 -0.00351758 -0.00893798 0.00306127
N 17.06050416 28.16036110 7.72278344 0.00290347 0.00416788 0.00722947
N 18.02387117 20.04487004 3.47026810 -0.00800269 -0.00109787 0.00100930
N 16.47109166 22.82248786 1.63923022 -0.01092418 0.00015250 -0.00638205
N 15.53774459 25.20359130 6.22277102 -0.01242183 0.00128358 0.01085372
N 18.12396100 19.94773008 7.76058247 -0.00038201 -0.00501435 0.00438451
N 16.67205356 27.30779303 3.18286399 -0.00367824 0.00115022 0.00170526
N 15.11643949 24.58064359 10.31155637 0.00507828 0.00143970 -0.00402902
N 16.66698804 23.14747003 14.99686146 0.00120797 0.00257440 -0.00147332
N 17.09550721 27.74523448 17.09052490 0.00321389 -0.00172716 -0.00385506
N 18.44033869 19.55309305 12.80831511 0.00090341 -0.00149326 0.00359043
N 16.57983332 22.77385946 10.73295401 0.00054463 0.00279796 0.00232905
N 15.22552573 25.03329506 14.98908415 0.00267427 -0.00039661 0.00084821
N 18.14223782 20.17507546 16.93799062 -0.00155808 0.00479137 -0.00297829
N 17.47771755 27.69626966 12.13913686 -0.00458465 -0.00107774 0.00344461
N 15.38759267 24.50200632 19.43839319 -0.00484902 0.00180573 0.00373847
N 16.38864710 23.66895511 24.24317175 0.00097892 0.00062575 0.00223474
N 16.97548060 28.40309713 25.97251374 0.00580453 -0.00306142 -0.00526422
N 18.43894933 19.87000424 21.84566405 -0.00142323 0.00169319 -0.00855597
N 16.58968404 22.54039326 19.43409257 -0.00227477 -0.00685356 0.00133083
N 14.96682971 25.53024420 24.41588557 -0.00574787 -0.00454035 -0.00195835
N 18.17652454 20.22623133 25.78218836 0.00197475 0.00270509 -0.00921626
N 16.97671302 27.28723616 21.39177569 -0.00162510 0.00860505 -0.00320021
N 18.29556541 5.16364129 1.22096560 0.00299126 0.00425272 -0.00898849
N 20.07044188 4.34342616 5.93334131 0.00702481 -0.00309610 0.00143297
N 20.50822776 9.02858089 7.95549655 -0.00035509 0.00114708 -0.01031727
N 21.88478911 0.65089298 3.51097806 -0.00193095 0.00306985 -0.00155545
N 19.89334068 3.48394146 1.33218979 -0.00313424 0.00040856 0.00769299
N 18.57860866 6.01781354 6.28896696 0.00769270 -0.00087025 -0.00004764
N 21.87173017 1.29452083 7.68392375 0.00480255 0.00457024 -0.00307148
N 20.67686963 8.35372701 3.21546289 -0.00456604 0.01096788 0.00328131
N 18.87592334 5.57553227 10.23288495 -0.00074268 -0.00029338 -0.00461672
N 20.29020089 4.18193513 14.92993848 0.00213417 -0.00042484 -0.00342641
N 20.85099709 8.93005124 17.26723044 0.00546258 0.00117278 0.00421035
N 0.11543217 0.75719849 12.33448560 -0.00108715 -0.00251404 0.00682081
N 20.11917182 3.74301671 10.66651709 -0.00546405 0.00440917 0.00812547
N 19.10659767 6.12378397 15.15839863 0.00458250 -0.00066268 0.00079657
N 21.79932313 1.37413264 16.67097949 0.00170367 -0.01035856 -0.00420339
N 20.60201153 8.35104953 11.95395146 0.00311309 0.00286572 -0.00427565
N 18.74186941 5.50371255 19.42402958 -0.00220349 -0.00535505 0.00271265
N 20.06438518 4.31126090 23.83687679 -0.00541951 -0.00191417 0.00693292
N 20.17532155 8.94988980 26.44416121 0.00103426 -0.00136732 -0.00211112
N 21.97703722 0.93074956 22.18194434 0.00130578 0.00522725 -0.00146765
N 19.62637713 3.49421060 19.85336518 -0.00790891 0.00045859 0.00571935
N 18.85472784 6.13379640 24.18312423 -0.00159503 -0.00845418 0.00417095
N 21.77707301 1.07742162 25.86613273 0.00257721 -0.00079639 0.00083420
N 20.93914241 8.42293608 21.40086045 0.00310515 0.00265537 -0.00088148
N 18.04895914 15.03086491 1.26456458 -0.00150562 0.00068112 0.00152856
N 19.98372876 14.04396002 5.72999272 -0.00258936 0.00109826 -0.00353183
N 20.48279608 18.31824297 7.95181421 0.00584772 -0.00141777 0.00247569
N 21.24474642 10.52194960 3.52652466 -0.00341721 -0.00781590 0.00664892
N 19.67045889 13.24497278 1.51462808 -0.00111904 -0.00922315 0.00297405
N 18.51961829 15.81846859 5.92930674 0.00374392 -0.00397737 0.00156881
N 21.92979894 10.73429795 7.68508026 0.00838049 -0.00703966 0.00161467
N 20.49708914 17.90933939 3.21328041 -0.01127124 -0.00467135 0.00127292
N 18.69145560 14.92459220 10.30839217 -0.00281035 -0.00098455 -0.00002437
N 20.04105670 13.60666435 15.08514847 -0.00575277 -0.00235344 -0.00163651
N 20.68290452 18.52853158 17.32961982 0.00577986 0.00289953 0.00088995
N 21.92453305 10.18228852 12.79909611 -0.00377669 -0.00152131 -0.00114888
N 20.09941217 13.14426417 10.86325248 0.00339873 -0.00493820 0.00009907
N 18.88549829 15.51696217 15.34616497 0.00870411 -0.00606423 0.00184945
N 22.01490876 10.90455855 17.15055397 -0.00693350 0.00020180 -0.00262217
N 20.64181119 17.64781741 12.31099945 -0.00013182 0.00999114 -0.00141830
N 18.82793675 14.84340043 19.38641366 0.00459370 0.00023366 -0.00584228
N 19.81928501 13.78055099 24.03840542 0.00209191 -0.00873786 -0.00462530
N 20.43957999 18.45393199 26.61885518 -0.00038485 -0.00219774 -0.00486389
N 21.75174267 10.45884295 21.84700728 0.00429028 0.00441501 0.00217355
N 20.02593372 13.06329825 19.98376041 -0.00042599 -0.00500424 -0.00479553
N 18.82386462 15.80732789 24.27609744 -0.00409247 -0.00265390 -0.00477764
N 21.43597736 10.78683474 25.82778563 -0.00016136 -0.00295654 -0.00892126
N 20.89020353 17.72247859 21.43021491 0.00441292 -0.00071724 -0.00158489
N 18.69039575 24.74991954 1.38517300 -0.00165248 -0.00492176 -0.00786433
N 20.11283641 23.31417717 5.81505730 -0.00406788 -0.00544402 -0.00016316
N 20.46919517 28.22977111 7.96265526 -0.00107408 -0.00763709 -0.00625395
N 21.85161149 19.76473474 3.13837415 0.00190965 -0.00068125 0.00182821
N 20.03717779 22.94586836 1.83169711 0.00037018 -0.00037690 -0.00353319
N 18.90830775 25.22856417 6.08699017 -0.00194073 -0.00240427 0.00197278